Protein in INSANE! Membrane UpperLeaflet>POPC=1.0 LowerLeaflet>POPC=1.0
239479
   85AUC    AUC    1  13.726  35.937   7.503
   86AUC    AUC    2  13.971  35.937   7.351
   87AUC    AUC    3  13.971  35.937   7.654
   88AUC    AUC    4  13.481  35.937   7.351
   89AUC    AUC    5  13.481  35.937   7.654
   90AUC    AUC    6  13.574  36.183   7.503
   91AUC    AUC    7  13.878  36.183   7.503
   92AUC    AUC    8  13.574  35.692   7.503
   93AUC    AUC    9  13.878  35.692   7.503
   94AUC    AUC   10  13.726  35.786   7.748
   95AUC    AUC   11  13.726  36.089   7.748
   96AUC    AUC   12  13.726  35.786   7.257
   97AUC    AUC   13  13.726  36.089   7.257
   98AUC    AUC   14  14.217  35.937   7.199
   99AUC    AUC   15  14.217  35.937   7.503
  100AUC    AUC   16  14.217  35.937   7.806
  101AUC    AUC   17  13.235  35.937   7.199
  102AUC    AUC   18  13.235  35.937   7.503
  103AUC    AUC   19  13.235  35.937   7.806
  104AUC    AUC   20  13.423  36.428   7.503
  105AUC    AUC   21  13.726  36.428   7.503
  106AUC    AUC   22  14.029  36.428   7.503
  107AUC    AUC   23  13.423  35.447   7.503
  108AUC    AUC   24  13.726  35.447   7.503
  109AUC    AUC   25  14.029  35.447   7.503
  110AUC    AUC   26  13.726  35.634   7.993
  111AUC    AUC   27  13.726  35.937   7.993
  112AUC    AUC   28  13.726  36.241   7.993
  113AUC    AUC   29  13.726  35.634   7.012
  114AUC    AUC   30  13.726  35.937   7.012
  115AUC    AUC   31  13.726  36.241   7.012
  116AUC    AUC   32  13.971  35.786   7.900
  117AUC    AUC   33  13.971  36.089   7.900
  118AUC    AUC   34  13.971  35.786   7.106
  119AUC    AUC   35  13.971  36.089   7.106
  120AUC    AUC   36  13.481  35.786   7.900
  121AUC    AUC   37  13.481  36.089   7.900
  122AUC    AUC   38  13.481  35.786   7.106
  123AUC    AUC   39  13.481  36.089   7.106
  124AUC    AUC   40  14.123  36.183   7.351
  125AUC    AUC   41  14.123  36.183   7.654
  126AUC    AUC   42  13.329  36.183   7.351
  127AUC    AUC   43  13.329  36.183   7.654
  128AUC    AUC   44  14.123  35.692   7.351
  129AUC    AUC   45  14.123  35.692   7.654
  130AUC    AUC   46  13.329  35.692   7.351
  131AUC    AUC   47  13.329  35.692   7.654
  132AUC    AUC   48  13.574  36.335   7.748
  133AUC    AUC   49  13.878  36.335   7.748
  134AUC    AUC   50  13.574  35.540   7.748
  135AUC    AUC   51  13.878  35.540   7.748
  136AUC    AUC   52  13.574  36.335   7.257
  137AUC    AUC   53  13.878  36.335   7.257
  138AUC    AUC   54  13.574  35.540   7.257
  139AUC    AUC   55  13.878  35.540   7.257
  140AUSL   AUS   56  14.135  35.937   8.083
  141AUSL   AUS   57  13.991  35.521   8.013
  142AUL    AUL   58  14.217  35.634   8.297
  143THSLK    S   59  14.101  35.334   8.153
  144ETHY    C1   60  14.137  34.935   8.368
  145ETHY    C1   61  14.247  34.505   8.665
  146ETHY    C1   62  14.425  34.141   9.000
  147ETHY    C1   63  14.659  33.845   9.364
  148ETHY    C1   64  14.945  33.628   9.752
  149ETHY    C1   65  15.276  33.495  10.156
  150THSLK    S   66  14.228  35.885   8.324
  151ETHY    C1   67  14.432  35.665   8.665
  152ETHY    C1   68  14.696  35.488   9.094
  153ETHY    C1   69  14.972  35.412   9.535
  154ETHY    C1   70  15.249  35.429   9.980
  155ETHY    C1   71  15.519  35.542  10.419
  156ETHY    C1   72  15.778  35.751  10.845
  157AUSL   AUS   73  13.890  35.786   8.176
  158AUSL   AUS   74  13.562  36.089   8.176
  159AUL    AUL   75  13.726  35.937   8.484
  160THSLK    S   76  13.965  35.731   8.413
  161ETHY    C1   77  14.029  35.451   8.765
  162ETHY    C1   78  14.132  35.196   9.223
  163ETHY    C1   79  14.259  35.037   9.708
  164ETHY    C1   80  14.401  34.968  10.208
  165ETHY    C1   81  14.555  34.996  10.713
  166ETHY    C1   82  14.715  35.120  11.212
  167THSLK    S   83  13.477  36.043   8.428
  168ETHY    C1   84  13.403  35.893   8.850
  169ETHY    C1   85  13.298  35.805   9.367
  170ETHY    C1   86  13.176  35.817   9.878
  171ETHY    C1   87  13.038  35.918  10.373
  172ETHY    C1   88  12.883  36.111  10.840
  173ETHY    C1   89  12.714  36.392  11.268
  174AUSL   AUS   90  13.890  36.089   8.176
  175AUSL   AUS   91  14.236  36.202   7.919
  176AUL    AUL   92  14.217  36.241   8.297
  177THSLK    S   93  13.975  36.145   8.410
  178ETHY    C1   94  14.049  36.426   8.759
  179ETHY    C1   95  14.154  36.681   9.217
  180ETHY    C1   96  14.276  36.840   9.703
  181ETHY    C1   97  14.415  36.909  10.204
  182ETHY    C1   98  14.569  36.882  10.708
  183ETHY    C1   99  14.738  36.758  11.206
  184THSLK    S  100  14.408  36.300   8.080
  185ETHY    C1  101  14.771  36.271   8.350
  186ETHY    C1  102  15.193  36.327   8.673
  187ETHY    C1  103  15.585  36.481   8.989
  188ETHY    C1  104  15.939  36.719   9.293
  189ETHY    C1  105  16.246  37.040   9.580
  190ETHY    C1  106  16.497  37.437   9.844
  191AUSL   AUS  107  14.135  35.937   6.923
  192AUSL   AUS  108  13.991  36.354   6.992
  193AUL    AUL  109  14.217  36.241   6.708
  194THSLK    S  110  14.237  35.885   6.687
  195ETHY    C1  111  14.450  35.665   6.351
  196ETHY    C1  112  14.715  35.488   5.923
  197ETHY    C1  113  14.987  35.412   5.479
  198ETHY    C1  114  15.261  35.429   5.033
  199ETHY    C1  115  15.532  35.542   4.594
  200ETHY    C1  116  15.797  35.751   4.173
  201THSLK    S  117  14.169  36.465   6.829
  202ETHY    C1  118  14.471  36.533   6.497
  203ETHY    C1  119  14.790  36.696   6.100
  204ETHY    C1  120  15.055  36.943   5.719
  205ETHY    C1  121  15.267  37.263   5.362
  206ETHY    C1  122  15.420  37.653   5.039
  207ETHY    C1  123  15.511  38.105   4.759
  208AUSL   AUS  124  13.890  35.786   6.829
  209AUSL   AUS  125  14.236  35.673   7.086
  210AUL    AUL  126  14.217  35.634   6.708
  211THSLK    S  127  14.369  35.481   6.949
  212ETHY    C1  128  14.552  35.114   6.752
  213ETHY    C1  129  14.824  34.742   6.483
  214ETHY    C1  130  15.149  34.453   6.186
  215ETHY    C1  131  15.515  34.246   5.874
  216ETHY    C1  132  15.919  34.127   5.555
  217ETHY    C1  133  16.352  34.102   5.235
  218THSLK    S  134  13.975  35.730   6.596
  219ETHY    C1  135  14.049  35.449   6.246
  220ETHY    C1  136  14.154  35.193   5.788
  221ETHY    C1  137  14.276  35.035   5.302
  222ETHY    C1  138  14.415  34.966   4.801
  223ETHY    C1  139  14.569  34.993   4.297
  224ETHY    C1  140  14.738  35.117   3.799
  225AUSL   AUS  141  13.890  36.089   6.829
  226AUSL   AUS  142  13.562  35.786   6.829
  227AUL    AUL  143  13.726  35.937   6.521
  228THSLK    S  144  13.470  35.730   6.597
  229ETHY    C1  145  13.335  35.452   6.264
  230ETHY    C1  146  13.174  35.199   5.822
  231ETHY    C1  147  13.022  35.042   5.343
  232ETHY    C1  148  12.886  34.973   4.842
  233ETHY    C1  149  12.769  34.999   4.328
  234ETHY    C1  150  12.676  35.118   3.810
  235THSLK    S  151  13.992  36.043   6.583
  236ETHY    C1  152  14.138  35.893   6.179
  237ETHY    C1  153  14.300  35.802   5.678
  238ETHY    C1  154  14.447  35.812   5.173
  239ETHY    C1  155  14.580  35.913   4.677
  240ETHY    C1  156  14.697  36.108   4.200
  241ETHY    C1  157  14.798  36.394   3.754
  242AUSL   AUS  158  13.317  35.937   8.083
  243AUSL   AUS  159  13.461  36.354   8.013
  244AUL    AUL  160  13.235  36.241   8.297
  245THSLK    S  161  13.215  35.885   8.319
  246ETHY    C1  162  13.003  35.665   8.654
  247ETHY    C1  163  12.737  35.488   9.082
  248ETHY    C1  164  12.465  35.412   9.526
  249ETHY    C1  165  12.191  35.429   9.973
  250ETHY    C1  166  11.920  35.542  10.411
  251ETHY    C1  167  11.655  35.751  10.832
  252THSLK    S  168  13.344  36.478   8.202
  253ETHY    C1  169  13.301  36.621   8.632
  254ETHY    C1  170  13.190  36.846   9.104
  255ETHY    C1  171  13.014  37.123   9.515
  256ETHY    C1  172  12.783  37.439   9.863
  257ETHY    C1  173  12.497  37.787  10.138
  258ETHY    C1  174  12.160  38.160  10.334
  259AUSL   AUS  175  13.562  35.786   8.176
  260AUSL   AUS  176  13.216  35.673   7.919
  261AUL    AUL  177  13.235  35.634   8.297
  262THSLK    S  178  13.039  35.510   8.026
  263ETHY    C1  179  12.668  35.253   8.082
  264ETHY    C1  180  12.246  34.965   8.237
  265ETHY    C1  181  11.856  34.710   8.482
  266ETHY    C1  182  11.504  34.493   8.803
  267ETHY    C1  183  11.198  34.322   9.198
  268ETHY    C1  184  10.941  34.201   9.657
  269THSLK    S  185  13.460  35.732   8.406
  270ETHY    C1  186  13.314  35.456   8.736
  271ETHY    C1  187  13.152  35.204   9.178
  272ETHY    C1  188  13.005  35.046   9.658
  273ETHY    C1  189  12.872  34.976  10.160
  274ETHY    C1  190  12.755  35.002  10.674
  275ETHY    C1  191  12.654  35.123  11.190
  276AUSL   AUS  192  13.317  35.937   6.923
  277AUSL   AUS  193  13.461  35.521   6.992
  278AUL    AUL  194  13.235  35.634   6.708
  279THSLK    S  195  13.224  35.885   6.681
  280ETHY    C1  196  13.020  35.665   6.341
  281ETHY    C1  197  12.756  35.488   5.911
  282ETHY    C1  198  12.480  35.412   5.470
  283ETHY    C1  199  12.203  35.429   5.025
  284ETHY    C1  200  11.933  35.542   4.586
  285ETHY    C1  201  11.674  35.751   4.161
  286THSLK    S  202  13.290  35.348   6.878
  287ETHY    C1  203  12.995  35.022   6.760
  288ETHY    C1  204  12.677  34.655   6.538
  289ETHY    C1  205  12.409  34.320   6.233
  290ETHY    C1  206  12.195  34.020   5.861
  291ETHY    C1  207  12.043  33.762   5.426
  292ETHY    C1  208  11.957  33.550   4.937
  293AUSL   AUS  209  13.562  36.089   6.829
  294AUSL   AUS  210  13.216  36.202   7.086
  295AUL    AUL  211  13.235  36.241   6.708
  296THSLK    S  212  13.089  36.329   6.895
  297ETHY    C1  213  12.912  36.410   6.484
  298ETHY    C1  214  12.641  36.550   6.046
  299ETHY    C1  215  12.314  36.738   5.679
  300ETHY    C1  216  11.945  36.967   5.385
  301ETHY    C1  217  11.543  37.234   5.173
  302ETHY    C1  218  11.114  37.536   5.047
  303THSLK    S  219  13.487  36.045   6.576
  304ETHY    C1  220  13.423  35.898   6.150
  305ETHY    C1  221  13.320  35.809   5.634
  306ETHY    C1  222  13.193  35.820   5.123
  307ETHY    C1  223  13.051  35.921   4.629
  308ETHY    C1  224  12.898  36.114   4.162
  309ETHY    C1  225  12.737  36.397   3.732
  310AUSL   AUS  226  14.306  36.346   7.503
  311AUSL   AUS  227  14.236  36.202   7.086
  312AUL    AUL  228  14.520  36.428   7.199
  313THSLK    S  229  14.414  36.301   6.934
  314ETHY    C1  230  14.784  36.274   6.671
  315ETHY    C1  231  15.206  36.330   6.349
  316ETHY    C1  232  15.596  36.484   6.030
  317ETHY    C1  233  15.948  36.721   5.724
  318ETHY    C1  234  16.255  37.042   5.438
  319ETHY    C1  235  16.511  37.441   5.179
  320THSLK    S  236  14.572  36.399   7.508
  321ETHY    C1  237  15.026  36.421   7.513
  322ETHY    C1  238  15.548  36.535   7.514
  323ETHY    C1  239  16.031  36.744   7.511
  324ETHY    C1  240  16.467  37.034   7.510
  325ETHY    C1  241  16.846  37.401   7.510
  326ETHY    C1  242  17.160  37.841   7.514
  327AUSL   AUS  243  14.400  36.101   7.351
  328AUSL   AUS  244  14.400  35.774   7.654
  329AUL    AUL  245  14.708  35.937   7.503
  330THSLK    S  246  14.656  36.140   7.350
  331ETHY    C1  247  15.092  36.032   7.286
  332ETHY    C1  248  15.618  35.994   7.201
  333ETHY    C1  249  16.133  36.058   7.113
  334ETHY    C1  250  16.627  36.212   7.026
  335ETHY    C1  251  17.087  36.457   6.945
  336ETHY    C1  252  17.506  36.789   6.873
  337THSLK    S  253  14.627  35.634   7.663
  338ETHY    C1  254  14.946  35.318   7.728
  339ETHY    C1  255  15.379  35.014   7.807
  340ETHY    C1  256  15.854  34.804   7.887
  341ETHY    C1  257  16.357  34.683   7.971
  342ETHY    C1  258  16.877  34.657   8.058
  343ETHY    C1  259  17.405  34.727   8.147
  344AUSL   AUS  260  14.400  36.101   7.654
  345AUSL   AUS  261  14.142  36.448   7.767
  346AUL    AUL  262  14.520  36.428   7.806
  347THSLK    S  263  14.325  36.562   7.926
  348ETHY    C1  264  14.708  36.680   8.140
  349ETHY    C1  265  15.126  36.903   8.388
  350ETHY    C1  266  15.485  37.208   8.622
  351ETHY    C1  267  15.782  37.581   8.840
  352ETHY    C1  268  16.007  38.015   9.038
  353ETHY    C1  269  16.154  38.503   9.215
  354THSLK    S  270  14.654  36.140   7.665
  355ETHY    C1  271  15.089  36.032   7.740
  356ETHY    C1  272  15.615  35.994   7.826
  357ETHY    C1  273  16.130  36.057   7.910
  358ETHY    C1  274  16.624  36.211   7.993
  359ETHY    C1  275  17.085  36.456   8.075
  360ETHY    C1  276  17.502  36.788   8.155
  361AUSL   AUS  277  13.146  36.346   7.503
  362AUSL   AUS  278  13.216  36.202   7.919
  363AUL    AUL  279  12.932  36.428   7.806
  364THSLK    S  280  13.083  36.321   8.109
  365ETHY    C1  281  12.900  36.393   8.519
  366ETHY    C1  282  12.628  36.533   8.957
  367ETHY    C1  283  12.303  36.724   9.324
  368ETHY    C1  284  11.937  36.955   9.619
  369ETHY    C1  285  11.534  37.222   9.831
  370ETHY    C1  286  11.100  37.518   9.956
  371THSLK    S  287  12.935  36.487   7.508
  372ETHY    C1  288  12.713  36.884   7.513
  373ETHY    C1  289  12.377  37.299   7.514
  374ETHY    C1  290  11.974  37.638   7.511
  375ETHY    C1  291  11.520  37.899   7.510
  376ETHY    C1  292  11.021  38.073   7.510
  377ETHY    C1  293  10.488  38.157   7.514
  378AUSL   AUS  294  13.052  36.101   7.351
  379AUSL   AUS  295  13.310  36.448   7.238
  380AUL    AUL  296  12.932  36.428   7.199
  381THSLK    S  297  12.825  36.216   7.303
  382ETHY    C1  298  12.506  36.416   7.049
  383ETHY    C1  299  12.073  36.622   6.813
  384ETHY    C1  300  11.598  36.788   6.661
  385ETHY    C1  301  11.095  36.917   6.590
  386ETHY    C1  302  10.575  37.007   6.605
  387ETHY    C1  303  10.047  37.055   6.708
  388THSLK    S  304  13.198  36.611   7.060
  389ETHY    C1  305  13.119  36.921   6.737
  390ETHY    C1  306  12.944  37.295   6.397
  391ETHY    C1  307  12.690  37.663   6.120
  392ETHY    C1  308  12.370  38.020   5.909
  393ETHY    C1  309  11.989  38.358   5.770
  394ETHY    C1  310  11.554  38.672   5.709
  395AUSL   AUS  311  13.052  36.101   7.654
  396AUSL   AUS  312  13.052  35.774   7.351
  397AUL    AUL  313  12.744  35.937   7.503
  398THSLK    S  314  12.798  35.701   7.394
  399ETHY    C1  315  12.363  35.683   7.524
  400ETHY    C1  316  11.837  35.623   7.597
  401ETHY    C1  317  11.322  35.519   7.578
  402ETHY    C1  318  10.828  35.376   7.477
  403ETHY    C1  319  10.368  35.193   7.294
  404ETHY    C1  320   9.950  34.973   7.034
  405THSLK    S  321  12.824  36.207   7.707
  406ETHY    C1  322  12.503  36.398   7.966
  407ETHY    C1  323  12.070  36.602   8.202
  408ETHY    C1  324  11.595  36.773   8.352
  409ETHY    C1  325  11.093  36.905   8.422
  410ETHY    C1  326  10.573  36.993   8.407
  411ETHY    C1  327  10.044  37.034   8.308
  412AUSL   AUS  328  14.306  35.528   7.503
  413AUSL   AUS  329  14.236  35.673   7.919
  414AUL    AUL  330  14.520  35.447   7.806
  415THSLK    S  331  14.517  35.387   7.508
  416ETHY    C1  332  14.739  34.991   7.513
  417ETHY    C1  333  15.075  34.576   7.514
  418ETHY    C1  334  15.478  34.237   7.511
  419ETHY    C1  335  15.932  33.976   7.510
  420ETHY    C1  336  16.431  33.802   7.510
  421ETHY    C1  337  16.964  33.718   7.514
  422THSLK    S  338  14.363  35.482   8.064
  423ETHY    C1  339  14.540  35.117   8.270
  424ETHY    C1  340  14.811  34.745   8.540
  425ETHY    C1  341  15.138  34.456   8.834
  426ETHY    C1  342  15.507  34.248   9.142
  427ETHY    C1  343  15.909  34.130   9.462
  428ETHY    C1  344  16.338  34.105   9.789
  429AUSL   AUS  345  14.400  35.774   7.351
  430AUSL   AUS  346  14.142  35.427   7.238
  431AUL    AUL  347  14.520  35.447   7.199
  432THSLK    S  348  14.628  35.634   7.353
  433ETHY    C1  349  14.949  35.317   7.298
  434ETHY    C1  350  15.382  35.014   7.221
  435ETHY    C1  351  15.857  34.804   7.136
  436ETHY    C1  352  16.359  34.683   7.048
  437ETHY    C1  353  16.879  34.656   6.963
  438ETHY    C1  354  17.408  34.727   6.881
  439THSLK    S  355  14.258  35.238   7.108
  440ETHY    C1  356  14.342  34.809   6.984
  441ETHY    C1  357  14.517  34.337   6.803
  442ETHY    C1  358  14.770  33.926   6.593
  443ETHY    C1  359  15.088  33.578   6.366
  444ETHY    C1  360  15.470  33.303   6.126
  445ETHY    C1  361  15.908  33.106   5.880
  446AUSL   AUS  362  13.146  35.528   7.503
  447AUSL   AUS  363  13.216  35.673   7.086
  448AUL    AUL  364  12.932  35.447   7.199
  449THSLK    S  365  13.045  35.502   6.978
  450ETHY    C1  366  12.681  35.237   6.921
  451ETHY    C1  367  12.259  34.947   6.766
  452ETHY    C1  368  11.867  34.695   6.521
  453ETHY    C1  369  11.513  34.482   6.200
  454ETHY    C1  370  11.206  34.309   5.806
  455ETHY    C1  371  10.955  34.182   5.346
  456THSLK    S  372  12.880  35.476   7.508
  457ETHY    C1  373  12.426  35.454   7.513
  458ETHY    C1  374  11.904  35.340   7.514
  459ETHY    C1  375  11.422  35.131   7.511
  460ETHY    C1  376  10.985  34.841   7.510
  461ETHY    C1  377  10.606  34.474   7.510
  462ETHY    C1  378  10.293  34.034   7.514
  463AUSL   AUS  379  13.052  35.774   7.654
  464AUSL   AUS  380  13.310  35.427   7.767
  465AUL    AUL  381  12.932  35.447   7.806
  466THSLK    S  382  13.122  35.287   7.878
  467ETHY    C1  383  12.735  35.050   7.893
  468ETHY    C1  384  12.317  34.730   7.982
  469ETHY    C1  385  11.959  34.381   8.149
  470ETHY    C1  386  11.664  34.017   8.382
  471ETHY    C1  387  11.439  33.646   8.683
  472ETHY    C1  388  11.288  33.275   9.045
  473THSLK    S  389  12.796  35.711   7.616
  474ETHY    C1  390  12.360  35.701   7.491
  475ETHY    C1  391  11.834  35.642   7.419
  476ETHY    C1  392  11.319  35.535   7.436
  477ETHY    C1  393  10.825  35.389   7.535
  478ETHY    C1  394  10.365  35.207   7.718
  479ETHY    C1  395   9.946  34.994   7.983
  480AUSL   AUS  396  13.726  36.517   7.912
  481AUSL   AUS  397  13.310  36.448   7.767
  482AUL    AUL  398  13.423  36.732   7.993
  483THSLK    S  399  13.194  36.604   7.952
  484ETHY    C1  400  13.110  36.906   8.280
  485ETHY    C1  401  12.935  37.279   8.621
  486ETHY    C1  402  12.682  37.650   8.895
  487ETHY    C1  403  12.364  38.009   9.105
  488ETHY    C1  404  11.982  38.347   9.244
  489ETHY    C1  405  11.544  38.655   9.309
  490THSLK    S  406  13.768  36.739   8.035
  491ETHY    C1  407  13.952  37.014   8.347
  492ETHY    C1  408  14.102  37.394   8.691
  493ETHY    C1  409  14.168  37.817   8.998
  494ETHY    C1  410  14.155  38.268   9.264
  495ETHY    C1  411  14.058  38.737   9.485
  496ETHY    C1  412  13.878  39.216   9.656
  497AUSL   AUS  413  13.574  36.611   7.666
  498AUSL   AUS  414  13.878  36.611   7.339
  499AUL    AUL  415  13.726  36.919   7.503
  500THSLK    S  416  13.617  36.855   7.776
  501ETHY    C1  417  13.761  37.249   7.951
  502ETHY    C1  418  13.848  37.743   8.137
  503ETHY    C1  419  13.836  38.244   8.294
  504ETHY    C1  420  13.735  38.742   8.425
  505ETHY    C1  421  13.543  39.223   8.527
  506ETHY    C1  422  13.263  39.678   8.600
  507THSLK    S  423  13.933  36.842   7.243
  508ETHY    C1  424  14.209  37.172   7.096
  509ETHY    C1  425  14.459  37.613   6.927
  510ETHY    C1  426  14.615  38.090   6.771
  511ETHY    C1  427  14.684  38.592   6.635
  512ETHY    C1  428  14.660  39.108   6.525
  513ETHY    C1  429  14.543  39.628   6.443
  514AUSL   AUS  430  13.878  36.611   7.666
  515AUSL   AUS  431  13.991  36.354   8.013
  516AUL    AUL  432  14.029  36.732   7.993
  517THSLK    S  433  14.162  36.462   8.183
  518ETHY    C1  434  14.457  36.527   8.523
  519ETHY    C1  435  14.775  36.689   8.920
  520ETHY    C1  436  15.043  36.938   9.298
  521ETHY    C1  437  15.257  37.260   9.653
  522ETHY    C1  438  15.409  37.648   9.976
  523ETHY    C1  439  15.495  38.098  10.262
  524THSLK    S  440  13.931  36.840   7.772
  525ETHY    C1  441  14.203  37.168   7.929
  526ETHY    C1  442  14.453  37.608   8.100
  527ETHY    C1  443  14.611  38.087   8.251
  528ETHY    C1  444  14.680  38.589   8.383
  529ETHY    C1  445  14.656  39.104   8.494
  530ETHY    C1  446  14.537  39.623   8.585
  531AUSL   AUS  447  13.726  35.357   7.912
  532AUSL   AUS  448  14.142  35.427   7.767
  533AUL    AUL  449  14.029  35.143   7.993
  534THSLK    S  450  13.679  35.107   7.989
  535ETHY    C1  451  13.489  34.711   8.103
  536ETHY    C1  452  13.338  34.233   8.289
  537ETHY    C1  453  13.275  33.768   8.528
  538ETHY    C1  454  13.290  33.326   8.809
  539ETHY    C1  455  13.386  32.919   9.132
  540ETHY    C1  456  13.561  32.556   9.489
  541THSLK    S  457  14.254  35.240   7.907
  542ETHY    C1  458  14.333  34.812   8.040
  543ETHY    C1  459  14.508  34.342   8.222
  544ETHY    C1  460  14.762  33.930   8.428
  545ETHY    C1  461  15.082  33.581   8.652
  546ETHY    C1  462  15.463  33.306   8.893
  547ETHY    C1  463  15.898  33.110   9.147
  548AUSL   AUS  464  13.574  35.264   7.666
  549AUSL   AUS  465  13.461  35.521   8.013
  550AUL    AUL  466  13.423  35.143   7.993
  551THSLK    S  467  13.519  35.028   7.745
  552ETHY    C1  468  13.244  34.669   7.788
  553ETHY    C1  469  12.993  34.204   7.869
  554ETHY    C1  470  12.837  33.714   7.981
  555ETHY    C1  471  12.768  33.215   8.122
  556ETHY    C1  472  12.792  32.715   8.292
  557ETHY    C1  473  12.909  32.227   8.489
  558THSLK    S  474  13.283  35.355   8.129
  559ETHY    C1  475  12.981  35.037   8.248
  560ETHY    C1  476  12.662  34.670   8.471
  561ETHY    C1  477  12.397  34.333   8.776
  562ETHY    C1  478  12.185  34.031   9.147
  563ETHY    C1  479  12.032  33.773   9.582
  564ETHY    C1  480  11.941  33.566  10.072
  565AUSL   AUS  481  13.878  35.264   7.666
  566AUSL   AUS  482  13.574  35.264   7.339
  567AUL    AUL  483  13.726  34.956   7.503
  568THSLK    S  484  13.521  35.025   7.270
  569ETHY    C1  485  13.249  34.663   7.236
  570ETHY    C1  486  12.999  34.198   7.157
  571ETHY    C1  487  12.842  33.709   7.041
  572ETHY    C1  488  12.772  33.210   6.896
  573ETHY    C1  489  12.796  32.711   6.727
  574ETHY    C1  490  12.915  32.220   6.538
  575THSLK    S  491  13.832  35.012   7.749
  576ETHY    C1  492  13.685  34.586   7.811
  577ETHY    C1  493  13.599  34.068   7.906
  578ETHY    C1  494  13.611  33.555   8.025
  579ETHY    C1  495  13.713  33.060   8.165
  580ETHY    C1  496  13.905  32.595   8.325
  581ETHY    C1  497  14.183  32.169   8.504
  582AUSL   AUS  498  13.726  36.517   7.094
  583AUSL   AUS  499  14.142  36.448   7.238
  584AUL    AUL  500  14.029  36.732   7.012
  585THSLK    S  501  13.773  36.744   6.977
  586ETHY    C1  502  13.963  37.023   6.674
  587ETHY    C1  503  14.114  37.404   6.330
  588ETHY    C1  504  14.178  37.824   6.021
  589ETHY    C1  505  14.162  38.274   5.752
  590ETHY    C1  506  14.066  38.744   5.532
  591ETHY    C1  507  13.891  39.227   5.366
  592THSLK    S  508  14.330  36.564   7.089
  593ETHY    C1  509  14.717  36.684   6.883
  594ETHY    C1  510  15.135  36.907   6.637
  595ETHY    C1  511  15.493  37.211   6.400
  596ETHY    C1  512  15.788  37.583   6.178
  597ETHY    C1  513  16.013  38.018   5.981
  598ETHY    C1  514  16.164  38.507   5.811
  599AUSL   AUS  515  13.574  36.611   7.339
  600AUSL   AUS  516  13.461  36.354   6.992
  601AUL    AUL  517  13.423  36.732   7.012
  602THSLK    S  518  13.620  36.858   7.239
  603ETHY    C1  519  13.767  37.255   7.074
  604ETHY    C1  520  13.853  37.749   6.889
  605ETHY    C1  521  13.841  38.250   6.727
  606ETHY    C1  522  13.739  38.746   6.593
  607ETHY    C1  523  13.547  39.227   6.492
  608ETHY    C1  524  13.269  39.685   6.427
  609THSLK    S  525  13.351  36.486   6.805
  610ETHY    C1  526  13.315  36.635   6.377
  611ETHY    C1  527  13.205  36.861   5.906
  612ETHY    C1  528  13.027  37.136   5.494
  613ETHY    C1  529  12.793  37.449   5.145
  614ETHY    C1  530  12.507  37.798   4.870
  615ETHY    C1  531  12.176  38.176   4.675
  616AUSL   AUS  532  13.726  35.357   7.094
  617AUSL   AUS  533  13.310  35.427   7.238
  618AUL    AUL  534  13.423  35.143   7.012
  619THSLK    S  535  13.127  35.279   7.134
  620ETHY    C1  536  12.744  35.035   7.124
  621ETHY    C1  537  12.326  34.714   7.035
  622ETHY    C1  538  11.967  34.368   6.866
  623ETHY    C1  539  11.670  34.007   6.631
  624ETHY    C1  540  11.445  33.635   6.331
  625ETHY    C1  541  11.298  33.258   5.974
  626THSLK    S  542  13.684  35.102   7.024
  627ETHY    C1  543  13.500  34.701   6.917
  628ETHY    C1  544  13.350  34.223   6.732
  629ETHY    C1  545  13.284  33.760   6.491
  630ETHY    C1  546  13.297  33.320   6.206
  631ETHY    C1  547  13.394  32.913   5.885
  632ETHY    C1  548  13.574  32.545   5.533
  633AUSL   AUS  549  13.878  35.264   7.339
  634AUSL   AUS  550  13.991  35.521   6.992
  635AUL    AUL  551  14.029  35.143   7.012
  636THSLK    S  552  13.835  35.010   7.266
  637ETHY    C1  553  13.691  34.582   7.213
  638ETHY    C1  554  13.604  34.063   7.120
  639ETHY    C1  555  13.616  33.551   6.997
  640ETHY    C1  556  13.717  33.057   6.854
  641ETHY    C1  557  13.909  32.592   6.695
  642ETHY    C1  558  14.189  32.164   6.523
  643THSLK    S  559  14.108  35.331   6.859
  644ETHY    C1  560  14.152  34.929   6.651
  645ETHY    C1  561  14.262  34.498   6.355
  646ETHY    C1  562  14.438  34.135   6.017
  647ETHY    C1  563  14.669  33.841   5.651
  648ETHY    C1  564  14.955  33.624   5.264
  649ETHY    C1  565  15.292  33.488   4.865
  650AUC    AUC  566  21.424   2.425   7.503
  651AUC    AUC  567  21.669   2.425   7.351
  652AUC    AUC  568  21.669   2.425   7.654
  653AUC    AUC  569  21.179   2.425   7.351
  654AUC    AUC  570  21.179   2.425   7.654
  655AUC    AUC  571  21.272   2.671   7.503
  656AUC    AUC  572  21.576   2.671   7.503
  657AUC    AUC  573  21.272   2.180   7.503
  658AUC    AUC  574  21.576   2.180   7.503
  659AUC    AUC  575  21.424   2.274   7.748
  660AUC    AUC  576  21.424   2.577   7.748
  661AUC    AUC  577  21.424   2.274   7.257
  662AUC    AUC  578  21.424   2.577   7.257
  663AUC    AUC  579  21.915   2.425   7.199
  664AUC    AUC  580  21.915   2.425   7.503
  665AUC    AUC  581  21.915   2.425   7.806
  666AUC    AUC  582  20.933   2.425   7.199
  667AUC    AUC  583  20.933   2.425   7.503
  668AUC    AUC  584  20.933   2.425   7.806
  669AUC    AUC  585  21.121   2.916   7.503
  670AUC    AUC  586  21.424   2.916   7.503
  671AUC    AUC  587  21.727   2.916   7.503
  672AUC    AUC  588  21.121   1.935   7.503
  673AUC    AUC  589  21.424   1.935   7.503
  674AUC    AUC  590  21.727   1.935   7.503
  675AUC    AUC  591  21.424   2.122   7.993
  676AUC    AUC  592  21.424   2.425   7.993
  677AUC    AUC  593  21.424   2.729   7.993
  678AUC    AUC  594  21.424   2.122   7.012
  679AUC    AUC  595  21.424   2.425   7.012
  680AUC    AUC  596  21.424   2.729   7.012
  681AUC    AUC  597  21.669   2.274   7.900
  682AUC    AUC  598  21.669   2.577   7.900
  683AUC    AUC  599  21.669   2.274   7.106
  684AUC    AUC  600  21.669   2.577   7.106
  685AUC    AUC  601  21.179   2.274   7.900
  686AUC    AUC  602  21.179   2.577   7.900
  687AUC    AUC  603  21.179   2.274   7.106
  688AUC    AUC  604  21.179   2.577   7.106
  689AUC    AUC  605  21.821   2.671   7.351
  690AUC    AUC  606  21.821   2.671   7.654
  691AUC    AUC  607  21.027   2.671   7.351
  692AUC    AUC  608  21.027   2.671   7.654
  693AUC    AUC  609  21.821   2.180   7.351
  694AUC    AUC  610  21.821   2.180   7.654
  695AUC    AUC  611  21.027   2.180   7.351
  696AUC    AUC  612  21.027   2.180   7.654
  697AUC    AUC  613  21.272   2.823   7.748
  698AUC    AUC  614  21.576   2.823   7.748
  699AUC    AUC  615  21.272   2.028   7.748
  700AUC    AUC  616  21.576   2.028   7.748
  701AUC    AUC  617  21.272   2.823   7.257
  702AUC    AUC  618  21.576   2.823   7.257
  703AUC    AUC  619  21.272   2.028   7.257
  704AUC    AUC  620  21.576   2.028   7.257
  705AUSL   AUS  621  21.833   2.425   8.083
  706AUSL   AUS  622  21.689   2.009   8.013
  707AUL    AUL  623  21.915   2.122   8.297
  708THSLK    S  624  21.799   1.822   8.153
  709ETHY    C1  625  21.835   1.423   8.368
  710ETHY    C1  626  21.945   0.993   8.665
  711ETHY    C1  627  22.123   0.629   9.000
  712ETHY    C1  628  22.357   0.333   9.364
  713ETHY    C1  629  22.643   0.116   9.752
  714ETHY    C1  630  22.974  -0.017  10.156
  715THSLK    S  631  21.926   2.373   8.324
  716ETHY    C1  632  22.130   2.153   8.665
  717ETHY    C1  633  22.394   1.976   9.094
  718ETHY    C1  634  22.670   1.900   9.535
  719ETHY    C1  635  22.947   1.917   9.980
  720ETHY    C1  636  23.217   2.030  10.419
  721ETHY    C1  637  23.476   2.239  10.845
  722AUSL   AUS  638  21.588   2.274   8.176
  723AUSL   AUS  639  21.260   2.577   8.176
  724AUL    AUL  640  21.424   2.425   8.484
  725THSLK    S  641  21.663   2.219   8.413
  726ETHY    C1  642  21.727   1.939   8.765
  727ETHY    C1  643  21.830   1.684   9.223
  728ETHY    C1  644  21.957   1.525   9.708
  729ETHY    C1  645  22.099   1.456  10.208
  730ETHY    C1  646  22.253   1.484  10.713
  731ETHY    C1  647  22.413   1.608  11.212
  732THSLK    S  648  21.175   2.531   8.428
  733ETHY    C1  649  21.101   2.381   8.850
  734ETHY    C1  650  20.996   2.293   9.367
  735ETHY    C1  651  20.874   2.305   9.878
  736ETHY    C1  652  20.736   2.406  10.373
  737ETHY    C1  653  20.581   2.599  10.840
  738ETHY    C1  654  20.412   2.880  11.268
  739AUSL   AUS  655  21.588   2.577   8.176
  740AUSL   AUS  656  21.934   2.690   7.919
  741AUL    AUL  657  21.915   2.729   8.297
  742THSLK    S  658  21.673   2.633   8.410
  743ETHY    C1  659  21.747   2.914   8.759
  744ETHY    C1  660  21.852   3.169   9.217
  745ETHY    C1  661  21.974   3.328   9.703
  746ETHY    C1  662  22.113   3.397  10.204
  747ETHY    C1  663  22.267   3.370  10.708
  748ETHY    C1  664  22.436   3.246  11.206
  749THSLK    S  665  22.106   2.788   8.080
  750ETHY    C1  666  22.469   2.759   8.350
  751ETHY    C1  667  22.891   2.815   8.673
  752ETHY    C1  668  23.283   2.969   8.989
  753ETHY    C1  669  23.637   3.207   9.293
  754ETHY    C1  670  23.944   3.528   9.580
  755ETHY    C1  671  24.195   3.925   9.844
  756AUSL   AUS  672  21.833   2.425   6.923
  757AUSL   AUS  673  21.689   2.842   6.992
  758AUL    AUL  674  21.915   2.729   6.708
  759THSLK    S  675  21.935   2.373   6.687
  760ETHY    C1  676  22.148   2.153   6.351
  761ETHY    C1  677  22.413   1.976   5.923
  762ETHY    C1  678  22.685   1.900   5.479
  763ETHY    C1  679  22.959   1.917   5.033
  764ETHY    C1  680  23.230   2.030   4.594
  765ETHY    C1  681  23.495   2.239   4.173
  766THSLK    S  682  21.867   2.953   6.829
  767ETHY    C1  683  22.169   3.021   6.497
  768ETHY    C1  684  22.488   3.184   6.100
  769ETHY    C1  685  22.753   3.431   5.719
  770ETHY    C1  686  22.965   3.751   5.362
  771ETHY    C1  687  23.118   4.141   5.039
  772ETHY    C1  688  23.209   4.593   4.759
  773AUSL   AUS  689  21.588   2.274   6.829
  774AUSL   AUS  690  21.934   2.161   7.086
  775AUL    AUL  691  21.915   2.122   6.708
  776THSLK    S  692  22.067   1.969   6.949
  777ETHY    C1  693  22.250   1.602   6.752
  778ETHY    C1  694  22.522   1.230   6.483
  779ETHY    C1  695  22.847   0.941   6.186
  780ETHY    C1  696  23.213   0.734   5.874
  781ETHY    C1  697  23.617   0.615   5.555
  782ETHY    C1  698  24.050   0.590   5.235
  783THSLK    S  699  21.673   2.218   6.596
  784ETHY    C1  700  21.747   1.937   6.246
  785ETHY    C1  701  21.852   1.681   5.788
  786ETHY    C1  702  21.974   1.523   5.302
  787ETHY    C1  703  22.113   1.454   4.801
  788ETHY    C1  704  22.267   1.481   4.297
  789ETHY    C1  705  22.436   1.605   3.799
  790AUSL   AUS  706  21.588   2.577   6.829
  791AUSL   AUS  707  21.260   2.274   6.829
  792AUL    AUL  708  21.424   2.425   6.521
  793THSLK    S  709  21.168   2.218   6.597
  794ETHY    C1  710  21.033   1.940   6.264
  795ETHY    C1  711  20.872   1.687   5.822
  796ETHY    C1  712  20.720   1.530   5.343
  797ETHY    C1  713  20.584   1.461   4.842
  798ETHY    C1  714  20.467   1.487   4.328
  799ETHY    C1  715  20.374   1.606   3.810
  800THSLK    S  716  21.690   2.531   6.583
  801ETHY    C1  717  21.836   2.381   6.179
  802ETHY    C1  718  21.998   2.290   5.678
  803ETHY    C1  719  22.145   2.300   5.173
  804ETHY    C1  720  22.278   2.401   4.677
  805ETHY    C1  721  22.395   2.596   4.200
  806ETHY    C1  722  22.496   2.882   3.754
  807AUSL   AUS  723  21.015   2.425   8.083
  808AUSL   AUS  724  21.159   2.842   8.013
  809AUL    AUL  725  20.933   2.729   8.297
  810THSLK    S  726  20.913   2.373   8.319
  811ETHY    C1  727  20.701   2.153   8.654
  812ETHY    C1  728  20.435   1.976   9.082
  813ETHY    C1  729  20.163   1.900   9.526
  814ETHY    C1  730  19.889   1.917   9.973
  815ETHY    C1  731  19.618   2.030  10.411
  816ETHY    C1  732  19.353   2.239  10.832
  817THSLK    S  733  21.042   2.966   8.202
  818ETHY    C1  734  20.999   3.109   8.632
  819ETHY    C1  735  20.888   3.334   9.104
  820ETHY    C1  736  20.712   3.611   9.515
  821ETHY    C1  737  20.481   3.927   9.863
  822ETHY    C1  738  20.195   4.275  10.138
  823ETHY    C1  739  19.858   4.648  10.334
  824AUSL   AUS  740  21.260   2.274   8.176
  825AUSL   AUS  741  20.914   2.161   7.919
  826AUL    AUL  742  20.933   2.122   8.297
  827THSLK    S  743  20.737   1.998   8.026
  828ETHY    C1  744  20.366   1.741   8.082
  829ETHY    C1  745  19.944   1.453   8.237
  830ETHY    C1  746  19.554   1.198   8.482
  831ETHY    C1  747  19.202   0.981   8.803
  832ETHY    C1  748  18.896   0.810   9.198
  833ETHY    C1  749  18.639   0.689   9.657
  834THSLK    S  750  21.158   2.220   8.406
  835ETHY    C1  751  21.012   1.944   8.736
  836ETHY    C1  752  20.850   1.692   9.178
  837ETHY    C1  753  20.703   1.534   9.658
  838ETHY    C1  754  20.570   1.464  10.160
  839ETHY    C1  755  20.453   1.490  10.674
  840ETHY    C1  756  20.352   1.611  11.190
  841AUSL   AUS  757  21.015   2.425   6.923
  842AUSL   AUS  758  21.159   2.009   6.992
  843AUL    AUL  759  20.933   2.122   6.708
  844THSLK    S  760  20.922   2.373   6.681
  845ETHY    C1  761  20.718   2.153   6.341
  846ETHY    C1  762  20.454   1.976   5.911
  847ETHY    C1  763  20.178   1.900   5.470
  848ETHY    C1  764  19.901   1.917   5.025
  849ETHY    C1  765  19.631   2.030   4.586
  850ETHY    C1  766  19.372   2.239   4.161
  851THSLK    S  767  20.988   1.836   6.878
  852ETHY    C1  768  20.693   1.510   6.760
  853ETHY    C1  769  20.375   1.143   6.538
  854ETHY    C1  770  20.107   0.808   6.233
  855ETHY    C1  771  19.893   0.508   5.861
  856ETHY    C1  772  19.741   0.250   5.426
  857ETHY    C1  773  19.655   0.038   4.937
  858AUSL   AUS  774  21.260   2.577   6.829
  859AUSL   AUS  775  20.914   2.690   7.086
  860AUL    AUL  776  20.933   2.729   6.708
  861THSLK    S  777  20.787   2.817   6.895
  862ETHY    C1  778  20.610   2.898   6.484
  863ETHY    C1  779  20.339   3.038   6.046
  864ETHY    C1  780  20.012   3.226   5.679
  865ETHY    C1  781  19.643   3.455   5.385
  866ETHY    C1  782  19.241   3.722   5.173
  867ETHY    C1  783  18.812   4.024   5.047
  868THSLK    S  784  21.185   2.533   6.576
  869ETHY    C1  785  21.121   2.386   6.150
  870ETHY    C1  786  21.018   2.297   5.634
  871ETHY    C1  787  20.891   2.308   5.123
  872ETHY    C1  788  20.749   2.409   4.629
  873ETHY    C1  789  20.596   2.602   4.162
  874ETHY    C1  790  20.435   2.885   3.732
  875AUSL   AUS  791  22.004   2.834   7.503
  876AUSL   AUS  792  21.934   2.690   7.086
  877AUL    AUL  793  22.218   2.916   7.199
  878THSLK    S  794  22.112   2.789   6.934
  879ETHY    C1  795  22.482   2.762   6.671
  880ETHY    C1  796  22.904   2.818   6.349
  881ETHY    C1  797  23.294   2.972   6.030
  882ETHY    C1  798  23.646   3.209   5.724
  883ETHY    C1  799  23.953   3.530   5.438
  884ETHY    C1  800  24.209   3.929   5.179
  885THSLK    S  801  22.270   2.887   7.508
  886ETHY    C1  802  22.724   2.909   7.513
  887ETHY    C1  803  23.246   3.023   7.514
  888ETHY    C1  804  23.729   3.232   7.511
  889ETHY    C1  805  24.165   3.522   7.510
  890ETHY    C1  806  24.544   3.889   7.510
  891ETHY    C1  807  24.858   4.329   7.514
  892AUSL   AUS  808  22.098   2.589   7.351
  893AUSL   AUS  809  22.098   2.262   7.654
  894AUL    AUL  810  22.406   2.425   7.503
  895THSLK    S  811  22.354   2.628   7.350
  896ETHY    C1  812  22.790   2.520   7.286
  897ETHY    C1  813  23.316   2.482   7.201
  898ETHY    C1  814  23.831   2.546   7.113
  899ETHY    C1  815  24.325   2.700   7.026
  900ETHY    C1  816  24.785   2.945   6.945
  901ETHY    C1  817  25.204   3.277   6.873
  902THSLK    S  818  22.325   2.122   7.663
  903ETHY    C1  819  22.644   1.806   7.728
  904ETHY    C1  820  23.077   1.502   7.807
  905ETHY    C1  821  23.552   1.292   7.887
  906ETHY    C1  822  24.055   1.171   7.971
  907ETHY    C1  823  24.575   1.145   8.058
  908ETHY    C1  824  25.103   1.215   8.147
  909AUSL   AUS  825  22.098   2.589   7.654
  910AUSL   AUS  826  21.840   2.936   7.767
  911AUL    AUL  827  22.218   2.916   7.806
  912THSLK    S  828  22.023   3.050   7.926
  913ETHY    C1  829  22.406   3.168   8.140
  914ETHY    C1  830  22.824   3.391   8.388
  915ETHY    C1  831  23.183   3.696   8.622
  916ETHY    C1  832  23.480   4.069   8.840
  917ETHY    C1  833  23.705   4.503   9.038
  918ETHY    C1  834  23.852   4.991   9.215
  919THSLK    S  835  22.352   2.628   7.665
  920ETHY    C1  836  22.787   2.520   7.740
  921ETHY    C1  837  23.313   2.482   7.826
  922ETHY    C1  838  23.828   2.545   7.910
  923ETHY    C1  839  24.322   2.699   7.993
  924ETHY    C1  840  24.783   2.944   8.075
  925ETHY    C1  841  25.200   3.276   8.155
  926AUSL   AUS  842  20.844   2.834   7.503
  927AUSL   AUS  843  20.914   2.690   7.919
  928AUL    AUL  844  20.630   2.916   7.806
  929THSLK    S  845  20.781   2.809   8.109
  930ETHY    C1  846  20.598   2.881   8.519
  931ETHY    C1  847  20.326   3.021   8.957
  932ETHY    C1  848  20.001   3.212   9.324
  933ETHY    C1  849  19.635   3.443   9.619
  934ETHY    C1  850  19.232   3.710   9.831
  935ETHY    C1  851  18.798   4.006   9.956
  936THSLK    S  852  20.633   2.975   7.508
  937ETHY    C1  853  20.411   3.372   7.513
  938ETHY    C1  854  20.075   3.787   7.514
  939ETHY    C1  855  19.672   4.126   7.511
  940ETHY    C1  856  19.218   4.387   7.510
  941ETHY    C1  857  18.719   4.561   7.510
  942ETHY    C1  858  18.186   4.645   7.514
  943AUSL   AUS  859  20.750   2.589   7.351
  944AUSL   AUS  860  21.008   2.936   7.238
  945AUL    AUL  861  20.630   2.916   7.199
  946THSLK    S  862  20.523   2.704   7.303
  947ETHY    C1  863  20.204   2.904   7.049
  948ETHY    C1  864  19.771   3.110   6.813
  949ETHY    C1  865  19.296   3.276   6.661
  950ETHY    C1  866  18.793   3.405   6.590
  951ETHY    C1  867  18.273   3.495   6.605
  952ETHY    C1  868  17.745   3.543   6.708
  953THSLK    S  869  20.896   3.099   7.060
  954ETHY    C1  870  20.817   3.409   6.737
  955ETHY    C1  871  20.642   3.783   6.397
  956ETHY    C1  872  20.388   4.151   6.120
  957ETHY    C1  873  20.068   4.508   5.909
  958ETHY    C1  874  19.687   4.846   5.770
  959ETHY    C1  875  19.252   5.160   5.709
  960AUSL   AUS  876  20.750   2.589   7.654
  961AUSL   AUS  877  20.750   2.262   7.351
  962AUL    AUL  878  20.442   2.425   7.503
  963THSLK    S  879  20.496   2.189   7.394
  964ETHY    C1  880  20.061   2.171   7.524
  965ETHY    C1  881  19.535   2.111   7.597
  966ETHY    C1  882  19.020   2.007   7.578
  967ETHY    C1  883  18.526   1.864   7.477
  968ETHY    C1  884  18.066   1.681   7.294
  969ETHY    C1  885  17.648   1.461   7.034
  970THSLK    S  886  20.522   2.695   7.707
  971ETHY    C1  887  20.201   2.886   7.966
  972ETHY    C1  888  19.768   3.090   8.202
  973ETHY    C1  889  19.293   3.261   8.352
  974ETHY    C1  890  18.791   3.393   8.422
  975ETHY    C1  891  18.271   3.481   8.407
  976ETHY    C1  892  17.742   3.522   8.308
  977AUSL   AUS  893  22.004   2.016   7.503
  978AUSL   AUS  894  21.934   2.161   7.919
  979AUL    AUL  895  22.218   1.935   7.806
  980THSLK    S  896  22.215   1.875   7.508
  981ETHY    C1  897  22.437   1.479   7.513
  982ETHY    C1  898  22.773   1.064   7.514
  983ETHY    C1  899  23.176   0.725   7.511
  984ETHY    C1  900  23.630   0.464   7.510
  985ETHY    C1  901  24.129   0.290   7.510
  986ETHY    C1  902  24.662   0.206   7.514
  987THSLK    S  903  22.061   1.970   8.064
  988ETHY    C1  904  22.238   1.605   8.270
  989ETHY    C1  905  22.509   1.233   8.540
  990ETHY    C1  906  22.836   0.944   8.834
  991ETHY    C1  907  23.205   0.736   9.142
  992ETHY    C1  908  23.607   0.618   9.462
  993ETHY    C1  909  24.036   0.593   9.789
  994AUSL   AUS  910  22.098   2.262   7.351
  995AUSL   AUS  911  21.840   1.915   7.238
  996AUL    AUL  912  22.218   1.935   7.199
  997THSLK    S  913  22.326   2.122   7.353
  998ETHY    C1  914  22.647   1.805   7.298
  999ETHY    C1  915  23.080   1.502   7.221
 1000ETHY    C1  916  23.555   1.292   7.136
 1001ETHY    C1  917  24.057   1.171   7.048
 1002ETHY    C1  918  24.577   1.144   6.963
 1003ETHY    C1  919  25.106   1.215   6.881
 1004THSLK    S  920  21.956   1.726   7.108
 1005ETHY    C1  921  22.040   1.297   6.984
 1006ETHY    C1  922  22.215   0.825   6.803
 1007ETHY    C1  923  22.468   0.414   6.593
 1008ETHY    C1  924  22.786   0.066   6.366
 1009ETHY    C1  925  23.168  -0.209   6.126
 1010ETHY    C1  926  23.606  -0.406   5.880
 1011AUSL   AUS  927  20.844   2.016   7.503
 1012AUSL   AUS  928  20.914   2.161   7.086
 1013AUL    AUL  929  20.630   1.935   7.199
 1014THSLK    S  930  20.743   1.990   6.978
 1015ETHY    C1  931  20.379   1.725   6.921
 1016ETHY    C1  932  19.957   1.435   6.766
 1017ETHY    C1  933  19.565   1.183   6.521
 1018ETHY    C1  934  19.211   0.970   6.200
 1019ETHY    C1  935  18.904   0.797   5.806
 1020ETHY    C1  936  18.653   0.670   5.346
 1021THSLK    S  937  20.578   1.964   7.508
 1022ETHY    C1  938  20.124   1.942   7.513
 1023ETHY    C1  939  19.602   1.828   7.514
 1024ETHY    C1  940  19.120   1.619   7.511
 1025ETHY    C1  941  18.683   1.329   7.510
 1026ETHY    C1  942  18.304   0.962   7.510
 1027ETHY    C1  943  17.991   0.522   7.514
 1028AUSL   AUS  944  20.750   2.262   7.654
 1029AUSL   AUS  945  21.008   1.915   7.767
 1030AUL    AUL  946  20.630   1.935   7.806
 1031THSLK    S  947  20.820   1.775   7.878
 1032ETHY    C1  948  20.433   1.538   7.893
 1033ETHY    C1  949  20.015   1.218   7.982
 1034ETHY    C1  950  19.657   0.869   8.149
 1035ETHY    C1  951  19.362   0.505   8.382
 1036ETHY    C1  952  19.137   0.134   8.683
 1037ETHY    C1  953  18.986  -0.237   9.045
 1038THSLK    S  954  20.494   2.199   7.616
 1039ETHY    C1  955  20.058   2.189   7.491
 1040ETHY    C1  956  19.532   2.130   7.419
 1041ETHY    C1  957  19.017   2.023   7.436
 1042ETHY    C1  958  18.523   1.877   7.535
 1043ETHY    C1  959  18.063   1.695   7.718
 1044ETHY    C1  960  17.644   1.482   7.983
 1045AUSL   AUS  961  21.424   3.005   7.912
 1046AUSL   AUS  962  21.008   2.936   7.767
 1047AUL    AUL  963  21.121   3.220   7.993
 1048THSLK    S  964  20.892   3.092   7.952
 1049ETHY    C1  965  20.808   3.394   8.280
 1050ETHY    C1  966  20.633   3.767   8.621
 1051ETHY    C1  967  20.380   4.138   8.895
 1052ETHY    C1  968  20.062   4.497   9.105
 1053ETHY    C1  969  19.680   4.835   9.244
 1054ETHY    C1  970  19.242   5.143   9.309
 1055THSLK    S  971  21.466   3.227   8.035
 1056ETHY    C1  972  21.650   3.502   8.347
 1057ETHY    C1  973  21.800   3.882   8.691
 1058ETHY    C1  974  21.866   4.305   8.998
 1059ETHY    C1  975  21.853   4.756   9.264
 1060ETHY    C1  976  21.756   5.225   9.485
 1061ETHY    C1  977  21.576   5.704   9.656
 1062AUSL   AUS  978  21.272   3.099   7.666
 1063AUSL   AUS  979  21.576   3.099   7.339
 1064AUL    AUL  980  21.424   3.407   7.503
 1065THSLK    S  981  21.315   3.343   7.776
 1066ETHY    C1  982  21.459   3.737   7.951
 1067ETHY    C1  983  21.546   4.231   8.137
 1068ETHY    C1  984  21.534   4.732   8.294
 1069ETHY    C1  985  21.433   5.230   8.425
 1070ETHY    C1  986  21.241   5.711   8.527
 1071ETHY    C1  987  20.961   6.166   8.600
 1072THSLK    S  988  21.631   3.330   7.243
 1073ETHY    C1  989  21.907   3.660   7.096
 1074ETHY    C1  990  22.157   4.101   6.927
 1075ETHY    C1  991  22.313   4.578   6.771
 1076ETHY    C1  992  22.382   5.080   6.635
 1077ETHY    C1  993  22.358   5.596   6.525
 1078ETHY    C1  994  22.241   6.116   6.443
 1079AUSL   AUS  995  21.576   3.099   7.666
 1080AUSL   AUS  996  21.689   2.842   8.013
 1081AUL    AUL  997  21.727   3.220   7.993
 1082THSLK    S  998  21.860   2.950   8.183
 1083ETHY    C1  999  22.155   3.015   8.523
 1084ETHY    C1 1000  22.473   3.177   8.920
 1085ETHY    C1 1001  22.741   3.426   9.298
 1086ETHY    C1 1002  22.955   3.748   9.653
 1087ETHY    C1 1003  23.107   4.136   9.976
 1088ETHY    C1 1004  23.193   4.586  10.262
 1089THSLK    S 1005  21.629   3.328   7.772
 1090ETHY    C1 1006  21.901   3.656   7.929
 1091ETHY    C1 1007  22.151   4.096   8.100
 1092ETHY    C1 1008  22.309   4.575   8.251
 1093ETHY    C1 1009  22.378   5.077   8.383
 1094ETHY    C1 1010  22.354   5.592   8.494
 1095ETHY    C1 1011  22.235   6.111   8.585
 1096AUSL   AUS 1012  21.424   1.845   7.912
 1097AUSL   AUS 1013  21.840   1.915   7.767
 1098AUL    AUL 1014  21.727   1.631   7.993
 1099THSLK    S 1015  21.377   1.595   7.989
 1100ETHY    C1 1016  21.187   1.199   8.103
 1101ETHY    C1 1017  21.036   0.721   8.289
 1102ETHY    C1 1018  20.973   0.256   8.528
 1103ETHY    C1 1019  20.988  -0.186   8.809
 1104ETHY    C1 1020  21.084  -0.593   9.132
 1105ETHY    C1 1021  21.259  -0.956   9.489
 1106THSLK    S 1022  21.952   1.728   7.907
 1107ETHY    C1 1023  22.031   1.300   8.040
 1108ETHY    C1 1024  22.206   0.830   8.222
 1109ETHY    C1 1025  22.460   0.418   8.428
 1110ETHY    C1 1026  22.780   0.069   8.652
 1111ETHY    C1 1027  23.161  -0.206   8.893
 1112ETHY    C1 1028  23.596  -0.402   9.147
 1113AUSL   AUS 1029  21.272   1.752   7.666
 1114AUSL   AUS 1030  21.159   2.009   8.013
 1115AUL    AUL 1031  21.121   1.631   7.993
 1116THSLK    S 1032  21.217   1.516   7.745
 1117ETHY    C1 1033  20.942   1.157   7.788
 1118ETHY    C1 1034  20.691   0.692   7.869
 1119ETHY    C1 1035  20.535   0.202   7.981
 1120ETHY    C1 1036  20.466  -0.297   8.122
 1121ETHY    C1 1037  20.490  -0.797   8.292
 1122ETHY    C1 1038  20.607  -1.285   8.489
 1123THSLK    S 1039  20.981   1.843   8.129
 1124ETHY    C1 1040  20.679   1.525   8.248
 1125ETHY    C1 1041  20.360   1.158   8.471
 1126ETHY    C1 1042  20.095   0.821   8.776
 1127ETHY    C1 1043  19.883   0.519   9.147
 1128ETHY    C1 1044  19.730   0.261   9.582
 1129ETHY    C1 1045  19.639   0.054  10.072
 1130AUSL   AUS 1046  21.576   1.752   7.666
 1131AUSL   AUS 1047  21.272   1.752   7.339
 1132AUL    AUL 1048  21.424   1.444   7.503
 1133THSLK    S 1049  21.219   1.513   7.270
 1134ETHY    C1 1050  20.947   1.151   7.236
 1135ETHY    C1 1051  20.697   0.686   7.157
 1136ETHY    C1 1052  20.540   0.197   7.041
 1137ETHY    C1 1053  20.470  -0.302   6.896
 1138ETHY    C1 1054  20.494  -0.801   6.727
 1139ETHY    C1 1055  20.613  -1.292   6.538
 1140THSLK    S 1056  21.530   1.500   7.749
 1141ETHY    C1 1057  21.383   1.074   7.811
 1142ETHY    C1 1058  21.297   0.556   7.906
 1143ETHY    C1 1059  21.309   0.043   8.025
 1144ETHY    C1 1060  21.411  -0.452   8.165
 1145ETHY    C1 1061  21.603  -0.917   8.325
 1146ETHY    C1 1062  21.881  -1.343   8.504
 1147AUSL   AUS 1063  21.424   3.005   7.094
 1148AUSL   AUS 1064  21.840   2.936   7.238
 1149AUL    AUL 1065  21.727   3.220   7.012
 1150THSLK    S 1066  21.471   3.232   6.977
 1151ETHY    C1 1067  21.661   3.511   6.674
 1152ETHY    C1 1068  21.812   3.892   6.330
 1153ETHY    C1 1069  21.876   4.312   6.021
 1154ETHY    C1 1070  21.860   4.762   5.752
 1155ETHY    C1 1071  21.764   5.232   5.532
 1156ETHY    C1 1072  21.589   5.715   5.366
 1157THSLK    S 1073  22.028   3.052   7.089
 1158ETHY    C1 1074  22.415   3.172   6.883
 1159ETHY    C1 1075  22.833   3.395   6.637
 1160ETHY    C1 1076  23.191   3.699   6.400
 1161ETHY    C1 1077  23.486   4.071   6.178
 1162ETHY    C1 1078  23.711   4.506   5.981
 1163ETHY    C1 1079  23.862   4.995   5.811
 1164AUSL   AUS 1080  21.272   3.099   7.339
 1165AUSL   AUS 1081  21.159   2.842   6.992
 1166AUL    AUL 1082  21.121   3.220   7.012
 1167THSLK    S 1083  21.318   3.346   7.239
 1168ETHY    C1 1084  21.465   3.743   7.074
 1169ETHY    C1 1085  21.551   4.237   6.889
 1170ETHY    C1 1086  21.539   4.738   6.727
 1171ETHY    C1 1087  21.437   5.234   6.593
 1172ETHY    C1 1088  21.245   5.715   6.492
 1173ETHY    C1 1089  20.967   6.173   6.427
 1174THSLK    S 1090  21.049   2.974   6.805
 1175ETHY    C1 1091  21.013   3.123   6.377
 1176ETHY    C1 1092  20.903   3.349   5.906
 1177ETHY    C1 1093  20.725   3.624   5.494
 1178ETHY    C1 1094  20.491   3.937   5.145
 1179ETHY    C1 1095  20.205   4.286   4.870
 1180ETHY    C1 1096  19.874   4.664   4.675
 1181AUSL   AUS 1097  21.424   1.845   7.094
 1182AUSL   AUS 1098  21.008   1.915   7.238
 1183AUL    AUL 1099  21.121   1.631   7.012
 1184THSLK    S 1100  20.825   1.767   7.134
 1185ETHY    C1 1101  20.442   1.523   7.124
 1186ETHY    C1 1102  20.024   1.202   7.035
 1187ETHY    C1 1103  19.665   0.856   6.866
 1188ETHY    C1 1104  19.368   0.495   6.631
 1189ETHY    C1 1105  19.143   0.123   6.331
 1190ETHY    C1 1106  18.996  -0.254   5.974
 1191THSLK    S 1107  21.382   1.590   7.024
 1192ETHY    C1 1108  21.198   1.189   6.917
 1193ETHY    C1 1109  21.048   0.711   6.732
 1194ETHY    C1 1110  20.982   0.248   6.491
 1195ETHY    C1 1111  20.995  -0.192   6.206
 1196ETHY    C1 1112  21.092  -0.599   5.885
 1197ETHY    C1 1113  21.272  -0.967   5.533
 1198AUSL   AUS 1114  21.576   1.752   7.339
 1199AUSL   AUS 1115  21.689   2.009   6.992
 1200AUL    AUL 1116  21.727   1.631   7.012
 1201THSLK    S 1117  21.533   1.498   7.266
 1202ETHY    C1 1118  21.389   1.070   7.213
 1203ETHY    C1 1119  21.302   0.551   7.120
 1204ETHY    C1 1120  21.314   0.039   6.997
 1205ETHY    C1 1121  21.415  -0.455   6.854
 1206ETHY    C1 1122  21.607  -0.920   6.695
 1207ETHY    C1 1123  21.887  -1.348   6.523
 1208THSLK    S 1124  21.806   1.819   6.859
 1209ETHY    C1 1125  21.850   1.417   6.651
 1210ETHY    C1 1126  21.960   0.986   6.355
 1211ETHY    C1 1127  22.136   0.623   6.017
 1212ETHY    C1 1128  22.367   0.329   5.651
 1213ETHY    C1 1129  22.653   0.112   5.264
 1214ETHY    C1 1130  22.990  -0.024   4.865
 1215AUC    AUC 1131   0.975  37.798   7.503
 1216AUC    AUC 1132   1.220  37.798   7.351
 1217AUC    AUC 1133   1.220  37.798   7.654
 1218AUC    AUC 1134   0.730  37.798   7.351
 1219AUC    AUC 1135   0.730  37.798   7.654
 1220AUC    AUC 1136   0.823  38.044   7.503
 1221AUC    AUC 1137   1.127  38.044   7.503
 1222AUC    AUC 1138   0.823  37.553   7.503
 1223AUC    AUC 1139   1.127  37.553   7.503
 1224AUC    AUC 1140   0.975  37.647   7.748
 1225AUC    AUC 1141   0.975  37.950   7.748
 1226AUC    AUC 1142   0.975  37.647   7.257
 1227AUC    AUC 1143   0.975  37.950   7.257
 1228AUC    AUC 1144   1.466  37.798   7.199
 1229AUC    AUC 1145   1.466  37.798   7.503
 1230AUC    AUC 1146   1.466  37.798   7.806
 1231AUC    AUC 1147   0.484  37.798   7.199
 1232AUC    AUC 1148   0.484  37.798   7.503
 1233AUC    AUC 1149   0.484  37.798   7.806
 1234AUC    AUC 1150   0.672  38.289   7.503
 1235AUC    AUC 1151   0.975  38.289   7.503
 1236AUC    AUC 1152   1.278  38.289   7.503
 1237AUC    AUC 1153   0.672  37.308   7.503
 1238AUC    AUC 1154   0.975  37.308   7.503
 1239AUC    AUC 1155   1.278  37.308   7.503
 1240AUC    AUC 1156   0.975  37.495   7.993
 1241AUC    AUC 1157   0.975  37.798   7.993
 1242AUC    AUC 1158   0.975  38.102   7.993
 1243AUC    AUC 1159   0.975  37.495   7.012
 1244AUC    AUC 1160   0.975  37.798   7.012
 1245AUC    AUC 1161   0.975  38.102   7.012
 1246AUC    AUC 1162   1.220  37.647   7.900
 1247AUC    AUC 1163   1.220  37.950   7.900
 1248AUC    AUC 1164   1.220  37.647   7.106
 1249AUC    AUC 1165   1.220  37.950   7.106
 1250AUC    AUC 1166   0.730  37.647   7.900
 1251AUC    AUC 1167   0.730  37.950   7.900
 1252AUC    AUC 1168   0.730  37.647   7.106
 1253AUC    AUC 1169   0.730  37.950   7.106
 1254AUC    AUC 1170   1.372  38.044   7.351
 1255AUC    AUC 1171   1.372  38.044   7.654
 1256AUC    AUC 1172   0.578  38.044   7.351
 1257AUC    AUC 1173   0.578  38.044   7.654
 1258AUC    AUC 1174   1.372  37.553   7.351
 1259AUC    AUC 1175   1.372  37.553   7.654
 1260AUC    AUC 1176   0.578  37.553   7.351
 1261AUC    AUC 1177   0.578  37.553   7.654
 1262AUC    AUC 1178   0.823  38.196   7.748
 1263AUC    AUC 1179   1.127  38.196   7.748
 1264AUC    AUC 1180   0.823  37.401   7.748
 1265AUC    AUC 1181   1.127  37.401   7.748
 1266AUC    AUC 1182   0.823  38.196   7.257
 1267AUC    AUC 1183   1.127  38.196   7.257
 1268AUC    AUC 1184   0.823  37.401   7.257
 1269AUC    AUC 1185   1.127  37.401   7.257
 1270AUSL   AUS 1186   1.384  37.798   8.083
 1271AUSL   AUS 1187   1.240  37.382   8.013
 1272AUL    AUL 1188   1.466  37.495   8.297
 1273THSLK    S 1189   1.350  37.195   8.153
 1274ETHY    C1 1190   1.386  36.796   8.368
 1275ETHY    C1 1191   1.496  36.366   8.665
 1276ETHY    C1 1192   1.674  36.002   9.000
 1277ETHY    C1 1193   1.908  35.706   9.364
 1278ETHY    C1 1194   2.194  35.489   9.752
 1279ETHY    C1 1195   2.525  35.356  10.156
 1280THSLK    S 1196   1.477  37.746   8.324
 1281ETHY    C1 1197   1.681  37.526   8.665
 1282ETHY    C1 1198   1.945  37.349   9.094
 1283ETHY    C1 1199   2.221  37.273   9.535
 1284ETHY    C1 1200   2.498  37.290   9.980
 1285ETHY    C1 1201   2.768  37.403  10.419
 1286ETHY    C1 1202   3.027  37.612  10.845
 1287AUSL   AUS 1203   1.139  37.647   8.176
 1288AUSL   AUS 1204   0.811  37.950   8.176
 1289AUL    AUL 1205   0.975  37.798   8.484
 1290THSLK    S 1206   1.214  37.592   8.413
 1291ETHY    C1 1207   1.278  37.312   8.765
 1292ETHY    C1 1208   1.381  37.057   9.223
 1293ETHY    C1 1209   1.508  36.898   9.708
 1294ETHY    C1 1210   1.650  36.829  10.208
 1295ETHY    C1 1211   1.804  36.857  10.713
 1296ETHY    C1 1212   1.964  36.981  11.212
 1297THSLK    S 1213   0.726  37.904   8.428
 1298ETHY    C1 1214   0.652  37.754   8.850
 1299ETHY    C1 1215   0.547  37.666   9.367
 1300ETHY    C1 1216   0.425  37.678   9.878
 1301ETHY    C1 1217   0.287  37.779  10.373
 1302ETHY    C1 1218   0.132  37.972  10.840
 1303ETHY    C1 1219  -0.037  38.253  11.268
 1304AUSL   AUS 1220   1.139  37.950   8.176
 1305AUSL   AUS 1221   1.485  38.063   7.919
 1306AUL    AUL 1222   1.466  38.102   8.297
 1307THSLK    S 1223   1.224  38.006   8.410
 1308ETHY    C1 1224   1.298  38.287   8.759
 1309ETHY    C1 1225   1.403  38.542   9.217
 1310ETHY    C1 1226   1.525  38.701   9.703
 1311ETHY    C1 1227   1.664  38.770  10.204
 1312ETHY    C1 1228   1.818  38.743  10.708
 1313ETHY    C1 1229   1.987  38.619  11.206
 1314THSLK    S 1230   1.657  38.161   8.080
 1315ETHY    C1 1231   2.020  38.132   8.350
 1316ETHY    C1 1232   2.442  38.188   8.673
 1317ETHY    C1 1233   2.834  38.342   8.989
 1318ETHY    C1 1234   3.188  38.580   9.293
 1319ETHY    C1 1235   3.495  38.901   9.580
 1320ETHY    C1 1236   3.746  39.298   9.844
 1321AUSL   AUS 1237   1.384  37.798   6.923
 1322AUSL   AUS 1238   1.240  38.215   6.992
 1323AUL    AUL 1239   1.466  38.102   6.708
 1324THSLK    S 1240   1.486  37.746   6.687
 1325ETHY    C1 1241   1.699  37.526   6.351
 1326ETHY    C1 1242   1.964  37.349   5.923
 1327ETHY    C1 1243   2.236  37.273   5.479
 1328ETHY    C1 1244   2.510  37.290   5.033
 1329ETHY    C1 1245   2.781  37.403   4.594
 1330ETHY    C1 1246   3.046  37.612   4.173
 1331THSLK    S 1247   1.418  38.326   6.829
 1332ETHY    C1 1248   1.720  38.394   6.497
 1333ETHY    C1 1249   2.039  38.557   6.100
 1334ETHY    C1 1250   2.304  38.804   5.719
 1335ETHY    C1 1251   2.516  39.124   5.362
 1336ETHY    C1 1252   2.669  39.514   5.039
 1337ETHY    C1 1253   2.760  39.966   4.759
 1338AUSL   AUS 1254   1.139  37.647   6.829
 1339AUSL   AUS 1255   1.485  37.534   7.086
 1340AUL    AUL 1256   1.466  37.495   6.708
 1341THSLK    S 1257   1.618  37.342   6.949
 1342ETHY    C1 1258   1.801  36.975   6.752
 1343ETHY    C1 1259   2.073  36.603   6.483
 1344ETHY    C1 1260   2.398  36.314   6.186
 1345ETHY    C1 1261   2.764  36.107   5.874
 1346ETHY    C1 1262   3.168  35.988   5.555
 1347ETHY    C1 1263   3.601  35.963   5.235
 1348THSLK    S 1264   1.224  37.591   6.596
 1349ETHY    C1 1265   1.298  37.310   6.246
 1350ETHY    C1 1266   1.403  37.054   5.788
 1351ETHY    C1 1267   1.525  36.896   5.302
 1352ETHY    C1 1268   1.664  36.827   4.801
 1353ETHY    C1 1269   1.818  36.854   4.297
 1354ETHY    C1 1270   1.987  36.978   3.799
 1355AUSL   AUS 1271   1.139  37.950   6.829
 1356AUSL   AUS 1272   0.811  37.647   6.829
 1357AUL    AUL 1273   0.975  37.798   6.521
 1358THSLK    S 1274   0.719  37.591   6.597
 1359ETHY    C1 1275   0.584  37.313   6.264
 1360ETHY    C1 1276   0.423  37.060   5.822
 1361ETHY    C1 1277   0.271  36.903   5.343
 1362ETHY    C1 1278   0.135  36.834   4.842
 1363ETHY    C1 1279   0.018  36.860   4.328
 1364ETHY    C1 1280  -0.075  36.979   3.810
 1365THSLK    S 1281   1.241  37.904   6.583
 1366ETHY    C1 1282   1.387  37.754   6.179
 1367ETHY    C1 1283   1.549  37.663   5.678
 1368ETHY    C1 1284   1.696  37.673   5.173
 1369ETHY    C1 1285   1.829  37.774   4.677
 1370ETHY    C1 1286   1.946  37.969   4.200
 1371ETHY    C1 1287   2.047  38.255   3.754
 1372AUSL   AUS 1288   0.566  37.798   8.083
 1373AUSL   AUS 1289   0.710  38.215   8.013
 1374AUL    AUL 1290   0.484  38.102   8.297
 1375THSLK    S 1291   0.464  37.746   8.319
 1376ETHY    C1 1292   0.252  37.526   8.654
 1377ETHY    C1 1293  -0.014  37.349   9.082
 1378ETHY    C1 1294  -0.286  37.273   9.526
 1379ETHY    C1 1295  -0.560  37.290   9.973
 1380ETHY    C1 1296  -0.831  37.403  10.411
 1381ETHY    C1 1297  -1.096  37.612  10.832
 1382THSLK    S 1298   0.593  38.339   8.202
 1383ETHY    C1 1299   0.550  38.482   8.632
 1384ETHY    C1 1300   0.439  38.707   9.104
 1385ETHY    C1 1301   0.263  38.984   9.515
 1386ETHY    C1 1302   0.032  39.300   9.863
 1387ETHY    C1 1303  -0.254  39.648  10.138
 1388ETHY    C1 1304  -0.591  40.021  10.334
 1389AUSL   AUS 1305   0.811  37.647   8.176
 1390AUSL   AUS 1306   0.465  37.534   7.919
 1391AUL    AUL 1307   0.484  37.495   8.297
 1392THSLK    S 1308   0.288  37.371   8.026
 1393ETHY    C1 1309  -0.083  37.114   8.082
 1394ETHY    C1 1310  -0.505  36.826   8.237
 1395ETHY    C1 1311  -0.895  36.571   8.482
 1396ETHY    C1 1312  -1.247  36.354   8.803
 1397ETHY    C1 1313  -1.553  36.183   9.198
 1398ETHY    C1 1314  -1.810  36.062   9.657
 1399THSLK    S 1315   0.709  37.593   8.406
 1400ETHY    C1 1316   0.563  37.317   8.736
 1401ETHY    C1 1317   0.401  37.065   9.178
 1402ETHY    C1 1318   0.254  36.907   9.658
 1403ETHY    C1 1319   0.121  36.837  10.160
 1404ETHY    C1 1320   0.004  36.863  10.674
 1405ETHY    C1 1321  -0.097  36.984  11.190
 1406AUSL   AUS 1322   0.566  37.798   6.923
 1407AUSL   AUS 1323   0.710  37.382   6.992
 1408AUL    AUL 1324   0.484  37.495   6.708
 1409THSLK    S 1325   0.473  37.746   6.681
 1410ETHY    C1 1326   0.269  37.526   6.341
 1411ETHY    C1 1327   0.005  37.349   5.911
 1412ETHY    C1 1328  -0.271  37.273   5.470
 1413ETHY    C1 1329  -0.548  37.290   5.025
 1414ETHY    C1 1330  -0.818  37.403   4.586
 1415ETHY    C1 1331  -1.077  37.612   4.161
 1416THSLK    S 1332   0.539  37.209   6.878
 1417ETHY    C1 1333   0.244  36.883   6.760
 1418ETHY    C1 1334  -0.074  36.516   6.538
 1419ETHY    C1 1335  -0.342  36.181   6.233
 1420ETHY    C1 1336  -0.556  35.881   5.861
 1421ETHY    C1 1337  -0.708  35.623   5.426
 1422ETHY    C1 1338  -0.794  35.411   4.937
 1423AUSL   AUS 1339   0.811  37.950   6.829
 1424AUSL   AUS 1340   0.465  38.063   7.086
 1425AUL    AUL 1341   0.484  38.102   6.708
 1426THSLK    S 1342   0.338  38.190   6.895
 1427ETHY    C1 1343   0.161  38.271   6.484
 1428ETHY    C1 1344  -0.110  38.411   6.046
 1429ETHY    C1 1345  -0.437  38.599   5.679
 1430ETHY    C1 1346  -0.806  38.828   5.385
 1431ETHY    C1 1347  -1.208  39.095   5.173
 1432ETHY    C1 1348  -1.637  39.397   5.047
 1433THSLK    S 1349   0.736  37.906   6.576
 1434ETHY    C1 1350   0.672  37.759   6.150
 1435ETHY    C1 1351   0.569  37.670   5.634
 1436ETHY    C1 1352   0.442  37.681   5.123
 1437ETHY    C1 1353   0.300  37.782   4.629
 1438ETHY    C1 1354   0.147  37.975   4.162
 1439ETHY    C1 1355  -0.014  38.258   3.732
 1440AUSL   AUS 1356   1.555  38.207   7.503
 1441AUSL   AUS 1357   1.485  38.063   7.086
 1442AUL    AUL 1358   1.769  38.289   7.199
 1443THSLK    S 1359   1.663  38.162   6.934
 1444ETHY    C1 1360   2.033  38.135   6.671
 1445ETHY    C1 1361   2.455  38.191   6.349
 1446ETHY    C1 1362   2.845  38.345   6.030
 1447ETHY    C1 1363   3.197  38.582   5.724
 1448ETHY    C1 1364   3.504  38.903   5.438
 1449ETHY    C1 1365   3.760  39.302   5.179
 1450THSLK    S 1366   1.821  38.260   7.508
 1451ETHY    C1 1367   2.275  38.282   7.513
 1452ETHY    C1 1368   2.797  38.396   7.514
 1453ETHY    C1 1369   3.280  38.605   7.511
 1454ETHY    C1 1370   3.716  38.895   7.510
 1455ETHY    C1 1371   4.095  39.262   7.510
 1456ETHY    C1 1372   4.409  39.702   7.514
 1457AUSL   AUS 1373   1.649  37.962   7.351
 1458AUSL   AUS 1374   1.649  37.635   7.654
 1459AUL    AUL 1375   1.957  37.798   7.503
 1460THSLK    S 1376   1.905  38.001   7.350
 1461ETHY    C1 1377   2.341  37.893   7.286
 1462ETHY    C1 1378   2.867  37.855   7.201
 1463ETHY    C1 1379   3.382  37.919   7.113
 1464ETHY    C1 1380   3.876  38.073   7.026
 1465ETHY    C1 1381   4.336  38.318   6.945
 1466ETHY    C1 1382   4.755  38.650   6.873
 1467THSLK    S 1383   1.876  37.495   7.663
 1468ETHY    C1 1384   2.195  37.179   7.728
 1469ETHY    C1 1385   2.628  36.875   7.807
 1470ETHY    C1 1386   3.103  36.665   7.887
 1471ETHY    C1 1387   3.606  36.544   7.971
 1472ETHY    C1 1388   4.126  36.518   8.058
 1473ETHY    C1 1389   4.654  36.588   8.147
 1474AUSL   AUS 1390   1.649  37.962   7.654
 1475AUSL   AUS 1391   1.391  38.309   7.767
 1476AUL    AUL 1392   1.769  38.289   7.806
 1477THSLK    S 1393   1.574  38.423   7.926
 1478ETHY    C1 1394   1.957  38.541   8.140
 1479ETHY    C1 1395   2.375  38.764   8.388
 1480ETHY    C1 1396   2.734  39.069   8.622
 1481ETHY    C1 1397   3.031  39.442   8.840
 1482ETHY    C1 1398   3.256  39.876   9.038
 1483ETHY    C1 1399   3.403  40.364   9.215
 1484THSLK    S 1400   1.903  38.001   7.665
 1485ETHY    C1 1401   2.338  37.893   7.740
 1486ETHY    C1 1402   2.864  37.855   7.826
 1487ETHY    C1 1403   3.379  37.918   7.910
 1488ETHY    C1 1404   3.873  38.072   7.993
 1489ETHY    C1 1405   4.334  38.317   8.075
 1490ETHY    C1 1406   4.751  38.649   8.155
 1491AUSL   AUS 1407   0.395  38.207   7.503
 1492AUSL   AUS 1408   0.465  38.063   7.919
 1493AUL    AUL 1409   0.181  38.289   7.806
 1494THSLK    S 1410   0.332  38.182   8.109
 1495ETHY    C1 1411   0.149  38.254   8.519
 1496ETHY    C1 1412  -0.123  38.394   8.957
 1497ETHY    C1 1413  -0.448  38.585   9.324
 1498ETHY    C1 1414  -0.814  38.816   9.619
 1499ETHY    C1 1415  -1.217  39.083   9.831
 1500ETHY    C1 1416  -1.651  39.379   9.956
 1501THSLK    S 1417   0.184  38.348   7.508
 1502ETHY    C1 1418  -0.038  38.745   7.513
 1503ETHY    C1 1419  -0.374  39.160   7.514
 1504ETHY    C1 1420  -0.777  39.499   7.511
 1505ETHY    C1 1421  -1.231  39.760   7.510
 1506ETHY    C1 1422  -1.730  39.934   7.510
 1507ETHY    C1 1423  -2.263  40.018   7.514
 1508AUSL   AUS 1424   0.301  37.962   7.351
 1509AUSL   AUS 1425   0.559  38.309   7.238
 1510AUL    AUL 1426   0.181  38.289   7.199
 1511THSLK    S 1427   0.074  38.077   7.303
 1512ETHY    C1 1428  -0.245  38.277   7.049
 1513ETHY    C1 1429  -0.678  38.483   6.813
 1514ETHY    C1 1430  -1.153  38.649   6.661
 1515ETHY    C1 1431  -1.656  38.778   6.590
 1516ETHY    C1 1432  -2.176  38.868   6.605
 1517ETHY    C1 1433  -2.704  38.916   6.708
 1518THSLK    S 1434   0.447  38.472   7.060
 1519ETHY    C1 1435   0.368  38.782   6.737
 1520ETHY    C1 1436   0.193  39.156   6.397
 1521ETHY    C1 1437  -0.061  39.524   6.120
 1522ETHY    C1 1438  -0.381  39.881   5.909
 1523ETHY    C1 1439  -0.762  40.219   5.770
 1524ETHY    C1 1440  -1.197  40.533   5.709
 1525AUSL   AUS 1441   0.301  37.962   7.654
 1526AUSL   AUS 1442   0.301  37.635   7.351
 1527AUL    AUL 1443  -0.007  37.798   7.503
 1528THSLK    S 1444   0.047  37.562   7.394
 1529ETHY    C1 1445  -0.388  37.544   7.524
 1530ETHY    C1 1446  -0.914  37.484   7.597
 1531ETHY    C1 1447  -1.429  37.380   7.578
 1532ETHY    C1 1448  -1.923  37.237   7.477
 1533ETHY    C1 1449  -2.383  37.054   7.294
 1534ETHY    C1 1450  -2.801  36.834   7.034
 1535THSLK    S 1451   0.073  38.068   7.707
 1536ETHY    C1 1452  -0.248  38.259   7.966
 1537ETHY    C1 1453  -0.681  38.463   8.202
 1538ETHY    C1 1454  -1.156  38.634   8.352
 1539ETHY    C1 1455  -1.658  38.766   8.422
 1540ETHY    C1 1456  -2.178  38.854   8.407
 1541ETHY    C1 1457  -2.707  38.895   8.308
 1542AUSL   AUS 1458   1.555  37.389   7.503
 1543AUSL   AUS 1459   1.485  37.534   7.919
 1544AUL    AUL 1460   1.769  37.308   7.806
 1545THSLK    S 1461   1.766  37.248   7.508
 1546ETHY    C1 1462   1.988  36.852   7.513
 1547ETHY    C1 1463   2.324  36.437   7.514
 1548ETHY    C1 1464   2.727  36.098   7.511
 1549ETHY    C1 1465   3.181  35.837   7.510
 1550ETHY    C1 1466   3.680  35.663   7.510
 1551ETHY    C1 1467   4.213  35.579   7.514
 1552THSLK    S 1468   1.612  37.343   8.064
 1553ETHY    C1 1469   1.789  36.978   8.270
 1554ETHY    C1 1470   2.060  36.606   8.540
 1555ETHY    C1 1471   2.387  36.317   8.834
 1556ETHY    C1 1472   2.756  36.109   9.142
 1557ETHY    C1 1473   3.158  35.991   9.462
 1558ETHY    C1 1474   3.587  35.966   9.789
 1559AUSL   AUS 1475   1.649  37.635   7.351
 1560AUSL   AUS 1476   1.391  37.288   7.238
 1561AUL    AUL 1477   1.769  37.308   7.199
 1562THSLK    S 1478   1.877  37.495   7.353
 1563ETHY    C1 1479   2.198  37.178   7.298
 1564ETHY    C1 1480   2.631  36.875   7.221
 1565ETHY    C1 1481   3.106  36.665   7.136
 1566ETHY    C1 1482   3.608  36.544   7.048
 1567ETHY    C1 1483   4.128  36.517   6.963
 1568ETHY    C1 1484   4.657  36.588   6.881
 1569THSLK    S 1485   1.507  37.099   7.108
 1570ETHY    C1 1486   1.591  36.670   6.984
 1571ETHY    C1 1487   1.766  36.198   6.803
 1572ETHY    C1 1488   2.019  35.787   6.593
 1573ETHY    C1 1489   2.337  35.439   6.366
 1574ETHY    C1 1490   2.719  35.164   6.126
 1575ETHY    C1 1491   3.157  34.967   5.880
 1576AUSL   AUS 1492   0.395  37.389   7.503
 1577AUSL   AUS 1493   0.465  37.534   7.086
 1578AUL    AUL 1494   0.181  37.308   7.199
 1579THSLK    S 1495   0.294  37.363   6.978
 1580ETHY    C1 1496  -0.070  37.098   6.921
 1581ETHY    C1 1497  -0.492  36.808   6.766
 1582ETHY    C1 1498  -0.884  36.556   6.521
 1583ETHY    C1 1499  -1.238  36.343   6.200
 1584ETHY    C1 1500  -1.545  36.170   5.806
 1585ETHY    C1 1501  -1.796  36.043   5.346
 1586THSLK    S 1502   0.129  37.337   7.508
 1587ETHY    C1 1503  -0.325  37.315   7.513
 1588ETHY    C1 1504  -0.847  37.201   7.514
 1589ETHY    C1 1505  -1.329  36.992   7.511
 1590ETHY    C1 1506  -1.766  36.702   7.510
 1591ETHY    C1 1507  -2.145  36.335   7.510
 1592ETHY    C1 1508  -2.458  35.895   7.514
 1593AUSL   AUS 1509   0.301  37.635   7.654
 1594AUSL   AUS 1510   0.559  37.288   7.767
 1595AUL    AUL 1511   0.181  37.308   7.806
 1596THSLK    S 1512   0.371  37.148   7.878
 1597ETHY    C1 1513  -0.016  36.911   7.893
 1598ETHY    C1 1514  -0.434  36.591   7.982
 1599ETHY    C1 1515  -0.792  36.242   8.149
 1600ETHY    C1 1516  -1.087  35.878   8.382
 1601ETHY    C1 1517  -1.312  35.507   8.683
 1602ETHY    C1 1518  -1.463  35.136   9.045
 1603THSLK    S 1519   0.045  37.572   7.616
 1604ETHY    C1 1520  -0.391  37.562   7.491
 1605ETHY    C1 1521  -0.917  37.503   7.419
 1606ETHY    C1 1522  -1.432  37.396   7.436
 1607ETHY    C1 1523  -1.926  37.250   7.535
 1608ETHY    C1 1524  -2.386  37.068   7.718
 1609ETHY    C1 1525  -2.805  36.855   7.983
 1610AUSL   AUS 1526   0.975  38.378   7.912
 1611AUSL   AUS 1527   0.559  38.309   7.767
 1612AUL    AUL 1528   0.672  38.593   7.993
 1613THSLK    S 1529   0.443  38.465   7.952
 1614ETHY    C1 1530   0.359  38.767   8.280
 1615ETHY    C1 1531   0.184  39.140   8.621
 1616ETHY    C1 1532  -0.069  39.511   8.895
 1617ETHY    C1 1533  -0.387  39.870   9.105
 1618ETHY    C1 1534  -0.769  40.208   9.244
 1619ETHY    C1 1535  -1.207  40.516   9.309
 1620THSLK    S 1536   1.017  38.600   8.035
 1621ETHY    C1 1537   1.201  38.875   8.347
 1622ETHY    C1 1538   1.351  39.255   8.691
 1623ETHY    C1 1539   1.417  39.678   8.998
 1624ETHY    C1 1540   1.404  40.129   9.264
 1625ETHY    C1 1541   1.307  40.598   9.485
 1626ETHY    C1 1542   1.127  41.077   9.656
 1627AUSL   AUS 1543   0.823  38.472   7.666
 1628AUSL   AUS 1544   1.127  38.472   7.339
 1629AUL    AUL 1545   0.975  38.780   7.503
 1630THSLK    S 1546   0.866  38.716   7.776
 1631ETHY    C1 1547   1.010  39.110   7.951
 1632ETHY    C1 1548   1.097  39.604   8.137
 1633ETHY    C1 1549   1.085  40.105   8.294
 1634ETHY    C1 1550   0.984  40.603   8.425
 1635ETHY    C1 1551   0.792  41.084   8.527
 1636ETHY    C1 1552   0.512  41.539   8.600
 1637THSLK    S 1553   1.182  38.703   7.243
 1638ETHY    C1 1554   1.458  39.033   7.096
 1639ETHY    C1 1555   1.708  39.474   6.927
 1640ETHY    C1 1556   1.864  39.951   6.771
 1641ETHY    C1 1557   1.933  40.453   6.635
 1642ETHY    C1 1558   1.909  40.969   6.525
 1643ETHY    C1 1559   1.792  41.489   6.443
 1644AUSL   AUS 1560   1.127  38.472   7.666
 1645AUSL   AUS 1561   1.240  38.215   8.013
 1646AUL    AUL 1562   1.278  38.593   7.993
 1647THSLK    S 1563   1.411  38.323   8.183
 1648ETHY    C1 1564   1.706  38.388   8.523
 1649ETHY    C1 1565   2.024  38.550   8.920
 1650ETHY    C1 1566   2.292  38.799   9.298
 1651ETHY    C1 1567   2.506  39.121   9.653
 1652ETHY    C1 1568   2.658  39.509   9.976
 1653ETHY    C1 1569   2.744  39.959  10.262
 1654THSLK    S 1570   1.180  38.701   7.772
 1655ETHY    C1 1571   1.452  39.029   7.929
 1656ETHY    C1 1572   1.702  39.469   8.100
 1657ETHY    C1 1573   1.860  39.948   8.251
 1658ETHY    C1 1574   1.929  40.450   8.383
 1659ETHY    C1 1575   1.905  40.965   8.494
 1660ETHY    C1 1576   1.786  41.484   8.585
 1661AUSL   AUS 1577   0.975  37.218   7.912
 1662AUSL   AUS 1578   1.391  37.288   7.767
 1663AUL    AUL 1579   1.278  37.004   7.993
 1664THSLK    S 1580   0.928  36.968   7.989
 1665ETHY    C1 1581   0.738  36.572   8.103
 1666ETHY    C1 1582   0.587  36.094   8.289
 1667ETHY    C1 1583   0.524  35.629   8.528
 1668ETHY    C1 1584   0.539  35.187   8.809
 1669ETHY    C1 1585   0.635  34.780   9.132
 1670ETHY    C1 1586   0.810  34.417   9.489
 1671THSLK    S 1587   1.503  37.101   7.907
 1672ETHY    C1 1588   1.582  36.673   8.040
 1673ETHY    C1 1589   1.757  36.203   8.222
 1674ETHY    C1 1590   2.011  35.791   8.428
 1675ETHY    C1 1591   2.331  35.442   8.652
 1676ETHY    C1 1592   2.712  35.167   8.893
 1677ETHY    C1 1593   3.147  34.971   9.147
 1678AUSL   AUS 1594   0.823  37.125   7.666
 1679AUSL   AUS 1595   0.710  37.382   8.013
 1680AUL    AUL 1596   0.672  37.004   7.993
 1681THSLK    S 1597   0.768  36.889   7.745
 1682ETHY    C1 1598   0.493  36.530   7.788
 1683ETHY    C1 1599   0.242  36.065   7.869
 1684ETHY    C1 1600   0.086  35.575   7.981
 1685ETHY    C1 1601   0.017  35.076   8.122
 1686ETHY    C1 1602   0.041  34.576   8.292
 1687ETHY    C1 1603   0.158  34.088   8.489
 1688THSLK    S 1604   0.532  37.216   8.129
 1689ETHY    C1 1605   0.230  36.898   8.248
 1690ETHY    C1 1606  -0.089  36.531   8.471
 1691ETHY    C1 1607  -0.354  36.194   8.776
 1692ETHY    C1 1608  -0.566  35.892   9.147
 1693ETHY    C1 1609  -0.719  35.634   9.582
 1694ETHY    C1 1610  -0.810  35.427  10.072
 1695AUSL   AUS 1611   1.127  37.125   7.666
 1696AUSL   AUS 1612   0.823  37.125   7.339
 1697AUL    AUL 1613   0.975  36.817   7.503
 1698THSLK    S 1614   0.770  36.886   7.270
 1699ETHY    C1 1615   0.498  36.524   7.236
 1700ETHY    C1 1616   0.248  36.059   7.157
 1701ETHY    C1 1617   0.091  35.570   7.041
 1702ETHY    C1 1618   0.021  35.071   6.896
 1703ETHY    C1 1619   0.045  34.572   6.727
 1704ETHY    C1 1620   0.164  34.081   6.538
 1705THSLK    S 1621   1.081  36.873   7.749
 1706ETHY    C1 1622   0.934  36.447   7.811
 1707ETHY    C1 1623   0.848  35.929   7.906
 1708ETHY    C1 1624   0.860  35.416   8.025
 1709ETHY    C1 1625   0.962  34.921   8.165
 1710ETHY    C1 1626   1.154  34.456   8.325
 1711ETHY    C1 1627   1.432  34.030   8.504
 1712AUSL   AUS 1628   0.975  38.378   7.094
 1713AUSL   AUS 1629   1.391  38.309   7.238
 1714AUL    AUL 1630   1.278  38.593   7.012
 1715THSLK    S 1631   1.022  38.605   6.977
 1716ETHY    C1 1632   1.212  38.884   6.674
 1717ETHY    C1 1633   1.363  39.265   6.330
 1718ETHY    C1 1634   1.427  39.685   6.021
 1719ETHY    C1 1635   1.411  40.135   5.752
 1720ETHY    C1 1636   1.315  40.605   5.532
 1721ETHY    C1 1637   1.140  41.088   5.366
 1722THSLK    S 1638   1.579  38.425   7.089
 1723ETHY    C1 1639   1.966  38.545   6.883
 1724ETHY    C1 1640   2.384  38.768   6.637
 1725ETHY    C1 1641   2.742  39.072   6.400
 1726ETHY    C1 1642   3.037  39.444   6.178
 1727ETHY    C1 1643   3.262  39.879   5.981
 1728ETHY    C1 1644   3.413  40.368   5.811
 1729AUSL   AUS 1645   0.823  38.472   7.339
 1730AUSL   AUS 1646   0.710  38.215   6.992
 1731AUL    AUL 1647   0.672  38.593   7.012
 1732THSLK    S 1648   0.869  38.719   7.239
 1733ETHY    C1 1649   1.016  39.116   7.074
 1734ETHY    C1 1650   1.102  39.610   6.889
 1735ETHY    C1 1651   1.090  40.111   6.727
 1736ETHY    C1 1652   0.988  40.607   6.593
 1737ETHY    C1 1653   0.796  41.088   6.492
 1738ETHY    C1 1654   0.518  41.546   6.427
 1739THSLK    S 1655   0.600  38.347   6.805
 1740ETHY    C1 1656   0.564  38.496   6.377
 1741ETHY    C1 1657   0.454  38.722   5.906
 1742ETHY    C1 1658   0.276  38.997   5.494
 1743ETHY    C1 1659   0.042  39.310   5.145
 1744ETHY    C1 1660  -0.244  39.659   4.870
 1745ETHY    C1 1661  -0.575  40.037   4.675
 1746AUSL   AUS 1662   0.975  37.218   7.094
 1747AUSL   AUS 1663   0.559  37.288   7.238
 1748AUL    AUL 1664   0.672  37.004   7.012
 1749THSLK    S 1665   0.376  37.140   7.134
 1750ETHY    C1 1666  -0.007  36.896   7.124
 1751ETHY    C1 1667  -0.425  36.575   7.035
 1752ETHY    C1 1668  -0.784  36.229   6.866
 1753ETHY    C1 1669  -1.081  35.868   6.631
 1754ETHY    C1 1670  -1.306  35.496   6.331
 1755ETHY    C1 1671  -1.453  35.119   5.974
 1756THSLK    S 1672   0.933  36.963   7.024
 1757ETHY    C1 1673   0.749  36.562   6.917
 1758ETHY    C1 1674   0.599  36.084   6.732
 1759ETHY    C1 1675   0.533  35.621   6.491
 1760ETHY    C1 1676   0.546  35.181   6.206
 1761ETHY    C1 1677   0.643  34.774   5.885
 1762ETHY    C1 1678   0.823  34.406   5.533
 1763AUSL   AUS 1679   1.127  37.125   7.339
 1764AUSL   AUS 1680   1.240  37.382   6.992
 1765AUL    AUL 1681   1.278  37.004   7.012
 1766THSLK    S 1682   1.084  36.871   7.266
 1767ETHY    C1 1683   0.940  36.443   7.213
 1768ETHY    C1 1684   0.853  35.924   7.120
 1769ETHY    C1 1685   0.865  35.412   6.997
 1770ETHY    C1 1686   0.966  34.918   6.854
 1771ETHY    C1 1687   1.158  34.453   6.695
 1772ETHY    C1 1688   1.438  34.025   6.523
 1773THSLK    S 1689   1.357  37.192   6.859
 1774ETHY    C1 1690   1.401  36.790   6.651
 1775ETHY    C1 1691   1.511  36.359   6.355
 1776ETHY    C1 1692   1.687  35.996   6.017
 1777ETHY    C1 1693   1.918  35.702   5.651
 1778ETHY    C1 1694   2.204  35.485   5.264
 1779ETHY    C1 1695   2.541  35.349   4.865
 1780AUC    AUC 1696  46.917  18.961   7.503
 1781AUC    AUC 1697  47.162  18.961   7.351
 1782AUC    AUC 1698  47.162  18.961   7.654
 1783AUC    AUC 1699  46.672  18.961   7.351
 1784AUC    AUC 1700  46.672  18.961   7.654
 1785AUC    AUC 1701  46.765  19.207   7.503
 1786AUC    AUC 1702  47.069  19.207   7.503
 1787AUC    AUC 1703  46.765  18.716   7.503
 1788AUC    AUC 1704  47.069  18.716   7.503
 1789AUC    AUC 1705  46.917  18.810   7.748
 1790AUC    AUC 1706  46.917  19.113   7.748
 1791AUC    AUC 1707  46.917  18.810   7.257
 1792AUC    AUC 1708  46.917  19.113   7.257
 1793AUC    AUC 1709  47.408  18.961   7.199
 1794AUC    AUC 1710  47.408  18.961   7.503
 1795AUC    AUC 1711  47.408  18.961   7.806
 1796AUC    AUC 1712  46.426  18.961   7.199
 1797AUC    AUC 1713  46.426  18.961   7.503
 1798AUC    AUC 1714  46.426  18.961   7.806
 1799AUC    AUC 1715  46.614  19.452   7.503
 1800AUC    AUC 1716  46.917  19.452   7.503
 1801AUC    AUC 1717  47.220  19.452   7.503
 1802AUC    AUC 1718  46.614  18.471   7.503
 1803AUC    AUC 1719  46.917  18.471   7.503
 1804AUC    AUC 1720  47.220  18.471   7.503
 1805AUC    AUC 1721  46.917  18.658   7.993
 1806AUC    AUC 1722  46.917  18.961   7.993
 1807AUC    AUC 1723  46.917  19.265   7.993
 1808AUC    AUC 1724  46.917  18.658   7.012
 1809AUC    AUC 1725  46.917  18.961   7.012
 1810AUC    AUC 1726  46.917  19.265   7.012
 1811AUC    AUC 1727  47.162  18.810   7.900
 1812AUC    AUC 1728  47.162  19.113   7.900
 1813AUC    AUC 1729  47.162  18.810   7.106
 1814AUC    AUC 1730  47.162  19.113   7.106
 1815AUC    AUC 1731  46.672  18.810   7.900
 1816AUC    AUC 1732  46.672  19.113   7.900
 1817AUC    AUC 1733  46.672  18.810   7.106
 1818AUC    AUC 1734  46.672  19.113   7.106
 1819AUC    AUC 1735  47.314  19.207   7.351
 1820AUC    AUC 1736  47.314  19.207   7.654
 1821AUC    AUC 1737  46.520  19.207   7.351
 1822AUC    AUC 1738  46.520  19.207   7.654
 1823AUC    AUC 1739  47.314  18.716   7.351
 1824AUC    AUC 1740  47.314  18.716   7.654
 1825AUC    AUC 1741  46.520  18.716   7.351
 1826AUC    AUC 1742  46.520  18.716   7.654
 1827AUC    AUC 1743  46.765  19.359   7.748
 1828AUC    AUC 1744  47.069  19.359   7.748
 1829AUC    AUC 1745  46.765  18.564   7.748
 1830AUC    AUC 1746  47.069  18.564   7.748
 1831AUC    AUC 1747  46.765  19.359   7.257
 1832AUC    AUC 1748  47.069  19.359   7.257
 1833AUC    AUC 1749  46.765  18.564   7.257
 1834AUC    AUC 1750  47.069  18.564   7.257
 1835AUSL   AUS 1751  47.326  18.961   8.083
 1836AUSL   AUS 1752  47.182  18.545   8.013
 1837AUL    AUL 1753  47.408  18.658   8.297
 1838THSLK    S 1754  47.292  18.358   8.153
 1839ETHY    C1 1755  47.328  17.959   8.368
 1840ETHY    C1 1756  47.438  17.529   8.665
 1841ETHY    C1 1757  47.616  17.165   9.000
 1842ETHY    C1 1758  47.850  16.869   9.364
 1843ETHY    C1 1759  48.136  16.652   9.752
 1844ETHY    C1 1760  48.467  16.519  10.156
 1845THSLK    S 1761  47.419  18.909   8.324
 1846ETHY    C1 1762  47.623  18.689   8.665
 1847ETHY    C1 1763  47.887  18.512   9.094
 1848ETHY    C1 1764  48.163  18.436   9.535
 1849ETHY    C1 1765  48.440  18.453   9.980
 1850ETHY    C1 1766  48.710  18.566  10.419
 1851ETHY    C1 1767  48.969  18.775  10.845
 1852AUSL   AUS 1768  47.081  18.810   8.176
 1853AUSL   AUS 1769  46.753  19.113   8.176
 1854AUL    AUL 1770  46.917  18.961   8.484
 1855THSLK    S 1771  47.156  18.755   8.413
 1856ETHY    C1 1772  47.220  18.475   8.765
 1857ETHY    C1 1773  47.323  18.220   9.223
 1858ETHY    C1 1774  47.450  18.061   9.708
 1859ETHY    C1 1775  47.592  17.992  10.208
 1860ETHY    C1 1776  47.746  18.020  10.713
 1861ETHY    C1 1777  47.906  18.144  11.212
 1862THSLK    S 1778  46.668  19.067   8.428
 1863ETHY    C1 1779  46.594  18.917   8.850
 1864ETHY    C1 1780  46.489  18.829   9.367
 1865ETHY    C1 1781  46.367  18.841   9.878
 1866ETHY    C1 1782  46.229  18.942  10.373
 1867ETHY    C1 1783  46.074  19.135  10.840
 1868ETHY    C1 1784  45.905  19.416  11.268
 1869AUSL   AUS 1785  47.081  19.113   8.176
 1870AUSL   AUS 1786  47.427  19.226   7.919
 1871AUL    AUL 1787  47.408  19.265   8.297
 1872THSLK    S 1788  47.166  19.169   8.410
 1873ETHY    C1 1789  47.240  19.450   8.759
 1874ETHY    C1 1790  47.345  19.705   9.217
 1875ETHY    C1 1791  47.467  19.864   9.703
 1876ETHY    C1 1792  47.606  19.933  10.204
 1877ETHY    C1 1793  47.760  19.906  10.708
 1878ETHY    C1 1794  47.929  19.782  11.206
 1879THSLK    S 1795  47.599  19.324   8.080
 1880ETHY    C1 1796  47.962  19.295   8.350
 1881ETHY    C1 1797  48.384  19.351   8.673
 1882ETHY    C1 1798  48.776  19.505   8.989
 1883ETHY    C1 1799  49.130  19.743   9.293
 1884ETHY    C1 1800  49.437  20.064   9.580
 1885ETHY    C1 1801  49.688  20.461   9.844
 1886AUSL   AUS 1802  47.326  18.961   6.923
 1887AUSL   AUS 1803  47.182  19.378   6.992
 1888AUL    AUL 1804  47.408  19.265   6.708
 1889THSLK    S 1805  47.428  18.909   6.687
 1890ETHY    C1 1806  47.641  18.689   6.351
 1891ETHY    C1 1807  47.906  18.512   5.923
 1892ETHY    C1 1808  48.178  18.436   5.479
 1893ETHY    C1 1809  48.452  18.453   5.033
 1894ETHY    C1 1810  48.723  18.566   4.594
 1895ETHY    C1 1811  48.988  18.775   4.173
 1896THSLK    S 1812  47.360  19.489   6.829
 1897ETHY    C1 1813  47.662  19.557   6.497
 1898ETHY    C1 1814  47.981  19.720   6.100
 1899ETHY    C1 1815  48.246  19.967   5.719
 1900ETHY    C1 1816  48.458  20.287   5.362
 1901ETHY    C1 1817  48.611  20.677   5.039
 1902ETHY    C1 1818  48.702  21.129   4.759
 1903AUSL   AUS 1819  47.081  18.810   6.829
 1904AUSL   AUS 1820  47.427  18.697   7.086
 1905AUL    AUL 1821  47.408  18.658   6.708
 1906THSLK    S 1822  47.560  18.505   6.949
 1907ETHY    C1 1823  47.743  18.138   6.752
 1908ETHY    C1 1824  48.015  17.766   6.483
 1909ETHY    C1 1825  48.340  17.477   6.186
 1910ETHY    C1 1826  48.706  17.270   5.874
 1911ETHY    C1 1827  49.110  17.151   5.555
 1912ETHY    C1 1828  49.543  17.126   5.235
 1913THSLK    S 1829  47.166  18.754   6.596
 1914ETHY    C1 1830  47.240  18.473   6.246
 1915ETHY    C1 1831  47.345  18.217   5.788
 1916ETHY    C1 1832  47.467  18.059   5.302
 1917ETHY    C1 1833  47.606  17.990   4.801
 1918ETHY    C1 1834  47.760  18.017   4.297
 1919ETHY    C1 1835  47.929  18.141   3.799
 1920AUSL   AUS 1836  47.081  19.113   6.829
 1921AUSL   AUS 1837  46.753  18.810   6.829
 1922AUL    AUL 1838  46.917  18.961   6.521
 1923THSLK    S 1839  46.661  18.754   6.597
 1924ETHY    C1 1840  46.526  18.476   6.264
 1925ETHY    C1 1841  46.365  18.223   5.822
 1926ETHY    C1 1842  46.213  18.066   5.343
 1927ETHY    C1 1843  46.077  17.997   4.842
 1928ETHY    C1 1844  45.960  18.023   4.328
 1929ETHY    C1 1845  45.867  18.142   3.810
 1930THSLK    S 1846  47.183  19.067   6.583
 1931ETHY    C1 1847  47.329  18.917   6.179
 1932ETHY    C1 1848  47.491  18.826   5.678
 1933ETHY    C1 1849  47.638  18.836   5.173
 1934ETHY    C1 1850  47.771  18.937   4.677
 1935ETHY    C1 1851  47.888  19.132   4.200
 1936ETHY    C1 1852  47.989  19.418   3.754
 1937AUSL   AUS 1853  46.508  18.961   8.083
 1938AUSL   AUS 1854  46.652  19.378   8.013
 1939AUL    AUL 1855  46.426  19.265   8.297
 1940THSLK    S 1856  46.406  18.909   8.319
 1941ETHY    C1 1857  46.194  18.689   8.654
 1942ETHY    C1 1858  45.928  18.512   9.082
 1943ETHY    C1 1859  45.656  18.436   9.526
 1944ETHY    C1 1860  45.382  18.453   9.973
 1945ETHY    C1 1861  45.111  18.566  10.411
 1946ETHY    C1 1862  44.846  18.775  10.832
 1947THSLK    S 1863  46.535  19.502   8.202
 1948ETHY    C1 1864  46.492  19.645   8.632
 1949ETHY    C1 1865  46.381  19.870   9.104
 1950ETHY    C1 1866  46.205  20.147   9.515
 1951ETHY    C1 1867  45.974  20.463   9.863
 1952ETHY    C1 1868  45.688  20.811  10.138
 1953ETHY    C1 1869  45.351  21.184  10.334
 1954AUSL   AUS 1870  46.753  18.810   8.176
 1955AUSL   AUS 1871  46.407  18.697   7.919
 1956AUL    AUL 1872  46.426  18.658   8.297
 1957THSLK    S 1873  46.230  18.534   8.026
 1958ETHY    C1 1874  45.859  18.277   8.082
 1959ETHY    C1 1875  45.437  17.989   8.237
 1960ETHY    C1 1876  45.047  17.734   8.482
 1961ETHY    C1 1877  44.695  17.517   8.803
 1962ETHY    C1 1878  44.389  17.346   9.198
 1963ETHY    C1 1879  44.132  17.225   9.657
 1964THSLK    S 1880  46.651  18.756   8.406
 1965ETHY    C1 1881  46.505  18.480   8.736
 1966ETHY    C1 1882  46.343  18.228   9.178
 1967ETHY    C1 1883  46.196  18.070   9.658
 1968ETHY    C1 1884  46.063  18.000  10.160
 1969ETHY    C1 1885  45.946  18.026  10.674
 1970ETHY    C1 1886  45.845  18.147  11.190
 1971AUSL   AUS 1887  46.508  18.961   6.923
 1972AUSL   AUS 1888  46.652  18.545   6.992
 1973AUL    AUL 1889  46.426  18.658   6.708
 1974THSLK    S 1890  46.415  18.909   6.681
 1975ETHY    C1 1891  46.211  18.689   6.341
 1976ETHY    C1 1892  45.947  18.512   5.911
 1977ETHY    C1 1893  45.671  18.436   5.470
 1978ETHY    C1 1894  45.394  18.453   5.025
 1979ETHY    C1 1895  45.124  18.566   4.586
 1980ETHY    C1 1896  44.865  18.775   4.161
 1981THSLK    S 1897  46.481  18.372   6.878
 1982ETHY    C1 1898  46.186  18.046   6.760
 1983ETHY    C1 1899  45.868  17.679   6.538
 1984ETHY    C1 1900  45.600  17.344   6.233
 1985ETHY    C1 1901  45.386  17.044   5.861
 1986ETHY    C1 1902  45.234  16.786   5.426
 1987ETHY    C1 1903  45.148  16.574   4.937
 1988AUSL   AUS 1904  46.753  19.113   6.829
 1989AUSL   AUS 1905  46.407  19.226   7.086
 1990AUL    AUL 1906  46.426  19.265   6.708
 1991THSLK    S 1907  46.280  19.353   6.895
 1992ETHY    C1 1908  46.103  19.434   6.484
 1993ETHY    C1 1909  45.832  19.574   6.046
 1994ETHY    C1 1910  45.505  19.762   5.679
 1995ETHY    C1 1911  45.136  19.991   5.385
 1996ETHY    C1 1912  44.734  20.258   5.173
 1997ETHY    C1 1913  44.305  20.560   5.047
 1998THSLK    S 1914  46.678  19.069   6.576
 1999ETHY    C1 1915  46.614  18.922   6.150
 2000ETHY    C1 1916  46.511  18.833   5.634
 2001ETHY    C1 1917  46.384  18.844   5.123
 2002ETHY    C1 1918  46.242  18.945   4.629
 2003ETHY    C1 1919  46.089  19.138   4.162
 2004ETHY    C1 1920  45.928  19.421   3.732
 2005AUSL   AUS 1921  47.497  19.370   7.503
 2006AUSL   AUS 1922  47.427  19.226   7.086
 2007AUL    AUL 1923  47.711  19.452   7.199
 2008THSLK    S 1924  47.605  19.325   6.934
 2009ETHY    C1 1925  47.975  19.298   6.671
 2010ETHY    C1 1926  48.397  19.354   6.349
 2011ETHY    C1 1927  48.787  19.508   6.030
 2012ETHY    C1 1928  49.139  19.745   5.724
 2013ETHY    C1 1929  49.446  20.066   5.438
 2014ETHY    C1 1930  49.702  20.465   5.179
 2015THSLK    S 1931  47.763  19.423   7.508
 2016ETHY    C1 1932  48.217  19.445   7.513
 2017ETHY    C1 1933  48.739  19.559   7.514
 2018ETHY    C1 1934  49.222  19.768   7.511
 2019ETHY    C1 1935  49.658  20.058   7.510
 2020ETHY    C1 1936  50.037  20.425   7.510
 2021ETHY    C1 1937  50.351  20.865   7.514
 2022AUSL   AUS 1938  47.591  19.125   7.351
 2023AUSL   AUS 1939  47.591  18.798   7.654
 2024AUL    AUL 1940  47.899  18.961   7.503
 2025THSLK    S 1941  47.847  19.164   7.350
 2026ETHY    C1 1942  48.283  19.056   7.286
 2027ETHY    C1 1943  48.809  19.018   7.201
 2028ETHY    C1 1944  49.324  19.082   7.113
 2029ETHY    C1 1945  49.818  19.236   7.026
 2030ETHY    C1 1946  50.278  19.481   6.945
 2031ETHY    C1 1947  50.697  19.813   6.873
 2032THSLK    S 1948  47.818  18.658   7.663
 2033ETHY    C1 1949  48.137  18.342   7.728
 2034ETHY    C1 1950  48.570  18.038   7.807
 2035ETHY    C1 1951  49.045  17.828   7.887
 2036ETHY    C1 1952  49.548  17.707   7.971
 2037ETHY    C1 1953  50.068  17.681   8.058
 2038ETHY    C1 1954  50.596  17.751   8.147
 2039AUSL   AUS 1955  47.591  19.125   7.654
 2040AUSL   AUS 1956  47.333  19.472   7.767
 2041AUL    AUL 1957  47.711  19.452   7.806
 2042THSLK    S 1958  47.516  19.586   7.926
 2043ETHY    C1 1959  47.899  19.704   8.140
 2044ETHY    C1 1960  48.317  19.927   8.388
 2045ETHY    C1 1961  48.676  20.232   8.622
 2046ETHY    C1 1962  48.973  20.605   8.840
 2047ETHY    C1 1963  49.198  21.039   9.038
 2048ETHY    C1 1964  49.345  21.527   9.215
 2049THSLK    S 1965  47.845  19.164   7.665
 2050ETHY    C1 1966  48.280  19.056   7.740
 2051ETHY    C1 1967  48.806  19.018   7.826
 2052ETHY    C1 1968  49.321  19.081   7.910
 2053ETHY    C1 1969  49.815  19.235   7.993
 2054ETHY    C1 1970  50.276  19.480   8.075
 2055ETHY    C1 1971  50.693  19.812   8.155
 2056AUSL   AUS 1972  46.337  19.370   7.503
 2057AUSL   AUS 1973  46.407  19.226   7.919
 2058AUL    AUL 1974  46.123  19.452   7.806
 2059THSLK    S 1975  46.274  19.345   8.109
 2060ETHY    C1 1976  46.091  19.417   8.519
 2061ETHY    C1 1977  45.819  19.557   8.957
 2062ETHY    C1 1978  45.494  19.748   9.324
 2063ETHY    C1 1979  45.128  19.979   9.619
 2064ETHY    C1 1980  44.725  20.246   9.831
 2065ETHY    C1 1981  44.291  20.542   9.956
 2066THSLK    S 1982  46.126  19.511   7.508
 2067ETHY    C1 1983  45.904  19.908   7.513
 2068ETHY    C1 1984  45.568  20.323   7.514
 2069ETHY    C1 1985  45.165  20.662   7.511
 2070ETHY    C1 1986  44.711  20.923   7.510
 2071ETHY    C1 1987  44.212  21.097   7.510
 2072ETHY    C1 1988  43.679  21.181   7.514
 2073AUSL   AUS 1989  46.243  19.125   7.351
 2074AUSL   AUS 1990  46.501  19.472   7.238
 2075AUL    AUL 1991  46.123  19.452   7.199
 2076THSLK    S 1992  46.016  19.240   7.303
 2077ETHY    C1 1993  45.697  19.440   7.049
 2078ETHY    C1 1994  45.264  19.646   6.813
 2079ETHY    C1 1995  44.789  19.812   6.661
 2080ETHY    C1 1996  44.286  19.941   6.590
 2081ETHY    C1 1997  43.766  20.031   6.605
 2082ETHY    C1 1998  43.238  20.079   6.708
 2083THSLK    S 1999  46.389  19.635   7.060
 2084ETHY    C1 2000  46.310  19.945   6.737
 2085ETHY    C1 2001  46.135  20.319   6.397
 2086ETHY    C1 2002  45.881  20.687   6.120
 2087ETHY    C1 2003  45.561  21.044   5.909
 2088ETHY    C1 2004  45.180  21.382   5.770
 2089ETHY    C1 2005  44.745  21.696   5.709
 2090AUSL   AUS 2006  46.243  19.125   7.654
 2091AUSL   AUS 2007  46.243  18.798   7.351
 2092AUL    AUL 2008  45.935  18.961   7.503
 2093THSLK    S 2009  45.989  18.725   7.394
 2094ETHY    C1 2010  45.554  18.707   7.524
 2095ETHY    C1 2011  45.028  18.647   7.597
 2096ETHY    C1 2012  44.513  18.543   7.578
 2097ETHY    C1 2013  44.019  18.400   7.477
 2098ETHY    C1 2014  43.559  18.217   7.294
 2099ETHY    C1 2015  43.141  17.997   7.034
 2100THSLK    S 2016  46.015  19.231   7.707
 2101ETHY    C1 2017  45.694  19.422   7.966
 2102ETHY    C1 2018  45.261  19.626   8.202
 2103ETHY    C1 2019  44.786  19.797   8.352
 2104ETHY    C1 2020  44.284  19.929   8.422
 2105ETHY    C1 2021  43.764  20.017   8.407
 2106ETHY    C1 2022  43.235  20.058   8.308
 2107AUSL   AUS 2023  47.497  18.552   7.503
 2108AUSL   AUS 2024  47.427  18.697   7.919
 2109AUL    AUL 2025  47.711  18.471   7.806
 2110THSLK    S 2026  47.708  18.411   7.508
 2111ETHY    C1 2027  47.930  18.015   7.513
 2112ETHY    C1 2028  48.266  17.600   7.514
 2113ETHY    C1 2029  48.669  17.261   7.511
 2114ETHY    C1 2030  49.123  17.000   7.510
 2115ETHY    C1 2031  49.622  16.826   7.510
 2116ETHY    C1 2032  50.155  16.742   7.514
 2117THSLK    S 2033  47.554  18.506   8.064
 2118ETHY    C1 2034  47.731  18.141   8.270
 2119ETHY    C1 2035  48.002  17.769   8.540
 2120ETHY    C1 2036  48.329  17.480   8.834
 2121ETHY    C1 2037  48.698  17.272   9.142
 2122ETHY    C1 2038  49.100  17.154   9.462
 2123ETHY    C1 2039  49.529  17.129   9.789
 2124AUSL   AUS 2040  47.591  18.798   7.351
 2125AUSL   AUS 2041  47.333  18.451   7.238
 2126AUL    AUL 2042  47.711  18.471   7.199
 2127THSLK    S 2043  47.819  18.658   7.353
 2128ETHY    C1 2044  48.140  18.341   7.298
 2129ETHY    C1 2045  48.573  18.038   7.221
 2130ETHY    C1 2046  49.048  17.828   7.136
 2131ETHY    C1 2047  49.550  17.707   7.048
 2132ETHY    C1 2048  50.070  17.680   6.963
 2133ETHY    C1 2049  50.599  17.751   6.881
 2134THSLK    S 2050  47.449  18.262   7.108
 2135ETHY    C1 2051  47.533  17.833   6.984
 2136ETHY    C1 2052  47.708  17.361   6.803
 2137ETHY    C1 2053  47.961  16.950   6.593
 2138ETHY    C1 2054  48.279  16.602   6.366
 2139ETHY    C1 2055  48.661  16.327   6.126
 2140ETHY    C1 2056  49.099  16.130   5.880
 2141AUSL   AUS 2057  46.337  18.552   7.503
 2142AUSL   AUS 2058  46.407  18.697   7.086
 2143AUL    AUL 2059  46.123  18.471   7.199
 2144THSLK    S 2060  46.236  18.526   6.978
 2145ETHY    C1 2061  45.872  18.261   6.921
 2146ETHY    C1 2062  45.450  17.971   6.766
 2147ETHY    C1 2063  45.058  17.719   6.521
 2148ETHY    C1 2064  44.704  17.506   6.200
 2149ETHY    C1 2065  44.397  17.333   5.806
 2150ETHY    C1 2066  44.146  17.206   5.346
 2151THSLK    S 2067  46.071  18.500   7.508
 2152ETHY    C1 2068  45.617  18.478   7.513
 2153ETHY    C1 2069  45.095  18.364   7.514
 2154ETHY    C1 2070  44.613  18.155   7.511
 2155ETHY    C1 2071  44.176  17.865   7.510
 2156ETHY    C1 2072  43.797  17.498   7.510
 2157ETHY    C1 2073  43.484  17.058   7.514
 2158AUSL   AUS 2074  46.243  18.798   7.654
 2159AUSL   AUS 2075  46.501  18.451   7.767
 2160AUL    AUL 2076  46.123  18.471   7.806
 2161THSLK    S 2077  46.313  18.311   7.878
 2162ETHY    C1 2078  45.926  18.074   7.893
 2163ETHY    C1 2079  45.508  17.754   7.982
 2164ETHY    C1 2080  45.150  17.405   8.149
 2165ETHY    C1 2081  44.855  17.041   8.382
 2166ETHY    C1 2082  44.630  16.670   8.683
 2167ETHY    C1 2083  44.479  16.299   9.045
 2168THSLK    S 2084  45.987  18.735   7.616
 2169ETHY    C1 2085  45.551  18.725   7.491
 2170ETHY    C1 2086  45.025  18.666   7.419
 2171ETHY    C1 2087  44.510  18.559   7.436
 2172ETHY    C1 2088  44.016  18.413   7.535
 2173ETHY    C1 2089  43.556  18.231   7.718
 2174ETHY    C1 2090  43.137  18.018   7.983
 2175AUSL   AUS 2091  46.917  19.541   7.912
 2176AUSL   AUS 2092  46.501  19.472   7.767
 2177AUL    AUL 2093  46.614  19.756   7.993
 2178THSLK    S 2094  46.385  19.628   7.952
 2179ETHY    C1 2095  46.301  19.930   8.280
 2180ETHY    C1 2096  46.126  20.303   8.621
 2181ETHY    C1 2097  45.873  20.674   8.895
 2182ETHY    C1 2098  45.555  21.033   9.105
 2183ETHY    C1 2099  45.173  21.371   9.244
 2184ETHY    C1 2100  44.735  21.679   9.309
 2185THSLK    S 2101  46.959  19.763   8.035
 2186ETHY    C1 2102  47.143  20.038   8.347
 2187ETHY    C1 2103  47.293  20.418   8.691
 2188ETHY    C1 2104  47.359  20.841   8.998
 2189ETHY    C1 2105  47.346  21.292   9.264
 2190ETHY    C1 2106  47.249  21.761   9.485
 2191ETHY    C1 2107  47.069  22.240   9.656
 2192AUSL   AUS 2108  46.765  19.635   7.666
 2193AUSL   AUS 2109  47.069  19.635   7.339
 2194AUL    AUL 2110  46.917  19.943   7.503
 2195THSLK    S 2111  46.808  19.879   7.776
 2196ETHY    C1 2112  46.952  20.273   7.951
 2197ETHY    C1 2113  47.039  20.767   8.137
 2198ETHY    C1 2114  47.027  21.268   8.294
 2199ETHY    C1 2115  46.926  21.766   8.425
 2200ETHY    C1 2116  46.734  22.247   8.527
 2201ETHY    C1 2117  46.454  22.702   8.600
 2202THSLK    S 2118  47.124  19.866   7.243
 2203ETHY    C1 2119  47.400  20.196   7.096
 2204ETHY    C1 2120  47.650  20.637   6.927
 2205ETHY    C1 2121  47.806  21.114   6.771
 2206ETHY    C1 2122  47.875  21.616   6.635
 2207ETHY    C1 2123  47.851  22.132   6.525
 2208ETHY    C1 2124  47.734  22.652   6.443
 2209AUSL   AUS 2125  47.069  19.635   7.666
 2210AUSL   AUS 2126  47.182  19.378   8.013
 2211AUL    AUL 2127  47.220  19.756   7.993
 2212THSLK    S 2128  47.353  19.486   8.183
 2213ETHY    C1 2129  47.648  19.551   8.523
 2214ETHY    C1 2130  47.966  19.713   8.920
 2215ETHY    C1 2131  48.234  19.962   9.298
 2216ETHY    C1 2132  48.448  20.284   9.653
 2217ETHY    C1 2133  48.600  20.672   9.976
 2218ETHY    C1 2134  48.686  21.122  10.262
 2219THSLK    S 2135  47.122  19.864   7.772
 2220ETHY    C1 2136  47.394  20.192   7.929
 2221ETHY    C1 2137  47.644  20.632   8.100
 2222ETHY    C1 2138  47.802  21.111   8.251
 2223ETHY    C1 2139  47.871  21.613   8.383
 2224ETHY    C1 2140  47.847  22.128   8.494
 2225ETHY    C1 2141  47.728  22.647   8.585
 2226AUSL   AUS 2142  46.917  18.381   7.912
 2227AUSL   AUS 2143  47.333  18.451   7.767
 2228AUL    AUL 2144  47.220  18.167   7.993
 2229THSLK    S 2145  46.870  18.131   7.989
 2230ETHY    C1 2146  46.680  17.735   8.103
 2231ETHY    C1 2147  46.529  17.257   8.289
 2232ETHY    C1 2148  46.466  16.792   8.528
 2233ETHY    C1 2149  46.481  16.350   8.809
 2234ETHY    C1 2150  46.577  15.943   9.132
 2235ETHY    C1 2151  46.752  15.580   9.489
 2236THSLK    S 2152  47.445  18.264   7.907
 2237ETHY    C1 2153  47.524  17.836   8.040
 2238ETHY    C1 2154  47.699  17.366   8.222
 2239ETHY    C1 2155  47.953  16.954   8.428
 2240ETHY    C1 2156  48.273  16.605   8.652
 2241ETHY    C1 2157  48.654  16.330   8.893
 2242ETHY    C1 2158  49.089  16.134   9.147
 2243AUSL   AUS 2159  46.765  18.288   7.666
 2244AUSL   AUS 2160  46.652  18.545   8.013
 2245AUL    AUL 2161  46.614  18.167   7.993
 2246THSLK    S 2162  46.710  18.052   7.745
 2247ETHY    C1 2163  46.435  17.693   7.788
 2248ETHY    C1 2164  46.184  17.228   7.869
 2249ETHY    C1 2165  46.028  16.738   7.981
 2250ETHY    C1 2166  45.959  16.239   8.122
 2251ETHY    C1 2167  45.983  15.739   8.292
 2252ETHY    C1 2168  46.100  15.251   8.489
 2253THSLK    S 2169  46.474  18.379   8.129
 2254ETHY    C1 2170  46.172  18.061   8.248
 2255ETHY    C1 2171  45.853  17.694   8.471
 2256ETHY    C1 2172  45.588  17.357   8.776
 2257ETHY    C1 2173  45.376  17.055   9.147
 2258ETHY    C1 2174  45.223  16.797   9.582
 2259ETHY    C1 2175  45.132  16.590  10.072
 2260AUSL   AUS 2176  47.069  18.288   7.666
 2261AUSL   AUS 2177  46.765  18.288   7.339
 2262AUL    AUL 2178  46.917  17.980   7.503
 2263THSLK    S 2179  46.712  18.049   7.270
 2264ETHY    C1 2180  46.440  17.687   7.236
 2265ETHY    C1 2181  46.190  17.222   7.157
 2266ETHY    C1 2182  46.033  16.733   7.041
 2267ETHY    C1 2183  45.963  16.234   6.896
 2268ETHY    C1 2184  45.987  15.735   6.727
 2269ETHY    C1 2185  46.106  15.244   6.538
 2270THSLK    S 2186  47.023  18.036   7.749
 2271ETHY    C1 2187  46.876  17.610   7.811
 2272ETHY    C1 2188  46.790  17.092   7.906
 2273ETHY    C1 2189  46.802  16.579   8.025
 2274ETHY    C1 2190  46.904  16.084   8.165
 2275ETHY    C1 2191  47.096  15.619   8.325
 2276ETHY    C1 2192  47.374  15.193   8.504
 2277AUSL   AUS 2193  46.917  19.541   7.094
 2278AUSL   AUS 2194  47.333  19.472   7.238
 2279AUL    AUL 2195  47.220  19.756   7.012
 2280THSLK    S 2196  46.964  19.768   6.977
 2281ETHY    C1 2197  47.154  20.047   6.674
 2282ETHY    C1 2198  47.305  20.428   6.330
 2283ETHY    C1 2199  47.369  20.848   6.021
 2284ETHY    C1 2200  47.353  21.298   5.752
 2285ETHY    C1 2201  47.257  21.768   5.532
 2286ETHY    C1 2202  47.082  22.251   5.366
 2287THSLK    S 2203  47.521  19.588   7.089
 2288ETHY    C1 2204  47.908  19.708   6.883
 2289ETHY    C1 2205  48.326  19.931   6.637
 2290ETHY    C1 2206  48.684  20.235   6.400
 2291ETHY    C1 2207  48.979  20.607   6.178
 2292ETHY    C1 2208  49.204  21.042   5.981
 2293ETHY    C1 2209  49.355  21.531   5.811
 2294AUSL   AUS 2210  46.765  19.635   7.339
 2295AUSL   AUS 2211  46.652  19.378   6.992
 2296AUL    AUL 2212  46.614  19.756   7.012
 2297THSLK    S 2213  46.811  19.882   7.239
 2298ETHY    C1 2214  46.958  20.279   7.074
 2299ETHY    C1 2215  47.044  20.773   6.889
 2300ETHY    C1 2216  47.032  21.274   6.727
 2301ETHY    C1 2217  46.930  21.770   6.593
 2302ETHY    C1 2218  46.738  22.251   6.492
 2303ETHY    C1 2219  46.460  22.709   6.427
 2304THSLK    S 2220  46.542  19.510   6.805
 2305ETHY    C1 2221  46.506  19.659   6.377
 2306ETHY    C1 2222  46.396  19.885   5.906
 2307ETHY    C1 2223  46.218  20.160   5.494
 2308ETHY    C1 2224  45.984  20.473   5.145
 2309ETHY    C1 2225  45.698  20.822   4.870
 2310ETHY    C1 2226  45.367  21.200   4.675
 2311AUSL   AUS 2227  46.917  18.381   7.094
 2312AUSL   AUS 2228  46.501  18.451   7.238
 2313AUL    AUL 2229  46.614  18.167   7.012
 2314THSLK    S 2230  46.318  18.303   7.134
 2315ETHY    C1 2231  45.935  18.059   7.124
 2316ETHY    C1 2232  45.517  17.738   7.035
 2317ETHY    C1 2233  45.158  17.392   6.866
 2318ETHY    C1 2234  44.861  17.031   6.631
 2319ETHY    C1 2235  44.636  16.659   6.331
 2320ETHY    C1 2236  44.489  16.282   5.974
 2321THSLK    S 2237  46.875  18.126   7.024
 2322ETHY    C1 2238  46.691  17.725   6.917
 2323ETHY    C1 2239  46.541  17.247   6.732
 2324ETHY    C1 2240  46.475  16.784   6.491
 2325ETHY    C1 2241  46.488  16.344   6.206
 2326ETHY    C1 2242  46.585  15.937   5.885
 2327ETHY    C1 2243  46.765  15.569   5.533
 2328AUSL   AUS 2244  47.069  18.288   7.339
 2329AUSL   AUS 2245  47.182  18.545   6.992
 2330AUL    AUL 2246  47.220  18.167   7.012
 2331THSLK    S 2247  47.026  18.034   7.266
 2332ETHY    C1 2248  46.882  17.606   7.213
 2333ETHY    C1 2249  46.795  17.087   7.120
 2334ETHY    C1 2250  46.807  16.575   6.997
 2335ETHY    C1 2251  46.908  16.081   6.854
 2336ETHY    C1 2252  47.100  15.616   6.695
 2337ETHY    C1 2253  47.380  15.188   6.523
 2338THSLK    S 2254  47.299  18.355   6.859
 2339ETHY    C1 2255  47.343  17.953   6.651
 2340ETHY    C1 2256  47.453  17.522   6.355
 2341ETHY    C1 2257  47.629  17.159   6.017
 2342ETHY    C1 2258  47.860  16.865   5.651
 2343ETHY    C1 2259  48.146  16.648   5.264
 2344ETHY    C1 2260  48.483  16.512   4.865
 2345AUC    AUC 2261  32.694  19.570   7.503
 2346AUC    AUC 2262  32.939  19.570   7.351
 2347AUC    AUC 2263  32.939  19.570   7.654
 2348AUC    AUC 2264  32.449  19.570   7.351
 2349AUC    AUC 2265  32.449  19.570   7.654
 2350AUC    AUC 2266  32.542  19.816   7.503
 2351AUC    AUC 2267  32.846  19.816   7.503
 2352AUC    AUC 2268  32.542  19.325   7.503
 2353AUC    AUC 2269  32.846  19.325   7.503
 2354AUC    AUC 2270  32.694  19.419   7.748
 2355AUC    AUC 2271  32.694  19.722   7.748
 2356AUC    AUC 2272  32.694  19.419   7.257
 2357AUC    AUC 2273  32.694  19.722   7.257
 2358AUC    AUC 2274  33.185  19.570   7.199
 2359AUC    AUC 2275  33.185  19.570   7.503
 2360AUC    AUC 2276  33.185  19.570   7.806
 2361AUC    AUC 2277  32.203  19.570   7.199
 2362AUC    AUC 2278  32.203  19.570   7.503
 2363AUC    AUC 2279  32.203  19.570   7.806
 2364AUC    AUC 2280  32.391  20.061   7.503
 2365AUC    AUC 2281  32.694  20.061   7.503
 2366AUC    AUC 2282  32.997  20.061   7.503
 2367AUC    AUC 2283  32.391  19.080   7.503
 2368AUC    AUC 2284  32.694  19.080   7.503
 2369AUC    AUC 2285  32.997  19.080   7.503
 2370AUC    AUC 2286  32.694  19.267   7.993
 2371AUC    AUC 2287  32.694  19.570   7.993
 2372AUC    AUC 2288  32.694  19.874   7.993
 2373AUC    AUC 2289  32.694  19.267   7.012
 2374AUC    AUC 2290  32.694  19.570   7.012
 2375AUC    AUC 2291  32.694  19.874   7.012
 2376AUC    AUC 2292  32.939  19.419   7.900
 2377AUC    AUC 2293  32.939  19.722   7.900
 2378AUC    AUC 2294  32.939  19.419   7.106
 2379AUC    AUC 2295  32.939  19.722   7.106
 2380AUC    AUC 2296  32.449  19.419   7.900
 2381AUC    AUC 2297  32.449  19.722   7.900
 2382AUC    AUC 2298  32.449  19.419   7.106
 2383AUC    AUC 2299  32.449  19.722   7.106
 2384AUC    AUC 2300  33.091  19.816   7.351
 2385AUC    AUC 2301  33.091  19.816   7.654
 2386AUC    AUC 2302  32.297  19.816   7.351
 2387AUC    AUC 2303  32.297  19.816   7.654
 2388AUC    AUC 2304  33.091  19.325   7.351
 2389AUC    AUC 2305  33.091  19.325   7.654
 2390AUC    AUC 2306  32.297  19.325   7.351
 2391AUC    AUC 2307  32.297  19.325   7.654
 2392AUC    AUC 2308  32.542  19.968   7.748
 2393AUC    AUC 2309  32.846  19.968   7.748
 2394AUC    AUC 2310  32.542  19.173   7.748
 2395AUC    AUC 2311  32.846  19.173   7.748
 2396AUC    AUC 2312  32.542  19.968   7.257
 2397AUC    AUC 2313  32.846  19.968   7.257
 2398AUC    AUC 2314  32.542  19.173   7.257
 2399AUC    AUC 2315  32.846  19.173   7.257
 2400AUSL   AUS 2316  33.103  19.570   8.083
 2401AUSL   AUS 2317  32.959  19.154   8.013
 2402AUL    AUL 2318  33.185  19.267   8.297
 2403THSLK    S 2319  33.069  18.967   8.153
 2404ETHY    C1 2320  33.105  18.568   8.368
 2405ETHY    C1 2321  33.215  18.138   8.665
 2406ETHY    C1 2322  33.393  17.774   9.000
 2407ETHY    C1 2323  33.627  17.478   9.364
 2408ETHY    C1 2324  33.913  17.261   9.752
 2409ETHY    C1 2325  34.244  17.128  10.156
 2410THSLK    S 2326  33.196  19.518   8.324
 2411ETHY    C1 2327  33.400  19.298   8.665
 2412ETHY    C1 2328  33.664  19.121   9.094
 2413ETHY    C1 2329  33.940  19.045   9.535
 2414ETHY    C1 2330  34.217  19.062   9.980
 2415ETHY    C1 2331  34.487  19.175  10.419
 2416ETHY    C1 2332  34.746  19.384  10.845
 2417AUSL   AUS 2333  32.858  19.419   8.176
 2418AUSL   AUS 2334  32.530  19.722   8.176
 2419AUL    AUL 2335  32.694  19.570   8.484
 2420THSLK    S 2336  32.933  19.364   8.413
 2421ETHY    C1 2337  32.997  19.084   8.765
 2422ETHY    C1 2338  33.100  18.829   9.223
 2423ETHY    C1 2339  33.227  18.670   9.708
 2424ETHY    C1 2340  33.369  18.601  10.208
 2425ETHY    C1 2341  33.523  18.629  10.713
 2426ETHY    C1 2342  33.683  18.753  11.212
 2427THSLK    S 2343  32.445  19.676   8.428
 2428ETHY    C1 2344  32.371  19.526   8.850
 2429ETHY    C1 2345  32.266  19.438   9.367
 2430ETHY    C1 2346  32.144  19.450   9.878
 2431ETHY    C1 2347  32.006  19.551  10.373
 2432ETHY    C1 2348  31.851  19.744  10.840
 2433ETHY    C1 2349  31.682  20.025  11.268
 2434AUSL   AUS 2350  32.858  19.722   8.176
 2435AUSL   AUS 2351  33.204  19.835   7.919
 2436AUL    AUL 2352  33.185  19.874   8.297
 2437THSLK    S 2353  32.943  19.778   8.410
 2438ETHY    C1 2354  33.017  20.059   8.759
 2439ETHY    C1 2355  33.122  20.314   9.217
 2440ETHY    C1 2356  33.244  20.473   9.703
 2441ETHY    C1 2357  33.383  20.542  10.204
 2442ETHY    C1 2358  33.537  20.515  10.708
 2443ETHY    C1 2359  33.706  20.391  11.206
 2444THSLK    S 2360  33.376  19.933   8.080
 2445ETHY    C1 2361  33.739  19.904   8.350
 2446ETHY    C1 2362  34.161  19.960   8.673
 2447ETHY    C1 2363  34.553  20.114   8.989
 2448ETHY    C1 2364  34.907  20.352   9.293
 2449ETHY    C1 2365  35.214  20.673   9.580
 2450ETHY    C1 2366  35.465  21.070   9.844
 2451AUSL   AUS 2367  33.103  19.570   6.923
 2452AUSL   AUS 2368  32.959  19.987   6.992
 2453AUL    AUL 2369  33.185  19.874   6.708
 2454THSLK    S 2370  33.205  19.518   6.687
 2455ETHY    C1 2371  33.418  19.298   6.351
 2456ETHY    C1 2372  33.683  19.121   5.923
 2457ETHY    C1 2373  33.955  19.045   5.479
 2458ETHY    C1 2374  34.229  19.062   5.033
 2459ETHY    C1 2375  34.500  19.175   4.594
 2460ETHY    C1 2376  34.765  19.384   4.173
 2461THSLK    S 2377  33.137  20.098   6.829
 2462ETHY    C1 2378  33.439  20.166   6.497
 2463ETHY    C1 2379  33.758  20.329   6.100
 2464ETHY    C1 2380  34.023  20.576   5.719
 2465ETHY    C1 2381  34.235  20.896   5.362
 2466ETHY    C1 2382  34.388  21.286   5.039
 2467ETHY    C1 2383  34.479  21.738   4.759
 2468AUSL   AUS 2384  32.858  19.419   6.829
 2469AUSL   AUS 2385  33.204  19.306   7.086
 2470AUL    AUL 2386  33.185  19.267   6.708
 2471THSLK    S 2387  33.337  19.114   6.949
 2472ETHY    C1 2388  33.520  18.747   6.752
 2473ETHY    C1 2389  33.792  18.375   6.483
 2474ETHY    C1 2390  34.117  18.086   6.186
 2475ETHY    C1 2391  34.483  17.879   5.874
 2476ETHY    C1 2392  34.887  17.760   5.555
 2477ETHY    C1 2393  35.320  17.735   5.235
 2478THSLK    S 2394  32.943  19.363   6.596
 2479ETHY    C1 2395  33.017  19.082   6.246
 2480ETHY    C1 2396  33.122  18.826   5.788
 2481ETHY    C1 2397  33.244  18.668   5.302
 2482ETHY    C1 2398  33.383  18.599   4.801
 2483ETHY    C1 2399  33.537  18.626   4.297
 2484ETHY    C1 2400  33.706  18.750   3.799
 2485AUSL   AUS 2401  32.858  19.722   6.829
 2486AUSL   AUS 2402  32.530  19.419   6.829
 2487AUL    AUL 2403  32.694  19.570   6.521
 2488THSLK    S 2404  32.438  19.363   6.597
 2489ETHY    C1 2405  32.303  19.085   6.264
 2490ETHY    C1 2406  32.142  18.832   5.822
 2491ETHY    C1 2407  31.990  18.675   5.343
 2492ETHY    C1 2408  31.854  18.606   4.842
 2493ETHY    C1 2409  31.737  18.632   4.328
 2494ETHY    C1 2410  31.644  18.751   3.810
 2495THSLK    S 2411  32.960  19.676   6.583
 2496ETHY    C1 2412  33.106  19.526   6.179
 2497ETHY    C1 2413  33.268  19.435   5.678
 2498ETHY    C1 2414  33.415  19.445   5.173
 2499ETHY    C1 2415  33.548  19.546   4.677
 2500ETHY    C1 2416  33.665  19.741   4.200
 2501ETHY    C1 2417  33.766  20.027   3.754
 2502AUSL   AUS 2418  32.285  19.570   8.083
 2503AUSL   AUS 2419  32.429  19.987   8.013
 2504AUL    AUL 2420  32.203  19.874   8.297
 2505THSLK    S 2421  32.183  19.518   8.319
 2506ETHY    C1 2422  31.971  19.298   8.654
 2507ETHY    C1 2423  31.705  19.121   9.082
 2508ETHY    C1 2424  31.433  19.045   9.526
 2509ETHY    C1 2425  31.159  19.062   9.973
 2510ETHY    C1 2426  30.888  19.175  10.411
 2511ETHY    C1 2427  30.623  19.384  10.832
 2512THSLK    S 2428  32.312  20.111   8.202
 2513ETHY    C1 2429  32.269  20.254   8.632
 2514ETHY    C1 2430  32.158  20.479   9.104
 2515ETHY    C1 2431  31.982  20.756   9.515
 2516ETHY    C1 2432  31.751  21.072   9.863
 2517ETHY    C1 2433  31.465  21.420  10.138
 2518ETHY    C1 2434  31.128  21.793  10.334
 2519AUSL   AUS 2435  32.530  19.419   8.176
 2520AUSL   AUS 2436  32.184  19.306   7.919
 2521AUL    AUL 2437  32.203  19.267   8.297
 2522THSLK    S 2438  32.007  19.143   8.026
 2523ETHY    C1 2439  31.636  18.886   8.082
 2524ETHY    C1 2440  31.214  18.598   8.237
 2525ETHY    C1 2441  30.824  18.343   8.482
 2526ETHY    C1 2442  30.472  18.126   8.803
 2527ETHY    C1 2443  30.166  17.955   9.198
 2528ETHY    C1 2444  29.909  17.834   9.657
 2529THSLK    S 2445  32.428  19.365   8.406
 2530ETHY    C1 2446  32.282  19.089   8.736
 2531ETHY    C1 2447  32.120  18.837   9.178
 2532ETHY    C1 2448  31.973  18.679   9.658
 2533ETHY    C1 2449  31.840  18.609  10.160
 2534ETHY    C1 2450  31.723  18.635  10.674
 2535ETHY    C1 2451  31.622  18.756  11.190
 2536AUSL   AUS 2452  32.285  19.570   6.923
 2537AUSL   AUS 2453  32.429  19.154   6.992
 2538AUL    AUL 2454  32.203  19.267   6.708
 2539THSLK    S 2455  32.192  19.518   6.681
 2540ETHY    C1 2456  31.988  19.298   6.341
 2541ETHY    C1 2457  31.724  19.121   5.911
 2542ETHY    C1 2458  31.448  19.045   5.470
 2543ETHY    C1 2459  31.171  19.062   5.025
 2544ETHY    C1 2460  30.901  19.175   4.586
 2545ETHY    C1 2461  30.642  19.384   4.161
 2546THSLK    S 2462  32.258  18.981   6.878
 2547ETHY    C1 2463  31.963  18.655   6.760
 2548ETHY    C1 2464  31.645  18.288   6.538
 2549ETHY    C1 2465  31.377  17.953   6.233
 2550ETHY    C1 2466  31.163  17.653   5.861
 2551ETHY    C1 2467  31.011  17.395   5.426
 2552ETHY    C1 2468  30.925  17.183   4.937
 2553AUSL   AUS 2469  32.530  19.722   6.829
 2554AUSL   AUS 2470  32.184  19.835   7.086
 2555AUL    AUL 2471  32.203  19.874   6.708
 2556THSLK    S 2472  32.057  19.962   6.895
 2557ETHY    C1 2473  31.880  20.043   6.484
 2558ETHY    C1 2474  31.609  20.183   6.046
 2559ETHY    C1 2475  31.282  20.371   5.679
 2560ETHY    C1 2476  30.913  20.600   5.385
 2561ETHY    C1 2477  30.511  20.867   5.173
 2562ETHY    C1 2478  30.082  21.169   5.047
 2563THSLK    S 2479  32.455  19.678   6.576
 2564ETHY    C1 2480  32.391  19.531   6.150
 2565ETHY    C1 2481  32.288  19.442   5.634
 2566ETHY    C1 2482  32.161  19.453   5.123
 2567ETHY    C1 2483  32.019  19.554   4.629
 2568ETHY    C1 2484  31.866  19.747   4.162
 2569ETHY    C1 2485  31.705  20.030   3.732
 2570AUSL   AUS 2486  33.274  19.979   7.503
 2571AUSL   AUS 2487  33.204  19.835   7.086
 2572AUL    AUL 2488  33.488  20.061   7.199
 2573THSLK    S 2489  33.382  19.934   6.934
 2574ETHY    C1 2490  33.752  19.907   6.671
 2575ETHY    C1 2491  34.174  19.963   6.349
 2576ETHY    C1 2492  34.564  20.117   6.030
 2577ETHY    C1 2493  34.916  20.354   5.724
 2578ETHY    C1 2494  35.223  20.675   5.438
 2579ETHY    C1 2495  35.479  21.074   5.179
 2580THSLK    S 2496  33.540  20.032   7.508
 2581ETHY    C1 2497  33.994  20.054   7.513
 2582ETHY    C1 2498  34.516  20.168   7.514
 2583ETHY    C1 2499  34.999  20.377   7.511
 2584ETHY    C1 2500  35.435  20.667   7.510
 2585ETHY    C1 2501  35.814  21.034   7.510
 2586ETHY    C1 2502  36.128  21.474   7.514
 2587AUSL   AUS 2503  33.368  19.734   7.351
 2588AUSL   AUS 2504  33.368  19.407   7.654
 2589AUL    AUL 2505  33.676  19.570   7.503
 2590THSLK    S 2506  33.624  19.773   7.350
 2591ETHY    C1 2507  34.060  19.665   7.286
 2592ETHY    C1 2508  34.586  19.627   7.201
 2593ETHY    C1 2509  35.101  19.691   7.113
 2594ETHY    C1 2510  35.595  19.845   7.026
 2595ETHY    C1 2511  36.055  20.090   6.945
 2596ETHY    C1 2512  36.474  20.422   6.873
 2597THSLK    S 2513  33.595  19.267   7.663
 2598ETHY    C1 2514  33.914  18.951   7.728
 2599ETHY    C1 2515  34.347  18.647   7.807
 2600ETHY    C1 2516  34.822  18.437   7.887
 2601ETHY    C1 2517  35.325  18.316   7.971
 2602ETHY    C1 2518  35.845  18.290   8.058
 2603ETHY    C1 2519  36.373  18.360   8.147
 2604AUSL   AUS 2520  33.368  19.734   7.654
 2605AUSL   AUS 2521  33.110  20.081   7.767
 2606AUL    AUL 2522  33.488  20.061   7.806
 2607THSLK    S 2523  33.293  20.195   7.926
 2608ETHY    C1 2524  33.676  20.313   8.140
 2609ETHY    C1 2525  34.094  20.536   8.388
 2610ETHY    C1 2526  34.453  20.841   8.622
 2611ETHY    C1 2527  34.750  21.214   8.840
 2612ETHY    C1 2528  34.975  21.648   9.038
 2613ETHY    C1 2529  35.122  22.136   9.215
 2614THSLK    S 2530  33.622  19.773   7.665
 2615ETHY    C1 2531  34.057  19.665   7.740
 2616ETHY    C1 2532  34.583  19.627   7.826
 2617ETHY    C1 2533  35.098  19.690   7.910
 2618ETHY    C1 2534  35.592  19.844   7.993
 2619ETHY    C1 2535  36.053  20.089   8.075
 2620ETHY    C1 2536  36.470  20.421   8.155
 2621AUSL   AUS 2537  32.114  19.979   7.503
 2622AUSL   AUS 2538  32.184  19.835   7.919
 2623AUL    AUL 2539  31.900  20.061   7.806
 2624THSLK    S 2540  32.051  19.954   8.109
 2625ETHY    C1 2541  31.868  20.026   8.519
 2626ETHY    C1 2542  31.596  20.166   8.957
 2627ETHY    C1 2543  31.271  20.357   9.324
 2628ETHY    C1 2544  30.905  20.588   9.619
 2629ETHY    C1 2545  30.502  20.855   9.831
 2630ETHY    C1 2546  30.068  21.151   9.956
 2631THSLK    S 2547  31.903  20.120   7.508
 2632ETHY    C1 2548  31.681  20.517   7.513
 2633ETHY    C1 2549  31.345  20.932   7.514
 2634ETHY    C1 2550  30.942  21.271   7.511
 2635ETHY    C1 2551  30.488  21.532   7.510
 2636ETHY    C1 2552  29.989  21.706   7.510
 2637ETHY    C1 2553  29.456  21.790   7.514
 2638AUSL   AUS 2554  32.020  19.734   7.351
 2639AUSL   AUS 2555  32.278  20.081   7.238
 2640AUL    AUL 2556  31.900  20.061   7.199
 2641THSLK    S 2557  31.793  19.849   7.303
 2642ETHY    C1 2558  31.474  20.049   7.049
 2643ETHY    C1 2559  31.041  20.255   6.813
 2644ETHY    C1 2560  30.566  20.421   6.661
 2645ETHY    C1 2561  30.063  20.550   6.590
 2646ETHY    C1 2562  29.543  20.640   6.605
 2647ETHY    C1 2563  29.015  20.688   6.708
 2648THSLK    S 2564  32.166  20.244   7.060
 2649ETHY    C1 2565  32.087  20.554   6.737
 2650ETHY    C1 2566  31.912  20.928   6.397
 2651ETHY    C1 2567  31.658  21.296   6.120
 2652ETHY    C1 2568  31.338  21.653   5.909
 2653ETHY    C1 2569  30.957  21.991   5.770
 2654ETHY    C1 2570  30.522  22.305   5.709
 2655AUSL   AUS 2571  32.020  19.734   7.654
 2656AUSL   AUS 2572  32.020  19.407   7.351
 2657AUL    AUL 2573  31.712  19.570   7.503
 2658THSLK    S 2574  31.766  19.334   7.394
 2659ETHY    C1 2575  31.331  19.316   7.524
 2660ETHY    C1 2576  30.805  19.256   7.597
 2661ETHY    C1 2577  30.290  19.152   7.578
 2662ETHY    C1 2578  29.796  19.009   7.477
 2663ETHY    C1 2579  29.336  18.826   7.294
 2664ETHY    C1 2580  28.918  18.606   7.034
 2665THSLK    S 2581  31.792  19.840   7.707
 2666ETHY    C1 2582  31.471  20.031   7.966
 2667ETHY    C1 2583  31.038  20.235   8.202
 2668ETHY    C1 2584  30.563  20.406   8.352
 2669ETHY    C1 2585  30.061  20.538   8.422
 2670ETHY    C1 2586  29.541  20.626   8.407
 2671ETHY    C1 2587  29.012  20.667   8.308
 2672AUSL   AUS 2588  33.274  19.161   7.503
 2673AUSL   AUS 2589  33.204  19.306   7.919
 2674AUL    AUL 2590  33.488  19.080   7.806
 2675THSLK    S 2591  33.485  19.020   7.508
 2676ETHY    C1 2592  33.707  18.624   7.513
 2677ETHY    C1 2593  34.043  18.209   7.514
 2678ETHY    C1 2594  34.446  17.870   7.511
 2679ETHY    C1 2595  34.900  17.609   7.510
 2680ETHY    C1 2596  35.399  17.435   7.510
 2681ETHY    C1 2597  35.932  17.351   7.514
 2682THSLK    S 2598  33.331  19.115   8.064
 2683ETHY    C1 2599  33.508  18.750   8.270
 2684ETHY    C1 2600  33.779  18.378   8.540
 2685ETHY    C1 2601  34.106  18.089   8.834
 2686ETHY    C1 2602  34.475  17.881   9.142
 2687ETHY    C1 2603  34.877  17.763   9.462
 2688ETHY    C1 2604  35.306  17.738   9.789
 2689AUSL   AUS 2605  33.368  19.407   7.351
 2690AUSL   AUS 2606  33.110  19.060   7.238
 2691AUL    AUL 2607  33.488  19.080   7.199
 2692THSLK    S 2608  33.596  19.267   7.353
 2693ETHY    C1 2609  33.917  18.950   7.298
 2694ETHY    C1 2610  34.350  18.647   7.221
 2695ETHY    C1 2611  34.825  18.437   7.136
 2696ETHY    C1 2612  35.327  18.316   7.048
 2697ETHY    C1 2613  35.847  18.289   6.963
 2698ETHY    C1 2614  36.376  18.360   6.881
 2699THSLK    S 2615  33.226  18.871   7.108
 2700ETHY    C1 2616  33.310  18.442   6.984
 2701ETHY    C1 2617  33.485  17.970   6.803
 2702ETHY    C1 2618  33.738  17.559   6.593
 2703ETHY    C1 2619  34.056  17.211   6.366
 2704ETHY    C1 2620  34.438  16.936   6.126
 2705ETHY    C1 2621  34.876  16.739   5.880
 2706AUSL   AUS 2622  32.114  19.161   7.503
 2707AUSL   AUS 2623  32.184  19.306   7.086
 2708AUL    AUL 2624  31.900  19.080   7.199
 2709THSLK    S 2625  32.013  19.135   6.978
 2710ETHY    C1 2626  31.649  18.870   6.921
 2711ETHY    C1 2627  31.227  18.580   6.766
 2712ETHY    C1 2628  30.835  18.328   6.521
 2713ETHY    C1 2629  30.481  18.115   6.200
 2714ETHY    C1 2630  30.174  17.942   5.806
 2715ETHY    C1 2631  29.923  17.815   5.346
 2716THSLK    S 2632  31.848  19.109   7.508
 2717ETHY    C1 2633  31.394  19.087   7.513
 2718ETHY    C1 2634  30.872  18.973   7.514
 2719ETHY    C1 2635  30.390  18.764   7.511
 2720ETHY    C1 2636  29.953  18.474   7.510
 2721ETHY    C1 2637  29.574  18.107   7.510
 2722ETHY    C1 2638  29.261  17.667   7.514
 2723AUSL   AUS 2639  32.020  19.407   7.654
 2724AUSL   AUS 2640  32.278  19.060   7.767
 2725AUL    AUL 2641  31.900  19.080   7.806
 2726THSLK    S 2642  32.090  18.920   7.878
 2727ETHY    C1 2643  31.703  18.683   7.893
 2728ETHY    C1 2644  31.285  18.363   7.982
 2729ETHY    C1 2645  30.927  18.014   8.149
 2730ETHY    C1 2646  30.632  17.650   8.382
 2731ETHY    C1 2647  30.407  17.279   8.683
 2732ETHY    C1 2648  30.256  16.908   9.045
 2733THSLK    S 2649  31.764  19.344   7.616
 2734ETHY    C1 2650  31.328  19.334   7.491
 2735ETHY    C1 2651  30.802  19.275   7.419
 2736ETHY    C1 2652  30.287  19.168   7.436
 2737ETHY    C1 2653  29.793  19.022   7.535
 2738ETHY    C1 2654  29.333  18.840   7.718
 2739ETHY    C1 2655  28.914  18.627   7.983
 2740AUSL   AUS 2656  32.694  20.150   7.912
 2741AUSL   AUS 2657  32.278  20.081   7.767
 2742AUL    AUL 2658  32.391  20.365   7.993
 2743THSLK    S 2659  32.162  20.237   7.952
 2744ETHY    C1 2660  32.078  20.539   8.280
 2745ETHY    C1 2661  31.903  20.912   8.621
 2746ETHY    C1 2662  31.650  21.283   8.895
 2747ETHY    C1 2663  31.332  21.642   9.105
 2748ETHY    C1 2664  30.950  21.980   9.244
 2749ETHY    C1 2665  30.512  22.288   9.309
 2750THSLK    S 2666  32.736  20.372   8.035
 2751ETHY    C1 2667  32.920  20.647   8.347
 2752ETHY    C1 2668  33.070  21.027   8.691
 2753ETHY    C1 2669  33.136  21.450   8.998
 2754ETHY    C1 2670  33.123  21.901   9.264
 2755ETHY    C1 2671  33.026  22.370   9.485
 2756ETHY    C1 2672  32.846  22.849   9.656
 2757AUSL   AUS 2673  32.542  20.244   7.666
 2758AUSL   AUS 2674  32.846  20.244   7.339
 2759AUL    AUL 2675  32.694  20.552   7.503
 2760THSLK    S 2676  32.585  20.488   7.776
 2761ETHY    C1 2677  32.729  20.882   7.951
 2762ETHY    C1 2678  32.816  21.376   8.137
 2763ETHY    C1 2679  32.804  21.877   8.294
 2764ETHY    C1 2680  32.703  22.375   8.425
 2765ETHY    C1 2681  32.511  22.856   8.527
 2766ETHY    C1 2682  32.231  23.311   8.600
 2767THSLK    S 2683  32.901  20.475   7.243
 2768ETHY    C1 2684  33.177  20.805   7.096
 2769ETHY    C1 2685  33.427  21.246   6.927
 2770ETHY    C1 2686  33.583  21.723   6.771
 2771ETHY    C1 2687  33.652  22.225   6.635
 2772ETHY    C1 2688  33.628  22.741   6.525
 2773ETHY    C1 2689  33.511  23.261   6.443
 2774AUSL   AUS 2690  32.846  20.244   7.666
 2775AUSL   AUS 2691  32.959  19.987   8.013
 2776AUL    AUL 2692  32.997  20.365   7.993
 2777THSLK    S 2693  33.130  20.095   8.183
 2778ETHY    C1 2694  33.425  20.160   8.523
 2779ETHY    C1 2695  33.743  20.322   8.920
 2780ETHY    C1 2696  34.011  20.571   9.298
 2781ETHY    C1 2697  34.225  20.893   9.653
 2782ETHY    C1 2698  34.377  21.281   9.976
 2783ETHY    C1 2699  34.463  21.731  10.262
 2784THSLK    S 2700  32.899  20.473   7.772
 2785ETHY    C1 2701  33.171  20.801   7.929
 2786ETHY    C1 2702  33.421  21.241   8.100
 2787ETHY    C1 2703  33.579  21.720   8.251
 2788ETHY    C1 2704  33.648  22.222   8.383
 2789ETHY    C1 2705  33.624  22.737   8.494
 2790ETHY    C1 2706  33.505  23.256   8.585
 2791AUSL   AUS 2707  32.694  18.990   7.912
 2792AUSL   AUS 2708  33.110  19.060   7.767
 2793AUL    AUL 2709  32.997  18.776   7.993
 2794THSLK    S 2710  32.647  18.740   7.989
 2795ETHY    C1 2711  32.457  18.344   8.103
 2796ETHY    C1 2712  32.306  17.866   8.289
 2797ETHY    C1 2713  32.243  17.401   8.528
 2798ETHY    C1 2714  32.258  16.959   8.809
 2799ETHY    C1 2715  32.354  16.552   9.132
 2800ETHY    C1 2716  32.529  16.189   9.489
 2801THSLK    S 2717  33.222  18.873   7.907
 2802ETHY    C1 2718  33.301  18.445   8.040
 2803ETHY    C1 2719  33.476  17.975   8.222
 2804ETHY    C1 2720  33.730  17.563   8.428
 2805ETHY    C1 2721  34.050  17.214   8.652
 2806ETHY    C1 2722  34.431  16.939   8.893
 2807ETHY    C1 2723  34.866  16.743   9.147
 2808AUSL   AUS 2724  32.542  18.897   7.666
 2809AUSL   AUS 2725  32.429  19.154   8.013
 2810AUL    AUL 2726  32.391  18.776   7.993
 2811THSLK    S 2727  32.487  18.661   7.745
 2812ETHY    C1 2728  32.212  18.302   7.788
 2813ETHY    C1 2729  31.961  17.837   7.869
 2814ETHY    C1 2730  31.805  17.347   7.981
 2815ETHY    C1 2731  31.736  16.848   8.122
 2816ETHY    C1 2732  31.760  16.348   8.292
 2817ETHY    C1 2733  31.877  15.860   8.489
 2818THSLK    S 2734  32.251  18.988   8.129
 2819ETHY    C1 2735  31.949  18.670   8.248
 2820ETHY    C1 2736  31.630  18.303   8.471
 2821ETHY    C1 2737  31.365  17.966   8.776
 2822ETHY    C1 2738  31.153  17.664   9.147
 2823ETHY    C1 2739  31.000  17.406   9.582
 2824ETHY    C1 2740  30.909  17.199  10.072
 2825AUSL   AUS 2741  32.846  18.897   7.666
 2826AUSL   AUS 2742  32.542  18.897   7.339
 2827AUL    AUL 2743  32.694  18.589   7.503
 2828THSLK    S 2744  32.489  18.658   7.270
 2829ETHY    C1 2745  32.217  18.296   7.236
 2830ETHY    C1 2746  31.967  17.831   7.157
 2831ETHY    C1 2747  31.810  17.342   7.041
 2832ETHY    C1 2748  31.740  16.843   6.896
 2833ETHY    C1 2749  31.764  16.344   6.727
 2834ETHY    C1 2750  31.883  15.853   6.538
 2835THSLK    S 2751  32.800  18.645   7.749
 2836ETHY    C1 2752  32.653  18.219   7.811
 2837ETHY    C1 2753  32.567  17.701   7.906
 2838ETHY    C1 2754  32.579  17.188   8.025
 2839ETHY    C1 2755  32.681  16.693   8.165
 2840ETHY    C1 2756  32.873  16.228   8.325
 2841ETHY    C1 2757  33.151  15.802   8.504
 2842AUSL   AUS 2758  32.694  20.150   7.094
 2843AUSL   AUS 2759  33.110  20.081   7.238
 2844AUL    AUL 2760  32.997  20.365   7.012
 2845THSLK    S 2761  32.741  20.377   6.977
 2846ETHY    C1 2762  32.931  20.656   6.674
 2847ETHY    C1 2763  33.082  21.037   6.330
 2848ETHY    C1 2764  33.146  21.457   6.021
 2849ETHY    C1 2765  33.130  21.907   5.752
 2850ETHY    C1 2766  33.034  22.377   5.532
 2851ETHY    C1 2767  32.859  22.860   5.366
 2852THSLK    S 2768  33.298  20.197   7.089
 2853ETHY    C1 2769  33.685  20.317   6.883
 2854ETHY    C1 2770  34.103  20.540   6.637
 2855ETHY    C1 2771  34.461  20.844   6.400
 2856ETHY    C1 2772  34.756  21.216   6.178
 2857ETHY    C1 2773  34.981  21.651   5.981
 2858ETHY    C1 2774  35.132  22.140   5.811
 2859AUSL   AUS 2775  32.542  20.244   7.339
 2860AUSL   AUS 2776  32.429  19.987   6.992
 2861AUL    AUL 2777  32.391  20.365   7.012
 2862THSLK    S 2778  32.588  20.491   7.239
 2863ETHY    C1 2779  32.735  20.888   7.074
 2864ETHY    C1 2780  32.821  21.382   6.889
 2865ETHY    C1 2781  32.809  21.883   6.727
 2866ETHY    C1 2782  32.707  22.379   6.593
 2867ETHY    C1 2783  32.515  22.860   6.492
 2868ETHY    C1 2784  32.237  23.318   6.427
 2869THSLK    S 2785  32.319  20.119   6.805
 2870ETHY    C1 2786  32.283  20.268   6.377
 2871ETHY    C1 2787  32.173  20.494   5.906
 2872ETHY    C1 2788  31.995  20.769   5.494
 2873ETHY    C1 2789  31.761  21.082   5.145
 2874ETHY    C1 2790  31.475  21.431   4.870
 2875ETHY    C1 2791  31.144  21.809   4.675
 2876AUSL   AUS 2792  32.694  18.990   7.094
 2877AUSL   AUS 2793  32.278  19.060   7.238
 2878AUL    AUL 2794  32.391  18.776   7.012
 2879THSLK    S 2795  32.095  18.912   7.134
 2880ETHY    C1 2796  31.712  18.668   7.124
 2881ETHY    C1 2797  31.294  18.347   7.035
 2882ETHY    C1 2798  30.935  18.001   6.866
 2883ETHY    C1 2799  30.638  17.640   6.631
 2884ETHY    C1 2800  30.413  17.268   6.331
 2885ETHY    C1 2801  30.266  16.891   5.974
 2886THSLK    S 2802  32.652  18.735   7.024
 2887ETHY    C1 2803  32.468  18.334   6.917
 2888ETHY    C1 2804  32.318  17.856   6.732
 2889ETHY    C1 2805  32.252  17.393   6.491
 2890ETHY    C1 2806  32.265  16.953   6.206
 2891ETHY    C1 2807  32.362  16.546   5.885
 2892ETHY    C1 2808  32.542  16.178   5.533
 2893AUSL   AUS 2809  32.846  18.897   7.339
 2894AUSL   AUS 2810  32.959  19.154   6.992
 2895AUL    AUL 2811  32.997  18.776   7.012
 2896THSLK    S 2812  32.803  18.643   7.266
 2897ETHY    C1 2813  32.659  18.215   7.213
 2898ETHY    C1 2814  32.572  17.696   7.120
 2899ETHY    C1 2815  32.584  17.184   6.997
 2900ETHY    C1 2816  32.685  16.690   6.854
 2901ETHY    C1 2817  32.877  16.225   6.695
 2902ETHY    C1 2818  33.157  15.797   6.523
 2903THSLK    S 2819  33.076  18.964   6.859
 2904ETHY    C1 2820  33.120  18.562   6.651
 2905ETHY    C1 2821  33.230  18.131   6.355
 2906ETHY    C1 2822  33.406  17.768   6.017
 2907ETHY    C1 2823  33.637  17.474   5.651
 2908ETHY    C1 2824  33.923  17.257   5.264
 2909ETHY    C1 2825  34.260  17.121   4.865
 2910AUC    AUC 2826   0.535  29.847   7.503
 2911AUC    AUC 2827   0.780  29.847   7.351
 2912AUC    AUC 2828   0.780  29.847   7.654
 2913AUC    AUC 2829   0.290  29.847   7.351
 2914AUC    AUC 2830   0.290  29.847   7.654
 2915AUC    AUC 2831   0.383  30.093   7.503
 2916AUC    AUC 2832   0.687  30.093   7.503
 2917AUC    AUC 2833   0.383  29.602   7.503
 2918AUC    AUC 2834   0.687  29.602   7.503
 2919AUC    AUC 2835   0.535  29.696   7.748
 2920AUC    AUC 2836   0.535  29.999   7.748
 2921AUC    AUC 2837   0.535  29.696   7.257
 2922AUC    AUC 2838   0.535  29.999   7.257
 2923AUC    AUC 2839   1.026  29.847   7.199
 2924AUC    AUC 2840   1.026  29.847   7.503
 2925AUC    AUC 2841   1.026  29.847   7.806
 2926AUC    AUC 2842   0.044  29.847   7.199
 2927AUC    AUC 2843   0.044  29.847   7.503
 2928AUC    AUC 2844   0.044  29.847   7.806
 2929AUC    AUC 2845   0.232  30.338   7.503
 2930AUC    AUC 2846   0.535  30.338   7.503
 2931AUC    AUC 2847   0.838  30.338   7.503
 2932AUC    AUC 2848   0.232  29.357   7.503
 2933AUC    AUC 2849   0.535  29.357   7.503
 2934AUC    AUC 2850   0.838  29.357   7.503
 2935AUC    AUC 2851   0.535  29.544   7.993
 2936AUC    AUC 2852   0.535  29.847   7.993
 2937AUC    AUC 2853   0.535  30.151   7.993
 2938AUC    AUC 2854   0.535  29.544   7.012
 2939AUC    AUC 2855   0.535  29.847   7.012
 2940AUC    AUC 2856   0.535  30.151   7.012
 2941AUC    AUC 2857   0.780  29.696   7.900
 2942AUC    AUC 2858   0.780  29.999   7.900
 2943AUC    AUC 2859   0.780  29.696   7.106
 2944AUC    AUC 2860   0.780  29.999   7.106
 2945AUC    AUC 2861   0.290  29.696   7.900
 2946AUC    AUC 2862   0.290  29.999   7.900
 2947AUC    AUC 2863   0.290  29.696   7.106
 2948AUC    AUC 2864   0.290  29.999   7.106
 2949AUC    AUC 2865   0.932  30.093   7.351
 2950AUC    AUC 2866   0.932  30.093   7.654
 2951AUC    AUC 2867   0.138  30.093   7.351
 2952AUC    AUC 2868   0.138  30.093   7.654
 2953AUC    AUC 2869   0.932  29.602   7.351
 2954AUC    AUC 2870   0.932  29.602   7.654
 2955AUC    AUC 2871   0.138  29.602   7.351
 2956AUC    AUC 2872   0.138  29.602   7.654
 2957AUC    AUC 2873   0.383  30.245   7.748
 2958AUC    AUC 2874   0.687  30.245   7.748
 2959AUC    AUC 2875   0.383  29.450   7.748
 2960AUC    AUC 2876   0.687  29.450   7.748
 2961AUC    AUC 2877   0.383  30.245   7.257
 2962AUC    AUC 2878   0.687  30.245   7.257
 2963AUC    AUC 2879   0.383  29.450   7.257
 2964AUC    AUC 2880   0.687  29.450   7.257
 2965AUSL   AUS 2881   0.944  29.847   8.083
 2966AUSL   AUS 2882   0.800  29.431   8.013
 2967AUL    AUL 2883   1.026  29.544   8.297
 2968THSLK    S 2884   0.910  29.244   8.153
 2969ETHY    C1 2885   0.946  28.845   8.368
 2970ETHY    C1 2886   1.056  28.415   8.665
 2971ETHY    C1 2887   1.234  28.051   9.000
 2972ETHY    C1 2888   1.468  27.755   9.364
 2973ETHY    C1 2889   1.754  27.538   9.752
 2974ETHY    C1 2890   2.085  27.405  10.156
 2975THSLK    S 2891   1.037  29.795   8.324
 2976ETHY    C1 2892   1.241  29.575   8.665
 2977ETHY    C1 2893   1.505  29.398   9.094
 2978ETHY    C1 2894   1.781  29.322   9.535
 2979ETHY    C1 2895   2.058  29.339   9.980
 2980ETHY    C1 2896   2.328  29.452  10.419
 2981ETHY    C1 2897   2.587  29.661  10.845
 2982AUSL   AUS 2898   0.699  29.696   8.176
 2983AUSL   AUS 2899   0.371  29.999   8.176
 2984AUL    AUL 2900   0.535  29.847   8.484
 2985THSLK    S 2901   0.774  29.641   8.413
 2986ETHY    C1 2902   0.838  29.361   8.765
 2987ETHY    C1 2903   0.941  29.106   9.223
 2988ETHY    C1 2904   1.068  28.947   9.708
 2989ETHY    C1 2905   1.210  28.878  10.208
 2990ETHY    C1 2906   1.364  28.906  10.713
 2991ETHY    C1 2907   1.524  29.030  11.212
 2992THSLK    S 2908   0.286  29.953   8.428
 2993ETHY    C1 2909   0.212  29.803   8.850
 2994ETHY    C1 2910   0.107  29.715   9.367
 2995ETHY    C1 2911  -0.015  29.727   9.878
 2996ETHY    C1 2912  -0.153  29.828  10.373
 2997ETHY    C1 2913  -0.308  30.021  10.840
 2998ETHY    C1 2914  -0.477  30.302  11.268
 2999AUSL   AUS 2915   0.699  29.999   8.176
 3000AUSL   AUS 2916   1.045  30.112   7.919
 3001AUL    AUL 2917   1.026  30.151   8.297
 3002THSLK    S 2918   0.784  30.055   8.410
 3003ETHY    C1 2919   0.858  30.336   8.759
 3004ETHY    C1 2920   0.963  30.591   9.217
 3005ETHY    C1 2921   1.085  30.750   9.703
 3006ETHY    C1 2922   1.224  30.819  10.204
 3007ETHY    C1 2923   1.378  30.792  10.708
 3008ETHY    C1 2924   1.547  30.668  11.206
 3009THSLK    S 2925   1.217  30.210   8.080
 3010ETHY    C1 2926   1.580  30.181   8.350
 3011ETHY    C1 2927   2.002  30.237   8.673
 3012ETHY    C1 2928   2.394  30.391   8.989
 3013ETHY    C1 2929   2.748  30.629   9.293
 3014ETHY    C1 2930   3.055  30.950   9.580
 3015ETHY    C1 2931   3.306  31.347   9.844
 3016AUSL   AUS 2932   0.944  29.847   6.923
 3017AUSL   AUS 2933   0.800  30.264   6.992
 3018AUL    AUL 2934   1.026  30.151   6.708
 3019THSLK    S 2935   1.046  29.795   6.687
 3020ETHY    C1 2936   1.259  29.575   6.351
 3021ETHY    C1 2937   1.524  29.398   5.923
 3022ETHY    C1 2938   1.796  29.322   5.479
 3023ETHY    C1 2939   2.070  29.339   5.033
 3024ETHY    C1 2940   2.341  29.452   4.594
 3025ETHY    C1 2941   2.606  29.661   4.173
 3026THSLK    S 2942   0.978  30.375   6.829
 3027ETHY    C1 2943   1.280  30.443   6.497
 3028ETHY    C1 2944   1.599  30.606   6.100
 3029ETHY    C1 2945   1.864  30.853   5.719
 3030ETHY    C1 2946   2.076  31.173   5.362
 3031ETHY    C1 2947   2.229  31.563   5.039
 3032ETHY    C1 2948   2.320  32.015   4.759
 3033AUSL   AUS 2949   0.699  29.696   6.829
 3034AUSL   AUS 2950   1.045  29.583   7.086
 3035AUL    AUL 2951   1.026  29.544   6.708
 3036THSLK    S 2952   1.178  29.391   6.949
 3037ETHY    C1 2953   1.361  29.024   6.752
 3038ETHY    C1 2954   1.633  28.652   6.483
 3039ETHY    C1 2955   1.958  28.363   6.186
 3040ETHY    C1 2956   2.324  28.156   5.874
 3041ETHY    C1 2957   2.728  28.037   5.555
 3042ETHY    C1 2958   3.161  28.012   5.235
 3043THSLK    S 2959   0.784  29.640   6.596
 3044ETHY    C1 2960   0.858  29.359   6.246
 3045ETHY    C1 2961   0.963  29.103   5.788
 3046ETHY    C1 2962   1.085  28.945   5.302
 3047ETHY    C1 2963   1.224  28.876   4.801
 3048ETHY    C1 2964   1.378  28.903   4.297
 3049ETHY    C1 2965   1.547  29.027   3.799
 3050AUSL   AUS 2966   0.699  29.999   6.829
 3051AUSL   AUS 2967   0.371  29.696   6.829
 3052AUL    AUL 2968   0.535  29.847   6.521
 3053THSLK    S 2969   0.279  29.640   6.597
 3054ETHY    C1 2970   0.144  29.362   6.264
 3055ETHY    C1 2971  -0.017  29.109   5.822
 3056ETHY    C1 2972  -0.169  28.952   5.343
 3057ETHY    C1 2973  -0.305  28.883   4.842
 3058ETHY    C1 2974  -0.422  28.909   4.328
 3059ETHY    C1 2975  -0.515  29.028   3.810
 3060THSLK    S 2976   0.801  29.953   6.583
 3061ETHY    C1 2977   0.947  29.803   6.179
 3062ETHY    C1 2978   1.109  29.712   5.678
 3063ETHY    C1 2979   1.256  29.722   5.173
 3064ETHY    C1 2980   1.389  29.823   4.677
 3065ETHY    C1 2981   1.506  30.018   4.200
 3066ETHY    C1 2982   1.607  30.304   3.754
 3067AUSL   AUS 2983   0.126  29.847   8.083
 3068AUSL   AUS 2984   0.270  30.264   8.013
 3069AUL    AUL 2985   0.044  30.151   8.297
 3070THSLK    S 2986   0.024  29.795   8.319
 3071ETHY    C1 2987  -0.188  29.575   8.654
 3072ETHY    C1 2988  -0.454  29.398   9.082
 3073ETHY    C1 2989  -0.726  29.322   9.526
 3074ETHY    C1 2990  -1.000  29.339   9.973
 3075ETHY    C1 2991  -1.271  29.452  10.411
 3076ETHY    C1 2992  -1.536  29.661  10.832
 3077THSLK    S 2993   0.153  30.388   8.202
 3078ETHY    C1 2994   0.110  30.531   8.632
 3079ETHY    C1 2995  -0.001  30.756   9.104
 3080ETHY    C1 2996  -0.177  31.033   9.515
 3081ETHY    C1 2997  -0.408  31.349   9.863
 3082ETHY    C1 2998  -0.694  31.697  10.138
 3083ETHY    C1 2999  -1.031  32.070  10.334
 3084AUSL   AUS 3000   0.371  29.696   8.176
 3085AUSL   AUS 3001   0.025  29.583   7.919
 3086AUL    AUL 3002   0.044  29.544   8.297
 3087THSLK    S 3003  -0.152  29.420   8.026
 3088ETHY    C1 3004  -0.523  29.163   8.082
 3089ETHY    C1 3005  -0.945  28.875   8.237
 3090ETHY    C1 3006  -1.335  28.620   8.482
 3091ETHY    C1 3007  -1.687  28.403   8.803
 3092ETHY    C1 3008  -1.993  28.232   9.198
 3093ETHY    C1 3009  -2.250  28.111   9.657
 3094THSLK    S 3010   0.269  29.642   8.406
 3095ETHY    C1 3011   0.123  29.366   8.736
 3096ETHY    C1 3012  -0.039  29.114   9.178
 3097ETHY    C1 3013  -0.186  28.956   9.658
 3098ETHY    C1 3014  -0.319  28.886  10.160
 3099ETHY    C1 3015  -0.436  28.912  10.674
 3100ETHY    C1 3016  -0.537  29.033  11.190
 3101AUSL   AUS 3017   0.126  29.847   6.923
 3102AUSL   AUS 3018   0.270  29.431   6.992
 3103AUL    AUL 3019   0.044  29.544   6.708
 3104THSLK    S 3020   0.033  29.795   6.681
 3105ETHY    C1 3021  -0.171  29.575   6.341
 3106ETHY    C1 3022  -0.435  29.398   5.911
 3107ETHY    C1 3023  -0.711  29.322   5.470
 3108ETHY    C1 3024  -0.988  29.339   5.025
 3109ETHY    C1 3025  -1.258  29.452   4.586
 3110ETHY    C1 3026  -1.517  29.661   4.161
 3111THSLK    S 3027   0.099  29.258   6.878
 3112ETHY    C1 3028  -0.196  28.932   6.760
 3113ETHY    C1 3029  -0.514  28.565   6.538
 3114ETHY    C1 3030  -0.782  28.230   6.233
 3115ETHY    C1 3031  -0.996  27.930   5.861
 3116ETHY    C1 3032  -1.148  27.672   5.426
 3117ETHY    C1 3033  -1.234  27.460   4.937
 3118AUSL   AUS 3034   0.371  29.999   6.829
 3119AUSL   AUS 3035   0.025  30.112   7.086
 3120AUL    AUL 3036   0.044  30.151   6.708
 3121THSLK    S 3037  -0.102  30.239   6.895
 3122ETHY    C1 3038  -0.279  30.320   6.484
 3123ETHY    C1 3039  -0.550  30.460   6.046
 3124ETHY    C1 3040  -0.877  30.648   5.679
 3125ETHY    C1 3041  -1.246  30.877   5.385
 3126ETHY    C1 3042  -1.648  31.144   5.173
 3127ETHY    C1 3043  -2.077  31.446   5.047
 3128THSLK    S 3044   0.296  29.955   6.576
 3129ETHY    C1 3045   0.232  29.808   6.150
 3130ETHY    C1 3046   0.129  29.719   5.634
 3131ETHY    C1 3047   0.002  29.730   5.123
 3132ETHY    C1 3048  -0.140  29.831   4.629
 3133ETHY    C1 3049  -0.293  30.024   4.162
 3134ETHY    C1 3050  -0.454  30.307   3.732
 3135AUSL   AUS 3051   1.115  30.256   7.503
 3136AUSL   AUS 3052   1.045  30.112   7.086
 3137AUL    AUL 3053   1.329  30.338   7.199
 3138THSLK    S 3054   1.223  30.211   6.934
 3139ETHY    C1 3055   1.593  30.184   6.671
 3140ETHY    C1 3056   2.015  30.240   6.349
 3141ETHY    C1 3057   2.405  30.394   6.030
 3142ETHY    C1 3058   2.757  30.631   5.724
 3143ETHY    C1 3059   3.064  30.952   5.438
 3144ETHY    C1 3060   3.320  31.351   5.179
 3145THSLK    S 3061   1.381  30.309   7.508
 3146ETHY    C1 3062   1.835  30.331   7.513
 3147ETHY    C1 3063   2.357  30.445   7.514
 3148ETHY    C1 3064   2.840  30.654   7.511
 3149ETHY    C1 3065   3.276  30.944   7.510
 3150ETHY    C1 3066   3.655  31.311   7.510
 3151ETHY    C1 3067   3.969  31.751   7.514
 3152AUSL   AUS 3068   1.209  30.011   7.351
 3153AUSL   AUS 3069   1.209  29.684   7.654
 3154AUL    AUL 3070   1.517  29.847   7.503
 3155THSLK    S 3071   1.465  30.050   7.350
 3156ETHY    C1 3072   1.901  29.942   7.286
 3157ETHY    C1 3073   2.427  29.904   7.201
 3158ETHY    C1 3074   2.942  29.968   7.113
 3159ETHY    C1 3075   3.436  30.122   7.026
 3160ETHY    C1 3076   3.896  30.367   6.945
 3161ETHY    C1 3077   4.315  30.699   6.873
 3162THSLK    S 3078   1.436  29.544   7.663
 3163ETHY    C1 3079   1.755  29.228   7.728
 3164ETHY    C1 3080   2.188  28.924   7.807
 3165ETHY    C1 3081   2.663  28.714   7.887
 3166ETHY    C1 3082   3.166  28.593   7.971
 3167ETHY    C1 3083   3.686  28.567   8.058
 3168ETHY    C1 3084   4.214  28.637   8.147
 3169AUSL   AUS 3085   1.209  30.011   7.654
 3170AUSL   AUS 3086   0.951  30.358   7.767
 3171AUL    AUL 3087   1.329  30.338   7.806
 3172THSLK    S 3088   1.134  30.472   7.926
 3173ETHY    C1 3089   1.517  30.590   8.140
 3174ETHY    C1 3090   1.935  30.813   8.388
 3175ETHY    C1 3091   2.294  31.118   8.622
 3176ETHY    C1 3092   2.591  31.491   8.840
 3177ETHY    C1 3093   2.816  31.925   9.038
 3178ETHY    C1 3094   2.963  32.413   9.215
 3179THSLK    S 3095   1.463  30.050   7.665
 3180ETHY    C1 3096   1.898  29.942   7.740
 3181ETHY    C1 3097   2.424  29.904   7.826
 3182ETHY    C1 3098   2.939  29.967   7.910
 3183ETHY    C1 3099   3.433  30.121   7.993
 3184ETHY    C1 3100   3.894  30.366   8.075
 3185ETHY    C1 3101   4.311  30.698   8.155
 3186AUSL   AUS 3102  -0.045  30.256   7.503
 3187AUSL   AUS 3103   0.025  30.112   7.919
 3188AUL    AUL 3104  -0.259  30.338   7.806
 3189THSLK    S 3105  -0.108  30.231   8.109
 3190ETHY    C1 3106  -0.291  30.303   8.519
 3191ETHY    C1 3107  -0.563  30.443   8.957
 3192ETHY    C1 3108  -0.888  30.634   9.324
 3193ETHY    C1 3109  -1.254  30.865   9.619
 3194ETHY    C1 3110  -1.657  31.132   9.831
 3195ETHY    C1 3111  -2.091  31.428   9.956
 3196THSLK    S 3112  -0.256  30.397   7.508
 3197ETHY    C1 3113  -0.478  30.794   7.513
 3198ETHY    C1 3114  -0.814  31.209   7.514
 3199ETHY    C1 3115  -1.217  31.548   7.511
 3200ETHY    C1 3116  -1.671  31.809   7.510
 3201ETHY    C1 3117  -2.170  31.983   7.510
 3202ETHY    C1 3118  -2.703  32.067   7.514
 3203AUSL   AUS 3119  -0.139  30.011   7.351
 3204AUSL   AUS 3120   0.119  30.358   7.238
 3205AUL    AUL 3121  -0.259  30.338   7.199
 3206THSLK    S 3122  -0.366  30.126   7.303
 3207ETHY    C1 3123  -0.685  30.326   7.049
 3208ETHY    C1 3124  -1.118  30.532   6.813
 3209ETHY    C1 3125  -1.593  30.698   6.661
 3210ETHY    C1 3126  -2.096  30.827   6.590
 3211ETHY    C1 3127  -2.616  30.917   6.605
 3212ETHY    C1 3128  -3.144  30.965   6.708
 3213THSLK    S 3129   0.007  30.521   7.060
 3214ETHY    C1 3130  -0.072  30.831   6.737
 3215ETHY    C1 3131  -0.247  31.205   6.397
 3216ETHY    C1 3132  -0.501  31.573   6.120
 3217ETHY    C1 3133  -0.821  31.930   5.909
 3218ETHY    C1 3134  -1.202  32.268   5.770
 3219ETHY    C1 3135  -1.637  32.582   5.709
 3220AUSL   AUS 3136  -0.139  30.011   7.654
 3221AUSL   AUS 3137  -0.139  29.684   7.351
 3222AUL    AUL 3138  -0.447  29.847   7.503
 3223THSLK    S 3139  -0.393  29.611   7.394
 3224ETHY    C1 3140  -0.828  29.593   7.524
 3225ETHY    C1 3141  -1.354  29.533   7.597
 3226ETHY    C1 3142  -1.869  29.429   7.578
 3227ETHY    C1 3143  -2.363  29.286   7.477
 3228ETHY    C1 3144  -2.823  29.103   7.294
 3229ETHY    C1 3145  -3.241  28.883   7.034
 3230THSLK    S 3146  -0.367  30.117   7.707
 3231ETHY    C1 3147  -0.688  30.308   7.966
 3232ETHY    C1 3148  -1.121  30.512   8.202
 3233ETHY    C1 3149  -1.596  30.683   8.352
 3234ETHY    C1 3150  -2.098  30.815   8.422
 3235ETHY    C1 3151  -2.618  30.903   8.407
 3236ETHY    C1 3152  -3.147  30.944   8.308
 3237AUSL   AUS 3153   1.115  29.438   7.503
 3238AUSL   AUS 3154   1.045  29.583   7.919
 3239AUL    AUL 3155   1.329  29.357   7.806
 3240THSLK    S 3156   1.326  29.297   7.508
 3241ETHY    C1 3157   1.548  28.901   7.513
 3242ETHY    C1 3158   1.884  28.486   7.514
 3243ETHY    C1 3159   2.287  28.147   7.511
 3244ETHY    C1 3160   2.741  27.886   7.510
 3245ETHY    C1 3161   3.240  27.712   7.510
 3246ETHY    C1 3162   3.773  27.628   7.514
 3247THSLK    S 3163   1.172  29.392   8.064
 3248ETHY    C1 3164   1.349  29.027   8.270
 3249ETHY    C1 3165   1.620  28.655   8.540
 3250ETHY    C1 3166   1.947  28.366   8.834
 3251ETHY    C1 3167   2.316  28.158   9.142
 3252ETHY    C1 3168   2.718  28.040   9.462
 3253ETHY    C1 3169   3.147  28.015   9.789
 3254AUSL   AUS 3170   1.209  29.684   7.351
 3255AUSL   AUS 3171   0.951  29.337   7.238
 3256AUL    AUL 3172   1.329  29.357   7.199
 3257THSLK    S 3173   1.437  29.544   7.353
 3258ETHY    C1 3174   1.758  29.227   7.298
 3259ETHY    C1 3175   2.191  28.924   7.221
 3260ETHY    C1 3176   2.666  28.714   7.136
 3261ETHY    C1 3177   3.168  28.593   7.048
 3262ETHY    C1 3178   3.688  28.566   6.963
 3263ETHY    C1 3179   4.217  28.637   6.881
 3264THSLK    S 3180   1.067  29.148   7.108
 3265ETHY    C1 3181   1.151  28.719   6.984
 3266ETHY    C1 3182   1.326  28.247   6.803
 3267ETHY    C1 3183   1.579  27.836   6.593
 3268ETHY    C1 3184   1.897  27.488   6.366
 3269ETHY    C1 3185   2.279  27.213   6.126
 3270ETHY    C1 3186   2.717  27.016   5.880
 3271AUSL   AUS 3187  -0.045  29.438   7.503
 3272AUSL   AUS 3188   0.025  29.583   7.086
 3273AUL    AUL 3189  -0.259  29.357   7.199
 3274THSLK    S 3190  -0.146  29.412   6.978
 3275ETHY    C1 3191  -0.510  29.147   6.921
 3276ETHY    C1 3192  -0.932  28.857   6.766
 3277ETHY    C1 3193  -1.324  28.605   6.521
 3278ETHY    C1 3194  -1.678  28.392   6.200
 3279ETHY    C1 3195  -1.985  28.219   5.806
 3280ETHY    C1 3196  -2.236  28.092   5.346
 3281THSLK    S 3197  -0.311  29.386   7.508
 3282ETHY    C1 3198  -0.765  29.364   7.513
 3283ETHY    C1 3199  -1.287  29.250   7.514
 3284ETHY    C1 3200  -1.769  29.041   7.511
 3285ETHY    C1 3201  -2.206  28.751   7.510
 3286ETHY    C1 3202  -2.585  28.384   7.510
 3287ETHY    C1 3203  -2.898  27.944   7.514
 3288AUSL   AUS 3204  -0.139  29.684   7.654
 3289AUSL   AUS 3205   0.119  29.337   7.767
 3290AUL    AUL 3206  -0.259  29.357   7.806
 3291THSLK    S 3207  -0.069  29.197   7.878
 3292ETHY    C1 3208  -0.456  28.960   7.893
 3293ETHY    C1 3209  -0.874  28.640   7.982
 3294ETHY    C1 3210  -1.232  28.291   8.149
 3295ETHY    C1 3211  -1.527  27.927   8.382
 3296ETHY    C1 3212  -1.752  27.556   8.683
 3297ETHY    C1 3213  -1.903  27.185   9.045
 3298THSLK    S 3214  -0.395  29.621   7.616
 3299ETHY    C1 3215  -0.831  29.611   7.491
 3300ETHY    C1 3216  -1.357  29.552   7.419
 3301ETHY    C1 3217  -1.872  29.445   7.436
 3302ETHY    C1 3218  -2.366  29.299   7.535
 3303ETHY    C1 3219  -2.826  29.117   7.718
 3304ETHY    C1 3220  -3.245  28.904   7.983
 3305AUSL   AUS 3221   0.535  30.427   7.912
 3306AUSL   AUS 3222   0.119  30.358   7.767
 3307AUL    AUL 3223   0.232  30.642   7.993
 3308THSLK    S 3224   0.003  30.514   7.952
 3309ETHY    C1 3225  -0.081  30.816   8.280
 3310ETHY    C1 3226  -0.256  31.189   8.621
 3311ETHY    C1 3227  -0.509  31.560   8.895
 3312ETHY    C1 3228  -0.827  31.919   9.105
 3313ETHY    C1 3229  -1.209  32.257   9.244
 3314ETHY    C1 3230  -1.647  32.565   9.309
 3315THSLK    S 3231   0.577  30.649   8.035
 3316ETHY    C1 3232   0.761  30.924   8.347
 3317ETHY    C1 3233   0.911  31.304   8.691
 3318ETHY    C1 3234   0.977  31.727   8.998
 3319ETHY    C1 3235   0.964  32.178   9.264
 3320ETHY    C1 3236   0.867  32.647   9.485
 3321ETHY    C1 3237   0.687  33.126   9.656
 3322AUSL   AUS 3238   0.383  30.521   7.666
 3323AUSL   AUS 3239   0.687  30.521   7.339
 3324AUL    AUL 3240   0.535  30.829   7.503
 3325THSLK    S 3241   0.426  30.765   7.776
 3326ETHY    C1 3242   0.570  31.159   7.951
 3327ETHY    C1 3243   0.657  31.653   8.137
 3328ETHY    C1 3244   0.645  32.154   8.294
 3329ETHY    C1 3245   0.544  32.652   8.425
 3330ETHY    C1 3246   0.352  33.133   8.527
 3331ETHY    C1 3247   0.072  33.588   8.600
 3332THSLK    S 3248   0.742  30.752   7.243
 3333ETHY    C1 3249   1.018  31.082   7.096
 3334ETHY    C1 3250   1.268  31.523   6.927
 3335ETHY    C1 3251   1.424  32.000   6.771
 3336ETHY    C1 3252   1.493  32.502   6.635
 3337ETHY    C1 3253   1.469  33.018   6.525
 3338ETHY    C1 3254   1.352  33.538   6.443
 3339AUSL   AUS 3255   0.687  30.521   7.666
 3340AUSL   AUS 3256   0.800  30.264   8.013
 3341AUL    AUL 3257   0.838  30.642   7.993
 3342THSLK    S 3258   0.971  30.372   8.183
 3343ETHY    C1 3259   1.266  30.437   8.523
 3344ETHY    C1 3260   1.584  30.599   8.920
 3345ETHY    C1 3261   1.852  30.848   9.298
 3346ETHY    C1 3262   2.066  31.170   9.653
 3347ETHY    C1 3263   2.218  31.558   9.976
 3348ETHY    C1 3264   2.304  32.008  10.262
 3349THSLK    S 3265   0.740  30.750   7.772
 3350ETHY    C1 3266   1.012  31.078   7.929
 3351ETHY    C1 3267   1.262  31.518   8.100
 3352ETHY    C1 3268   1.420  31.997   8.251
 3353ETHY    C1 3269   1.489  32.499   8.383
 3354ETHY    C1 3270   1.465  33.014   8.494
 3355ETHY    C1 3271   1.346  33.533   8.585
 3356AUSL   AUS 3272   0.535  29.267   7.912
 3357AUSL   AUS 3273   0.951  29.337   7.767
 3358AUL    AUL 3274   0.838  29.053   7.993
 3359THSLK    S 3275   0.488  29.017   7.989
 3360ETHY    C1 3276   0.298  28.621   8.103
 3361ETHY    C1 3277   0.147  28.143   8.289
 3362ETHY    C1 3278   0.084  27.678   8.528
 3363ETHY    C1 3279   0.099  27.236   8.809
 3364ETHY    C1 3280   0.195  26.829   9.132
 3365ETHY    C1 3281   0.370  26.466   9.489
 3366THSLK    S 3282   1.063  29.150   7.907
 3367ETHY    C1 3283   1.142  28.722   8.040
 3368ETHY    C1 3284   1.317  28.252   8.222
 3369ETHY    C1 3285   1.571  27.840   8.428
 3370ETHY    C1 3286   1.891  27.491   8.652
 3371ETHY    C1 3287   2.272  27.216   8.893
 3372ETHY    C1 3288   2.707  27.020   9.147
 3373AUSL   AUS 3289   0.383  29.174   7.666
 3374AUSL   AUS 3290   0.270  29.431   8.013
 3375AUL    AUL 3291   0.232  29.053   7.993
 3376THSLK    S 3292   0.328  28.938   7.745
 3377ETHY    C1 3293   0.053  28.579   7.788
 3378ETHY    C1 3294  -0.198  28.114   7.869
 3379ETHY    C1 3295  -0.354  27.624   7.981
 3380ETHY    C1 3296  -0.423  27.125   8.122
 3381ETHY    C1 3297  -0.399  26.625   8.292
 3382ETHY    C1 3298  -0.282  26.137   8.489
 3383THSLK    S 3299   0.092  29.265   8.129
 3384ETHY    C1 3300  -0.210  28.947   8.248
 3385ETHY    C1 3301  -0.529  28.580   8.471
 3386ETHY    C1 3302  -0.794  28.243   8.776
 3387ETHY    C1 3303  -1.006  27.941   9.147
 3388ETHY    C1 3304  -1.159  27.683   9.582
 3389ETHY    C1 3305  -1.250  27.476  10.072
 3390AUSL   AUS 3306   0.687  29.174   7.666
 3391AUSL   AUS 3307   0.383  29.174   7.339
 3392AUL    AUL 3308   0.535  28.866   7.503
 3393THSLK    S 3309   0.330  28.935   7.270
 3394ETHY    C1 3310   0.058  28.573   7.236
 3395ETHY    C1 3311  -0.192  28.108   7.157
 3396ETHY    C1 3312  -0.349  27.619   7.041
 3397ETHY    C1 3313  -0.419  27.120   6.896
 3398ETHY    C1 3314  -0.395  26.621   6.727
 3399ETHY    C1 3315  -0.276  26.130   6.538
 3400THSLK    S 3316   0.641  28.922   7.749
 3401ETHY    C1 3317   0.494  28.496   7.811
 3402ETHY    C1 3318   0.408  27.978   7.906
 3403ETHY    C1 3319   0.420  27.465   8.025
 3404ETHY    C1 3320   0.522  26.970   8.165
 3405ETHY    C1 3321   0.714  26.505   8.325
 3406ETHY    C1 3322   0.992  26.079   8.504
 3407AUSL   AUS 3323   0.535  30.427   7.094
 3408AUSL   AUS 3324   0.951  30.358   7.238
 3409AUL    AUL 3325   0.838  30.642   7.012
 3410THSLK    S 3326   0.582  30.654   6.977
 3411ETHY    C1 3327   0.772  30.933   6.674
 3412ETHY    C1 3328   0.923  31.314   6.330
 3413ETHY    C1 3329   0.987  31.734   6.021
 3414ETHY    C1 3330   0.971  32.184   5.752
 3415ETHY    C1 3331   0.875  32.654   5.532
 3416ETHY    C1 3332   0.700  33.137   5.366
 3417THSLK    S 3333   1.139  30.474   7.089
 3418ETHY    C1 3334   1.526  30.594   6.883
 3419ETHY    C1 3335   1.944  30.817   6.637
 3420ETHY    C1 3336   2.302  31.121   6.400
 3421ETHY    C1 3337   2.597  31.493   6.178
 3422ETHY    C1 3338   2.822  31.928   5.981
 3423ETHY    C1 3339   2.973  32.417   5.811
 3424AUSL   AUS 3340   0.383  30.521   7.339
 3425AUSL   AUS 3341   0.270  30.264   6.992
 3426AUL    AUL 3342   0.232  30.642   7.012
 3427THSLK    S 3343   0.429  30.768   7.239
 3428ETHY    C1 3344   0.576  31.165   7.074
 3429ETHY    C1 3345   0.662  31.659   6.889
 3430ETHY    C1 3346   0.650  32.160   6.727
 3431ETHY    C1 3347   0.548  32.656   6.593
 3432ETHY    C1 3348   0.356  33.137   6.492
 3433ETHY    C1 3349   0.078  33.595   6.427
 3434THSLK    S 3350   0.160  30.396   6.805
 3435ETHY    C1 3351   0.124  30.545   6.377
 3436ETHY    C1 3352   0.014  30.771   5.906
 3437ETHY    C1 3353  -0.164  31.046   5.494
 3438ETHY    C1 3354  -0.398  31.359   5.145
 3439ETHY    C1 3355  -0.684  31.708   4.870
 3440ETHY    C1 3356  -1.015  32.086   4.675
 3441AUSL   AUS 3357   0.535  29.267   7.094
 3442AUSL   AUS 3358   0.119  29.337   7.238
 3443AUL    AUL 3359   0.232  29.053   7.012
 3444THSLK    S 3360  -0.064  29.189   7.134
 3445ETHY    C1 3361  -0.447  28.945   7.124
 3446ETHY    C1 3362  -0.865  28.624   7.035
 3447ETHY    C1 3363  -1.224  28.278   6.866
 3448ETHY    C1 3364  -1.521  27.917   6.631
 3449ETHY    C1 3365  -1.746  27.545   6.331
 3450ETHY    C1 3366  -1.893  27.168   5.974
 3451THSLK    S 3367   0.493  29.012   7.024
 3452ETHY    C1 3368   0.309  28.611   6.917
 3453ETHY    C1 3369   0.159  28.133   6.732
 3454ETHY    C1 3370   0.093  27.670   6.491
 3455ETHY    C1 3371   0.106  27.230   6.206
 3456ETHY    C1 3372   0.203  26.823   5.885
 3457ETHY    C1 3373   0.383  26.455   5.533
 3458AUSL   AUS 3374   0.687  29.174   7.339
 3459AUSL   AUS 3375   0.800  29.431   6.992
 3460AUL    AUL 3376   0.838  29.053   7.012
 3461THSLK    S 3377   0.644  28.920   7.266
 3462ETHY    C1 3378   0.500  28.492   7.213
 3463ETHY    C1 3379   0.413  27.973   7.120
 3464ETHY    C1 3380   0.425  27.461   6.997
 3465ETHY    C1 3381   0.526  26.967   6.854
 3466ETHY    C1 3382   0.718  26.502   6.695
 3467ETHY    C1 3383   0.998  26.074   6.523
 3468THSLK    S 3384   0.917  29.241   6.859
 3469ETHY    C1 3385   0.961  28.839   6.651
 3470ETHY    C1 3386   1.071  28.408   6.355
 3471ETHY    C1 3387   1.247  28.045   6.017
 3472ETHY    C1 3388   1.478  27.751   5.651
 3473ETHY    C1 3389   1.764  27.534   5.264
 3474ETHY    C1 3390   2.101  27.398   4.865
 3475AUC    AUC 3391  23.678  32.043   7.503
 3476AUC    AUC 3392  23.923  32.043   7.351
 3477AUC    AUC 3393  23.923  32.043   7.654
 3478AUC    AUC 3394  23.433  32.043   7.351
 3479AUC    AUC 3395  23.433  32.043   7.654
 3480AUC    AUC 3396  23.526  32.289   7.503
 3481AUC    AUC 3397  23.830  32.289   7.503
 3482AUC    AUC 3398  23.526  31.798   7.503
 3483AUC    AUC 3399  23.830  31.798   7.503
 3484AUC    AUC 3400  23.678  31.892   7.748
 3485AUC    AUC 3401  23.678  32.195   7.748
 3486AUC    AUC 3402  23.678  31.892   7.257
 3487AUC    AUC 3403  23.678  32.195   7.257
 3488AUC    AUC 3404  24.169  32.043   7.199
 3489AUC    AUC 3405  24.169  32.043   7.503
 3490AUC    AUC 3406  24.169  32.043   7.806
 3491AUC    AUC 3407  23.187  32.043   7.199
 3492AUC    AUC 3408  23.187  32.043   7.503
 3493AUC    AUC 3409  23.187  32.043   7.806
 3494AUC    AUC 3410  23.375  32.534   7.503
 3495AUC    AUC 3411  23.678  32.534   7.503
 3496AUC    AUC 3412  23.981  32.534   7.503
 3497AUC    AUC 3413  23.375  31.553   7.503
 3498AUC    AUC 3414  23.678  31.553   7.503
 3499AUC    AUC 3415  23.981  31.553   7.503
 3500AUC    AUC 3416  23.678  31.740   7.993
 3501AUC    AUC 3417  23.678  32.043   7.993
 3502AUC    AUC 3418  23.678  32.347   7.993
 3503AUC    AUC 3419  23.678  31.740   7.012
 3504AUC    AUC 3420  23.678  32.043   7.012
 3505AUC    AUC 3421  23.678  32.347   7.012
 3506AUC    AUC 3422  23.923  31.892   7.900
 3507AUC    AUC 3423  23.923  32.195   7.900
 3508AUC    AUC 3424  23.923  31.892   7.106
 3509AUC    AUC 3425  23.923  32.195   7.106
 3510AUC    AUC 3426  23.433  31.892   7.900
 3511AUC    AUC 3427  23.433  32.195   7.900
 3512AUC    AUC 3428  23.433  31.892   7.106
 3513AUC    AUC 3429  23.433  32.195   7.106
 3514AUC    AUC 3430  24.075  32.289   7.351
 3515AUC    AUC 3431  24.075  32.289   7.654
 3516AUC    AUC 3432  23.281  32.289   7.351
 3517AUC    AUC 3433  23.281  32.289   7.654
 3518AUC    AUC 3434  24.075  31.798   7.351
 3519AUC    AUC 3435  24.075  31.798   7.654
 3520AUC    AUC 3436  23.281  31.798   7.351
 3521AUC    AUC 3437  23.281  31.798   7.654
 3522AUC    AUC 3438  23.526  32.441   7.748
 3523AUC    AUC 3439  23.830  32.441   7.748
 3524AUC    AUC 3440  23.526  31.646   7.748
 3525AUC    AUC 3441  23.830  31.646   7.748
 3526AUC    AUC 3442  23.526  32.441   7.257
 3527AUC    AUC 3443  23.830  32.441   7.257
 3528AUC    AUC 3444  23.526  31.646   7.257
 3529AUC    AUC 3445  23.830  31.646   7.257
 3530AUSL   AUS 3446  24.087  32.043   8.083
 3531AUSL   AUS 3447  23.943  31.627   8.013
 3532AUL    AUL 3448  24.169  31.740   8.297
 3533THSLK    S 3449  24.053  31.440   8.153
 3534ETHY    C1 3450  24.089  31.041   8.368
 3535ETHY    C1 3451  24.199  30.611   8.665
 3536ETHY    C1 3452  24.377  30.247   9.000
 3537ETHY    C1 3453  24.611  29.951   9.364
 3538ETHY    C1 3454  24.897  29.734   9.752
 3539ETHY    C1 3455  25.228  29.601  10.156
 3540THSLK    S 3456  24.180  31.991   8.324
 3541ETHY    C1 3457  24.384  31.771   8.665
 3542ETHY    C1 3458  24.648  31.594   9.094
 3543ETHY    C1 3459  24.924  31.518   9.535
 3544ETHY    C1 3460  25.201  31.535   9.980
 3545ETHY    C1 3461  25.471  31.648  10.419
 3546ETHY    C1 3462  25.730  31.857  10.845
 3547AUSL   AUS 3463  23.842  31.892   8.176
 3548AUSL   AUS 3464  23.514  32.195   8.176
 3549AUL    AUL 3465  23.678  32.043   8.484
 3550THSLK    S 3466  23.917  31.837   8.413
 3551ETHY    C1 3467  23.981  31.557   8.765
 3552ETHY    C1 3468  24.084  31.302   9.223
 3553ETHY    C1 3469  24.211  31.143   9.708
 3554ETHY    C1 3470  24.353  31.074  10.208
 3555ETHY    C1 3471  24.507  31.102  10.713
 3556ETHY    C1 3472  24.667  31.226  11.212
 3557THSLK    S 3473  23.429  32.149   8.428
 3558ETHY    C1 3474  23.355  31.999   8.850
 3559ETHY    C1 3475  23.250  31.911   9.367
 3560ETHY    C1 3476  23.128  31.923   9.878
 3561ETHY    C1 3477  22.990  32.024  10.373
 3562ETHY    C1 3478  22.835  32.217  10.840
 3563ETHY    C1 3479  22.666  32.498  11.268
 3564AUSL   AUS 3480  23.842  32.195   8.176
 3565AUSL   AUS 3481  24.188  32.308   7.919
 3566AUL    AUL 3482  24.169  32.347   8.297
 3567THSLK    S 3483  23.927  32.251   8.410
 3568ETHY    C1 3484  24.001  32.532   8.759
 3569ETHY    C1 3485  24.106  32.787   9.217
 3570ETHY    C1 3486  24.228  32.946   9.703
 3571ETHY    C1 3487  24.367  33.015  10.204
 3572ETHY    C1 3488  24.521  32.988  10.708
 3573ETHY    C1 3489  24.690  32.864  11.206
 3574THSLK    S 3490  24.360  32.406   8.080
 3575ETHY    C1 3491  24.723  32.377   8.350
 3576ETHY    C1 3492  25.145  32.433   8.673
 3577ETHY    C1 3493  25.537  32.587   8.989
 3578ETHY    C1 3494  25.891  32.825   9.293
 3579ETHY    C1 3495  26.198  33.146   9.580
 3580ETHY    C1 3496  26.449  33.543   9.844
 3581AUSL   AUS 3497  24.087  32.043   6.923
 3582AUSL   AUS 3498  23.943  32.460   6.992
 3583AUL    AUL 3499  24.169  32.347   6.708
 3584THSLK    S 3500  24.189  31.991   6.687
 3585ETHY    C1 3501  24.402  31.771   6.351
 3586ETHY    C1 3502  24.667  31.594   5.923
 3587ETHY    C1 3503  24.939  31.518   5.479
 3588ETHY    C1 3504  25.213  31.535   5.033
 3589ETHY    C1 3505  25.484  31.648   4.594
 3590ETHY    C1 3506  25.749  31.857   4.173
 3591THSLK    S 3507  24.121  32.571   6.829
 3592ETHY    C1 3508  24.423  32.639   6.497
 3593ETHY    C1 3509  24.742  32.802   6.100
 3594ETHY    C1 3510  25.007  33.049   5.719
 3595ETHY    C1 3511  25.219  33.369   5.362
 3596ETHY    C1 3512  25.372  33.759   5.039
 3597ETHY    C1 3513  25.463  34.211   4.759
 3598AUSL   AUS 3514  23.842  31.892   6.829
 3599AUSL   AUS 3515  24.188  31.779   7.086
 3600AUL    AUL 3516  24.169  31.740   6.708
 3601THSLK    S 3517  24.321  31.587   6.949
 3602ETHY    C1 3518  24.504  31.220   6.752
 3603ETHY    C1 3519  24.776  30.848   6.483
 3604ETHY    C1 3520  25.101  30.559   6.186
 3605ETHY    C1 3521  25.467  30.352   5.874
 3606ETHY    C1 3522  25.871  30.233   5.555
 3607ETHY    C1 3523  26.304  30.208   5.235
 3608THSLK    S 3524  23.927  31.836   6.596
 3609ETHY    C1 3525  24.001  31.555   6.246
 3610ETHY    C1 3526  24.106  31.299   5.788
 3611ETHY    C1 3527  24.228  31.141   5.302
 3612ETHY    C1 3528  24.367  31.072   4.801
 3613ETHY    C1 3529  24.521  31.099   4.297
 3614ETHY    C1 3530  24.690  31.223   3.799
 3615AUSL   AUS 3531  23.842  32.195   6.829
 3616AUSL   AUS 3532  23.514  31.892   6.829
 3617AUL    AUL 3533  23.678  32.043   6.521
 3618THSLK    S 3534  23.422  31.836   6.597
 3619ETHY    C1 3535  23.287  31.558   6.264
 3620ETHY    C1 3536  23.126  31.305   5.822
 3621ETHY    C1 3537  22.974  31.148   5.343
 3622ETHY    C1 3538  22.838  31.079   4.842
 3623ETHY    C1 3539  22.721  31.105   4.328
 3624ETHY    C1 3540  22.628  31.224   3.810
 3625THSLK    S 3541  23.944  32.149   6.583
 3626ETHY    C1 3542  24.090  31.999   6.179
 3627ETHY    C1 3543  24.252  31.908   5.678
 3628ETHY    C1 3544  24.399  31.918   5.173
 3629ETHY    C1 3545  24.532  32.019   4.677
 3630ETHY    C1 3546  24.649  32.214   4.200
 3631ETHY    C1 3547  24.750  32.500   3.754
 3632AUSL   AUS 3548  23.269  32.043   8.083
 3633AUSL   AUS 3549  23.413  32.460   8.013
 3634AUL    AUL 3550  23.187  32.347   8.297
 3635THSLK    S 3551  23.167  31.991   8.319
 3636ETHY    C1 3552  22.955  31.771   8.654
 3637ETHY    C1 3553  22.689  31.594   9.082
 3638ETHY    C1 3554  22.417  31.518   9.526
 3639ETHY    C1 3555  22.143  31.535   9.973
 3640ETHY    C1 3556  21.872  31.648  10.411
 3641ETHY    C1 3557  21.607  31.857  10.832
 3642THSLK    S 3558  23.296  32.584   8.202
 3643ETHY    C1 3559  23.253  32.727   8.632
 3644ETHY    C1 3560  23.142  32.952   9.104
 3645ETHY    C1 3561  22.966  33.229   9.515
 3646ETHY    C1 3562  22.735  33.545   9.863
 3647ETHY    C1 3563  22.449  33.893  10.138
 3648ETHY    C1 3564  22.112  34.266  10.334
 3649AUSL   AUS 3565  23.514  31.892   8.176
 3650AUSL   AUS 3566  23.168  31.779   7.919
 3651AUL    AUL 3567  23.187  31.740   8.297
 3652THSLK    S 3568  22.991  31.616   8.026
 3653ETHY    C1 3569  22.620  31.359   8.082
 3654ETHY    C1 3570  22.198  31.071   8.237
 3655ETHY    C1 3571  21.808  30.816   8.482
 3656ETHY    C1 3572  21.456  30.599   8.803
 3657ETHY    C1 3573  21.150  30.428   9.198
 3658ETHY    C1 3574  20.893  30.307   9.657
 3659THSLK    S 3575  23.412  31.838   8.406
 3660ETHY    C1 3576  23.266  31.562   8.736
 3661ETHY    C1 3577  23.104  31.310   9.178
 3662ETHY    C1 3578  22.957  31.152   9.658
 3663ETHY    C1 3579  22.824  31.082  10.160
 3664ETHY    C1 3580  22.707  31.108  10.674
 3665ETHY    C1 3581  22.606  31.229  11.190
 3666AUSL   AUS 3582  23.269  32.043   6.923
 3667AUSL   AUS 3583  23.413  31.627   6.992
 3668AUL    AUL 3584  23.187  31.740   6.708
 3669THSLK    S 3585  23.176  31.991   6.681
 3670ETHY    C1 3586  22.972  31.771   6.341
 3671ETHY    C1 3587  22.708  31.594   5.911
 3672ETHY    C1 3588  22.432  31.518   5.470
 3673ETHY    C1 3589  22.155  31.535   5.025
 3674ETHY    C1 3590  21.885  31.648   4.586
 3675ETHY    C1 3591  21.626  31.857   4.161
 3676THSLK    S 3592  23.242  31.454   6.878
 3677ETHY    C1 3593  22.947  31.128   6.760
 3678ETHY    C1 3594  22.629  30.761   6.538
 3679ETHY    C1 3595  22.361  30.426   6.233
 3680ETHY    C1 3596  22.147  30.126   5.861
 3681ETHY    C1 3597  21.995  29.868   5.426
 3682ETHY    C1 3598  21.909  29.656   4.937
 3683AUSL   AUS 3599  23.514  32.195   6.829
 3684AUSL   AUS 3600  23.168  32.308   7.086
 3685AUL    AUL 3601  23.187  32.347   6.708
 3686THSLK    S 3602  23.041  32.435   6.895
 3687ETHY    C1 3603  22.864  32.516   6.484
 3688ETHY    C1 3604  22.593  32.656   6.046
 3689ETHY    C1 3605  22.266  32.844   5.679
 3690ETHY    C1 3606  21.897  33.073   5.385
 3691ETHY    C1 3607  21.495  33.340   5.173
 3692ETHY    C1 3608  21.066  33.642   5.047
 3693THSLK    S 3609  23.439  32.151   6.576
 3694ETHY    C1 3610  23.375  32.004   6.150
 3695ETHY    C1 3611  23.272  31.915   5.634
 3696ETHY    C1 3612  23.145  31.926   5.123
 3697ETHY    C1 3613  23.003  32.027   4.629
 3698ETHY    C1 3614  22.850  32.220   4.162
 3699ETHY    C1 3615  22.689  32.503   3.732
 3700AUSL   AUS 3616  24.258  32.452   7.503
 3701AUSL   AUS 3617  24.188  32.308   7.086
 3702AUL    AUL 3618  24.472  32.534   7.199
 3703THSLK    S 3619  24.366  32.407   6.934
 3704ETHY    C1 3620  24.736  32.380   6.671
 3705ETHY    C1 3621  25.158  32.436   6.349
 3706ETHY    C1 3622  25.548  32.590   6.030
 3707ETHY    C1 3623  25.900  32.827   5.724
 3708ETHY    C1 3624  26.207  33.148   5.438
 3709ETHY    C1 3625  26.463  33.547   5.179
 3710THSLK    S 3626  24.524  32.505   7.508
 3711ETHY    C1 3627  24.978  32.527   7.513
 3712ETHY    C1 3628  25.500  32.641   7.514
 3713ETHY    C1 3629  25.983  32.850   7.511
 3714ETHY    C1 3630  26.419  33.140   7.510
 3715ETHY    C1 3631  26.798  33.507   7.510
 3716ETHY    C1 3632  27.112  33.947   7.514
 3717AUSL   AUS 3633  24.352  32.207   7.351
 3718AUSL   AUS 3634  24.352  31.880   7.654
 3719AUL    AUL 3635  24.660  32.043   7.503
 3720THSLK    S 3636  24.608  32.246   7.350
 3721ETHY    C1 3637  25.044  32.138   7.286
 3722ETHY    C1 3638  25.570  32.100   7.201
 3723ETHY    C1 3639  26.085  32.164   7.113
 3724ETHY    C1 3640  26.579  32.318   7.026
 3725ETHY    C1 3641  27.039  32.563   6.945
 3726ETHY    C1 3642  27.458  32.895   6.873
 3727THSLK    S 3643  24.579  31.740   7.663
 3728ETHY    C1 3644  24.898  31.424   7.728
 3729ETHY    C1 3645  25.331  31.120   7.807
 3730ETHY    C1 3646  25.806  30.910   7.887
 3731ETHY    C1 3647  26.309  30.789   7.971
 3732ETHY    C1 3648  26.829  30.763   8.058
 3733ETHY    C1 3649  27.357  30.833   8.147
 3734AUSL   AUS 3650  24.352  32.207   7.654
 3735AUSL   AUS 3651  24.094  32.554   7.767
 3736AUL    AUL 3652  24.472  32.534   7.806
 3737THSLK    S 3653  24.277  32.668   7.926
 3738ETHY    C1 3654  24.660  32.786   8.140
 3739ETHY    C1 3655  25.078  33.009   8.388
 3740ETHY    C1 3656  25.437  33.314   8.622
 3741ETHY    C1 3657  25.734  33.687   8.840
 3742ETHY    C1 3658  25.959  34.121   9.038
 3743ETHY    C1 3659  26.106  34.609   9.215
 3744THSLK    S 3660  24.606  32.246   7.665
 3745ETHY    C1 3661  25.041  32.138   7.740
 3746ETHY    C1 3662  25.567  32.100   7.826
 3747ETHY    C1 3663  26.082  32.163   7.910
 3748ETHY    C1 3664  26.576  32.317   7.993
 3749ETHY    C1 3665  27.037  32.562   8.075
 3750ETHY    C1 3666  27.454  32.894   8.155
 3751AUSL   AUS 3667  23.098  32.452   7.503
 3752AUSL   AUS 3668  23.168  32.308   7.919
 3753AUL    AUL 3669  22.884  32.534   7.806
 3754THSLK    S 3670  23.035  32.427   8.109
 3755ETHY    C1 3671  22.852  32.499   8.519
 3756ETHY    C1 3672  22.580  32.639   8.957
 3757ETHY    C1 3673  22.255  32.830   9.324
 3758ETHY    C1 3674  21.889  33.061   9.619
 3759ETHY    C1 3675  21.486  33.328   9.831
 3760ETHY    C1 3676  21.052  33.624   9.956
 3761THSLK    S 3677  22.887  32.593   7.508
 3762ETHY    C1 3678  22.665  32.990   7.513
 3763ETHY    C1 3679  22.329  33.405   7.514
 3764ETHY    C1 3680  21.926  33.744   7.511
 3765ETHY    C1 3681  21.472  34.005   7.510
 3766ETHY    C1 3682  20.973  34.179   7.510
 3767ETHY    C1 3683  20.440  34.263   7.514
 3768AUSL   AUS 3684  23.004  32.207   7.351
 3769AUSL   AUS 3685  23.262  32.554   7.238
 3770AUL    AUL 3686  22.884  32.534   7.199
 3771THSLK    S 3687  22.777  32.322   7.303
 3772ETHY    C1 3688  22.458  32.522   7.049
 3773ETHY    C1 3689  22.025  32.728   6.813
 3774ETHY    C1 3690  21.550  32.894   6.661
 3775ETHY    C1 3691  21.047  33.023   6.590
 3776ETHY    C1 3692  20.527  33.113   6.605
 3777ETHY    C1 3693  19.999  33.161   6.708
 3778THSLK    S 3694  23.150  32.717   7.060
 3779ETHY    C1 3695  23.071  33.027   6.737
 3780ETHY    C1 3696  22.896  33.401   6.397
 3781ETHY    C1 3697  22.642  33.769   6.120
 3782ETHY    C1 3698  22.322  34.126   5.909
 3783ETHY    C1 3699  21.941  34.464   5.770
 3784ETHY    C1 3700  21.506  34.778   5.709
 3785AUSL   AUS 3701  23.004  32.207   7.654
 3786AUSL   AUS 3702  23.004  31.880   7.351
 3787AUL    AUL 3703  22.696  32.043   7.503
 3788THSLK    S 3704  22.750  31.807   7.394
 3789ETHY    C1 3705  22.315  31.789   7.524
 3790ETHY    C1 3706  21.789  31.729   7.597
 3791ETHY    C1 3707  21.274  31.625   7.578
 3792ETHY    C1 3708  20.780  31.482   7.477
 3793ETHY    C1 3709  20.320  31.299   7.294
 3794ETHY    C1 3710  19.902  31.079   7.034
 3795THSLK    S 3711  22.776  32.313   7.707
 3796ETHY    C1 3712  22.455  32.504   7.966
 3797ETHY    C1 3713  22.022  32.708   8.202
 3798ETHY    C1 3714  21.547  32.879   8.352
 3799ETHY    C1 3715  21.045  33.011   8.422
 3800ETHY    C1 3716  20.525  33.099   8.407
 3801ETHY    C1 3717  19.996  33.140   8.308
 3802AUSL   AUS 3718  24.258  31.634   7.503
 3803AUSL   AUS 3719  24.188  31.779   7.919
 3804AUL    AUL 3720  24.472  31.553   7.806
 3805THSLK    S 3721  24.469  31.493   7.508
 3806ETHY    C1 3722  24.691  31.097   7.513
 3807ETHY    C1 3723  25.027  30.682   7.514
 3808ETHY    C1 3724  25.430  30.343   7.511
 3809ETHY    C1 3725  25.884  30.082   7.510
 3810ETHY    C1 3726  26.383  29.908   7.510
 3811ETHY    C1 3727  26.916  29.824   7.514
 3812THSLK    S 3728  24.315  31.588   8.064
 3813ETHY    C1 3729  24.492  31.223   8.270
 3814ETHY    C1 3730  24.763  30.851   8.540
 3815ETHY    C1 3731  25.090  30.562   8.834
 3816ETHY    C1 3732  25.459  30.354   9.142
 3817ETHY    C1 3733  25.861  30.236   9.462
 3818ETHY    C1 3734  26.290  30.211   9.789
 3819AUSL   AUS 3735  24.352  31.880   7.351
 3820AUSL   AUS 3736  24.094  31.533   7.238
 3821AUL    AUL 3737  24.472  31.553   7.199
 3822THSLK    S 3738  24.580  31.740   7.353
 3823ETHY    C1 3739  24.901  31.423   7.298
 3824ETHY    C1 3740  25.334  31.120   7.221
 3825ETHY    C1 3741  25.809  30.910   7.136
 3826ETHY    C1 3742  26.311  30.789   7.048
 3827ETHY    C1 3743  26.831  30.762   6.963
 3828ETHY    C1 3744  27.360  30.833   6.881
 3829THSLK    S 3745  24.210  31.344   7.108
 3830ETHY    C1 3746  24.294  30.915   6.984
 3831ETHY    C1 3747  24.469  30.443   6.803
 3832ETHY    C1 3748  24.722  30.032   6.593
 3833ETHY    C1 3749  25.040  29.684   6.366
 3834ETHY    C1 3750  25.422  29.409   6.126
 3835ETHY    C1 3751  25.860  29.212   5.880
 3836AUSL   AUS 3752  23.098  31.634   7.503
 3837AUSL   AUS 3753  23.168  31.779   7.086
 3838AUL    AUL 3754  22.884  31.553   7.199
 3839THSLK    S 3755  22.997  31.608   6.978
 3840ETHY    C1 3756  22.633  31.343   6.921
 3841ETHY    C1 3757  22.211  31.053   6.766
 3842ETHY    C1 3758  21.819  30.801   6.521
 3843ETHY    C1 3759  21.465  30.588   6.200
 3844ETHY    C1 3760  21.158  30.415   5.806
 3845ETHY    C1 3761  20.907  30.288   5.346
 3846THSLK    S 3762  22.832  31.582   7.508
 3847ETHY    C1 3763  22.378  31.560   7.513
 3848ETHY    C1 3764  21.856  31.446   7.514
 3849ETHY    C1 3765  21.374  31.237   7.511
 3850ETHY    C1 3766  20.937  30.947   7.510
 3851ETHY    C1 3767  20.558  30.580   7.510
 3852ETHY    C1 3768  20.245  30.140   7.514
 3853AUSL   AUS 3769  23.004  31.880   7.654
 3854AUSL   AUS 3770  23.262  31.533   7.767
 3855AUL    AUL 3771  22.884  31.553   7.806
 3856THSLK    S 3772  23.074  31.393   7.878
 3857ETHY    C1 3773  22.687  31.156   7.893
 3858ETHY    C1 3774  22.269  30.836   7.982
 3859ETHY    C1 3775  21.911  30.487   8.149
 3860ETHY    C1 3776  21.616  30.123   8.382
 3861ETHY    C1 3777  21.391  29.752   8.683
 3862ETHY    C1 3778  21.240  29.381   9.045
 3863THSLK    S 3779  22.748  31.817   7.616
 3864ETHY    C1 3780  22.312  31.807   7.491
 3865ETHY    C1 3781  21.786  31.748   7.419
 3866ETHY    C1 3782  21.271  31.641   7.436
 3867ETHY    C1 3783  20.777  31.495   7.535
 3868ETHY    C1 3784  20.317  31.313   7.718
 3869ETHY    C1 3785  19.898  31.100   7.983
 3870AUSL   AUS 3786  23.678  32.623   7.912
 3871AUSL   AUS 3787  23.262  32.554   7.767
 3872AUL    AUL 3788  23.375  32.838   7.993
 3873THSLK    S 3789  23.146  32.710   7.952
 3874ETHY    C1 3790  23.062  33.012   8.280
 3875ETHY    C1 3791  22.887  33.385   8.621
 3876ETHY    C1 3792  22.634  33.756   8.895
 3877ETHY    C1 3793  22.316  34.115   9.105
 3878ETHY    C1 3794  21.934  34.453   9.244
 3879ETHY    C1 3795  21.496  34.761   9.309
 3880THSLK    S 3796  23.720  32.845   8.035
 3881ETHY    C1 3797  23.904  33.120   8.347
 3882ETHY    C1 3798  24.054  33.500   8.691
 3883ETHY    C1 3799  24.120  33.923   8.998
 3884ETHY    C1 3800  24.107  34.374   9.264
 3885ETHY    C1 3801  24.010  34.843   9.485
 3886ETHY    C1 3802  23.830  35.322   9.656
 3887AUSL   AUS 3803  23.526  32.717   7.666
 3888AUSL   AUS 3804  23.830  32.717   7.339
 3889AUL    AUL 3805  23.678  33.025   7.503
 3890THSLK    S 3806  23.569  32.961   7.776
 3891ETHY    C1 3807  23.713  33.355   7.951
 3892ETHY    C1 3808  23.800  33.849   8.137
 3893ETHY    C1 3809  23.788  34.350   8.294
 3894ETHY    C1 3810  23.687  34.848   8.425
 3895ETHY    C1 3811  23.495  35.329   8.527
 3896ETHY    C1 3812  23.215  35.784   8.600
 3897THSLK    S 3813  23.885  32.948   7.243
 3898ETHY    C1 3814  24.161  33.278   7.096
 3899ETHY    C1 3815  24.411  33.719   6.927
 3900ETHY    C1 3816  24.567  34.196   6.771
 3901ETHY    C1 3817  24.636  34.698   6.635
 3902ETHY    C1 3818  24.612  35.214   6.525
 3903ETHY    C1 3819  24.495  35.734   6.443
 3904AUSL   AUS 3820  23.830  32.717   7.666
 3905AUSL   AUS 3821  23.943  32.460   8.013
 3906AUL    AUL 3822  23.981  32.838   7.993
 3907THSLK    S 3823  24.114  32.568   8.183
 3908ETHY    C1 3824  24.409  32.633   8.523
 3909ETHY    C1 3825  24.727  32.795   8.920
 3910ETHY    C1 3826  24.995  33.044   9.298
 3911ETHY    C1 3827  25.209  33.366   9.653
 3912ETHY    C1 3828  25.361  33.754   9.976
 3913ETHY    C1 3829  25.447  34.204  10.262
 3914THSLK    S 3830  23.883  32.946   7.772
 3915ETHY    C1 3831  24.155  33.274   7.929
 3916ETHY    C1 3832  24.405  33.714   8.100
 3917ETHY    C1 3833  24.563  34.193   8.251
 3918ETHY    C1 3834  24.632  34.695   8.383
 3919ETHY    C1 3835  24.608  35.210   8.494
 3920ETHY    C1 3836  24.489  35.729   8.585
 3921AUSL   AUS 3837  23.678  31.463   7.912
 3922AUSL   AUS 3838  24.094  31.533   7.767
 3923AUL    AUL 3839  23.981  31.249   7.993
 3924THSLK    S 3840  23.631  31.213   7.989
 3925ETHY    C1 3841  23.441  30.817   8.103
 3926ETHY    C1 3842  23.290  30.339   8.289
 3927ETHY    C1 3843  23.227  29.874   8.528
 3928ETHY    C1 3844  23.242  29.432   8.809
 3929ETHY    C1 3845  23.338  29.025   9.132
 3930ETHY    C1 3846  23.513  28.662   9.489
 3931THSLK    S 3847  24.206  31.346   7.907
 3932ETHY    C1 3848  24.285  30.918   8.040
 3933ETHY    C1 3849  24.460  30.448   8.222
 3934ETHY    C1 3850  24.714  30.036   8.428
 3935ETHY    C1 3851  25.034  29.687   8.652
 3936ETHY    C1 3852  25.415  29.412   8.893
 3937ETHY    C1 3853  25.850  29.216   9.147
 3938AUSL   AUS 3854  23.526  31.370   7.666
 3939AUSL   AUS 3855  23.413  31.627   8.013
 3940AUL    AUL 3856  23.375  31.249   7.993
 3941THSLK    S 3857  23.471  31.134   7.745
 3942ETHY    C1 3858  23.196  30.775   7.788
 3943ETHY    C1 3859  22.945  30.310   7.869
 3944ETHY    C1 3860  22.789  29.820   7.981
 3945ETHY    C1 3861  22.720  29.321   8.122
 3946ETHY    C1 3862  22.744  28.821   8.292
 3947ETHY    C1 3863  22.861  28.333   8.489
 3948THSLK    S 3864  23.235  31.461   8.129
 3949ETHY    C1 3865  22.933  31.143   8.248
 3950ETHY    C1 3866  22.614  30.776   8.471
 3951ETHY    C1 3867  22.349  30.439   8.776
 3952ETHY    C1 3868  22.137  30.137   9.147
 3953ETHY    C1 3869  21.984  29.879   9.582
 3954ETHY    C1 3870  21.893  29.672  10.072
 3955AUSL   AUS 3871  23.830  31.370   7.666
 3956AUSL   AUS 3872  23.526  31.370   7.339
 3957AUL    AUL 3873  23.678  31.062   7.503
 3958THSLK    S 3874  23.473  31.131   7.270
 3959ETHY    C1 3875  23.201  30.769   7.236
 3960ETHY    C1 3876  22.951  30.304   7.157
 3961ETHY    C1 3877  22.794  29.815   7.041
 3962ETHY    C1 3878  22.724  29.316   6.896
 3963ETHY    C1 3879  22.748  28.817   6.727
 3964ETHY    C1 3880  22.867  28.326   6.538
 3965THSLK    S 3881  23.784  31.118   7.749
 3966ETHY    C1 3882  23.637  30.692   7.811
 3967ETHY    C1 3883  23.551  30.174   7.906
 3968ETHY    C1 3884  23.563  29.661   8.025
 3969ETHY    C1 3885  23.665  29.166   8.165
 3970ETHY    C1 3886  23.857  28.701   8.325
 3971ETHY    C1 3887  24.135  28.275   8.504
 3972AUSL   AUS 3888  23.678  32.623   7.094
 3973AUSL   AUS 3889  24.094  32.554   7.238
 3974AUL    AUL 3890  23.981  32.838   7.012
 3975THSLK    S 3891  23.725  32.850   6.977
 3976ETHY    C1 3892  23.915  33.129   6.674
 3977ETHY    C1 3893  24.066  33.510   6.330
 3978ETHY    C1 3894  24.130  33.930   6.021
 3979ETHY    C1 3895  24.114  34.380   5.752
 3980ETHY    C1 3896  24.018  34.850   5.532
 3981ETHY    C1 3897  23.843  35.333   5.366
 3982THSLK    S 3898  24.282  32.670   7.089
 3983ETHY    C1 3899  24.669  32.790   6.883
 3984ETHY    C1 3900  25.087  33.013   6.637
 3985ETHY    C1 3901  25.445  33.317   6.400
 3986ETHY    C1 3902  25.740  33.689   6.178
 3987ETHY    C1 3903  25.965  34.124   5.981
 3988ETHY    C1 3904  26.116  34.613   5.811
 3989AUSL   AUS 3905  23.526  32.717   7.339
 3990AUSL   AUS 3906  23.413  32.460   6.992
 3991AUL    AUL 3907  23.375  32.838   7.012
 3992THSLK    S 3908  23.572  32.964   7.239
 3993ETHY    C1 3909  23.719  33.361   7.074
 3994ETHY    C1 3910  23.805  33.855   6.889
 3995ETHY    C1 3911  23.793  34.356   6.727
 3996ETHY    C1 3912  23.691  34.852   6.593
 3997ETHY    C1 3913  23.499  35.333   6.492
 3998ETHY    C1 3914  23.221  35.791   6.427
 3999THSLK    S 3915  23.303  32.592   6.805
 4000ETHY    C1 3916  23.267  32.741   6.377
 4001ETHY    C1 3917  23.157  32.967   5.906
 4002ETHY    C1 3918  22.979  33.242   5.494
 4003ETHY    C1 3919  22.745  33.555   5.145
 4004ETHY    C1 3920  22.459  33.904   4.870
 4005ETHY    C1 3921  22.128  34.282   4.675
 4006AUSL   AUS 3922  23.678  31.463   7.094
 4007AUSL   AUS 3923  23.262  31.533   7.238
 4008AUL    AUL 3924  23.375  31.249   7.012
 4009THSLK    S 3925  23.079  31.385   7.134
 4010ETHY    C1 3926  22.696  31.141   7.124
 4011ETHY    C1 3927  22.278  30.820   7.035
 4012ETHY    C1 3928  21.919  30.474   6.866
 4013ETHY    C1 3929  21.622  30.113   6.631
 4014ETHY    C1 3930  21.397  29.741   6.331
 4015ETHY    C1 3931  21.250  29.364   5.974
 4016THSLK    S 3932  23.636  31.208   7.024
 4017ETHY    C1 3933  23.452  30.807   6.917
 4018ETHY    C1 3934  23.302  30.329   6.732
 4019ETHY    C1 3935  23.236  29.866   6.491
 4020ETHY    C1 3936  23.249  29.426   6.206
 4021ETHY    C1 3937  23.346  29.019   5.885
 4022ETHY    C1 3938  23.526  28.651   5.533
 4023AUSL   AUS 3939  23.830  31.370   7.339
 4024AUSL   AUS 3940  23.943  31.627   6.992
 4025AUL    AUL 3941  23.981  31.249   7.012
 4026THSLK    S 3942  23.787  31.116   7.266
 4027ETHY    C1 3943  23.643  30.688   7.213
 4028ETHY    C1 3944  23.556  30.169   7.120
 4029ETHY    C1 3945  23.568  29.657   6.997
 4030ETHY    C1 3946  23.669  29.163   6.854
 4031ETHY    C1 3947  23.861  28.698   6.695
 4032ETHY    C1 3948  24.141  28.270   6.523
 4033THSLK    S 3949  24.060  31.437   6.859
 4034ETHY    C1 3950  24.104  31.035   6.651
 4035ETHY    C1 3951  24.214  30.604   6.355
 4036ETHY    C1 3952  24.390  30.241   6.017
 4037ETHY    C1 3953  24.621  29.947   5.651
 4038ETHY    C1 3954  24.907  29.730   5.264
 4039ETHY    C1 3955  25.244  29.594   4.865
 4040AUC    AUC 3956  30.626  29.590   7.503
 4041AUC    AUC 3957  30.871  29.590   7.351
 4042AUC    AUC 3958  30.871  29.590   7.654
 4043AUC    AUC 3959  30.381  29.590   7.351
 4044AUC    AUC 3960  30.381  29.590   7.654
 4045AUC    AUC 3961  30.474  29.836   7.503
 4046AUC    AUC 3962  30.778  29.836   7.503
 4047AUC    AUC 3963  30.474  29.345   7.503
 4048AUC    AUC 3964  30.778  29.345   7.503
 4049AUC    AUC 3965  30.626  29.439   7.748
 4050AUC    AUC 3966  30.626  29.742   7.748
 4051AUC    AUC 3967  30.626  29.439   7.257
 4052AUC    AUC 3968  30.626  29.742   7.257
 4053AUC    AUC 3969  31.117  29.590   7.199
 4054AUC    AUC 3970  31.117  29.590   7.503
 4055AUC    AUC 3971  31.117  29.590   7.806
 4056AUC    AUC 3972  30.135  29.590   7.199
 4057AUC    AUC 3973  30.135  29.590   7.503
 4058AUC    AUC 3974  30.135  29.590   7.806
 4059AUC    AUC 3975  30.323  30.081   7.503
 4060AUC    AUC 3976  30.626  30.081   7.503
 4061AUC    AUC 3977  30.929  30.081   7.503
 4062AUC    AUC 3978  30.323  29.100   7.503
 4063AUC    AUC 3979  30.626  29.100   7.503
 4064AUC    AUC 3980  30.929  29.100   7.503
 4065AUC    AUC 3981  30.626  29.287   7.993
 4066AUC    AUC 3982  30.626  29.590   7.993
 4067AUC    AUC 3983  30.626  29.894   7.993
 4068AUC    AUC 3984  30.626  29.287   7.012
 4069AUC    AUC 3985  30.626  29.590   7.012
 4070AUC    AUC 3986  30.626  29.894   7.012
 4071AUC    AUC 3987  30.871  29.439   7.900
 4072AUC    AUC 3988  30.871  29.742   7.900
 4073AUC    AUC 3989  30.871  29.439   7.106
 4074AUC    AUC 3990  30.871  29.742   7.106
 4075AUC    AUC 3991  30.381  29.439   7.900
 4076AUC    AUC 3992  30.381  29.742   7.900
 4077AUC    AUC 3993  30.381  29.439   7.106
 4078AUC    AUC 3994  30.381  29.742   7.106
 4079AUC    AUC 3995  31.023  29.836   7.351
 4080AUC    AUC 3996  31.023  29.836   7.654
 4081AUC    AUC 3997  30.229  29.836   7.351
 4082AUC    AUC 3998  30.229  29.836   7.654
 4083AUC    AUC 3999  31.023  29.345   7.351
 4084AUC    AUC 4000  31.023  29.345   7.654
 4085AUC    AUC 4001  30.229  29.345   7.351
 4086AUC    AUC 4002  30.229  29.345   7.654
 4087AUC    AUC 4003  30.474  29.988   7.748
 4088AUC    AUC 4004  30.778  29.988   7.748
 4089AUC    AUC 4005  30.474  29.193   7.748
 4090AUC    AUC 4006  30.778  29.193   7.748
 4091AUC    AUC 4007  30.474  29.988   7.257
 4092AUC    AUC 4008  30.778  29.988   7.257
 4093AUC    AUC 4009  30.474  29.193   7.257
 4094AUC    AUC 4010  30.778  29.193   7.257
 4095AUSL   AUS 4011  31.035  29.590   8.083
 4096AUSL   AUS 4012  30.891  29.174   8.013
 4097AUL    AUL 4013  31.117  29.287   8.297
 4098THSLK    S 4014  31.001  28.987   8.153
 4099ETHY    C1 4015  31.037  28.588   8.368
 4100ETHY    C1 4016  31.147  28.158   8.665
 4101ETHY    C1 4017  31.325  27.794   9.000
 4102ETHY    C1 4018  31.559  27.498   9.364
 4103ETHY    C1 4019  31.845  27.281   9.752
 4104ETHY    C1 4020  32.176  27.148  10.156
 4105THSLK    S 4021  31.128  29.538   8.324
 4106ETHY    C1 4022  31.332  29.318   8.665
 4107ETHY    C1 4023  31.596  29.141   9.094
 4108ETHY    C1 4024  31.872  29.065   9.535
 4109ETHY    C1 4025  32.149  29.082   9.980
 4110ETHY    C1 4026  32.419  29.195  10.419
 4111ETHY    C1 4027  32.678  29.404  10.845
 4112AUSL   AUS 4028  30.790  29.439   8.176
 4113AUSL   AUS 4029  30.462  29.742   8.176
 4114AUL    AUL 4030  30.626  29.590   8.484
 4115THSLK    S 4031  30.865  29.384   8.413
 4116ETHY    C1 4032  30.929  29.104   8.765
 4117ETHY    C1 4033  31.032  28.849   9.223
 4118ETHY    C1 4034  31.159  28.690   9.708
 4119ETHY    C1 4035  31.301  28.621  10.208
 4120ETHY    C1 4036  31.455  28.649  10.713
 4121ETHY    C1 4037  31.615  28.773  11.212
 4122THSLK    S 4038  30.377  29.696   8.428
 4123ETHY    C1 4039  30.303  29.546   8.850
 4124ETHY    C1 4040  30.198  29.458   9.367
 4125ETHY    C1 4041  30.076  29.470   9.878
 4126ETHY    C1 4042  29.938  29.571  10.373
 4127ETHY    C1 4043  29.783  29.764  10.840
 4128ETHY    C1 4044  29.614  30.045  11.268
 4129AUSL   AUS 4045  30.790  29.742   8.176
 4130AUSL   AUS 4046  31.136  29.855   7.919
 4131AUL    AUL 4047  31.117  29.894   8.297
 4132THSLK    S 4048  30.875  29.798   8.410
 4133ETHY    C1 4049  30.949  30.079   8.759
 4134ETHY    C1 4050  31.054  30.334   9.217
 4135ETHY    C1 4051  31.176  30.493   9.703
 4136ETHY    C1 4052  31.315  30.562  10.204
 4137ETHY    C1 4053  31.469  30.535  10.708
 4138ETHY    C1 4054  31.638  30.411  11.206
 4139THSLK    S 4055  31.308  29.953   8.080
 4140ETHY    C1 4056  31.671  29.924   8.350
 4141ETHY    C1 4057  32.093  29.980   8.673
 4142ETHY    C1 4058  32.485  30.134   8.989
 4143ETHY    C1 4059  32.839  30.372   9.293
 4144ETHY    C1 4060  33.146  30.693   9.580
 4145ETHY    C1 4061  33.397  31.090   9.844
 4146AUSL   AUS 4062  31.035  29.590   6.923
 4147AUSL   AUS 4063  30.891  30.007   6.992
 4148AUL    AUL 4064  31.117  29.894   6.708
 4149THSLK    S 4065  31.137  29.538   6.687
 4150ETHY    C1 4066  31.350  29.318   6.351
 4151ETHY    C1 4067  31.615  29.141   5.923
 4152ETHY    C1 4068  31.887  29.065   5.479
 4153ETHY    C1 4069  32.161  29.082   5.033
 4154ETHY    C1 4070  32.432  29.195   4.594
 4155ETHY    C1 4071  32.697  29.404   4.173
 4156THSLK    S 4072  31.069  30.118   6.829
 4157ETHY    C1 4073  31.371  30.186   6.497
 4158ETHY    C1 4074  31.690  30.349   6.100
 4159ETHY    C1 4075  31.955  30.596   5.719
 4160ETHY    C1 4076  32.167  30.916   5.362
 4161ETHY    C1 4077  32.320  31.306   5.039
 4162ETHY    C1 4078  32.411  31.758   4.759
 4163AUSL   AUS 4079  30.790  29.439   6.829
 4164AUSL   AUS 4080  31.136  29.326   7.086
 4165AUL    AUL 4081  31.117  29.287   6.708
 4166THSLK    S 4082  31.269  29.134   6.949
 4167ETHY    C1 4083  31.452  28.767   6.752
 4168ETHY    C1 4084  31.724  28.395   6.483
 4169ETHY    C1 4085  32.049  28.106   6.186
 4170ETHY    C1 4086  32.415  27.899   5.874
 4171ETHY    C1 4087  32.819  27.780   5.555
 4172ETHY    C1 4088  33.252  27.755   5.235
 4173THSLK    S 4089  30.875  29.383   6.596
 4174ETHY    C1 4090  30.949  29.102   6.246
 4175ETHY    C1 4091  31.054  28.846   5.788
 4176ETHY    C1 4092  31.176  28.688   5.302
 4177ETHY    C1 4093  31.315  28.619   4.801
 4178ETHY    C1 4094  31.469  28.646   4.297
 4179ETHY    C1 4095  31.638  28.770   3.799
 4180AUSL   AUS 4096  30.790  29.742   6.829
 4181AUSL   AUS 4097  30.462  29.439   6.829
 4182AUL    AUL 4098  30.626  29.590   6.521
 4183THSLK    S 4099  30.370  29.383   6.597
 4184ETHY    C1 4100  30.235  29.105   6.264
 4185ETHY    C1 4101  30.074  28.852   5.822
 4186ETHY    C1 4102  29.922  28.695   5.343
 4187ETHY    C1 4103  29.786  28.626   4.842
 4188ETHY    C1 4104  29.669  28.652   4.328
 4189ETHY    C1 4105  29.576  28.771   3.810
 4190THSLK    S 4106  30.892  29.696   6.583
 4191ETHY    C1 4107  31.038  29.546   6.179
 4192ETHY    C1 4108  31.200  29.455   5.678
 4193ETHY    C1 4109  31.347  29.465   5.173
 4194ETHY    C1 4110  31.480  29.566   4.677
 4195ETHY    C1 4111  31.597  29.761   4.200
 4196ETHY    C1 4112  31.698  30.047   3.754
 4197AUSL   AUS 4113  30.217  29.590   8.083
 4198AUSL   AUS 4114  30.361  30.007   8.013
 4199AUL    AUL 4115  30.135  29.894   8.297
 4200THSLK    S 4116  30.115  29.538   8.319
 4201ETHY    C1 4117  29.903  29.318   8.654
 4202ETHY    C1 4118  29.637  29.141   9.082
 4203ETHY    C1 4119  29.365  29.065   9.526
 4204ETHY    C1 4120  29.091  29.082   9.973
 4205ETHY    C1 4121  28.820  29.195  10.411
 4206ETHY    C1 4122  28.555  29.404  10.832
 4207THSLK    S 4123  30.244  30.131   8.202
 4208ETHY    C1 4124  30.201  30.274   8.632
 4209ETHY    C1 4125  30.090  30.499   9.104
 4210ETHY    C1 4126  29.914  30.776   9.515
 4211ETHY    C1 4127  29.683  31.092   9.863
 4212ETHY    C1 4128  29.397  31.440  10.138
 4213ETHY    C1 4129  29.060  31.813  10.334
 4214AUSL   AUS 4130  30.462  29.439   8.176
 4215AUSL   AUS 4131  30.116  29.326   7.919
 4216AUL    AUL 4132  30.135  29.287   8.297
 4217THSLK    S 4133  29.939  29.163   8.026
 4218ETHY    C1 4134  29.568  28.906   8.082
 4219ETHY    C1 4135  29.146  28.618   8.237
 4220ETHY    C1 4136  28.756  28.363   8.482
 4221ETHY    C1 4137  28.404  28.146   8.803
 4222ETHY    C1 4138  28.098  27.975   9.198
 4223ETHY    C1 4139  27.841  27.854   9.657
 4224THSLK    S 4140  30.360  29.385   8.406
 4225ETHY    C1 4141  30.214  29.109   8.736
 4226ETHY    C1 4142  30.052  28.857   9.178
 4227ETHY    C1 4143  29.905  28.699   9.658
 4228ETHY    C1 4144  29.772  28.629  10.160
 4229ETHY    C1 4145  29.655  28.655  10.674
 4230ETHY    C1 4146  29.554  28.776  11.190
 4231AUSL   AUS 4147  30.217  29.590   6.923
 4232AUSL   AUS 4148  30.361  29.174   6.992
 4233AUL    AUL 4149  30.135  29.287   6.708
 4234THSLK    S 4150  30.124  29.538   6.681
 4235ETHY    C1 4151  29.920  29.318   6.341
 4236ETHY    C1 4152  29.656  29.141   5.911
 4237ETHY    C1 4153  29.380  29.065   5.470
 4238ETHY    C1 4154  29.103  29.082   5.025
 4239ETHY    C1 4155  28.833  29.195   4.586
 4240ETHY    C1 4156  28.574  29.404   4.161
 4241THSLK    S 4157  30.190  29.001   6.878
 4242ETHY    C1 4158  29.895  28.675   6.760
 4243ETHY    C1 4159  29.577  28.308   6.538
 4244ETHY    C1 4160  29.309  27.973   6.233
 4245ETHY    C1 4161  29.095  27.673   5.861
 4246ETHY    C1 4162  28.943  27.415   5.426
 4247ETHY    C1 4163  28.857  27.203   4.937
 4248AUSL   AUS 4164  30.462  29.742   6.829
 4249AUSL   AUS 4165  30.116  29.855   7.086
 4250AUL    AUL 4166  30.135  29.894   6.708
 4251THSLK    S 4167  29.989  29.982   6.895
 4252ETHY    C1 4168  29.812  30.063   6.484
 4253ETHY    C1 4169  29.541  30.203   6.046
 4254ETHY    C1 4170  29.214  30.391   5.679
 4255ETHY    C1 4171  28.845  30.620   5.385
 4256ETHY    C1 4172  28.443  30.887   5.173
 4257ETHY    C1 4173  28.014  31.189   5.047
 4258THSLK    S 4174  30.387  29.698   6.576
 4259ETHY    C1 4175  30.323  29.551   6.150
 4260ETHY    C1 4176  30.220  29.462   5.634
 4261ETHY    C1 4177  30.093  29.473   5.123
 4262ETHY    C1 4178  29.951  29.574   4.629
 4263ETHY    C1 4179  29.798  29.767   4.162
 4264ETHY    C1 4180  29.637  30.050   3.732
 4265AUSL   AUS 4181  31.206  29.999   7.503
 4266AUSL   AUS 4182  31.136  29.855   7.086
 4267AUL    AUL 4183  31.420  30.081   7.199
 4268THSLK    S 4184  31.314  29.954   6.934
 4269ETHY    C1 4185  31.684  29.927   6.671
 4270ETHY    C1 4186  32.106  29.983   6.349
 4271ETHY    C1 4187  32.496  30.137   6.030
 4272ETHY    C1 4188  32.848  30.374   5.724
 4273ETHY    C1 4189  33.155  30.695   5.438
 4274ETHY    C1 4190  33.411  31.094   5.179
 4275THSLK    S 4191  31.472  30.052   7.508
 4276ETHY    C1 4192  31.926  30.074   7.513
 4277ETHY    C1 4193  32.448  30.188   7.514
 4278ETHY    C1 4194  32.931  30.397   7.511
 4279ETHY    C1 4195  33.367  30.687   7.510
 4280ETHY    C1 4196  33.746  31.054   7.510
 4281ETHY    C1 4197  34.060  31.494   7.514
 4282AUSL   AUS 4198  31.300  29.754   7.351
 4283AUSL   AUS 4199  31.300  29.427   7.654
 4284AUL    AUL 4200  31.608  29.590   7.503
 4285THSLK    S 4201  31.556  29.793   7.350
 4286ETHY    C1 4202  31.992  29.685   7.286
 4287ETHY    C1 4203  32.518  29.647   7.201
 4288ETHY    C1 4204  33.033  29.711   7.113
 4289ETHY    C1 4205  33.527  29.865   7.026
 4290ETHY    C1 4206  33.987  30.110   6.945
 4291ETHY    C1 4207  34.406  30.442   6.873
 4292THSLK    S 4208  31.527  29.287   7.663
 4293ETHY    C1 4209  31.846  28.971   7.728
 4294ETHY    C1 4210  32.279  28.667   7.807
 4295ETHY    C1 4211  32.754  28.457   7.887
 4296ETHY    C1 4212  33.257  28.336   7.971
 4297ETHY    C1 4213  33.777  28.310   8.058
 4298ETHY    C1 4214  34.305  28.380   8.147
 4299AUSL   AUS 4215  31.300  29.754   7.654
 4300AUSL   AUS 4216  31.042  30.101   7.767
 4301AUL    AUL 4217  31.420  30.081   7.806
 4302THSLK    S 4218  31.225  30.215   7.926
 4303ETHY    C1 4219  31.608  30.333   8.140
 4304ETHY    C1 4220  32.026  30.556   8.388
 4305ETHY    C1 4221  32.385  30.861   8.622
 4306ETHY    C1 4222  32.682  31.234   8.840
 4307ETHY    C1 4223  32.907  31.668   9.038
 4308ETHY    C1 4224  33.054  32.156   9.215
 4309THSLK    S 4225  31.554  29.793   7.665
 4310ETHY    C1 4226  31.989  29.685   7.740
 4311ETHY    C1 4227  32.515  29.647   7.826
 4312ETHY    C1 4228  33.030  29.710   7.910
 4313ETHY    C1 4229  33.524  29.864   7.993
 4314ETHY    C1 4230  33.985  30.109   8.075
 4315ETHY    C1 4231  34.402  30.441   8.155
 4316AUSL   AUS 4232  30.046  29.999   7.503
 4317AUSL   AUS 4233  30.116  29.855   7.919
 4318AUL    AUL 4234  29.832  30.081   7.806
 4319THSLK    S 4235  29.983  29.974   8.109
 4320ETHY    C1 4236  29.800  30.046   8.519
 4321ETHY    C1 4237  29.528  30.186   8.957
 4322ETHY    C1 4238  29.203  30.377   9.324
 4323ETHY    C1 4239  28.837  30.608   9.619
 4324ETHY    C1 4240  28.434  30.875   9.831
 4325ETHY    C1 4241  28.000  31.171   9.956
 4326THSLK    S 4242  29.835  30.140   7.508
 4327ETHY    C1 4243  29.613  30.537   7.513
 4328ETHY    C1 4244  29.277  30.952   7.514
 4329ETHY    C1 4245  28.874  31.291   7.511
 4330ETHY    C1 4246  28.420  31.552   7.510
 4331ETHY    C1 4247  27.921  31.726   7.510
 4332ETHY    C1 4248  27.388  31.810   7.514
 4333AUSL   AUS 4249  29.952  29.754   7.351
 4334AUSL   AUS 4250  30.210  30.101   7.238
 4335AUL    AUL 4251  29.832  30.081   7.199
 4336THSLK    S 4252  29.725  29.869   7.303
 4337ETHY    C1 4253  29.406  30.069   7.049
 4338ETHY    C1 4254  28.973  30.275   6.813
 4339ETHY    C1 4255  28.498  30.441   6.661
 4340ETHY    C1 4256  27.995  30.570   6.590
 4341ETHY    C1 4257  27.475  30.660   6.605
 4342ETHY    C1 4258  26.947  30.708   6.708
 4343THSLK    S 4259  30.098  30.264   7.060
 4344ETHY    C1 4260  30.019  30.574   6.737
 4345ETHY    C1 4261  29.844  30.948   6.397
 4346ETHY    C1 4262  29.590  31.316   6.120
 4347ETHY    C1 4263  29.270  31.673   5.909
 4348ETHY    C1 4264  28.889  32.011   5.770
 4349ETHY    C1 4265  28.454  32.325   5.709
 4350AUSL   AUS 4266  29.952  29.754   7.654
 4351AUSL   AUS 4267  29.952  29.427   7.351
 4352AUL    AUL 4268  29.644  29.590   7.503
 4353THSLK    S 4269  29.698  29.354   7.394
 4354ETHY    C1 4270  29.263  29.336   7.524
 4355ETHY    C1 4271  28.737  29.276   7.597
 4356ETHY    C1 4272  28.222  29.172   7.578
 4357ETHY    C1 4273  27.728  29.029   7.477
 4358ETHY    C1 4274  27.268  28.846   7.294
 4359ETHY    C1 4275  26.850  28.626   7.034
 4360THSLK    S 4276  29.724  29.860   7.707
 4361ETHY    C1 4277  29.403  30.051   7.966
 4362ETHY    C1 4278  28.970  30.255   8.202
 4363ETHY    C1 4279  28.495  30.426   8.352
 4364ETHY    C1 4280  27.993  30.558   8.422
 4365ETHY    C1 4281  27.473  30.646   8.407
 4366ETHY    C1 4282  26.944  30.687   8.308
 4367AUSL   AUS 4283  31.206  29.181   7.503
 4368AUSL   AUS 4284  31.136  29.326   7.919
 4369AUL    AUL 4285  31.420  29.100   7.806
 4370THSLK    S 4286  31.417  29.040   7.508
 4371ETHY    C1 4287  31.639  28.644   7.513
 4372ETHY    C1 4288  31.975  28.229   7.514
 4373ETHY    C1 4289  32.378  27.890   7.511
 4374ETHY    C1 4290  32.832  27.629   7.510
 4375ETHY    C1 4291  33.331  27.455   7.510
 4376ETHY    C1 4292  33.864  27.371   7.514
 4377THSLK    S 4293  31.263  29.135   8.064
 4378ETHY    C1 4294  31.440  28.770   8.270
 4379ETHY    C1 4295  31.711  28.398   8.540
 4380ETHY    C1 4296  32.038  28.109   8.834
 4381ETHY    C1 4297  32.407  27.901   9.142
 4382ETHY    C1 4298  32.809  27.783   9.462
 4383ETHY    C1 4299  33.238  27.758   9.789
 4384AUSL   AUS 4300  31.300  29.427   7.351
 4385AUSL   AUS 4301  31.042  29.080   7.238
 4386AUL    AUL 4302  31.420  29.100   7.199
 4387THSLK    S 4303  31.528  29.287   7.353
 4388ETHY    C1 4304  31.849  28.970   7.298
 4389ETHY    C1 4305  32.282  28.667   7.221
 4390ETHY    C1 4306  32.757  28.457   7.136
 4391ETHY    C1 4307  33.259  28.336   7.048
 4392ETHY    C1 4308  33.779  28.309   6.963
 4393ETHY    C1 4309  34.308  28.380   6.881
 4394THSLK    S 4310  31.158  28.891   7.108
 4395ETHY    C1 4311  31.242  28.462   6.984
 4396ETHY    C1 4312  31.417  27.990   6.803
 4397ETHY    C1 4313  31.670  27.579   6.593
 4398ETHY    C1 4314  31.988  27.231   6.366
 4399ETHY    C1 4315  32.370  26.956   6.126
 4400ETHY    C1 4316  32.808  26.759   5.880
 4401AUSL   AUS 4317  30.046  29.181   7.503
 4402AUSL   AUS 4318  30.116  29.326   7.086
 4403AUL    AUL 4319  29.832  29.100   7.199
 4404THSLK    S 4320  29.945  29.155   6.978
 4405ETHY    C1 4321  29.581  28.890   6.921
 4406ETHY    C1 4322  29.159  28.600   6.766
 4407ETHY    C1 4323  28.767  28.348   6.521
 4408ETHY    C1 4324  28.413  28.135   6.200
 4409ETHY    C1 4325  28.106  27.962   5.806
 4410ETHY    C1 4326  27.855  27.835   5.346
 4411THSLK    S 4327  29.780  29.129   7.508
 4412ETHY    C1 4328  29.326  29.107   7.513
 4413ETHY    C1 4329  28.804  28.993   7.514
 4414ETHY    C1 4330  28.322  28.784   7.511
 4415ETHY    C1 4331  27.885  28.494   7.510
 4416ETHY    C1 4332  27.506  28.127   7.510
 4417ETHY    C1 4333  27.193  27.687   7.514
 4418AUSL   AUS 4334  29.952  29.427   7.654
 4419AUSL   AUS 4335  30.210  29.080   7.767
 4420AUL    AUL 4336  29.832  29.100   7.806
 4421THSLK    S 4337  30.022  28.940   7.878
 4422ETHY    C1 4338  29.635  28.703   7.893
 4423ETHY    C1 4339  29.217  28.383   7.982
 4424ETHY    C1 4340  28.859  28.034   8.149
 4425ETHY    C1 4341  28.564  27.670   8.382
 4426ETHY    C1 4342  28.339  27.299   8.683
 4427ETHY    C1 4343  28.188  26.928   9.045
 4428THSLK    S 4344  29.696  29.364   7.616
 4429ETHY    C1 4345  29.260  29.354   7.491
 4430ETHY    C1 4346  28.734  29.295   7.419
 4431ETHY    C1 4347  28.219  29.188   7.436
 4432ETHY    C1 4348  27.725  29.042   7.535
 4433ETHY    C1 4349  27.265  28.860   7.718
 4434ETHY    C1 4350  26.846  28.647   7.983
 4435AUSL   AUS 4351  30.626  30.170   7.912
 4436AUSL   AUS 4352  30.210  30.101   7.767
 4437AUL    AUL 4353  30.323  30.385   7.993
 4438THSLK    S 4354  30.094  30.257   7.952
 4439ETHY    C1 4355  30.010  30.559   8.280
 4440ETHY    C1 4356  29.835  30.932   8.621
 4441ETHY    C1 4357  29.582  31.303   8.895
 4442ETHY    C1 4358  29.264  31.662   9.105
 4443ETHY    C1 4359  28.882  32.000   9.244
 4444ETHY    C1 4360  28.444  32.308   9.309
 4445THSLK    S 4361  30.668  30.392   8.035
 4446ETHY    C1 4362  30.852  30.667   8.347
 4447ETHY    C1 4363  31.002  31.047   8.691
 4448ETHY    C1 4364  31.068  31.470   8.998
 4449ETHY    C1 4365  31.055  31.921   9.264
 4450ETHY    C1 4366  30.958  32.390   9.485
 4451ETHY    C1 4367  30.778  32.869   9.656
 4452AUSL   AUS 4368  30.474  30.264   7.666
 4453AUSL   AUS 4369  30.778  30.264   7.339
 4454AUL    AUL 4370  30.626  30.572   7.503
 4455THSLK    S 4371  30.517  30.508   7.776
 4456ETHY    C1 4372  30.661  30.902   7.951
 4457ETHY    C1 4373  30.748  31.396   8.137
 4458ETHY    C1 4374  30.736  31.897   8.294
 4459ETHY    C1 4375  30.635  32.395   8.425
 4460ETHY    C1 4376  30.443  32.876   8.527
 4461ETHY    C1 4377  30.163  33.331   8.600
 4462THSLK    S 4378  30.833  30.495   7.243
 4463ETHY    C1 4379  31.109  30.825   7.096
 4464ETHY    C1 4380  31.359  31.266   6.927
 4465ETHY    C1 4381  31.515  31.743   6.771
 4466ETHY    C1 4382  31.584  32.245   6.635
 4467ETHY    C1 4383  31.560  32.761   6.525
 4468ETHY    C1 4384  31.443  33.281   6.443
 4469AUSL   AUS 4385  30.778  30.264   7.666
 4470AUSL   AUS 4386  30.891  30.007   8.013
 4471AUL    AUL 4387  30.929  30.385   7.993
 4472THSLK    S 4388  31.062  30.115   8.183
 4473ETHY    C1 4389  31.357  30.180   8.523
 4474ETHY    C1 4390  31.675  30.342   8.920
 4475ETHY    C1 4391  31.943  30.591   9.298
 4476ETHY    C1 4392  32.157  30.913   9.653
 4477ETHY    C1 4393  32.309  31.301   9.976
 4478ETHY    C1 4394  32.395  31.751  10.262
 4479THSLK    S 4395  30.831  30.493   7.772
 4480ETHY    C1 4396  31.103  30.821   7.929
 4481ETHY    C1 4397  31.353  31.261   8.100
 4482ETHY    C1 4398  31.511  31.740   8.251
 4483ETHY    C1 4399  31.580  32.242   8.383
 4484ETHY    C1 4400  31.556  32.757   8.494
 4485ETHY    C1 4401  31.437  33.276   8.585
 4486AUSL   AUS 4402  30.626  29.010   7.912
 4487AUSL   AUS 4403  31.042  29.080   7.767
 4488AUL    AUL 4404  30.929  28.796   7.993
 4489THSLK    S 4405  30.579  28.760   7.989
 4490ETHY    C1 4406  30.389  28.364   8.103
 4491ETHY    C1 4407  30.238  27.886   8.289
 4492ETHY    C1 4408  30.175  27.421   8.528
 4493ETHY    C1 4409  30.190  26.979   8.809
 4494ETHY    C1 4410  30.286  26.572   9.132
 4495ETHY    C1 4411  30.461  26.209   9.489
 4496THSLK    S 4412  31.154  28.893   7.907
 4497ETHY    C1 4413  31.233  28.465   8.040
 4498ETHY    C1 4414  31.408  27.995   8.222
 4499ETHY    C1 4415  31.662  27.583   8.428
 4500ETHY    C1 4416  31.982  27.234   8.652
 4501ETHY    C1 4417  32.363  26.959   8.893
 4502ETHY    C1 4418  32.798  26.763   9.147
 4503AUSL   AUS 4419  30.474  28.917   7.666
 4504AUSL   AUS 4420  30.361  29.174   8.013
 4505AUL    AUL 4421  30.323  28.796   7.993
 4506THSLK    S 4422  30.419  28.681   7.745
 4507ETHY    C1 4423  30.144  28.322   7.788
 4508ETHY    C1 4424  29.893  27.857   7.869
 4509ETHY    C1 4425  29.737  27.367   7.981
 4510ETHY    C1 4426  29.668  26.868   8.122
 4511ETHY    C1 4427  29.692  26.368   8.292
 4512ETHY    C1 4428  29.809  25.880   8.489
 4513THSLK    S 4429  30.183  29.008   8.129
 4514ETHY    C1 4430  29.881  28.690   8.248
 4515ETHY    C1 4431  29.562  28.323   8.471
 4516ETHY    C1 4432  29.297  27.986   8.776
 4517ETHY    C1 4433  29.085  27.684   9.147
 4518ETHY    C1 4434  28.932  27.426   9.582
 4519ETHY    C1 4435  28.841  27.219  10.072
 4520AUSL   AUS 4436  30.778  28.917   7.666
 4521AUSL   AUS 4437  30.474  28.917   7.339
 4522AUL    AUL 4438  30.626  28.609   7.503
 4523THSLK    S 4439  30.421  28.678   7.270
 4524ETHY    C1 4440  30.149  28.316   7.236
 4525ETHY    C1 4441  29.899  27.851   7.157
 4526ETHY    C1 4442  29.742  27.362   7.041
 4527ETHY    C1 4443  29.672  26.863   6.896
 4528ETHY    C1 4444  29.696  26.364   6.727
 4529ETHY    C1 4445  29.815  25.873   6.538
 4530THSLK    S 4446  30.732  28.665   7.749
 4531ETHY    C1 4447  30.585  28.239   7.811
 4532ETHY    C1 4448  30.499  27.721   7.906
 4533ETHY    C1 4449  30.511  27.208   8.025
 4534ETHY    C1 4450  30.613  26.713   8.165
 4535ETHY    C1 4451  30.805  26.248   8.325
 4536ETHY    C1 4452  31.083  25.822   8.504
 4537AUSL   AUS 4453  30.626  30.170   7.094
 4538AUSL   AUS 4454  31.042  30.101   7.238
 4539AUL    AUL 4455  30.929  30.385   7.012
 4540THSLK    S 4456  30.673  30.397   6.977
 4541ETHY    C1 4457  30.863  30.676   6.674
 4542ETHY    C1 4458  31.014  31.057   6.330
 4543ETHY    C1 4459  31.078  31.477   6.021
 4544ETHY    C1 4460  31.062  31.927   5.752
 4545ETHY    C1 4461  30.966  32.397   5.532
 4546ETHY    C1 4462  30.791  32.880   5.366
 4547THSLK    S 4463  31.230  30.217   7.089
 4548ETHY    C1 4464  31.617  30.337   6.883
 4549ETHY    C1 4465  32.035  30.560   6.637
 4550ETHY    C1 4466  32.393  30.864   6.400
 4551ETHY    C1 4467  32.688  31.236   6.178
 4552ETHY    C1 4468  32.913  31.671   5.981
 4553ETHY    C1 4469  33.064  32.160   5.811
 4554AUSL   AUS 4470  30.474  30.264   7.339
 4555AUSL   AUS 4471  30.361  30.007   6.992
 4556AUL    AUL 4472  30.323  30.385   7.012
 4557THSLK    S 4473  30.520  30.511   7.239
 4558ETHY    C1 4474  30.667  30.908   7.074
 4559ETHY    C1 4475  30.753  31.402   6.889
 4560ETHY    C1 4476  30.741  31.903   6.727
 4561ETHY    C1 4477  30.639  32.399   6.593
 4562ETHY    C1 4478  30.447  32.880   6.492
 4563ETHY    C1 4479  30.169  33.338   6.427
 4564THSLK    S 4480  30.251  30.139   6.805
 4565ETHY    C1 4481  30.215  30.288   6.377
 4566ETHY    C1 4482  30.105  30.514   5.906
 4567ETHY    C1 4483  29.927  30.789   5.494
 4568ETHY    C1 4484  29.693  31.102   5.145
 4569ETHY    C1 4485  29.407  31.451   4.870
 4570ETHY    C1 4486  29.076  31.829   4.675
 4571AUSL   AUS 4487  30.626  29.010   7.094
 4572AUSL   AUS 4488  30.210  29.080   7.238
 4573AUL    AUL 4489  30.323  28.796   7.012
 4574THSLK    S 4490  30.027  28.932   7.134
 4575ETHY    C1 4491  29.644  28.688   7.124
 4576ETHY    C1 4492  29.226  28.367   7.035
 4577ETHY    C1 4493  28.867  28.021   6.866
 4578ETHY    C1 4494  28.570  27.660   6.631
 4579ETHY    C1 4495  28.345  27.288   6.331
 4580ETHY    C1 4496  28.198  26.911   5.974
 4581THSLK    S 4497  30.584  28.755   7.024
 4582ETHY    C1 4498  30.400  28.354   6.917
 4583ETHY    C1 4499  30.250  27.876   6.732
 4584ETHY    C1 4500  30.184  27.413   6.491
 4585ETHY    C1 4501  30.197  26.973   6.206
 4586ETHY    C1 4502  30.294  26.566   5.885
 4587ETHY    C1 4503  30.474  26.198   5.533
 4588AUSL   AUS 4504  30.778  28.917   7.339
 4589AUSL   AUS 4505  30.891  29.174   6.992
 4590AUL    AUL 4506  30.929  28.796   7.012
 4591THSLK    S 4507  30.735  28.663   7.266
 4592ETHY    C1 4508  30.591  28.235   7.213
 4593ETHY    C1 4509  30.504  27.716   7.120
 4594ETHY    C1 4510  30.516  27.204   6.997
 4595ETHY    C1 4511  30.617  26.710   6.854
 4596ETHY    C1 4512  30.809  26.245   6.695
 4597ETHY    C1 4513  31.089  25.817   6.523
 4598THSLK    S 4514  31.008  28.984   6.859
 4599ETHY    C1 4515  31.052  28.582   6.651
 4600ETHY    C1 4516  31.162  28.151   6.355
 4601ETHY    C1 4517  31.338  27.788   6.017
 4602ETHY    C1 4518  31.569  27.494   5.651
 4603ETHY    C1 4519  31.855  27.277   5.264
 4604ETHY    C1 4520  32.192  27.141   4.865
 4605AUC    AUC 4521  31.227   5.170   7.503
 4606AUC    AUC 4522  31.472   5.170   7.351
 4607AUC    AUC 4523  31.472   5.170   7.654
 4608AUC    AUC 4524  30.982   5.170   7.351
 4609AUC    AUC 4525  30.982   5.170   7.654
 4610AUC    AUC 4526  31.075   5.416   7.503
 4611AUC    AUC 4527  31.379   5.416   7.503
 4612AUC    AUC 4528  31.075   4.925   7.503
 4613AUC    AUC 4529  31.379   4.925   7.503
 4614AUC    AUC 4530  31.227   5.019   7.748
 4615AUC    AUC 4531  31.227   5.322   7.748
 4616AUC    AUC 4532  31.227   5.019   7.257
 4617AUC    AUC 4533  31.227   5.322   7.257
 4618AUC    AUC 4534  31.718   5.170   7.199
 4619AUC    AUC 4535  31.718   5.170   7.503
 4620AUC    AUC 4536  31.718   5.170   7.806
 4621AUC    AUC 4537  30.736   5.170   7.199
 4622AUC    AUC 4538  30.736   5.170   7.503
 4623AUC    AUC 4539  30.736   5.170   7.806
 4624AUC    AUC 4540  30.924   5.661   7.503
 4625AUC    AUC 4541  31.227   5.661   7.503
 4626AUC    AUC 4542  31.530   5.661   7.503
 4627AUC    AUC 4543  30.924   4.680   7.503
 4628AUC    AUC 4544  31.227   4.680   7.503
 4629AUC    AUC 4545  31.530   4.680   7.503
 4630AUC    AUC 4546  31.227   4.867   7.993
 4631AUC    AUC 4547  31.227   5.170   7.993
 4632AUC    AUC 4548  31.227   5.474   7.993
 4633AUC    AUC 4549  31.227   4.867   7.012
 4634AUC    AUC 4550  31.227   5.170   7.012
 4635AUC    AUC 4551  31.227   5.474   7.012
 4636AUC    AUC 4552  31.472   5.019   7.900
 4637AUC    AUC 4553  31.472   5.322   7.900
 4638AUC    AUC 4554  31.472   5.019   7.106
 4639AUC    AUC 4555  31.472   5.322   7.106
 4640AUC    AUC 4556  30.982   5.019   7.900
 4641AUC    AUC 4557  30.982   5.322   7.900
 4642AUC    AUC 4558  30.982   5.019   7.106
 4643AUC    AUC 4559  30.982   5.322   7.106
 4644AUC    AUC 4560  31.624   5.416   7.351
 4645AUC    AUC 4561  31.624   5.416   7.654
 4646AUC    AUC 4562  30.830   5.416   7.351
 4647AUC    AUC 4563  30.830   5.416   7.654
 4648AUC    AUC 4564  31.624   4.925   7.351
 4649AUC    AUC 4565  31.624   4.925   7.654
 4650AUC    AUC 4566  30.830   4.925   7.351
 4651AUC    AUC 4567  30.830   4.925   7.654
 4652AUC    AUC 4568  31.075   5.568   7.748
 4653AUC    AUC 4569  31.379   5.568   7.748
 4654AUC    AUC 4570  31.075   4.773   7.748
 4655AUC    AUC 4571  31.379   4.773   7.748
 4656AUC    AUC 4572  31.075   5.568   7.257
 4657AUC    AUC 4573  31.379   5.568   7.257
 4658AUC    AUC 4574  31.075   4.773   7.257
 4659AUC    AUC 4575  31.379   4.773   7.257
 4660AUSL   AUS 4576  31.636   5.170   8.083
 4661AUSL   AUS 4577  31.492   4.754   8.013
 4662AUL    AUL 4578  31.718   4.867   8.297
 4663THSLK    S 4579  31.602   4.567   8.153
 4664ETHY    C1 4580  31.638   4.168   8.368
 4665ETHY    C1 4581  31.748   3.738   8.665
 4666ETHY    C1 4582  31.926   3.374   9.000
 4667ETHY    C1 4583  32.160   3.078   9.364
 4668ETHY    C1 4584  32.446   2.861   9.752
 4669ETHY    C1 4585  32.777   2.728  10.156
 4670THSLK    S 4586  31.729   5.118   8.324
 4671ETHY    C1 4587  31.933   4.898   8.665
 4672ETHY    C1 4588  32.197   4.721   9.094
 4673ETHY    C1 4589  32.473   4.645   9.535
 4674ETHY    C1 4590  32.750   4.662   9.980
 4675ETHY    C1 4591  33.020   4.775  10.419
 4676ETHY    C1 4592  33.279   4.984  10.845
 4677AUSL   AUS 4593  31.391   5.019   8.176
 4678AUSL   AUS 4594  31.063   5.322   8.176
 4679AUL    AUL 4595  31.227   5.170   8.484
 4680THSLK    S 4596  31.466   4.964   8.413
 4681ETHY    C1 4597  31.530   4.684   8.765
 4682ETHY    C1 4598  31.633   4.429   9.223
 4683ETHY    C1 4599  31.760   4.270   9.708
 4684ETHY    C1 4600  31.902   4.201  10.208
 4685ETHY    C1 4601  32.056   4.229  10.713
 4686ETHY    C1 4602  32.216   4.353  11.212
 4687THSLK    S 4603  30.978   5.276   8.428
 4688ETHY    C1 4604  30.904   5.126   8.850
 4689ETHY    C1 4605  30.799   5.038   9.367
 4690ETHY    C1 4606  30.677   5.050   9.878
 4691ETHY    C1 4607  30.539   5.151  10.373
 4692ETHY    C1 4608  30.384   5.344  10.840
 4693ETHY    C1 4609  30.215   5.625  11.268
 4694AUSL   AUS 4610  31.391   5.322   8.176
 4695AUSL   AUS 4611  31.737   5.435   7.919
 4696AUL    AUL 4612  31.718   5.474   8.297
 4697THSLK    S 4613  31.476   5.378   8.410
 4698ETHY    C1 4614  31.550   5.659   8.759
 4699ETHY    C1 4615  31.655   5.914   9.217
 4700ETHY    C1 4616  31.777   6.073   9.703
 4701ETHY    C1 4617  31.916   6.142  10.204
 4702ETHY    C1 4618  32.070   6.115  10.708
 4703ETHY    C1 4619  32.239   5.991  11.206
 4704THSLK    S 4620  31.909   5.533   8.080
 4705ETHY    C1 4621  32.272   5.504   8.350
 4706ETHY    C1 4622  32.694   5.560   8.673
 4707ETHY    C1 4623  33.086   5.714   8.989
 4708ETHY    C1 4624  33.440   5.952   9.293
 4709ETHY    C1 4625  33.747   6.273   9.580
 4710ETHY    C1 4626  33.998   6.670   9.844
 4711AUSL   AUS 4627  31.636   5.170   6.923
 4712AUSL   AUS 4628  31.492   5.587   6.992
 4713AUL    AUL 4629  31.718   5.474   6.708
 4714THSLK    S 4630  31.738   5.118   6.687
 4715ETHY    C1 4631  31.951   4.898   6.351
 4716ETHY    C1 4632  32.216   4.721   5.923
 4717ETHY    C1 4633  32.488   4.645   5.479
 4718ETHY    C1 4634  32.762   4.662   5.033
 4719ETHY    C1 4635  33.033   4.775   4.594
 4720ETHY    C1 4636  33.298   4.984   4.173
 4721THSLK    S 4637  31.670   5.698   6.829
 4722ETHY    C1 4638  31.972   5.766   6.497
 4723ETHY    C1 4639  32.291   5.929   6.100
 4724ETHY    C1 4640  32.556   6.176   5.719
 4725ETHY    C1 4641  32.768   6.496   5.362
 4726ETHY    C1 4642  32.921   6.886   5.039
 4727ETHY    C1 4643  33.012   7.338   4.759
 4728AUSL   AUS 4644  31.391   5.019   6.829
 4729AUSL   AUS 4645  31.737   4.906   7.086
 4730AUL    AUL 4646  31.718   4.867   6.708
 4731THSLK    S 4647  31.870   4.714   6.949
 4732ETHY    C1 4648  32.053   4.347   6.752
 4733ETHY    C1 4649  32.325   3.975   6.483
 4734ETHY    C1 4650  32.650   3.686   6.186
 4735ETHY    C1 4651  33.016   3.479   5.874
 4736ETHY    C1 4652  33.420   3.360   5.555
 4737ETHY    C1 4653  33.853   3.335   5.235
 4738THSLK    S 4654  31.476   4.963   6.596
 4739ETHY    C1 4655  31.550   4.682   6.246
 4740ETHY    C1 4656  31.655   4.426   5.788
 4741ETHY    C1 4657  31.777   4.268   5.302
 4742ETHY    C1 4658  31.916   4.199   4.801
 4743ETHY    C1 4659  32.070   4.226   4.297
 4744ETHY    C1 4660  32.239   4.350   3.799
 4745AUSL   AUS 4661  31.391   5.322   6.829
 4746AUSL   AUS 4662  31.063   5.019   6.829
 4747AUL    AUL 4663  31.227   5.170   6.521
 4748THSLK    S 4664  30.971   4.963   6.597
 4749ETHY    C1 4665  30.836   4.685   6.264
 4750ETHY    C1 4666  30.675   4.432   5.822
 4751ETHY    C1 4667  30.523   4.275   5.343
 4752ETHY    C1 4668  30.387   4.206   4.842
 4753ETHY    C1 4669  30.270   4.232   4.328
 4754ETHY    C1 4670  30.177   4.351   3.810
 4755THSLK    S 4671  31.493   5.276   6.583
 4756ETHY    C1 4672  31.639   5.126   6.179
 4757ETHY    C1 4673  31.801   5.035   5.678
 4758ETHY    C1 4674  31.948   5.045   5.173
 4759ETHY    C1 4675  32.081   5.146   4.677
 4760ETHY    C1 4676  32.198   5.341   4.200
 4761ETHY    C1 4677  32.299   5.627   3.754
 4762AUSL   AUS 4678  30.818   5.170   8.083
 4763AUSL   AUS 4679  30.962   5.587   8.013
 4764AUL    AUL 4680  30.736   5.474   8.297
 4765THSLK    S 4681  30.716   5.118   8.319
 4766ETHY    C1 4682  30.504   4.898   8.654
 4767ETHY    C1 4683  30.238   4.721   9.082
 4768ETHY    C1 4684  29.966   4.645   9.526
 4769ETHY    C1 4685  29.692   4.662   9.973
 4770ETHY    C1 4686  29.421   4.775  10.411
 4771ETHY    C1 4687  29.156   4.984  10.832
 4772THSLK    S 4688  30.845   5.711   8.202
 4773ETHY    C1 4689  30.802   5.854   8.632
 4774ETHY    C1 4690  30.691   6.079   9.104
 4775ETHY    C1 4691  30.515   6.356   9.515
 4776ETHY    C1 4692  30.284   6.672   9.863
 4777ETHY    C1 4693  29.998   7.020  10.138
 4778ETHY    C1 4694  29.661   7.393  10.334
 4779AUSL   AUS 4695  31.063   5.019   8.176
 4780AUSL   AUS 4696  30.717   4.906   7.919
 4781AUL    AUL 4697  30.736   4.867   8.297
 4782THSLK    S 4698  30.540   4.743   8.026
 4783ETHY    C1 4699  30.169   4.486   8.082
 4784ETHY    C1 4700  29.747   4.198   8.237
 4785ETHY    C1 4701  29.357   3.943   8.482
 4786ETHY    C1 4702  29.005   3.726   8.803
 4787ETHY    C1 4703  28.699   3.555   9.198
 4788ETHY    C1 4704  28.442   3.434   9.657
 4789THSLK    S 4705  30.961   4.965   8.406
 4790ETHY    C1 4706  30.815   4.689   8.736
 4791ETHY    C1 4707  30.653   4.437   9.178
 4792ETHY    C1 4708  30.506   4.279   9.658
 4793ETHY    C1 4709  30.373   4.209  10.160
 4794ETHY    C1 4710  30.256   4.235  10.674
 4795ETHY    C1 4711  30.155   4.356  11.190
 4796AUSL   AUS 4712  30.818   5.170   6.923
 4797AUSL   AUS 4713  30.962   4.754   6.992
 4798AUL    AUL 4714  30.736   4.867   6.708
 4799THSLK    S 4715  30.725   5.118   6.681
 4800ETHY    C1 4716  30.521   4.898   6.341
 4801ETHY    C1 4717  30.257   4.721   5.911
 4802ETHY    C1 4718  29.981   4.645   5.470
 4803ETHY    C1 4719  29.704   4.662   5.025
 4804ETHY    C1 4720  29.434   4.775   4.586
 4805ETHY    C1 4721  29.175   4.984   4.161
 4806THSLK    S 4722  30.791   4.581   6.878
 4807ETHY    C1 4723  30.496   4.255   6.760
 4808ETHY    C1 4724  30.178   3.888   6.538
 4809ETHY    C1 4725  29.910   3.553   6.233
 4810ETHY    C1 4726  29.696   3.253   5.861
 4811ETHY    C1 4727  29.544   2.995   5.426
 4812ETHY    C1 4728  29.458   2.783   4.937
 4813AUSL   AUS 4729  31.063   5.322   6.829
 4814AUSL   AUS 4730  30.717   5.435   7.086
 4815AUL    AUL 4731  30.736   5.474   6.708
 4816THSLK    S 4732  30.590   5.562   6.895
 4817ETHY    C1 4733  30.413   5.643   6.484
 4818ETHY    C1 4734  30.142   5.783   6.046
 4819ETHY    C1 4735  29.815   5.971   5.679
 4820ETHY    C1 4736  29.446   6.200   5.385
 4821ETHY    C1 4737  29.044   6.467   5.173
 4822ETHY    C1 4738  28.615   6.769   5.047
 4823THSLK    S 4739  30.988   5.278   6.576
 4824ETHY    C1 4740  30.924   5.131   6.150
 4825ETHY    C1 4741  30.821   5.042   5.634
 4826ETHY    C1 4742  30.694   5.053   5.123
 4827ETHY    C1 4743  30.552   5.154   4.629
 4828ETHY    C1 4744  30.399   5.347   4.162
 4829ETHY    C1 4745  30.238   5.630   3.732
 4830AUSL   AUS 4746  31.807   5.579   7.503
 4831AUSL   AUS 4747  31.737   5.435   7.086
 4832AUL    AUL 4748  32.021   5.661   7.199
 4833THSLK    S 4749  31.915   5.534   6.934
 4834ETHY    C1 4750  32.285   5.507   6.671
 4835ETHY    C1 4751  32.707   5.563   6.349
 4836ETHY    C1 4752  33.097   5.717   6.030
 4837ETHY    C1 4753  33.449   5.954   5.724
 4838ETHY    C1 4754  33.756   6.275   5.438
 4839ETHY    C1 4755  34.012   6.674   5.179
 4840THSLK    S 4756  32.073   5.632   7.508
 4841ETHY    C1 4757  32.527   5.654   7.513
 4842ETHY    C1 4758  33.049   5.768   7.514
 4843ETHY    C1 4759  33.532   5.977   7.511
 4844ETHY    C1 4760  33.968   6.267   7.510
 4845ETHY    C1 4761  34.347   6.634   7.510
 4846ETHY    C1 4762  34.661   7.074   7.514
 4847AUSL   AUS 4763  31.901   5.334   7.351
 4848AUSL   AUS 4764  31.901   5.007   7.654
 4849AUL    AUL 4765  32.209   5.170   7.503
 4850THSLK    S 4766  32.157   5.373   7.350
 4851ETHY    C1 4767  32.593   5.265   7.286
 4852ETHY    C1 4768  33.119   5.227   7.201
 4853ETHY    C1 4769  33.634   5.291   7.113
 4854ETHY    C1 4770  34.128   5.445   7.026
 4855ETHY    C1 4771  34.588   5.690   6.945
 4856ETHY    C1 4772  35.007   6.022   6.873
 4857THSLK    S 4773  32.128   4.867   7.663
 4858ETHY    C1 4774  32.447   4.551   7.728
 4859ETHY    C1 4775  32.880   4.247   7.807
 4860ETHY    C1 4776  33.355   4.037   7.887
 4861ETHY    C1 4777  33.858   3.916   7.971
 4862ETHY    C1 4778  34.378   3.890   8.058
 4863ETHY    C1 4779  34.906   3.960   8.147
 4864AUSL   AUS 4780  31.901   5.334   7.654
 4865AUSL   AUS 4781  31.643   5.681   7.767
 4866AUL    AUL 4782  32.021   5.661   7.806
 4867THSLK    S 4783  31.826   5.795   7.926
 4868ETHY    C1 4784  32.209   5.913   8.140
 4869ETHY    C1 4785  32.627   6.136   8.388
 4870ETHY    C1 4786  32.986   6.441   8.622
 4871ETHY    C1 4787  33.283   6.814   8.840
 4872ETHY    C1 4788  33.508   7.248   9.038
 4873ETHY    C1 4789  33.655   7.736   9.215
 4874THSLK    S 4790  32.155   5.373   7.665
 4875ETHY    C1 4791  32.590   5.265   7.740
 4876ETHY    C1 4792  33.116   5.227   7.826
 4877ETHY    C1 4793  33.631   5.290   7.910
 4878ETHY    C1 4794  34.125   5.444   7.993
 4879ETHY    C1 4795  34.586   5.689   8.075
 4880ETHY    C1 4796  35.003   6.021   8.155
 4881AUSL   AUS 4797  30.647   5.579   7.503
 4882AUSL   AUS 4798  30.717   5.435   7.919
 4883AUL    AUL 4799  30.433   5.661   7.806
 4884THSLK    S 4800  30.584   5.554   8.109
 4885ETHY    C1 4801  30.401   5.626   8.519
 4886ETHY    C1 4802  30.129   5.766   8.957
 4887ETHY    C1 4803  29.804   5.957   9.324
 4888ETHY    C1 4804  29.438   6.188   9.619
 4889ETHY    C1 4805  29.035   6.455   9.831
 4890ETHY    C1 4806  28.601   6.751   9.956
 4891THSLK    S 4807  30.436   5.720   7.508
 4892ETHY    C1 4808  30.214   6.117   7.513
 4893ETHY    C1 4809  29.878   6.532   7.514
 4894ETHY    C1 4810  29.475   6.871   7.511
 4895ETHY    C1 4811  29.021   7.132   7.510
 4896ETHY    C1 4812  28.522   7.306   7.510
 4897ETHY    C1 4813  27.989   7.390   7.514
 4898AUSL   AUS 4814  30.553   5.334   7.351
 4899AUSL   AUS 4815  30.811   5.681   7.238
 4900AUL    AUL 4816  30.433   5.661   7.199
 4901THSLK    S 4817  30.326   5.449   7.303
 4902ETHY    C1 4818  30.007   5.649   7.049
 4903ETHY    C1 4819  29.574   5.855   6.813
 4904ETHY    C1 4820  29.099   6.021   6.661
 4905ETHY    C1 4821  28.596   6.150   6.590
 4906ETHY    C1 4822  28.076   6.240   6.605
 4907ETHY    C1 4823  27.548   6.288   6.708
 4908THSLK    S 4824  30.699   5.844   7.060
 4909ETHY    C1 4825  30.620   6.154   6.737
 4910ETHY    C1 4826  30.445   6.528   6.397
 4911ETHY    C1 4827  30.191   6.896   6.120
 4912ETHY    C1 4828  29.871   7.253   5.909
 4913ETHY    C1 4829  29.490   7.591   5.770
 4914ETHY    C1 4830  29.055   7.905   5.709
 4915AUSL   AUS 4831  30.553   5.334   7.654
 4916AUSL   AUS 4832  30.553   5.007   7.351
 4917AUL    AUL 4833  30.245   5.170   7.503
 4918THSLK    S 4834  30.299   4.934   7.394
 4919ETHY    C1 4835  29.864   4.916   7.524
 4920ETHY    C1 4836  29.338   4.856   7.597
 4921ETHY    C1 4837  28.823   4.752   7.578
 4922ETHY    C1 4838  28.329   4.609   7.477
 4923ETHY    C1 4839  27.869   4.426   7.294
 4924ETHY    C1 4840  27.451   4.206   7.034
 4925THSLK    S 4841  30.325   5.440   7.707
 4926ETHY    C1 4842  30.004   5.631   7.966
 4927ETHY    C1 4843  29.571   5.835   8.202
 4928ETHY    C1 4844  29.096   6.006   8.352
 4929ETHY    C1 4845  28.594   6.138   8.422
 4930ETHY    C1 4846  28.074   6.226   8.407
 4931ETHY    C1 4847  27.545   6.267   8.308
 4932AUSL   AUS 4848  31.807   4.761   7.503
 4933AUSL   AUS 4849  31.737   4.906   7.919
 4934AUL    AUL 4850  32.021   4.680   7.806
 4935THSLK    S 4851  32.018   4.620   7.508
 4936ETHY    C1 4852  32.240   4.224   7.513
 4937ETHY    C1 4853  32.576   3.809   7.514
 4938ETHY    C1 4854  32.979   3.470   7.511
 4939ETHY    C1 4855  33.433   3.209   7.510
 4940ETHY    C1 4856  33.932   3.035   7.510
 4941ETHY    C1 4857  34.465   2.951   7.514
 4942THSLK    S 4858  31.864   4.715   8.064
 4943ETHY    C1 4859  32.041   4.350   8.270
 4944ETHY    C1 4860  32.312   3.978   8.540
 4945ETHY    C1 4861  32.639   3.689   8.834
 4946ETHY    C1 4862  33.008   3.481   9.142
 4947ETHY    C1 4863  33.410   3.363   9.462
 4948ETHY    C1 4864  33.839   3.338   9.789
 4949AUSL   AUS 4865  31.901   5.007   7.351
 4950AUSL   AUS 4866  31.643   4.660   7.238
 4951AUL    AUL 4867  32.021   4.680   7.199
 4952THSLK    S 4868  32.129   4.867   7.353
 4953ETHY    C1 4869  32.450   4.550   7.298
 4954ETHY    C1 4870  32.883   4.247   7.221
 4955ETHY    C1 4871  33.358   4.037   7.136
 4956ETHY    C1 4872  33.860   3.916   7.048
 4957ETHY    C1 4873  34.380   3.889   6.963
 4958ETHY    C1 4874  34.909   3.960   6.881
 4959THSLK    S 4875  31.759   4.471   7.108
 4960ETHY    C1 4876  31.843   4.042   6.984
 4961ETHY    C1 4877  32.018   3.570   6.803
 4962ETHY    C1 4878  32.271   3.159   6.593
 4963ETHY    C1 4879  32.589   2.811   6.366
 4964ETHY    C1 4880  32.971   2.536   6.126
 4965ETHY    C1 4881  33.409   2.339   5.880
 4966AUSL   AUS 4882  30.647   4.761   7.503
 4967AUSL   AUS 4883  30.717   4.906   7.086
 4968AUL    AUL 4884  30.433   4.680   7.199
 4969THSLK    S 4885  30.546   4.735   6.978
 4970ETHY    C1 4886  30.182   4.470   6.921
 4971ETHY    C1 4887  29.760   4.180   6.766
 4972ETHY    C1 4888  29.368   3.928   6.521
 4973ETHY    C1 4889  29.014   3.715   6.200
 4974ETHY    C1 4890  28.707   3.542   5.806
 4975ETHY    C1 4891  28.456   3.415   5.346
 4976THSLK    S 4892  30.381   4.709   7.508
 4977ETHY    C1 4893  29.927   4.687   7.513
 4978ETHY    C1 4894  29.405   4.573   7.514
 4979ETHY    C1 4895  28.923   4.364   7.511
 4980ETHY    C1 4896  28.486   4.074   7.510
 4981ETHY    C1 4897  28.107   3.707   7.510
 4982ETHY    C1 4898  27.794   3.267   7.514
 4983AUSL   AUS 4899  30.553   5.007   7.654
 4984AUSL   AUS 4900  30.811   4.660   7.767
 4985AUL    AUL 4901  30.433   4.680   7.806
 4986THSLK    S 4902  30.623   4.520   7.878
 4987ETHY    C1 4903  30.236   4.283   7.893
 4988ETHY    C1 4904  29.818   3.963   7.982
 4989ETHY    C1 4905  29.460   3.614   8.149
 4990ETHY    C1 4906  29.165   3.250   8.382
 4991ETHY    C1 4907  28.940   2.879   8.683
 4992ETHY    C1 4908  28.789   2.508   9.045
 4993THSLK    S 4909  30.297   4.944   7.616
 4994ETHY    C1 4910  29.861   4.934   7.491
 4995ETHY    C1 4911  29.335   4.875   7.419
 4996ETHY    C1 4912  28.820   4.768   7.436
 4997ETHY    C1 4913  28.326   4.622   7.535
 4998ETHY    C1 4914  27.866   4.440   7.718
 4999ETHY    C1 4915  27.447   4.227   7.983
 5000AUSL   AUS 4916  31.227   5.750   7.912
 5001AUSL   AUS 4917  30.811   5.681   7.767
 5002AUL    AUL 4918  30.924   5.965   7.993
 5003THSLK    S 4919  30.695   5.837   7.952
 5004ETHY    C1 4920  30.611   6.139   8.280
 5005ETHY    C1 4921  30.436   6.512   8.621
 5006ETHY    C1 4922  30.183   6.883   8.895
 5007ETHY    C1 4923  29.865   7.242   9.105
 5008ETHY    C1 4924  29.483   7.580   9.244
 5009ETHY    C1 4925  29.045   7.888   9.309
 5010THSLK    S 4926  31.269   5.972   8.035
 5011ETHY    C1 4927  31.453   6.247   8.347
 5012ETHY    C1 4928  31.603   6.627   8.691
 5013ETHY    C1 4929  31.669   7.050   8.998
 5014ETHY    C1 4930  31.656   7.501   9.264
 5015ETHY    C1 4931  31.559   7.970   9.485
 5016ETHY    C1 4932  31.379   8.449   9.656
 5017AUSL   AUS 4933  31.075   5.844   7.666
 5018AUSL   AUS 4934  31.379   5.844   7.339
 5019AUL    AUL 4935  31.227   6.152   7.503
 5020THSLK    S 4936  31.118   6.088   7.776
 5021ETHY    C1 4937  31.262   6.482   7.951
 5022ETHY    C1 4938  31.349   6.976   8.137
 5023ETHY    C1 4939  31.337   7.477   8.294
 5024ETHY    C1 4940  31.236   7.975   8.425
 5025ETHY    C1 4941  31.044   8.456   8.527
 5026ETHY    C1 4942  30.764   8.911   8.600
 5027THSLK    S 4943  31.434   6.075   7.243
 5028ETHY    C1 4944  31.710   6.405   7.096
 5029ETHY    C1 4945  31.960   6.846   6.927
 5030ETHY    C1 4946  32.116   7.323   6.771
 5031ETHY    C1 4947  32.185   7.825   6.635
 5032ETHY    C1 4948  32.161   8.341   6.525
 5033ETHY    C1 4949  32.044   8.861   6.443
 5034AUSL   AUS 4950  31.379   5.844   7.666
 5035AUSL   AUS 4951  31.492   5.587   8.013
 5036AUL    AUL 4952  31.530   5.965   7.993
 5037THSLK    S 4953  31.663   5.695   8.183
 5038ETHY    C1 4954  31.958   5.760   8.523
 5039ETHY    C1 4955  32.276   5.922   8.920
 5040ETHY    C1 4956  32.544   6.171   9.298
 5041ETHY    C1 4957  32.758   6.493   9.653
 5042ETHY    C1 4958  32.910   6.881   9.976
 5043ETHY    C1 4959  32.996   7.331  10.262
 5044THSLK    S 4960  31.432   6.073   7.772
 5045ETHY    C1 4961  31.704   6.401   7.929
 5046ETHY    C1 4962  31.954   6.841   8.100
 5047ETHY    C1 4963  32.112   7.320   8.251
 5048ETHY    C1 4964  32.181   7.822   8.383
 5049ETHY    C1 4965  32.157   8.337   8.494
 5050ETHY    C1 4966  32.038   8.856   8.585
 5051AUSL   AUS 4967  31.227   4.590   7.912
 5052AUSL   AUS 4968  31.643   4.660   7.767
 5053AUL    AUL 4969  31.530   4.376   7.993
 5054THSLK    S 4970  31.180   4.340   7.989
 5055ETHY    C1 4971  30.990   3.944   8.103
 5056ETHY    C1 4972  30.839   3.466   8.289
 5057ETHY    C1 4973  30.776   3.001   8.528
 5058ETHY    C1 4974  30.791   2.559   8.809
 5059ETHY    C1 4975  30.887   2.152   9.132
 5060ETHY    C1 4976  31.062   1.789   9.489
 5061THSLK    S 4977  31.755   4.473   7.907
 5062ETHY    C1 4978  31.834   4.045   8.040
 5063ETHY    C1 4979  32.009   3.575   8.222
 5064ETHY    C1 4980  32.263   3.163   8.428
 5065ETHY    C1 4981  32.583   2.814   8.652
 5066ETHY    C1 4982  32.964   2.539   8.893
 5067ETHY    C1 4983  33.399   2.343   9.147
 5068AUSL   AUS 4984  31.075   4.497   7.666
 5069AUSL   AUS 4985  30.962   4.754   8.013
 5070AUL    AUL 4986  30.924   4.376   7.993
 5071THSLK    S 4987  31.020   4.261   7.745
 5072ETHY    C1 4988  30.745   3.902   7.788
 5073ETHY    C1 4989  30.494   3.437   7.869
 5074ETHY    C1 4990  30.338   2.947   7.981
 5075ETHY    C1 4991  30.269   2.448   8.122
 5076ETHY    C1 4992  30.293   1.948   8.292
 5077ETHY    C1 4993  30.410   1.460   8.489
 5078THSLK    S 4994  30.784   4.588   8.129
 5079ETHY    C1 4995  30.482   4.270   8.248
 5080ETHY    C1 4996  30.163   3.903   8.471
 5081ETHY    C1 4997  29.898   3.566   8.776
 5082ETHY    C1 4998  29.686   3.264   9.147
 5083ETHY    C1 4999  29.533   3.006   9.582
 5084ETHY    C1 5000  29.442   2.799  10.072
 5085AUSL   AUS 5001  31.379   4.497   7.666
 5086AUSL   AUS 5002  31.075   4.497   7.339
 5087AUL    AUL 5003  31.227   4.189   7.503
 5088THSLK    S 5004  31.022   4.258   7.270
 5089ETHY    C1 5005  30.750   3.896   7.236
 5090ETHY    C1 5006  30.500   3.431   7.157
 5091ETHY    C1 5007  30.343   2.942   7.041
 5092ETHY    C1 5008  30.273   2.443   6.896
 5093ETHY    C1 5009  30.297   1.944   6.727
 5094ETHY    C1 5010  30.416   1.453   6.538
 5095THSLK    S 5011  31.333   4.245   7.749
 5096ETHY    C1 5012  31.186   3.819   7.811
 5097ETHY    C1 5013  31.100   3.301   7.906
 5098ETHY    C1 5014  31.112   2.788   8.025
 5099ETHY    C1 5015  31.214   2.293   8.165
 5100ETHY    C1 5016  31.406   1.828   8.325
 5101ETHY    C1 5017  31.684   1.402   8.504
 5102AUSL   AUS 5018  31.227   5.750   7.094
 5103AUSL   AUS 5019  31.643   5.681   7.238
 5104AUL    AUL 5020  31.530   5.965   7.012
 5105THSLK    S 5021  31.274   5.977   6.977
 5106ETHY    C1 5022  31.464   6.256   6.674
 5107ETHY    C1 5023  31.615   6.637   6.330
 5108ETHY    C1 5024  31.679   7.057   6.021
 5109ETHY    C1 5025  31.663   7.507   5.752
 5110ETHY    C1 5026  31.567   7.977   5.532
 5111ETHY    C1 5027  31.392   8.460   5.366
 5112THSLK    S 5028  31.831   5.797   7.089
 5113ETHY    C1 5029  32.218   5.917   6.883
 5114ETHY    C1 5030  32.636   6.140   6.637
 5115ETHY    C1 5031  32.994   6.444   6.400
 5116ETHY    C1 5032  33.289   6.816   6.178
 5117ETHY    C1 5033  33.514   7.251   5.981
 5118ETHY    C1 5034  33.665   7.740   5.811
 5119AUSL   AUS 5035  31.075   5.844   7.339
 5120AUSL   AUS 5036  30.962   5.587   6.992
 5121AUL    AUL 5037  30.924   5.965   7.012
 5122THSLK    S 5038  31.121   6.091   7.239
 5123ETHY    C1 5039  31.268   6.488   7.074
 5124ETHY    C1 5040  31.354   6.982   6.889
 5125ETHY    C1 5041  31.342   7.483   6.727
 5126ETHY    C1 5042  31.240   7.979   6.593
 5127ETHY    C1 5043  31.048   8.460   6.492
 5128ETHY    C1 5044  30.770   8.918   6.427
 5129THSLK    S 5045  30.852   5.719   6.805
 5130ETHY    C1 5046  30.816   5.868   6.377
 5131ETHY    C1 5047  30.706   6.094   5.906
 5132ETHY    C1 5048  30.528   6.369   5.494
 5133ETHY    C1 5049  30.294   6.682   5.145
 5134ETHY    C1 5050  30.008   7.031   4.870
 5135ETHY    C1 5051  29.677   7.409   4.675
 5136AUSL   AUS 5052  31.227   4.590   7.094
 5137AUSL   AUS 5053  30.811   4.660   7.238
 5138AUL    AUL 5054  30.924   4.376   7.012
 5139THSLK    S 5055  30.628   4.512   7.134
 5140ETHY    C1 5056  30.245   4.268   7.124
 5141ETHY    C1 5057  29.827   3.947   7.035
 5142ETHY    C1 5058  29.468   3.601   6.866
 5143ETHY    C1 5059  29.171   3.240   6.631
 5144ETHY    C1 5060  28.946   2.868   6.331
 5145ETHY    C1 5061  28.799   2.491   5.974
 5146THSLK    S 5062  31.185   4.335   7.024
 5147ETHY    C1 5063  31.001   3.934   6.917
 5148ETHY    C1 5064  30.851   3.456   6.732
 5149ETHY    C1 5065  30.785   2.993   6.491
 5150ETHY    C1 5066  30.798   2.553   6.206
 5151ETHY    C1 5067  30.895   2.146   5.885
 5152ETHY    C1 5068  31.075   1.778   5.533
 5153AUSL   AUS 5069  31.379   4.497   7.339
 5154AUSL   AUS 5070  31.492   4.754   6.992
 5155AUL    AUL 5071  31.530   4.376   7.012
 5156THSLK    S 5072  31.336   4.243   7.266
 5157ETHY    C1 5073  31.192   3.815   7.213
 5158ETHY    C1 5074  31.105   3.296   7.120
 5159ETHY    C1 5075  31.117   2.784   6.997
 5160ETHY    C1 5076  31.218   2.290   6.854
 5161ETHY    C1 5077  31.410   1.825   6.695
 5162ETHY    C1 5078  31.690   1.397   6.523
 5163THSLK    S 5079  31.609   4.564   6.859
 5164ETHY    C1 5080  31.653   4.162   6.651
 5165ETHY    C1 5081  31.763   3.731   6.355
 5166ETHY    C1 5082  31.939   3.368   6.017
 5167ETHY    C1 5083  32.170   3.074   5.651
 5168ETHY    C1 5084  32.456   2.857   5.264
 5169ETHY    C1 5085  32.793   2.721   4.865
 5170AUC    AUC 5086  23.209  14.743   7.503
 5171AUC    AUC 5087  23.454  14.743   7.351
 5172AUC    AUC 5088  23.454  14.743   7.654
 5173AUC    AUC 5089  22.964  14.743   7.351
 5174AUC    AUC 5090  22.964  14.743   7.654
 5175AUC    AUC 5091  23.057  14.989   7.503
 5176AUC    AUC 5092  23.361  14.989   7.503
 5177AUC    AUC 5093  23.057  14.498   7.503
 5178AUC    AUC 5094  23.361  14.498   7.503
 5179AUC    AUC 5095  23.209  14.592   7.748
 5180AUC    AUC 5096  23.209  14.895   7.748
 5181AUC    AUC 5097  23.209  14.592   7.257
 5182AUC    AUC 5098  23.209  14.895   7.257
 5183AUC    AUC 5099  23.700  14.743   7.199
 5184AUC    AUC 5100  23.700  14.743   7.503
 5185AUC    AUC 5101  23.700  14.743   7.806
 5186AUC    AUC 5102  22.718  14.743   7.199
 5187AUC    AUC 5103  22.718  14.743   7.503
 5188AUC    AUC 5104  22.718  14.743   7.806
 5189AUC    AUC 5105  22.906  15.234   7.503
 5190AUC    AUC 5106  23.209  15.234   7.503
 5191AUC    AUC 5107  23.512  15.234   7.503
 5192AUC    AUC 5108  22.906  14.253   7.503
 5193AUC    AUC 5109  23.209  14.253   7.503
 5194AUC    AUC 5110  23.512  14.253   7.503
 5195AUC    AUC 5111  23.209  14.440   7.993
 5196AUC    AUC 5112  23.209  14.743   7.993
 5197AUC    AUC 5113  23.209  15.047   7.993
 5198AUC    AUC 5114  23.209  14.440   7.012
 5199AUC    AUC 5115  23.209  14.743   7.012
 5200AUC    AUC 5116  23.209  15.047   7.012
 5201AUC    AUC 5117  23.454  14.592   7.900
 5202AUC    AUC 5118  23.454  14.895   7.900
 5203AUC    AUC 5119  23.454  14.592   7.106
 5204AUC    AUC 5120  23.454  14.895   7.106
 5205AUC    AUC 5121  22.964  14.592   7.900
 5206AUC    AUC 5122  22.964  14.895   7.900
 5207AUC    AUC 5123  22.964  14.592   7.106
 5208AUC    AUC 5124  22.964  14.895   7.106
 5209AUC    AUC 5125  23.606  14.989   7.351
 5210AUC    AUC 5126  23.606  14.989   7.654
 5211AUC    AUC 5127  22.812  14.989   7.351
 5212AUC    AUC 5128  22.812  14.989   7.654
 5213AUC    AUC 5129  23.606  14.498   7.351
 5214AUC    AUC 5130  23.606  14.498   7.654
 5215AUC    AUC 5131  22.812  14.498   7.351
 5216AUC    AUC 5132  22.812  14.498   7.654
 5217AUC    AUC 5133  23.057  15.141   7.748
 5218AUC    AUC 5134  23.361  15.141   7.748
 5219AUC    AUC 5135  23.057  14.346   7.748
 5220AUC    AUC 5136  23.361  14.346   7.748
 5221AUC    AUC 5137  23.057  15.141   7.257
 5222AUC    AUC 5138  23.361  15.141   7.257
 5223AUC    AUC 5139  23.057  14.346   7.257
 5224AUC    AUC 5140  23.361  14.346   7.257
 5225AUSL   AUS 5141  23.618  14.743   8.083
 5226AUSL   AUS 5142  23.474  14.327   8.013
 5227AUL    AUL 5143  23.700  14.440   8.297
 5228THSLK    S 5144  23.584  14.140   8.153
 5229ETHY    C1 5145  23.620  13.741   8.368
 5230ETHY    C1 5146  23.730  13.311   8.665
 5231ETHY    C1 5147  23.908  12.947   9.000
 5232ETHY    C1 5148  24.142  12.651   9.364
 5233ETHY    C1 5149  24.428  12.434   9.752
 5234ETHY    C1 5150  24.759  12.301  10.156
 5235THSLK    S 5151  23.711  14.691   8.324
 5236ETHY    C1 5152  23.915  14.471   8.665
 5237ETHY    C1 5153  24.179  14.294   9.094
 5238ETHY    C1 5154  24.455  14.218   9.535
 5239ETHY    C1 5155  24.732  14.235   9.980
 5240ETHY    C1 5156  25.002  14.348  10.419
 5241ETHY    C1 5157  25.261  14.557  10.845
 5242AUSL   AUS 5158  23.373  14.592   8.176
 5243AUSL   AUS 5159  23.045  14.895   8.176
 5244AUL    AUL 5160  23.209  14.743   8.484
 5245THSLK    S 5161  23.448  14.537   8.413
 5246ETHY    C1 5162  23.512  14.257   8.765
 5247ETHY    C1 5163  23.615  14.002   9.223
 5248ETHY    C1 5164  23.742  13.843   9.708
 5249ETHY    C1 5165  23.884  13.774  10.208
 5250ETHY    C1 5166  24.038  13.802  10.713
 5251ETHY    C1 5167  24.198  13.926  11.212
 5252THSLK    S 5168  22.960  14.849   8.428
 5253ETHY    C1 5169  22.886  14.699   8.850
 5254ETHY    C1 5170  22.781  14.611   9.367
 5255ETHY    C1 5171  22.659  14.623   9.878
 5256ETHY    C1 5172  22.521  14.724  10.373
 5257ETHY    C1 5173  22.366  14.917  10.840
 5258ETHY    C1 5174  22.197  15.198  11.268
 5259AUSL   AUS 5175  23.373  14.895   8.176
 5260AUSL   AUS 5176  23.719  15.008   7.919
 5261AUL    AUL 5177  23.700  15.047   8.297
 5262THSLK    S 5178  23.458  14.951   8.410
 5263ETHY    C1 5179  23.532  15.232   8.759
 5264ETHY    C1 5180  23.637  15.487   9.217
 5265ETHY    C1 5181  23.759  15.646   9.703
 5266ETHY    C1 5182  23.898  15.715  10.204
 5267ETHY    C1 5183  24.052  15.688  10.708
 5268ETHY    C1 5184  24.221  15.564  11.206
 5269THSLK    S 5185  23.891  15.106   8.080
 5270ETHY    C1 5186  24.254  15.077   8.350
 5271ETHY    C1 5187  24.676  15.133   8.673
 5272ETHY    C1 5188  25.068  15.287   8.989
 5273ETHY    C1 5189  25.422  15.525   9.293
 5274ETHY    C1 5190  25.729  15.846   9.580
 5275ETHY    C1 5191  25.980  16.243   9.844
 5276AUSL   AUS 5192  23.618  14.743   6.923
 5277AUSL   AUS 5193  23.474  15.160   6.992
 5278AUL    AUL 5194  23.700  15.047   6.708
 5279THSLK    S 5195  23.720  14.691   6.687
 5280ETHY    C1 5196  23.933  14.471   6.351
 5281ETHY    C1 5197  24.198  14.294   5.923
 5282ETHY    C1 5198  24.470  14.218   5.479
 5283ETHY    C1 5199  24.744  14.235   5.033
 5284ETHY    C1 5200  25.015  14.348   4.594
 5285ETHY    C1 5201  25.280  14.557   4.173
 5286THSLK    S 5202  23.652  15.271   6.829
 5287ETHY    C1 5203  23.954  15.339   6.497
 5288ETHY    C1 5204  24.273  15.502   6.100
 5289ETHY    C1 5205  24.538  15.749   5.719
 5290ETHY    C1 5206  24.750  16.069   5.362
 5291ETHY    C1 5207  24.903  16.459   5.039
 5292ETHY    C1 5208  24.994  16.911   4.759
 5293AUSL   AUS 5209  23.373  14.592   6.829
 5294AUSL   AUS 5210  23.719  14.479   7.086
 5295AUL    AUL 5211  23.700  14.440   6.708
 5296THSLK    S 5212  23.852  14.287   6.949
 5297ETHY    C1 5213  24.035  13.920   6.752
 5298ETHY    C1 5214  24.307  13.548   6.483
 5299ETHY    C1 5215  24.632  13.259   6.186
 5300ETHY    C1 5216  24.998  13.052   5.874
 5301ETHY    C1 5217  25.402  12.933   5.555
 5302ETHY    C1 5218  25.835  12.908   5.235
 5303THSLK    S 5219  23.458  14.536   6.596
 5304ETHY    C1 5220  23.532  14.255   6.246
 5305ETHY    C1 5221  23.637  13.999   5.788
 5306ETHY    C1 5222  23.759  13.841   5.302
 5307ETHY    C1 5223  23.898  13.772   4.801
 5308ETHY    C1 5224  24.052  13.799   4.297
 5309ETHY    C1 5225  24.221  13.923   3.799
 5310AUSL   AUS 5226  23.373  14.895   6.829
 5311AUSL   AUS 5227  23.045  14.592   6.829
 5312AUL    AUL 5228  23.209  14.743   6.521
 5313THSLK    S 5229  22.953  14.536   6.597
 5314ETHY    C1 5230  22.818  14.258   6.264
 5315ETHY    C1 5231  22.657  14.005   5.822
 5316ETHY    C1 5232  22.505  13.848   5.343
 5317ETHY    C1 5233  22.369  13.779   4.842
 5318ETHY    C1 5234  22.252  13.805   4.328
 5319ETHY    C1 5235  22.159  13.924   3.810
 5320THSLK    S 5236  23.475  14.849   6.583
 5321ETHY    C1 5237  23.621  14.699   6.179
 5322ETHY    C1 5238  23.783  14.608   5.678
 5323ETHY    C1 5239  23.930  14.618   5.173
 5324ETHY    C1 5240  24.063  14.719   4.677
 5325ETHY    C1 5241  24.180  14.914   4.200
 5326ETHY    C1 5242  24.281  15.200   3.754
 5327AUSL   AUS 5243  22.800  14.743   8.083
 5328AUSL   AUS 5244  22.944  15.160   8.013
 5329AUL    AUL 5245  22.718  15.047   8.297
 5330THSLK    S 5246  22.698  14.691   8.319
 5331ETHY    C1 5247  22.486  14.471   8.654
 5332ETHY    C1 5248  22.220  14.294   9.082
 5333ETHY    C1 5249  21.948  14.218   9.526
 5334ETHY    C1 5250  21.674  14.235   9.973
 5335ETHY    C1 5251  21.403  14.348  10.411
 5336ETHY    C1 5252  21.138  14.557  10.832
 5337THSLK    S 5253  22.827  15.284   8.202
 5338ETHY    C1 5254  22.784  15.427   8.632
 5339ETHY    C1 5255  22.673  15.652   9.104
 5340ETHY    C1 5256  22.497  15.929   9.515
 5341ETHY    C1 5257  22.266  16.245   9.863
 5342ETHY    C1 5258  21.980  16.593  10.138
 5343ETHY    C1 5259  21.643  16.966  10.334
 5344AUSL   AUS 5260  23.045  14.592   8.176
 5345AUSL   AUS 5261  22.699  14.479   7.919
 5346AUL    AUL 5262  22.718  14.440   8.297
 5347THSLK    S 5263  22.522  14.316   8.026
 5348ETHY    C1 5264  22.151  14.059   8.082
 5349ETHY    C1 5265  21.729  13.771   8.237
 5350ETHY    C1 5266  21.339  13.516   8.482
 5351ETHY    C1 5267  20.987  13.299   8.803
 5352ETHY    C1 5268  20.681  13.128   9.198
 5353ETHY    C1 5269  20.424  13.007   9.657
 5354THSLK    S 5270  22.943  14.538   8.406
 5355ETHY    C1 5271  22.797  14.262   8.736
 5356ETHY    C1 5272  22.635  14.010   9.178
 5357ETHY    C1 5273  22.488  13.852   9.658
 5358ETHY    C1 5274  22.355  13.782  10.160
 5359ETHY    C1 5275  22.238  13.808  10.674
 5360ETHY    C1 5276  22.137  13.929  11.190
 5361AUSL   AUS 5277  22.800  14.743   6.923
 5362AUSL   AUS 5278  22.944  14.327   6.992
 5363AUL    AUL 5279  22.718  14.440   6.708
 5364THSLK    S 5280  22.707  14.691   6.681
 5365ETHY    C1 5281  22.503  14.471   6.341
 5366ETHY    C1 5282  22.239  14.294   5.911
 5367ETHY    C1 5283  21.963  14.218   5.470
 5368ETHY    C1 5284  21.686  14.235   5.025
 5369ETHY    C1 5285  21.416  14.348   4.586
 5370ETHY    C1 5286  21.157  14.557   4.161
 5371THSLK    S 5287  22.773  14.154   6.878
 5372ETHY    C1 5288  22.478  13.828   6.760
 5373ETHY    C1 5289  22.160  13.461   6.538
 5374ETHY    C1 5290  21.892  13.126   6.233
 5375ETHY    C1 5291  21.678  12.826   5.861
 5376ETHY    C1 5292  21.526  12.568   5.426
 5377ETHY    C1 5293  21.440  12.356   4.937
 5378AUSL   AUS 5294  23.045  14.895   6.829
 5379AUSL   AUS 5295  22.699  15.008   7.086
 5380AUL    AUL 5296  22.718  15.047   6.708
 5381THSLK    S 5297  22.572  15.135   6.895
 5382ETHY    C1 5298  22.395  15.216   6.484
 5383ETHY    C1 5299  22.124  15.356   6.046
 5384ETHY    C1 5300  21.797  15.544   5.679
 5385ETHY    C1 5301  21.428  15.773   5.385
 5386ETHY    C1 5302  21.026  16.040   5.173
 5387ETHY    C1 5303  20.597  16.342   5.047
 5388THSLK    S 5304  22.970  14.851   6.576
 5389ETHY    C1 5305  22.906  14.704   6.150
 5390ETHY    C1 5306  22.803  14.615   5.634
 5391ETHY    C1 5307  22.676  14.626   5.123
 5392ETHY    C1 5308  22.534  14.727   4.629
 5393ETHY    C1 5309  22.381  14.920   4.162
 5394ETHY    C1 5310  22.220  15.203   3.732
 5395AUSL   AUS 5311  23.789  15.152   7.503
 5396AUSL   AUS 5312  23.719  15.008   7.086
 5397AUL    AUL 5313  24.003  15.234   7.199
 5398THSLK    S 5314  23.897  15.107   6.934
 5399ETHY    C1 5315  24.267  15.080   6.671
 5400ETHY    C1 5316  24.689  15.136   6.349
 5401ETHY    C1 5317  25.079  15.290   6.030
 5402ETHY    C1 5318  25.431  15.527   5.724
 5403ETHY    C1 5319  25.738  15.848   5.438
 5404ETHY    C1 5320  25.994  16.247   5.179
 5405THSLK    S 5321  24.055  15.205   7.508
 5406ETHY    C1 5322  24.509  15.227   7.513
 5407ETHY    C1 5323  25.031  15.341   7.514
 5408ETHY    C1 5324  25.514  15.550   7.511
 5409ETHY    C1 5325  25.950  15.840   7.510
 5410ETHY    C1 5326  26.329  16.207   7.510
 5411ETHY    C1 5327  26.643  16.647   7.514
 5412AUSL   AUS 5328  23.883  14.907   7.351
 5413AUSL   AUS 5329  23.883  14.580   7.654
 5414AUL    AUL 5330  24.191  14.743   7.503
 5415THSLK    S 5331  24.139  14.946   7.350
 5416ETHY    C1 5332  24.575  14.838   7.286
 5417ETHY    C1 5333  25.101  14.800   7.201
 5418ETHY    C1 5334  25.616  14.864   7.113
 5419ETHY    C1 5335  26.110  15.018   7.026
 5420ETHY    C1 5336  26.570  15.263   6.945
 5421ETHY    C1 5337  26.989  15.595   6.873
 5422THSLK    S 5338  24.110  14.440   7.663
 5423ETHY    C1 5339  24.429  14.124   7.728
 5424ETHY    C1 5340  24.862  13.820   7.807
 5425ETHY    C1 5341  25.337  13.610   7.887
 5426ETHY    C1 5342  25.840  13.489   7.971
 5427ETHY    C1 5343  26.360  13.463   8.058
 5428ETHY    C1 5344  26.888  13.533   8.147
 5429AUSL   AUS 5345  23.883  14.907   7.654
 5430AUSL   AUS 5346  23.625  15.254   7.767
 5431AUL    AUL 5347  24.003  15.234   7.806
 5432THSLK    S 5348  23.808  15.368   7.926
 5433ETHY    C1 5349  24.191  15.486   8.140
 5434ETHY    C1 5350  24.609  15.709   8.388
 5435ETHY    C1 5351  24.968  16.014   8.622
 5436ETHY    C1 5352  25.265  16.387   8.840
 5437ETHY    C1 5353  25.490  16.821   9.038
 5438ETHY    C1 5354  25.637  17.309   9.215
 5439THSLK    S 5355  24.137  14.946   7.665
 5440ETHY    C1 5356  24.572  14.838   7.740
 5441ETHY    C1 5357  25.098  14.800   7.826
 5442ETHY    C1 5358  25.613  14.863   7.910
 5443ETHY    C1 5359  26.107  15.017   7.993
 5444ETHY    C1 5360  26.568  15.262   8.075
 5445ETHY    C1 5361  26.985  15.594   8.155
 5446AUSL   AUS 5362  22.629  15.152   7.503
 5447AUSL   AUS 5363  22.699  15.008   7.919
 5448AUL    AUL 5364  22.415  15.234   7.806
 5449THSLK    S 5365  22.566  15.127   8.109
 5450ETHY    C1 5366  22.383  15.199   8.519
 5451ETHY    C1 5367  22.111  15.339   8.957
 5452ETHY    C1 5368  21.786  15.530   9.324
 5453ETHY    C1 5369  21.420  15.761   9.619
 5454ETHY    C1 5370  21.017  16.028   9.831
 5455ETHY    C1 5371  20.583  16.324   9.956
 5456THSLK    S 5372  22.418  15.293   7.508
 5457ETHY    C1 5373  22.196  15.690   7.513
 5458ETHY    C1 5374  21.860  16.105   7.514
 5459ETHY    C1 5375  21.457  16.444   7.511
 5460ETHY    C1 5376  21.003  16.705   7.510
 5461ETHY    C1 5377  20.504  16.879   7.510
 5462ETHY    C1 5378  19.971  16.963   7.514
 5463AUSL   AUS 5379  22.535  14.907   7.351
 5464AUSL   AUS 5380  22.793  15.254   7.238
 5465AUL    AUL 5381  22.415  15.234   7.199
 5466THSLK    S 5382  22.308  15.022   7.303
 5467ETHY    C1 5383  21.989  15.222   7.049
 5468ETHY    C1 5384  21.556  15.428   6.813
 5469ETHY    C1 5385  21.081  15.594   6.661
 5470ETHY    C1 5386  20.578  15.723   6.590
 5471ETHY    C1 5387  20.058  15.813   6.605
 5472ETHY    C1 5388  19.530  15.861   6.708
 5473THSLK    S 5389  22.681  15.417   7.060
 5474ETHY    C1 5390  22.602  15.727   6.737
 5475ETHY    C1 5391  22.427  16.101   6.397
 5476ETHY    C1 5392  22.173  16.469   6.120
 5477ETHY    C1 5393  21.853  16.826   5.909
 5478ETHY    C1 5394  21.472  17.164   5.770
 5479ETHY    C1 5395  21.037  17.478   5.709
 5480AUSL   AUS 5396  22.535  14.907   7.654
 5481AUSL   AUS 5397  22.535  14.580   7.351
 5482AUL    AUL 5398  22.227  14.743   7.503
 5483THSLK    S 5399  22.281  14.507   7.394
 5484ETHY    C1 5400  21.846  14.489   7.524
 5485ETHY    C1 5401  21.320  14.429   7.597
 5486ETHY    C1 5402  20.805  14.325   7.578
 5487ETHY    C1 5403  20.311  14.182   7.477
 5488ETHY    C1 5404  19.851  13.999   7.294
 5489ETHY    C1 5405  19.433  13.779   7.034
 5490THSLK    S 5406  22.307  15.013   7.707
 5491ETHY    C1 5407  21.986  15.204   7.966
 5492ETHY    C1 5408  21.553  15.408   8.202
 5493ETHY    C1 5409  21.078  15.579   8.352
 5494ETHY    C1 5410  20.576  15.711   8.422
 5495ETHY    C1 5411  20.056  15.799   8.407
 5496ETHY    C1 5412  19.527  15.840   8.308
 5497AUSL   AUS 5413  23.789  14.334   7.503
 5498AUSL   AUS 5414  23.719  14.479   7.919
 5499AUL    AUL 5415  24.003  14.253   7.806
 5500THSLK    S 5416  24.000  14.193   7.508
 5501ETHY    C1 5417  24.222  13.797   7.513
 5502ETHY    C1 5418  24.558  13.382   7.514
 5503ETHY    C1 5419  24.961  13.043   7.511
 5504ETHY    C1 5420  25.415  12.782   7.510
 5505ETHY    C1 5421  25.914  12.608   7.510
 5506ETHY    C1 5422  26.447  12.524   7.514
 5507THSLK    S 5423  23.846  14.288   8.064
 5508ETHY    C1 5424  24.023  13.923   8.270
 5509ETHY    C1 5425  24.294  13.551   8.540
 5510ETHY    C1 5426  24.621  13.262   8.834
 5511ETHY    C1 5427  24.990  13.054   9.142
 5512ETHY    C1 5428  25.392  12.936   9.462
 5513ETHY    C1 5429  25.821  12.911   9.789
 5514AUSL   AUS 5430  23.883  14.580   7.351
 5515AUSL   AUS 5431  23.625  14.233   7.238
 5516AUL    AUL 5432  24.003  14.253   7.199
 5517THSLK    S 5433  24.111  14.440   7.353
 5518ETHY    C1 5434  24.432  14.123   7.298
 5519ETHY    C1 5435  24.865  13.820   7.221
 5520ETHY    C1 5436  25.340  13.610   7.136
 5521ETHY    C1 5437  25.842  13.489   7.048
 5522ETHY    C1 5438  26.362  13.462   6.963
 5523ETHY    C1 5439  26.891  13.533   6.881
 5524THSLK    S 5440  23.741  14.044   7.108
 5525ETHY    C1 5441  23.825  13.615   6.984
 5526ETHY    C1 5442  24.000  13.143   6.803
 5527ETHY    C1 5443  24.253  12.732   6.593
 5528ETHY    C1 5444  24.571  12.384   6.366
 5529ETHY    C1 5445  24.953  12.109   6.126
 5530ETHY    C1 5446  25.391  11.912   5.880
 5531AUSL   AUS 5447  22.629  14.334   7.503
 5532AUSL   AUS 5448  22.699  14.479   7.086
 5533AUL    AUL 5449  22.415  14.253   7.199
 5534THSLK    S 5450  22.528  14.308   6.978
 5535ETHY    C1 5451  22.164  14.043   6.921
 5536ETHY    C1 5452  21.742  13.753   6.766
 5537ETHY    C1 5453  21.350  13.501   6.521
 5538ETHY    C1 5454  20.996  13.288   6.200
 5539ETHY    C1 5455  20.689  13.115   5.806
 5540ETHY    C1 5456  20.438  12.988   5.346
 5541THSLK    S 5457  22.363  14.282   7.508
 5542ETHY    C1 5458  21.909  14.260   7.513
 5543ETHY    C1 5459  21.387  14.146   7.514
 5544ETHY    C1 5460  20.905  13.937   7.511
 5545ETHY    C1 5461  20.468  13.647   7.510
 5546ETHY    C1 5462  20.089  13.280   7.510
 5547ETHY    C1 5463  19.776  12.840   7.514
 5548AUSL   AUS 5464  22.535  14.580   7.654
 5549AUSL   AUS 5465  22.793  14.233   7.767
 5550AUL    AUL 5466  22.415  14.253   7.806
 5551THSLK    S 5467  22.605  14.093   7.878
 5552ETHY    C1 5468  22.218  13.856   7.893
 5553ETHY    C1 5469  21.800  13.536   7.982
 5554ETHY    C1 5470  21.442  13.187   8.149
 5555ETHY    C1 5471  21.147  12.823   8.382
 5556ETHY    C1 5472  20.922  12.452   8.683
 5557ETHY    C1 5473  20.771  12.081   9.045
 5558THSLK    S 5474  22.279  14.517   7.616
 5559ETHY    C1 5475  21.843  14.507   7.491
 5560ETHY    C1 5476  21.317  14.448   7.419
 5561ETHY    C1 5477  20.802  14.341   7.436
 5562ETHY    C1 5478  20.308  14.195   7.535
 5563ETHY    C1 5479  19.848  14.013   7.718
 5564ETHY    C1 5480  19.429  13.800   7.983
 5565AUSL   AUS 5481  23.209  15.323   7.912
 5566AUSL   AUS 5482  22.793  15.254   7.767
 5567AUL    AUL 5483  22.906  15.538   7.993
 5568THSLK    S 5484  22.677  15.410   7.952
 5569ETHY    C1 5485  22.593  15.712   8.280
 5570ETHY    C1 5486  22.418  16.085   8.621
 5571ETHY    C1 5487  22.165  16.456   8.895
 5572ETHY    C1 5488  21.847  16.815   9.105
 5573ETHY    C1 5489  21.465  17.153   9.244
 5574ETHY    C1 5490  21.027  17.461   9.309
 5575THSLK    S 5491  23.251  15.545   8.035
 5576ETHY    C1 5492  23.435  15.820   8.347
 5577ETHY    C1 5493  23.585  16.200   8.691
 5578ETHY    C1 5494  23.651  16.623   8.998
 5579ETHY    C1 5495  23.638  17.074   9.264
 5580ETHY    C1 5496  23.541  17.543   9.485
 5581ETHY    C1 5497  23.361  18.022   9.656
 5582AUSL   AUS 5498  23.057  15.417   7.666
 5583AUSL   AUS 5499  23.361  15.417   7.339
 5584AUL    AUL 5500  23.209  15.725   7.503
 5585THSLK    S 5501  23.100  15.661   7.776
 5586ETHY    C1 5502  23.244  16.055   7.951
 5587ETHY    C1 5503  23.331  16.549   8.137
 5588ETHY    C1 5504  23.319  17.050   8.294
 5589ETHY    C1 5505  23.218  17.548   8.425
 5590ETHY    C1 5506  23.026  18.029   8.527
 5591ETHY    C1 5507  22.746  18.484   8.600
 5592THSLK    S 5508  23.416  15.648   7.243
 5593ETHY    C1 5509  23.692  15.978   7.096
 5594ETHY    C1 5510  23.942  16.419   6.927
 5595ETHY    C1 5511  24.098  16.896   6.771
 5596ETHY    C1 5512  24.167  17.398   6.635
 5597ETHY    C1 5513  24.143  17.914   6.525
 5598ETHY    C1 5514  24.026  18.434   6.443
 5599AUSL   AUS 5515  23.361  15.417   7.666
 5600AUSL   AUS 5516  23.474  15.160   8.013
 5601AUL    AUL 5517  23.512  15.538   7.993
 5602THSLK    S 5518  23.645  15.268   8.183
 5603ETHY    C1 5519  23.940  15.333   8.523
 5604ETHY    C1 5520  24.258  15.495   8.920
 5605ETHY    C1 5521  24.526  15.744   9.298
 5606ETHY    C1 5522  24.740  16.066   9.653
 5607ETHY    C1 5523  24.892  16.454   9.976
 5608ETHY    C1 5524  24.978  16.904  10.262
 5609THSLK    S 5525  23.414  15.646   7.772
 5610ETHY    C1 5526  23.686  15.974   7.929
 5611ETHY    C1 5527  23.936  16.414   8.100
 5612ETHY    C1 5528  24.094  16.893   8.251
 5613ETHY    C1 5529  24.163  17.395   8.383
 5614ETHY    C1 5530  24.139  17.910   8.494
 5615ETHY    C1 5531  24.020  18.429   8.585
 5616AUSL   AUS 5532  23.209  14.163   7.912
 5617AUSL   AUS 5533  23.625  14.233   7.767
 5618AUL    AUL 5534  23.512  13.949   7.993
 5619THSLK    S 5535  23.162  13.913   7.989
 5620ETHY    C1 5536  22.972  13.517   8.103
 5621ETHY    C1 5537  22.821  13.039   8.289
 5622ETHY    C1 5538  22.758  12.574   8.528
 5623ETHY    C1 5539  22.773  12.132   8.809
 5624ETHY    C1 5540  22.869  11.725   9.132
 5625ETHY    C1 5541  23.044  11.362   9.489
 5626THSLK    S 5542  23.737  14.046   7.907
 5627ETHY    C1 5543  23.816  13.618   8.040
 5628ETHY    C1 5544  23.991  13.148   8.222
 5629ETHY    C1 5545  24.245  12.736   8.428
 5630ETHY    C1 5546  24.565  12.387   8.652
 5631ETHY    C1 5547  24.946  12.112   8.893
 5632ETHY    C1 5548  25.381  11.916   9.147
 5633AUSL   AUS 5549  23.057  14.070   7.666
 5634AUSL   AUS 5550  22.944  14.327   8.013
 5635AUL    AUL 5551  22.906  13.949   7.993
 5636THSLK    S 5552  23.002  13.834   7.745
 5637ETHY    C1 5553  22.727  13.475   7.788
 5638ETHY    C1 5554  22.476  13.010   7.869
 5639ETHY    C1 5555  22.320  12.520   7.981
 5640ETHY    C1 5556  22.251  12.021   8.122
 5641ETHY    C1 5557  22.275  11.521   8.292
 5642ETHY    C1 5558  22.392  11.033   8.489
 5643THSLK    S 5559  22.766  14.161   8.129
 5644ETHY    C1 5560  22.464  13.843   8.248
 5645ETHY    C1 5561  22.145  13.476   8.471
 5646ETHY    C1 5562  21.880  13.139   8.776
 5647ETHY    C1 5563  21.668  12.837   9.147
 5648ETHY    C1 5564  21.515  12.579   9.582
 5649ETHY    C1 5565  21.424  12.372  10.072
 5650AUSL   AUS 5566  23.361  14.070   7.666
 5651AUSL   AUS 5567  23.057  14.070   7.339
 5652AUL    AUL 5568  23.209  13.762   7.503
 5653THSLK    S 5569  23.004  13.831   7.270
 5654ETHY    C1 5570  22.732  13.469   7.236
 5655ETHY    C1 5571  22.482  13.004   7.157
 5656ETHY    C1 5572  22.325  12.515   7.041
 5657ETHY    C1 5573  22.255  12.016   6.896
 5658ETHY    C1 5574  22.279  11.517   6.727
 5659ETHY    C1 5575  22.398  11.026   6.538
 5660THSLK    S 5576  23.315  13.818   7.749
 5661ETHY    C1 5577  23.168  13.392   7.811
 5662ETHY    C1 5578  23.082  12.874   7.906
 5663ETHY    C1 5579  23.094  12.361   8.025
 5664ETHY    C1 5580  23.196  11.866   8.165
 5665ETHY    C1 5581  23.388  11.401   8.325
 5666ETHY    C1 5582  23.666  10.975   8.504
 5667AUSL   AUS 5583  23.209  15.323   7.094
 5668AUSL   AUS 5584  23.625  15.254   7.238
 5669AUL    AUL 5585  23.512  15.538   7.012
 5670THSLK    S 5586  23.256  15.550   6.977
 5671ETHY    C1 5587  23.446  15.829   6.674
 5672ETHY    C1 5588  23.597  16.210   6.330
 5673ETHY    C1 5589  23.661  16.630   6.021
 5674ETHY    C1 5590  23.645  17.080   5.752
 5675ETHY    C1 5591  23.549  17.550   5.532
 5676ETHY    C1 5592  23.374  18.033   5.366
 5677THSLK    S 5593  23.813  15.370   7.089
 5678ETHY    C1 5594  24.200  15.490   6.883
 5679ETHY    C1 5595  24.618  15.713   6.637
 5680ETHY    C1 5596  24.976  16.017   6.400
 5681ETHY    C1 5597  25.271  16.389   6.178
 5682ETHY    C1 5598  25.496  16.824   5.981
 5683ETHY    C1 5599  25.647  17.313   5.811
 5684AUSL   AUS 5600  23.057  15.417   7.339
 5685AUSL   AUS 5601  22.944  15.160   6.992
 5686AUL    AUL 5602  22.906  15.538   7.012
 5687THSLK    S 5603  23.103  15.664   7.239
 5688ETHY    C1 5604  23.250  16.061   7.074
 5689ETHY    C1 5605  23.336  16.555   6.889
 5690ETHY    C1 5606  23.324  17.056   6.727
 5691ETHY    C1 5607  23.222  17.552   6.593
 5692ETHY    C1 5608  23.030  18.033   6.492
 5693ETHY    C1 5609  22.752  18.491   6.427
 5694THSLK    S 5610  22.834  15.292   6.805
 5695ETHY    C1 5611  22.798  15.441   6.377
 5696ETHY    C1 5612  22.688  15.667   5.906
 5697ETHY    C1 5613  22.510  15.942   5.494
 5698ETHY    C1 5614  22.276  16.255   5.145
 5699ETHY    C1 5615  21.990  16.604   4.870
 5700ETHY    C1 5616  21.659  16.982   4.675
 5701AUSL   AUS 5617  23.209  14.163   7.094
 5702AUSL   AUS 5618  22.793  14.233   7.238
 5703AUL    AUL 5619  22.906  13.949   7.012
 5704THSLK    S 5620  22.610  14.085   7.134
 5705ETHY    C1 5621  22.227  13.841   7.124
 5706ETHY    C1 5622  21.809  13.520   7.035
 5707ETHY    C1 5623  21.450  13.174   6.866
 5708ETHY    C1 5624  21.153  12.813   6.631
 5709ETHY    C1 5625  20.928  12.441   6.331
 5710ETHY    C1 5626  20.781  12.064   5.974
 5711THSLK    S 5627  23.167  13.908   7.024
 5712ETHY    C1 5628  22.983  13.507   6.917
 5713ETHY    C1 5629  22.833  13.029   6.732
 5714ETHY    C1 5630  22.767  12.566   6.491
 5715ETHY    C1 5631  22.780  12.126   6.206
 5716ETHY    C1 5632  22.877  11.719   5.885
 5717ETHY    C1 5633  23.057  11.351   5.533
 5718AUSL   AUS 5634  23.361  14.070   7.339
 5719AUSL   AUS 5635  23.474  14.327   6.992
 5720AUL    AUL 5636  23.512  13.949   7.012
 5721THSLK    S 5637  23.318  13.816   7.266
 5722ETHY    C1 5638  23.174  13.388   7.213
 5723ETHY    C1 5639  23.087  12.869   7.120
 5724ETHY    C1 5640  23.099  12.357   6.997
 5725ETHY    C1 5641  23.200  11.863   6.854
 5726ETHY    C1 5642  23.392  11.398   6.695
 5727ETHY    C1 5643  23.672  10.970   6.523
 5728THSLK    S 5644  23.591  14.137   6.859
 5729ETHY    C1 5645  23.635  13.735   6.651
 5730ETHY    C1 5646  23.745  13.304   6.355
 5731ETHY    C1 5647  23.921  12.941   6.017
 5732ETHY    C1 5648  24.152  12.647   5.651
 5733ETHY    C1 5649  24.438  12.430   5.264
 5734ETHY    C1 5650  24.775  12.294   4.865
 5735POPC   NC3 5651  34.530  12.894   9.455
 5735POPC   PO4 5652  34.569  12.807   9.155
 5735POPC   GL1 5653  34.599  12.870   8.855
 5735POPC   GL2 5654  34.697  12.833   8.855
 5735POPC   C1A 5655  34.538  12.823   8.555
 5735POPC   D2A 5656  34.544  12.825   8.255
 5735POPC   C3A 5657  34.587  12.901   7.955
 5735POPC   C4A 5658  34.612  12.850   7.655
 5735POPC   C1B 5659  34.833  12.879   8.555
 5735POPC   C2B 5660  34.795  12.811   8.255
 5735POPC   C3B 5661  34.840  12.793   7.955
 5735POPC   C4B 5662  34.813  12.882   7.655
 5736POPC   NC3 5663  40.766  30.746   9.455
 5736POPC   PO4 5664  40.823  30.673   9.155
 5736POPC   GL1 5665  40.808  30.713   8.855
 5736POPC   GL2 5666  40.786  30.822   8.855
 5736POPC   C1A 5667  40.771  30.745   8.555
 5736POPC   D2A 5668  40.777  30.682   8.255
 5736POPC   C3A 5669  40.820  30.666   7.955
 5736POPC   C4A 5670  40.796  30.722   7.655
 5736POPC   C1B 5671  40.718  30.971   8.555
 5736POPC   C2B 5672  40.750  30.949   8.255
 5736POPC   C3B 5673  40.669  30.916   7.955
 5736POPC   C4B 5674  40.694  30.895   7.655
 5737POPC   NC3 5675  19.021  29.126   9.455
 5737POPC   PO4 5676  19.017  29.155   9.155
 5737POPC   GL1 5677  19.083  29.187   8.855
 5737POPC   GL2 5678  19.126  29.081   8.855
 5737POPC   C1A 5679  19.090  29.194   8.555
 5737POPC   D2A 5680  19.091  29.095   8.255
 5737POPC   C3A 5681  19.069  29.144   7.955
 5737POPC   C4A 5682  19.082  29.117   7.655
 5737POPC   C1B 5683  19.223  28.984   8.555
 5737POPC   C2B 5684  19.246  28.950   8.255
 5737POPC   C3B 5685  19.262  28.993   7.955
 5737POPC   C4B 5686  19.211  28.996   7.655
 5738POPC   NC3 5687  34.599  36.099   9.455
 5738POPC   PO4 5688  34.591  36.136   9.155
 5738POPC   GL1 5689  34.620  36.153   8.855
 5738POPC   GL2 5690  34.489  36.072   8.855
 5738POPC   C1A 5691  34.596  36.170   8.555
 5738POPC   D2A 5692  34.563  36.088   8.255
 5738POPC   C3A 5693  34.561  36.113   7.955
 5738POPC   C4A 5694  34.587  36.165   7.655
 5738POPC   C1B 5695  34.413  35.956   8.555
 5738POPC   C2B 5696  34.325  35.998   8.255
 5738POPC   C3B 5697  34.386  36.014   7.955
 5738POPC   C4B 5698  34.408  35.969   7.655
 5739POPC   NC3 5699  25.290   0.457   9.455
 5739POPC   PO4 5700  25.295   0.422   9.155
 5739POPC   GL1 5701  25.247   0.410   8.855
 5739POPC   GL2 5702  25.320   0.520   8.855
 5739POPC   C1A 5703  25.245   0.395   8.555
 5739POPC   D2A 5704  25.281   0.458   8.255
 5739POPC   C3A 5705  25.273   0.462   7.955
 5739POPC   C4A 5706  25.224   0.426   7.655
 5739POPC   C1B 5707  25.466   0.587   8.555
 5739POPC   C2B 5708  25.472   0.557   8.255
 5739POPC   C3B 5709  25.422   0.580   7.955
 5739POPC   C4B 5710  25.496   0.612   7.655
 5740POPC   NC3 5711  16.737   0.409   9.455
 5740POPC   PO4 5712  16.732   0.454   9.155
 5740POPC   GL1 5713  16.781   0.415   8.855
 5740POPC   GL2 5714  16.670   0.516   8.855
 5740POPC   C1A 5715  16.752   0.395   8.555
 5740POPC   D2A 5716  16.775   0.441   8.255
 5740POPC   C3A 5717  16.695   0.407   7.955
 5740POPC   C4A 5718  16.758   0.425   7.655
 5740POPC   C1B 5719  16.617   0.632   8.555
 5740POPC   C2B 5720  16.528   0.655   8.255
 5740POPC   C3B 5721  16.612   0.636   7.955
 5740POPC   C4B 5722  16.613   0.598   7.655
 5741POPC   NC3 5723  35.370   4.281   9.455
 5741POPC   PO4 5724  35.331   4.326   9.155
 5741POPC   GL1 5725  35.386   4.297   8.855
 5741POPC   GL2 5726  35.388   4.464   8.855
 5741POPC   C1A 5727  35.373   4.354   8.555
 5741POPC   D2A 5728  35.353   4.271   8.255
 5741POPC   C3A 5729  35.321   4.287   7.955
 5741POPC   C4A 5730  35.362   4.360   7.655
 5741POPC   C1B 5731  35.441   4.476   8.555
 5741POPC   C2B 5732  35.477   4.539   8.255
 5741POPC   C3B 5733  35.535   4.568   7.955
 5741POPC   C4B 5734  35.452   4.483   7.655
 5742POPC   NC3 5735  42.314  33.792   9.455
 5742POPC   PO4 5736  42.323  33.811   9.155
 5742POPC   GL1 5737  42.320  33.802   8.855
 5742POPC   GL2 5738  42.306  33.865   8.855
 5742POPC   C1A 5739  42.369  33.846   8.555
 5742POPC   D2A 5740  42.327  33.821   8.255
 5742POPC   C3A 5741  42.340  33.752   7.955
 5742POPC   C4A 5742  42.369  33.780   7.655
 5742POPC   C1B 5743  42.231  33.989   8.555
 5742POPC   C2B 5744  42.252  33.969   8.255
 5742POPC   C3B 5745  42.187  34.023   7.955
 5742POPC   C4B 5746  42.229  33.990   7.655
 5743POPC   NC3 5747   2.789   5.060   9.455
 5743POPC   PO4 5748   2.770   5.114   9.155
 5743POPC   GL1 5749   2.789   5.069   8.855
 5743POPC   GL2 5750   2.733   5.035   8.855
 5743POPC   C1A 5751   2.744   5.066   8.555
 5743POPC   D2A 5752   2.782   5.114   8.255
 5743POPC   C3A 5753   2.809   5.139   7.955
 5743POPC   C4A 5754   2.749   5.105   7.655
 5743POPC   C1B 5755   2.660   4.889   8.555
 5743POPC   C2B 5756   2.660   4.905   8.255
 5743POPC   C3B 5757   2.665   4.863   7.955
 5743POPC   C4B 5758   2.635   4.920   7.655
 5744POPC   NC3 5759  43.091  31.458   9.455
 5744POPC   PO4 5760  43.092  31.459   9.155
 5744POPC   GL1 5761  43.120  31.485   8.855
 5744POPC   GL2 5762  43.006  31.573   8.855
 5744POPC   C1A 5763  43.094  31.517   8.555
 5744POPC   D2A 5764  43.157  31.468   8.255
 5744POPC   C3A 5765  43.091  31.510   7.955
 5744POPC   C4A 5766  43.133  31.482   7.655
 5744POPC   C1B 5767  42.935  31.622   8.555
 5744POPC   C2B 5768  42.931  31.697   8.255
 5744POPC   C3B 5769  42.977  31.625   7.955
 5744POPC   C4B 5770  42.987  31.650   7.655
 5745POPC   NC3 5771   5.086  26.058   9.455
 5745POPC   PO4 5772   5.134  26.067   9.155
 5745POPC   GL1 5773   5.118  25.995   8.855
 5745POPC   GL2 5774   5.183  26.068   8.855
 5745POPC   C1A 5775   5.049  26.001   8.555
 5745POPC   D2A 5776   5.094  26.051   8.255
 5745POPC   C3A 5777   5.102  26.053   7.955
 5745POPC   C4A 5778   5.133  26.055   7.655
 5745POPC   C1B 5779   5.319  26.168   8.555
 5745POPC   C2B 5780   5.335  26.182   8.255
 5745POPC   C3B 5781   5.282  26.172   7.955
 5745POPC   C4B 5782   5.290  26.158   7.655
 5746POPC   NC3 5783  35.372  39.995   9.455
 5746POPC   PO4 5784  35.389  39.993   9.155
 5746POPC   GL1 5785  35.303  39.959   8.855
 5746POPC   GL2 5786  35.449  39.986   8.855
 5746POPC   C1A 5787  35.383  40.014   8.555
 5746POPC   D2A 5788  35.355  39.971   8.255
 5746POPC   C3A 5789  35.312  39.998   7.955
 5746POPC   C4A 5790  35.313  39.984   7.655
 5746POPC   C1B 5791  35.621  39.956   8.555
 5746POPC   C2B 5792  35.589  39.931   8.255
 5746POPC   C3B 5793  35.628  39.976   7.955
 5746POPC   C4B 5794  35.633  39.937   7.655
 5747POPC   NC3 5795  26.773  43.159   9.455
 5747POPC   PO4 5796  26.805  43.141   9.155
 5747POPC   GL1 5797  26.798  43.156   8.855
 5747POPC   GL2 5798  26.852  42.960   8.855
 5747POPC   C1A 5799  26.837  43.122   8.555
 5747POPC   D2A 5800  26.810  43.154   8.255
 5747POPC   C3A 5801  26.857  43.157   7.955
 5747POPC   C4A 5802  26.849  43.134   7.655
 5747POPC   C1B 5803  26.884  42.877   8.555
 5747POPC   C2B 5804  26.965  42.872   8.255
 5747POPC   C3B 5805  26.976  42.931   7.955
 5747POPC   C4B 5806  26.889  42.872   7.655
 5748POPC   NC3 5807  31.478  37.681   9.455
 5748POPC   PO4 5808  31.424  37.687   9.155
 5748POPC   GL1 5809  31.519  37.725   8.855
 5748POPC   GL2 5810  31.331  37.670   8.855
 5748POPC   C1A 5811  31.496  37.674   8.555
 5748POPC   D2A 5812  31.494  37.640   8.255
 5748POPC   C3A 5813  31.429  37.632   7.955
 5748POPC   C4A 5814  31.481  37.632   7.655
 5748POPC   C1B 5815  31.272  37.719   8.555
 5748POPC   C2B 5816  31.236  37.761   8.255
 5748POPC   C3B 5817  31.252  37.773   7.955
 5748POPC   C4B 5818  31.191  37.682   7.655
 5749POPC   NC3 5819  44.630  22.165   9.455
 5749POPC   PO4 5820  44.703  22.179   9.155
 5749POPC   GL1 5821  44.684  22.127   8.855
 5749POPC   GL2 5822  44.608  22.329   8.855
 5749POPC   C1A 5823  44.635  22.135   8.555
 5749POPC   D2A 5824  44.692  22.205   8.255
 5749POPC   C3A 5825  44.648  22.178   7.955
 5749POPC   C4A 5826  44.710  22.126   7.655
 5749POPC   C1B 5827  44.635  22.394   8.555
 5749POPC   C2B 5828  44.598  22.405   8.255
 5749POPC   C3B 5829  44.605  22.410   7.955
 5749POPC   C4B 5830  44.666  22.419   7.655
 5750POPC   NC3 5831  23.699  24.486   9.455
 5750POPC   PO4 5832  23.671  24.508   9.155
 5750POPC   GL1 5833  23.750  24.524   8.855
 5750POPC   GL2 5834  23.808  24.567   8.855
 5750POPC   C1A 5835  23.676  24.451   8.555
 5750POPC   D2A 5836  23.763  24.500   8.255
 5750POPC   C3A 5837  23.712  24.536   7.955
 5750POPC   C4A 5838  23.724  24.512   7.655
 5750POPC   C1B 5839  23.946  24.649   8.555
 5750POPC   C2B 5840  23.889  24.641   8.255
 5750POPC   C3B 5841  23.924  24.576   7.955
 5750POPC   C4B 5842  23.944  24.624   7.655
 5751POPC   NC3 5843   1.944   8.202   9.455
 5751POPC   PO4 5844   1.979   8.209   9.155
 5751POPC   GL1 5845   2.021   8.176   8.855
 5751POPC   GL2 5846   1.919   8.151   8.855
 5751POPC   C1A 5847   2.030   8.205   8.555
 5751POPC   D2A 5848   1.956   8.166   8.255
 5751POPC   C3A 5849   2.020   8.230   7.955
 5751POPC   C4A 5850   2.031   8.155   7.655
 5751POPC   C1B 5851   1.721   8.070   8.555
 5751POPC   C2B 5852   1.784   8.122   8.255
 5751POPC   C3B 5853   1.782   8.081   7.955
 5751POPC   C4B 5854   1.764   8.043   7.655
 5752POPC   NC3 5855  39.967  37.670   9.455
 5752POPC   PO4 5856  40.056  37.638   9.155
 5752POPC   GL1 5857  40.039  37.675   8.855
 5752POPC   GL2 5858  39.932  37.681   8.855
 5752POPC   C1A 5859  39.957  37.685   8.555
 5752POPC   D2A 5860  40.003  37.696   8.255
 5752POPC   C3A 5861  39.979  37.684   7.955
 5752POPC   C4A 5862  39.971  37.653   7.655
 5752POPC   C1B 5863  39.736  37.647   8.555
 5752POPC   C2B 5864  39.811  37.653   8.255
 5752POPC   C3B 5865  39.766  37.641   7.955
 5752POPC   C4B 5866  39.755  37.595   7.655
 5753POPC   NC3 5867  36.096  36.881   9.455
 5753POPC   PO4 5868  36.097  36.950   9.155
 5753POPC   GL1 5869  36.130  36.877   8.855
 5753POPC   GL2 5870  36.157  36.994   8.855
 5753POPC   C1A 5871  36.144  36.937   8.555
 5753POPC   D2A 5872  36.124  36.952   8.255
 5753POPC   C3A 5873  36.147  36.939   7.955
 5753POPC   C4A 5874  36.140  36.880   7.655
 5753POPC   C1B 5875  36.271  37.101   8.555
 5753POPC   C2B 5876  36.251  37.094   8.255
 5753POPC   C3B 5877  36.248  37.146   7.955
 5753POPC   C4B 5878  36.260  37.141   7.655
 5754POPC   NC3 5879   9.000  22.977   9.455
 5754POPC   PO4 5880   9.000  22.940   9.155
 5754POPC   GL1 5881   9.015  22.972   8.855
 5754POPC   GL2 5882   9.043  23.041   8.855
 5754POPC   C1A 5883   8.979  22.959   8.555
 5754POPC   D2A 5884   8.976  22.916   8.255
 5754POPC   C3A 5885   8.932  22.889   7.955
 5754POPC   C4A 5886   8.958  22.910   7.655
 5754POPC   C1B 5887   9.131  23.123   8.555
 5754POPC   C2B 5888   9.160  23.073   8.255
 5754POPC   C3B 5889   9.099  23.154   7.955
 5754POPC   C4B 5890   9.196  23.168   7.655
 5755POPC   NC3 5891  39.203  12.057   9.455
 5755POPC   PO4 5892  39.264  12.071   9.155
 5755POPC   GL1 5893  39.189  12.053   8.855
 5755POPC   GL2 5894  39.330  12.034   8.855
 5755POPC   C1A 5895  39.251  12.113   8.555
 5755POPC   D2A 5896  39.218  12.124   8.255
 5755POPC   C3A 5897  39.251  12.104   7.955
 5755POPC   C4A 5898  39.226  12.114   7.655
 5755POPC   C1B 5899  39.527  12.057   8.555
 5755POPC   C2B 5900  39.484  12.112   8.255
 5755POPC   C3B 5901  39.525  12.041   7.955
 5755POPC   C4B 5902  39.436  12.070   7.655
 5756POPC   NC3 5903  19.097  39.978   9.455
 5756POPC   PO4 5904  19.046  39.989   9.155
 5756POPC   GL1 5905  19.075  40.039   8.855
 5756POPC   GL2 5906  18.896  40.031   8.855
 5756POPC   C1A 5907  19.011  40.056   8.555
 5756POPC   D2A 5908  19.094  39.979   8.255
 5756POPC   C3A 5909  19.063  40.010   7.955
 5756POPC   C4A 5910  19.044  40.005   7.655
 5756POPC   C1B 5911  18.801  39.971   8.555
 5756POPC   C2B 5912  18.819  39.986   8.255
 5756POPC   C3B 5913  18.857  40.002   7.955
 5756POPC   C4B 5914  18.821  39.956   7.655
 5757POPC   NC3 5915  39.240  20.587   9.455
 5757POPC   PO4 5916  39.251  20.644   9.155
 5757POPC   GL1 5917  39.279  20.612   8.855
 5757POPC   GL2 5918  39.396  20.639   8.855
 5757POPC   C1A 5919  39.246  20.618   8.555
 5757POPC   D2A 5920  39.210  20.613   8.255
 5757POPC   C3A 5921  39.182  20.644   7.955
 5757POPC   C4A 5922  39.185  20.561   7.655
 5757POPC   C1B 5923  39.528  20.624   8.555
 5757POPC   C2B 5924  39.471  20.623   8.255
 5757POPC   C3B 5925  39.447  20.672   7.955
 5757POPC   C4B 5926  39.525  20.605   7.655
 5758POPC   NC3 5927  33.018   8.209   9.455
 5758POPC   PO4 5928  32.987   8.197   9.155
 5758POPC   GL1 5929  33.054   8.169   8.855
 5758POPC   GL2 5930  33.043   8.299   8.855
 5758POPC   C1A 5931  33.043   8.179   8.555
 5758POPC   D2A 5932  33.052   8.167   8.255
 5758POPC   C3A 5933  33.023   8.201   7.955
 5758POPC   C4A 5934  33.038   8.189   7.655
 5758POPC   C1B 5935  32.957   8.411   8.555
 5758POPC   C2B 5936  32.995   8.407   8.255
 5758POPC   C3B 5937  33.025   8.451   7.955
 5758POPC   C4B 5938  33.024   8.432   7.655
 5759POPC   NC3 5939  13.587   1.228   9.455
 5759POPC   PO4 5940  13.596   1.173   9.155
 5759POPC   GL1 5941  13.648   1.222   8.855
 5759POPC   GL2 5942  13.753   1.294   8.855
 5759POPC   C1A 5943  13.618   1.166   8.555
 5759POPC   D2A 5944  13.578   1.226   8.255
 5759POPC   C3A 5945  13.652   1.198   7.955
 5759POPC   C4A 5946  13.668   1.190   7.655
 5759POPC   C1B 5947  13.858   1.377   8.555
 5759POPC   C2B 5948  13.828   1.329   8.255
 5759POPC   C3B 5949  13.875   1.293   7.955
 5759POPC   C4B 5950  13.874   1.290   7.655
 5760POPC   NC3 5951  28.332  14.407   9.455
 5760POPC   PO4 5952  28.394  14.439   9.155
 5760POPC   GL1 5953  28.404  14.417   8.855
 5760POPC   GL2 5954  28.340  14.519   8.855
 5760POPC   C1A 5955  28.324  14.385   8.555
 5760POPC   D2A 5956  28.344  14.366   8.255
 5760POPC   C3A 5957  28.324  14.430   7.955
 5760POPC   C4A 5958  28.390  14.435   7.655
 5760POPC   C1B 5959  28.237  14.602   8.555
 5760POPC   C2B 5960  28.305  14.662   8.255
 5760POPC   C3B 5961  28.290  14.600   7.955
 5760POPC   C4B 5962  28.301  14.592   7.655
 5761POPC   NC3 5963   7.453  36.155   9.455
 5761POPC   PO4 5964   7.379  36.145   9.155
 5761POPC   GL1 5965   7.408  36.125   8.855
 5761POPC   GL2 5966   7.268  36.178   8.855
 5761POPC   C1A 5967   7.454  36.138   8.555
 5761POPC   D2A 5968   7.435  36.131   8.255
 5761POPC   C3A 5969   7.380  36.096   7.955
 5761POPC   C4A 5970   7.373  36.108   7.655
 5761POPC   C1B 5971   7.209  36.233   8.555
 5761POPC   C2B 5972   7.192  36.223   8.255
 5761POPC   C3B 5973   7.204  36.184   7.955
 5761POPC   C4B 5974   7.159  36.153   7.655
 5762POPC   NC3 5975  40.810  31.492   9.455
 5762POPC   PO4 5976  40.813  31.451   9.155
 5762POPC   GL1 5977  40.824  31.442   8.855
 5762POPC   GL2 5978  40.810  31.351   8.855
 5762POPC   C1A 5979  40.737  31.440   8.555
 5762POPC   D2A 5980  40.779  31.509   8.255
 5762POPC   C3A 5981  40.808  31.446   7.955
 5762POPC   C4A 5982  40.758  31.506   7.655
 5762POPC   C1B 5983  40.965  31.236   8.555
 5762POPC   C2B 5984  40.917  31.281   8.255
 5762POPC   C3B 5985  40.933  31.258   7.955
 5762POPC   C4B 5986  40.916  31.221   7.655
 5763POPC   NC3 5987  15.974  20.614   9.455
 5763POPC   PO4 5988  15.977  20.646   9.155
 5763POPC   GL1 5989  15.998  20.605   8.855
 5763POPC   GL2 5990  16.008  20.688   8.855
 5763POPC   C1A 5991  16.000  20.573   8.555
 5763POPC   D2A 5992  16.002  20.629   8.255
 5763POPC   C3A 5993  15.909  20.594   7.955
 5763POPC   C4A 5994  15.936  20.641   7.655
 5763POPC   C1B 5995  16.039  20.820   8.555
 5763POPC   C2B 5996  16.107  20.843   8.255
 5763POPC   C3B 5997  16.019  20.829   7.955
 5763POPC   C4B 5998  16.020  20.819   7.655
 5764POPC   NC3 5999  29.119  16.763   9.455
 5764POPC   PO4 6000  29.103  16.703   9.155
 5764POPC   GL1 6001  29.137  16.763   8.855
 5764POPC   GL2 6002  29.293  16.724   8.855
 5764POPC   C1A 6003  29.124  16.767   8.555
 5764POPC   D2A 6004  29.134  16.767   8.255
 5764POPC   C3A 6005  29.125  16.697   7.955
 5764POPC   C4A 6006  29.148  16.732   7.655
 5764POPC   C1B 6007  29.411  16.832   8.555
 5764POPC   C2B 6008  29.426  16.757   8.255
 5764POPC   C3B 6009  29.400  16.793   7.955
 5764POPC   C4B 6010  29.432  16.803   7.655
 5765POPC   NC3 6011  12.898  42.362   9.455
 5765POPC   PO4 6012  12.889  42.354   9.155
 5765POPC   GL1 6013  12.821  42.369   8.855
 5765POPC   GL2 6014  12.758  42.418   8.855
 5765POPC   C1A 6015  12.833  42.317   8.555
 5765POPC   D2A 6016  12.886  42.300   8.255
 5765POPC   C3A 6017  12.834  42.360   7.955
 5765POPC   C4A 6018  12.813  42.322   7.655
 5765POPC   C1B 6019  12.713  42.537   8.555
 5765POPC   C2B 6020  12.674  42.487   8.255
 5765POPC   C3B 6021  12.672  42.544   7.955
 5765POPC   C4B 6022  12.703  42.563   7.655
 5766POPC   NC3 6023  15.918   3.560   9.455
 5766POPC   PO4 6024  15.969   3.577   9.155
 5766POPC   GL1 6025  15.979   3.497   8.855
 5766POPC   GL2 6026  15.814   3.498   8.855
 5766POPC   C1A 6027  15.986   3.529   8.555
 5766POPC   D2A 6028  15.907   3.522   8.255
 5766POPC   C3A 6029  15.985   3.583   7.955
 5766POPC   C4A 6030  15.979   3.575   7.655
 5766POPC   C1B 6031  15.751   3.553   8.555
 5766POPC   C2B 6032  15.721   3.531   8.255
 5766POPC   C3B 6033  15.751   3.552   7.955
 5766POPC   C4B 6034  15.699   3.528   7.655
 5767POPC   NC3 6035  33.844  25.254   9.455
 5767POPC   PO4 6036  33.813  25.242   9.155
 5767POPC   GL1 6037  33.820  25.225   8.855
 5767POPC   GL2 6038  33.904  25.269   8.855
 5767POPC   C1A 6039  33.832  25.226   8.555
 5767POPC   D2A 6040  33.773  25.257   8.255
 5767POPC   C3A 6041  33.768  25.241   7.955
 5767POPC   C4A 6042  33.812  25.284   7.655
 5767POPC   C1B 6043  34.033  25.185   8.555
 5767POPC   C2B 6044  34.041  25.152   8.255
 5767POPC   C3B 6045  34.052  25.173   7.955
 5767POPC   C4B 6046  34.023  25.190   7.655
 5768POPC   NC3 6047  21.344   7.434   9.455
 5768POPC   PO4 6048  21.363   7.469   9.155
 5768POPC   GL1 6049  21.367   7.408   8.855
 5768POPC   GL2 6050  21.330   7.341   8.855
 5768POPC   C1A 6051  21.401   7.430   8.555
 5768POPC   D2A 6052  21.374   7.417   8.255
 5768POPC   C3A 6053  21.370   7.460   7.955
 5768POPC   C4A 6054  21.369   7.384   7.655
 5768POPC   C1B 6055  21.269   7.237   8.555
 5768POPC   C2B 6056  21.260   7.206   8.255
 5768POPC   C3B 6057  21.253   7.249   7.955
 5768POPC   C4B 6058  21.249   7.217   7.655
 5769POPC   NC3 6059  13.642  19.882   9.455
 5769POPC   PO4 6060  13.677  19.831   9.155
 5769POPC   GL1 6061  13.602  19.795   8.855
 5769POPC   GL2 6062  13.543  19.865   8.855
 5769POPC   C1A 6063  13.666  19.805   8.555
 5769POPC   D2A 6064  13.622  19.788   8.255
 5769POPC   C3A 6065  13.582  19.805   7.955
 5769POPC   C4A 6066  13.641  19.871   7.655
 5769POPC   C1B 6067  13.425  19.921   8.555
 5769POPC   C2B 6068  13.373  19.929   8.255
 5769POPC   C3B 6069  13.360  19.876   7.955
 5769POPC   C4B 6070  13.381  19.882   7.655
 5770POPC   NC3 6071  32.286  12.034   9.455
 5770POPC   PO4 6072  32.218  12.035   9.155
 5770POPC   GL1 6073  32.286  12.079   8.855
 5770POPC   GL2 6074  32.283  11.984   8.855
 5770POPC   C1A 6075  32.240  12.081   8.555
 5770POPC   D2A 6076  32.261  12.049   8.255
 5770POPC   C3A 6077  32.260  12.038   7.955
 5770POPC   C4A 6078  32.284  12.077   7.655
 5770POPC   C1B 6079  32.413  11.842   8.555
 5770POPC   C2B 6080  32.446  11.886   8.255
 5770POPC   C3B 6081  32.421  11.866   7.955
 5770POPC   C4B 6082  32.451  11.878   7.655
 5771POPC   NC3 6083  43.123  41.597   9.455
 5771POPC   PO4 6084  43.074  41.564   9.155
 5771POPC   GL1 6085  43.160  41.530   8.855
 5771POPC   GL2 6086  43.102  41.687   8.855
 5771POPC   C1A 6087  43.106  41.536   8.555
 5771POPC   D2A 6088  43.072  41.516   8.255
 5771POPC   C3A 6089  43.146  41.599   7.955
 5771POPC   C4A 6090  43.151  41.567   7.655
 5771POPC   C1B 6091  42.997  41.803   8.555
 5771POPC   C2B 6092  42.987  41.794   8.255
 5771POPC   C3B 6093  42.994  41.836   7.955
 5771POPC   C4B 6094  43.028  41.809   7.655
 5772POPC   NC3 6095   8.985  39.184   9.455
 5772POPC   PO4 6096   8.981  39.243   9.155
 5772POPC   GL1 6097   8.959  39.240   8.855
 5772POPC   GL2 6098   9.069  39.369   8.855
 5772POPC   C1A 6099   9.008  39.241   8.555
 5772POPC   D2A 6100   9.001  39.204   8.255
 5772POPC   C3A 6101   8.952  39.212   7.955
 5772POPC   C4A 6102   8.970  39.266   7.655
 5772POPC   C1B 6103   9.107  39.401   8.555
 5772POPC   C2B 6104   9.070  39.455   8.255
 5772POPC   C3B 6105   9.100  39.438   7.955
 5772POPC   C4B 6106   9.068  39.442   7.655
 5773POPC   NC3 6107   2.009   5.876   9.455
 5773POPC   PO4 6108   1.945   5.846   9.155
 5773POPC   GL1 6109   1.988   5.882   8.855
 5773POPC   GL2 6110   1.987   6.040   8.855
 5773POPC   C1A 6111   1.954   5.859   8.555
 5773POPC   D2A 6112   2.021   5.911   8.255
 5773POPC   C3A 6113   1.970   5.872   7.955
 5773POPC   C4A 6114   2.015   5.908   7.655
 5773POPC   C1B 6115   2.028   6.078   8.555
 5773POPC   C2B 6116   2.042   6.117   8.255
 5773POPC   C3B 6117   2.024   6.138   7.955
 5773POPC   C4B 6118   2.024   6.147   7.655
 5774POPC   NC3 6119  19.814   9.019   9.455
 5774POPC   PO4 6120  19.879   8.932   9.155
 5774POPC   GL1 6121  19.802   9.011   8.855
 5774POPC   GL2 6122  19.802   9.052   8.855
 5774POPC   C1A 6123  19.829   8.959   8.555
 5774POPC   D2A 6124  19.845   8.978   8.255
 5774POPC   C3A 6125  19.868   8.979   7.955
 5774POPC   C4A 6126  19.870   8.933   7.655
 5774POPC   C1B 6127  19.739   9.154   8.555
 5774POPC   C2B 6128  19.668   9.222   8.255
 5774POPC   C3B 6129  19.725   9.167   7.955
 5774POPC   C4B 6130  19.667   9.217   7.655
 5775POPC   NC3 6131  20.605  10.485   9.455
 5775POPC   PO4 6132  20.634  10.509   9.155
 5775POPC   GL1 6133  20.569  10.518   8.855
 5775POPC   GL2 6134  20.762  10.547   8.855
 5775POPC   C1A 6135  20.616  10.533   8.555
 5775POPC   D2A 6136  20.613  10.519   8.255
 5775POPC   C3A 6137  20.597  10.478   7.955
 5775POPC   C4A 6138  20.585  10.567   7.655
 5775POPC   C1B 6139  20.871  10.652   8.555
 5775POPC   C2B 6140  20.886  10.613   8.255
 5775POPC   C3B 6141  20.830  10.601   7.955
 5775POPC   C4B 6142  20.873  10.596   7.655
 5776POPC   NC3 6143  10.504  32.228   9.455
 5776POPC   PO4 6144  10.542  32.294   9.155
 5776POPC   GL1 6145  10.502  32.214   8.855
 5776POPC   GL2 6146  10.626  32.350   8.855
 5776POPC   C1A 6147  10.479  32.225   8.555
 5776POPC   D2A 6148  10.485  32.268   8.255
 5776POPC   C3A 6149  10.542  32.285   7.955
 5776POPC   C4A 6150  10.558  32.262   7.655
 5776POPC   C1B 6151  10.659  32.413   8.555
 5776POPC   C2B 6152  10.714  32.411   8.255
 5776POPC   C3B 6153  10.651  32.472   7.955
 5776POPC   C4B 6154  10.695  32.462   7.655
 5777POPC   NC3 6155  18.326   6.652   9.455
 5777POPC   PO4 6156  18.285   6.674   9.155
 5777POPC   GL1 6157  18.315   6.653   8.855
 5777POPC   GL2 6158  18.410   6.678   8.855
 5777POPC   C1A 6159  18.256   6.625   8.555
 5777POPC   D2A 6160  18.295   6.690   8.255
 5777POPC   C3A 6161  18.270   6.600   7.955
 5777POPC   C4A 6162  18.234   6.661   7.655
 5777POPC   C1B 6163  18.557   6.608   8.555
 5777POPC   C2B 6164  18.543   6.633   8.255
 5777POPC   C3B 6165  18.509   6.632   7.955
 5777POPC   C4B 6166  18.486   6.607   7.655
 5778POPC   NC3 6167  34.569  35.317   9.455
 5778POPC   PO4 6168  34.545  35.339   9.155
 5778POPC   GL1 6169  34.543  35.313   8.855
 5778POPC   GL2 6170  34.553  35.518   8.855
 5778POPC   C1A 6171  34.624  35.401   8.555
 5778POPC   D2A 6172  34.597  35.376   8.255
 5778POPC   C3A 6173  34.531  35.357   7.955
 5778POPC   C4A 6174  34.603  35.320   7.655
 5778POPC   C1B 6175  34.629  35.578   8.555
 5778POPC   C2B 6176  34.593  35.619   8.255
 5778POPC   C3B 6177  34.575  35.603   7.955
 5778POPC   C4B 6178  34.651  35.551   7.655
 5779POPC   NC3 6179  41.596  43.848   9.455
 5779POPC   PO4 6180  41.524  43.877   9.155
 5779POPC   GL1 6181  41.517  43.839   8.855
 5779POPC   GL2 6182  41.654  43.927   8.855
 5779POPC   C1A 6183  41.523  43.887   8.555
 5779POPC   D2A 6184  41.533  43.887   8.255
 5779POPC   C3A 6185  41.588  43.914   7.955
 5779POPC   C4A 6186  41.524  43.895   7.655
 5779POPC   C1B 6187  41.816  43.948   8.555
 5779POPC   C2B 6188  41.850  43.985   8.255
 5779POPC   C3B 6189  41.797  43.918   7.955
 5779POPC   C4B 6190  41.850  43.974   7.655
 5780POPC   NC3 6191  37.709  36.093   9.455
 5780POPC   PO4 6192  37.698  36.146   9.155
 5780POPC   GL1 6193  37.668  36.173   8.855
 5780POPC   GL2 6194  37.588  36.248   8.855
 5780POPC   C1A 6195  37.639  36.177   8.555
 5780POPC   D2A 6196  37.641  36.086   8.255
 5780POPC   C3A 6197  37.672  36.115   7.955
 5780POPC   C4A 6198  37.673  36.099   7.655
 5780POPC   C1B 6199  37.544  36.364   8.555
 5780POPC   C2B 6200  37.522  36.367   8.255
 5780POPC   C3B 6201  37.487  36.303   7.955
 5780POPC   C4B 6202  37.546  36.302   7.655
 5781POPC   NC3 6203  13.622  12.099   9.455
 5781POPC   PO4 6204  13.635  12.039   9.155
 5781POPC   GL1 6205  13.671  12.028   8.855
 5781POPC   GL2 6206  13.719  12.085   8.855
 5781POPC   C1A 6207  13.656  12.040   8.555
 5781POPC   D2A 6208  13.619  12.073   8.255
 5781POPC   C3A 6209  13.622  12.066   7.955
 5781POPC   C4A 6210  13.647  12.049   7.655
 5781POPC   C1B 6211  13.829  12.053   8.555
 5781POPC   C2B 6212  13.886  12.055   8.255
 5781POPC   C3B 6213  13.904  12.046   7.955
 5781POPC   C4B 6214  13.887  12.094   7.655
 5782POPC   NC3 6215  12.829  27.549   9.455
 5782POPC   PO4 6216  12.874  27.549   9.155
 5782POPC   GL1 6217  12.870  27.564   8.855
 5782POPC   GL2 6218  12.790  27.535   8.855
 5782POPC   C1A 6219  12.855  27.598   8.555
 5782POPC   D2A 6220  12.875  27.571   8.255
 5782POPC   C3A 6221  12.809  27.578   7.955
 5782POPC   C4A 6222  12.865  27.632   7.655
 5782POPC   C1B 6223  12.716  27.444   8.555
 5782POPC   C2B 6224  12.656  27.412   8.255
 5782POPC   C3B 6225  12.687  27.395   7.955
 5782POPC   C4B 6226  12.643  27.425   7.655
 5783POPC   NC3 6227  19.100  27.613   9.455
 5783POPC   PO4 6228  19.078  27.543   9.155
 5783POPC   GL1 6229  19.068  27.561   8.855
 5783POPC   GL2 6230  19.095  27.446   8.855
 5783POPC   C1A 6231  19.108  27.596   8.555
 5783POPC   D2A 6232  19.068  27.554   8.255
 5783POPC   C3A 6233  19.047  27.614   7.955
 5783POPC   C4A 6234  19.050  27.620   7.655
 5783POPC   C1B 6235  19.140  27.363   8.555
 5783POPC   C2B 6236  19.094  27.309   8.255
 5783POPC   C3B 6237  19.144  27.352   7.955
 5783POPC   C4B 6238  19.158  27.386   7.655
 5784POPC   NC3 6239  25.233   6.646   9.455
 5784POPC   PO4 6240  25.244   6.610   9.155
 5784POPC   GL1 6241  25.300   6.673   8.855
 5784POPC   GL2 6242  25.379   6.587   8.855
 5784POPC   C1A 6243  25.295   6.635   8.555
 5784POPC   D2A 6244  25.291   6.640   8.255
 5784POPC   C3A 6245  25.275   6.668   7.955
 5784POPC   C4A 6246  25.223   6.675   7.655
 5784POPC   C1B 6247  25.426   6.464   8.555
 5784POPC   C2B 6248  25.392   6.419   8.255
 5784POPC   C3B 6249  25.376   6.453   7.955
 5784POPC   C4B 6250  25.435   6.411   7.655
 5785POPC   NC3 6251   8.218  18.276   9.455
 5785POPC   PO4 6252   8.185  18.289   9.155
 5785POPC   GL1 6253   8.151  18.273   8.855
 5785POPC   GL2 6254   8.179  18.389   8.855
 5785POPC   C1A 6255   8.225  18.327   8.555
 5785POPC   D2A 6256   8.165  18.328   8.255
 5785POPC   C3A 6257   8.204  18.236   7.955
 5785POPC   C4A 6258   8.176  18.297   7.655
 5785POPC   C1B 6259   8.211  18.524   8.555
 5785POPC   C2B 6260   8.228  18.510   8.255
 5785POPC   C3B 6261   8.182  18.494   7.955
 5785POPC   C4B 6262   8.212  18.525   7.655
 5786POPC   NC3 6263  34.527  37.653   9.455
 5786POPC   PO4 6264  34.558  37.722   9.155
 5786POPC   GL1 6265  34.566  37.637   8.855
 5786POPC   GL2 6266  34.456  37.696   8.855
 5786POPC   C1A 6267  34.574  37.648   8.555
 5786POPC   D2A 6268  34.559  37.644   8.255
 5786POPC   C3A 6269  34.560  37.725   7.955
 5786POPC   C4A 6270  34.624  37.633   7.655
 5786POPC   C1B 6271  34.308  37.643   8.555
 5786POPC   C2B 6272  34.322  37.672   8.255
 5786POPC   C3B 6273  34.286  37.624   7.955
 5786POPC   C4B 6274  34.378  37.629   7.655
 5787POPC   NC3 6275  43.127  13.607   9.455
 5787POPC   PO4 6276  43.094  13.634   9.155
 5787POPC   GL1 6277  43.150  13.587   8.855
 5787POPC   GL2 6278  43.075  13.767   8.855
 5787POPC   C1A 6279  43.090  13.611   8.555
 5787POPC   D2A 6280  43.086  13.664   8.255
 5787POPC   C3A 6281  43.150  13.631   7.955
 5787POPC   C4A 6282  43.064  13.610   7.655
 5787POPC   C1B 6283  43.184  13.865   8.555
 5787POPC   C2B 6284  43.108  13.841   8.255
 5787POPC   C3B 6285  43.127  13.859   7.955
 5787POPC   C4B 6286  43.170  13.861   7.655
 5788POPC   NC3 6287  36.119  34.534   9.455
 5788POPC   PO4 6288  36.081  34.543   9.155
 5788POPC   GL1 6289  36.140  34.583   8.855
 5788POPC   GL2 6290  36.107  34.430   8.855
 5788POPC   C1A 6291  36.080  34.605   8.555
 5788POPC   D2A 6292  36.137  34.618   8.255
 5788POPC   C3A 6293  36.150  34.550   7.955
 5788POPC   C4A 6294  36.115  34.579   7.655
 5788POPC   C1B 6295  35.986  34.346   8.555
 5788POPC   C2B 6296  35.982  34.367   8.255
 5788POPC   C3B 6297  35.982  34.377   7.955
 5788POPC   C4B 6298  36.000  34.322   7.655
 5789POPC   NC3 6299   3.510   0.454   9.455
 5789POPC   PO4 6300   3.517   0.414   9.155
 5789POPC   GL1 6301   3.591   0.471   8.855
 5789POPC   GL2 6302   3.603   0.529   8.855
 5789POPC   C1A 6303   3.578   0.485   8.555
 5789POPC   D2A 6304   3.539   0.401   8.255
 5789POPC   C3A 6305   3.579   0.455   7.955
 5789POPC   C4A 6306   3.546   0.433   7.655
 5789POPC   C1B 6307   3.687   0.604   8.555
 5789POPC   C2B 6308   3.685   0.577   8.255
 5789POPC   C3B 6309   3.745   0.596   7.955
 5789POPC   C4B 6310   3.743   0.583   7.655
 5790POPC   NC3 6311  27.598  39.251   9.455
 5790POPC   PO4 6312  27.640  39.233   9.155
 5790POPC   GL1 6313  27.558  39.209   8.855
 5790POPC   GL2 6314  27.464  39.115   8.855
 5790POPC   C1A 6315  27.604  39.232   8.555
 5790POPC   D2A 6316  27.623  39.280   8.255
 5790POPC   C3A 6317  27.578  39.193   7.955
 5790POPC   C4A 6318  27.549  39.206   7.655
 5790POPC   C1B 6319  27.414  39.114   8.555
 5790POPC   C2B 6320  27.366  39.106   8.255
 5790POPC   C3B 6321  27.362  39.074   7.955
 5790POPC   C4B 6322  27.410  39.107   7.655
 5791POPC   NC3 6323  32.221  33.064   9.455
 5791POPC   PO4 6324  32.223  33.064   9.155
 5791POPC   GL1 6325  32.295  33.071   8.855
 5791POPC   GL2 6326  32.356  33.104   8.855
 5791POPC   C1A 6327  32.297  33.015   8.555
 5791POPC   D2A 6328  32.201  33.000   8.255
 5791POPC   C3A 6329  32.275  33.041   7.955
 5791POPC   C4A 6330  32.269  33.017   7.655
 5791POPC   C1B 6331  32.453  33.087   8.555
 5791POPC   C2B 6332  32.491  33.095   8.255
 5791POPC   C3B 6333  32.437  33.165   7.955
 5791POPC   C4B 6334  32.432  33.154   7.655
 5792POPC   NC3 6335  40.036   0.431   9.455
 5792POPC   PO4 6336  39.972   0.455   9.155
 5792POPC   GL1 6337  39.966   0.444   8.855
 5792POPC   GL2 6338  39.966   0.527   8.855
 5792POPC   C1A 6339  39.971   0.422   8.555
 5792POPC   D2A 6340  39.994   0.450   8.255
 5792POPC   C3A 6341  40.035   0.488   7.955
 5792POPC   C4A 6342  39.982   0.397   7.655
 5792POPC   C1B 6343  39.895   0.617   8.555
 5792POPC   C2B 6344  39.859   0.605   8.255
 5792POPC   C3B 6345  39.840   0.684   7.955
 5792POPC   C4B 6346  39.881   0.677   7.655
 5793POPC   NC3 6347  38.493  19.827   9.455
 5793POPC   PO4 6348  38.478  19.828   9.155
 5793POPC   GL1 6349  38.489  19.798   8.855
 5793POPC   GL2 6350  38.516  19.901   8.855
 5793POPC   C1A 6351  38.450  19.826   8.555
 5793POPC   D2A 6352  38.443  19.828   8.255
 5793POPC   C3A 6353  38.448  19.867   7.955
 5793POPC   C4A 6354  38.463  19.877   7.655
 5793POPC   C1B 6355  38.639  20.000   8.555
 5793POPC   C2B 6356  38.571  20.080   8.255
 5793POPC   C3B 6357  38.567  20.024   7.955
 5793POPC   C4B 6358  38.579  20.012   7.655
 5794POPC   NC3 6359  21.404  18.325   9.455
 5794POPC   PO4 6360  21.400  18.325   9.155
 5794POPC   GL1 6361  21.349  18.333   8.855
 5794POPC   GL2 6362  21.494  18.343   8.855
 5794POPC   C1A 6363  21.379  18.321   8.555
 5794POPC   D2A 6364  21.374  18.236   8.255
 5794POPC   C3A 6365  21.433  18.255   7.955
 5794POPC   C4A 6366  21.434  18.327   7.655
 5794POPC   C1B 6367  21.608  18.489   8.555
 5794POPC   C2B 6368  21.577  18.468   8.255
 5794POPC   C3B 6369  21.539  18.466   7.955
 5794POPC   C4B 6370  21.574  18.450   7.655
 5795POPC   NC3 6371  30.652  33.815   9.455
 5795POPC   PO4 6372  30.697  33.814   9.155
 5795POPC   GL1 6373  30.744  33.842   8.855
 5795POPC   GL2 6374  30.782  33.892   8.855
 5795POPC   C1A 6375  30.721  33.845   8.555
 5795POPC   D2A 6376  30.716  33.840   8.255
 5795POPC   C3A 6377  30.647  33.828   7.955
 5795POPC   C4A 6378  30.673  33.783   7.655
 5795POPC   C1B 6379  30.829  33.935   8.555
 5795POPC   C2B 6380  30.895  34.010   8.255
 5795POPC   C3B 6381  30.857  34.003   7.955
 5795POPC   C4B 6382  30.843  34.007   7.655
 5796POPC   NC3 6383  17.481  11.260   9.455
 5796POPC   PO4 6384  17.463  11.325   9.155
 5796POPC   GL1 6385  17.552  11.323   8.855
 5796POPC   GL2 6386  17.576  11.359   8.855
 5796POPC   C1A 6387  17.505  11.297   8.555
 5796POPC   D2A 6388  17.529  11.254   8.255
 5796POPC   C3A 6389  17.464  11.284   7.955
 5796POPC   C4A 6390  17.504  11.334   7.655
 5796POPC   C1B 6391  17.773  11.397   8.555
 5796POPC   C2B 6392  17.764  11.360   8.255
 5796POPC   C3B 6393  17.683  11.364   7.955
 5796POPC   C4B 6394  17.714  11.403   7.655
 5797POPC   NC3 6395  29.945  44.702   9.455
 5797POPC   PO4 6396  29.937  44.614   9.155
 5797POPC   GL1 6397  29.965  44.633   8.855
 5797POPC   GL2 6398  29.812  44.686   8.855
 5797POPC   C1A 6399  29.967  44.627   8.555
 5797POPC   D2A 6400  29.893  44.684   8.255
 5797POPC   C3A 6401  29.948  44.637   7.955
 5797POPC   C4A 6402  29.947  44.642   7.655
 5797POPC   C1B 6403  29.640  44.777   8.555
 5797POPC   C2B 6404  29.714  44.768   8.255
 5797POPC   C3B 6405  29.708  44.787   7.955
 5797POPC   C4B 6406  29.693  44.791   7.655
 5798POPC   NC3 6407  34.531  26.772   9.455
 5798POPC   PO4 6408  34.593  26.823   9.155
 5798POPC   GL1 6409  34.603  26.784   8.855
 5798POPC   GL2 6410  34.472  26.788   8.855
 5798POPC   C1A 6411  34.533  26.790   8.555
 5798POPC   D2A 6412  34.591  26.845   8.255
 5798POPC   C3A 6413  34.599  26.817   7.955
 5798POPC   C4A 6414  34.620  26.774   7.655
 5798POPC   C1B 6415  34.306  26.838   8.555
 5798POPC   C2B 6416  34.328  26.851   8.255
 5798POPC   C3B 6417  34.313  26.828   7.955
 5798POPC   C4B 6418  34.341  26.832   7.655
 5799POPC   NC3 6419  12.840   2.009   9.455
 5799POPC   PO4 6420  12.877   1.961   9.155
 5799POPC   GL1 6421  12.834   1.958   8.855
 5799POPC   GL2 6422  12.976   1.875   8.855
 5799POPC   C1A 6423  12.845   1.970   8.555
 5799POPC   D2A 6424  12.807   1.942   8.255
 5799POPC   C3A 6425  12.819   1.961   7.955
 5799POPC   C4A 6426  12.828   1.995   7.655
 5799POPC   C1B 6427  13.081   1.870   8.555
 5799POPC   C2B 6428  13.107   1.868   8.255
 5799POPC   C3B 6429  13.032   1.804   7.955
 5799POPC   C4B 6430  13.014   1.847   7.655
 5800POPC   NC3 6431  40.042  32.998   9.455
 5800POPC   PO4 6432  40.036  32.987   9.155
 5800POPC   GL1 6433  39.979  33.015   8.855
 5800POPC   GL2 6434  39.837  33.012   8.855
 5800POPC   C1A 6435  39.980  33.053   8.555
 5800POPC   D2A 6436  40.008  33.059   8.255
 5800POPC   C3A 6437  40.020  33.052   7.955
 5800POPC   C4A 6438  40.050  33.027   7.655
 5800POPC   C1B 6439  39.774  32.977   8.555
 5800POPC   C2B 6440  39.809  33.004   8.255
 5800POPC   C3B 6441  39.730  32.933   7.955
 5800POPC   C4B 6442  39.787  32.972   7.655
 5801POPC   NC3 6443  15.154  15.928   9.455
 5801POPC   PO4 6444  15.173  15.999   9.155
 5801POPC   GL1 6445  15.168  15.985   8.855
 5801POPC   GL2 6446  15.249  16.037   8.855
 5801POPC   C1A 6447  15.132  15.946   8.555
 5801POPC   D2A 6448  15.225  15.942   8.255
 5801POPC   C3A 6449  15.152  16.001   7.955
 5801POPC   C4A 6450  15.203  15.972   7.655
 5801POPC   C1B 6451  15.427  16.102   8.555
 5801POPC   C2B 6452  15.336  16.121   8.255
 5801POPC   C3B 6453  15.351  16.141   7.955
 5801POPC   C4B 6454  15.412  16.067   7.655
 5802POPC   NC3 6455  32.277  10.538   9.455
 5802POPC   PO4 6456  32.270  10.501   9.155
 5802POPC   GL1 6457  32.265  10.509   8.855
 5802POPC   GL2 6458  32.400  10.506   8.855
 5802POPC   C1A 6459  32.285  10.509   8.555
 5802POPC   D2A 6460  32.239  10.564   8.255
 5802POPC   C3A 6461  32.290  10.516   7.955
 5802POPC   C4A 6462  32.267  10.483   7.655
 5802POPC   C1B 6463  32.511  10.558   8.555
 5802POPC   C2B 6464  32.515  10.499   8.255
 5802POPC   C3B 6465  32.481  10.535   7.955
 5802POPC   C4B 6466  32.534  10.517   7.655
 5803POPC   NC3 6467  15.164  29.148   9.455
 5803POPC   PO4 6468  15.221  29.104   9.155
 5803POPC   GL1 6469  15.219  29.137   8.855
 5803POPC   GL2 6470  15.048  29.157   8.855
 5803POPC   C1A 6471  15.153  29.166   8.555
 5803POPC   D2A 6472  15.152  29.155   8.255
 5803POPC   C3A 6473  15.131  29.139   7.955
 5803POPC   C4A 6474  15.182  29.176   7.655
 5803POPC   C1B 6475  14.916  29.063   8.555
 5803POPC   C2B 6476  14.968  29.106   8.255
 5803POPC   C3B 6477  14.900  29.112   7.955
 5803POPC   C4B 6478  14.941  29.068   7.655
 5804POPC   NC3 6479  18.313  32.991   9.455
 5804POPC   PO4 6480  18.291  33.055   9.155
 5804POPC   GL1 6481  18.286  33.017   8.855
 5804POPC   GL2 6482  18.364  32.955   8.855
 5804POPC   C1A 6483  18.313  33.027   8.555
 5804POPC   D2A 6484  18.233  33.054   8.255
 5804POPC   C3A 6485  18.265  33.001   7.955
 5804POPC   C4A 6486  18.279  32.988   7.655
 5804POPC   C1B 6487  18.353  32.775   8.555
 5804POPC   C2B 6488  18.408  32.787   8.255
 5804POPC   C3B 6489  18.392  32.780   7.955
 5804POPC   C4B 6490  18.389  32.751   7.655
 5805POPC   NC3 6491   5.881  12.114   9.455
 5805POPC   PO4 6492   5.865  12.067   9.155
 5805POPC   GL1 6493   5.833  12.042   8.855
 5805POPC   GL2 6494   5.863  11.943   8.855
 5805POPC   C1A 6495   5.909  12.081   8.555
 5805POPC   D2A 6496   5.891  12.033   8.255
 5805POPC   C3A 6497   5.881  12.122   7.955
 5805POPC   C4A 6498   5.873  12.071   7.655
 5805POPC   C1B 6499   5.860  11.833   8.555
 5805POPC   C2B 6500   5.864  11.866   8.255
 5805POPC   C3B 6501   5.849  11.853   7.955
 5805POPC   C4B 6502   5.870  11.838   7.655
 5806POPC   NC3 6503  27.629  15.210   9.455
 5806POPC   PO4 6504  27.565  15.226   9.155
 5806POPC   GL1 6505  27.615  15.149   8.855
 5806POPC   GL2 6506  27.530  15.048   8.855
 5806POPC   C1A 6507  27.572  15.206   8.555
 5806POPC   D2A 6508  27.631  15.132   8.255
 5806POPC   C3A 6509  27.554  15.222   7.955
 5806POPC   C4A 6510  27.553  15.139   7.655
 5806POPC   C1B 6511  27.517  14.942   8.555
 5806POPC   C2B 6512  27.573  14.915   8.255
 5806POPC   C3B 6513  27.582  14.900   7.955
 5806POPC   C4B 6514  27.577  14.888   7.655
 5807POPC   NC3 6515   5.842  11.290   9.455
 5807POPC   PO4 6516   5.847  11.337   9.155
 5807POPC   GL1 6517   5.870  11.344   8.855
 5807POPC   GL2 6518   5.836  11.448   8.855
 5807POPC   C1A 6519   5.857  11.255   8.555
 5807POPC   D2A 6520   5.913  11.258   8.255
 5807POPC   C3A 6521   5.911  11.307   7.955
 5807POPC   C4A 6522   5.915  11.336   7.655
 5807POPC   C1B 6523   5.756  11.545   8.555
 5807POPC   C2B 6524   5.708  11.555   8.255
 5807POPC   C3B 6525   5.699  11.542   7.955
 5807POPC   C4B 6526   5.782  11.559   7.655
 5808POPC   NC3 6527  21.356  36.169   9.455
 5808POPC   PO4 6528  21.353  36.091   9.155
 5808POPC   GL1 6529  21.374  36.136   8.855
 5808POPC   GL2 6530  21.394  35.970   8.855
 5808POPC   C1A 6531  21.426  36.162   8.555
 5808POPC   D2A 6532  21.395  36.148   8.255
 5808POPC   C3A 6533  21.420  36.094   7.955
 5808POPC   C4A 6534  21.410  36.135   7.655
 5808POPC   C1B 6535  21.289  35.885   8.555
 5808POPC   C2B 6536  21.323  35.867   8.255
 5808POPC   C3B 6537  21.356  35.914   7.955
 5808POPC   C4B 6538  21.322  35.839   7.655
 5809POPC   NC3 6539  14.450  14.365   9.455
 5809POPC   PO4 6540  14.409  14.413   9.155
 5809POPC   GL1 6541  14.406  14.376   8.855
 5809POPC   GL2 6542  14.402  14.275   8.855
 5809POPC   C1A 6543  14.412  14.421   8.555
 5809POPC   D2A 6544  14.433  14.379   8.255
 5809POPC   C3A 6545  14.413  14.381   7.955
 5809POPC   C4A 6546  14.408  14.355   7.655
 5809POPC   C1B 6547  14.387  14.172   8.555
 5809POPC   C2B 6548  14.392  14.130   8.255
 5809POPC   C3B 6549  14.384  14.186   7.955
 5809POPC   C4B 6550  14.381  14.146   7.655
 5810POPC   NC3 6551  33.753   1.201   9.455
 5810POPC   PO4 6552  33.799   1.189   9.155
 5810POPC   GL1 6553  33.804   1.171   8.855
 5810POPC   GL2 6554  33.836   1.105   8.855
 5810POPC   C1A 6555  33.843   1.240   8.555
 5810POPC   D2A 6556  33.757   1.236   8.255
 5810POPC   C3A 6557  33.813   1.214   7.955
 5810POPC   C4A 6558  33.797   1.222   7.655
 5810POPC   C1B 6559  33.891   1.036   8.555
 5810POPC   C2B 6560  33.905   1.031   8.255
 5810POPC   C3B 6561  33.915   1.037   7.955
 5810POPC   C4B 6562  33.903   0.959   7.655
 5811POPC   NC3 6563  24.490  26.085   9.455
 5811POPC   PO4 6564  24.447  26.043   9.155
 5811POPC   GL1 6565  24.533  26.016   8.855
 5811POPC   GL2 6566  24.397  26.089   8.855
 5811POPC   C1A 6567  24.507  26.081   8.555
 5811POPC   D2A 6568  24.450  26.004   8.255
 5811POPC   C3A 6569  24.533  26.011   7.955
 5811POPC   C4A 6570  24.511  26.045   7.655
 5811POPC   C1B 6571  24.348  26.232   8.555
 5811POPC   C2B 6572  24.324  26.228   8.255
 5811POPC   C3B 6573  24.264  26.181   7.955
 5811POPC   C4B 6574  24.304  26.261   7.655
 5812POPC   NC3 6575   6.664  22.141   9.455
 5812POPC   PO4 6576   6.618  22.157   9.155
 5812POPC   GL1 6577   6.655  22.156   8.855
 5812POPC   GL2 6578   6.767  22.064   8.855
 5812POPC   C1A 6579   6.667  22.193   8.555
 5812POPC   D2A 6580   6.691  22.144   8.255
 5812POPC   C3A 6581   6.635  22.183   7.955
 5812POPC   C4A 6582   6.609  22.119   7.655
 5812POPC   C1B 6583   6.867  22.027   8.555
 5812POPC   C2B 6584   6.883  22.063   8.255
 5812POPC   C3B 6585   6.800  22.007   7.955
 5812POPC   C4B 6586   6.824  22.059   7.655
 5813POPC   NC3 6587  36.083   1.950   9.455
 5813POPC   PO4 6588  36.130   1.996   9.155
 5813POPC   GL1 6589  36.174   2.009   8.855
 5813POPC   GL2 6590  36.066   1.876   8.855
 5813POPC   C1A 6591  36.115   2.027   8.555
 5813POPC   D2A 6592  36.141   1.965   8.255
 5813POPC   C3A 6593  36.091   1.984   7.955
 5813POPC   C4A 6594  36.153   1.961   7.655
 5813POPC   C1B 6595  36.047   1.795   8.555
 5813POPC   C2B 6596  35.995   1.765   8.255
 5813POPC   C3B 6597  35.993   1.790   7.955
 5813POPC   C4B 6598  35.990   1.778   7.655
 5814POPC   NC3 6599   1.257  41.555   9.455
 5814POPC   PO4 6600   1.171  41.534   9.155
 5814POPC   GL1 6601   1.243  41.604   8.855
 5814POPC   GL2 6602   1.335  41.537   8.855
 5814POPC   C1A 6603   1.230  41.510   8.555
 5814POPC   D2A 6604   1.216  41.574   8.255
 5814POPC   C3A 6605   1.201  41.522   7.955
 5814POPC   C4A 6606   1.246  41.596   7.655
 5814POPC   C1B 6607   1.391  41.493   8.555
 5814POPC   C2B 6608   1.479  41.464   8.255
 5814POPC   C3B 6609   1.418  41.416   7.955
 5814POPC   C4B 6610   1.444  41.457   7.655
 5815POPC   NC3 6611  36.944  13.653   9.455
 5815POPC   PO4 6612  36.916  13.639   9.155
 5815POPC   GL1 6613  36.894  13.673   8.855
 5815POPC   GL2 6614  37.043  13.550   8.855
 5815POPC   C1A 6615  36.935  13.617   8.555
 5815POPC   D2A 6616  36.886  13.678   8.255
 5815POPC   C3A 6617  36.890  13.677   7.955
 5815POPC   C4A 6618  36.950  13.594   7.655
 5815POPC   C1B 6619  37.141  13.527   8.555
 5815POPC   C2B 6620  37.176  13.536   8.255
 5815POPC   C3B 6621  37.107  13.538   7.955
 5815POPC   C4B 6622  37.105  13.617   7.655
 5816POPC   NC3 6623  13.583  23.726   9.455
 5816POPC   PO4 6624  13.616  23.672   9.155
 5816POPC   GL1 6625  13.677  23.731   8.855
 5816POPC   GL2 6626  13.776  23.745   8.855
 5816POPC   C1A 6627  13.617  23.681   8.555
 5816POPC   D2A 6628  13.652  23.677   8.255
 5816POPC   C3A 6629  13.589  23.747   7.955
 5816POPC   C4A 6630  13.630  23.752   7.655
 5816POPC   C1B 6631  13.810  23.879   8.555
 5816POPC   C2B 6632  13.832  23.899   8.255
 5816POPC   C3B 6633  13.862  23.885   7.955
 5816POPC   C4B 6634  13.839  23.848   7.655
 5817POPC   NC3 6635  39.993  19.052   9.455
 5817POPC   PO4 6636  40.029  19.031   9.155
 5817POPC   GL1 6637  40.010  19.084   8.855
 5817POPC   GL2 6638  39.875  19.099   8.855
 5817POPC   C1A 6639  40.055  19.077   8.555
 5817POPC   D2A 6640  39.977  19.045   8.255
 5817POPC   C3A 6641  39.981  19.066   7.955
 5817POPC   C4A 6642  40.002  19.061   7.655
 5817POPC   C1B 6643  39.754  19.192   8.555
 5817POPC   C2B 6644  39.802  19.111   8.255
 5817POPC   C3B 6645  39.775  19.168   7.955
 5817POPC   C4B 6646  39.792  19.185   7.655
 5818POPC   NC3 6647   6.665  27.571   9.455
 5818POPC   PO4 6648   6.669  27.600   9.155
 5818POPC   GL1 6649   6.692  27.577   8.855
 5818POPC   GL2 6650   6.680  27.453   8.855
 5818POPC   C1A 6651   6.678  27.566   8.555
 5818POPC   D2A 6652   6.608  27.584   8.255
 5818POPC   C3A 6653   6.688  27.585   7.955
 5818POPC   C4A 6654   6.667  27.639   7.655
 5818POPC   C1B 6655   6.606  27.323   8.555
 5818POPC   C2B 6656   6.641  27.383   8.255
 5818POPC   C3B 6657   6.584  27.346   7.955
 5818POPC   C4B 6658   6.594  27.377   7.655
 5819POPC   NC3 6659  23.738  22.957   9.455
 5819POPC   PO4 6660  23.694  22.961   9.155
 5819POPC   GL1 6661  23.680  22.928   8.855
 5819POPC   GL2 6662  23.767  22.789   8.855
 5819POPC   C1A 6663  23.682  22.959   8.555
 5819POPC   D2A 6664  23.755  22.966   8.255
 5819POPC   C3A 6665  23.703  22.982   7.955
 5819POPC   C4A 6666  23.751  22.902   7.655
 5819POPC   C1B 6667  23.831  22.714   8.555
 5819POPC   C2B 6668  23.905  22.711   8.255
 5819POPC   C3B 6669  23.897  22.721   7.955
 5819POPC   C4B 6670  23.908  22.734   7.655
 5820POPC   NC3 6671  31.519  26.854   9.455
 5820POPC   PO4 6672  31.433  26.774   9.155
 5820POPC   GL1 6673  31.463  26.807   8.855
 5820POPC   GL2 6674  31.337  26.816   8.855
 5820POPC   C1A 6675  31.452  26.792   8.555
 5820POPC   D2A 6676  31.441  26.846   8.255
 5820POPC   C3A 6677  31.439  26.829   7.955
 5820POPC   C4A 6678  31.469  26.794   7.655
 5820POPC   C1B 6679  31.252  26.905   8.555
 5820POPC   C2B 6680  31.273  26.867   8.255
 5820POPC   C3B 6681  31.183  26.893   7.955
 5820POPC   C4B 6682  31.276  26.827   7.655
 5821POPC   NC3 6683  27.639  36.953   9.455
 5821POPC   PO4 6684  27.555  36.885   9.155
 5821POPC   GL1 6685  27.555  36.918   8.855
 5821POPC   GL2 6686  27.632  36.807   8.855
 5821POPC   C1A 6687  27.624  36.866   8.555
 5821POPC   D2A 6688  27.624  36.861   8.255
 5821POPC   C3A 6689  27.583  36.952   7.955
 5821POPC   C4A 6690  27.556  36.887   7.655
 5821POPC   C1B 6691  27.683  36.612   8.555
 5821POPC   C2B 6692  27.602  36.694   8.255
 5821POPC   C3B 6693  27.609  36.627   7.955
 5821POPC   C4B 6694  27.680  36.671   7.655
 5822POPC   NC3 6695   9.772  11.332   9.455
 5822POPC   PO4 6696   9.782  11.272   9.155
 5822POPC   GL1 6697   9.745  11.297   8.855
 5822POPC   GL2 6698   9.723  11.171   8.855
 5822POPC   C1A 6699   9.712  11.270   8.555
 5822POPC   D2A 6700   9.728  11.321   8.255
 5822POPC   C3A 6701   9.737  11.311   7.955
 5822POPC   C4A 6702   9.715  11.298   7.655
 5822POPC   C1B 6703   9.581  11.091   8.555
 5822POPC   C2B 6704   9.636  11.099   8.255
 5822POPC   C3B 6705   9.615  11.134   7.955
 5822POPC   C4B 6706   9.596  11.050   7.655
 5823POPC   NC3 6707  41.575  19.066   9.455
 5823POPC   PO4 6708  41.549  19.011   9.155
 5823POPC   GL1 6709  41.597  19.078   8.855
 5823POPC   GL2 6710  41.445  19.153   8.855
 5823POPC   C1A 6711  41.525  19.028   8.555
 5823POPC   D2A 6712  41.531  19.101   8.255
 5823POPC   C3A 6713  41.544  19.062   7.955
 5823POPC   C4A 6714  41.544  19.075   7.655
 5823POPC   C1B 6715  41.307  19.178   8.555
 5823POPC   C2B 6716  41.299  19.188   8.255
 5823POPC   C3B 6717  41.344  19.142   7.955
 5823POPC   C4B 6718  41.310  19.157   7.655
 5824POPC   NC3 6719   2.746   0.468   9.455
 5824POPC   PO4 6720   2.734   0.452   9.155
 5824POPC   GL1 6721   2.724   0.461   8.855
 5824POPC   GL2 6722   2.740   0.537   8.855
 5824POPC   C1A 6723   2.758   0.436   8.555
 5824POPC   D2A 6724   2.758   0.429   8.255
 5824POPC   C3A 6725   2.767   0.449   7.955
 5824POPC   C4A 6726   2.720   0.439   7.655
 5824POPC   C1B 6727   2.654   0.616   8.555
 5824POPC   C2B 6728   2.706   0.700   8.255
 5824POPC   C3B 6729   2.695   0.669   7.955
 5824POPC   C4B 6730   2.623   0.657   7.655
 5825POPC   NC3 6731   8.940  42.377   9.455
 5825POPC   PO4 6732   9.017  42.296   9.155
 5825POPC   GL1 6733   8.987  42.334   8.855
 5825POPC   GL2 6734   8.973  42.453   8.855
 5825POPC   C1A 6735   8.923  42.359   8.555
 5825POPC   D2A 6736   9.006  42.323   8.255
 5825POPC   C3A 6737   8.968  42.311   7.955
 5825POPC   C4A 6738   9.021  42.355   7.655
 5825POPC   C1B 6739   9.012  42.588   8.555
 5825POPC   C2B 6740   9.019  42.549   8.255
 5825POPC   C3B 6741   9.083  42.595   7.955
 5825POPC   C4B 6742   9.068  42.528   7.655
 5826POPC   NC3 6743   8.164   6.627   9.455
 5826POPC   PO4 6744   8.149   6.599   9.155
 5826POPC   GL1 6745   8.217   6.685   8.855
 5826POPC   GL2 6746   8.308   6.662   8.855
 5826POPC   C1A 6747   8.215   6.687   8.555
 5826POPC   D2A 6748   8.243   6.671   8.255
 5826POPC   C3A 6749   8.159   6.607   7.955
 5826POPC   C4A 6750   8.148   6.662   7.655
 5826POPC   C1B 6751   8.419   6.661   8.555
 5826POPC   C2B 6752   8.468   6.625   8.255
 5826POPC   C3B 6753   8.479   6.666   7.955
 5826POPC   C4B 6754   8.484   6.605   7.655
 5827POPC   NC3 6755  33.809  32.240   9.455
 5827POPC   PO4 6756  33.839  32.287   9.155
 5827POPC   GL1 6757  33.750  32.238   8.855
 5827POPC   GL2 6758  33.766  32.391   8.855
 5827POPC   C1A 6759  33.846  32.232   8.555
 5827POPC   D2A 6760  33.841  32.224   8.255
 5827POPC   C3A 6761  33.827  32.217   7.955
 5827POPC   C4A 6762  33.751  32.223   7.655
 5827POPC   C1B 6763  33.747  32.450   8.555
 5827POPC   C2B 6764  33.793  32.543   8.255
 5827POPC   C3B 6765  33.732  32.459   7.955
 5827POPC   C4B 6766  33.756  32.474   7.655
 5828POPC   NC3 6767  15.177  32.232   9.455
 5828POPC   PO4 6768  15.184  32.284   9.155
 5828POPC   GL1 6769  15.146  32.223   8.855
 5828POPC   GL2 6770  15.131  32.367   8.855
 5828POPC   C1A 6771  15.226  32.238   8.555
 5828POPC   D2A 6772  15.130  32.246   8.255
 5828POPC   C3A 6773  15.224  32.254   7.955
 5828POPC   C4A 6774  15.138  32.268   7.655
 5828POPC   C1B 6775  15.078  32.442   8.555
 5828POPC   C2B 6776  15.069  32.473   8.255
 5828POPC   C3B 6777  15.087  32.463   7.955
 5828POPC   C4B 6778  15.124  32.440   7.655
 5829POPC   NC3 6779  33.754  44.612   9.455
 5829POPC   PO4 6780  33.765  44.641   9.155
 5829POPC   GL1 6781  33.796  44.642   8.855
 5829POPC   GL2 6782  33.846  44.494   8.855
 5829POPC   C1A 6783  33.769  44.617   8.555
 5829POPC   D2A 6784  33.838  44.639   8.255
 5829POPC   C3A 6785  33.838  44.689   7.955
 5829POPC   C4A 6786  33.841  44.652   7.655
 5829POPC   C1B 6787  33.856  44.450   8.555
 5829POPC   C2B 6788  33.816  44.394   8.255
 5829POPC   C3B 6789  33.859  44.417   7.955
 5829POPC   C4B 6790  33.870  44.391   7.655
 5830POPC   NC3 6791  39.261  18.313   9.455
 5830POPC   PO4 6792  39.279  18.328   9.155
 5830POPC   GL1 6793  39.260  18.319   8.855
 5830POPC   GL2 6794  39.131  18.304   8.855
 5830POPC   C1A 6795  39.271  18.296   8.555
 5830POPC   D2A 6796  39.189  18.302   8.255
 5830POPC   C3A 6797  39.183  18.325   7.955
 5830POPC   C4A 6798  39.183  18.311   7.655
 5830POPC   C1B 6799  38.962  18.353   8.555
 5830POPC   C2B 6800  39.018  18.299   8.255
 5830POPC   C3B 6801  38.989  18.284   7.955
 5830POPC   C4B 6802  38.956  18.343   7.655
 5831POPC   NC3 6803  44.615   1.971   9.455
 5831POPC   PO4 6804  44.700   1.983   9.155
 5831POPC   GL1 6805  44.631   1.964   8.855
 5831POPC   GL2 6806  44.690   1.823   8.855
 5831POPC   C1A 6807  44.662   1.993   8.555
 5831POPC   D2A 6808  44.668   1.997   8.255
 5831POPC   C3A 6809  44.624   2.014   7.955
 5831POPC   C4A 6810  44.614   1.995   7.655
 5831POPC   C1B 6811  44.688   1.780   8.555
 5831POPC   C2B 6812  44.711   1.771   8.255
 5831POPC   C3B 6813  44.676   1.720   7.955
 5831POPC   C4B 6814  44.738   1.778   7.655
 5832POPC   NC3 6815  37.668  17.476   9.455
 5832POPC   PO4 6816  37.686  17.471   9.155
 5832POPC   GL1 6817  37.728  17.511   8.855
 5832POPC   GL2 6818  37.823  17.533   8.855
 5832POPC   C1A 6819  37.722  17.528   8.555
 5832POPC   D2A 6820  37.682  17.553   8.255
 5832POPC   C3A 6821  37.636  17.481   7.955
 5832POPC   C4A 6822  37.663  17.476   7.655
 5832POPC   C1B 6823  37.935  17.616   8.555
 5832POPC   C2B 6824  37.897  17.648   8.255
 5832POPC   C3B 6825  37.864  17.663   7.955
 5832POPC   C4B 6826  37.916  17.639   7.655
 5833POPC   NC3 6827  10.526  15.981   9.455
 5833POPC   PO4 6828  10.513  15.936   9.155
 5833POPC   GL1 6829  10.491  16.004   8.855
 5833POPC   GL2 6830  10.582  16.014   8.855
 5833POPC   C1A 6831  10.512  15.946   8.555
 5833POPC   D2A 6832  10.567  15.909   8.255
 5833POPC   C3A 6833  10.570  15.981   7.955
 5833POPC   C4A 6834  10.555  15.913   7.655
 5833POPC   C1B 6835  10.773  16.110   8.555
 5833POPC   C2B 6836  10.704  16.094   8.255
 5833POPC   C3B 6837  10.741  16.059   7.955
 5833POPC   C4B 6838  10.770  16.088   7.655
 5834POPC   NC3 6839  22.941  44.699   9.455
 5834POPC   PO4 6840  22.904  44.646   9.155
 5834POPC   GL1 6841  22.940  44.657   8.855
 5834POPC   GL2 6842  22.976  44.553   8.855
 5834POPC   C1A 6843  22.978  44.617   8.555
 5834POPC   D2A 6844  22.971  44.640   8.255
 5834POPC   C3A 6845  22.949  44.664   7.955
 5834POPC   C4A 6846  22.982  44.696   7.655
 5834POPC   C1B 6847  22.975  44.450   8.555
 5834POPC   C2B 6848  22.971  44.388   8.255
 5834POPC   C3B 6849  22.981  44.453   7.955
 5834POPC   C4B 6850  22.993  44.431   7.655
 5835POPC   NC3 6851   9.729  22.946   9.455
 5835POPC   PO4 6852   9.725  22.923   9.155
 5835POPC   GL1 6853   9.784  22.982   8.855
 5835POPC   GL2 6854   9.702  23.030   8.855
 5835POPC   C1A 6855   9.729  22.902   8.555
 5835POPC   D2A 6856   9.735  22.926   8.255
 5835POPC   C3A 6857   9.743  22.931   7.955
 5835POPC   C4A 6858   9.792  22.965   7.655
 5835POPC   C1B 6859   9.641  23.147   8.555
 5835POPC   C2B 6860   9.563  23.095   8.255
 5835POPC   C3B 6861   9.557  23.139   7.955
 5835POPC   C4B 6862   9.600  23.152   7.655
 5836POPC   NC3 6863  36.925  43.063   9.455
 5836POPC   PO4 6864  36.873  43.113   9.155
 5836POPC   GL1 6865  36.927  43.062   8.855
 5836POPC   GL2 6866  36.863  43.228   8.855
 5836POPC   C1A 6867  36.919  43.123   8.555
 5836POPC   D2A 6868  36.886  43.063   8.255
 5836POPC   C3A 6869  36.882  43.100   7.955
 5836POPC   C4A 6870  36.950  43.136   7.655
 5836POPC   C1B 6871  36.965  43.374   8.555
 5836POPC   C2B 6872  36.942  43.322   8.255
 5836POPC   C3B 6873  36.913  43.354   7.955
 5836POPC   C4B 6874  36.944  43.342   7.655
 5837POPC   NC3 6875  37.633  26.046   9.455
 5837POPC   PO4 6876  37.667  26.056   9.155
 5837POPC   GL1 6877  37.637  26.026   8.855
 5837POPC   GL2 6878  37.627  26.119   8.855
 5837POPC   C1A 6879  37.685  26.034   8.555
 5837POPC   D2A 6880  37.694  26.084   8.255
 5837POPC   C3A 6881  37.665  26.088   7.955
 5837POPC   C4A 6882  37.641  26.062   7.655
 5837POPC   C1B 6883  37.528  26.207   8.555
 5837POPC   C2B 6884  37.485  26.238   8.255
 5837POPC   C3B 6885  37.577  26.255   7.955
 5837POPC   C4B 6886  37.530  26.271   7.655
 5838POPC   NC3 6887  25.315  34.585   9.455
 5838POPC   PO4 6888  25.278  34.527   9.155
 5838POPC   GL1 6889  25.252  34.527   8.855
 5838POPC   GL2 6890  25.189  34.523   8.855
 5838POPC   C1A 6891  25.228  34.570   8.555
 5838POPC   D2A 6892  25.220  34.583   8.255
 5838POPC   C3A 6893  25.230  34.574   7.955
 5838POPC   C4A 6894  25.264  34.532   7.655
 5838POPC   C1B 6895  25.151  34.379   8.555
 5838POPC   C2B 6896  25.129  34.391   8.255
 5838POPC   C3B 6897  25.134  34.405   7.955
 5838POPC   C4B 6898  25.138  34.378   7.655
 5839POPC   NC3 6899  27.636  37.711   9.455
 5839POPC   PO4 6900  27.571  37.636   9.155
 5839POPC   GL1 6901  27.613  37.636   8.855
 5839POPC   GL2 6902  27.420  37.639   8.855
 5839POPC   C1A 6903  27.559  37.723   8.555
 5839POPC   D2A 6904  27.623  37.681   8.255
 5839POPC   C3A 6905  27.584  37.661   7.955
 5839POPC   C4A 6906  27.640  37.642   7.655
 5839POPC   C1B 6907  27.356  37.661   8.555
 5839POPC   C2B 6908  27.358  37.606   8.255
 5839POPC   C3B 6909  27.355  37.689   7.955
 5839POPC   C4B 6910  27.335  37.696   7.655
 5840POPC   NC3 6911  39.975  16.002   9.455
 5840POPC   PO4 6912  39.979  15.944   9.155
 5840POPC   GL1 6913  40.010  15.996   8.855
 5840POPC   GL2 6914  39.899  16.023   8.855
 5840POPC   C1A 6915  39.972  15.927   8.555
 5840POPC   D2A 6916  39.967  15.952   8.255
 5840POPC   C3A 6917  39.984  15.913   7.955
 5840POPC   C4A 6918  40.013  15.998   7.655
 5840POPC   C1B 6919  39.847  16.163   8.555
 5840POPC   C2B 6920  39.849  16.148   8.255
 5840POPC   C3B 6921  39.908  16.194   7.955
 5840POPC   C4B 6922  39.901  16.209   7.655
 5841POPC   NC3 6923  29.954  23.686   9.455
 5841POPC   PO4 6924  29.882  23.714   9.155
 5841POPC   GL1 6925  29.894  23.697   8.855
 5841POPC   GL2 6926  29.845  23.821   8.855
 5841POPC   C1A 6927  29.931  23.690   8.555
 5841POPC   D2A 6928  29.968  23.712   8.255
 5841POPC   C3A 6929  29.887  23.724   7.955
 5841POPC   C4A 6930  29.941  23.739   7.655
 5841POPC   C1B 6931  29.871  23.994   8.555
 5841POPC   C2B 6932  29.886  23.974   8.255
 5841POPC   C3B 6933  29.812  23.939   7.955
 5841POPC   C4B 6934  29.883  23.956   7.655
 5842POPC   NC3 6935   4.289  40.745   9.455
 5842POPC   PO4 6936   4.352  40.769   9.155
 5842POPC   GL1 6937   4.296  40.746   8.855
 5842POPC   GL2 6938   4.221  40.900   8.855
 5842POPC   C1A 6939   4.359  40.759   8.555
 5842POPC   D2A 6940   4.286  40.778   8.255
 5842POPC   C3A 6941   4.268  40.824   7.955
 5842POPC   C4A 6942   4.324  40.827   7.655
 5842POPC   C1B 6943   4.229  41.014   8.555
 5842POPC   C2B 6944   4.226  40.953   8.255
 5842POPC   C3B 6945   4.180  41.000   7.955
 5842POPC   C4B 6946   4.170  41.036   7.655
 5843POPC   NC3 6947  19.009  29.877   9.455
 5843POPC   PO4 6948  19.043  29.922   9.155
 5843POPC   GL1 6949  19.092  29.881   8.855
 5843POPC   GL2 6950  18.993  29.826   8.855
 5843POPC   C1A 6951  19.091  29.928   8.555
 5843POPC   D2A 6952  19.047  29.957   8.255
 5843POPC   C3A 6953  19.104  29.913   7.955
 5843POPC   C4A 6954  19.101  29.948   7.655
 5843POPC   C1B 6955  18.830  29.750   8.555
 5843POPC   C2B 6956  18.882  29.724   8.255
 5843POPC   C3B 6957  18.852  29.802   7.955
 5843POPC   C4B 6958  18.910  29.796   7.655
 5844POPC   NC3 6959  30.656  41.550   9.455
 5844POPC   PO4 6960  30.665  41.571   9.155
 5844POPC   GL1 6961  30.740  41.528   8.855
 5844POPC   GL2 6962  30.720  41.717   8.855
 5844POPC   C1A 6963  30.672  41.571   8.555
 5844POPC   D2A 6964  30.684  41.585   8.255
 5844POPC   C3A 6965  30.731  41.562   7.955
 5844POPC   C4A 6966  30.672  41.597   7.655
 5844POPC   C1B 6967  30.697  41.840   8.555
 5844POPC   C2B 6968  30.796  41.766   8.255
 5844POPC   C3B 6969  30.721  41.797   7.955
 5844POPC   C4B 6970  30.751  41.767   7.655
 5845POPC   NC3 6971  14.453  15.133   9.455
 5845POPC   PO4 6972  14.380  15.223   9.155
 5845POPC   GL1 6973  14.448  15.149   8.855
 5845POPC   GL2 6974  14.318  15.267   8.855
 5845POPC   C1A 6975  14.394  15.216   8.555
 5845POPC   D2A 6976  14.375  15.212   8.255
 5845POPC   C3A 6977  14.386  15.148   7.955
 5845POPC   C4A 6978  14.369  15.180   7.655
 5845POPC   C1B 6979  14.190  15.276   8.555
 5845POPC   C2B 6980  14.211  15.315   8.255
 5845POPC   C3B 6981  14.183  15.252   7.955
 5845POPC   C4B 6982  14.223  15.283   7.655
 5846POPC   NC3 6983  22.905  25.256   9.455
 5846POPC   PO4 6984  22.922  25.280   9.155
 5846POPC   GL1 6985  22.966  25.311   8.855
 5846POPC   GL2 6986  22.808  25.304   8.855
 5846POPC   C1A 6987  22.975  25.295   8.555
 5846POPC   D2A 6988  22.947  25.242   8.255
 5846POPC   C3A 6989  22.899  25.269   7.955
 5846POPC   C4A 6990  22.975  25.305   7.655
 5846POPC   C1B 6991  22.673  25.287   8.555
 5846POPC   C2B 6992  22.736  25.248   8.255
 5846POPC   C3B 6993  22.715  25.261   7.955
 5846POPC   C4B 6994  22.656  25.227   7.655
 5847POPC   NC3 6995  37.670   5.071   9.455
 5847POPC   PO4 6996  37.677   5.063   9.155
 5847POPC   GL1 6997  37.719   5.136   8.855
 5847POPC   GL2 6998  37.573   5.127   8.855
 5847POPC   C1A 6999  37.704   5.076   8.555
 5847POPC   D2A 7000  37.661   5.118   8.255
 5847POPC   C3A 7001  37.665   5.051   7.955
 5847POPC   C4A 7002  37.720   5.098   7.655
 5847POPC   C1B 7003  37.489   5.266   8.555
 5847POPC   C2B 7004  37.486   5.195   8.255
 5847POPC   C3B 7005  37.438   5.175   7.955
 5847POPC   C4B 7006  37.510   5.177   7.655
 5848POPC   NC3 7007  12.833  17.505   9.455
 5848POPC   PO4 7008  12.818  17.461   9.155
 5848POPC   GL1 7009  12.852  17.498   8.855
 5848POPC   GL2 7010  12.765  17.395   8.855
 5848POPC   C1A 7011  12.886  17.467   8.555
 5848POPC   D2A 7012  12.841  17.494   8.255
 5848POPC   C3A 7013  12.891  17.499   7.955
 5848POPC   C4A 7014  12.893  17.494   7.655
 5848POPC   C1B 7015  12.647  17.284   8.555
 5848POPC   C2B 7016  12.712  17.358   8.255
 5848POPC   C3B 7017  12.720  17.303   7.955
 5848POPC   C4B 7018  12.670  17.332   7.655
 5849POPC   NC3 7019  39.197  44.695   9.455
 5849POPC   PO4 7020  39.241  44.650   9.155
 5849POPC   GL1 7021  39.265  44.707   8.855
 5849POPC   GL2 7022  39.158  44.790   8.855
 5849POPC   C1A 7023  39.201  44.654   8.555
 5849POPC   D2A 7024  39.206  44.622   8.255
 5849POPC   C3A 7025  39.260  44.709   7.955
 5849POPC   C4A 7026  39.182  44.708   7.655
 5849POPC   C1B 7027  39.057  44.824   8.555
 5849POPC   C2B 7028  39.053  44.798   8.255
 5849POPC   C3B 7029  39.012  44.819   7.955
 5849POPC   C4B 7030  39.044  44.800   7.655
 5850POPC   NC3 7031   7.462  15.921   9.455
 5850POPC   PO4 7032   7.456  15.982   9.155
 5850POPC   GL1 7033   7.468  15.992   8.855
 5850POPC   GL2 7034   7.577  15.947   8.855
 5850POPC   C1A 7035   7.376  15.946   8.555
 5850POPC   D2A 7036   7.452  15.965   8.255
 5850POPC   C3A 7037   7.386  15.987   7.955
 5850POPC   C4A 7038   7.380  15.917   7.655
 5850POPC   C1B 7039   7.673  15.942   8.555
 5850POPC   C2B 7040   7.621  15.949   8.255
 5850POPC   C3B 7041   7.702  15.940   7.955
 5850POPC   C4B 7042   7.697  15.988   7.655
 5851POPC   NC3 7043  32.216  36.941   9.455
 5851POPC   PO4 7044  32.215  36.860   9.155
 5851POPC   GL1 7045  32.259  36.919   8.855
 5851POPC   GL2 7046  32.122  36.965   8.855
 5851POPC   C1A 7047  32.242  36.858   8.555
 5851POPC   D2A 7048  32.226  36.936   8.255
 5851POPC   C3A 7049  32.242  36.911   7.955
 5851POPC   C4A 7050  32.262  36.943   7.655
 5851POPC   C1B 7051  32.059  37.045   8.555
 5851POPC   C2B 7052  32.087  37.064   8.255
 5851POPC   C3B 7053  32.101  37.131   7.955
 5851POPC   C4B 7054  32.052  37.080   7.655
 5852POPC   NC3 7055   2.036  15.171   9.455
 5852POPC   PO4 7056   1.941  15.133   9.155
 5852POPC   GL1 7057   1.944  15.153   8.855
 5852POPC   GL2 7058   2.035  15.041   8.855
 5852POPC   C1A 7059   2.009  15.187   8.555
 5852POPC   D2A 7060   2.014  15.215   8.255
 5852POPC   C3A 7061   1.959  15.134   7.955
 5852POPC   C4A 7062   2.034  15.130   7.655
 5852POPC   C1B 7063   2.101  14.955   8.555
 5852POPC   C2B 7064   2.119  14.932   8.255
 5852POPC   C3B 7065   2.091  14.941   7.955
 5852POPC   C4B 7066   2.053  14.989   7.655
 5853POPC   NC3 7067  22.144  38.505   9.455
 5853POPC   PO4 7068  22.124  38.424   9.155
 5853POPC   GL1 7069  22.182  38.407   8.855
 5853POPC   GL2 7070  22.212  38.310   8.855
 5853POPC   C1A 7071  22.119  38.438   8.555
 5853POPC   D2A 7072  22.136  38.480   8.255
 5853POPC   C3A 7073  22.161  38.447   7.955
 5853POPC   C4A 7074  22.134  38.478   7.655
 5853POPC   C1B 7075  22.162  38.211   8.555
 5853POPC   C2B 7076  22.166  38.229   8.255
 5853POPC   C3B 7077  22.222  38.206   7.955
 5853POPC   C4B 7078  22.184  38.192   7.655
 5854POPC   NC3 7079   6.681  24.467   9.455
 5854POPC   PO4 7080   6.627  24.530   9.155
 5854POPC   GL1 7081   6.634  24.482   8.855
 5854POPC   GL2 7082   6.483  24.503   8.855
 5854POPC   C1A 7083   6.660  24.520   8.555
 5854POPC   D2A 7084   6.668  24.441   8.255
 5854POPC   C3A 7085   6.623  24.468   7.955
 5854POPC   C4A 7086   6.599  24.487   7.655
 5854POPC   C1B 7087   6.433  24.607   8.555
 5854POPC   C2B 7088   6.372  24.585   8.255
 5854POPC   C3B 7089   6.427  24.525   7.955
 5854POPC   C4B 7090   6.358  24.610   7.655
 5855POPC   NC3 7091  24.469  42.356   9.455
 5855POPC   PO4 7092  24.456  42.359   9.155
 5855POPC   GL1 7093  24.499  42.321   8.855
 5855POPC   GL2 7094  24.442  42.451   8.855
 5855POPC   C1A 7095  24.524  42.310   8.555
 5855POPC   D2A 7096  24.510  42.359   8.255
 5855POPC   C3A 7097  24.486  42.326   7.955
 5855POPC   C4A 7098  24.447  42.359   7.655
 5855POPC   C1B 7099  24.440  42.620   8.555
 5855POPC   C2B 7100  24.428  42.617   8.255
 5855POPC   C3B 7101  24.385  42.600   7.955
 5855POPC   C4B 7102  24.379  42.535   7.655
 5856POPC   NC3 7103  21.336  25.298   9.455
 5856POPC   PO4 7104  21.372  25.279   9.155
 5856POPC   GL1 7105  21.347  25.243   8.855
 5856POPC   GL2 7106  21.384  25.437   8.855
 5856POPC   C1A 7107  21.414  25.249   8.555
 5856POPC   D2A 7108  21.392  25.302   8.255
 5856POPC   C3A 7109  21.357  25.235   7.955
 5856POPC   C4A 7110  21.365  25.244   7.655
 5856POPC   C1B 7111  21.411  25.548   8.555
 5856POPC   C2B 7112  21.409  25.479   8.255
 5856POPC   C3B 7113  21.440  25.479   7.955
 5856POPC   C4B 7114  21.449  25.540   7.655
 5857POPC   NC3 7115  42.343  10.549   9.455
 5857POPC   PO4 7116  42.309  10.540   9.155
 5857POPC   GL1 7117  42.321  10.475   8.855
 5857POPC   GL2 7118  42.251  10.428   8.855
 5857POPC   C1A 7119  42.362  10.506   8.555
 5857POPC   D2A 7120  42.367  10.490   8.255
 5857POPC   C3A 7121  42.366  10.505   7.955
 5857POPC   C4A 7122  42.367  10.504   7.655
 5857POPC   C1B 7123  42.106  10.413   8.555
 5857POPC   C2B 7124  42.112  10.427   8.255
 5857POPC   C3B 7125  42.114  10.329   7.955
 5857POPC   C4B 7126  42.178  10.357   7.655
 5858POPC   NC3 7127   1.179  44.655   9.455
 5858POPC   PO4 7128   1.214  44.637   9.155
 5858POPC   GL1 7129   1.263  44.704   8.855
 5858POPC   GL2 7130   1.166  44.587   8.855
 5858POPC   C1A 7131   1.247  44.648   8.555
 5858POPC   D2A 7132   1.219  44.628   8.255
 5858POPC   C3A 7133   1.232  44.627   7.955
 5858POPC   C4A 7134   1.229  44.665   7.655
 5858POPC   C1B 7135   1.175  44.447   8.555
 5858POPC   C2B 7136   1.157  44.377   8.255
 5858POPC   C3B 7137   1.131  44.410   7.955
 5858POPC   C4B 7138   1.134  44.437   7.655
 5859POPC   NC3 7139   8.178  36.953   9.455
 5859POPC   PO4 7140   8.203  36.936   9.155
 5859POPC   GL1 7141   8.172  36.868   8.855
 5859POPC   GL2 7142   8.288  36.949   8.855
 5859POPC   C1A 7143   8.229  36.947   8.555
 5859POPC   D2A 7144   8.175  36.948   8.255
 5859POPC   C3A 7145   8.233  36.929   7.955
 5859POPC   C4A 7146   8.207  36.905   7.655
 5859POPC   C1B 7147   8.466  37.007   8.555
 5859POPC   C2B 7148   8.455  37.056   8.255
 5859POPC   C3B 7149   8.454  37.034   7.955
 5859POPC   C4B 7150   8.413  37.022   7.655
 5860POPC   NC3 7151  12.895   9.744   9.455
 5860POPC   PO4 7152  12.866   9.779   9.155
 5860POPC   GL1 7153  12.823   9.751   8.855
 5860POPC   GL2 7154  12.946   9.697   8.855
 5860POPC   C1A 7155  12.828   9.726   8.555
 5860POPC   D2A 7156  12.832   9.797   8.255
 5860POPC   C3A 7157  12.874   9.710   7.955
 5860POPC   C4A 7158  12.815   9.767   7.655
 5860POPC   C1B 7159  13.060   9.626   8.555
 5860POPC   C2B 7160  13.053   9.626   8.255
 5860POPC   C3B 7161  13.088   9.641   7.955
 5860POPC   C4B 7162  13.054   9.619   7.655
 5861POPC   NC3 7163   7.382  43.144   9.455
 5861POPC   PO4 7164   7.391  43.138   9.155
 5861POPC   GL1 7165   7.378  43.126   8.855
 5861POPC   GL2 7166   7.345  43.049   8.855
 5861POPC   C1A 7167   7.380  43.075   8.555
 5861POPC   D2A 7168   7.394  43.123   8.255
 5861POPC   C3A 7169   7.449  43.093   7.955
 5861POPC   C4A 7170   7.399  43.104   7.655
 5861POPC   C1B 7171   7.170  43.037   8.555
 5861POPC   C2B 7172   7.198  43.058   8.255
 5861POPC   C3B 7173   7.166  43.075   7.955
 5861POPC   C4B 7174   7.147  43.072   7.655
 5862POPC   NC3 7175  19.058  20.586   9.455
 5862POPC   PO4 7176  19.072  20.594   9.155
 5862POPC   GL1 7177  19.025  20.577   8.855
 5862POPC   GL2 7178  19.088  20.523   8.855
 5862POPC   C1A 7179  19.066  20.614   8.555
 5862POPC   D2A 7180  19.103  20.564   8.255
 5862POPC   C3A 7181  19.103  20.632   7.955
 5862POPC   C4A 7182  19.062  20.618   7.655
 5862POPC   C1B 7183  19.208  20.383   8.555
 5862POPC   C2B 7184  19.167  20.377   8.255
 5862POPC   C3B 7185  19.177  20.418   7.955
 5862POPC   C4B 7186  19.206  20.360   7.655
 5863POPC   NC3 7187  22.154  29.152   9.455
 5863POPC   PO4 7188  22.168  29.120   9.155
 5863POPC   GL1 7189  22.194  29.175   8.855
 5863POPC   GL2 7190  22.113  29.292   8.855
 5863POPC   C1A 7191  22.126  29.147   8.555
 5863POPC   D2A 7192  22.167  29.149   8.255
 5863POPC   C3A 7193  22.116  29.121   7.955
 5863POPC   C4A 7194  22.169  29.178   7.655
 5863POPC   C1B 7195  22.012  29.325   8.555
 5863POPC   C2B 7196  22.037  29.381   8.255
 5863POPC   C3B 7197  21.978  29.303   7.955
 5863POPC   C4B 7198  21.997  29.357   7.655
 5864POPC   NC3 7199  15.155   8.947   9.455
 5864POPC   PO4 7200  15.212   8.956   9.155
 5864POPC   GL1 7201  15.217   8.958   8.855
 5864POPC   GL2 7202  15.339   8.982   8.855
 5864POPC   C1A 7203  15.180   8.943   8.555
 5864POPC   D2A 7204  15.195   8.952   8.255
 5864POPC   C3A 7205  15.149   8.927   7.955
 5864POPC   C4A 7206  15.147   9.019   7.655
 5864POPC   C1B 7207  15.428   9.018   8.555
 5864POPC   C2B 7208  15.436   8.947   8.255
 5864POPC   C3B 7209  15.444   8.956   7.955
 5864POPC   C4B 7210  15.394   8.949   7.655
 5865POPC   NC3 7211  35.399  26.006   9.455
 5865POPC   PO4 7212  35.325  26.008   9.155
 5865POPC   GL1 7213  35.310  26.033   8.855
 5865POPC   GL2 7214  35.220  26.126   8.855
 5865POPC   C1A 7215  35.316  26.038   8.555
 5865POPC   D2A 7216  35.385  26.033   8.255
 5865POPC   C3A 7217  35.309  26.039   7.955
 5865POPC   C4A 7218  35.401  26.033   7.655
 5865POPC   C1B 7219  35.164  26.177   8.555
 5865POPC   C2B 7220  35.181  26.195   8.255
 5865POPC   C3B 7221  35.156  26.164   7.955
 5865POPC   C4B 7222  35.108  26.235   7.655
 5866POPC   NC3 7223   8.223  13.674   9.455
 5866POPC   PO4 7224   8.186  13.613   9.155
 5866POPC   GL1 7225   8.171  13.631   8.855
 5866POPC   GL2 7226   8.219  13.724   8.855
 5866POPC   C1A 7227   8.191  13.634   8.555
 5866POPC   D2A 7228   8.183  13.583   8.255
 5866POPC   C3A 7229   8.189  13.659   7.955
 5866POPC   C4A 7230   8.172  13.648   7.655
 5866POPC   C1B 7231   8.277  13.855   8.555
 5866POPC   C2B 7232   8.289  13.908   8.255
 5866POPC   C3B 7233   8.250  13.883   7.955
 5866POPC   C4B 7234   8.242  13.843   7.655
 5867POPC   NC3 7235  16.000  43.072   9.455
 5867POPC   PO4 7236  15.978  43.129   9.155
 5867POPC   GL1 7237  15.961  43.092   8.855
 5867POPC   GL2 7238  16.044  43.110   8.855
 5867POPC   C1A 7239  15.998  43.128   8.555
 5867POPC   D2A 7240  15.961  43.111   8.255
 5867POPC   C3A 7241  15.962  43.152   7.955
 5867POPC   C4A 7242  15.942  43.123   7.655
 5867POPC   C1B 7243  16.152  43.144   8.555
 5867POPC   C2B 7244  16.201  43.146   8.255
 5867POPC   C3B 7245  16.206  43.139   7.955
 5867POPC   C4B 7246  16.153  43.164   7.655
 5868POPC   NC3 7247  30.712  13.650   9.455
 5868POPC   PO4 7248  30.716  13.628   9.155
 5868POPC   GL1 7249  30.672  13.638   8.855
 5868POPC   GL2 7250  30.796  13.707   8.855
 5868POPC   C1A 7251  30.711  13.651   8.555
 5868POPC   D2A 7252  30.676  13.597   8.255
 5868POPC   C3A 7253  30.699  13.667   7.955
 5868POPC   C4A 7254  30.736  13.639   7.655
 5868POPC   C1B 7255  30.861  13.824   8.555
 5868POPC   C2B 7256  30.869  13.826   8.255
 5868POPC   C3B 7257  30.860  13.789   7.955
 5868POPC   C4B 7258  30.871  13.786   7.655
 5869POPC   NC3 7259  36.120  10.532   9.455
 5869POPC   PO4 7260  36.156  10.530   9.155
 5869POPC   GL1 7261  36.153  10.500   8.855
 5869POPC   GL2 7262  36.115  10.657   8.855
 5869POPC   C1A 7263  36.098  10.489   8.555
 5869POPC   D2A 7264  36.125  10.495   8.255
 5869POPC   C3A 7265  36.108  10.538   7.955
 5869POPC   C4A 7266  36.088  10.499   7.655
 5869POPC   C1B 7267  36.031  10.782   8.555
 5869POPC   C2B 7268  36.028  10.766   8.255
 5869POPC   C3B 7269  36.095  10.723   7.955
 5869POPC   C4B 7270  36.097  10.740   7.655
 5870POPC   NC3 7271  25.278  20.591   9.455
 5870POPC   PO4 7272  25.257  20.587   9.155
 5870POPC   GL1 7273  25.315  20.609   8.855
 5870POPC   GL2 7274  25.345  20.684   8.855
 5870POPC   C1A 7275  25.314  20.651   8.555
 5870POPC   D2A 7276  25.282  20.607   8.255
 5870POPC   C3A 7277  25.216  20.646   7.955
 5870POPC   C4A 7278  25.300  20.588   7.655
 5870POPC   C1B 7279  25.503  20.686   8.555
 5870POPC   C2B 7280  25.470  20.681   8.255
 5870POPC   C3B 7281  25.488  20.682   7.955
 5870POPC   C4B 7282  25.455  20.722   7.655
 5871POPC   NC3 7283  39.966   9.744   9.455
 5871POPC   PO4 7284  40.034   9.796   9.155
 5871POPC   GL1 7285  40.002   9.717   8.855
 5871POPC   GL2 7286  39.903   9.618   8.855
 5871POPC   C1A 7287  39.987   9.767   8.555
 5871POPC   D2A 7288  39.964   9.759   8.255
 5871POPC   C3A 7289  40.025   9.734   7.955
 5871POPC   C4A 7290  40.030   9.734   7.655
 5871POPC   C1B 7291  39.933   9.490   8.555
 5871POPC   C2B 7292  39.926   9.534   8.255
 5871POPC   C3B 7293  39.845   9.500   7.955
 5871POPC   C4B 7294  39.863   9.550   7.655
 5872POPC   NC3 7295   7.429  22.162   9.455
 5872POPC   PO4 7296   7.407  22.148   9.155
 5872POPC   GL1 7297   7.441  22.212   8.855
 5872POPC   GL2 7298   7.315  22.268   8.855
 5872POPC   C1A 7299   7.452  22.147   8.555
 5872POPC   D2A 7300   7.431  22.117   8.255
 5872POPC   C3A 7301   7.407  22.115   7.955
 5872POPC   C4A 7302   7.450  22.178   7.655
 5872POPC   C1B 7303   7.311  22.400   8.555
 5872POPC   C2B 7304   7.344  22.367   8.255
 5872POPC   C3B 7305   7.286  22.366   7.955
 5872POPC   C4B 7306   7.273  22.424   7.655
 5873POPC   NC3 7307  26.845   5.056   9.455
 5873POPC   PO4 7308  26.845   5.104   9.155
 5873POPC   GL1 7309  26.832   5.106   8.855
 5873POPC   GL2 7310  26.921   5.039   8.855
 5873POPC   C1A 7311  26.828   5.126   8.555
 5873POPC   D2A 7312  26.838   5.106   8.255
 5873POPC   C3A 7313  26.862   5.121   7.955
 5873POPC   C4A 7314  26.820   5.045   7.655
 5873POPC   C1B 7315  27.017   5.027   8.555
 5873POPC   C2B 7316  27.049   5.004   8.255
 5873POPC   C3B 7317  27.048   4.942   7.955
 5873POPC   C4B 7318  27.011   5.022   7.655
 5874POPC   NC3 7319  30.714  12.880   9.455
 5874POPC   PO4 7320  30.686  12.885   9.155
 5874POPC   GL1 7321  30.704  12.878   8.855
 5874POPC   GL2 7322  30.736  12.992   8.855
 5874POPC   C1A 7323  30.653  12.880   8.555
 5874POPC   D2A 7324  30.684  12.898   8.255
 5874POPC   C3A 7325  30.657  12.893   7.955
 5874POPC   C4A 7326  30.732  12.807   7.655
 5874POPC   C1B 7327  30.876  13.067   8.555
 5874POPC   C2B 7328  30.818  13.040   8.255
 5874POPC   C3B 7329  30.850  13.039   7.955
 5874POPC   C4B 7330  30.838  13.068   7.655
 5875POPC   NC3 7331  26.838   8.158   9.455
 5875POPC   PO4 7332  26.798   8.183   9.155
 5875POPC   GL1 7333  26.799   8.160   8.855
 5875POPC   GL2 7334  26.818   8.051   8.855
 5875POPC   C1A 7335  26.825   8.239   8.555
 5875POPC   D2A 7336  26.817   8.183   8.255
 5875POPC   C3A 7337  26.846   8.208   7.955
 5875POPC   C4A 7338  26.821   8.210   7.655
 5875POPC   C1B 7339  26.753   7.949   8.555
 5875POPC   C2B 7340  26.805   7.965   8.255
 5875POPC   C3B 7341  26.760   7.906   7.955
 5875POPC   C4B 7342  26.766   7.949   7.655
 5876POPC   NC3 7343   4.346  23.720   9.455
 5876POPC   PO4 7344   4.307  23.754   9.155
 5876POPC   GL1 7345   4.296  23.758   8.855
 5876POPC   GL2 7346   4.254  23.866   8.855
 5876POPC   C1A 7347   4.332  23.675   8.555
 5876POPC   D2A 7348   4.365  23.700   8.255
 5876POPC   C3A 7349   4.325  23.763   7.955
 5876POPC   C4A 7350   4.291  23.682   7.655
 5876POPC   C1B 7351   4.339  23.922   8.555
 5876POPC   C2B 7352   4.331  23.958   8.255
 5876POPC   C3B 7353   4.253  23.953   7.955
 5876POPC   C4B 7354   4.308  23.970   7.655
 5877POPC   NC3 7355   7.470  36.878   9.455
 5877POPC   PO4 7356   7.384  36.919   9.155
 5877POPC   GL1 7357   7.434  36.936   8.855
 5877POPC   GL2 7358   7.353  37.000   8.855
 5877POPC   C1A 7359   7.392  36.938   8.555
 5877POPC   D2A 7360   7.430  36.864   8.255
 5877POPC   C3A 7361   7.469  36.921   7.955
 5877POPC   C4A 7362   7.412  36.936   7.655
 5877POPC   C1B 7363   7.316  37.159   8.555
 5877POPC   C2B 7364   7.282  37.151   8.255
 5877POPC   C3B 7365   7.259  37.154   7.955
 5877POPC   C4B 7366   7.302  37.112   7.655
 5878POPC   NC3 7367   9.006  23.692   9.455
 5878POPC   PO4 7368   8.947  23.729   9.155
 5878POPC   GL1 7369   8.961  23.760   8.855
 5878POPC   GL2 7370   9.007  23.608   8.855
 5878POPC   C1A 7371   8.945  23.684   8.555
 5878POPC   D2A 7372   8.952  23.759   8.255
 5878POPC   C3A 7373   9.007  23.692   7.955
 5878POPC   C4A 7374   9.014  23.738   7.655
 5878POPC   C1B 7375   9.024  23.457   8.555
 5878POPC   C2B 7376   9.043  23.508   8.255
 5878POPC   C3B 7377   9.049  23.437   7.955
 5878POPC   C4B 7378   9.033  23.513   7.655
 5879POPC   NC3 7379  38.453   9.014   9.455
 5879POPC   PO4 7380  38.463   8.994   9.155
 5879POPC   GL1 7381  38.468   8.994   8.855
 5879POPC   GL2 7382  38.509   9.122   8.855
 5879POPC   C1A 7383  38.410   8.944   8.555
 5879POPC   D2A 7384  38.421   8.939   8.255
 5879POPC   C3A 7385  38.471   8.980   7.955
 5879POPC   C4A 7386  38.456   8.983   7.655
 5879POPC   C1B 7387  38.546   9.209   8.555
 5879POPC   C2B 7388  38.525   9.178   8.255
 5879POPC   C3B 7389  38.566   9.243   7.955
 5879POPC   C4B 7390  38.543   9.184   7.655
 5880POPC   NC3 7391  15.950  12.901   9.455
 5880POPC   PO4 7392  15.945  12.889   9.155
 5880POPC   GL1 7393  15.989  12.825   8.855
 5880POPC   GL2 7394  15.904  12.801   8.855
 5880POPC   C1A 7395  15.907  12.872   8.555
 5880POPC   D2A 7396  15.935  12.870   8.255
 5880POPC   C3A 7397  15.943  12.818   7.955
 5880POPC   C4A 7398  15.936  12.860   7.655
 5880POPC   C1B 7399  15.714  12.728   8.555
 5880POPC   C2B 7400  15.806  12.683   8.255
 5880POPC   C3B 7401  15.715  12.699   7.955
 5880POPC   C4B 7402  15.774  12.705   7.655
 5881POPC   NC3 7403  28.384   1.210   9.455
 5881POPC   PO4 7404  28.337   1.242   9.155
 5881POPC   GL1 7405  28.388   1.206   8.855
 5881POPC   GL2 7406  28.480   1.211   8.855
 5881POPC   C1A 7407  28.372   1.228   8.555
 5881POPC   D2A 7408  28.382   1.204   8.255
 5881POPC   C3A 7409  28.341   1.169   7.955
 5881POPC   C4A 7410  28.375   1.209   7.655
 5881POPC   C1B 7411  28.580   1.249   8.555
 5881POPC   C2B 7412  28.579   1.177   8.255
 5881POPC   C3B 7413  28.629   1.183   7.955
 5881POPC   C4B 7414  28.571   1.224   7.655
 5882POPC   NC3 7415   8.159  42.302   9.455
 5882POPC   PO4 7416   8.222  42.297   9.155
 5882POPC   GL1 7417   8.174  42.338   8.855
 5882POPC   GL2 7418   8.194  42.227   8.855
 5882POPC   C1A 7419   8.245  42.287   8.555
 5882POPC   D2A 7420   8.188  42.325   8.255
 5882POPC   C3A 7421   8.174  42.366   7.955
 5882POPC   C4A 7422   8.233  42.323   7.655
 5882POPC   C1B 7423   8.102  42.111   8.555
 5882POPC   C2B 7424   8.102  42.064   8.255
 5882POPC   C3B 7425   8.195  42.102   7.955
 5882POPC   C4B 7426   8.113  42.088   7.655
 5883POPC   NC3 7427   5.048   6.691   9.455
 5883POPC   PO4 7428   5.097   6.637   9.155
 5883POPC   GL1 7429   5.119   6.612   8.855
 5883POPC   GL2 7430   5.174   6.730   8.855
 5883POPC   C1A 7431   5.114   6.674   8.555
 5883POPC   D2A 7432   5.132   6.692   8.255
 5883POPC   C3A 7433   5.127   6.613   7.955
 5883POPC   C4A 7434   5.078   6.625   7.655
 5883POPC   C1B 7435   5.254   6.839   8.555
 5883POPC   C2B 7436   5.201   6.859   8.255
 5883POPC   C3B 7437   5.274   6.859   7.955
 5883POPC   C4B 7438   5.198   6.860   7.655
 5884POPC   NC3 7439   4.278  37.644   9.455
 5884POPC   PO4 7440   4.310  37.650   9.155
 5884POPC   GL1 7441   4.285  37.651   8.855
 5884POPC   GL2 7442   4.212  37.664   8.855
 5884POPC   C1A 7443   4.350  37.698   8.555
 5884POPC   D2A 7444   4.343  37.656   8.255
 5884POPC   C3A 7445   4.276  37.667   7.955
 5884POPC   C4A 7446   4.335  37.723   7.655
 5884POPC   C1B 7447   4.065  37.559   8.555
 5884POPC   C2B 7448   4.061  37.554   8.255
 5884POPC   C3B 7449   4.049  37.552   7.955
 5884POPC   C4B 7450   4.097  37.553   7.655
 5885POPC   NC3 7451   7.446  25.224   9.455
 5885POPC   PO4 7452   7.395  25.235   9.155
 5885POPC   GL1 7453   7.435  25.228   8.855
 5885POPC   GL2 7454   7.474  25.181   8.855
 5885POPC   C1A 7455   7.454  25.299   8.555
 5885POPC   D2A 7456   7.422  25.309   8.255
 5885POPC   C3A 7457   7.450  25.219   7.955
 5885POPC   C4A 7458   7.461  25.252   7.655
 5885POPC   C1B 7459   7.456  24.988   8.555
 5885POPC   C2B 7460   7.388  25.017   8.255
 5885POPC   C3B 7461   7.398  25.019   7.955
 5885POPC   C4B 7462   7.398  25.026   7.655
 5886POPC   NC3 7463  10.495  43.851   9.455
 5886POPC   PO4 7464  10.501  43.920   9.155
 5886POPC   GL1 7465  10.502  43.924   8.855
 5886POPC   GL2 7466  10.426  43.935   8.855
 5886POPC   C1A 7467  10.523  43.861   8.555
 5886POPC   D2A 7468  10.526  43.895   8.255
 5886POPC   C3A 7469  10.483  43.879   7.955
 5886POPC   C4A 7470  10.538  43.865   7.655
 5886POPC   C1B 7471  10.299  43.969   8.555
 5886POPC   C2B 7472  10.330  44.014   8.255
 5886POPC   C3B 7473  10.308  43.973   7.955
 5886POPC   C4B 7474  10.281  44.044   7.655
 5887POPC   NC3 7475   5.876  19.060   9.455
 5887POPC   PO4 7476   5.819  19.046   9.155
 5887POPC   GL1 7477   5.908  19.088   8.855
 5887POPC   GL2 7478   5.745  18.967   8.855
 5887POPC   C1A 7479   5.872  19.104   8.555
 5887POPC   D2A 7480   5.862  19.084   8.255
 5887POPC   C3A 7481   5.871  19.039   7.955
 5887POPC   C4A 7482   5.865  19.017   7.655
 5887POPC   C1B 7483   5.711  18.897   8.555
 5887POPC   C2B 7484   5.659  18.904   8.255
 5887POPC   C3B 7485   5.723  18.862   7.955
 5887POPC   C4B 7486   5.710  18.935   7.655
 5888POPC   NC3 7487  40.748  12.821   9.455
 5888POPC   PO4 7488  40.771  12.805   9.155
 5888POPC   GL1 7489  40.740  12.839   8.855
 5888POPC   GL2 7490  40.763  12.684   8.855
 5888POPC   C1A 7491  40.827  12.881   8.555
 5888POPC   D2A 7492  40.736  12.890   8.255
 5888POPC   C3A 7493  40.781  12.884   7.955
 5888POPC   C4A 7494  40.752  12.884   7.655
 5888POPC   C1B 7495  40.760  12.615   8.555
 5888POPC   C2B 7496  40.727  12.614   8.255
 5888POPC   C3B 7497  40.755  12.578   7.955
 5888POPC   C4B 7498  40.689  12.565   7.655
 5889POPC   NC3 7499  18.327   7.426   9.455
 5889POPC   PO4 7500  18.289   7.436   9.155
 5889POPC   GL1 7501  18.302   7.384   8.855
 5889POPC   GL2 7502  18.163   7.498   8.855
 5889POPC   C1A 7503  18.234   7.389   8.555
 5889POPC   D2A 7504  18.275   7.427   8.255
 5889POPC   C3A 7505  18.311   7.448   7.955
 5889POPC   C4A 7506  18.284   7.423   7.655
 5889POPC   C1B 7507  18.014   7.530   8.555
 5889POPC   C2B 7508  18.023   7.460   8.255
 5889POPC   C3B 7509  18.018   7.463   7.955
 5889POPC   C4B 7510  18.032   7.454   7.655
 5890POPC   NC3 7511   2.810   3.508   9.455
 5890POPC   PO4 7512   2.725   3.570   9.155
 5890POPC   GL1 7513   2.754   3.529   8.855
 5890POPC   GL2 7514   2.865   3.529   8.855
 5890POPC   C1A 7515   2.738   3.555   8.555
 5890POPC   D2A 7516   2.795   3.501   8.255
 5890POPC   C3A 7517   2.746   3.569   7.955
 5890POPC   C4A 7518   2.796   3.517   7.655
 5890POPC   C1B 7519   3.010   3.520   8.555
 5890POPC   C2B 7520   2.999   3.502   8.255
 5890POPC   C3B 7521   3.019   3.451   7.955
 5890POPC   C4B 7522   2.986   3.498   7.655
 5891POPC   NC3 7523  36.176  14.441   9.455
 5891POPC   PO4 7524  36.113  14.438   9.155
 5891POPC   GL1 7525  36.157  14.384   8.855
 5891POPC   GL2 7526  36.036  14.461   8.855
 5891POPC   C1A 7527  36.151  14.400   8.555
 5891POPC   D2A 7528  36.109  14.356   8.255
 5891POPC   C3A 7529  36.153  14.385   7.955
 5891POPC   C4A 7530  36.120  14.398   7.655
 5891POPC   C1B 7531  35.877  14.492   8.555
 5891POPC   C2B 7532  35.911  14.467   8.255
 5891POPC   C3B 7533  35.871  14.439   7.955
 5891POPC   C4B 7534  35.911  14.509   7.655
 5892POPC   NC3 7535  44.660  24.454   9.455
 5892POPC   PO4 7536  44.701  24.510   9.155
 5892POPC   GL1 7537  44.650  24.463   8.855
 5892POPC   GL2 7538  44.709  24.564   8.855
 5892POPC   C1A 7539  44.653  24.483   8.555
 5892POPC   D2A 7540  44.635  24.483   8.255
 5892POPC   C3A 7541  44.678  24.539   7.955
 5892POPC   C4A 7542  44.710  24.527   7.655
 5892POPC   C1B 7543  44.728  24.695   8.555
 5892POPC   C2B 7544  44.735  24.769   8.255
 5892POPC   C3B 7545  44.699  24.758   7.955
 5892POPC   C4B 7546  44.739  24.764   7.655
 5893POPC   NC3 7547   5.916  42.331   9.455
 5893POPC   PO4 7548   5.829  42.339   9.155
 5893POPC   GL1 7549   5.893  42.314   8.855
 5893POPC   GL2 7550   5.963  42.374   8.855
 5893POPC   C1A 7551   5.889  42.330   8.555
 5893POPC   D2A 7552   5.891  42.311   8.255
 5893POPC   C3A 7553   5.827  42.365   7.955
 5893POPC   C4A 7554   5.850  42.321   7.655
 5893POPC   C1B 7555   6.142  42.339   8.555
 5893POPC   C2B 7556   6.153  42.354   8.255
 5893POPC   C3B 7557   6.112  42.397   7.955
 5893POPC   C4B 7558   6.083  42.373   7.655
 5894POPC   NC3 7559  33.803  24.537   9.455
 5894POPC   PO4 7560  33.815  24.515   9.155
 5894POPC   GL1 7561  33.768  24.487   8.855
 5894POPC   GL2 7562  33.705  24.497   8.855
 5894POPC   C1A 7563  33.761  24.496   8.555
 5894POPC   D2A 7564  33.762  24.524   8.255
 5894POPC   C3A 7565  33.815  24.481   7.955
 5894POPC   C4A 7566  33.806  24.529   7.655
 5894POPC   C1B 7567  33.536  24.464   8.555
 5894POPC   C2B 7568  33.572  24.520   8.255
 5894POPC   C3B 7569  33.583  24.521   7.955
 5894POPC   C4B 7570  33.588  24.498   7.655
 5895POPC   NC3 7571  40.039  40.018   9.455
 5895POPC   PO4 7572  39.994  40.042   9.155
 5895POPC   GL1 7573  40.047  39.982   8.855
 5895POPC   GL2 7574  39.990  40.157   8.855
 5895POPC   C1A 7575  40.033  40.014   8.555
 5895POPC   D2A 7576  40.011  39.957   8.255
 5895POPC   C3A 7577  39.978  40.019   7.955
 5895POPC   C4A 7578  39.966  40.027   7.655
 5895POPC   C1B 7579  39.904  40.263   8.555
 5895POPC   C2B 7580  39.935  40.238   8.255
 5895POPC   C3B 7581  39.953  40.272   7.955
 5895POPC   C4B 7582  39.948  40.210   7.655
 5896POPC   NC3 7583  30.731  39.266   9.455
 5896POPC   PO4 7584  30.715  39.244   9.155
 5896POPC   GL1 7585  30.713  39.267   8.855
 5896POPC   GL2 7586  30.531  39.140   8.855
 5896POPC   C1A 7587  30.738  39.258   8.555
 5896POPC   D2A 7588  30.693  39.241   8.255
 5896POPC   C3A 7589  30.662  39.226   7.955
 5896POPC   C4A 7590  30.652  39.182   7.655
 5896POPC   C1B 7591  30.490  39.142   8.555
 5896POPC   C2B 7592  30.480  39.110   8.255
 5896POPC   C3B 7593  30.422  39.151   7.955
 5896POPC   C4B 7594  30.436  39.172   7.655
 5897POPC   NC3 7595  12.058   4.337   9.455
 5897POPC   PO4 7596  12.056   4.356   9.155
 5897POPC   GL1 7597  12.077   4.300   8.855
 5897POPC   GL2 7598  11.951   4.203   8.855
 5897POPC   C1A 7599  12.058   4.297   8.555
 5897POPC   D2A 7600  12.102   4.290   8.255
 5897POPC   C3A 7601  12.042   4.303   7.955
 5897POPC   C4A 7602  12.121   4.299   7.655
 5897POPC   C1B 7603  11.894   4.132   8.555
 5897POPC   C2B 7604  11.832   4.136   8.255
 5897POPC   C3B 7605  11.843   4.192   7.955
 5897POPC   C4B 7606  11.907   4.179   7.655
 5898POPC   NC3 7607  10.564  29.888   9.455
 5898POPC   PO4 7608  10.548  29.953   9.155
 5898POPC   GL1 7609  10.493  29.876   8.855
 5898POPC   GL2 7610  10.533  29.835   8.855
 5898POPC   C1A 7611  10.562  29.916   8.555
 5898POPC   D2A 7612  10.554  29.943   8.255
 5898POPC   C3A 7613  10.549  29.963   7.955
 5898POPC   C4A 7614  10.512  29.945   7.655
 5898POPC   C1B 7615  10.521  29.702   8.555
 5898POPC   C2B 7616  10.560  29.708   8.255
 5898POPC   C3B 7617  10.537  29.715   7.955
 5898POPC   C4B 7618  10.578  29.661   7.655
 5899POPC   NC3 7619  37.659  29.125   9.455
 5899POPC   PO4 7620  37.684  29.151   9.155
 5899POPC   GL1 7621  37.654  29.102   8.855
 5899POPC   GL2 7622  37.837  29.170   8.855
 5899POPC   C1A 7623  37.653  29.157   8.555
 5899POPC   D2A 7624  37.639  29.193   8.255
 5899POPC   C3A 7625  37.644  29.103   7.955
 5899POPC   C4A 7626  37.651  29.117   7.655
 5899POPC   C1B 7627  37.956  29.176   8.555
 5899POPC   C2B 7628  37.974  29.157   8.255
 5899POPC   C3B 7629  37.942  29.168   7.955
 5899POPC   C4B 7630  37.884  29.100   7.655
 5900POPC   NC3 7631  29.897  33.849   9.455
 5900POPC   PO4 7632  29.970  33.762   9.155
 5900POPC   GL1 7633  29.968  33.782   8.855
 5900POPC   GL2 7634  29.973  33.665   8.855
 5900POPC   C1A 7635  29.933  33.792   8.555
 5900POPC   D2A 7636  29.935  33.791   8.255
 5900POPC   C3A 7637  29.914  33.791   7.955
 5900POPC   C4A 7638  29.914  33.755   7.655
 5900POPC   C1B 7639  30.012  33.620   8.555
 5900POPC   C2B 7640  30.086  33.596   8.255
 5900POPC   C3B 7641  30.064  33.557   7.955
 5900POPC   C4B 7642  30.025  33.582   7.655
 5901POPC   NC3 7643  15.942  27.599   9.455
 5901POPC   PO4 7644  15.971  27.641   9.155
 5901POPC   GL1 7645  15.940  27.564   8.855
 5901POPC   GL2 7646  15.806  27.618   8.855
 5901POPC   C1A 7647  15.995  27.601   8.555
 5901POPC   D2A 7648  15.980  27.641   8.255
 5901POPC   C3A 7649  15.962  27.573   7.955
 5901POPC   C4A 7650  15.945  27.631   7.655
 5901POPC   C1B 7651  15.706  27.712   8.555
 5901POPC   C2B 7652  15.746  27.706   8.255
 5901POPC   C3B 7653  15.727  27.635   7.955
 5901POPC   C4B 7654  15.714  27.630   7.655
 5902POPC   NC3 7655  39.190  24.463   9.455
 5902POPC   PO4 7656  39.225  24.504   9.155
 5902POPC   GL1 7657  39.222  24.442   8.855
 5902POPC   GL2 7658  39.352  24.473   8.855
 5902POPC   C1A 7659  39.226  24.474   8.555
 5902POPC   D2A 7660  39.212  24.447   8.255
 5902POPC   C3A 7661  39.184  24.500   7.955
 5902POPC   C4A 7662  39.181  24.498   7.655
 5902POPC   C1B 7663  39.491  24.476   8.555
 5902POPC   C2B 7664  39.511  24.551   8.255
 5902POPC   C3B 7665  39.465  24.530   7.955
 5902POPC   C4B 7666  39.443  24.550   7.655
 5903POPC   NC3 7667  36.908  27.614   9.455
 5903POPC   PO4 7668  36.880  27.610   9.155
 5903POPC   GL1 7669  36.948  27.601   8.855
 5903POPC   GL2 7670  36.916  27.487   8.855
 5903POPC   C1A 7671  36.886  27.612   8.555
 5903POPC   D2A 7672  36.938  27.565   8.255
 5903POPC   C3A 7673  36.860  27.580   7.955
 5903POPC   C4A 7674  36.908  27.637   7.655
 5903POPC   C1B 7675  36.979  27.362   8.555
 5903POPC   C2B 7676  36.994  27.346   8.255
 5903POPC   C3B 7677  37.038  27.361   7.955
 5903POPC   C4B 7678  36.946  27.394   7.655
 5904POPC   NC3 7679  26.807  24.457   9.455
 5904POPC   PO4 7680  26.783  24.506   9.155
 5904POPC   GL1 7681  26.797  24.471   8.855
 5904POPC   GL2 7682  26.901  24.482   8.855
 5904POPC   C1A 7683  26.856  24.440   8.555
 5904POPC   D2A 7684  26.785  24.454   8.255
 5904POPC   C3A 7685  26.852  24.458   7.955
 5904POPC   C4A 7686  26.822  24.536   7.655
 5904POPC   C1B 7687  27.076  24.467   8.555
 5904POPC   C2B 7688  27.058  24.458   8.255
 5904POPC   C3B 7689  27.045  24.480   7.955
 5904POPC   C4B 7690  27.049  24.476   7.655
 5905POPC   NC3 7691  38.492   3.500   9.455
 5905POPC   PO4 7692  38.480   3.566   9.155
 5905POPC   GL1 7693  38.459   3.581   8.855
 5905POPC   GL2 7694  38.390   3.649   8.855
 5905POPC   C1A 7695  38.486   3.514   8.555
 5905POPC   D2A 7696  38.448   3.584   8.255
 5905POPC   C3A 7697  38.504   3.577   7.955
 5905POPC   C4A 7698  38.466   3.535   7.655
 5905POPC   C1B 7699  38.226   3.652   8.555
 5905POPC   C2B 7700  38.193   3.638   8.255
 5905POPC   C3B 7701  38.206   3.644   7.955
 5905POPC   C4B 7702  38.266   3.705   7.655
 5906POPC   NC3 7703  17.534  32.990   9.455
 5906POPC   PO4 7704  17.476  33.056   9.155
 5906POPC   GL1 7705  17.480  33.015   8.855
 5906POPC   GL2 7706  17.611  33.007   8.855
 5906POPC   C1A 7707  17.513  33.008   8.555
 5906POPC   D2A 7708  17.546  33.016   8.255
 5906POPC   C3A 7709  17.464  32.977   7.955
 5906POPC   C4A 7710  17.510  33.053   7.655
 5906POPC   C1B 7711  17.736  33.000   8.555
 5906POPC   C2B 7712  17.789  32.970   8.255
 5906POPC   C3B 7713  17.731  32.949   7.955
 5906POPC   C4B 7714  17.707  32.907   7.655
 5907POPC   NC3 7715  43.145   3.541   9.455
 5907POPC   PO4 7716  43.110   3.562   9.155
 5907POPC   GL1 7717  43.131   3.497   8.855
 5907POPC   GL2 7718  43.224   3.567   8.855
 5907POPC   C1A 7719  43.070   3.551   8.555
 5907POPC   D2A 7720  43.122   3.569   8.255
 5907POPC   C3A 7721  43.085   3.500   7.955
 5907POPC   C4A 7722  43.118   3.574   7.655
 5907POPC   C1B 7723  43.354   3.658   8.555
 5907POPC   C2B 7724  43.288   3.699   8.255
 5907POPC   C3B 7725  43.326   3.632   7.955
 5907POPC   C4B 7726  43.296   3.653   7.655
 5908POPC   NC3 7727  26.053  27.558   9.455
 5908POPC   PO4 7728  26.005  27.642   9.155
 5908POPC   GL1 7729  26.071  27.554   8.855
 5908POPC   GL2 7730  26.083  27.653   8.855
 5908POPC   C1A 7731  26.091  27.628   8.555
 5908POPC   D2A 7732  26.079  27.593   8.255
 5908POPC   C3A 7733  26.036  27.592   7.955
 5908POPC   C4A 7734  26.038  27.616   7.655
 5908POPC   C1B 7735  26.122  27.788   8.555
 5908POPC   C2B 7736  26.153  27.777   8.255
 5908POPC   C3B 7737  26.151  27.803   7.955
 5908POPC   C4B 7738  26.167  27.805   7.655
 5909POPC   NC3 7739  25.280   9.004   9.455
 5909POPC   PO4 7740  25.233   9.017   9.155
 5909POPC   GL1 7741  25.297   9.012   8.855
 5909POPC   GL2 7742  25.223   8.884   8.855
 5909POPC   C1A 7743  25.262   9.007   8.555
 5909POPC   D2A 7744  25.276   9.001   8.255
 5909POPC   C3A 7745  25.252   9.013   7.955
 5909POPC   C4A 7746  25.218   8.989   7.655
 5909POPC   C1B 7747  25.098   8.813   8.555
 5909POPC   C2B 7748  25.155   8.801   8.255
 5909POPC   C3B 7749  25.082   8.767   7.955
 5909POPC   C4B 7750  25.095   8.757   7.655
 5910POPC   NC3 7751   6.684  19.855   9.455
 5910POPC   PO4 7752   6.675  19.861   9.155
 5910POPC   GL1 7753   6.616  19.786   8.855
 5910POPC   GL2 7754   6.721  19.740   8.855
 5910POPC   C1A 7755   6.689  19.841   8.555
 5910POPC   D2A 7756   6.614  19.798   8.255
 5910POPC   C3A 7757   6.616  19.856   7.955
 5910POPC   C4A 7758   6.643  19.804   7.655
 5910POPC   C1B 7759   6.818  19.667   8.555
 5910POPC   C2B 7760   6.870  19.682   8.255
 5910POPC   C3B 7761   6.866  19.644   7.955
 5910POPC   C4B 7762   6.780  19.678   7.655
 5911POPC   NC3 7763  11.281  22.203   9.455
 5911POPC   PO4 7764  11.261  22.161   9.155
 5911POPC   GL1 7765  11.347  22.166   8.855
 5911POPC   GL2 7766  11.229  22.106   8.855
 5911POPC   C1A 7767  11.276  22.207   8.555
 5911POPC   D2A 7768  11.303  22.128   8.255
 5911POPC   C3A 7769  11.350  22.147   7.955
 5911POPC   C4A 7770  11.293  22.178   7.655
 5911POPC   C1B 7771  11.129  21.996   8.555
 5911POPC   C2B 7772  11.097  22.001   8.255
 5911POPC   C3B 7773  11.137  21.977   7.955
 5911POPC   C4B 7774  11.095  21.931   7.655
 5912POPC   NC3 7775  38.461  10.519   9.455
 5912POPC   PO4 7776  38.432  10.548   9.155
 5912POPC   GL1 7777  38.475  10.478   8.855
 5912POPC   GL2 7778  38.418  10.592   8.855
 5912POPC   C1A 7779  38.448  10.476   8.555
 5912POPC   D2A 7780  38.431  10.568   8.255
 5912POPC   C3A 7781  38.502  10.525   7.955
 5912POPC   C4A 7782  38.410  10.509   7.655
 5912POPC   C1B 7783  38.305  10.715   8.555
 5912POPC   C2B 7784  38.253  10.728   8.255
 5912POPC   C3B 7785  38.312  10.717   7.955
 5912POPC   C4B 7786  38.300  10.749   7.655
 5913POPC   NC3 7787  22.940   8.995   9.455
 5913POPC   PO4 7788  22.986   8.963   9.155
 5913POPC   GL1 7789  22.948   8.939   8.855
 5913POPC   GL2 7790  23.090   9.007   8.855
 5913POPC   C1A 7791  22.937   8.939   8.555
 5913POPC   D2A 7792  22.953   8.953   8.255
 5913POPC   C3A 7793  22.955   9.015   7.955
 5913POPC   C4A 7794  22.980   8.923   7.655
 5913POPC   C1B 7795  23.211   8.966   8.555
 5913POPC   C2B 7796  23.143   8.978   8.255
 5913POPC   C3B 7797  23.225   9.033   7.955
 5913POPC   C4B 7798  23.206   9.008   7.655
 5914POPC   NC3 7799  24.534  21.409   9.455
 5914POPC   PO4 7800  24.502  21.371   9.155
 5914POPC   GL1 7801  24.527  21.351   8.855
 5914POPC   GL2 7802  24.444  21.429   8.855
 5914POPC   C1A 7803  24.466  21.414   8.555
 5914POPC   D2A 7804  24.514  21.378   8.255
 5914POPC   C3A 7805  24.495  21.343   7.955
 5914POPC   C4A 7806  24.478  21.425   7.655
 5914POPC   C1B 7807  24.324  21.521   8.555
 5914POPC   C2B 7808  24.342  21.557   8.255
 5914POPC   C3B 7809  24.336  21.521   7.955
 5914POPC   C4B 7810  24.351  21.544   7.655
 5915POPC   NC3 7811   8.242  41.602   9.455
 5915POPC   PO4 7812   8.208  41.561   9.155
 5915POPC   GL1 7813   8.221  41.515   8.855
 5915POPC   GL2 7814   8.236  41.449   8.855
 5915POPC   C1A 7815   8.171  41.604   8.555
 5915POPC   D2A 7816   8.183  41.578   8.255
 5915POPC   C3A 7817   8.166  41.557   7.955
 5915POPC   C4A 7818   8.236  41.597   7.655
 5915POPC   C1B 7819   8.253  41.305   8.555
 5915POPC   C2B 7820   8.216  41.295   8.255
 5915POPC   C3B 7821   8.266  41.288   7.955
 5915POPC   C4B 7822   8.273  41.349   7.655
 5916POPC   NC3 7823  33.769  43.107   9.455
 5916POPC   PO4 7824  33.792  43.109   9.155
 5916POPC   GL1 7825  33.814  43.149   8.855
 5916POPC   GL2 7826  33.761  43.223   8.855
 5916POPC   C1A 7827  33.752  43.066   8.555
 5916POPC   D2A 7828  33.809  43.090   8.255
 5916POPC   C3A 7829  33.793  43.137   7.955
 5916POPC   C4A 7830  33.780  43.092   7.655
 5916POPC   C1B 7831  33.734  43.337   8.555
 5916POPC   C2B 7832  33.675  43.338   8.255
 5916POPC   C3B 7833  33.693  43.291   7.955
 5916POPC   C4B 7834  33.679  43.315   7.655
 5917POPC   NC3 7835   9.021  28.419   9.455
 5917POPC   PO4 7836   8.988  28.384   9.155
 5917POPC   GL1 7837   8.936  28.321   8.855
 5917POPC   GL2 7838   9.091  28.454   8.855
 5917POPC   C1A 7839   8.984  28.377   8.555
 5917POPC   D2A 7840   8.995  28.417   8.255
 5917POPC   C3A 7841   8.927  28.380   7.955
 5917POPC   C4A 7842   8.971  28.359   7.655
 5917POPC   C1B 7843   9.132  28.550   8.555
 5917POPC   C2B 7844   9.129  28.555   8.255
 5917POPC   C3B 7845   9.135  28.553   7.955
 5917POPC   C4B 7846   9.113  28.532   7.655
 5918POPC   NC3 7847  24.474  25.241   9.455
 5918POPC   PO4 7848  24.509  25.258   9.155
 5918POPC   GL1 7849  24.520  25.297   8.855
 5918POPC   GL2 7850  24.409  25.280   8.855
 5918POPC   C1A 7851  24.503  25.254   8.555
 5918POPC   D2A 7852  24.448  25.283   8.255
 5918POPC   C3A 7853  24.531  25.251   7.955
 5918POPC   C4A 7854  24.530  25.263   7.655
 5918POPC   C1B 7855  24.234  25.189   8.555
 5918POPC   C2B 7856  24.259  25.193   8.255
 5918POPC   C3B 7857  24.242  25.197   7.955
 5918POPC   C4B 7858  24.234  25.242   7.655
 5919POPC   NC3 7859   8.948  29.112   9.455
 5919POPC   PO4 7860   9.021  29.117   9.155
 5919POPC   GL1 7861   8.990  29.128   8.855
 5919POPC   GL2 7862   8.928  29.264   8.855
 5919POPC   C1A 7863   8.972  29.104   8.555
 5919POPC   D2A 7864   8.953  29.105   8.255
 5919POPC   C3A 7865   9.020  29.186   7.955
 5919POPC   C4A 7866   9.017  29.113   7.655
 5919POPC   C1B 7867   8.841  29.334   8.555
 5919POPC   C2B 7868   8.829  29.397   8.255
 5919POPC   C3B 7869   8.847  29.375   7.955
 5919POPC   C4B 7870   8.872  29.359   7.655
 5920POPC   NC3 7871  26.856  43.932   9.455
 5920POPC   PO4 7872  26.768  43.895   9.155
 5920POPC   GL1 7873  26.843  43.931   8.855
 5920POPC   GL2 7874  26.956  43.852   8.855
 5920POPC   C1A 7875  26.800  43.929   8.555
 5920POPC   D2A 7876  26.862  43.865   8.255
 5920POPC   C3A 7877  26.839  43.867   7.955
 5920POPC   C4A 7878  26.843  43.919   7.655
 5920POPC   C1B 7879  27.052  43.678   8.555
 5920POPC   C2B 7880  27.004  43.733   8.255
 5920POPC   C3B 7881  27.041  43.687   7.955
 5920POPC   C4B 7882  27.039  43.753   7.655
 5921POPC   NC3 7883  20.563  29.147   9.455
 5921POPC   PO4 7884  20.591  29.185   9.155
 5921POPC   GL1 7885  20.593  29.112   8.855
 5921POPC   GL2 7886  20.629  29.308   8.855
 5921POPC   C1A 7887  20.631  29.154   8.555
 5921POPC   D2A 7888  20.601  29.126   8.255
 5921POPC   C3A 7889  20.624  29.131   7.955
 5921POPC   C4A 7890  20.614  29.165   7.655
 5921POPC   C1B 7891  20.532  29.352   8.555
 5921POPC   C2B 7892  20.614  29.348   8.255
 5921POPC   C3B 7893  20.584  29.343   7.955
 5921POPC   C4B 7894  20.573  29.370   7.655
 5922POPC   NC3 7895  36.900   5.864   9.455
 5922POPC   PO4 7896  36.873   5.834   9.155
 5922POPC   GL1 7897  36.885   5.890   8.855
 5922POPC   GL2 7898  36.781   5.817   8.855
 5922POPC   C1A 7899  36.872   5.869   8.555
 5922POPC   D2A 7900  36.917   5.890   8.255
 5922POPC   C3A 7901  36.898   5.863   7.955
 5922POPC   C4A 7902  36.927   5.820   7.655
 5922POPC   C1B 7903  36.707   5.840   8.555
 5922POPC   C2B 7904  36.698   5.868   8.255
 5922POPC   C3B 7905  36.647   5.798   7.955
 5922POPC   C4B 7906  36.674   5.799   7.655
 5923POPC   NC3 7907  15.137  24.454   9.455
 5923POPC   PO4 7908  15.135  24.442   9.155
 5923POPC   GL1 7909  15.147  24.524   8.855
 5923POPC   GL2 7910  15.271  24.469   8.855
 5923POPC   C1A 7911  15.135  24.502   8.555
 5923POPC   D2A 7912  15.152  24.507   8.255
 5923POPC   C3A 7913  15.205  24.532   7.955
 5923POPC   C4A 7914  15.136  24.519   7.655
 5923POPC   C1B 7915  15.361  24.402   8.555
 5923POPC   C2B 7916  15.402  24.337   8.255
 5923POPC   C3B 7917  15.401  24.360   7.955
 5923POPC   C4B 7918  15.390  24.365   7.655
 5924POPC   NC3 7919  15.165  10.508   9.455
 5924POPC   PO4 7920  15.197  10.477   9.155
 5924POPC   GL1 7921  15.147  10.516   8.855
 5924POPC   GL2 7922  15.229  10.370   8.855
 5924POPC   C1A 7923  15.134  10.503   8.555
 5924POPC   D2A 7924  15.132  10.562   8.255
 5924POPC   C3A 7925  15.204  10.547   7.955
 5924POPC   C4A 7926  15.192  10.559   7.655
 5924POPC   C1B 7927  15.217  10.255   8.555
 5924POPC   C2B 7928  15.203  10.288   8.255
 5924POPC   C3B 7929  15.255  10.306   7.955
 5924POPC   C4B 7930  15.211  10.268   7.655
 5925POPC   NC3 7931   7.393  30.659   9.455
 5925POPC   PO4 7932   7.432  30.694   9.155
 5925POPC   GL1 7933   7.465  30.693   8.855
 5925POPC   GL2 7934   7.279  30.709   8.855
 5925POPC   C1A 7935   7.447  30.676   8.555
 5925POPC   D2A 7936   7.439  30.739   8.255
 5925POPC   C3A 7937   7.467  30.666   7.955
 5925POPC   C4A 7938   7.458  30.655   7.655
 5925POPC   C1B 7939   7.161  30.720   8.555
 5925POPC   C2B 7940   7.150  30.718   8.255
 5925POPC   C3B 7941   7.133  30.757   7.955
 5925POPC   C4B 7942   7.214  30.695   7.655
 5926POPC   NC3 7943  34.593  22.163   9.455
 5926POPC   PO4 7944  34.621  22.140   9.155
 5926POPC   GL1 7945  34.599  22.155   8.855
 5926POPC   GL2 7946  34.648  22.083   8.855
 5926POPC   C1A 7947  34.593  22.119   8.555
 5926POPC   D2A 7948  34.615  22.116   8.255
 5926POPC   C3A 7949  34.570  22.200   7.955
 5926POPC   C4A 7950  34.539  22.161   7.655
 5926POPC   C1B 7951  34.653  21.898   8.555
 5926POPC   C2B 7952  34.655  21.899   8.255
 5926POPC   C3B 7953  34.720  21.897   7.955
 5926POPC   C4B 7954  34.684  21.928   7.655
 5927POPC   NC3 7955  11.337   9.741   9.455
 5927POPC   PO4 7956  11.348   9.785   9.155
 5927POPC   GL1 7957  11.289   9.797   8.855
 5927POPC   GL2 7958  11.403   9.823   8.855
 5927POPC   C1A 7959  11.299   9.714   8.555
 5927POPC   D2A 7960  11.254   9.724   8.255
 5927POPC   C3A 7961  11.271   9.764   7.955
 5927POPC   C4A 7962  11.343   9.778   7.655
 5927POPC   C1B 7963  11.417   9.994   8.555
 5927POPC   C2B 7964  11.444   9.940   8.255
 5927POPC   C3B 7965  11.492   9.901   7.955
 5927POPC   C4B 7966  11.485   9.992   7.655
 5928POPC   NC3 7967  24.521  23.666   9.455
 5928POPC   PO4 7968  24.466  23.709   9.155
 5928POPC   GL1 7969  24.445  23.760   8.855
 5928POPC   GL2 7970  24.561  23.826   8.855
 5928POPC   C1A 7971  24.469  23.698   8.555
 5928POPC   D2A 7972  24.502  23.679   8.255
 5928POPC   C3A 7973  24.531  23.683   7.955
 5928POPC   C4A 7974  24.451  23.740   7.655
 5928POPC   C1B 7975  24.599  23.902   8.555
 5928POPC   C2B 7976  24.621  23.961   8.255
 5928POPC   C3B 7977  24.543  23.988   7.955
 5928POPC   C4B 7978  24.585  23.935   7.655
 5929POPC   NC3 7979   5.835  27.595   9.455
 5929POPC   PO4 7980   5.883  27.579   9.155
 5929POPC   GL1 7981   5.825  27.627   8.855
 5929POPC   GL2 7982   5.894  27.492   8.855
 5929POPC   C1A 7983   5.843  27.611   8.555
 5929POPC   D2A 7984   5.901  27.562   8.255
 5929POPC   C3A 7985   5.879  27.569   7.955
 5929POPC   C4A 7986   5.910  27.568   7.655
 5929POPC   C1B 7987   5.949  27.398   8.555
 5929POPC   C2B 7988   5.938  27.387   8.255
 5929POPC   C3B 7989   5.989  27.394   7.955
 5929POPC   C4B 7990   5.945  27.337   7.655
 5930POPC   NC3 7991  15.185  40.011   9.455
 5930POPC   PO4 7992  15.218  39.961   9.155
 5930POPC   GL1 7993  15.203  40.052   8.855
 5930POPC   GL2 7994  15.258  40.069   8.855
 5930POPC   C1A 7995  15.191  40.050   8.555
 5930POPC   D2A 7996  15.194  39.987   8.255
 5930POPC   C3A 7997  15.204  39.968   7.955
 5930POPC   C4A 7998  15.223  40.028   7.655
 5930POPC   C1B 7999  15.340  40.244   8.555
 5930POPC   C2B 8000  15.348  40.224   8.255
 5930POPC   C3B 8001  15.289  40.193   7.955
 5930POPC   C4B 8002  15.327  40.231   7.655
 5931POPC   NC3 8003  30.701  34.604   9.455
 5931POPC   PO4 8004  30.671  34.609   9.155
 5931POPC   GL1 8005  30.685  34.562   8.855
 5931POPC   GL2 8006  30.767  34.487   8.855
 5931POPC   C1A 8007  30.719  34.584   8.555
 5931POPC   D2A 8008  30.738  34.527   8.255
 5931POPC   C3A 8009  30.699  34.570   7.955
 5931POPC   C4A 8010  30.696  34.568   7.655
 5931POPC   C1B 8011  30.821  34.344   8.555
 5931POPC   C2B 8012  30.799  34.346   8.255
 5931POPC   C3B 8013  30.855  34.407   7.955
 5931POPC   C4B 8014  30.865  34.415   7.655
 5932POPC   NC3 8015  25.221  22.122   9.455
 5932POPC   PO4 8016  25.253  22.120   9.155
 5932POPC   GL1 8017  25.281  22.119   8.855
 5932POPC   GL2 8018  25.292  22.083   8.855
 5932POPC   C1A 8019  25.310  22.172   8.555
 5932POPC   D2A 8020  25.266  22.197   8.255
 5932POPC   C3A 8021  25.241  22.178   7.955
 5932POPC   C4A 8022  25.230  22.186   7.655
 5932POPC   C1B 8023  25.334  21.894   8.555
 5932POPC   C2B 8024  25.360  21.957   8.255
 5932POPC   C3B 8025  25.333  21.897   7.955
 5932POPC   C4B 8026  25.316  21.900   7.655
 5933POPC   NC3 8027  40.003  25.243   9.455
 5933POPC   PO4 8028  39.975  25.244   9.155
 5933POPC   GL1 8029  39.980  25.315   8.855
 5933POPC   GL2 8030  40.088  25.252   8.855
 5933POPC   C1A 8031  40.040  25.227   8.555
 5933POPC   D2A 8032  39.977  25.307   8.255
 5933POPC   C3A 8033  40.040  25.309   7.955
 5933POPC   C4A 8034  40.047  25.232   7.655
 5933POPC   C1B 8035  40.230  25.228   8.555
 5933POPC   C2B 8036  40.234  25.182   8.255
 5933POPC   C3B 8037  40.231  25.206   7.955
 5933POPC   C4B 8038  40.215  25.163   7.655
 5934POPC   NC3 8039  17.539  27.548   9.455
 5934POPC   PO4 8040  17.465  27.631   9.155
 5934POPC   GL1 8041  17.536  27.562   8.855
 5934POPC   GL2 8042  17.645  27.669   8.855
 5934POPC   C1A 8043  17.493  27.636   8.555
 5934POPC   D2A 8044  17.526  27.577   8.255
 5934POPC   C3A 8045  17.472  27.551   7.955
 5934POPC   C4A 8046  17.548  27.634   7.655
 5934POPC   C1B 8047  17.743  27.679   8.555
 5934POPC   C2B 8048  17.729  27.711   8.255
 5934POPC   C3B 8049  17.729  27.625   7.955
 5934POPC   C4B 8050  17.788  27.694   7.655
 5935POPC   NC3 8051   7.449  19.810   9.455
 5935POPC   PO4 8052   7.423  19.819   9.155
 5935POPC   GL1 8053   7.378  19.785   8.855
 5935POPC   GL2 8054   7.547  19.882   8.855
 5935POPC   C1A 8055   7.426  19.826   8.555
 5935POPC   D2A 8056   7.446  19.830   8.255
 5935POPC   C3A 8057   7.441  19.851   7.955
 5935POPC   C4A 8058   7.465  19.846   7.655
 5935POPC   C1B 8059   7.698  19.939   8.555
 5935POPC   C2B 8060   7.651  19.885   8.255
 5935POPC   C3B 8061   7.654  19.922   7.955
 5935POPC   C4B 8062   7.658  19.937   7.655
 5936POPC   NC3 8063  32.219  40.054   9.455
 5936POPC   PO4 8064  32.265  39.965   9.155
 5936POPC   GL1 8065  32.265  39.968   8.855
 5936POPC   GL2 8066  32.331  39.852   8.855
 5936POPC   C1A 8067  32.298  40.012   8.555
 5936POPC   D2A 8068  32.287  39.962   8.255
 5936POPC   C3A 8069  32.288  39.966   7.955
 5936POPC   C4A 8070  32.217  40.052   7.655
 5936POPC   C1B 8071  32.321  39.795   8.555
 5936POPC   C2B 8072  32.342  39.823   8.255
 5936POPC   C3B 8073  32.339  39.780   7.955
 5936POPC   C4B 8074  32.366  39.732   7.655
 5937POPC   NC3 8075  11.293  27.593   9.455
 5937POPC   PO4 8076  11.274  27.556   9.155
 5937POPC   GL1 8077  11.254  27.614   8.855
 5937POPC   GL2 8078  11.249  27.502   8.855
 5937POPC   C1A 8079  11.285  27.627   8.555
 5937POPC   D2A 8080  11.347  27.578   8.255
 5937POPC   C3A 8081  11.258  27.607   7.955
 5937POPC   C4A 8082  11.283  27.615   7.655
 5937POPC   C1B 8083  11.134  27.429   8.555
 5937POPC   C2B 8084  11.143  27.354   8.255
 5937POPC   C3B 8085  11.131  27.405   7.955
 5937POPC   C4B 8086  11.185  27.359   7.655
 5938POPC   NC3 8087  41.584  42.349   9.455
 5938POPC   PO4 8088  41.558  42.358   9.155
 5938POPC   GL1 8089  41.521  42.298   8.855
 5938POPC   GL2 8090  41.613  42.441   8.855
 5938POPC   C1A 8091  41.555  42.299   8.555
 5938POPC   D2A 8092  41.517  42.286   8.255
 5938POPC   C3A 8093  41.563  42.361   7.955
 5938POPC   C4A 8094  41.570  42.332   7.655
 5938POPC   C1B 8095  41.757  42.473   8.555
 5938POPC   C2B 8096  41.721  42.481   8.255
 5938POPC   C3B 8097  41.743  42.468   7.955
 5938POPC   C4B 8098  41.717  42.539   7.655
 5939POPC   NC3 8099  35.335  33.792   9.455
 5939POPC   PO4 8100  35.347  33.773   9.155
 5939POPC   GL1 8101  35.401  33.750   8.855
 5939POPC   GL2 8102  35.440  33.871   8.855
 5939POPC   C1A 8103  35.319  33.795   8.555
 5939POPC   D2A 8104  35.387  33.776   8.255
 5939POPC   C3A 8105  35.340  33.826   7.955
 5939POPC   C4A 8106  35.320  33.754   7.655
 5939POPC   C1B 8107  35.497  33.977   8.555
 5939POPC   C2B 8108  35.437  34.014   8.255
 5939POPC   C3B 8109  35.477  34.052   7.955
 5939POPC   C4B 8110  35.511  34.043   7.655
 5940POPC   NC3 8111  13.647   1.943   9.455
 5940POPC   PO4 8112  13.664   1.955   9.155
 5940POPC   GL1 8113  13.639   1.992   8.855
 5940POPC   GL2 8114  13.512   2.086   8.855
 5940POPC   C1A 8115  13.651   1.992   8.555
 5940POPC   D2A 8116  13.629   1.973   8.255
 5940POPC   C3A 8117  13.675   2.014   7.955
 5940POPC   C4A 8118  13.639   1.977   7.655
 5940POPC   C1B 8119  13.448   2.222   8.555
 5940POPC   C2B 8120  13.496   2.234   8.255
 5940POPC   C3B 8121  13.534   2.170   7.955
 5940POPC   C4B 8122  13.515   2.201   7.655
 5941POPC   NC3 8123  14.448  16.728   9.455
 5941POPC   PO4 8124  14.419  16.721   9.155
 5941POPC   GL1 8125  14.382  16.696   8.855
 5941POPC   GL2 8126  14.395  16.864   8.855
 5941POPC   C1A 8127  14.435  16.711   8.555
 5941POPC   D2A 8128  14.407  16.761   8.255
 5941POPC   C3A 8129  14.366  16.694   7.955
 5941POPC   C4A 8130  14.442  16.771   7.655
 5941POPC   C1B 8131  14.304  16.916   8.555
 5941POPC   C2B 8132  14.301  16.939   8.255
 5941POPC   C3B 8133  14.327  16.925   7.955
 5941POPC   C4B 8134  14.297  16.930   7.655
 5942POPC   NC3 8135  43.157  10.540   9.455
 5942POPC   PO4 8136  43.094  10.558   9.155
 5942POPC   GL1 8137  43.101  10.530   8.855
 5942POPC   GL2 8138  43.016  10.591   8.855
 5942POPC   C1A 8139  43.127  10.505   8.555
 5942POPC   D2A 8140  43.093  10.481   8.255
 5942POPC   C3A 8141  43.099  10.536   7.955
 5942POPC   C4A 8142  43.159  10.536   7.655
 5942POPC   C1B 8143  42.926  10.658   8.555
 5942POPC   C2B 8144  42.929  10.698   8.255
 5942POPC   C3B 8145  42.950  10.669   7.955
 5942POPC   C4B 8146  42.952  10.697   7.655
 5943POPC   NC3 8147  19.853  26.800   9.455
 5943POPC   PO4 8148  19.817  26.816   9.155
 5943POPC   GL1 8149  19.806  26.867   8.855
 5943POPC   GL2 8150  19.923  26.894   8.855
 5943POPC   C1A 8151  19.845  26.778   8.555
 5943POPC   D2A 8152  19.796  26.838   8.255
 5943POPC   C3A 8153  19.840  26.778   7.955
 5943POPC   C4A 8154  19.785  26.846   7.655
 5943POPC   C1B 8155  19.998  26.985   8.555
 5943POPC   C2B 8156  20.020  26.960   8.255
 5943POPC   C3B 8157  19.990  27.032   7.955
 5943POPC   C4B 8158  19.987  26.977   7.655
 5944POPC   NC3 8159  40.764  36.930   9.455
 5944POPC   PO4 8160  40.749  36.871   9.155
 5944POPC   GL1 8161  40.823  36.922   8.855
 5944POPC   GL2 8162  40.887  36.839   8.855
 5944POPC   C1A 8163  40.819  36.919   8.555
 5944POPC   D2A 8164  40.807  36.927   8.255
 5944POPC   C3A 8165  40.812  36.891   7.955
 5944POPC   C4A 8166  40.775  36.893   7.655
 5944POPC   C1B 8167  41.013  36.765   8.555
 5944POPC   C2B 8168  41.020  36.757   8.255
 5944POPC   C3B 8169  41.020  36.776   7.955
 5944POPC   C4B 8170  40.968  36.730   7.655
 5945POPC   NC3 8171   2.022   4.301   9.455
 5945POPC   PO4 8172   2.030   4.281   9.155
 5945POPC   GL1 8173   1.988   4.309   8.855
 5945POPC   GL2 8174   2.095   4.439   8.855
 5945POPC   C1A 8175   1.965   4.307   8.555
 5945POPC   D2A 8176   2.003   4.351   8.255
 5945POPC   C3A 8177   2.034   4.302   7.955
 5945POPC   C4A 8178   1.964   4.276   7.655
 5945POPC   C1B 8179   2.154   4.565   8.555
 5945POPC   C2B 8180   2.131   4.543   8.255
 5945POPC   C3B 8181   2.115   4.504   7.955
 5945POPC   C4B 8182   2.120   4.527   7.655
 5946POPC   NC3 8183  17.493  38.495   9.455
 5946POPC   PO4 8184  17.540  38.454   9.155
 5946POPC   GL1 8185  17.510  38.433   8.855
 5946POPC   GL2 8186  17.537  38.616   8.855
 5946POPC   C1A 8187  17.540  38.478   8.555
 5946POPC   D2A 8188  17.492  38.484   8.255
 5946POPC   C3A 8189  17.476  38.465   7.955
 5946POPC   C4A 8190  17.536  38.461   7.655
 5946POPC   C1B 8191  17.581  38.694   8.555
 5946POPC   C2B 8192  17.524  38.729   8.255
 5946POPC   C3B 8193  17.549  38.706   7.955
 5946POPC   C4B 8194  17.546  38.693   7.655
 5947POPC   NC3 8195  43.872   2.037   9.455
 5947POPC   PO4 8196  43.920   1.969   9.155
 5947POPC   GL1 8197  43.918   2.025   8.855
 5947POPC   GL2 8198  43.991   2.047   8.855
 5947POPC   C1A 8199  43.893   1.976   8.555
 5947POPC   D2A 8200  43.873   1.974   8.255
 5947POPC   C3A 8201  43.854   1.959   7.955
 5947POPC   C4A 8202  43.912   2.015   7.655
 5947POPC   C1B 8203  44.091   2.192   8.555
 5947POPC   C2B 8204  44.087   2.178   8.255
 5947POPC   C3B 8205  44.019   2.128   7.955
 5947POPC   C4B 8206  44.063   2.130   7.655
 5948POPC   NC3 8207   6.651  25.232   9.455
 5948POPC   PO4 8208   6.600  25.267   9.155
 5948POPC   GL1 8209   6.687  25.302   8.855
 5948POPC   GL2 8210   6.777  25.311   8.855
 5948POPC   C1A 8211   6.614  25.228   8.555
 5948POPC   D2A 8212   6.609  25.300   8.255
 5948POPC   C3A 8213   6.598  25.220   7.955
 5948POPC   C4A 8214   6.641  25.288   7.655
 5948POPC   C1B 8215   6.840  25.424   8.555
 5948POPC   C2B 8216   6.906  25.378   8.255
 5948POPC   C3B 8217   6.826  25.399   7.955
 5948POPC   C4B 8218   6.873  25.440   7.655
 5949POPC   NC3 8219  32.209  38.412   9.455
 5949POPC   PO4 8220  32.249  38.443   9.155
 5949POPC   GL1 8221  32.285  38.412   8.855
 5949POPC   GL2 8222  32.341  38.444   8.855
 5949POPC   C1A 8223  32.239  38.496   8.555
 5949POPC   D2A 8224  32.227  38.424   8.255
 5949POPC   C3A 8225  32.218  38.446   7.955
 5949POPC   C4A 8226  32.249  38.432   7.655
 5949POPC   C1B 8227  32.432  38.351   8.555
 5949POPC   C2B 8228  32.448  38.357   8.255
 5949POPC   C3B 8229  32.430  38.389   7.955
 5949POPC   C4B 8230  32.454  38.403   7.655
 5950POPC   NC3 8231  17.551  12.069   9.455
 5950POPC   PO4 8232  17.461  12.077   9.155
 5950POPC   GL1 8233  17.480  12.027   8.855
 5950POPC   GL2 8234  17.363  12.069   8.855
 5950POPC   C1A 8235  17.495  12.116   8.555
 5950POPC   D2A 8236  17.515  12.119   8.255
 5950POPC   C3A 8237  17.460  12.119   7.955
 5950POPC   C4A 8238  17.505  12.111   7.655
 5950POPC   C1B 8239  17.210  12.106   8.555
 5950POPC   C2B 8240  17.271  12.078   8.255
 5950POPC   C3B 8241  17.285  12.055   7.955
 5950POPC   C4B 8242  17.218  12.057   7.655
 5951POPC   NC3 8243  40.023  16.738   9.455
 5951POPC   PO4 8244  40.025  16.692   9.155
 5951POPC   GL1 8245  40.005  16.691   8.855
 5951POPC   GL2 8246  40.132  16.645   8.855
 5951POPC   C1A 8247  40.017  16.688   8.555
 5951POPC   D2A 8248  39.960  16.711   8.255
 5951POPC   C3A 8249  40.037  16.730   7.955
 5951POPC   C4A 8250  40.001  16.711   7.655
 5951POPC   C1B 8251  40.264  16.657   8.555
 5951POPC   C2B 8252  40.205  16.643   8.255
 5951POPC   C3B 8253  40.205  16.652   7.955
 5951POPC   C4B 8254  40.274  16.635   7.655
 5952POPC   NC3 8255  26.844  37.664   9.455
 5952POPC   PO4 8256  26.786  37.641   9.155
 5952POPC   GL1 8257  26.823  37.701   8.855
 5952POPC   GL2 8258  26.805  37.753   8.855
 5952POPC   C1A 8259  26.815  37.686   8.555
 5952POPC   D2A 8260  26.828  37.632   8.255
 5952POPC   C3A 8261  26.848  37.663   7.955
 5952POPC   C4A 8262  26.841  37.676   7.655
 5952POPC   C1B 8263  26.714  37.948   8.555
 5952POPC   C2B 8264  26.739  37.945   8.255
 5952POPC   C3B 8265  26.766  37.930   7.955
 5952POPC   C4B 8266  26.766  37.888   7.655
 5953POPC   NC3 8267   6.647  23.677   9.455
 5953POPC   PO4 8268   6.649  23.692   9.155
 5953POPC   GL1 8269   6.686  23.731   8.855
 5953POPC   GL2 8270   6.749  23.815   8.855
 5953POPC   C1A 8271   6.630  23.753   8.555
 5953POPC   D2A 8272   6.677  23.739   8.255
 5953POPC   C3A 8273   6.665  23.708   7.955
 5953POPC   C4A 8274   6.645  23.764   7.655
 5953POPC   C1B 8275   6.843  23.923   8.555
 5953POPC   C2B 8276   6.791  23.895   8.255
 5953POPC   C3B 8277   6.779  23.860   7.955
 5953POPC   C4B 8278   6.828  23.938   7.655
 5954POPC   NC3 8279  35.307  29.132   9.455
 5954POPC   PO4 8280  35.353  29.142   9.155
 5954POPC   GL1 8281  35.307  29.108   8.855
 5954POPC   GL2 8282  35.274  29.125   8.855
 5954POPC   C1A 8283  35.306  29.151   8.555
 5954POPC   D2A 8284  35.327  29.151   8.255
 5954POPC   C3A 8285  35.361  29.152   7.955
 5954POPC   C4A 8286  35.372  29.110   7.655
 5954POPC   C1B 8287  35.099  29.051   8.555
 5954POPC   C2B 8288  35.145  29.102   8.255
 5954POPC   C3B 8289  35.117  29.048   7.955
 5954POPC   C4B 8290  35.160  29.048   7.655
 5955POPC   NC3 8291  21.399  36.922   9.455
 5955POPC   PO4 8292  21.380  36.903   9.155
 5955POPC   GL1 8293  21.347  36.937   8.855
 5955POPC   GL2 8294  21.461  36.867   8.855
 5955POPC   C1A 8295  21.434  36.880   8.555
 5955POPC   D2A 8296  21.411  36.943   8.255
 5955POPC   C3A 8297  21.426  36.937   7.955
 5955POPC   C4A 8298  21.429  36.924   7.655
 5955POPC   C1B 8299  21.603  36.880   8.555
 5955POPC   C2B 8300  21.655  36.889   8.255
 5955POPC   C3B 8301  21.607  36.911   7.955
 5955POPC   C4B 8302  21.617  36.850   7.655
 5956POPC   NC3 8303  11.330  24.519   9.455
 5956POPC   PO4 8304  11.347  24.485   9.155
 5956POPC   GL1 8305  11.298  24.507   8.855
 5956POPC   GL2 8306  11.432  24.436   8.855
 5956POPC   C1A 8307  11.314  24.520   8.555
 5956POPC   D2A 8308  11.256  24.446   8.255
 5956POPC   C3A 8309  11.264  24.483   7.955
 5956POPC   C4A 8310  11.251  24.537   7.655
 5956POPC   C1B 8311  11.539  24.339   8.555
 5956POPC   C2B 8312  11.538  24.400   8.255
 5956POPC   C3B 8313  11.501  24.349   7.955
 5956POPC   C4B 8314  11.509  24.332   7.655
 5957POPC   NC3 8315  13.657  22.907   9.455
 5957POPC   PO4 8316  13.627  22.938   9.155
 5957POPC   GL1 8317  13.592  22.968   8.855
 5957POPC   GL2 8318  13.649  23.053   8.855
 5957POPC   C1A 8319  13.613  22.981   8.555
 5957POPC   D2A 8320  13.666  22.942   8.255
 5957POPC   C3A 8321  13.656  22.915   7.955
 5957POPC   C4A 8322  13.596  22.937   7.655
 5957POPC   C1B 8323  13.658  23.195   8.555
 5957POPC   C2B 8324  13.654  23.157   8.255
 5957POPC   C3B 8325  13.661  23.185   7.955
 5957POPC   C4B 8326  13.594  23.202   7.655
 5958POPC   NC3 8327  10.498  21.370   9.455
 5958POPC   PO4 8328  10.474  21.384   9.155
 5958POPC   GL1 8329  10.540  21.434   8.855
 5958POPC   GL2 8330  10.599  21.305   8.855
 5958POPC   C1A 8331  10.546  21.385   8.555
 5958POPC   D2A 8332  10.551  21.432   8.255
 5958POPC   C3A 8333  10.553  21.384   7.955
 5958POPC   C4A 8334  10.511  21.337   7.655
 5958POPC   C1B 8335  10.628  21.127   8.555
 5958POPC   C2B 8336  10.617  21.153   8.255
 5958POPC   C3B 8337  10.561  21.140   7.955
 5958POPC   C4B 8338  10.623  21.184   7.655
 5959POPC   NC3 8339  12.102  17.467   9.455
 5959POPC   PO4 8340  12.078  17.518   9.155
 5959POPC   GL1 8341  12.052  17.503   8.855
 5959POPC   GL2 8342  11.952  17.485   8.855
 5959POPC   C1A 8343  12.117  17.507   8.555
 5959POPC   D2A 8344  12.117  17.553   8.255
 5959POPC   C3A 8345  12.073  17.504   7.955
 5959POPC   C4A 8346  12.119  17.464   7.655
 5959POPC   C1B 8347  11.830  17.528   8.555
 5959POPC   C2B 8348  11.880  17.584   8.255
 5959POPC   C3B 8349  11.800  17.518   7.955
 5959POPC   C4B 8350  11.859  17.602   7.655
 5960POPC   NC3 8351  38.423   0.436   9.455
 5960POPC   PO4 8352  38.504   0.411   9.155
 5960POPC   GL1 8353  38.465   0.457   8.855
 5960POPC   GL2 8354  38.366   0.519   8.855
 5960POPC   C1A 8355  38.423   0.479   8.555
 5960POPC   D2A 8356  38.456   0.466   8.255
 5960POPC   C3A 8357  38.482   0.434   7.955
 5960POPC   C4A 8358  38.425   0.405   7.655
 5960POPC   C1B 8359  38.195   0.524   8.555
 5960POPC   C2B 8360  38.213   0.540   8.255
 5960POPC   C3B 8361  38.222   0.525   7.955
 5960POPC   C4B 8362  38.213   0.526   7.655
 5961POPC   NC3 8363  28.376  24.522   9.455
 5961POPC   PO4 8364  28.417  24.533   9.155
 5961POPC   GL1 8365  28.373  24.494   8.855
 5961POPC   GL2 8366  28.406  24.606   8.855
 5961POPC   C1A 8367  28.335  24.500   8.555
 5961POPC   D2A 8368  28.352  24.489   8.255
 5961POPC   C3A 8369  28.392  24.527   7.955
 5961POPC   C4A 8370  28.328  24.500   7.655
 5961POPC   C1B 8371  28.499  24.658   8.555
 5961POPC   C2B 8372  28.486  24.659   8.255
 5961POPC   C3B 8373  28.570  24.689   7.955
 5961POPC   C4B 8374  28.511  24.728   7.655
 5962POPC   NC3 8375   4.269  43.154   9.455
 5962POPC   PO4 8376   4.314  43.157   9.155
 5962POPC   GL1 8377   4.332  43.084   8.855
 5962POPC   GL2 8378   4.382  43.169   8.855
 5962POPC   C1A 8379   4.365  43.089   8.555
 5962POPC   D2A 8380   4.291  43.065   8.255
 5962POPC   C3A 8381   4.281  43.088   7.955
 5962POPC   C4A 8382   4.344  43.112   7.655
 5962POPC   C1B 8383   4.521  43.324   8.555
 5962POPC   C2B 8384   4.457  43.293   8.255
 5962POPC   C3B 8385   4.487  43.284   7.955
 5962POPC   C4B 8386   4.493  43.299   7.655
 5963POPC   NC3 8387  12.873  19.815   9.455
 5963POPC   PO4 8388  12.802  19.800   9.155
 5963POPC   GL1 8389  12.881  19.811   8.855
 5963POPC   GL2 8390  12.995  19.913   8.855
 5963POPC   C1A 8391  12.892  19.799   8.555
 5963POPC   D2A 8392  12.868  19.857   8.255
 5963POPC   C3A 8393  12.828  19.865   7.955
 5963POPC   C4A 8394  12.859  19.811   7.655
 5963POPC   C1B 8395  13.056  19.970   8.555
 5963POPC   C2B 8396  13.066  19.967   8.255
 5963POPC   C3B 8397  13.128  19.954   7.955
 5963POPC   C4B 8398  13.119  19.964   7.655
 5964POPC   NC3 8399  34.542  14.373   9.455
 5964POPC   PO4 8400  34.535  14.416   9.155
 5964POPC   GL1 8401  34.563  14.436   8.855
 5964POPC   GL2 8402  34.631  14.284   8.855
 5964POPC   C1A 8403  34.580  14.446   8.555
 5964POPC   D2A 8404  34.555  14.382   8.255
 5964POPC   C3A 8405  34.578  14.427   7.955
 5964POPC   C4A 8406  34.555  14.425   7.655
 5964POPC   C1B 8407  34.722  14.223   8.555
 5964POPC   C2B 8408  34.714  14.211   8.255
 5964POPC   C3B 8409  34.689  14.251   7.955
 5964POPC   C4B 8410  34.754  14.244   7.655
 5965POPC   NC3 8411   8.990  26.843   9.455
 5965POPC   PO4 8412   8.960  26.861   9.155
 5965POPC   GL1 8413   8.979  26.821   8.855
 5965POPC   GL2 8414   8.874  26.893   8.855
 5965POPC   C1A 8415   8.979  26.846   8.555
 5965POPC   D2A 8416   8.979  26.824   8.255
 5965POPC   C3A 8417   8.989  26.785   7.955
 5965POPC   C4A 8418   8.997  26.817   7.655
 5965POPC   C1B 8419   8.787  26.967   8.555
 5965POPC   C2B 8420   8.762  26.941   8.255
 5965POPC   C3B 8421   8.730  26.912   7.955
 5965POPC   C4B 8422   8.714  26.932   7.655
 5966POPC   NC3 8423  31.518  34.543   9.455
 5966POPC   PO4 8424  31.512  34.596   9.155
 5966POPC   GL1 8425  31.467  34.596   8.855
 5966POPC   GL2 8426  31.414  34.691   8.855
 5966POPC   C1A 8427  31.451  34.549   8.555
 5966POPC   D2A 8428  31.503  34.539   8.255
 5966POPC   C3A 8429  31.506  34.568   7.955
 5966POPC   C4A 8430  31.494  34.560   7.655
 5966POPC   C1B 8431  31.311  34.770   8.555
 5966POPC   C2B 8432  31.277  34.753   8.255
 5966POPC   C3B 8433  31.225  34.770   7.955
 5966POPC   C4B 8434  31.255  34.685   7.655
 5967POPC   NC3 8435   0.419   5.087   9.455
 5967POPC   PO4 8436   0.475   5.129   9.155
 5967POPC   GL1 8437   0.402   5.123   8.855
 5967POPC   GL2 8438   0.347   5.030   8.855
 5967POPC   C1A 8439   0.400   5.077   8.555
 5967POPC   D2A 8440   0.401   5.130   8.255
 5967POPC   C3A 8441   0.392   5.089   7.955
 5967POPC   C4A 8442   0.394   5.138   7.655
 5967POPC   C1B 8443   0.292   4.878   8.555
 5967POPC   C2B 8444   0.290   4.853   8.255
 5967POPC   C3B 8445   0.310   4.855   7.955
 5967POPC   C4B 8446   0.320   4.845   7.655
 5968POPC   NC3 8447   7.432  14.402   9.455
 5968POPC   PO4 8448   7.401  14.367   9.155
 5968POPC   GL1 8449   7.417  14.445   8.855
 5968POPC   GL2 8450   7.521  14.364   8.855
 5968POPC   C1A 8451   7.409  14.437   8.555
 5968POPC   D2A 8452   7.451  14.377   8.255
 5968POPC   C3A 8453   7.411  14.357   7.955
 5968POPC   C4A 8454   7.432  14.435   7.655
 5968POPC   C1B 8455   7.609  14.314   8.555
 5968POPC   C2B 8456   7.681  14.267   8.255
 5968POPC   C3B 8457   7.631  14.300   7.955
 5968POPC   C4B 8458   7.654  14.262   7.655
 5969POPC   NC3 8459   6.611   6.602   9.455
 5969POPC   PO4 8460   6.620   6.633   9.155
 5969POPC   GL1 8461   6.627   6.621   8.855
 5969POPC   GL2 8462   6.776   6.598   8.855
 5969POPC   C1A 8463   6.610   6.681   8.555
 5969POPC   D2A 8464   6.685   6.643   8.255
 5969POPC   C3A 8465   6.650   6.668   7.955
 5969POPC   C4A 8466   6.670   6.633   7.655
 5969POPC   C1B 8467   6.824   6.533   8.555
 5969POPC   C2B 8468   6.888   6.568   8.255
 5969POPC   C3B 8469   6.827   6.500   7.955
 5969POPC   C4B 8470   6.908   6.528   7.655
 5970POPC   NC3 8471  26.827  31.484   9.455
 5970POPC   PO4 8472  26.807  31.448   9.155
 5970POPC   GL1 8473  26.813  31.464   8.855
 5970POPC   GL2 8474  26.807  31.549   8.855
 5970POPC   C1A 8475  26.774  31.481   8.555
 5970POPC   D2A 8476  26.821  31.450   8.255
 5970POPC   C3A 8477  26.838  31.473   7.955
 5970POPC   C4A 8478  26.771  31.477   7.655
 5970POPC   C1B 8479  26.769  31.734   8.555
 5970POPC   C2B 8480  26.742  31.735   8.255
 5970POPC   C3B 8481  26.743  31.740   7.955
 5970POPC   C4B 8482  26.801  31.731   7.655
 5971POPC   NC3 8483  36.926   5.135   9.455
 5971POPC   PO4 8484  36.918   5.124   9.155
 5971POPC   GL1 8485  36.937   5.098   8.855
 5971POPC   GL2 8486  36.768   4.998   8.855
 5971POPC   C1A 8487  36.929   5.060   8.555
 5971POPC   D2A 8488  36.875   5.093   8.255
 5971POPC   C3A 8489  36.866   5.133   7.955
 5971POPC   C4A 8490  36.950   5.105   7.655
 5971POPC   C1B 8491  36.744   4.955   8.555
 5971POPC   C2B 8492  36.720   4.936   8.255
 5971POPC   C3B 8493  36.752   4.936   7.955
 5971POPC   C4B 8494  36.715   4.957   7.655
 5972POPC   NC3 8495   8.221   9.000   9.455
 5972POPC   PO4 8496   8.218   8.942   9.155
 5972POPC   GL1 8497   8.151   8.981   8.855
 5972POPC   GL2 8498   8.249   8.998   8.855
 5972POPC   C1A 8499   8.205   9.020   8.555
 5972POPC   D2A 8500   8.174   8.978   8.255
 5972POPC   C3A 8501   8.180   8.997   7.955
 5972POPC   C4A 8502   8.244   8.947   7.655
 5972POPC   C1B 8503   8.410   9.103   8.555
 5972POPC   C2B 8504   8.375   9.103   8.255
 5972POPC   C3B 8505   8.409   9.121   7.955
 5972POPC   C4B 8506   8.411   9.114   7.655
 5973POPC   NC3 8507  18.330  14.404   9.455
 5973POPC   PO4 8508  18.238  14.450   9.155
 5973POPC   GL1 8509  18.265  14.378   8.855
 5973POPC   GL2 8510  18.161  14.428   8.855
 5973POPC   C1A 8511  18.251  14.414   8.555
 5973POPC   D2A 8512  18.249  14.381   8.255
 5973POPC   C3A 8513  18.268  14.411   7.955
 5973POPC   C4A 8514  18.323  14.396   7.655
 5973POPC   C1B 8515  18.083  14.498   8.555
 5973POPC   C2B 8516  18.069  14.500   8.255
 5973POPC   C3B 8517  18.055  14.463   7.955
 5973POPC   C4B 8518  18.032  14.501   7.655
 5974POPC   NC3 8519  31.434  14.372   9.455
 5974POPC   PO4 8520  31.449  14.410   9.155
 5974POPC   GL1 8521  31.467  14.379   8.855
 5974POPC   GL2 8522  31.378  14.504   8.855
 5974POPC   C1A 8523  31.482  14.380   8.555
 5974POPC   D2A 8524  31.473  14.425   8.255
 5974POPC   C3A 8525  31.440  14.429   7.955
 5974POPC   C4A 8526  31.503  14.432   7.655
 5974POPC   C1B 8527  31.279  14.581   8.555
 5974POPC   C2B 8528  31.309  14.588   8.255
 5974POPC   C3B 8529  31.295  14.588   7.955
 5974POPC   C4B 8530  31.284  14.564   7.655
 5975POPC   NC3 8531  33.772  39.250   9.455
 5975POPC   PO4 8532  33.801  39.206   9.155
 5975POPC   GL1 8533  33.806  39.259   8.855
 5975POPC   GL2 8534  33.758  39.151   8.855
 5975POPC   C1A 8535  33.778  39.212   8.555
 5975POPC   D2A 8536  33.843  39.231   8.255
 5975POPC   C3A 8537  33.757  39.257   7.955
 5975POPC   C4A 8538  33.791  39.208   7.655
 5975POPC   C1B 8539  33.737  38.995   8.555
 5975POPC   C2B 8540  33.762  38.993   8.255
 5975POPC   C3B 8541  33.785  38.941   7.955
 5975POPC   C4B 8542  33.757  39.023   7.655
 5976POPC   NC3 8543  25.248  42.331   9.455
 5976POPC   PO4 8544  25.280  42.321   9.155
 5976POPC   GL1 8545  25.269  42.300   8.855
 5976POPC   GL2 8546  25.105  42.287   8.855
 5976POPC   C1A 8547  25.240  42.369   8.555
 5976POPC   D2A 8548  25.272  42.372   8.255
 5976POPC   C3A 8549  25.243  42.300   7.955
 5976POPC   C4A 8550  25.292  42.331   7.655
 5976POPC   C1B 8551  25.040  42.262   8.555
 5976POPC   C2B 8552  24.996  42.281   8.255
 5976POPC   C3B 8553  25.044  42.243   7.955
 5976POPC   C4B 8554  24.981  42.223   7.655
 5977POPC   NC3 8555  22.914  40.025   9.455
 5977POPC   PO4 8556  22.918  40.044   9.155
 5977POPC   GL1 8557  22.947  39.957   8.855
 5977POPC   GL2 8558  23.063  40.068   8.855
 5977POPC   C1A 8559  22.938  40.035   8.555
 5977POPC   D2A 8560  22.948  40.006   8.255
 5977POPC   C3A 8561  22.949  40.023   7.955
 5977POPC   C4A 8562  22.967  40.041   7.655
 5977POPC   C1B 8563  23.150  40.014   8.555
 5977POPC   C2B 8564  23.139  39.993   8.255
 5977POPC   C3B 8565  23.201  40.046   7.955
 5977POPC   C4B 8566  23.137  40.023   7.655
 5978POPC   NC3 8567  16.738   5.896   9.455
 5978POPC   PO4 8568  16.739   5.852   9.155
 5978POPC   GL1 8569  16.758   5.894   8.855
 5978POPC   GL2 8570  16.760   5.750   8.855
 5978POPC   C1A 8571  16.723   5.858   8.555
 5978POPC   D2A 8572  16.724   5.835   8.255
 5978POPC   C3A 8573  16.765   5.896   7.955
 5978POPC   C4A 8574  16.681   5.863   7.655
 5978POPC   C1B 8575  16.761   5.576   8.555
 5978POPC   C2B 8576  16.736   5.616   8.255
 5978POPC   C3B 8577  16.802   5.587   7.955
 5978POPC   C4B 8578  16.797   5.653   7.655
 5979POPC   NC3 8579  36.078  35.359   9.455
 5979POPC   PO4 8580  36.144  35.400   9.155
 5979POPC   GL1 8581  36.156  35.344   8.855
 5979POPC   GL2 8582  36.017  35.298   8.855
 5979POPC   C1A 8583  36.174  35.385   8.555
 5979POPC   D2A 8584  36.177  35.365   8.255
 5979POPC   C3A 8585  36.080  35.358   7.955
 5979POPC   C4A 8586  36.082  35.369   7.655
 5979POPC   C1B 8587  35.878  35.284   8.555
 5979POPC   C2B 8588  35.917  35.376   8.255
 5979POPC   C3B 8589  35.835  35.289   7.955
 5979POPC   C4B 8590  35.913  35.298   7.655
 5980POPC   NC3 8591  19.871  43.923   9.455
 5980POPC   PO4 8592  19.802  43.925   9.155
 5980POPC   GL1 8593  19.810  43.900   8.855
 5980POPC   GL2 8594  19.867  43.977   8.855
 5980POPC   C1A 8595  19.823  43.915   8.555
 5980POPC   D2A 8596  19.811  43.932   8.255
 5980POPC   C3A 8597  19.826  43.848   7.955
 5980POPC   C4A 8598  19.803  43.908   7.655
 5980POPC   C1B 8599  19.954  44.133   8.555
 5980POPC   C2B 8600  19.983  44.112   8.255
 5980POPC   C3B 8601  19.957  44.126   7.955
 5980POPC   C4B 8602  19.940  44.064   7.655
 5981POPC   NC3 8603  21.364  10.492   9.455
 5981POPC   PO4 8604  21.430  10.478   9.155
 5981POPC   GL1 8605  21.376  10.493   8.855
 5981POPC   GL2 8606  21.377  10.399   8.855
 5981POPC   C1A 8607  21.436  10.478   8.555
 5981POPC   D2A 8608  21.374  10.542   8.255
 5981POPC   C3A 8609  21.423  10.532   7.955
 5981POPC   C4A 8610  21.392  10.536   7.655
 5981POPC   C1B 8611  21.387  10.284   8.555
 5981POPC   C2B 8612  21.393  10.310   8.255
 5981POPC   C3B 8613  21.350  10.323   7.955
 5981POPC   C4B 8614  21.417  10.313   7.655
 5982POPC   NC3 8615   7.385  27.593   9.455
 5982POPC   PO4 8616   7.414  27.565   9.155
 5982POPC   GL1 8617   7.465  27.617   8.855
 5982POPC   GL2 8618   7.483  27.684   8.855
 5982POPC   C1A 8619   7.433  27.556   8.555
 5982POPC   D2A 8620   7.424  27.621   8.255
 5982POPC   C3A 8621   7.443  27.600   7.955
 5982POPC   C4A 8622   7.419  27.637   7.655
 5982POPC   C1B 8623   7.465  27.821   8.555
 5982POPC   C2B 8624   7.531  27.833   8.255
 5982POPC   C3B 8625   7.537  27.853   7.955
 5982POPC   C4B 8626   7.524  27.798   7.655
 5983POPC   NC3 8627  19.046  32.995   9.455
 5983POPC   PO4 8628  19.028  32.998   9.155
 5983POPC   GL1 8629  19.033  33.046   8.855
 5983POPC   GL2 8630  19.013  32.887   8.855
 5983POPC   C1A 8631  19.011  33.000   8.555
 5983POPC   D2A 8632  19.086  33.074   8.255
 5983POPC   C3A 8633  19.087  33.025   7.955
 5983POPC   C4A 8634  19.048  33.073   7.655
 5983POPC   C1B 8635  19.017  32.782   8.555
 5983POPC   C2B 8636  19.063  32.821   8.255
 5983POPC   C3B 8637  19.035  32.725   7.955
 5983POPC   C4B 8638  19.037  32.766   7.655
 5984POPC   NC3 8639   1.235   1.169   9.455
 5984POPC   PO4 8640   1.237   1.179   9.155
 5984POPC   GL1 8641   1.214   1.223   8.855
 5984POPC   GL2 8642   1.321   1.276   8.855
 5984POPC   C1A 8643   1.187   1.254   8.555
 5984POPC   D2A 8644   1.215   1.187   8.255
 5984POPC   C3A 8645   1.217   1.192   7.955
 5984POPC   C4A 8646   1.250   1.206   7.655
 5984POPC   C1B 8647   1.466   1.274   8.555
 5984POPC   C2B 8648   1.416   1.293   8.255
 5984POPC   C3B 8649   1.454   1.345   7.955
 5984POPC   C4B 8650   1.446   1.340   7.655
 5985POPC   NC3 8651   7.445  43.904   9.455
 5985POPC   PO4 8652   7.456  43.839   9.155
 5985POPC   GL1 8653   7.445  43.919   8.855
 5985POPC   GL2 8654   7.369  43.956   8.855
 5985POPC   C1A 8655   7.376  43.855   8.555
 5985POPC   D2A 8656   7.464  43.931   8.255
 5985POPC   C3A 8657   7.415  43.901   7.955
 5985POPC   C4A 8658   7.442  43.890   7.655
 5985POPC   C1B 8659   7.278  44.089   8.555
 5985POPC   C2B 8660   7.292  44.071   8.255
 5985POPC   C3B 8661   7.272  44.081   7.955
 5985POPC   C4B 8662   7.340  44.141   7.655
 5986POPC   NC3 8663   5.823  26.825   9.455
 5986POPC   PO4 8664   5.911  26.855   9.155
 5986POPC   GL1 8665   5.912  26.795   8.855
 5986POPC   GL2 8666   5.824  26.705   8.855
 5986POPC   C1A 8667   5.831  26.838   8.555
 5986POPC   D2A 8668   5.850  26.783   8.255
 5986POPC   C3A 8669   5.834  26.817   7.955
 5986POPC   C4A 8670   5.838  26.793   7.655
 5986POPC   C1B 8671   5.869  26.528   8.555
 5986POPC   C2B 8672   5.838  26.567   8.255
 5986POPC   C3B 8673   5.829  26.604   7.955
 5986POPC   C4B 8674   5.808  26.587   7.655
 5987POPC   NC3 8675  22.178  20.641   9.455
 5987POPC   PO4 8676  22.187  20.623   9.155
 5987POPC   GL1 8677  22.196  20.620   8.855
 5987POPC   GL2 8678  22.048  20.546   8.855
 5987POPC   C1A 8679  22.124  20.658   8.555
 5987POPC   D2A 8680  22.204  20.628   8.255
 5987POPC   C3A 8681  22.155  20.565   7.955
 5987POPC   C4A 8682  22.173  20.647   7.655
 5987POPC   C1B 8683  21.966  20.446   8.555
 5987POPC   C2B 8684  21.967  20.469   8.255
 5987POPC   C3B 8685  21.948  20.391   7.955
 5987POPC   C4B 8686  21.998  20.488   7.655
 5988POPC   NC3 8687   5.071  15.160   9.455
 5988POPC   PO4 8688   5.120  15.163   9.155
 5988POPC   GL1 8689   5.078  15.165   8.855
 5988POPC   GL2 8690   4.981  15.055   8.855
 5988POPC   C1A 8691   5.121  15.130   8.555
 5988POPC   D2A 8692   5.066  15.174   8.255
 5988POPC   C3A 8693   5.055  15.159   7.955
 5988POPC   C4A 8694   5.136  15.140   7.655
 5988POPC   C1B 8695   4.908  14.956   8.555
 5988POPC   C2B 8696   4.899  14.950   8.255
 5988POPC   C3B 8697   4.910  14.949   7.955
 5988POPC   C4B 8698   4.894  15.036   7.655
 5989POPC   NC3 8699  26.087  44.637   9.455
 5989POPC   PO4 8700  26.023  44.659   9.155
 5989POPC   GL1 8701  26.089  44.656   8.855
 5989POPC   GL2 8702  25.923  44.668   8.855
 5989POPC   C1A 8703  26.088  44.688   8.555
 5989POPC   D2A 8704  26.076  44.627   8.255
 5989POPC   C3A 8705  26.019  44.707   7.955
 5989POPC   C4A 8706  26.056  44.690   7.655
 5989POPC   C1B 8707  25.778  44.695   8.555
 5989POPC   C2B 8708  25.804  44.752   8.255
 5989POPC   C3B 8709  25.778  44.761   7.955
 5989POPC   C4B 8710  25.822  44.762   7.655
 5990POPC   NC3 8711  24.493   5.122   9.455
 5990POPC   PO4 8712  24.476   5.044   9.155
 5990POPC   GL1 8713  24.486   5.137   8.855
 5990POPC   GL2 8714  24.439   5.165   8.855
 5990POPC   C1A 8715  24.503   5.087   8.555
 5990POPC   D2A 8716  24.446   5.099   8.255
 5990POPC   C3A 8717  24.520   5.114   7.955
 5990POPC   C4A 8718  24.479   5.071   7.655
 5990POPC   C1B 8719  24.381   5.380   8.555
 5990POPC   C2B 8720  24.415   5.296   8.255
 5990POPC   C3B 8721  24.384   5.287   7.955
 5990POPC   C4B 8722  24.458   5.297   7.655
 5991POPC   NC3 8723   9.719   8.994   9.455
 5991POPC   PO4 8724   9.703   8.987   9.155
 5991POPC   GL1 8725   9.796   9.007   8.855
 5991POPC   GL2 8726   9.595   9.012   8.855
 5991POPC   C1A 8727   9.795   8.983   8.555
 5991POPC   D2A 8728   9.736   8.940   8.255
 5991POPC   C3A 8729   9.728   8.955   7.955
 5991POPC   C4A 8730   9.768   8.929   7.655
 5991POPC   C1B 8731   9.477   9.022   8.555
 5991POPC   C2B 8732   9.479   8.995   8.255
 5991POPC   C3B 8733   9.457   8.940   7.955
 5991POPC   C4B 8734   9.498   8.988   7.655
 5992POPC   NC3 8735  36.909  11.259   9.455
 5992POPC   PO4 8736  36.936  11.344   9.155
 5992POPC   GL1 8737  36.910  11.284   8.855
 5992POPC   GL2 8738  37.017  11.307   8.855
 5992POPC   C1A 8739  36.953  11.278   8.555
 5992POPC   D2A 8740  36.875  11.271   8.255
 5992POPC   C3A 8741  36.854  11.344   7.955
 5992POPC   C4A 8742  36.888  11.306   7.655
 5992POPC   C1B 8743  37.159  11.244   8.555
 5992POPC   C2B 8744  37.181  11.262   8.255
 5992POPC   C3B 8745  37.125  11.285   7.955
 5992POPC   C4B 8746  37.178  11.247   7.655
 5993POPC   NC3 8747   8.993  44.661   9.455
 5993POPC   PO4 8748   8.936  44.690   9.155
 5993POPC   GL1 8749   9.008  44.648   8.855
 5993POPC   GL2 8750   8.887  44.741   8.855
 5993POPC   C1A 8751   8.923  44.621   8.555
 5993POPC   D2A 8752   8.948  44.636   8.255
 5993POPC   C3A 8753   8.950  44.665   7.955
 5993POPC   C4A 8754   8.948  44.703   7.655
 5993POPC   C1B 8755   8.925  44.866   8.555
 5993POPC   C2B 8756   8.873  44.859   8.255
 5993POPC   C3B 8757   8.848  44.884   7.955
 5993POPC   C4B 8758   8.890  44.879   7.655
 5994POPC   NC3 8759  40.801  28.331   9.455
 5994POPC   PO4 8760  40.746  28.328   9.155
 5994POPC   GL1 8761  40.771  28.374   8.855
 5994POPC   GL2 8762  40.731  28.509   8.855
 5994POPC   C1A 8763  40.798  28.404   8.555
 5994POPC   D2A 8764  40.765  28.322   8.255
 5994POPC   C3A 8765  40.745  28.375   7.955
 5994POPC   C4A 8766  40.780  28.387   7.655
 5994POPC   C1B 8767  40.605  28.623   8.555
 5994POPC   C2B 8768  40.682  28.574   8.255
 5994POPC   C3B 8769  40.637  28.603   7.955
 5994POPC   C4B 8770  40.690  28.584   7.655
 5995POPC   NC3 8771  37.704   1.943   9.455
 5995POPC   PO4 8772  37.661   1.964   9.155
 5995POPC   GL1 8773  37.713   1.988   8.855
 5995POPC   GL2 8774  37.787   1.885   8.855
 5995POPC   C1A 8775  37.705   2.022   8.555
 5995POPC   D2A 8776  37.697   2.011   8.255
 5995POPC   C3A 8777  37.661   2.030   7.955
 5995POPC   C4A 8778  37.653   2.007   7.655
 5995POPC   C1B 8779  37.860   1.750   8.555
 5995POPC   C2B 8780  37.852   1.761   8.255
 5995POPC   C3B 8781  37.795   1.752   7.955
 5995POPC   C4B 8782  37.864   1.787   7.655
 5996POPC   NC3 8783  38.432  36.897   9.455
 5996POPC   PO4 8784  38.455  36.880   9.155
 5996POPC   GL1 8785  38.417  36.891   8.855
 5996POPC   GL2 8786  38.470  37.009   8.855
 5996POPC   C1A 8787  38.501  36.943   8.555
 5996POPC   D2A 8788  38.470  36.891   8.255
 5996POPC   C3A 8789  38.429  36.920   7.955
 5996POPC   C4A 8790  38.505  36.857   7.655
 5996POPC   C1B 8791  38.357  37.107   8.555
 5996POPC   C2B 8792  38.423  37.161   8.255
 5996POPC   C3B 8793  38.437  37.144   7.955
 5996POPC   C4B 8794  38.395  37.112   7.655
 5997POPC   NC3 8795  33.054  38.482   9.455
 5997POPC   PO4 8796  33.056  38.418   9.155
 5997POPC   GL1 8797  32.998  38.485   8.855
 5997POPC   GL2 8798  33.112  38.412   8.855
 5997POPC   C1A 8799  33.046  38.499   8.555
 5997POPC   D2A 8800  33.004  38.433   8.255
 5997POPC   C3A 8801  32.999  38.474   7.955
 5997POPC   C4A 8802  33.000  38.482   7.655
 5997POPC   C1B 8803  33.280  38.363   8.555
 5997POPC   C2B 8804  33.224  38.367   8.255
 5997POPC   C3B 8805  33.251  38.373   7.955
 5997POPC   C4B 8806  33.280  38.362   7.655
 5998POPC   NC3 8807  19.058  38.412   9.455
 5998POPC   PO4 8808  19.062  38.495   9.155
 5998POPC   GL1 8809  19.010  38.489   8.855
 5998POPC   GL2 8810  18.988  38.326   8.855
 5998POPC   C1A 8811  19.049  38.430   8.555
 5998POPC   D2A 8812  19.035  38.491   8.255
 5998POPC   C3A 8813  19.014  38.478   7.955
 5998POPC   C4A 8814  19.098  38.490   7.655
 5998POPC   C1B 8815  18.898  38.306   8.555
 5998POPC   C2B 8816  18.841  38.266   8.255
 5998POPC   C3B 8817  18.918  38.290   7.955
 5998POPC   C4B 8818  18.842  38.272   7.655
 5999POPC   NC3 8819  22.210  39.972   9.455
 5999POPC   PO4 8820  22.133  40.036   9.155
 5999POPC   GL1 8821  22.172  40.049   8.855
 5999POPC   GL2 8822  22.082  40.125   8.855
 5999POPC   C1A 8823  22.203  40.047   8.555
 5999POPC   D2A 8824  22.176  40.030   8.255
 5999POPC   C3A 8825  22.197  39.964   7.955
 5999POPC   C4A 8826  22.208  39.986   7.655
 5999POPC   C1B 8827  22.028  40.153   8.555
 5999POPC   C2B 8828  21.979  40.150   8.255
 5999POPC   C3B 8829  21.980  40.150   7.955
 5999POPC   C4B 8830  22.026  40.194   7.655
 6000POPC   NC3 8831   5.915  40.784   9.455
 6000POPC   PO4 8832   5.870  40.740   9.155
 6000POPC   GL1 8833   5.859  40.759   8.855
 6000POPC   GL2 8834   5.948  40.878   8.855
 6000POPC   C1A 8835   5.874  40.795   8.555
 6000POPC   D2A 8836   5.820  40.819   8.255
 6000POPC   C3A 8837   5.844  40.813   7.955
 6000POPC   C4A 8838   5.833  40.739   7.655
 6000POPC   C1B 8839   5.994  41.012   8.555
 6000POPC   C2B 8840   5.937  41.059   8.255
 6000POPC   C3B 8841   6.009  41.029   7.955
 6000POPC   C4B 8842   5.920  40.966   7.655
 6001POPC   NC3 8843   7.435  26.776   9.455
 6001POPC   PO4 8844   7.383  26.862   9.155
 6001POPC   GL1 8845   7.383  26.773   8.855
 6001POPC   GL2 8846   7.503  26.684   8.855
 6001POPC   C1A 8847   7.424  26.806   8.555
 6001POPC   D2A 8848   7.378  26.810   8.255
 6001POPC   C3A 8849   7.388  26.799   7.955
 6001POPC   C4A 8850   7.398  26.770   7.655
 6001POPC   C1B 8851   7.574  26.563   8.555
 6001POPC   C2B 8852   7.552  26.622   8.255
 6001POPC   C3B 8853   7.554  26.629   7.955
 6001POPC   C4B 8854   7.508  26.606   7.655
 6002POPC   NC3 8855   8.167   5.862   9.455
 6002POPC   PO4 8856   8.187   5.901   9.155
 6002POPC   GL1 8857   8.179   5.854   8.855
 6002POPC   GL2 8858   8.239   5.764   8.855
 6002POPC   C1A 8859   8.147   5.874   8.555
 6002POPC   D2A 8860   8.152   5.846   8.255
 6002POPC   C3A 8861   8.244   5.837   7.955
 6002POPC   C4A 8862   8.167   5.868   7.655
 6002POPC   C1B 8863   8.248   5.671   8.555
 6002POPC   C2B 8864   8.292   5.675   8.255
 6002POPC   C3B 8865   8.311   5.634   7.955
 6002POPC   C4B 8866   8.283   5.659   7.655
 6003POPC   NC3 8867  14.371  18.297   9.455
 6003POPC   PO4 8868  14.366  18.312   9.155
 6003POPC   GL1 8869  14.423  18.250   8.855
 6003POPC   GL2 8870  14.268  18.288   8.855
 6003POPC   C1A 8871  14.382  18.301   8.555
 6003POPC   D2A 8872  14.363  18.247   8.255
 6003POPC   C3A 8873  14.392  18.267   7.955
 6003POPC   C4A 8874  14.418  18.311   7.655
 6003POPC   C1B 8875  14.177  18.350   8.555
 6003POPC   C2B 8876  14.213  18.348   8.255
 6003POPC   C3B 8877  14.210  18.387   7.955
 6003POPC   C4B 8878  14.122  18.342   7.655
 6004POPC   NC3 8879  18.237  34.541   9.455
 6004POPC   PO4 8880  18.242  34.608   9.155
 6004POPC   GL1 8881  18.255  34.535   8.855
 6004POPC   GL2 8882  18.226  34.695   8.855
 6004POPC   C1A 8883  18.258  34.598   8.555
 6004POPC   D2A 8884  18.242  34.572   8.255
 6004POPC   C3A 8885  18.327  34.616   7.955
 6004POPC   C4A 8886  18.311  34.570   7.655
 6004POPC   C1B 8887  18.065  34.747   8.555
 6004POPC   C2B 8888  18.051  34.779   8.255
 6004POPC   C3B 8889  18.045  34.732   7.955
 6004POPC   C4B 8890  18.140  34.774   7.655
 6005POPC   NC3 8891  17.537   8.177   9.455
 6005POPC   PO4 8892  17.495   8.224   9.155
 6005POPC   GL1 8893  17.556   8.214   8.855
 6005POPC   GL2 8894  17.574   8.362   8.855
 6005POPC   C1A 8895  17.483   8.170   8.555
 6005POPC   D2A 8896  17.467   8.192   8.255
 6005POPC   C3A 8897  17.548   8.158   7.955
 6005POPC   C4A 8898  17.531   8.180   7.655
 6005POPC   C1B 8899  17.574   8.418   8.555
 6005POPC   C2B 8900  17.569   8.421   8.255
 6005POPC   C3B 8901  17.544   8.448   7.955
 6005POPC   C4B 8902  17.556   8.453   7.655
 6006POPC   NC3 8903  40.768  26.849   9.455
 6006POPC   PO4 8904  40.778  26.787   9.155
 6006POPC   GL1 8905  40.745  26.773   8.855
 6006POPC   GL2 8906  40.647  26.763   8.855
 6006POPC   C1A 8907  40.736  26.817   8.555
 6006POPC   D2A 8908  40.822  26.779   8.255
 6006POPC   C3A 8909  40.771  26.828   7.955
 6006POPC   C4A 8910  40.750  26.837   7.655
 6006POPC   C1B 8911  40.568  26.772   8.555
 6006POPC   C2B 8912  40.562  26.797   8.255
 6006POPC   C3B 8913  40.584  26.772   7.955
 6006POPC   C4B 8914  40.543  26.827   7.655
 6007POPC   NC3 8915   1.252   0.397   9.455
 6007POPC   PO4 8916   1.252   0.475   9.155
 6007POPC   GL1 8917   1.232   0.480   8.855
 6007POPC   GL2 8918   1.104   0.491   8.855
 6007POPC   C1A 8919   1.207   0.433   8.555
 6007POPC   D2A 8920   1.236   0.410   8.255
 6007POPC   C3A 8921   1.263   0.421   7.955
 6007POPC   C4A 8922   1.170   0.421   7.655
 6007POPC   C1B 8923   1.028   0.484   8.555
 6007POPC   C2B 8924   0.976   0.492   8.255
 6007POPC   C3B 8925   0.987   0.507   7.955
 6007POPC   C4B 8926   0.954   0.524   7.655
 6008POPC   NC3 8927   6.675  30.691   9.455
 6008POPC   PO4 8928   6.615  30.670   9.155
 6008POPC   GL1 8929   6.668  30.740   8.855
 6008POPC   GL2 8930   6.540  30.654   8.855
 6008POPC   C1A 8931   6.676  30.732   8.555
 6008POPC   D2A 8932   6.682  30.656   8.255
 6008POPC   C3A 8933   6.614  30.730   7.955
 6008POPC   C4A 8934   6.622  30.680   7.655
 6008POPC   C1B 8935   6.449  30.547   8.555
 6008POPC   C2B 8936   6.374  30.612   8.255
 6008POPC   C3B 8937   6.390  30.621   7.955
 6008POPC   C4B 8938   6.424  30.553   7.655
 6009POPC   NC3 8939  37.716   2.785   9.455
 6009POPC   PO4 8940  37.663   2.808   9.155
 6009POPC   GL1 8941  37.720   2.805   8.855
 6009POPC   GL2 8942  37.704   2.839   8.855
 6009POPC   C1A 8943  37.633   2.806   8.555
 6009POPC   D2A 8944  37.707   2.810   8.255
 6009POPC   C3A 8945  37.646   2.721   7.955
 6009POPC   C4A 8946  37.722   2.789   7.655
 6009POPC   C1B 8947  37.791   3.019   8.555
 6009POPC   C2B 8948  37.799   2.975   8.255
 6009POPC   C3B 8949  37.768   2.997   7.955
 6009POPC   C4B 8950  37.748   3.019   7.655
 6010POPC   NC3 8951  28.371  16.696   9.455
 6010POPC   PO4 8952  28.390  16.762   9.155
 6010POPC   GL1 8953  28.334  16.735   8.855
 6010POPC   GL2 8954  28.414  16.879   8.855
 6010POPC   C1A 8955  28.339  16.685   8.555
 6010POPC   D2A 8956  28.349  16.705   8.255
 6010POPC   C3A 8957  28.378  16.698   7.955
 6010POPC   C4A 8958  28.343  16.746   7.655
 6010POPC   C1B 8959  28.450  16.994   8.555
 6010POPC   C2B 8960  28.435  16.973   8.255
 6010POPC   C3B 8961  28.459  16.983   7.955
 6010POPC   C4B 8962  28.435  17.002   7.655
 6011POPC   NC3 8963   4.317  15.189   9.455
 6011POPC   PO4 8964   4.367  15.135   9.155
 6011POPC   GL1 8965   4.292  15.179   8.855
 6011POPC   GL2 8966   4.203  15.154   8.855
 6011POPC   C1A 8967   4.349  15.130   8.555
 6011POPC   D2A 8968   4.366  15.134   8.255
 6011POPC   C3A 8969   4.289  15.163   7.955
 6011POPC   C4A 8970   4.325  15.165   7.655
 6011POPC   C1B 8971   4.040  15.178   8.555
 6011POPC   C2B 8972   4.092  15.106   8.255
 6011POPC   C3B 8973   4.024  15.142   7.955
 6011POPC   C4B 8974   4.067  15.143   7.655
 6012POPC   NC3 8975   9.717  27.633   9.455
 6012POPC   PO4 8976   9.774  27.608   9.155
 6012POPC   GL1 8977   9.718  27.600   8.855
 6012POPC   GL2 8978   9.746  27.463   8.855
 6012POPC   C1A 8979   9.730  27.585   8.555
 6012POPC   D2A 8980   9.790  27.583   8.255
 6012POPC   C3A 8981   9.776  27.544   7.955
 6012POPC   C4A 8982   9.741  27.621   7.655
 6012POPC   C1B 8983   9.697  27.321   8.555
 6012POPC   C2B 8984   9.730  27.363   8.255
 6012POPC   C3B 8985   9.687  27.328   7.955
 6012POPC   C4B 8986   9.694  27.323   7.655
 6013POPC   NC3 8987   7.412   7.459   9.455
 6013POPC   PO4 8988   7.435   7.458   9.155
 6013POPC   GL1 8989   7.466   7.404   8.855
 6013POPC   GL2 8990   7.436   7.319   8.855
 6013POPC   C1A 8991   7.376   7.446   8.555
 6013POPC   D2A 8992   7.429   7.379   8.255
 6013POPC   C3A 8993   7.425   7.385   7.955
 6013POPC   C4A 8994   7.386   7.458   7.655
 6013POPC   C1B 8995   7.449   7.180   8.555
 6013POPC   C2B 8996   7.380   7.217   8.255
 6013POPC   C3B 8997   7.355   7.172   7.955
 6013POPC   C4B 8998   7.402   7.221   7.655
 6014POPC   NC3 8999  33.849  39.960   9.455
 6014POPC   PO4 9000  33.806  39.985   9.155
 6014POPC   GL1 9001  33.805  40.021   8.855
 6014POPC   GL2 9002  33.738  39.938   8.855
 6014POPC   C1A 9003  33.767  39.982   8.555
 6014POPC   D2A 9004  33.758  40.015   8.255
 6014POPC   C3A 9005  33.774  40.048   7.955
 6014POPC   C4A 9006  33.836  40.039   7.655
 6014POPC   C1B 9007  33.533  39.847   8.555
 6014POPC   C2B 9008  33.577  39.869   8.255
 6014POPC   C3B 9009  33.539  39.924   7.955
 6014POPC   C4B 9010  33.609  39.923   7.655
 6015POPC   NC3 9011  16.767   7.380   9.455
 6015POPC   PO4 9012  16.690   7.437   9.155
 6015POPC   GL1 9013  16.756   7.426   8.855
 6015POPC   GL2 9014  16.736   7.590   8.855
 6015POPC   C1A 9015  16.752   7.421   8.555
 6015POPC   D2A 9016  16.730   7.398   8.255
 6015POPC   C3A 9017  16.692   7.441   7.955
 6015POPC   C4A 9018  16.746   7.378   7.655
 6015POPC   C1B 9019  16.754   7.696   8.555
 6015POPC   C2B 9020  16.757   7.669   8.255
 6015POPC   C3B 9021  16.809   7.683   7.955
 6015POPC   C4B 9022  16.791   7.658   7.655
 6016POPC   NC3 9023  19.848  41.509   9.455
 6016POPC   PO4 9024  19.788  41.546   9.155
 6016POPC   GL1 9025  19.884  41.575   8.855
 6016POPC   GL2 9026  19.869  41.684   8.855
 6016POPC   C1A 9027  19.846  41.515   8.555
 6016POPC   D2A 9028  19.865  41.565   8.255
 6016POPC   C3A 9029  19.875  41.604   7.955
 6016POPC   C4A 9030  19.859  41.599   7.655
 6016POPC   C1B 9031  19.814  41.780   8.555
 6016POPC   C2B 9032  19.818  41.774   8.255
 6016POPC   C3B 9033  19.847  41.810   7.955
 6016POPC   C4B 9034  19.877  41.823   7.655
 6017POPC   NC3 9035  29.166  39.275   9.455
 6017POPC   PO4 9036  29.096  39.251   9.155
 6017POPC   GL1 9037  29.120  39.268   8.855
 6017POPC   GL2 9038  29.197  39.101   8.855
 6017POPC   C1A 9039  29.159  39.228   8.555
 6017POPC   D2A 9040  29.138  39.234   8.255
 6017POPC   C3A 9041  29.155  39.220   7.955
 6017POPC   C4A 9042  29.106  39.250   7.655
 6017POPC   C1B 9043  29.293  39.092   8.555
 6017POPC   C2B 9044  29.289  39.065   8.255
 6017POPC   C3B 9045  29.287  39.000   7.955
 6017POPC   C4B 9046  29.347  39.085   7.655
 6018POPC   NC3 9047  36.934  40.769   9.455
 6018POPC   PO4 9048  36.936  40.819   9.155
 6018POPC   GL1 9049  36.865  40.770   8.855
 6018POPC   GL2 9050  36.902  40.895   8.855
 6018POPC   C1A 9051  36.950  40.826   8.555
 6018POPC   D2A 9052  36.930  40.802   8.255
 6018POPC   C3A 9053  36.897  40.817   7.955
 6018POPC   C4A 9054  36.857  40.781   7.655
 6018POPC   C1B 9055  36.875  41.007   8.555
 6018POPC   C2B 9056  36.878  41.021   8.255
 6018POPC   C3B 9057  36.848  41.026   7.955
 6018POPC   C4B 9058  36.920  41.016   7.655
 6019POPC   NC3 9059  12.834  41.586   9.455
 6019POPC   PO4 9060  12.826  41.519   9.155
 6019POPC   GL1 9061  12.849  41.536   8.855
 6019POPC   GL2 9062  12.799  41.650   8.855
 6019POPC   C1A 9063  12.826  41.545   8.555
 6019POPC   D2A 9064  12.866  41.581   8.255
 6019POPC   C3A 9065  12.849  41.591   7.955
 6019POPC   C4A 9066  12.810  41.590   7.655
 6019POPC   C1B 9067  12.735  41.757   8.555
 6019POPC   C2B 9068  12.734  41.737   8.255
 6019POPC   C3B 9069  12.729  41.773   7.955
 6019POPC   C4B 9070  12.713  41.752   7.655
 6020POPC   NC3 9071  33.828   9.004   9.455
 6020POPC   PO4 9072  33.782   8.959   9.155
 6020POPC   GL1 9073  33.807   8.957   8.855
 6020POPC   GL2 9074  33.829   8.851   8.855
 6020POPC   C1A 9075  33.827   8.981   8.555
 6020POPC   D2A 9076  33.839   8.983   8.255
 6020POPC   C3A 9077  33.812   8.934   7.955
 6020POPC   C4A 9078  33.838   8.966   7.655
 6020POPC   C1B 9079  33.904   8.794   8.555
 6020POPC   C2B 9080  33.945   8.719   8.255
 6020POPC   C3B 9081  33.949   8.735   7.955
 6020POPC   C4B 9082  33.869   8.700   7.655
 6021POPC   NC3 9083  26.792   1.969   9.455
 6021POPC   PO4 9084  26.806   1.947   9.155
 6021POPC   GL1 9085  26.814   1.948   8.855
 6021POPC   GL2 9086  26.744   1.830   8.855
 6021POPC   C1A 9087  26.829   1.973   8.555
 6021POPC   D2A 9088  26.825   2.039   8.255
 6021POPC   C3A 9089  26.797   2.026   7.955
 6021POPC   C4A 9090  26.791   1.951   7.655
 6021POPC   C1B 9091  26.694   1.748   8.555
 6021POPC   C2B 9092  26.763   1.793   8.255
 6021POPC   C3B 9093  26.694   1.734   7.955
 6021POPC   C4B 9094  26.731   1.778   7.655
 6022POPC   NC3 9095  16.003  41.530   9.455
 6022POPC   PO4 9096  15.985  41.517   9.155
 6022POPC   GL1 9097  15.967  41.590   8.855
 6022POPC   GL2 9098  16.064  41.692   8.855
 6022POPC   C1A 9099  15.919  41.562   8.555
 6022POPC   D2A 9100  15.988  41.565   8.255
 6022POPC   C3A 9101  15.930  41.512   7.955
 6022POPC   C4A 9102  15.982  41.576   7.655
 6022POPC   C1B 9103  16.073  41.752   8.555
 6022POPC   C2B 9104  16.077  41.795   8.255
 6022POPC   C3B 9105  16.155  41.773   7.955
 6022POPC   C4B 9106  16.136  41.757   7.655
 6023POPC   NC3 9107  26.786  22.954   9.455
 6023POPC   PO4 9108  26.810  22.920   9.155
 6023POPC   GL1 9109  26.831  22.924   8.855
 6023POPC   GL2 9110  26.774  22.830   8.855
 6023POPC   C1A 9111  26.812  22.987   8.555
 6023POPC   D2A 9112  26.861  22.900   8.255
 6023POPC   C3A 9113  26.837  22.950   7.955
 6023POPC   C4A 9114  26.855  22.907   7.655
 6023POPC   C1B 9115  26.711  22.705   8.555
 6023POPC   C2B 9116  26.640  22.779   8.255
 6023POPC   C3B 9117  26.641  22.704   7.955
 6023POPC   C4B 9118  26.711  22.702   7.655
 6024POPC   NC3 9119   5.124  31.522   9.455
 6024POPC   PO4 9120   5.132  31.507   9.155
 6024POPC   GL1 9121   5.143  31.446   8.855
 6024POPC   GL2 9122   5.020  31.570   8.855
 6024POPC   C1A 9123   5.053  31.456   8.555
 6024POPC   D2A 9124   5.048  31.497   8.255
 6024POPC   C3A 9125   5.109  31.511   7.955
 6024POPC   C4A 9126   5.070  31.509   7.655
 6024POPC   C1B 9127   4.902  31.635   8.555
 6024POPC   C2B 9128   4.923  31.619   8.255
 6024POPC   C3B 9129   4.909  31.559   7.955
 6024POPC   C4B 9130   4.921  31.606   7.655
 6025POPC   NC3 9131  43.081  22.972   9.455
 6025POPC   PO4 9132  43.063  22.891   9.155
 6025POPC   GL1 9133  43.062  22.964   8.855
 6025POPC   GL2 9134  43.152  22.782   8.855
 6025POPC   C1A 9135  43.083  22.987   8.555
 6025POPC   D2A 9136  43.107  22.901   8.255
 6025POPC   C3A 9137  43.145  22.916   7.955
 6025POPC   C4A 9138  43.113  22.908   7.655
 6025POPC   C1B 9139  43.186  22.686   8.555
 6025POPC   C2B 9140  43.245  22.723   8.255
 6025POPC   C3B 9141  43.254  22.695   7.955
 6025POPC   C4B 9142  43.240  22.755   7.655
 6026POPC   NC3 9143   9.707  12.844   9.455
 6026POPC   PO4 9144   9.723  12.879   9.155
 6026POPC   GL1 9145   9.733  12.856   8.855
 6026POPC   GL2 9146   9.662  12.867   8.855
 6026POPC   C1A 9147   9.722  12.860   8.555
 6026POPC   D2A 9148   9.699  12.888   8.255
 6026POPC   C3A 9149   9.719  12.815   7.955
 6026POPC   C4A 9150   9.759  12.812   7.655
 6026POPC   C1B 9151   9.499  12.863   8.555
 6026POPC   C2B 9152   9.456  12.865   8.255
 6026POPC   C3B 9153   9.534  12.785   7.955
 6026POPC   C4B 9154   9.547  12.859   7.655
 6027POPC   NC3 9155   9.736  15.918   9.455
 6027POPC   PO4 9156   9.707  16.005   9.155
 6027POPC   GL1 9157   9.756  15.965   8.855
 6027POPC   GL2 9158   9.891  15.911   8.855
 6027POPC   C1A 9159   9.754  15.977   8.555
 6027POPC   D2A 9160   9.717  15.967   8.255
 6027POPC   C3A 9161   9.722  15.959   7.955
 6027POPC   C4A 9162   9.775  15.997   7.655
 6027POPC   C1B 9163   9.990  15.903   8.555
 6027POPC   C2B 9164   9.957  15.825   8.255
 6027POPC   C3B 9165   9.977  15.861   7.955
 6027POPC   C4B 9166   9.946  15.911   7.655
 6028POPC   NC3 9167   6.669  14.385   9.455
 6028POPC   PO4 9168   6.624  14.411   9.155
 6028POPC   GL1 9169   6.618  14.435   8.855
 6028POPC   GL2 9170   6.747  14.509   8.855
 6028POPC   C1A 9171   6.624  14.394   8.555
 6028POPC   D2A 9172   6.670  14.369   8.255
 6028POPC   C3A 9173   6.650  14.371   7.955
 6028POPC   C4A 9174   6.648  14.356   7.655
 6028POPC   C1B 9175   6.898  14.555   8.555
 6028POPC   C2B 9176   6.906  14.543   8.255
 6028POPC   C3B 9177   6.887  14.554   7.955
 6028POPC   C4B 9178   6.895  14.569   7.655
 6029POPC   NC3 9179  36.942  29.932   9.455
 6029POPC   PO4 9180  36.874  29.888   9.155
 6029POPC   GL1 9181  36.916  29.967   8.855
 6029POPC   GL2 9182  36.803  29.958   8.855
 6029POPC   C1A 9183  36.924  29.919   8.555
 6029POPC   D2A 9184  36.862  29.970   8.255
 6029POPC   C3A 9185  36.950  29.970   7.955
 6029POPC   C4A 9186  36.863  29.914   7.655
 6029POPC   C1B 9187  36.687  29.862   8.555
 6029POPC   C2B 9188  36.695  29.924   8.255
 6029POPC   C3B 9189  36.614  29.882   7.955
 6029POPC   C4B 9190  36.652  29.896   7.655
 6030POPC   NC3 9191  42.366  21.397   9.455
 6030POPC   PO4 9192  42.339  21.375   9.155
 6030POPC   GL1 9193  42.365  21.349   8.855
 6030POPC   GL2 9194  42.431  21.277   8.855
 6030POPC   C1A 9195  42.368  21.404   8.555
 6030POPC   D2A 9196  42.288  21.380   8.255
 6030POPC   C3A 9197  42.356  21.359   7.955
 6030POPC   C4A 9198  42.383  21.355   7.655
 6030POPC   C1B 9199  42.519  21.245   8.555
 6030POPC   C2B 9200  42.557  21.229   8.255
 6030POPC   C3B 9201  42.522  21.210   7.955
 6030POPC   C4B 9202  42.518  21.222   7.655
 6031POPC   NC3 9203  23.752  26.057   9.455
 6031POPC   PO4 9204  23.744  25.993   9.155
 6031POPC   GL1 9205  23.746  26.088   8.855
 6031POPC   GL2 9206  23.690  26.178   8.855
 6031POPC   C1A 9207  23.698  26.059   8.555
 6031POPC   D2A 9208  23.692  26.019   8.255
 6031POPC   C3A 9209  23.741  26.014   7.955
 6031POPC   C4A 9210  23.672  26.054   7.655
 6031POPC   C1B 9211  23.625  26.253   8.555
 6031POPC   C2B 9212  23.611  26.237   8.255
 6031POPC   C3B 9213  23.643  26.331   7.955
 6031POPC   C4B 9214  23.634  26.316   7.655
 6032POPC   NC3 9215  36.875  30.666   9.455
 6032POPC   PO4 9216  36.860  30.670   9.155
 6032POPC   GL1 9217  36.951  30.710   8.855
 6032POPC   GL2 9218  36.990  30.853   8.855
 6032POPC   C1A 9219  36.896  30.697   8.555
 6032POPC   D2A 9220  36.948  30.709   8.255
 6032POPC   C3A 9221  36.856  30.701   7.955
 6032POPC   C4A 9222  36.869  30.698   7.655
 6032POPC   C1B 9223  36.998  30.888   8.555
 6032POPC   C2B 9224  36.988  30.950   8.255
 6032POPC   C3B 9225  37.009  30.958   7.955
 6032POPC   C4B 9226  37.035  30.912   7.655
 6033POPC   NC3 9227  39.963  15.214   9.455
 6033POPC   PO4 9228  39.965  15.133   9.155
 6033POPC   GL1 9229  39.991  15.131   8.855
 6033POPC   GL2 9230  40.149  15.245   8.855
 6033POPC   C1A 9231  40.041  15.162   8.555
 6033POPC   D2A 9232  40.022  15.140   8.255
 6033POPC   C3A 9233  39.967  15.213   7.955
 6033POPC   C4A 9234  40.025  15.142   7.655
 6033POPC   C1B 9235  40.235  15.286   8.555
 6033POPC   C2B 9236  40.216  15.269   8.255
 6033POPC   C3B 9237  40.283  15.294   7.955
 6033POPC   C4B 9238  40.257  15.261   7.655
 6034POPC   NC3 9239  10.522   1.233   9.455
 6034POPC   PO4 9240  10.486   1.170   9.155
 6034POPC   GL1 9241  10.518   1.257   8.855
 6034POPC   GL2 9242  10.605   1.110   8.855
 6034POPC   C1A 9243  10.559   1.243   8.555
 6034POPC   D2A 9244  10.494   1.241   8.255
 6034POPC   C3A 9245  10.480   1.254   7.955
 6034POPC   C4A 9246  10.566   1.205   7.655
 6034POPC   C1B 9247  10.582   0.957   8.555
 6034POPC   C2B 9248  10.666   0.936   8.255
 6034POPC   C3B 9249  10.645   1.009   7.955
 6034POPC   C4B 9250  10.653   0.984   7.655
 6035POPC   NC3 9251  39.195  11.332   9.455
 6035POPC   PO4 9252  39.246  11.298   9.155
 6035POPC   GL1 9253  39.244  11.288   8.855
 6035POPC   GL2 9254  39.113  11.159   8.855
 6035POPC   C1A 9255  39.226  11.347   8.555
 6035POPC   D2A 9256  39.265  11.302   8.255
 6035POPC   C3A 9257  39.213  11.315   7.955
 6035POPC   C4A 9258  39.242  11.349   7.655
 6035POPC   C1B 9259  39.087  11.120   8.555
 6035POPC   C2B 9260  39.081  11.079   8.255
 6035POPC   C3B 9261  39.062  11.121   7.955
 6035POPC   C4B 9262  39.022  11.083   7.655
 6036POPC   NC3 9263  18.276  26.800   9.455
 6036POPC   PO4 9264  18.297  26.796   9.155
 6036POPC   GL1 9265  18.322  26.862   8.855
 6036POPC   GL2 9266  18.354  26.859   8.855
 6036POPC   C1A 9267  18.326  26.855   8.555
 6036POPC   D2A 9268  18.295  26.844   8.255
 6036POPC   C3A 9269  18.237  26.780   7.955
 6036POPC   C4A 9270  18.325  26.845   7.655
 6036POPC   C1B 9271  18.522  26.928   8.555
 6036POPC   C2B 9272  18.539  26.970   8.255
 6036POPC   C3B 9273  18.469  26.955   7.955
 6036POPC   C4B 9274  18.455  26.984   7.655
 6037POPC   NC3 9275   8.176  33.767   9.455
 6037POPC   PO4 9276   8.199  33.768   9.155
 6037POPC   GL1 9277   8.188  33.794   8.855
 6037POPC   GL2 9278   8.202  33.912   8.855
 6037POPC   C1A 9279   8.171  33.824   8.555
 6037POPC   D2A 9280   8.208  33.813   8.255
 6037POPC   C3A 9281   8.167  33.785   7.955
 6037POPC   C4A 9282   8.161  33.783   7.655
 6037POPC   C1B 9283   8.094  34.089   8.555
 6037POPC   C2B 9284   8.102  34.076   8.255
 6037POPC   C3B 9285   8.135  33.994   7.955
 6037POPC   C4B 9286   8.154  33.997   7.655
 6038POPC   NC3 9287  26.769  42.363   9.455
 6038POPC   PO4 9288  26.805  42.338   9.155
 6038POPC   GL1 9289  26.819  42.330   8.855
 6038POPC   GL2 9290  26.729  42.189   8.855
 6038POPC   C1A 9291  26.769  42.332   8.555
 6038POPC   D2A 9292  26.804  42.355   8.255
 6038POPC   C3A 9293  26.797  42.310   7.955
 6038POPC   C4A 9294  26.807  42.317   7.655
 6038POPC   C1B 9295  26.647  42.164   8.555
 6038POPC   C2B 9296  26.692  42.120   8.255
 6038POPC   C3B 9297  26.672  42.118   7.955
 6038POPC   C4B 9298  26.688  42.141   7.655
 6039POPC   NC3 9299   2.808   1.978   9.455
 6039POPC   PO4 9300   2.793   1.991   9.155
 6039POPC   GL1 9301   2.800   1.975   8.855
 6039POPC   GL2 9302   2.704   2.083   8.855
 6039POPC   C1A 9303   2.796   1.998   8.555
 6039POPC   D2A 9304   2.721   2.016   8.255
 6039POPC   C3A 9305   2.724   1.989   7.955
 6039POPC   C4A 9306   2.751   1.971   7.655
 6039POPC   C1B 9307   2.625   2.126   8.555
 6039POPC   C2B 9308   2.611   2.130   8.255
 6039POPC   C3B 9309   2.609   2.144   7.955
 6039POPC   C4B 9310   2.629   2.217   7.655
 6040POPC   NC3 9311  33.071  24.447   9.455
 6040POPC   PO4 9312  33.013  24.488   9.155
 6040POPC   GL1 9313  33.033  24.469   8.855
 6040POPC   GL2 9314  32.955  24.428   8.855
 6040POPC   C1A 9315  33.066  24.514   8.555
 6040POPC   D2A 9316  33.065  24.525   8.255
 6040POPC   C3A 9317  33.044  24.509   7.955
 6040POPC   C4A 9318  33.071  24.458   7.655
 6040POPC   C1B 9319  32.771  24.369   8.555
 6040POPC   C2B 9320  32.815  24.352   8.255
 6040POPC   C3B 9321  32.772  24.376   7.955
 6040POPC   C4B 9322  32.813  24.382   7.655
 6041POPC   NC3 9323  22.127  21.435   9.455
 6041POPC   PO4 9324  22.195  21.421   9.155
 6041POPC   GL1 9325  22.117  21.405   8.855
 6041POPC   GL2 9326  22.093  21.521   8.855
 6041POPC   C1A 9327  22.125  21.418   8.555
 6041POPC   D2A 9328  22.133  21.383   8.255
 6041POPC   C3A 9329  22.204  21.374   7.955
 6041POPC   C4A 9330  22.166  21.352   7.655
 6041POPC   C1B 9331  22.060  21.547   8.555
 6041POPC   C2B 9332  22.041  21.610   8.255
 6041POPC   C3B 9333  22.018  21.605   7.955
 6041POPC   C4B 9334  22.047  21.552   7.655
 6042POPC   NC3 9335  28.407  20.598   9.455
 6042POPC   PO4 9336  28.334  20.631   9.155
 6042POPC   GL1 9337  28.399  20.571   8.855
 6042POPC   GL2 9338  28.422  20.729   8.855
 6042POPC   C1A 9339  28.348  20.633   8.555
 6042POPC   D2A 9340  28.407  20.562   8.255
 6042POPC   C3A 9341  28.397  20.582   7.955
 6042POPC   C4A 9342  28.373  20.607   7.655
 6042POPC   C1B 9343  28.478  20.872   8.555
 6042POPC   C2B 9344  28.424  20.804   8.255
 6042POPC   C3B 9345  28.420  20.814   7.955
 6042POPC   C4B 9346  28.458  20.857   7.655
 6043POPC   NC3 9347  43.863   8.153   9.455
 6043POPC   PO4 9348  43.875   8.237   9.155
 6043POPC   GL1 9349  43.894   8.216   8.855
 6043POPC   GL2 9350  43.984   8.097   8.855
 6043POPC   C1A 9351  43.858   8.159   8.555
 6043POPC   D2A 9352  43.863   8.203   8.255
 6043POPC   C3A 9353  43.907   8.150   7.955
 6043POPC   C4A 9354  43.860   8.190   7.655
 6043POPC   C1B 9355  44.042   8.052   8.555
 6043POPC   C2B 9356  44.041   7.993   8.255
 6043POPC   C3B 9357  44.039   7.994   7.955
 6043POPC   C4B 9358  44.042   7.963   7.655
 6044POPC   NC3 9359  36.117  28.322   9.455
 6044POPC   PO4 9360  36.120  28.361   9.155
 6044POPC   GL1 9361  36.166  28.339   8.855
 6044POPC   GL2 9362  36.084  28.261   8.855
 6044POPC   C1A 9363  36.116  28.380   8.555
 6044POPC   D2A 9364  36.171  28.332   8.255
 6044POPC   C3A 9365  36.134  28.344   7.955
 6044POPC   C4A 9366  36.170  28.414   7.655
 6044POPC   C1B 9367  35.980  28.187   8.555
 6044POPC   C2B 9368  35.996  28.150   8.255
 6044POPC   C3B 9369  36.070  28.182   7.955
 6044POPC   C4B 9370  35.997  28.106   7.655
 6045POPC   NC3 9371  35.335  34.581   9.455
 6045POPC   PO4 9372  35.401  34.587   9.155
 6045POPC   GL1 9373  35.395  34.575   8.855
 6045POPC   GL2 9374  35.264  34.505   8.855
 6045POPC   C1A 9375  35.392  34.617   8.555
 6045POPC   D2A 9376  35.383  34.603   8.255
 6045POPC   C3A 9377  35.389  34.625   7.955
 6045POPC   C4A 9378  35.317  34.610   7.655
 6045POPC   C1B 9379  35.224  34.411   8.555
 6045POPC   C2B 9380  35.166  34.394   8.255
 6045POPC   C3B 9381  35.216  34.384   7.955
 6045POPC   C4B 9382  35.212  34.402   7.655
 6046POPC   NC3 9383   5.883  10.566   9.455
 6046POPC   PO4 9384   5.864  10.559   9.155
 6046POPC   GL1 9385   5.826  10.552   8.855
 6046POPC   GL2 9386   5.859  10.673   8.855
 6046POPC   C1A 9387   5.911  10.565   8.555
 6046POPC   D2A 9388   5.820  10.517   8.255
 6046POPC   C3A 9389   5.837  10.498   7.955
 6046POPC   C4A 9390   5.903  10.565   7.655
 6046POPC   C1B 9391   5.812  10.781   8.555
 6046POPC   C2B 9392   5.717  10.728   8.255
 6046POPC   C3B 9393   5.775  10.765   7.955
 6046POPC   C4B 9394   5.753  10.750   7.655
 6047POPC   NC3 9395  19.876   9.735   9.455
 6047POPC   PO4 9396  19.845   9.744   9.155
 6047POPC   GL1 9397  19.806   9.764   8.855
 6047POPC   GL2 9398  19.735   9.771   8.855
 6047POPC   C1A 9399  19.825   9.698   8.555
 6047POPC   D2A 9400  19.815   9.777   8.255
 6047POPC   C3A 9401  19.860   9.786   7.955
 6047POPC   C4A 9402  19.872   9.776   7.655
 6047POPC   C1B 9403  19.638   9.712   8.555
 6047POPC   C2B 9404  19.542   9.680   8.255
 6047POPC   C3B 9405  19.636   9.663   7.955
 6047POPC   C4B 9406  19.565   9.742   7.655
 6048POPC   NC3 9407  36.868  25.997   9.455
 6048POPC   PO4 9408  36.861  26.012   9.155
 6048POPC   GL1 9409  36.921  26.037   8.855
 6048POPC   GL2 9410  36.932  26.091   8.855
 6048POPC   C1A 9411  36.892  26.058   8.555
 6048POPC   D2A 9412  36.889  26.023   8.255
 6048POPC   C3A 9413  36.925  26.018   7.955
 6048POPC   C4A 9414  36.876  26.002   7.655
 6048POPC   C1B 9415  37.085  26.231   8.555
 6048POPC   C2B 9416  37.010  26.231   8.255
 6048POPC   C3B 9417  37.091  26.230   7.955
 6048POPC   C4B 9418  37.032  26.280   7.655
 6049POPC   NC3 9419  15.985   1.197   9.455
 6049POPC   PO4 9420  15.958   1.174   9.155
 6049POPC   GL1 9421  15.939   1.167   8.855
 6049POPC   GL2 9422  16.034   1.174   8.855
 6049POPC   C1A 9423  15.994   1.239   8.555
 6049POPC   D2A 9424  15.967   1.197   8.255
 6049POPC   C3A 9425  15.942   1.259   7.955
 6049POPC   C4A 9426  15.958   1.254   7.655
 6049POPC   C1B 9427  16.177   1.087   8.555
 6049POPC   C2B 9428  16.159   1.119   8.255
 6049POPC   C3B 9429  16.220   1.082   7.955
 6049POPC   C4B 9430  16.199   1.089   7.655
 6050POPC   NC3 9431  33.822  42.302   9.455
 6050POPC   PO4 9432  33.836  42.312   9.155
 6050POPC   GL1 9433  33.806  42.365   8.855
 6050POPC   GL2 9434  33.782  42.445   8.855
 6050POPC   C1A 9435  33.801  42.334   8.555
 6050POPC   D2A 9436  33.819  42.304   8.255
 6050POPC   C3A 9437  33.847  42.316   7.955
 6050POPC   C4A 9438  33.767  42.337   7.655
 6050POPC   C1B 9439  33.710  42.531   8.555
 6050POPC   C2B 9440  33.770  42.601   8.255
 6050POPC   C3B 9441  33.768  42.600   7.955
 6050POPC   C4B 9442  33.788  42.596   7.655
 6051POPC   NC3 9443   8.943  40.780   9.455
 6051POPC   PO4 9444   8.942  40.819   9.155
 6051POPC   GL1 9445   8.937  40.782   8.855
 6051POPC   GL2 9446   8.989  40.704   8.855
 6051POPC   C1A 9447   8.961  40.832   8.555
 6051POPC   D2A 9448   8.929  40.811   8.255
 6051POPC   C3A 9449   8.939  40.793   7.955
 6051POPC   C4A 9450   8.996  40.831   7.655
 6051POPC   C1B 9451   9.085  40.583   8.555
 6051POPC   C2B 9452   9.111  40.541   8.255
 6051POPC   C3B 9453   9.118  40.551   7.955
 6051POPC   C4B 9454   9.062  40.531   7.655
 6052POPC   NC3 9455   5.909  32.206   9.455
 6052POPC   PO4 9456   5.868  32.275   9.155
 6052POPC   GL1 9457   5.862  32.229   8.855
 6052POPC   GL2 9458   5.911  32.335   8.855
 6052POPC   C1A 9459   5.914  32.295   8.555
 6052POPC   D2A 9460   5.842  32.287   8.255
 6052POPC   C3A 9461   5.825  32.267   7.955
 6052POPC   C4A 9462   5.843  32.207   7.655
 6052POPC   C1B 9463   5.882  32.493   8.555
 6052POPC   C2B 9464   5.859  32.491   8.255
 6052POPC   C3B 9465   5.942  32.515   7.955
 6052POPC   C4B 9466   5.905  32.526   7.655
 6053POPC   NC3 9467   2.004  32.276   9.455
 6053POPC   PO4 9468   2.013  32.231   9.155
 6053POPC   GL1 9469   2.040  32.272   8.855
 6053POPC   GL2 9470   2.109  32.313   8.855
 6053POPC   C1A 9471   1.943  32.287   8.555
 6053POPC   D2A 9472   1.948  32.233   8.255
 6053POPC   C3A 9473   2.031  32.296   7.955
 6053POPC   C4A 9474   1.982  32.232   7.655
 6053POPC   C1B 9475   2.245  32.324   8.555
 6053POPC   C2B 9476   2.252  32.282   8.255
 6053POPC   C3B 9477   2.270  32.342   7.955
 6053POPC   C4B 9478   2.272  32.324   7.655
 6054POPC   NC3 9479   6.634   0.400   9.455
 6054POPC   PO4 9480   6.655   0.454   9.155
 6054POPC   GL1 9481   6.628   0.393   8.855
 6054POPC   GL2 9482   6.758   0.456   8.855
 6054POPC   C1A 9483   6.620   0.471   8.555
 6054POPC   D2A 9484   6.649   0.437   8.255
 6054POPC   C3A 9485   6.623   0.449   7.955
 6054POPC   C4A 9486   6.670   0.430   7.655
 6054POPC   C1B 9487   6.926   0.391   8.555
 6054POPC   C2B 9488   6.925   0.403   8.255
 6054POPC   C3B 9489   6.934   0.391   7.955
 6054POPC   C4B 9490   6.908   0.366   7.655
 6055POPC   NC3 9491  27.643  40.780   9.455
 6055POPC   PO4 9492  27.614  40.741   9.155
 6055POPC   GL1 9493  27.590  40.778   8.855
 6055POPC   GL2 9494  27.561  40.681   8.855
 6055POPC   C1A 9495  27.577  40.794   8.555
 6055POPC   D2A 9496  27.585  40.807   8.255
 6055POPC   C3A 9497  27.641  40.821   7.955
 6055POPC   C4A 9498  27.555  40.764   7.655
 6055POPC   C1B 9499  27.584  40.516   8.555
 6055POPC   C2B 9500  27.632  40.565   8.255
 6055POPC   C3B 9501  27.612  40.577   7.955
 6055POPC   C4B 9502  27.565  40.522   7.655
 6056POPC   NC3 9503  42.328  40.056   9.455
 6056POPC   PO4 9504  42.348  39.990   9.155
 6056POPC   GL1 9505  42.314  40.026   8.855
 6056POPC   GL2 9506  42.333  40.114   8.855
 6056POPC   C1A 9507  42.349  40.024   8.555
 6056POPC   D2A 9508  42.332  40.008   8.255
 6056POPC   C3A 9509  42.297  39.977   7.955
 6056POPC   C4A 9510  42.375  40.055   7.655
 6056POPC   C1B 9511  42.385  40.215   8.555
 6056POPC   C2B 9512  42.335  40.257   8.255
 6056POPC   C3B 9513  42.392  40.275   7.955
 6056POPC   C4B 9514  42.410  40.215   7.655
 6057POPC   NC3 9515  18.274  20.645   9.455
 6057POPC   PO4 9516  18.238  20.621   9.155
 6057POPC   GL1 9517  18.301  20.629   8.855
 6057POPC   GL2 9518  18.172  20.704   8.855
 6057POPC   C1A 9519  18.272  20.640   8.555
 6057POPC   D2A 9520  18.304  20.654   8.255
 6057POPC   C3A 9521  18.236  20.621   7.955
 6057POPC   C4A 9522  18.318  20.632   7.655
 6057POPC   C1B 9523  18.073  20.795   8.555
 6057POPC   C2B 9524  18.124  20.770   8.255
 6057POPC   C3B 9525  18.065  20.781   7.955
 6057POPC   C4B 9526  18.026  20.715   7.655
 6058POPC   NC3 9527  38.420  39.209   9.455
 6058POPC   PO4 9528  38.411  39.214   9.155
 6058POPC   GL1 9529  38.479  39.202   8.855
 6058POPC   GL2 9530  38.478  39.321   8.855
 6058POPC   C1A 9531  38.437  39.276   8.555
 6058POPC   D2A 9532  38.500  39.243   8.255
 6058POPC   C3A 9533  38.409  39.198   7.955
 6058POPC   C4A 9534  38.416  39.192   7.655
 6058POPC   C1B 9535  38.526  39.413   8.555
 6058POPC   C2B 9536  38.557  39.500   8.255
 6058POPC   C3B 9537  38.516  39.430   7.955
 6058POPC   C4B 9538  38.526  39.465   7.655
 6059POPC   NC3 9539  37.711  10.557   9.455
 6059POPC   PO4 9540  37.665  10.478   9.155
 6059POPC   GL1 9541  37.669  10.498   8.855
 6059POPC   GL2 9542  37.792  10.527   8.855
 6059POPC   C1A 9543  37.661  10.557   8.555
 6059POPC   D2A 9544  37.633  10.569   8.255
 6059POPC   C3A 9545  37.642  10.557   7.955
 6059POPC   C4A 9546  37.723  10.518   7.655
 6059POPC   C1B 9547  37.935  10.561   8.555
 6059POPC   C2B 9548  37.927  10.585   8.255
 6059POPC   C3B 9549  37.934  10.588   7.955
 6059POPC   C4B 9550  37.951  10.548   7.655
 6060POPC   NC3 9551  36.108   8.205   9.455
 6060POPC   PO4 9552  36.120   8.207   9.155
 6060POPC   GL1 9553  36.121   8.183   8.855
 6060POPC   GL2 9554  35.985   8.155   8.855
 6060POPC   C1A 9555  36.133   8.150   8.555
 6060POPC   D2A 9556  36.127   8.184   8.255
 6060POPC   C3A 9557  36.169   8.167   7.955
 6060POPC   C4A 9558  36.138   8.240   7.655
 6060POPC   C1B 9559  35.894   8.060   8.555
 6060POPC   C2B 9560  35.982   8.074   8.255
 6060POPC   C3B 9561  35.986   8.023   7.955
 6060POPC   C4B 9562  35.950   8.015   7.655
 6061POPC   NC3 9563  14.386   9.753   9.455
 6061POPC   PO4 9564  14.408   9.764   9.155
 6061POPC   GL1 9565  14.397   9.724   8.855
 6061POPC   GL2 9566  14.369   9.687   8.855
 6061POPC   C1A 9567  14.412   9.795   8.555
 6061POPC   D2A 9568  14.377   9.780   8.255
 6061POPC   C3A 9569  14.404   9.699   7.955
 6061POPC   C4A 9570  14.386   9.712   7.655
 6061POPC   C1B 9571  14.256   9.521   8.555
 6061POPC   C2B 9572  14.206   9.585   8.255
 6061POPC   C3B 9573  14.198   9.612   7.955
 6061POPC   C4B 9574  14.248   9.519   7.655
 6062POPC   NC3 9575  39.216  28.375   9.455
 6062POPC   PO4 9576  39.270  28.413   9.155
 6062POPC   GL1 9577  39.268  28.388   8.855
 6062POPC   GL2 9578  39.269  28.270   8.855
 6062POPC   C1A 9579  39.201  28.349   8.555
 6062POPC   D2A 9580  39.225  28.417   8.255
 6062POPC   C3A 9581  39.206  28.390   7.955
 6062POPC   C4A 9582  39.188  28.394   7.655
 6062POPC   C1B 9583  39.389  28.229   8.555
 6062POPC   C2B 9584  39.438  28.145   8.255
 6062POPC   C3B 9585  39.353  28.202   7.955
 6062POPC   C4B 9586  39.410  28.149   7.655
 6063POPC   NC3 9587   5.872  16.749   9.455
 6063POPC   PO4 9588   5.866  16.686   9.155
 6063POPC   GL1 9589   5.903  16.751   8.855
 6063POPC   GL2 9590   5.849  16.607   8.855
 6063POPC   C1A 9591   5.879  16.759   8.555
 6063POPC   D2A 9592   5.851  16.776   8.255
 6063POPC   C3A 9593   5.883  16.753   7.955
 6063POPC   C4A 9594   5.842  16.770   7.655
 6063POPC   C1B 9595   5.704  16.540   8.555
 6063POPC   C2B 9596   5.793  16.543   8.255
 6063POPC   C3B 9597   5.786  16.532   7.955
 6063POPC   C4B 9598   5.758  16.514   7.655
 6064POPC   NC3 9599  37.692  43.914   9.455
 6064POPC   PO4 9600  37.630  43.854   9.155
 6064POPC   GL1 9601  37.673  43.839   8.855
 6064POPC   GL2 9602  37.646  44.031   8.855
 6064POPC   C1A 9603  37.704  43.899   8.555
 6064POPC   D2A 9604  37.688  43.845   8.255
 6064POPC   C3A 9605  37.651  43.900   7.955
 6064POPC   C4A 9606  37.693  43.896   7.655
 6064POPC   C1B 9607  37.541  44.142   8.555
 6064POPC   C2B 9608  37.584  44.124   8.255
 6064POPC   C3B 9609  37.584  44.062   7.955
 6064POPC   C4B 9610  37.582  44.067   7.655
 6065POPC   NC3 9611   6.611  15.946   9.455
 6065POPC   PO4 9612   6.671  15.954   9.155
 6065POPC   GL1 9613   6.623  15.960   8.855
 6065POPC   GL2 9614   6.499  16.000   8.855
 6065POPC   C1A 9615   6.629  15.977   8.555
 6065POPC   D2A 9616   6.632  15.996   8.255
 6065POPC   C3A 9617   6.606  16.004   7.955
 6065POPC   C4A 9618   6.610  15.920   7.655
 6065POPC   C1B 9619   6.482  16.074   8.555
 6065POPC   C2B 9620   6.388  16.059   8.255
 6065POPC   C3B 9621   6.449  16.044   7.955
 6065POPC   C4B 9622   6.406  16.121   7.655
 6066POPC   NC3 9623  30.712  14.399   9.455
 6066POPC   PO4 9624  30.711  14.366   9.155
 6066POPC   GL1 9625  30.705  14.382   8.855
 6066POPC   GL2 9626  30.638  14.322   8.855
 6066POPC   C1A 9627  30.703  14.378   8.555
 6066POPC   D2A 9628  30.714  14.383   8.255
 6066POPC   C3A 9629  30.656  14.423   7.955
 6066POPC   C4A 9630  30.741  14.399   7.655
 6066POPC   C1B 9631  30.627  14.200   8.555
 6066POPC   C2B 9632  30.608  14.203   8.255
 6066POPC   C3B 9633  30.652  14.197   7.955
 6066POPC   C4B 9634  30.598  14.181   7.655
 6067POPC   NC3 9635   7.425  10.510   9.455
 6067POPC   PO4 9636   7.376  10.569   9.155
 6067POPC   GL1 9637   7.468  10.496   8.855
 6067POPC   GL2 9638   7.251  10.500   8.855
 6067POPC   C1A 9639   7.380  10.499   8.555
 6067POPC   D2A 9640   7.440  10.487   8.255
 6067POPC   C3A 9641   7.379  10.505   7.955
 6067POPC   C4A 9642   7.439  10.488   7.655
 6067POPC   C1B 9643   7.190  10.563   8.555
 6067POPC   C2B 9644   7.130  10.556   8.255
 6067POPC   C3B 9645   7.200  10.507   7.955
 6067POPC   C4B 9646   7.174  10.512   7.655
 6068POPC   NC3 9647  15.941  12.116   9.455
 6068POPC   PO4 9648  15.918  12.048   9.155
 6068POPC   GL1 9649  15.999  12.107   8.855
 6068POPC   GL2 9650  15.867  12.149   8.855
 6068POPC   C1A 9651  15.907  12.048   8.555
 6068POPC   D2A 9652  15.961  12.066   8.255
 6068POPC   C3A 9653  15.937  12.057   7.955
 6068POPC   C4A 9654  15.917  12.049   7.655
 6068POPC   C1B 9655  15.748  12.148   8.555
 6068POPC   C2B 9656  15.763  12.098   8.255
 6068POPC   C3B 9657  15.668  12.100   7.955
 6068POPC   C4B 9658  15.728  12.122   7.655
 6069POPC   NC3 9659  18.234   8.198   9.455
 6069POPC   PO4 9660  18.283   8.245   9.155
 6069POPC   GL1 9661  18.296   8.173   8.855
 6069POPC   GL2 9662  18.392   8.125   8.855
 6069POPC   C1A 9663  18.284   8.185   8.555
 6069POPC   D2A 9664  18.237   8.191   8.255
 6069POPC   C3A 9665  18.241   8.234   7.955
 6069POPC   C4A 9666  18.266   8.162   7.655
 6069POPC   C1B 9667  18.381   7.962   8.555
 6069POPC   C2B 9668  18.436   7.962   8.255
 6069POPC   C3B 9669  18.450   8.021   7.955
 6069POPC   C4B 9670  18.388   8.000   7.655
 6070POPC   NC3 9671  10.526  20.593   9.455
 6070POPC   PO4 9672  10.512  20.616   9.155
 6070POPC   GL1 9673  10.570  20.636   8.855
 6070POPC   GL2 9674  10.444  20.498   8.855
 6070POPC   C1A 9675  10.527  20.625   8.555
 6070POPC   D2A 9676  10.569  20.607   8.255
 6070POPC   C3A 9677  10.555  20.656   7.955
 6070POPC   C4A 9678  10.513  20.660   7.655
 6070POPC   C1B 9679  10.365  20.466   8.555
 6070POPC   C2B 9680  10.379  20.460   8.255
 6070POPC   C3B 9681  10.332  20.445   7.955
 6070POPC   C4B 9682  10.371  20.453   7.655
 6071POPC   NC3 9683  17.461   5.874   9.455
 6071POPC   PO4 9684  17.464   5.845   9.155
 6071POPC   GL1 9685  17.546   5.827   8.855
 6071POPC   GL2 9686  17.616   5.874   8.855
 6071POPC   C1A 9687  17.462   5.914   8.555
 6071POPC   D2A 9688  17.477   5.825   8.255
 6071POPC   C3A 9689  17.536   5.875   7.955
 6071POPC   C4A 9690  17.505   5.869   7.655
 6071POPC   C1B 9691  17.773   5.906   8.555
 6071POPC   C2B 9692  17.798   5.925   8.255
 6071POPC   C3B 9693  17.791   5.951   7.955
 6071POPC   C4B 9694  17.735   5.954   7.655
 6072POPC   NC3 9695   1.246  14.377   9.455
 6072POPC   PO4 9696   1.263  14.356   9.155
 6072POPC   GL1 9697   1.193  14.363   8.855
 6072POPC   GL2 9698   1.373  14.460   8.855
 6072POPC   C1A 9699   1.235  14.396   8.555
 6072POPC   D2A 9700   1.236  14.365   8.255
 6072POPC   C3A 9701   1.209  14.356   7.955
 6072POPC   C4A 9702   1.263  14.384   7.655
 6072POPC   C1B 9703   1.452  14.455   8.555
 6072POPC   C2B 9704   1.456  14.443   8.255
 6072POPC   C3B 9705   1.465  14.454   7.955
 6072POPC   C4B 9706   1.422  14.396   7.655
 6073POPC   NC3 9707  39.977  30.732   9.455
 6073POPC   PO4 9708  40.049  30.717   9.155
 6073POPC   GL1 9709  40.016  30.679   8.855
 6073POPC   GL2 9710  40.093  30.593   8.855
 6073POPC   C1A 9711  40.000  30.651   8.555
 6073POPC   D2A 9712  40.028  30.668   8.255
 6073POPC   C3A 9713  40.014  30.706   7.955
 6073POPC   C4A 9714  40.044  30.732   7.655
 6073POPC   C1B 9715  40.167  30.444   8.555
 6073POPC   C2B 9716  40.094  30.479   8.255
 6073POPC   C3B 9717  40.077  30.513   7.955
 6073POPC   C4B 9718  40.117  30.429   7.655
 6074POPC   NC3 9719  36.938  12.058   9.455
 6074POPC   PO4 9720  36.937  12.060   9.155
 6074POPC   GL1 9721  36.927  12.101   8.855
 6074POPC   GL2 9722  36.934  11.980   8.855
 6074POPC   C1A 9723  36.909  12.101   8.555
 6074POPC   D2A 9724  36.910  12.043   8.255
 6074POPC   C3A 9725  36.950  12.046   7.955
 6074POPC   C4A 9726  36.857  12.043   7.655
 6074POPC   C1B 9727  36.987  11.815   8.555
 6074POPC   C2B 9728  36.994  11.895   8.255
 6074POPC   C3B 9729  37.022  11.864   7.955
 6074POPC   C4B 9730  36.998  11.812   7.655
 6075POPC   NC3 9731  16.759  19.060   9.455
 6075POPC   PO4 9732  16.767  19.072   9.155
 6075POPC   GL1 9733  16.705  19.049   8.855
 6075POPC   GL2 9734  16.681  18.950   8.855
 6075POPC   C1A 9735  16.736  19.049   8.555
 6075POPC   D2A 9736  16.712  19.079   8.255
 6075POPC   C3A 9737  16.710  19.094   7.955
 6075POPC   C4A 9738  16.769  19.025   7.655
 6075POPC   C1B 9739  16.608  18.857   8.555
 6075POPC   C2B 9740  16.536  18.904   8.255
 6075POPC   C3B 9741  16.619  18.858   7.955
 6075POPC   C4B 9742  16.592  18.876   7.655
 6076POPC   NC3 9743  25.287   7.388   9.455
 6076POPC   PO4 9744  25.309   7.410   9.155
 6076POPC   GL1 9745  25.250   7.448   8.855
 6076POPC   GL2 9746  25.305   7.308   8.855
 6076POPC   C1A 9747  25.233   7.390   8.555
 6076POPC   D2A 9748  25.234   7.375   8.255
 6076POPC   C3A 9749  25.227   7.433   7.955
 6076POPC   C4A 9750  25.255   7.445   7.655
 6076POPC   C1B 9751  25.441   7.263   8.555
 6076POPC   C2B 9752  25.436   7.185   8.255
 6076POPC   C3B 9753  25.397   7.238   7.955
 6076POPC   C4B 9754  25.444   7.250   7.655
 6077POPC   NC3 9755  17.488  22.925   9.455
 6077POPC   PO4 9756  17.509  22.900   9.155
 6077POPC   GL1 9757  17.528  22.975   8.855
 6077POPC   GL2 9758  17.428  23.056   8.855
 6077POPC   C1A 9759  17.525  22.986   8.555
 6077POPC   D2A 9760  17.549  22.957   8.255
 6077POPC   C3A 9761  17.520  22.891   7.955
 6077POPC   C4A 9762  17.526  22.974   7.655
 6077POPC   C1B 9763  17.334  23.123   8.555
 6077POPC   C2B 9764  17.301  23.102   8.255
 6077POPC   C3B 9765  17.347  23.133   7.955
 6077POPC   C4B 9766  17.301  23.057   7.655
 6078POPC   NC3 9767  12.030  32.986   9.455
 6078POPC   PO4 9768  12.029  33.047   9.155
 6078POPC   GL1 9769  12.078  33.019   8.855
 6078POPC   GL2 9770  12.148  33.146   8.855
 6078POPC   C1A 9771  12.122  33.045   8.555
 6078POPC   D2A 9772  12.091  33.016   8.255
 6078POPC   C3A 9773  12.053  33.005   7.955
 6078POPC   C4A 9774  12.083  33.003   7.655
 6078POPC   C1B 9775  12.256  33.245   8.555
 6078POPC   C2B 9776  12.194  33.208   8.255
 6078POPC   C3B 9777  12.249  33.215   7.955
 6078POPC   C4B 9778  12.178  33.227   7.655
 6079POPC   NC3 9779  38.406  12.092   9.455
 6079POPC   PO4 9780  38.452  12.084   9.155
 6079POPC   GL1 9781  38.498  12.122   8.855
 6079POPC   GL2 9782  38.531  11.997   8.855
 6079POPC   C1A 9783  38.487  12.069   8.555
 6079POPC   D2A 9784  38.457  12.125   8.255
 6079POPC   C3A 9785  38.415  12.033   7.955
 6079POPC   C4A 9786  38.465  12.047   7.655
 6079POPC   C1B 9787  38.620  11.844   8.555
 6079POPC   C2B 9788  38.627  11.877   8.255
 6079POPC   C3B 9789  38.616  11.857   7.955
 6079POPC   C4B 9790  38.559  11.836   7.655
 6080POPC   NC3 9791  22.181  26.810   9.455
 6080POPC   PO4 9792  22.119  26.802   9.155
 6080POPC   GL1 9793  22.208  26.793   8.855
 6080POPC   GL2 9794  22.104  26.653   8.855
 6080POPC   C1A 9795  22.187  26.816   8.555
 6080POPC   D2A 9796  22.162  26.862   8.255
 6080POPC   C3A 9797  22.182  26.849   7.955
 6080POPC   C4A 9798  22.120  26.777   7.655
 6080POPC   C1B 9799  22.113  26.528   8.555
 6080POPC   C2B 9800  22.097  26.527   8.255
 6080POPC   C3B 9801  22.117  26.554   7.955
 6080POPC   C4B 9802  22.119  26.576   7.655
 6081POPC   NC3 9803  20.648  11.336   9.455
 6081POPC   PO4 9804  20.615  11.275   9.155
 6081POPC   GL1 9805  20.611  11.315   8.855
 6081POPC   GL2 9806  20.692  11.305   8.855
 6081POPC   C1A 9807  20.565  11.300   8.555
 6081POPC   D2A 9808  20.604  11.315   8.255
 6081POPC   C3A 9809  20.587  11.303   7.955
 6081POPC   C4A 9810  20.573  11.289   7.655
 6081POPC   C1B 9811  20.882  11.334   8.555
 6081POPC   C2B 9812  20.868  11.342   8.255
 6081POPC   C3B 9813  20.866  11.346   7.955
 6081POPC   C4B 9814  20.843  11.374   7.655
 6082POPC   NC3 9815  15.907  42.311   9.455
 6082POPC   PO4 9816  15.978  42.290   9.155
 6082POPC   GL1 9817  15.985  42.289   8.855
 6082POPC   GL2 9818  15.818  42.271   8.855
 6082POPC   C1A 9819  15.967  42.374   8.555
 6082POPC   D2A 9820  15.913  42.373   8.255
 6082POPC   C3A 9821  15.978  42.352   7.955
 6082POPC   C4A 9822  15.914  42.303   7.655
 6082POPC   C1B 9823  15.674  42.251   8.555
 6082POPC   C2B 9824  15.669  42.320   8.255
 6082POPC   C3B 9825  15.726  42.300   7.955
 6082POPC   C4B 9826  15.748  42.297   7.655
 6083POPC   NC3 9827  36.867  29.156   9.455
 6083POPC   PO4 9828  36.948  29.106   9.155
 6083POPC   GL1 9829  36.896  29.131   8.855
 6083POPC   GL2 9830  37.006  29.163   8.855
 6083POPC   C1A 9831  36.927  29.108   8.555
 6083POPC   D2A 9832  36.892  29.133   8.255
 6083POPC   C3A 9833  36.862  29.161   7.955
 6083POPC   C4A 9834  36.884  29.154   7.655
 6083POPC   C1B 9835  37.145  29.107   8.555
 6083POPC   C2B 9836  37.173  29.140   8.255
 6083POPC   C3B 9837  37.111  29.139   7.955
 6083POPC   C4B 9838  37.152  29.138   7.655
 6084POPC   NC3 9839  37.676   5.826   9.455
 6084POPC   PO4 9840  37.682   5.860   9.155
 6084POPC   GL1 9841  37.691   5.868   8.855
 6084POPC   GL2 9842  37.775   5.761   8.855
 6084POPC   C1A 9843  37.702   5.887   8.555
 6084POPC   D2A 9844  37.646   5.851   8.255
 6084POPC   C3A 9845  37.644   5.914   7.955
 6084POPC   C4A 9846  37.691   5.879   7.655
 6084POPC   C1B 9847  37.740   5.614   8.555
 6084POPC   C2B 9848  37.737   5.638   8.255
 6084POPC   C3B 9849  37.776   5.653   7.955
 6084POPC   C4B 9850  37.797   5.655   7.655
 6085POPC   NC3 9851  10.532  22.200   9.455
 6085POPC   PO4 9852  10.540  22.196   9.155
 6085POPC   GL1 9853  10.567  22.171   8.855
 6085POPC   GL2 9854  10.427  22.248   8.855
 6085POPC   C1A 9855  10.496  22.114   8.555
 6085POPC   D2A 9856  10.487  22.125   8.255
 6085POPC   C3A 9857  10.540  22.199   7.955
 6085POPC   C4A 9858  10.524  22.113   7.655
 6085POPC   C1B 9859  10.429  22.338   8.555
 6085POPC   C2B 9860  10.397  22.347   8.255
 6085POPC   C3B 9861  10.418  22.385   7.955
 6085POPC   C4B 9862  10.441  22.366   7.655
 6086POPC   NC3 9863  13.646   5.120   9.455
 6086POPC   PO4 9864  13.642   5.095   9.155
 6086POPC   GL1 9865  13.650   5.118   8.855
 6086POPC   GL2 9866  13.725   4.981   8.855
 6086POPC   C1A 9867  13.580   5.099   8.555
 6086POPC   D2A 9868  13.654   5.049   8.255
 6086POPC   C3A 9869  13.660   5.119   7.955
 6086POPC   C4A 9870  13.675   5.099   7.655
 6086POPC   C1B 9871  13.795   4.856   8.555
 6086POPC   C2B 9872  13.777   4.899   8.255
 6086POPC   C3B 9873  13.786   4.847   7.955
 6086POPC   C4B 9874  13.811   4.936   7.655
 6087POPC   NC3 9875  39.250  34.616   9.455
 6087POPC   PO4 9876  39.229  34.580   9.155
 6087POPC   GL1 9877  39.228  34.564   8.855
 6087POPC   GL2 9878  39.250  34.406   8.855
 6087POPC   C1A 9879  39.224  34.590   8.555
 6087POPC   D2A 9880  39.274  34.563   8.255
 6087POPC   C3A 9881  39.187  34.598   7.955
 6087POPC   C4A 9882  39.272  34.551   7.655
 6087POPC   C1B 9883  39.141  34.341   8.555
 6087POPC   C2B 9884  39.188  34.339   8.255
 6087POPC   C3B 9885  39.209  34.323   7.955
 6087POPC   C4B 9886  39.134  34.343   7.655
 6088POPC   NC3 9887  38.427  33.069   9.455
 6088POPC   PO4 9888  38.474  33.029   9.155
 6088POPC   GL1 9889  38.407  33.046   8.855
 6088POPC   GL2 9890  38.474  33.153   8.855
 6088POPC   C1A 9891  38.433  33.036   8.555
 6088POPC   D2A 9892  38.454  32.989   8.255
 6088POPC   C3A 9893  38.467  33.054   7.955
 6088POPC   C4A 9894  38.429  33.066   7.655
 6088POPC   C1B 9895  38.565  33.228   8.555
 6088POPC   C2B 9896  38.597  33.285   8.255
 6088POPC   C3B 9897  38.583  33.274   7.955
 6088POPC   C4B 9898  38.601  33.272   7.655
 6089POPC   NC3 9899  11.261  36.160   9.455
 6089POPC   PO4 9900  11.331  36.107   9.155
 6089POPC   GL1 9901  11.318  36.082   8.855
 6089POPC   GL2 9902  11.190  36.119   8.855
 6089POPC   C1A 9903  11.274  36.097   8.555
 6089POPC   D2A 9904  11.315  36.148   8.255
 6089POPC   C3A 9905  11.335  36.126   7.955
 6089POPC   C4A 9906  11.311  36.104   7.655
 6089POPC   C1B 9907  11.093  36.192   8.555
 6089POPC   C2B 9908  11.058  36.173   8.255
 6089POPC   C3B 9909  11.077  36.240   7.955
 6089POPC   C4B 9910  11.016  36.179   7.655
 6090POPC   NC3 9911   3.523  42.323   9.455
 6090POPC   PO4 9912   3.580  42.376   9.155
 6090POPC   GL1 9913   3.524  42.321   8.855
 6090POPC   GL2 9914   3.565  42.175   8.855
 6090POPC   C1A 9915   3.568  42.373   8.555
 6090POPC   D2A 9916   3.497  42.321   8.255
 6090POPC   C3A 9917   3.587  42.331   7.955
 6090POPC   C4A 9918   3.501  42.350   7.655
 6090POPC   C1B 9919   3.471  42.079   8.555
 6090POPC   C2B 9920   3.518  42.104   8.255
 6090POPC   C3B 9921   3.518  42.081   7.955
 6090POPC   C4B 9922   3.477  42.136   7.655
 6091POPC   NC3 9923  27.606  35.311   9.455
 6091POPC   PO4 9924  27.627  35.314   9.155
 6091POPC   GL1 9925  27.623  35.306   8.855
 6091POPC   GL2 9926  27.762  35.378   8.855
 6091POPC   C1A 9927  27.570  35.332   8.555
 6091POPC   D2A 9928  27.619  35.354   8.255
 6091POPC   C3A 9929  27.575  35.363   7.955
 6091POPC   C4A 9930  27.549  35.367   7.655
 6091POPC   C1B 9931  27.819  35.378   8.555
 6091POPC   C2B 9932  27.888  35.328   8.255
 6091POPC   C3B 9933  27.852  35.372   7.955
 6091POPC   C4B 9934  27.825  35.406   7.655
 6092POPC   NC3 9935   8.940  35.374   9.455
 6092POPC   PO4 9936   8.960  35.320   9.155
 6092POPC   GL1 9937   8.994  35.387   8.855
 6092POPC   GL2 9938   9.075  35.309   8.855
 6092POPC   C1A 9939   9.010  35.364   8.555
 6092POPC   D2A 9940   8.987  35.394   8.255
 6092POPC   C3A 9941   8.923  35.350   7.955
 6092POPC   C4A 9942   8.954  35.368   7.655
 6092POPC   C1B 9943   9.235  35.283   8.555
 6092POPC   C2B 9944   9.246  35.313   8.255
 6092POPC   C3B 9945   9.232  35.243   7.955
 6092POPC   C4B 9946   9.170  35.249   7.655
 6093POPC   NC3 9947   8.181  16.002   9.455
 6093POPC   PO4 9948   8.201  15.912   9.155
 6093POPC   GL1 9949   8.222  15.928   8.855
 6093POPC   GL2 9950   8.327  15.936   8.855
 6093POPC   C1A 9951   8.187  15.907   8.555
 6093POPC   D2A 9952   8.238  15.929   8.255
 6093POPC   C3A 9953   8.158  15.931   7.955
 6093POPC   C4A 9954   8.184  15.980   7.655
 6093POPC   C1B 9955   8.390  15.860   8.555
 6093POPC   C2B 9956   8.383  15.827   8.255
 6093POPC   C3B 9957   8.407  15.853   7.955
 6093POPC   C4B 9958   8.454  15.809   7.655
 6094POPC   NC3 9959  40.038   1.208   9.455
 6094POPC   PO4 9960  39.991   1.188   9.155
 6094POPC   GL1 9961  39.989   1.220   8.855
 6094POPC   GL2 9962  40.077   1.082   8.855
 6094POPC   C1A 9963  39.976   1.242   8.555
 6094POPC   D2A 9964  40.018   1.196   8.255
 6094POPC   C3A 9965  39.998   1.171   7.955
 6094POPC   C4A 9966  40.019   1.206   7.655
 6094POPC   C1B 9967  40.101   0.975   8.555
 6094POPC   C2B 9968  40.116   0.977   8.255
 6094POPC   C3B 9969  40.089   0.962   7.955
 6094POPC   C4B 9970  40.108   0.982   7.655
 6095POPC   NC3 9971  24.536  36.888   9.455
 6095POPC   PO4 9972  24.539  36.885   9.155
 6095POPC   GL1 9973  24.512  36.923   8.855
 6095POPC   GL2 9974  24.484  36.987   8.855
 6095POPC   C1A 9975  24.488  36.906   8.555
 6095POPC   D2A 9976  24.476  36.865   8.255
 6095POPC   C3A 9977  24.486  36.858   7.955
 6095POPC   C4A 9978  24.475  36.867   7.655
 6095POPC   C1B 9979  24.530  37.154   8.555
 6095POPC   C2B 9980  24.518  37.098   8.255
 6095POPC   C3B 9981  24.548  37.105   7.955
 6095POPC   C4B 9982  24.523  37.163   7.655
 6096POPC   NC3 9983  10.523  23.754   9.455
 6096POPC   PO4 9984  10.509  23.706   9.155
 6096POPC   GL1 9985  10.513  23.735   8.855
 6096POPC   GL2 9986  10.486  23.611   8.855
 6096POPC   C1A 9987  10.519  23.721   8.555
 6096POPC   D2A 9988  10.480  23.744   8.255
 6096POPC   C3A 9989  10.544  23.741   7.955
 6096POPC   C4A 9990  10.532  23.729   7.655
 6096POPC   C1B 9991  10.394  23.578   8.555
 6096POPC   C2B 9992  10.357  23.536   8.255
 6096POPC   C3B 9993  10.401  23.570   7.955
 6096POPC   C4B 9994  10.328  23.504   7.655
 6097POPC   NC3 9995  11.338  17.540   9.455
 6097POPC   PO4 9996  11.330  17.547   9.155
 6097POPC   GL1 9997  11.286  17.464   8.855
 6097POPC   GL2 9998  11.274  17.399   8.855
 6097POPC   C1A 9999  11.327  17.513   8.555
 6097POPC   D2A10000  11.287  17.528   8.255
 6097POPC   C3A10001  11.309  17.484   7.955
 6097POPC   C4A10002  11.328  17.509   7.655
 6097POPC   C1B10003  11.260  17.248   8.555
 6097POPC   C2B10004  11.295  17.260   8.255
 6097POPC   C3B10005  11.234  17.298   7.955
 6097POPC   C4B10006  11.225  17.302   7.655
 6098POPC   NC310007   0.398   2.745   9.455
 6098POPC   PO410008   0.463   2.756   9.155
 6098POPC   GL110009   0.438   2.747   8.855
 6098POPC   GL210010   0.546   2.819   8.855
 6098POPC   C1A10011   0.438   2.783   8.555
 6098POPC   D2A10012   0.474   2.776   8.255
 6098POPC   C3A10013   0.488   2.721   7.955
 6098POPC   C4A10014   0.474   2.774   7.655
 6098POPC   C1B10015   0.653   2.908   8.555
 6098POPC   C2B10016   0.607   2.895   8.255
 6098POPC   C3B10017   0.629   2.921   7.955
 6098POPC   C4B10018   0.684   2.942   7.655
 6099POPC   NC310019   5.095  24.451   9.455
 6099POPC   PO410020   5.104  24.525   9.155
 6099POPC   GL110021   5.137  24.465   8.855
 6099POPC   GL210022   5.163  24.334   8.855
 6099POPC   C1A10023   5.090  24.536   8.555
 6099POPC   D2A10024   5.088  24.494   8.255
 6099POPC   C3A10025   5.063  24.468   7.955
 6099POPC   C4A10026   5.115  24.504   7.655
 6099POPC   C1B10027   5.194  24.281   8.555
 6099POPC   C2B10028   5.143  24.258   8.255
 6099POPC   C3B10029   5.196  24.248   7.955
 6099POPC   C4B10030   5.230  24.236   7.655
 6100POPC   NC310031  41.584  15.163   9.455
 6100POPC   PO410032  41.513  15.220   9.155
 6100POPC   GL110033  41.554  15.209   8.855
 6100POPC   GL210034  41.584  15.023   8.855
 6100POPC   C1A10035  41.588  15.171   8.555
 6100POPC   D2A10036  41.520  15.212   8.255
 6100POPC   C3A10037  41.551  15.205   7.955
 6100POPC   C4A10038  41.565  15.221   7.655
 6100POPC   C1B10039  41.681  14.986   8.555
 6100POPC   C2B10040  41.708  14.967   8.255
 6100POPC   C3B10041  41.677  14.971   7.955
 6100POPC   C4B10042  41.705  14.984   7.655
 6101POPC   NC310043   9.787  19.083   9.455
 6101POPC   PO410044   9.777  19.025   9.155
 6101POPC   GL110045   9.703  19.103   8.855
 6101POPC   GL210046   9.701  18.955   8.855
 6101POPC   C1A10047   9.739  19.052   8.555
 6101POPC   D2A10048   9.742  19.098   8.255
 6101POPC   C3A10049   9.777  19.084   7.955
 6101POPC   C4A10050   9.766  19.059   7.655
 6101POPC   C1B10051   9.567  18.902   8.555
 6101POPC   C2B10052   9.621  18.880   8.255
 6101POPC   C3B10053   9.539  18.834   7.955
 6101POPC   C4B10054   9.608  18.821   7.655
 6102POPC   NC310055  22.188  40.756   9.455
 6102POPC   PO410056  22.134  40.808   9.155
 6102POPC   GL110057  22.180  40.734   8.855
 6102POPC   GL210058  22.311  40.822   8.855
 6102POPC   C1A10059  22.160  40.745   8.555
 6102POPC   D2A10060  22.169  40.788   8.255
 6102POPC   C3A10061  22.164  40.754   7.955
 6102POPC   C4A10062  22.119  40.748   7.655
 6102POPC   C1B10063  22.449  40.774   8.555
 6102POPC   C2B10064  22.459  40.829   8.255
 6102POPC   C3B10065  22.450  40.754   7.955
 6102POPC   C4B10066  22.423  40.769   7.655
 6103POPC   NC310067   1.203   2.808   9.455
 6103POPC   PO410068   1.174   2.760   9.155
 6103POPC   GL110069   1.215   2.783   8.855
 6103POPC   GL210070   1.228   2.910   8.855
 6103POPC   C1A10071   1.255   2.716   8.555
 6103POPC   D2A10072   1.256   2.744   8.255
 6103POPC   C3A10073   1.252   2.758   7.955
 6103POPC   C4A10074   1.177   2.750   7.655
 6103POPC   C1B10075   1.252   3.060   8.555
 6103POPC   C2B10076   1.226   2.972   8.255
 6103POPC   C3B10077   1.169   2.973   7.955
 6103POPC   C4B10078   1.244   3.064   7.655
 6104POPC   NC310079   2.793  43.852   9.455
 6104POPC   PO410080   2.797  43.854   9.155
 6104POPC   GL110081   2.814  43.869   8.855
 6104POPC   GL210082   2.794  43.992   8.855
 6104POPC   C1A10083   2.779  43.887   8.555
 6104POPC   D2A10084   2.759  43.879   8.255
 6104POPC   C3A10085   2.770  43.932   7.955
 6104POPC   C4A10086   2.745  43.920   7.655
 6104POPC   C1B10087   2.748  44.115   8.555
 6104POPC   C2B10088   2.733  44.117   8.255
 6104POPC   C3B10089   2.739  44.177   7.955
 6104POPC   C4B10090   2.696  44.176   7.655
 6105POPC   NC310091  36.876  19.798   9.455
 6105POPC   PO410092  36.943  19.817   9.155
 6105POPC   GL110093  36.934  19.801   8.855
 6105POPC   GL210094  37.016  19.780   8.855
 6105POPC   C1A10095  36.902  19.871   8.555
 6105POPC   D2A10096  36.874  19.854   8.255
 6105POPC   C3A10097  36.892  19.828   7.955
 6105POPC   C4A10098  36.894  19.869   7.655
 6105POPC   C1B10099  37.189  19.808   8.555
 6105POPC   C2B10100  37.167  19.782   8.255
 6105POPC   C3B10101  37.152  19.808   7.955
 6105POPC   C4B10102  37.113  19.725   7.655
 6106POPC   NC310103  26.800   5.892   9.455
 6106POPC   PO410104  26.804   5.908   9.155
 6106POPC   GL110105  26.836   5.889   8.855
 6106POPC   GL210106  26.737   5.986   8.855
 6106POPC   C1A10107  26.804   5.905   8.555
 6106POPC   D2A10108  26.836   5.880   8.255
 6106POPC   C3A10109  26.851   5.877   7.955
 6106POPC   C4A10110  26.788   5.886   7.655
 6106POPC   C1B10111  26.694   6.077   8.555
 6106POPC   C2B10112  26.654   6.087   8.255
 6106POPC   C3B10113  26.655   6.107   7.955
 6106POPC   C4B10114  26.645   6.076   7.655
 6107POPC   NC310115   5.860   9.786   9.455
 6107POPC   PO410116   5.876   9.779   9.155
 6107POPC   GL110117   5.872   9.733   8.855
 6107POPC   GL210118   5.926   9.646   8.855
 6107POPC   C1A10119   5.825   9.792   8.555
 6107POPC   D2A10120   5.834   9.738   8.255
 6107POPC   C3A10121   5.825   9.782   7.955
 6107POPC   C4A10122   5.823   9.725   7.655
 6107POPC   C1B10123   6.079   9.594   8.555
 6107POPC   C2B10124   6.086   9.630   8.255
 6107POPC   C3B10125   6.106   9.610   7.955
 6107POPC   C4B10126   6.081   9.612   7.655
 6108POPC   NC310127  36.157  19.039   9.455
 6108POPC   PO410128  36.105  19.040   9.155
 6108POPC   GL110129  36.102  19.063   8.855
 6108POPC   GL210130  36.003  19.105   8.855
 6108POPC   C1A10131  36.121  19.090   8.555
 6108POPC   D2A10132  36.098  19.017   8.255
 6108POPC   C3A10133  36.105  19.071   7.955
 6108POPC   C4A10134  36.169  19.070   7.655
 6108POPC   C1B10135  35.911  19.145   8.555
 6108POPC   C2B10136  35.910  19.112   8.255
 6108POPC   C3B10137  35.939  19.122   7.955
 6108POPC   C4B10138  35.906  19.207   7.655
 6109POPC   NC310139  32.199  21.415   9.455
 6109POPC   PO410140  32.260  21.356   9.155
 6109POPC   GL110141  32.242  21.365   8.855
 6109POPC   GL210142  32.115  21.476   8.855
 6109POPC   C1A10143  32.243  21.405   8.555
 6109POPC   D2A10144  32.261  21.406   8.255
 6109POPC   C3A10145  32.282  21.401   7.955
 6109POPC   C4A10146  32.202  21.382   7.655
 6109POPC   C1B10147  32.037  21.536   8.555
 6109POPC   C2B10148  32.007  21.485   8.255
 6109POPC   C3B10149  32.037  21.459   7.955
 6109POPC   C4B10150  32.070  21.465   7.655
 6110POPC   NC310151  16.746   1.181   9.455
 6110POPC   PO410152  16.722   1.218   9.155
 6110POPC   GL110153  16.777   1.223   8.855
 6110POPC   GL210154  16.655   1.088   8.855
 6110POPC   C1A10155  16.741   1.208   8.555
 6110POPC   D2A10156  16.691   1.263   8.255
 6110POPC   C3A10157  16.684   1.230   7.955
 6110POPC   C4A10158  16.715   1.182   7.655
 6110POPC   C1B10159  16.603   0.999   8.555
 6110POPC   C2B10160  16.549   0.977   8.255
 6110POPC   C3B10161  16.554   1.037   7.955
 6110POPC   C4B10162  16.608   1.054   7.655
 6111POPC   NC310163  17.551  29.174   9.455
 6111POPC   PO410164  17.514  29.175   9.155
 6111POPC   GL110165  17.503  29.126   8.855
 6111POPC   GL210166  17.557  29.028   8.855
 6111POPC   C1A10167  17.526  29.142   8.555
 6111POPC   D2A10168  17.479  29.187   8.255
 6111POPC   C3A10169  17.519  29.152   7.955
 6111POPC   C4A10170  17.484  29.125   7.655
 6111POPC   C1B10171  17.640  28.945   8.555
 6111POPC   C2B10172  17.601  28.885   8.255
 6111POPC   C3B10173  17.607  28.978   7.955
 6111POPC   C4B10174  17.657  28.933   7.655
 6112POPC   NC310175  28.364  36.147   9.455
 6112POPC   PO410176  28.393  36.167   9.155
 6112POPC   GL110177  28.398  36.120   8.855
 6112POPC   GL210178  28.514  36.200   8.855
 6112POPC   C1A10179  28.419  36.144   8.555
 6112POPC   D2A10180  28.331  36.137   8.255
 6112POPC   C3A10181  28.413  36.086   7.955
 6112POPC   C4A10182  28.322  36.142   7.655
 6112POPC   C1B10183  28.581  36.246   8.555
 6112POPC   C2B10184  28.609  36.248   8.255
 6112POPC   C3B10185  28.587  36.301   7.955
 6112POPC   C4B10186  28.540  36.240   7.655
 6113POPC   NC310187  29.899  19.822   9.455
 6113POPC   PO410188  29.873  19.800   9.155
 6113POPC   GL110189  29.906  19.812   8.855
 6113POPC   GL210190  29.899  19.742   8.855
 6113POPC   C1A10191  29.920  19.874   8.555
 6113POPC   D2A10192  29.879  19.793   8.255
 6113POPC   C3A10193  29.936  19.866   7.955
 6113POPC   C4A10194  29.946  19.788   7.655
 6113POPC   C1B10195  29.836  19.546   8.555
 6113POPC   C2B10196  29.818  19.630   8.255
 6113POPC   C3B10197  29.827  19.549   7.955
 6113POPC   C4B10198  29.854  19.584   7.655
 6114POPC   NC310199  19.825  37.728   9.455
 6114POPC   PO410200  19.810  37.695   9.155
 6114POPC   GL110201  19.791  37.702   8.855
 6114POPC   GL210202  19.870  37.852   8.855
 6114POPC   C1A10203  19.818  37.723   8.555
 6114POPC   D2A10204  19.811  37.672   8.255
 6114POPC   C3A10205  19.824  37.727   7.955
 6114POPC   C4A10206  19.826  37.655   7.655
 6114POPC   C1B10207  19.805  37.896   8.555
 6114POPC   C2B10208  19.835  37.901   8.255
 6114POPC   C3B10209  19.820  37.955   7.955
 6114POPC   C4B10210  19.851  37.911   7.655
 6115POPC   NC310211  14.445  43.124   9.455
 6115POPC   PO410212  14.431  43.097   9.155
 6115POPC   GL110213  14.401  43.090   8.855
 6115POPC   GL210214  14.345  43.228   8.855
 6115POPC   C1A10215  14.376  43.144   8.555
 6115POPC   D2A10216  14.375  43.141   8.255
 6115POPC   C3A10217  14.376  43.128   7.955
 6115POPC   C4A10218  14.390  43.151   7.655
 6115POPC   C1B10219  14.221  43.333   8.555
 6115POPC   C2B10220  14.202  43.265   8.255
 6115POPC   C3B10221  14.259  43.289   7.955
 6115POPC   C4B10222  14.283  43.309   7.655
 6116POPC   NC310223  15.158  26.024   9.455
 6116POPC   PO410224  15.143  26.060   9.155
 6116POPC   GL110225  15.158  26.008   8.855
 6116POPC   GL210226  15.127  26.171   8.855
 6116POPC   C1A10227  15.178  26.056   8.555
 6116POPC   D2A10228  15.221  26.090   8.255
 6116POPC   C3A10229  15.170  26.053   7.955
 6116POPC   C4A10230  15.151  26.056   7.655
 6116POPC   C1B10231  14.997  26.192   8.555
 6116POPC   C2B10232  15.039  26.219   8.255
 6116POPC   C3B10233  15.046  26.254   7.955
 6116POPC   C4B10234  14.963  26.255   7.655
 6117POPC   NC310235  33.809  15.144   9.455
 6117POPC   PO410236  33.850  15.204   9.155
 6117POPC   GL110237  33.790  15.179   8.855
 6117POPC   GL210238  33.921  15.263   8.855
 6117POPC   C1A10239  33.827  15.187   8.555
 6117POPC   D2A10240  33.848  15.224   8.255
 6117POPC   C3A10241  33.774  15.211   7.955
 6117POPC   C4A10242  33.758  15.223   7.655
 6117POPC   C1B10243  33.997  15.288   8.555
 6117POPC   C2B10244  34.000  15.311   8.255
 6117POPC   C3B10245  33.992  15.297   7.955
 6117POPC   C4B10246  34.053  15.242   7.655
 6118POPC   NC310247   9.702  29.157   9.455
 6118POPC   PO410248   9.728  29.166   9.155
 6118POPC   GL110249   9.786  29.137   8.855
 6118POPC   GL210250   9.881  29.200   8.855
 6118POPC   C1A10251   9.774  29.180   8.555
 6118POPC   D2A10252   9.735  29.135   8.255
 6118POPC   C3A10253   9.776  29.109   7.955
 6118POPC   C4A10254   9.773  29.156   7.655
 6118POPC   C1B10255  10.027  29.196   8.555
 6118POPC   C2B10256   9.953  29.148   8.255
 6118POPC   C3B10257  10.006  29.157   7.955
 6118POPC   C4B10258  10.041  29.187   7.655
 6119POPC   NC310259  44.699  41.569   9.455
 6119POPC   PO410260  44.660  41.558   9.155
 6119POPC   GL110261  44.636  41.519   8.855
 6119POPC   GL210262  44.707  41.676   8.855
 6119POPC   C1A10263  44.687  41.531   8.555
 6119POPC   D2A10264  44.674  41.566   8.255
 6119POPC   C3A10265  44.703  41.570   7.955
 6119POPC   C4A10266  44.685  41.527   7.655
 6119POPC   C1B10267  44.814  41.764   8.555
 6119POPC   C2B10268  44.798  41.724   8.255
 6119POPC   C3B10269  44.819  41.776   7.955
 6119POPC   C4B10270  44.852  41.710   7.655
 6120POPC   NC310271   5.874  14.413   9.455
 6120POPC   PO410272   5.910  14.358   9.155
 6120POPC   GL110273   5.911  14.445   8.855
 6120POPC   GL210274   5.860  14.498   8.855
 6120POPC   C1A10275   5.820  14.395   8.555
 6120POPC   D2A10276   5.899  14.426   8.255
 6120POPC   C3A10277   5.919  14.425   7.955
 6120POPC   C4A10278   5.892  14.405   7.655
 6120POPC   C1B10279   5.885  14.669   8.555
 6120POPC   C2B10280   5.852  14.653   8.255
 6120POPC   C3B10281   5.840  14.676   7.955
 6120POPC   C4B10282   5.834  14.676   7.655
 6121POPC   NC310283  29.969  12.026   9.455
 6121POPC   PO410284  29.955  12.093   9.155
 6121POPC   GL110285  29.920  12.068   8.855
 6121POPC   GL210286  30.028  12.029   8.855
 6121POPC   C1A10287  29.917  12.053   8.555
 6121POPC   D2A10288  29.963  12.112   8.255
 6121POPC   C3A10289  29.921  12.067   7.955
 6121POPC   C4A10290  29.903  12.086   7.655
 6121POPC   C1B10291  30.190  11.977   8.555
 6121POPC   C2B10292  30.113  11.975   8.255
 6121POPC   C3B10293  30.113  12.049   7.955
 6121POPC   C4B10294  30.164  11.994   7.655
 6122POPC   NC310295   8.966  36.934   9.455
 6122POPC   PO410296   9.015  36.936   9.155
 6122POPC   GL110297   8.971  36.913   8.855
 6122POPC   GL210298   8.822  36.904   8.855
 6122POPC   C1A10299   8.959  36.890   8.555
 6122POPC   D2A10300   8.972  36.908   8.255
 6122POPC   C3A10301   8.941  36.938   7.955
 6122POPC   C4A10302   9.011  36.859   7.655
 6122POPC   C1B10303   8.762  36.837   8.555
 6122POPC   C2B10304   8.750  36.841   8.255
 6122POPC   C3B10305   8.725  36.830   7.955
 6122POPC   C4B10306   8.696  36.858   7.655
 6123POPC   NC310307  43.896   1.200   9.455
 6123POPC   PO410308  43.910   1.180   9.155
 6123POPC   GL110309  43.849   1.223   8.855
 6123POPC   GL210310  43.949   1.382   8.855
 6123POPC   C1A10311  43.895   1.190   8.555
 6123POPC   D2A10312  43.891   1.172   8.255
 6123POPC   C3A10313  43.924   1.257   7.955
 6123POPC   C4A10314  43.859   1.243   7.655
 6123POPC   C1B10315  43.913   1.421   8.555
 6123POPC   C2B10316  43.977   1.490   8.255
 6123POPC   C3B10317  43.958   1.450   7.955
 6123POPC   C4B10318  43.908   1.463   7.655
 6124POPC   NC310319  14.442  29.112   9.455
 6124POPC   PO410320  14.449  29.142   9.155
 6124POPC   GL110321  14.450  29.155   8.855
 6124POPC   GL210322  14.499  29.249   8.855
 6124POPC   C1A10323  14.358  29.114   8.555
 6124POPC   D2A10324  14.423  29.175   8.255
 6124POPC   C3A10325  14.355  29.142   7.955
 6124POPC   C4A10326  14.367  29.098   7.655
 6124POPC   C1B10327  14.599  29.382   8.555
 6124POPC   C2B10328  14.600  29.380   8.255
 6124POPC   C3B10329  14.545  29.368   7.955
 6124POPC   C4B10330  14.531  29.391   7.655
 6125POPC   NC310331  19.017  33.767   9.455
 6125POPC   PO410332  19.032  33.814   9.155
 6125POPC   GL110333  19.012  33.764   8.855
 6125POPC   GL210334  18.927  33.823   8.855
 6125POPC   C1A10335  19.038  33.839   8.555
 6125POPC   D2A10336  19.032  33.755   8.255
 6125POPC   C3A10337  19.011  33.789   7.955
 6125POPC   C4A10338  19.104  33.845   7.655
 6125POPC   C1B10339  18.852  33.862   8.555
 6125POPC   C2B10340  18.774  33.829   8.255
 6125POPC   C3B10341  18.821  33.867   7.955
 6125POPC   C4B10342  18.764  33.789   7.655
 6126POPC   NC310343  28.353  33.041   9.455
 6126POPC   PO410344  28.362  33.013   9.155
 6126POPC   GL110345  28.375  33.027   8.855
 6126POPC   GL210346  28.354  33.104   8.855
 6126POPC   C1A10347  28.347  32.994   8.555
 6126POPC   D2A10348  28.358  33.036   8.255
 6126POPC   C3A10349  28.417  33.058   7.955
 6126POPC   C4A10350  28.354  33.053   7.655
 6126POPC   C1B10351  28.390  33.259   8.555
 6126POPC   C2B10352  28.341  33.314   8.255
 6126POPC   C3B10353  28.402  33.231   7.955
 6126POPC   C4B10354  28.325  33.280   7.655
 6127POPC   NC310355  13.636  10.474   9.455
 6127POPC   PO410356  13.619  10.514   9.155
 6127POPC   GL110357  13.622  10.539   8.855
 6127POPC   GL210358  13.515  10.620   8.855
 6127POPC   C1A10359  13.671  10.572   8.555
 6127POPC   D2A10360  13.656  10.492   8.255
 6127POPC   C3A10361  13.655  10.497   7.955
 6127POPC   C4A10362  13.651  10.554   7.655
 6127POPC   C1B10363  13.494  10.765   8.555
 6127POPC   C2B10364  13.504  10.721   8.255
 6127POPC   C3B10365  13.424  10.717   7.955
 6127POPC   C4B10366  13.468  10.704   7.655
 6128POPC   NC310367  22.136  43.145   9.455
 6128POPC   PO410368  22.126  43.091   9.155
 6128POPC   GL110369  22.163  43.075   8.855
 6128POPC   GL210370  22.306  43.148   8.855
 6128POPC   C1A10371  22.155  43.072   8.555
 6128POPC   D2A10372  22.173  43.089   8.255
 6128POPC   C3A10373  22.131  43.068   7.955
 6128POPC   C4A10374  22.147  43.108   7.655
 6128POPC   C1B10375  22.349  43.199   8.555
 6128POPC   C2B10376  22.430  43.183   8.255
 6128POPC   C3B10377  22.359  43.216   7.955
 6128POPC   C4B10378  22.432  43.215   7.655
 6129POPC   NC310379  35.352   8.948   9.455
 6129POPC   PO410380  35.348   8.989   9.155
 6129POPC   GL110381  35.379   9.018   8.855
 6129POPC   GL210382  35.438   8.970   8.855
 6129POPC   C1A10383  35.355   8.929   8.555
 6129POPC   D2A10384  35.378   8.924   8.255
 6129POPC   C3A10385  35.400   8.967   7.955
 6129POPC   C4A10386  35.322   8.974   7.655
 6129POPC   C1B10387  35.578   8.929   8.555
 6129POPC   C2B10388  35.640   8.928   8.255
 6129POPC   C3B10389  35.558   8.952   7.955
 6129POPC   C4B10390  35.560   8.937   7.655
 6130POPC   NC310391  10.502  12.062   9.455
 6130POPC   PO410392  10.532  12.082   9.155
 6130POPC   GL110393  10.545  12.031   8.855
 6130POPC   GL210394  10.437  11.994   8.855
 6130POPC   C1A10395  10.564  12.076   8.555
 6130POPC   D2A10396  10.545  12.048   8.255
 6130POPC   C3A10397  10.548  12.050   7.955
 6130POPC   C4A10398  10.492  12.105   7.655
 6130POPC   C1B10399  10.261  11.966   8.555
 6130POPC   C2B10400  10.332  11.928   8.255
 6130POPC   C3B10401  10.333  11.912   7.955
 6130POPC   C4B10402  10.328  11.901   7.655
 6131POPC   NC310403  19.042  30.661   9.455
 6131POPC   PO410404  19.098  30.655   9.155
 6131POPC   GL110405  19.083  30.706   8.855
 6131POPC   GL210406  19.176  30.764   8.855
 6131POPC   C1A10407  19.084  30.663   8.555
 6131POPC   D2A10408  19.063  30.723   8.255
 6131POPC   C3A10409  19.012  30.738   7.955
 6131POPC   C4A10410  19.101  30.705   7.655
 6131POPC   C1B10411  19.150  30.881   8.555
 6131POPC   C2B10412  19.194  30.934   8.255
 6131POPC   C3B10413  19.158  30.912   7.955
 6131POPC   C4B10414  19.238  30.924   7.655
 6132POPC   NC310415  12.045  15.981   9.455
 6132POPC   PO410416  12.070  15.933   9.155
 6132POPC   GL110417  12.052  15.920   8.855
 6132POPC   GL210418  12.023  15.856   8.855
 6132POPC   C1A10419  12.122  15.943   8.555
 6132POPC   D2A10420  12.072  15.958   8.255
 6132POPC   C3A10421  12.028  15.977   7.955
 6132POPC   C4A10422  12.072  15.950   7.655
 6132POPC   C1B10423  11.997  15.701   8.555
 6132POPC   C2B10424  12.004  15.730   8.255
 6132POPC   C3B10425  12.022  15.687   7.955
 6132POPC   C4B10426  11.971  15.671   7.655
 6133POPC   NC310427  21.361   9.009   9.455
 6133POPC   PO410428  21.434   8.973   9.155
 6133POPC   GL110429  21.401   8.988   8.855
 6133POPC   GL210430  21.547   8.954   8.855
 6133POPC   C1A10431  21.344   8.984   8.555
 6133POPC   D2A10432  21.372   8.951   8.255
 6133POPC   C3A10433  21.361   8.929   7.955
 6133POPC   C4A10434  21.397   8.991   7.655
 6133POPC   C1B10435  21.599   8.971   8.555
 6133POPC   C2B10436  21.655   9.013   8.255
 6133POPC   C3B10437  21.628   9.000   7.955
 6133POPC   C4B10438  21.605   9.023   7.655
 6134POPC   NC310439  12.881  23.720   9.455
 6134POPC   PO410440  12.857  23.676   9.155
 6134POPC   GL110441  12.824  23.727   8.855
 6134POPC   GL210442  12.919  23.584   8.855
 6134POPC   C1A10443  12.878  23.724   8.555
 6134POPC   D2A10444  12.888  23.703   8.255
 6134POPC   C3A10445  12.841  23.721   7.955
 6134POPC   C4A10446  12.829  23.707   7.655
 6134POPC   C1B10447  12.991  23.542   8.555
 6134POPC   C2B10448  12.964  23.494   8.255
 6134POPC   C3B10449  13.021  23.473   7.955
 6134POPC   C4B10450  12.975  23.461   7.655
 6135POPC   NC310451  43.837  12.881   9.455
 6135POPC   PO410452  43.896  12.875   9.155
 6135POPC   GL110453  43.856  12.886   8.855
 6135POPC   GL210454  43.844  12.962   8.855
 6135POPC   C1A10455  43.857  12.814   8.555
 6135POPC   D2A10456  43.865  12.847   8.255
 6135POPC   C3A10457  43.935  12.840   7.955
 6135POPC   C4A10458  43.860  12.876   7.655
 6135POPC   C1B10459  43.852  13.104   8.555
 6135POPC   C2B10460  43.803  13.051   8.255
 6135POPC   C3B10461  43.827  13.140   7.955
 6135POPC   C4B10462  43.828  13.118   7.655
 6136POPC   NC310463  30.710  40.000   9.455
 6136POPC   PO410464  30.735  39.993   9.155
 6136POPC   GL110465  30.678  40.003   8.855
 6136POPC   GL210466  30.678  40.149   8.855
 6136POPC   C1A10467  30.670  39.987   8.555
 6136POPC   D2A10468  30.736  39.960   8.255
 6136POPC   C3A10469  30.738  39.994   7.955
 6136POPC   C4A10470  30.671  39.959   7.655
 6136POPC   C1B10471  30.696  40.211   8.555
 6136POPC   C2B10472  30.617  40.243   8.255
 6136POPC   C3B10473  30.640  40.284   7.955
 6136POPC   C4B10474  30.692  40.267   7.655
 6137POPC   NC310475  14.420  26.048   9.455
 6137POPC   PO410476  14.439  26.008   9.155
 6137POPC   GL110477  14.417  26.058   8.855
 6137POPC   GL210478  14.338  25.942   8.855
 6137POPC   C1A10479  14.447  26.063   8.555
 6137POPC   D2A10480  14.361  26.038   8.255
 6137POPC   C3A10481  14.401  26.005   7.955
 6137POPC   C4A10482  14.433  26.022   7.655
 6137POPC   C1B10483  14.173  25.907   8.555
 6137POPC   C2B10484  14.179  25.885   8.255
 6137POPC   C3B10485  14.160  25.906   7.955
 6137POPC   C4B10486  14.235  25.857   7.655
 6138POPC   NC310487  14.451   1.962   9.455
 6138POPC   PO410488  14.356   1.996   9.155
 6138POPC   GL110489  14.435   1.961   8.855
 6138POPC   GL210490  14.467   2.146   8.855
 6138POPC   C1A10491  14.418   2.016   8.555
 6138POPC   D2A10492  14.383   1.977   8.255
 6138POPC   C3A10493  14.364   1.977   7.955
 6138POPC   C4A10494  14.373   1.972   7.655
 6138POPC   C1B10495  14.557   2.254   8.555
 6138POPC   C2B10496  14.526   2.257   8.255
 6138POPC   C3B10497  14.511   2.232   7.955
 6138POPC   C4B10498  14.531   2.176   7.655
 6139POPC   NC310499  27.579   7.377   9.455
 6139POPC   PO410500  27.563   7.416   9.155
 6139POPC   GL110501  27.626   7.420   8.855
 6139POPC   GL210502  27.494   7.472   8.855
 6139POPC   C1A10503  27.570   7.459   8.555
 6139POPC   D2A10504  27.611   7.394   8.255
 6139POPC   C3A10505  27.604   7.421   7.955
 6139POPC   C4A10506  27.605   7.441   7.655
 6139POPC   C1B10507  27.399   7.669   8.555
 6139POPC   C2B10508  27.482   7.597   8.255
 6139POPC   C3B10509  27.430   7.610   7.955
 6139POPC   C4B10510  27.463   7.666   7.655
 6140POPC   NC310511  39.215  33.789   9.455
 6140POPC   PO410512  39.279  33.754   9.155
 6140POPC   GL110513  39.246  33.807   8.855
 6140POPC   GL210514  39.156  33.857   8.855
 6140POPC   C1A10515  39.269  33.792   8.555
 6140POPC   D2A10516  39.263  33.774   8.255
 6140POPC   C3A10517  39.251  33.775   7.955
 6140POPC   C4A10518  39.260  33.786   7.655
 6140POPC   C1B10519  39.030  33.989   8.555
 6140POPC   C2B10520  38.993  33.946   8.255
 6140POPC   C3B10521  39.049  33.946   7.955
 6140POPC   C4B10522  39.018  33.951   7.655
 6141POPC   NC310523  38.496  13.658   9.455
 6141POPC   PO410524  38.432  13.631   9.155
 6141POPC   GL110525  38.473  13.636   8.855
 6141POPC   GL210526  38.349  13.714   8.855
 6141POPC   C1A10527  38.477  13.621   8.555
 6141POPC   D2A10528  38.489  13.653   8.255
 6141POPC   C3A10529  38.498  13.605   7.955
 6141POPC   C4A10530  38.407  13.677   7.655
 6141POPC   C1B10531  38.252  13.830   8.555
 6141POPC   C2B10532  38.256  13.853   8.255
 6141POPC   C3B10533  38.308  13.778   7.955
 6141POPC   C4B10534  38.239  13.808   7.655
 6142POPC   NC310535  40.780  38.454   9.455
 6142POPC   PO410536  40.771  38.446   9.155
 6142POPC   GL110537  40.757  38.454   8.855
 6142POPC   GL210538  40.751  38.333   8.855
 6142POPC   C1A10539  40.752  38.490   8.555
 6142POPC   D2A10540  40.736  38.477   8.255
 6142POPC   C3A10541  40.758  38.444   7.955
 6142POPC   C4A10542  40.756  38.433   7.655
 6142POPC   C1B10543  40.777  38.163   8.555
 6142POPC   C2B10544  40.728  38.242   8.255
 6142POPC   C3B10545  40.797  38.164   7.955
 6142POPC   C4B10546  40.728  38.174   7.655
 6143POPC   NC310547  12.119  23.754   9.455
 6143POPC   PO410548  12.076  23.701   9.155
 6143POPC   GL110549  12.053  23.704   8.855
 6143POPC   GL210550  12.004  23.575   8.855
 6143POPC   C1A10551  12.110  23.734   8.555
 6143POPC   D2A10552  12.036  23.693   8.255
 6143POPC   C3A10553  12.106  23.665   7.955
 6143POPC   C4A10554  12.061  23.735   7.655
 6143POPC   C1B10555  12.008  23.429   8.555
 6143POPC   C2B10556  11.981  23.516   8.255
 6143POPC   C3B10557  12.035  23.471   7.955
 6143POPC   C4B10558  11.985  23.425   7.655
 6144POPC   NC310559  33.773   9.753   9.455
 6144POPC   PO410560  33.770   9.718   9.155
 6144POPC   GL110561  33.800   9.782   8.855
 6144POPC   GL210562  33.866   9.772   8.855
 6144POPC   C1A10563  33.829   9.755   8.555
 6144POPC   D2A10564  33.797   9.766   8.255
 6144POPC   C3A10565  33.811   9.703   7.955
 6144POPC   C4A10566  33.839   9.742   7.655
 6144POPC   C1B10567  33.979   9.815   8.555
 6144POPC   C2B10568  34.019   9.847   8.255
 6144POPC   C3B10569  34.072   9.863   7.955
 6144POPC   C4B10570  34.071   9.879   7.655
 6145POPC   NC310571  16.775  39.228   9.455
 6145POPC   PO410572  16.690  39.251   9.155
 6145POPC   GL110573  16.742  39.226   8.855
 6145POPC   GL210574  16.634  39.285   8.855
 6145POPC   C1A10575  16.682  39.196   8.555
 6145POPC   D2A10576  16.704  39.218   8.255
 6145POPC   C3A10577  16.718  39.184   7.955
 6145POPC   C4A10578  16.722  39.192   7.655
 6145POPC   C1B10579  16.536  39.368   8.555
 6145POPC   C2B10580  16.490  39.381   8.255
 6145POPC   C3B10581  16.550  39.400   7.955
 6145POPC   C4B10582  16.572  39.423   7.655
 6146POPC   NC310583  40.019  42.364   9.455
 6146POPC   PO410584  40.004  42.293   9.155
 6146POPC   GL110585  39.997  42.300   8.855
 6146POPC   GL210586  39.904  42.402   8.855
 6146POPC   C1A10587  39.977  42.338   8.555
 6146POPC   D2A10588  39.996  42.350   8.255
 6146POPC   C3A10589  39.994  42.318   7.955
 6146POPC   C4A10590  40.049  42.319   7.655
 6146POPC   C1B10591  39.825  42.566   8.555
 6146POPC   C2B10592  39.854  42.543   8.255
 6146POPC   C3B10593  39.872  42.500   7.955
 6146POPC   C4B10594  39.797  42.533   7.655
 6147POPC   NC310595  29.124  35.357   9.455
 6147POPC   PO410596  29.109  35.317   9.155
 6147POPC   GL110597  29.123  35.377   8.855
 6147POPC   GL210598  29.001  35.438   8.855
 6147POPC   C1A10599  29.158  35.305   8.555
 6147POPC   D2A10600  29.101  35.368   8.255
 6147POPC   C3A10601  29.146  35.343   7.955
 6147POPC   C4A10602  29.167  35.317   7.655
 6147POPC   C1B10603  28.976  35.476   8.555
 6147POPC   C2B10604  28.971  35.474   8.255
 6147POPC   C3B10605  28.964  35.496   7.955
 6147POPC   C4B10606  28.987  35.454   7.655
 6148POPC   NC310607   1.250   5.917   9.455
 6148POPC   PO410608   1.194   5.881   9.155
 6148POPC   GL110609   1.168   5.849   8.855
 6148POPC   GL210610   1.062   5.798   8.855
 6148POPC   C1A10611   1.228   5.910   8.555
 6148POPC   D2A10612   1.235   5.850   8.255
 6148POPC   C3A10613   1.217   5.911   7.955
 6148POPC   C4A10614   1.209   5.877   7.655
 6148POPC   C1B10615   0.967   5.791   8.555
 6148POPC   C2B10616   1.003   5.754   8.255
 6148POPC   C3B10617   0.955   5.730   7.955
 6148POPC   C4B10618   0.989   5.756   7.655
 6149POPC   NC310619   3.541  10.502   9.455
 6149POPC   PO410620   3.522  10.524   9.155
 6149POPC   GL110621   3.576  10.570   8.855
 6149POPC   GL210622   3.623  10.585   8.855
 6149POPC   C1A10623   3.552  10.491   8.555
 6149POPC   D2A10624   3.554  10.528   8.255
 6149POPC   C3A10625   3.498  10.568   7.955
 6149POPC   C4A10626   3.502  10.492   7.655
 6149POPC   C1B10627   3.685  10.745   8.555
 6149POPC   C2B10628   3.730  10.769   8.255
 6149POPC   C3B10629   3.703  10.718   7.955
 6149POPC   C4B10630   3.651  10.698   7.655
 6150POPC   NC310631  19.012  44.697   9.455
 6150POPC   PO410632  19.100  44.674   9.155
 6150POPC   GL110633  19.051  44.651   8.855
 6150POPC   GL210634  19.072  44.792   8.855
 6150POPC   C1A10635  19.068  44.650   8.555
 6150POPC   D2A10636  19.059  44.647   8.255
 6150POPC   C3A10637  19.023  44.643   7.955
 6150POPC   C4A10638  19.018  44.626   7.655
 6150POPC   C1B10639  19.168  44.831   8.555
 6150POPC   C2B10640  19.224  44.839   8.255
 6150POPC   C3B10641  19.178  44.899   7.955
 6150POPC   C4B10642  19.193  44.875   7.655
 6151POPC   NC310643  17.529  13.578   9.455
 6151POPC   PO410644  17.549  13.628   9.155
 6151POPC   GL110645  17.496  13.578   8.855
 6151POPC   GL210646  17.605  13.563   8.855
 6151POPC   C1A10647  17.542  13.673   8.555
 6151POPC   D2A10648  17.556  13.647   8.255
 6151POPC   C3A10649  17.527  13.579   7.955
 6151POPC   C4A10650  17.498  13.595   7.655
 6151POPC   C1B10651  17.672  13.391   8.555
 6151POPC   C2B10652  17.690  13.380   8.255
 6151POPC   C3B10653  17.701  13.394   7.955
 6151POPC   C4B10654  17.697  13.400   7.655
 6152POPC   NC310655  39.988   3.563   9.455
 6152POPC   PO410656  40.052   3.503   9.155
 6152POPC   GL110657  39.964   3.565   8.855
 6152POPC   GL210658  39.998   3.655   8.855
 6152POPC   C1A10659  39.983   3.506   8.555
 6152POPC   D2A10660  40.007   3.511   8.255
 6152POPC   C3A10661  39.991   3.521   7.955
 6152POPC   C4A10662  40.051   3.540   7.655
 6152POPC   C1B10663  39.866   3.739   8.555
 6152POPC   C2B10664  39.883   3.822   8.255
 6152POPC   C3B10665  39.919   3.750   7.955
 6152POPC   C4B10666  39.929   3.772   7.655
 6153POPC   NC310667  43.849   5.087   9.455
 6153POPC   PO410668  43.885   5.075   9.155
 6153POPC   GL110669  43.919   5.128   8.855
 6153POPC   GL210670  43.729   5.072   8.855
 6153POPC   C1A10671  43.864   5.051   8.555
 6153POPC   D2A10672  43.907   5.087   8.255
 6153POPC   C3A10673  43.859   5.067   7.955
 6153POPC   C4A10674  43.910   5.108   7.655
 6153POPC   C1B10675  43.617   5.064   8.555
 6153POPC   C2B10676  43.610   5.034   8.255
 6153POPC   C3B10677  43.677   4.998   7.955
 6153POPC   C4B10678  43.594   5.079   7.655
 6154POPC   NC310679   2.000   7.433   9.455
 6154POPC   PO410680   1.977   7.436   9.155
 6154POPC   GL110681   1.992   7.380   8.855
 6154POPC   GL210682   2.076   7.542   8.855
 6154POPC   C1A10683   2.006   7.392   8.555
 6154POPC   D2A10684   2.030   7.452   8.255
 6154POPC   C3A10685   2.000   7.451   7.955
 6154POPC   C4A10686   1.995   7.441   7.655
 6154POPC   C1B10687   2.135   7.654   8.555
 6154POPC   C2B10688   2.119   7.672   8.255
 6154POPC   C3B10689   2.137   7.657   7.955
 6154POPC   C4B10690   2.127   7.665   7.655
 6155POPC   NC310691   8.231  43.061   9.455
 6155POPC   PO410692   8.165  43.115   9.155
 6155POPC   GL110693   8.198  43.072   8.855
 6155POPC   GL210694   8.201  43.183   8.855
 6155POPC   C1A10695   8.220  43.153   8.555
 6155POPC   D2A10696   8.205  43.136   8.255
 6155POPC   C3A10697   8.204  43.129   7.955
 6155POPC   C4A10698   8.173  43.087   7.655
 6155POPC   C1B10699   8.131  43.309   8.555
 6155POPC   C2B10700   8.148  43.316   8.255
 6155POPC   C3B10701   8.080  43.391   7.955
 6155POPC   C4B10702   8.114  43.300   7.655
 6156POPC   NC310703   8.939  27.573   9.455
 6156POPC   PO410704   8.979  27.544   9.155
 6156POPC   GL110705   8.932  27.624   8.855
 6156POPC   GL210706   8.938  27.519   8.855
 6156POPC   C1A10707   8.978  27.551   8.555
 6156POPC   D2A10708   9.018  27.548   8.255
 6156POPC   C3A10709   8.937  27.596   7.955
 6156POPC   C4A10710   8.922  27.643   7.655
 6156POPC   C1B10711   8.872  27.331   8.555
 6156POPC   C2B10712   8.907  27.357   8.255
 6156POPC   C3B10713   8.905  27.353   7.955
 6156POPC   C4B10714   8.870  27.374   7.655
 6157POPC   NC310715  41.547  32.293   9.455
 6157POPC   PO410716  41.570  32.250   9.155
 6157POPC   GL110717  41.519  32.227   8.855
 6157POPC   GL210718  41.448  32.299   8.855
 6157POPC   C1A10719  41.526  32.283   8.555
 6157POPC   D2A10720  41.580  32.254   8.255
 6157POPC   C3A10721  41.600  32.268   7.955
 6157POPC   C4A10722  41.536  32.234   7.655
 6157POPC   C1B10723  41.431  32.407   8.555
 6157POPC   C2B10724  41.367  32.412   8.255
 6157POPC   C3B10725  41.451  32.411   7.955
 6157POPC   C4B10726  41.405  32.471   7.655
 6158POPC   NC310727   5.833   3.514   9.455
 6158POPC   PO410728   5.857   3.518   9.155
 6158POPC   GL110729   5.873   3.536   8.855
 6158POPC   GL210730   5.841   3.679   8.855
 6158POPC   C1A10731   5.893   3.505   8.555
 6158POPC   D2A10732   5.899   3.498   8.255
 6158POPC   C3A10733   5.885   3.506   7.955
 6158POPC   C4A10734   5.862   3.560   7.655
 6158POPC   C1B10735   5.747   3.758   8.555
 6158POPC   C2B10736   5.780   3.733   8.255
 6158POPC   C3B10737   5.761   3.735   7.955
 6158POPC   C4B10738   5.765   3.737   7.655
 6159POPC   NC310739  20.568  28.409   9.455
 6159POPC   PO410740  20.653  28.402   9.155
 6159POPC   GL110741  20.632  28.362   8.855
 6159POPC   GL210742  20.565  28.264   8.855
 6159POPC   C1A10743  20.567  28.357   8.555
 6159POPC   D2A10744  20.611  28.347   8.255
 6159POPC   C3A10745  20.633  28.384   7.955
 6159POPC   C4A10746  20.565  28.385   7.655
 6159POPC   C1B10747  20.626  28.125   8.555
 6159POPC   C2B10748  20.643  28.073   8.255
 6159POPC   C3B10749  20.642  28.118   7.955
 6159POPC   C4B10750  20.593  28.105   7.655
 6160POPC   NC310751  23.687  40.816   9.455
 6160POPC   PO410752  23.762  40.813   9.155
 6160POPC   GL110753  23.724  40.787   8.855
 6160POPC   GL210754  23.645  40.868   8.855
 6160POPC   C1A10755  23.680  40.739   8.555
 6160POPC   D2A10756  23.673  40.750   8.255
 6160POPC   C3A10757  23.749  40.752   7.955
 6160POPC   C4A10758  23.716  40.749   7.655
 6160POPC   C1B10759  23.513  40.907   8.555
 6160POPC   C2B10760  23.461  40.906   8.255
 6160POPC   C3B10761  23.428  40.836   7.955
 6160POPC   C4B10762  23.435  40.860   7.655
 6161POPC   NC310763  28.350   8.246   9.455
 6161POPC   PO410764  28.338   8.213   9.155
 6161POPC   GL110765  28.359   8.150   8.855
 6161POPC   GL210766  28.245   8.308   8.855
 6161POPC   C1A10767  28.330   8.203   8.555
 6161POPC   D2A10768  28.376   8.234   8.255
 6161POPC   C3A10769  28.377   8.165   7.955
 6161POPC   C4A10770  28.364   8.161   7.655
 6161POPC   C1B10771  28.171   8.337   8.555
 6161POPC   C2B10772  28.212   8.377   8.255
 6161POPC   C3B10773  28.185   8.317   7.955
 6161POPC   C4B10774  28.214   8.412   7.655
 6162POPC   NC310775   3.502  21.408   9.455
 6162POPC   PO410776   3.568  21.408   9.155
 6162POPC   GL110777   3.495  21.381   8.855
 6162POPC   GL210778   3.418  21.492   8.855
 6162POPC   C1A10779   3.574  21.426   8.555
 6162POPC   D2A10780   3.502  21.341   8.255
 6162POPC   C3A10781   3.575  21.349   7.955
 6162POPC   C4A10782   3.557  21.373   7.655
 6162POPC   C1B10783   3.329  21.502   8.555
 6162POPC   C2B10784   3.364  21.537   8.255
 6162POPC   C3B10785   3.310  21.534   7.955
 6162POPC   C4B10786   3.333  21.544   7.655
 6163POPC   NC310787  28.358  15.147   9.455
 6163POPC   PO410788  28.341  15.211   9.155
 6163POPC   GL110789  28.359  15.209   8.855
 6163POPC   GL210790  28.457  15.302   8.855
 6163POPC   C1A10791  28.380  15.160   8.555
 6163POPC   D2A10792  28.351  15.225   8.255
 6163POPC   C3A10793  28.332  15.135   7.955
 6163POPC   C4A10794  28.333  15.167   7.655
 6163POPC   C1B10795  28.438  15.443   8.555
 6163POPC   C2B10796  28.473  15.424   8.255
 6163POPC   C3B10797  28.445  15.394   7.955
 6163POPC   C4B10798  28.516  15.436   7.655
 6164POPC   NC310799  39.986  14.392   9.455
 6164POPC   PO410800  39.993  14.357   9.155
 6164POPC   GL110801  39.967  14.430   8.855
 6164POPC   GL210802  39.919  14.459   8.855
 6164POPC   C1A10803  39.966  14.450   8.555
 6164POPC   D2A10804  40.035  14.450   8.255
 6164POPC   C3A10805  40.040  14.453   7.955
 6164POPC   C4A10806  39.968  14.429   7.655
 6164POPC   C1B10807  39.737  14.473   8.555
 6164POPC   C2B10808  39.773  14.499   8.255
 6164POPC   C3B10809  39.737  14.459   7.955
 6164POPC   C4B10810  39.746  14.465   7.655
 6165POPC   NC310811  44.705   6.623   9.455
 6165POPC   PO410812  44.646   6.595   9.155
 6165POPC   GL110813  44.681   6.672   8.855
 6165POPC   GL210814  44.795   6.640   8.855
 6165POPC   C1A10815  44.679   6.601   8.555
 6165POPC   D2A10816  44.647   6.637   8.255
 6165POPC   C3A10817  44.693   6.622   7.955
 6165POPC   C4A10818  44.712   6.663   7.655
 6165POPC   C1B10819  44.929   6.720   8.555
 6165POPC   C2B10820  44.898   6.624   8.255
 6165POPC   C3B10821  44.877   6.637   7.955
 6165POPC   C4B10822  44.879   6.632   7.655
 6166POPC   NC310823  29.151  15.167   9.455
 6166POPC   PO410824  29.170  15.224   9.155
 6166POPC   GL110825  29.176  15.129   8.855
 6166POPC   GL210826  29.295  15.277   8.855
 6166POPC   C1A10827  29.143  15.199   8.555
 6166POPC   D2A10828  29.187  15.152   8.255
 6166POPC   C3A10829  29.148  15.169   7.955
 6166POPC   C4A10830  29.173  15.156   7.655
 6166POPC   C1B10831  29.341  15.285   8.555
 6166POPC   C2B10832  29.379  15.281   8.255
 6166POPC   C3B10833  29.411  15.301   7.955
 6166POPC   C4B10834  29.368  15.250   7.655
 6167POPC   NC310835  19.066   8.166   9.455
 6167POPC   PO410836  19.049   8.179   9.155
 6167POPC   GL110837  19.060   8.171   8.855
 6167POPC   GL210838  19.064   8.111   8.855
 6167POPC   C1A10839  19.073   8.219   8.555
 6167POPC   D2A10840  19.026   8.229   8.255
 6167POPC   C3A10841  19.071   8.181   7.955
 6167POPC   C4A10842  19.069   8.193   7.655
 6167POPC   C1B10843  19.033   7.978   8.555
 6167POPC   C2B10844  18.989   7.912   8.255
 6167POPC   C3B10845  19.037   7.906   7.955
 6167POPC   C4B10846  19.008   7.929   7.655
 6168POPC   NC310847  39.992  27.602   9.455
 6168POPC   PO410848  39.976  27.585   9.155
 6168POPC   GL110849  39.988  27.555   8.855
 6168POPC   GL210850  39.903  27.517   8.855
 6168POPC   C1A10851  40.055  27.548   8.555
 6168POPC   D2A10852  40.054  27.595   8.255
 6168POPC   C3A10853  40.007  27.588   7.955
 6168POPC   C4A10854  39.980  27.607   7.655
 6168POPC   C1B10855  39.894  27.404   8.555
 6168POPC   C2B10856  39.852  27.344   8.255
 6168POPC   C3B10857  39.868  27.425   7.955
 6168POPC   C4B10858  39.874  27.401   7.655
 6169POPC   NC310859  34.561  43.134   9.455
 6169POPC   PO410860  34.553  43.116   9.155
 6169POPC   GL110861  34.589  43.147   8.855
 6169POPC   GL210862  34.655  43.077   8.855
 6169POPC   C1A10863  34.621  43.126   8.555
 6169POPC   D2A10864  34.607  43.071   8.255
 6169POPC   C3A10865  34.553  43.061   7.955
 6169POPC   C4A10866  34.537  43.079   7.655
 6169POPC   C1B10867  34.792  42.916   8.555
 6169POPC   C2B10868  34.743  42.986   8.255
 6169POPC   C3B10869  34.737  42.918   7.955
 6169POPC   C4B10870  34.737  42.999   7.655
 6170POPC   NC310871  27.547  39.978   9.455
 6170POPC   PO410872  27.609  40.022   9.155
 6170POPC   GL110873  27.608  40.032   8.855
 6170POPC   GL210874  27.616  39.940   8.855
 6170POPC   C1A10875  27.617  39.957   8.555
 6170POPC   D2A10876  27.620  39.963   8.255
 6170POPC   C3A10877  27.548  40.018   7.955
 6170POPC   C4A10878  27.565  40.041   7.655
 6170POPC   C1B10879  27.682  39.747   8.555
 6170POPC   C2B10880  27.681  39.756   8.255
 6170POPC   C3B10881  27.671  39.739   7.955
 6170POPC   C4B10882  27.656  39.809   7.655
 6171POPC   NC310883  26.041  37.639   9.455
 6171POPC   PO410884  26.087  37.643   9.155
 6171POPC   GL110885  26.037  37.634   8.855
 6171POPC   GL210886  25.939  37.722   8.855
 6171POPC   C1A10887  26.006  37.718   8.555
 6171POPC   D2A10888  26.064  37.716   8.255
 6171POPC   C3A10889  25.998  37.676   7.955
 6171POPC   C4A10890  26.084  37.671   7.655
 6171POPC   C1B10891  25.769  37.721   8.555
 6171POPC   C2B10892  25.814  37.660   8.255
 6171POPC   C3B10893  25.765  37.683   7.955
 6171POPC   C4B10894  25.755  37.667   7.655
 6172POPC   NC310895  38.405  40.021   9.455
 6172POPC   PO410896  38.419  40.011   9.155
 6172POPC   GL110897  38.467  40.024   8.855
 6172POPC   GL210898  38.473  40.144   8.855
 6172POPC   C1A10899  38.437  40.015   8.555
 6172POPC   D2A10900  38.453  39.976   8.255
 6172POPC   C3A10901  38.479  39.982   7.955
 6172POPC   C4A10902  38.468  40.018   7.655
 6172POPC   C1B10903  38.502  40.229   8.555
 6172POPC   C2B10904  38.427  40.207   8.255
 6172POPC   C3B10905  38.421  40.302   7.955
 6172POPC   C4B10906  38.422  40.256   7.655
 6173POPC   NC310907   3.555  33.826   9.455
 6173POPC   PO410908   3.571  33.849   9.155
 6173POPC   GL110909   3.520  33.849   8.855
 6173POPC   GL210910   3.477  33.892   8.855
 6173POPC   C1A10911   3.532  33.827   8.555
 6173POPC   D2A10912   3.557  33.769   8.255
 6173POPC   C3A10913   3.556  33.785   7.955
 6173POPC   C4A10914   3.510  33.792   7.655
 6173POPC   C1B10915   3.423  34.062   8.555
 6173POPC   C2B10916   3.390  33.982   8.255
 6173POPC   C3B10917   3.454  34.043   7.955
 6173POPC   C4B10918   3.382  33.975   7.655
 6174POPC   NC310919  40.797  27.581   9.455
 6174POPC   PO410920  40.811  27.577   9.155
 6174POPC   GL110921  40.819  27.546   8.855
 6174POPC   GL210922  40.629  27.544   8.855
 6174POPC   C1A10923  40.830  27.631   8.555
 6174POPC   D2A10924  40.775  27.597   8.255
 6174POPC   C3A10925  40.741  27.639   7.955
 6174POPC   C4A10926  40.825  27.570   7.655
 6174POPC   C1B10927  40.490  27.499   8.555
 6174POPC   C2B10928  40.530  27.563   8.255
 6174POPC   C3B10929  40.579  27.508   7.955
 6174POPC   C4B10930  40.499  27.500   7.655
 6175POPC   NC310931  15.205  31.481   9.455
 6175POPC   PO410932  15.177  31.503   9.155
 6175POPC   GL110933  15.178  31.425   8.855
 6175POPC   GL210934  15.335  31.488   8.855
 6175POPC   C1A10935  15.153  31.517   8.555
 6175POPC   D2A10936  15.217  31.477   8.255
 6175POPC   C3A10937  15.203  31.503   7.955
 6175POPC   C4A10938  15.194  31.475   7.655
 6175POPC   C1B10939  15.410  31.548   8.555
 6175POPC   C2B10940  15.397  31.528   8.255
 6175POPC   C3B10941  15.440  31.555   7.955
 6175POPC   C4B10942  15.430  31.528   7.655
 6176POPC   NC310943  36.157  39.996   9.455
 6176POPC   PO410944  36.162  40.039   9.155
 6176POPC   GL110945  36.152  40.023   8.855
 6176POPC   GL210946  36.047  39.889   8.855
 6176POPC   C1A10947  36.114  40.045   8.555
 6176POPC   D2A10948  36.123  40.030   8.255
 6176POPC   C3A10949  36.176  39.958   7.955
 6176POPC   C4A10950  36.092  40.021   7.655
 6176POPC   C1B10951  35.936  39.828   8.555
 6176POPC   C2B10952  35.986  39.887   8.255
 6176POPC   C3B10953  35.945  39.884   7.955
 6176POPC   C4B10954  35.912  39.826   7.655
 6177POPC   NC310955  35.390  30.745   9.455
 6177POPC   PO410956  35.336  30.655   9.155
 6177POPC   GL110957  35.317  30.667   8.855
 6177POPC   GL210958  35.460  30.614   8.855
 6177POPC   C1A10959  35.381  30.737   8.555
 6177POPC   D2A10960  35.380  30.699   8.255
 6177POPC   C3A10961  35.333  30.683   7.955
 6177POPC   C4A10962  35.321  30.667   7.655
 6177POPC   C1B10963  35.490  30.486   8.555
 6177POPC   C2B10964  35.506  30.509   8.255
 6177POPC   C3B10965  35.461  30.490   7.955
 6177POPC   C4B10966  35.517  30.476   7.655
 6178POPC   NC310967  38.505  23.709   9.455
 6178POPC   PO410968  38.447  23.758   9.155
 6178POPC   GL110969  38.468  23.728   8.855
 6178POPC   GL210970  38.596  23.654   8.855
 6178POPC   C1A10971  38.499  23.672   8.555
 6178POPC   D2A10972  38.415  23.733   8.255
 6178POPC   C3A10973  38.411  23.689   7.955
 6178POPC   C4A10974  38.428  23.696   7.655
 6178POPC   C1B10975  38.717  23.653   8.555
 6178POPC   C2B10976  38.741  23.662   8.255
 6178POPC   C3B10977  38.739  23.643   7.955
 6178POPC   C4B10978  38.715  23.629   7.655
 6179POPC   NC310979  11.264   0.468   9.455
 6179POPC   PO410980  11.337   0.395   9.155
 6179POPC   GL110981  11.286   0.424   8.855
 6179POPC   GL210982  11.272   0.498   8.855
 6179POPC   C1A10983  11.270   0.447   8.555
 6179POPC   D2A10984  11.335   0.397   8.255
 6179POPC   C3A10985  11.319   0.486   7.955
 6179POPC   C4A10986  11.350   0.420   7.655
 6179POPC   C1B10987  11.104   0.663   8.555
 6179POPC   C2B10988  11.191   0.646   8.255
 6179POPC   C3B10989  11.154   0.588   7.955
 6179POPC   C4B10990  11.147   0.674   7.655
 6180POPC   NC310991   1.957  26.816   9.455
 6180POPC   PO410992   2.036  26.822   9.155
 6180POPC   GL110993   1.990  26.853   8.855
 6180POPC   GL210994   2.141  26.754   8.855
 6180POPC   C1A10995   2.039  26.768   8.555
 6180POPC   D2A10996   1.956  26.781   8.255
 6180POPC   C3A10997   1.986  26.847   7.955
 6180POPC   C4A10998   1.948  26.805   7.655
 6180POPC   C1B10999   2.225  26.770   8.555
 6180POPC   C2B11000   2.275  26.731   8.255
 6180POPC   C3B11001   2.265  26.769   7.955
 6180POPC   C4B11002   2.187  26.764   7.655
 6181POPC   NC311003  22.962   5.905   9.455
 6181POPC   PO411004  22.900   5.834   9.155
 6181POPC   GL111005  22.888   5.883   8.855
 6181POPC   GL211006  22.895   5.695   8.855
 6181POPC   C1A11007  22.941   5.919   8.555
 6181POPC   D2A11008  22.982   5.860   8.255
 6181POPC   C3A11009  22.977   5.890   7.955
 6181POPC   C4A11010  22.908   5.899   7.655
 6181POPC   C1B11011  22.921   5.653   8.555
 6181POPC   C2B11012  22.870   5.634   8.255
 6181POPC   C3B11013  22.913   5.665   7.955
 6181POPC   C4B11014  22.961   5.639   7.655
 6182POPC   NC311015   7.380  18.253   9.455
 6182POPC   PO411016   7.390  18.243   9.155
 6182POPC   GL111017   7.464  18.276   8.855
 6182POPC   GL211018   7.310  18.218   8.855
 6182POPC   C1A11019   7.376  18.263   8.555
 6182POPC   D2A11020   7.455  18.315   8.255
 6182POPC   C3A11021   7.375  18.317   7.955
 6182POPC   C4A11022   7.374  18.263   7.655
 6182POPC   C1B11023   7.196  18.171   8.555
 6182POPC   C2B11024   7.186  18.176   8.255
 6182POPC   C3B11025   7.190  18.166   7.955
 6182POPC   C4B11026   7.148  18.197   7.655
 6183POPC   NC311027  27.609  26.060   9.455
 6183POPC   PO411028  27.621  26.011   9.155
 6183POPC   GL111029  27.597  25.998   8.855
 6183POPC   GL211030  27.728  25.960   8.855
 6183POPC   C1A11031  27.625  26.032   8.555
 6183POPC   D2A11032  27.554  26.090   8.255
 6183POPC   C3A11033  27.627  26.013   7.955
 6183POPC   C4A11034  27.622  26.064   7.655
 6183POPC   C1B11035  27.778  25.933   8.555
 6183POPC   C2B11036  27.794  25.881   8.255
 6183POPC   C3B11037  27.751  25.864   7.955
 6183POPC   C4B11038  27.780  25.900   7.655
 6184POPC   NC311039  37.681   3.553   9.455
 6184POPC   PO411040  37.660   3.518   9.155
 6184POPC   GL111041  37.723   3.590   8.855
 6184POPC   GL211042  37.703   3.414   8.855
 6184POPC   C1A11043  37.698   3.539   8.555
 6184POPC   D2A11044  37.660   3.495   8.255
 6184POPC   C3A11045  37.721   3.511   7.955
 6184POPC   C4A11046  37.700   3.497   7.655
 6184POPC   C1B11047  37.869   3.356   8.555
 6184POPC   C2B11048  37.800   3.336   8.255
 6184POPC   C3B11049  37.837   3.324   7.955
 6184POPC   C4B11050  37.847   3.344   7.655
 6185POPC   NC311051  18.286  28.320   9.455
 6185POPC   PO411052  18.333  28.399   9.155
 6185POPC   GL111053  18.237  28.342   8.855
 6185POPC   GL211054  18.432  28.339   8.855
 6185POPC   C1A11055  18.330  28.387   8.555
 6185POPC   D2A11056  18.290  28.368   8.255
 6185POPC   C3A11057  18.267  28.344   7.955
 6185POPC   C4A11058  18.297  28.384   7.655
 6185POPC   C1B11059  18.480  28.215   8.555
 6185POPC   C2B11060  18.472  28.198   8.255
 6185POPC   C3B11061  18.492  28.244   7.955
 6185POPC   C4B11062  18.435  28.251   7.655
 6186POPC   NC311063  39.197  27.545   9.455
 6186POPC   PO411064  39.240  27.614   9.155
 6186POPC   GL111065  39.235  27.564   8.855
 6186POPC   GL211066  39.120  27.717   8.855
 6186POPC   C1A11067  39.202  27.630   8.555
 6186POPC   D2A11068  39.224  27.574   8.255
 6186POPC   C3A11069  39.261  27.585   7.955
 6186POPC   C4A11070  39.271  27.603   7.655
 6186POPC   C1B11071  39.060  27.832   8.555
 6186POPC   C2B11072  39.069  27.762   8.255
 6186POPC   C3B11073  39.143  27.753   7.955
 6186POPC   C4B11074  39.104  27.790   7.655
 6187POPC   NC311075  17.518  40.751   9.455
 6187POPC   PO411076  17.475  40.780   9.155
 6187POPC   GL111077  17.533  40.766   8.855
 6187POPC   GL211078  17.445  40.852   8.855
 6187POPC   C1A11079  17.463  40.754   8.555
 6187POPC   D2A11080  17.469  40.762   8.255
 6187POPC   C3A11081  17.514  40.774   7.955
 6187POPC   C4A11082  17.534  40.768   7.655
 6187POPC   C1B11083  17.396  41.009   8.555
 6187POPC   C2B11084  17.383  41.054   8.255
 6187POPC   C3B11085  17.397  41.021   7.955
 6187POPC   C4B11086  17.392  41.025   7.655
 6188POPC   NC311087  36.088   1.231   9.455
 6188POPC   PO411088  36.162   1.219   9.155
 6188POPC   GL111089  36.143   1.192   8.855
 6188POPC   GL211090  36.162   1.324   8.855
 6188POPC   C1A11091  36.134   1.243   8.555
 6188POPC   D2A11092  36.102   1.184   8.255
 6188POPC   C3A11093  36.079   1.256   7.955
 6188POPC   C4A11094  36.143   1.210   7.655
 6188POPC   C1B11095  36.158   1.433   8.555
 6188POPC   C2B11096  36.134   1.488   8.255
 6188POPC   C3B11097  36.164   1.433   7.955
 6188POPC   C4B11098  36.125   1.423   7.655
 6189POPC   NC311099  39.233   5.866   9.455
 6189POPC   PO411100  39.263   5.824   9.155
 6189POPC   GL111101  39.236   5.851   8.855
 6189POPC   GL211102  39.371   5.850   8.855
 6189POPC   C1A11103  39.246   5.895   8.555
 6189POPC   D2A11104  39.246   5.875   8.255
 6189POPC   C3A11105  39.221   5.907   7.955
 6189POPC   C4A11106  39.270   5.885   7.655
 6189POPC   C1B11107  39.451   5.726   8.555
 6189POPC   C2B11108  39.437   5.818   8.255
 6189POPC   C3B11109  39.508   5.735   7.955
 6189POPC   C4B11110  39.489   5.776   7.655
 6190POPC   NC311111   2.033  33.767   9.455
 6190POPC   PO411112   1.954  33.832   9.155
 6190POPC   GL111113   1.980  33.816   8.855
 6190POPC   GL211114   2.046  33.716   8.855
 6190POPC   C1A11115   1.999  33.798   8.555
 6190POPC   D2A11116   2.029  33.784   8.255
 6190POPC   C3A11117   2.014  33.800   7.955
 6190POPC   C4A11118   2.017  33.832   7.655
 6190POPC   C1B11119   2.188  33.672   8.555
 6190POPC   C2B11120   2.151  33.631   8.255
 6190POPC   C3B11121   2.192  33.594   7.955
 6190POPC   C4B11122   2.196  33.665   7.655
 6191POPC   NC311123  12.075   1.941   9.455
 6191POPC   PO411124  12.030   2.027   9.155
 6191POPC   GL111125  12.054   1.956   8.855
 6191POPC   GL211126  12.225   1.995   8.855
 6191POPC   C1A11127  12.053   2.001   8.555
 6191POPC   D2A11128  12.114   2.006   8.255
 6191POPC   C3A11129  12.101   2.010   7.955
 6191POPC   C4A11130  12.057   2.001   7.655
 6191POPC   C1B11131  12.294   2.056   8.555
 6191POPC   C2B11132  12.330   1.986   8.255
 6191POPC   C3B11133  12.353   2.009   7.955
 6191POPC   C4B11134  12.360   2.047   7.655
 6192POPC   NC311135   8.988  12.833   9.455
 6192POPC   PO411136   9.017  12.804   9.155
 6192POPC   GL111137   8.996  12.861   8.855
 6192POPC   GL211138   9.014  12.777   8.855
 6192POPC   C1A11139   8.926  12.816   8.555
 6192POPC   D2A11140   8.987  12.879   8.255
 6192POPC   C3A11141   8.941  12.897   7.955
 6192POPC   C4A11142   8.989  12.805   7.655
 6192POPC   C1B11143   8.932  12.620   8.555
 6192POPC   C2B11144   8.982  12.567   8.255
 6192POPC   C3B11145   8.977  12.575   7.955
 6192POPC   C4B11146   8.931  12.570   7.655
 6193POPC   NC311147  12.048   1.198   9.455
 6193POPC   PO411148  12.039   1.218   9.155
 6193POPC   GL111149  12.064   1.252   8.855
 6193POPC   GL211150  12.061   1.346   8.855
 6193POPC   C1A11151  12.096   1.232   8.555
 6193POPC   D2A11152  12.061   1.260   8.255
 6193POPC   C3A11153  12.062   1.165   7.955
 6193POPC   C4A11154  12.098   1.192   7.655
 6193POPC   C1B11155  12.022   1.477   8.555
 6193POPC   C2B11156  12.017   1.421   8.255
 6193POPC   C3B11157  12.031   1.465   7.955
 6193POPC   C4B11158  12.061   1.506   7.655
 6194POPC   NC311159   5.836   1.999   9.455
 6194POPC   PO411160   5.849   1.946   9.155
 6194POPC   GL111161   5.834   1.960   8.855
 6194POPC   GL211162   5.822   2.052   8.855
 6194POPC   C1A11163   5.908   2.007   8.555
 6194POPC   D2A11164   5.840   1.983   8.255
 6194POPC   C3A11165   5.824   2.000   7.955
 6194POPC   C4A11166   5.843   2.026   7.655
 6194POPC   C1B11167   5.690   2.125   8.555
 6194POPC   C2B11168   5.643   2.139   8.255
 6194POPC   C3B11169   5.650   2.213   7.955
 6194POPC   C4B11170   5.689   2.187   7.655
 6195POPC   NC311171  35.361  27.618   9.455
 6195POPC   PO411172  35.325  27.602   9.155
 6195POPC   GL111173  35.385  27.568   8.855
 6195POPC   GL211174  35.414  27.726   8.855
 6195POPC   C1A11175  35.312  27.574   8.555
 6195POPC   D2A11176  35.312  27.617   8.255
 6195POPC   C3A11177  35.384  27.559   7.955
 6195POPC   C4A11178  35.306  27.643   7.655
 6195POPC   C1B11179  35.491  27.809   8.555
 6195POPC   C2B11180  35.505  27.827   8.255
 6195POPC   C3B11181  35.530  27.770   7.955
 6195POPC   C4B11182  35.455  27.765   7.655
 6196POPC   NC311183  12.879   0.464   9.455
 6196POPC   PO411184  12.900   0.482   9.155
 6196POPC   GL111185  12.892   0.404   8.855
 6196POPC   GL211186  12.794   0.548   8.855
 6196POPC   C1A11187  12.819   0.446   8.555
 6196POPC   D2A11188  12.873   0.414   8.255
 6196POPC   C3A11189  12.809   0.396   7.955
 6196POPC   C4A11190  12.805   0.417   7.655
 6196POPC   C1B11191  12.689   0.556   8.555
 6196POPC   C2B11192  12.613   0.542   8.255
 6196POPC   C3B11193  12.645   0.542   7.955
 6196POPC   C4B11194  12.688   0.583   7.655
 6197POPC   NC311195  29.962  25.241   9.455
 6197POPC   PO411196  29.893  25.309   9.155
 6197POPC   GL111197  29.871  25.229   8.855
 6197POPC   GL211198  29.855  25.320   8.855
 6197POPC   C1A11199  29.888  25.266   8.555
 6197POPC   D2A11200  29.921  25.262   8.255
 6197POPC   C3A11201  29.927  25.231   7.955
 6197POPC   C4A11202  29.923  25.302   7.655
 6197POPC   C1B11203  29.681  25.450   8.555
 6197POPC   C2B11204  29.705  25.446   8.255
 6197POPC   C3B11205  29.683  25.389   7.955
 6197POPC   C4B11206  29.741  25.368   7.655
 6198POPC   NC311207  30.654  23.734   9.455
 6198POPC   PO411208  30.692  23.736   9.155
 6198POPC   GL111209  30.674  23.711   8.855
 6198POPC   GL211210  30.749  23.618   8.855
 6198POPC   C1A11211  30.707  23.752   8.555
 6198POPC   D2A11212  30.647  23.738   8.255
 6198POPC   C3A11213  30.713  23.740   7.955
 6198POPC   C4A11214  30.713  23.743   7.655
 6198POPC   C1B11215  30.831  23.526   8.555
 6198POPC   C2B11216  30.887  23.533   8.255
 6198POPC   C3B11217  30.875  23.506   7.955
 6198POPC   C4B11218  30.886  23.541   7.655
 6199POPC   NC311219  12.029  44.622   9.455
 6199POPC   PO411220  12.089  44.652   9.155
 6199POPC   GL111221  12.075  44.661   8.855
 6199POPC   GL211222  12.072  44.814   8.855
 6199POPC   C1A11223  12.122  44.639   8.555
 6199POPC   D2A11224  12.056  44.643   8.255
 6199POPC   C3A11225  12.099  44.693   7.955
 6199POPC   C4A11226  12.118  44.652   7.655
 6199POPC   C1B11227  12.076  44.891   8.555
 6199POPC   C2B11228  12.087  44.925   8.255
 6199POPC   C3B11229  12.143  44.865   7.955
 6199POPC   C4B11230  12.162  44.870   7.655
 6200POPC   NC311231  21.364   9.700   9.455
 6200POPC   PO411232  21.368   9.725   9.155
 6200POPC   GL111233  21.403   9.789   8.855
 6200POPC   GL211234  21.475   9.856   8.855
 6200POPC   C1A11235  21.400   9.773   8.555
 6200POPC   D2A11236  21.357   9.743   8.255
 6200POPC   C3A11237  21.400   9.716   7.955
 6200POPC   C4A11238  21.359   9.722   7.655
 6200POPC   C1B11239  21.569   9.924   8.555
 6200POPC   C2B11240  21.548   9.933   8.255
 6200POPC   C3B11241  21.564   9.956   7.955
 6200POPC   C4B11242  21.553   9.901   7.655
 6201POPC   NC311243  39.212  37.637   9.455
 6201POPC   PO411244  39.254  37.653   9.155
 6201POPC   GL111245  39.231  37.656   8.855
 6201POPC   GL211246  39.274  37.601   8.855
 6201POPC   C1A11247  39.194  37.713   8.555
 6201POPC   D2A11248  39.201  37.643   8.255
 6201POPC   C3A11249  39.211  37.694   7.955
 6201POPC   C4A11250  39.278  37.712   7.655
 6201POPC   C1B11251  39.252  37.418   8.555
 6201POPC   C2B11252  39.243  37.393   8.255
 6201POPC   C3B11253  39.323  37.430   7.955
 6201POPC   C4B11254  39.239  37.429   7.655
 6202POPC   NC311255  29.136  19.836   9.455
 6202POPC   PO411256  29.098  19.857   9.155
 6202POPC   GL111257  29.194  19.808   8.855
 6202POPC   GL211258  29.035  19.869   8.855
 6202POPC   C1A11259  29.186  19.848   8.555
 6202POPC   D2A11260  29.165  19.809   8.255
 6202POPC   C3A11261  29.106  19.811   7.955
 6202POPC   C4A11262  29.128  19.795   7.655
 6202POPC   C1B11263  28.943  19.919   8.555
 6202POPC   C2B11264  28.882  19.939   8.255
 6202POPC   C3B11265  28.974  19.988   7.955
 6202POPC   C4B11266  28.900  20.008   7.655
 6203POPC   NC311267  36.123  38.498   9.455
 6203POPC   PO411268  36.101  38.432   9.155
 6203POPC   GL111269  36.152  38.436   8.855
 6203POPC   GL211270  36.093  38.335   8.855
 6203POPC   C1A11271  36.142  38.479   8.555
 6203POPC   D2A11272  36.161  38.452   8.255
 6203POPC   C3A11273  36.147  38.487   7.955
 6203POPC   C4A11274  36.173  38.483   7.655
 6203POPC   C1B11275  36.108  38.209   8.555
 6203POPC   C2B11276  36.180  38.240   8.255
 6203POPC   C3B11277  36.124  38.193   7.955
 6203POPC   C4B11278  36.151  38.241   7.655
 6204POPC   NC311279   5.868  21.377   9.455
 6204POPC   PO411280   5.873  21.394   9.155
 6204POPC   GL111281   5.880  21.422   8.855
 6204POPC   GL211282   5.973  21.445   8.855
 6204POPC   C1A11283   5.859  21.376   8.555
 6204POPC   D2A11284   5.823  21.366   8.255
 6204POPC   C3A11285   5.854  21.339   7.955
 6204POPC   C4A11286   5.899  21.393   7.655
 6204POPC   C1B11287   6.080  21.553   8.555
 6204POPC   C2B11288   6.076  21.624   8.255
 6204POPC   C3B11289   6.039  21.583   7.955
 6204POPC   C4B11290   6.033  21.568   7.655
 6205POPC   NC311291   3.494  15.220   9.455
 6205POPC   PO411292   3.515  15.227   9.155
 6205POPC   GL111293   3.505  15.142   8.855
 6205POPC   GL211294   3.536  15.286   8.855
 6205POPC   C1A11295   3.579  15.145   8.555
 6205POPC   D2A11296   3.559  15.225   8.255
 6205POPC   C3A11297   3.527  15.215   7.955
 6205POPC   C4A11298   3.500  15.182   7.655
 6205POPC   C1B11299   3.449  15.429   8.555
 6205POPC   C2B11300   3.458  15.459   8.255
 6205POPC   C3B11301   3.507  15.399   7.955
 6205POPC   C4B11302   3.435  15.459   7.655
 6206POPC   NC311303  33.794  11.256   9.455
 6206POPC   PO411304  33.755  11.254   9.155
 6206POPC   GL111305  33.809  11.253   8.855
 6206POPC   GL211306  33.635  11.329   8.855
 6206POPC   C1A11307  33.809  11.257   8.555
 6206POPC   D2A11308  33.825  11.306   8.255
 6206POPC   C3A11309  33.840  11.290   7.955
 6206POPC   C4A11310  33.846  11.277   7.655
 6206POPC   C1B11311  33.520  11.304   8.555
 6206POPC   C2B11312  33.587  11.316   8.255
 6206POPC   C3B11313  33.600  11.330   7.955
 6206POPC   C4B11314  33.597  11.287   7.655
 6207POPC   NC311315  15.149   5.832   9.455
 6207POPC   PO411316  15.131   5.906   9.155
 6207POPC   GL111317  15.141   5.820   8.855
 6207POPC   GL211318  15.299   5.779   8.855
 6207POPC   C1A11319  15.188   5.886   8.555
 6207POPC   D2A11320  15.143   5.916   8.255
 6207POPC   C3A11321  15.169   5.911   7.955
 6207POPC   C4A11322  15.197   5.919   7.655
 6207POPC   C1B11323  15.345   5.722   8.555
 6207POPC   C2B11324  15.331   5.695   8.255
 6207POPC   C3B11325  15.387   5.641   7.955
 6207POPC   C4B11326  15.359   5.722   7.655
 6208POPC   NC311327   2.793  44.653   9.455
 6208POPC   PO411328   2.790  44.621   9.155
 6208POPC   GL111329   2.793  44.615   8.855
 6208POPC   GL211330   2.612  44.706   8.855
 6208POPC   C1A11331   2.737  44.624   8.555
 6208POPC   D2A11332   2.805  44.707   8.255
 6208POPC   C3A11333   2.723  44.628   7.955
 6208POPC   C4A11334   2.781  44.699   7.655
 6208POPC   C1B11335   2.516  44.697   8.555
 6208POPC   C2B11336   2.493  44.667   8.255
 6208POPC   C3B11337   2.475  44.753   7.955
 6208POPC   C4B11338   2.553  44.754   7.655
 6209POPC   NC311339  43.088  21.363   9.455
 6209POPC   PO411340  43.084  21.402   9.155
 6209POPC   GL111341  43.107  21.421   8.855
 6209POPC   GL211342  43.013  21.296   8.855
 6209POPC   C1A11343  43.155  21.360   8.555
 6209POPC   D2A11344  43.130  21.390   8.255
 6209POPC   C3A11345  43.061  21.426   7.955
 6209POPC   C4A11346  43.064  21.422   7.655
 6209POPC   C1B11347  42.946  21.300   8.555
 6209POPC   C2B11348  42.892  21.220   8.255
 6209POPC   C3B11349  42.862  21.262   7.955
 6209POPC   C4B11350  42.890  21.274   7.655
 6210POPC   NC311351  28.353  43.920   9.455
 6210POPC   PO411352  28.412  43.913   9.155
 6210POPC   GL111353  28.347  43.872   8.855
 6210POPC   GL211354  28.445  44.021   8.855
 6210POPC   C1A11355  28.348  43.895   8.555
 6210POPC   D2A11356  28.403  43.933   8.255
 6210POPC   C3A11357  28.405  43.912   7.955
 6210POPC   C4A11358  28.397  43.889   7.655
 6210POPC   C1B11359  28.556  44.073   8.555
 6210POPC   C2B11360  28.543  44.078   8.255
 6210POPC   C3B11361  28.539  44.096   7.955
 6210POPC   C4B11362  28.562  44.042   7.655
 6211POPC   NC311363  41.556  12.066   9.455
 6211POPC   PO411364  41.586  12.105   9.155
 6211POPC   GL111365  41.590  12.045   8.855
 6211POPC   GL211366  41.669  11.989   8.855
 6211POPC   C1A11367  41.524  12.034   8.555
 6211POPC   D2A11368  41.597  12.028   8.255
 6211POPC   C3A11369  41.551  12.063   7.955
 6211POPC   C4A11370  41.551  12.075   7.655
 6211POPC   C1B11371  41.665  11.841   8.555
 6211POPC   C2B11372  41.700  11.860   8.255
 6211POPC   C3B11373  41.685  11.852   7.955
 6211POPC   C4B11374  41.640  11.861   7.655
 6212POPC   NC311375  43.903  24.456   9.455
 6212POPC   PO411376  43.905  24.479   9.155
 6212POPC   GL111377  43.863  24.445   8.855
 6212POPC   GL211378  43.859  24.568   8.855
 6212POPC   C1A11379  43.904  24.497   8.555
 6212POPC   D2A11380  43.870  24.454   8.255
 6212POPC   C3A11381  43.922  24.475   7.955
 6212POPC   C4A11382  43.898  24.446   7.655
 6212POPC   C1B11383  43.879  24.734   8.555
 6212POPC   C2B11384  43.850  24.708   8.255
 6212POPC   C3B11385  43.899  24.738   7.955
 6212POPC   C4B11386  43.898  24.747   7.655
 6213POPC   NC311387  27.551  22.143   9.455
 6213POPC   PO411388  27.625  22.185   9.155
 6213POPC   GL111389  27.600  22.189   8.855
 6213POPC   GL211390  27.712  22.241   8.855
 6213POPC   C1A11391  27.586  22.165   8.555
 6213POPC   D2A11392  27.603  22.113   8.255
 6213POPC   C3A11393  27.603  22.119   7.955
 6213POPC   C4A11394  27.583  22.174   7.655
 6213POPC   C1B11395  27.828  22.284   8.555
 6213POPC   C2B11396  27.822  22.296   8.255
 6213POPC   C3B11397  27.809  22.287   7.955
 6213POPC   C4B11398  27.790  22.308   7.655
 6214POPC   NC311399  27.592  19.791   9.455
 6214POPC   PO411400  27.637  19.820   9.155
 6214POPC   GL111401  27.576  19.855   8.855
 6214POPC   GL211402  27.674  19.727   8.855
 6214POPC   C1A11403  27.559  19.850   8.555
 6214POPC   D2A11404  27.559  19.791   8.255
 6214POPC   C3A11405  27.633  19.804   7.955
 6214POPC   C4A11406  27.629  19.842   7.655
 6214POPC   C1B11407  27.799  19.683   8.555
 6214POPC   C2B11408  27.820  19.647   8.255
 6214POPC   C3B11409  27.763  19.631   7.955
 6214POPC   C4B11410  27.823  19.615   7.655
 6215POPC   NC311411   0.420  43.061   9.455
 6215POPC   PO411412   0.432  43.123   9.155
 6215POPC   GL111413   0.400  43.116   8.855
 6215POPC   GL211414   0.345  43.101   8.855
 6215POPC   C1A11415   0.429  43.067   8.555
 6215POPC   D2A11416   0.456  43.121   8.255
 6215POPC   C3A11417   0.404  43.158   7.955
 6215POPC   C4A11418   0.485  43.157   7.655
 6215POPC   C1B11419   0.244  43.014   8.555
 6215POPC   C2B11420   0.212  43.075   8.255
 6215POPC   C3B11421   0.196  43.088   7.955
 6215POPC   C4B11422   0.187  43.077   7.655
 6216POPC   NC311423  34.526  22.912   9.455
 6216POPC   PO411424  34.602  22.979   9.155
 6216POPC   GL111425  34.527  22.896   8.855
 6216POPC   GL211426  34.574  23.016   8.855
 6216POPC   C1A11427  34.603  22.913   8.555
 6216POPC   D2A11428  34.619  22.944   8.255
 6216POPC   C3A11429  34.610  22.921   7.955
 6216POPC   C4A11430  34.558  22.935   7.655
 6216POPC   C1B11431  34.468  23.224   8.555
 6216POPC   C2B11432  34.505  23.184   8.255
 6216POPC   C3B11433  34.482  23.190   7.955
 6216POPC   C4B11434  34.470  23.184   7.655
 6217POPC   NC311435  42.298  42.326   9.455
 6217POPC   PO411436  42.327  42.339   9.155
 6217POPC   GL111437  42.293  42.378   8.855
 6217POPC   GL211438  42.280  42.363   8.855
 6217POPC   C1A11439  42.356  42.381   8.555
 6217POPC   D2A11440  42.290  42.307   8.255
 6217POPC   C3A11441  42.328  42.309   7.955
 6217POPC   C4A11442  42.350  42.290   7.655
 6217POPC   C1B11443  42.094  42.461   8.555
 6217POPC   C2B11444  42.107  42.443   8.255
 6217POPC   C3B11445  42.109  42.513   7.955
 6217POPC   C4B11446  42.162  42.472   7.655
 6218POPC   NC311447  38.412   5.091   9.455
 6218POPC   PO411448  38.470   5.061   9.155
 6218POPC   GL111449  38.410   5.072   8.855
 6218POPC   GL211450  38.608   5.100   8.855
 6218POPC   C1A11451  38.500   5.054   8.555
 6218POPC   D2A11452  38.496   5.119   8.255
 6218POPC   C3A11453  38.459   5.079   7.955
 6218POPC   C4A11454  38.465   5.057   7.655
 6218POPC   C1B11455  38.672   5.011   8.555
 6218POPC   C2B11456  38.671   4.996   8.255
 6218POPC   C3B11457  38.703   4.985   7.955
 6218POPC   C4B11458  38.711   4.992   7.655
 6219POPC   NC311459  36.904  35.399   9.455
 6219POPC   PO411460  36.861  35.365   9.155
 6219POPC   GL111461  36.950  35.368   8.855
 6219POPC   GL211462  36.995  35.436   8.855
 6219POPC   C1A11463  36.886  35.399   8.555
 6219POPC   D2A11464  36.861  35.311   8.255
 6219POPC   C3A11465  36.861  35.346   7.955
 6219POPC   C4A11466  36.941  35.376   7.655
 6219POPC   C1B11467  37.069  35.487   8.555
 6219POPC   C2B11468  37.099  35.452   8.255
 6219POPC   C3B11469  37.087  35.466   7.955
 6219POPC   C4B11470  37.074  35.485   7.655
 6220POPC   NC311471   8.233  43.907   9.455
 6220POPC   PO411472   8.158  43.871   9.155
 6220POPC   GL111473   8.233  43.915   8.855
 6220POPC   GL211474   8.327  43.899   8.855
 6220POPC   C1A11475   8.166  43.868   8.555
 6220POPC   D2A11476   8.201  43.856   8.255
 6220POPC   C3A11477   8.232  43.926   7.955
 6220POPC   C4A11478   8.246  43.845   7.655
 6220POPC   C1B11479   8.417  43.930   8.555
 6220POPC   C2B11480   8.469  43.903   8.255
 6220POPC   C3B11481   8.401  43.928   7.955
 6220POPC   C4B11482   8.457  43.911   7.655
 6221POPC   NC311483  42.330   3.525   9.455
 6221POPC   PO411484  42.299   3.544   9.155
 6221POPC   GL111485  42.355   3.505   8.855
 6221POPC   GL211486  42.160   3.585   8.855
 6221POPC   C1A11487  42.351   3.582   8.555
 6221POPC   D2A11488  42.307   3.524   8.255
 6221POPC   C3A11489  42.295   3.504   7.955
 6221POPC   C4A11490  42.303   3.501   7.655
 6221POPC   C1B11491  42.112   3.538   8.555
 6221POPC   C2B11492  42.112   3.517   8.255
 6221POPC   C3B11493  42.063   3.556   7.955
 6221POPC   C4B11494  42.132   3.490   7.655
 6222POPC   NC311495  38.459   8.174   9.455
 6222POPC   PO411496  38.415   8.171   9.155
 6222POPC   GL111497  38.406   8.225   8.855
 6222POPC   GL211498  38.406   8.095   8.855
 6222POPC   C1A11499  38.469   8.212   8.555
 6222POPC   D2A11500  38.407   8.210   8.255
 6222POPC   C3A11501  38.479   8.215   7.955
 6222POPC   C4A11502  38.435   8.210   7.655
 6222POPC   C1B11503  38.291   8.020   8.555
 6222POPC   C2B11504  38.323   7.988   8.255
 6222POPC   C3B11505  38.293   7.972   7.955
 6222POPC   C4B11506  38.274   8.005   7.655
 6223POPC   NC311507  24.533   7.459   9.455
 6223POPC   PO411508  24.492   7.415   9.155
 6223POPC   GL111509  24.510   7.467   8.855
 6223POPC   GL211510  24.576   7.472   8.855
 6223POPC   C1A11511  24.475   7.421   8.555
 6223POPC   D2A11512  24.508   7.434   8.255
 6223POPC   C3A11513  24.485   7.378   7.955
 6223POPC   C4A11514  24.533   7.460   7.655
 6223POPC   C1B11515  24.768   7.499   8.555
 6223POPC   C2B11516  24.710   7.411   8.255
 6223POPC   C3B11517  24.765   7.488   7.955
 6223POPC   C4B11518  24.781   7.479   7.655
 6224POPC   NC311519  43.146   8.199   9.455
 6224POPC   PO411520  43.151   8.231   9.155
 6224POPC   GL111521  43.123   8.199   8.855
 6224POPC   GL211522  43.009   8.156   8.855
 6224POPC   C1A11523  43.077   8.213   8.555
 6224POPC   D2A11524  43.125   8.215   8.255
 6224POPC   C3A11525  43.148   8.210   7.955
 6224POPC   C4A11526  43.133   8.171   7.655
 6224POPC   C1B11527  42.915   8.130   8.555
 6224POPC   C2B11528  42.889   8.114   8.255
 6224POPC   C3B11529  42.839   8.119   7.955
 6224POPC   C4B11530  42.893   8.145   7.655
 6225POPC   NC311531  17.506  16.763   9.455
 6225POPC   PO411532  17.526  16.704   9.155
 6225POPC   GL111533  17.472  16.766   8.855
 6225POPC   GL211534  17.463  16.619   8.855
 6225POPC   C1A11535  17.493  16.744   8.555
 6225POPC   D2A11536  17.467  16.711   8.255
 6225POPC   C3A11537  17.475  16.687   7.955
 6225POPC   C4A11538  17.520  16.753   7.655
 6225POPC   C1B11539  17.371  16.478   8.555
 6225POPC   C2B11540  17.422  16.491   8.255
 6225POPC   C3B11541  17.402  16.479   7.955
 6225POPC   C4B11542  17.409  16.481   7.655
 6226POPC   NC311543  43.923  22.158   9.455
 6226POPC   PO411544  43.852  22.174   9.155
 6226POPC   GL111545  43.879  22.200   8.855
 6226POPC   GL211546  43.918  22.242   8.855
 6226POPC   C1A11547  43.922  22.136   8.555
 6226POPC   D2A11548  43.935  22.170   8.255
 6226POPC   C3A11549  43.873  22.137   7.955
 6226POPC   C4A11550  43.860  22.211   7.655
 6226POPC   C1B11551  43.879  22.392   8.555
 6226POPC   C2B11552  43.824  22.458   8.255
 6226POPC   C3B11553  43.882  22.374   7.955
 6226POPC   C4B11554  43.821  22.376   7.655
 6227POPC   NC311555  26.811  41.550   9.455
 6227POPC   PO411556  26.862  41.573   9.155
 6227POPC   GL111557  26.830  41.571   8.855
 6227POPC   GL211558  26.887  41.648   8.855
 6227POPC   C1A11559  26.854  41.510   8.555
 6227POPC   D2A11560  26.832  41.516   8.255
 6227POPC   C3A11561  26.806  41.521   7.955
 6227POPC   C4A11562  26.832  41.586   7.655
 6227POPC   C1B11563  27.011  41.671   8.555
 6227POPC   C2B11564  27.063  41.723   8.255
 6227POPC   C3B11565  26.989  41.719   7.955
 6227POPC   C4B11566  26.998  41.699   7.655
 6228POPC   NC311567  36.904   3.494   9.455
 6228POPC   PO411568  36.904   3.503   9.155
 6228POPC   GL111569  36.907   3.554   8.855
 6228POPC   GL211570  36.908   3.378   8.855
 6228POPC   C1A11571  36.944   3.588   8.555
 6228POPC   D2A11572  36.923   3.536   8.255
 6228POPC   C3A11573  36.878   3.517   7.955
 6228POPC   C4A11574  36.910   3.571   7.655
 6228POPC   C1B11575  36.907   3.264   8.555
 6228POPC   C2B11576  36.845   3.248   8.255
 6228POPC   C3B11577  36.910   3.257   7.955
 6228POPC   C4B11578  36.828   3.255   7.655
 6229POPC   NC311579  19.024   6.625   9.455
 6229POPC   PO411580  19.066   6.683   9.155
 6229POPC   GL111581  19.018   6.688   8.855
 6229POPC   GL211582  18.996   6.630   8.855
 6229POPC   C1A11583  19.039   6.633   8.555
 6229POPC   D2A11584  19.060   6.635   8.255
 6229POPC   C3A11585  19.102   6.607   7.955
 6229POPC   C4A11586  19.100   6.686   7.655
 6229POPC   C1B11587  18.885   6.564   8.555
 6229POPC   C2B11588  18.887   6.486   8.255
 6229POPC   C3B11589  18.838   6.541   7.955
 6229POPC   C4B11590  18.845   6.489   7.655
 6230POPC   NC311591  15.148  15.200   9.455
 6230POPC   PO411592  15.156  15.140   9.155
 6230POPC   GL111593  15.144  15.135   8.855
 6230POPC   GL211594  15.147  15.103   8.855
 6230POPC   C1A11595  15.164  15.142   8.555
 6230POPC   D2A11596  15.178  15.174   8.255
 6230POPC   C3A11597  15.165  15.139   7.955
 6230POPC   C4A11598  15.217  15.153   7.655
 6230POPC   C1B11599  15.128  14.943   8.555
 6230POPC   C2B11600  15.198  14.892   8.255
 6230POPC   C3B11601  15.153  14.970   7.955
 6230POPC   C4B11602  15.195  14.907   7.655
 6231POPC   NC311603  12.077  29.136   9.455
 6231POPC   PO411604  12.037  29.160   9.155
 6231POPC   GL111605  12.095  29.099   8.855
 6231POPC   GL211606  12.130  29.058   8.855
 6231POPC   C1A11607  12.104  29.152   8.555
 6231POPC   D2A11608  12.114  29.142   8.255
 6231POPC   C3A11609  12.067  29.149   7.955
 6231POPC   C4A11610  12.096  29.169   7.655
 6231POPC   C1B11611  12.113  28.920   8.555
 6231POPC   C2B11612  12.045  28.933   8.255
 6231POPC   C3B11613  12.116  28.862   7.955
 6231POPC   C4B11614  12.078  28.848   7.655
 6232POPC   NC311615  15.225  25.247   9.455
 6232POPC   PO411616  15.189  25.231   9.155
 6232POPC   GL111617  15.159  25.224   8.855
 6232POPC   GL211618  15.322  25.280   8.855
 6232POPC   C1A11619  15.224  25.259   8.555
 6232POPC   D2A11620  15.165  25.288   8.255
 6232POPC   C3A11621  15.164  25.249   7.955
 6232POPC   C4A11622  15.193  25.281   7.655
 6232POPC   C1B11623  15.464  25.291   8.555
 6232POPC   C2B11624  15.430  25.284   8.255
 6232POPC   C3B11625  15.428  25.295   7.955
 6232POPC   C4B11626  15.430  25.282   7.655
 6233POPC   NC311627  29.171  25.289   9.455
 6233POPC   PO411628  29.151  25.291   9.155
 6233POPC   GL111629  29.132  25.300   8.855
 6233POPC   GL211630  29.223  25.166   8.855
 6233POPC   C1A11631  29.116  25.224   8.555
 6233POPC   D2A11632  29.097  25.259   8.255
 6233POPC   C3A11633  29.160  25.229   7.955
 6233POPC   C4A11634  29.187  25.238   7.655
 6233POPC   C1B11635  29.236  25.080   8.555
 6233POPC   C2B11636  29.282  25.035   8.255
 6233POPC   C3B11637  29.314  25.023   7.955
 6233POPC   C4B11638  29.285  25.099   7.655
 6234POPC   NC311639  29.156   0.459   9.455
 6234POPC   PO411640  29.095   0.396   9.155
 6234POPC   GL111641  29.153   0.453   8.855
 6234POPC   GL211642  29.191   0.301   8.855
 6234POPC   C1A11643  29.150   0.406   8.555
 6234POPC   D2A11644  29.096   0.438   8.255
 6234POPC   C3A11645  29.167   0.442   7.955
 6234POPC   C4A11646  29.102   0.479   7.655
 6234POPC   C1B11647  29.272   0.206   8.555
 6234POPC   C2B11648  29.259   0.235   8.255
 6234POPC   C3B11649  29.249   0.245   7.955
 6234POPC   C4B11650  29.295   0.270   7.655
 6235POPC   NC311651   7.376  16.720   9.455
 6235POPC   PO411652   7.421  16.719   9.155
 6235POPC   GL111653   7.423  16.722   8.855
 6235POPC   GL211654   7.423  16.837   8.855
 6235POPC   C1A11655   7.394  16.766   8.555
 6235POPC   D2A11656   7.423  16.693   8.255
 6235POPC   C3A11657   7.410  16.721   7.955
 6235POPC   C4A11658   7.389  16.760   7.655
 6235POPC   C1B11659   7.493  16.981   8.555
 6235POPC   C2B11660   7.459  16.957   8.255
 6235POPC   C3B11661   7.430  16.932   7.955
 6235POPC   C4B11662   7.501  16.936   7.655
 6236POPC   NC311663  10.476  11.303   9.455
 6236POPC   PO411664  10.509  11.288   9.155
 6236POPC   GL111665  10.556  11.305   8.855
 6236POPC   GL211666  10.595  11.432   8.855
 6236POPC   C1A11667  10.536  11.273   8.555
 6236POPC   D2A11668  10.545  11.333   8.255
 6236POPC   C3A11669  10.522  11.273   7.955
 6236POPC   C4A11670  10.479  11.258   7.655
 6236POPC   C1B11671  10.556  11.544   8.555
 6236POPC   C2B11672  10.579  11.505   8.255
 6236POPC   C3B11673  10.606  11.574   7.955
 6236POPC   C4B11674  10.560  11.530   7.655
 6237POPC   NC311675  33.846  34.553   9.455
 6237POPC   PO411676  33.790  34.589   9.155
 6237POPC   GL111677  33.820  34.607   8.855
 6237POPC   GL211678  33.782  34.440   8.855
 6237POPC   C1A11679  33.850  34.603   8.555
 6237POPC   D2A11680  33.817  34.583   8.255
 6237POPC   C3A11681  33.755  34.558   7.955
 6237POPC   C4A11682  33.779  34.601   7.655
 6237POPC   C1B11683  33.872  34.347   8.555
 6237POPC   C2B11684  33.813  34.379   8.255
 6237POPC   C3B11685  33.827  34.371   7.955
 6237POPC   C4B11686  33.828  34.306   7.655
 6238POPC   NC311687  38.464  36.140   9.455
 6238POPC   PO411688  38.444  36.091   9.155
 6238POPC   GL111689  38.496  36.133   8.855
 6238POPC   GL211690  38.564  35.987   8.855
 6238POPC   C1A11691  38.439  36.135   8.555
 6238POPC   D2A11692  38.482  36.172   8.255
 6238POPC   C3A11693  38.502  36.142   7.955
 6238POPC   C4A11694  38.436  36.136   7.655
 6238POPC   C1B11695  38.658  35.905   8.555
 6238POPC   C2B11696  38.572  35.974   8.255
 6238POPC   C3B11697  38.629  35.963   7.955
 6238POPC   C4B11698  38.576  35.894   7.655
 6239POPC   NC311699  10.512  28.402   9.455
 6239POPC   PO411700  10.529  28.354   9.155
 6239POPC   GL111701  10.525  28.397   8.855
 6239POPC   GL211702  10.499  28.448   8.855
 6239POPC   C1A11703  10.571  28.350   8.555
 6239POPC   D2A11704  10.512  28.411   8.255
 6239POPC   C3A11705  10.497  28.388   7.955
 6239POPC   C4A11706  10.499  28.381   7.655
 6239POPC   C1B11707  10.530  28.637   8.555
 6239POPC   C2B11708  10.556  28.633   8.255
 6239POPC   C3B11709  10.551  28.589   7.955
 6239POPC   C4B11710  10.584  28.661   7.655
 6240POPC   NC311711  13.652   2.773   9.455
 6240POPC   PO411712  13.594   2.780   9.155
 6240POPC   GL111713  13.629   2.765   8.855
 6240POPC   GL211714  13.687   2.829   8.855
 6240POPC   C1A11715  13.658   2.750   8.555
 6240POPC   D2A11716  13.639   2.759   8.255
 6240POPC   C3A11717  13.585   2.780   7.955
 6240POPC   C4A11718  13.668   2.772   7.655
 6240POPC   C1B11719  13.875   2.887   8.555
 6240POPC   C2B11720  13.849   2.931   8.255
 6240POPC   C3B11721  13.853   2.870   7.955
 6240POPC   C4B11722  13.836   2.844   7.655
 6241POPC   NC311723  10.517   4.282   9.455
 6241POPC   PO411724  10.510   4.301   9.155
 6241POPC   GL111725  10.495   4.299   8.855
 6241POPC   GL211726  10.626   4.243   8.855
 6241POPC   C1A11727  10.565   4.305   8.555
 6241POPC   D2A11728  10.573   4.304   8.255
 6241POPC   C3A11729  10.573   4.295   7.955
 6241POPC   C4A11730  10.504   4.343   7.655
 6241POPC   C1B11731  10.667   4.145   8.555
 6241POPC   C2B11732  10.730   4.157   8.255
 6241POPC   C3B11733  10.749   4.124   7.955
 6241POPC   C4B11734  10.676   4.174   7.655
 6242POPC   NC311735  36.911   2.033   9.455
 6242POPC   PO411736  36.916   1.998   9.155
 6242POPC   GL111737  36.913   2.009   8.855
 6242POPC   GL211738  37.019   1.934   8.855
 6242POPC   C1A11739  36.854   1.972   8.555
 6242POPC   D2A11740  36.875   2.012   8.255
 6242POPC   C3A11741  36.915   1.956   7.955
 6242POPC   C4A11742  36.924   2.002   7.655
 6242POPC   C1B11743  37.143   1.798   8.555
 6242POPC   C2B11744  37.125   1.820   8.255
 6242POPC   C3B11745  37.091   1.853   7.955
 6242POPC   C4B11746  37.105   1.818   7.655
 6243POPC   NC311747  23.697   8.244   9.455
 6243POPC   PO411748  23.722   8.246   9.155
 6243POPC   GL111749  23.740   8.243   8.855
 6243POPC   GL211750  23.779   8.184   8.855
 6243POPC   C1A11751  23.742   8.169   8.555
 6243POPC   D2A11752  23.705   8.193   8.255
 6243POPC   C3A11753  23.697   8.189   7.955
 6243POPC   C4A11754  23.731   8.234   7.655
 6243POPC   C1B11755  23.944   8.108   8.555
 6243POPC   C2B11756  23.928   8.117   8.255
 6243POPC   C3B11757  23.894   8.061   7.955
 6243POPC   C4B11758  23.890   8.107   7.655
 6244POPC   NC311759  19.854  29.908   9.455
 6244POPC   PO411760  19.803  29.937   9.155
 6244POPC   GL111761  19.882  29.969   8.855
 6244POPC   GL211762  19.957  30.001   8.855
 6244POPC   C1A11763  19.828  29.915   8.555
 6244POPC   D2A11764  19.814  29.917   8.255
 6244POPC   C3A11765  19.884  29.906   7.955
 6244POPC   C4A11766  19.848  29.910   7.655
 6244POPC   C1B11767  20.032  30.030   8.555
 6244POPC   C2B11768  20.072  29.979   8.255
 6244POPC   C3B11769  20.041  29.958   7.955
 6244POPC   C4B11770  20.122  29.968   7.655
 6245POPC   NC311771  32.226  43.894   9.455
 6245POPC   PO411772  32.291  43.928   9.155
 6245POPC   GL111773  32.240  43.923   8.855
 6245POPC   GL211774  32.246  44.011   8.855
 6245POPC   C1A11775  32.239  43.869   8.555
 6245POPC   D2A11776  32.247  43.925   8.255
 6245POPC   C3A11777  32.253  43.925   7.955
 6245POPC   C4A11778  32.211  43.874   7.655
 6245POPC   C1B11779  32.249  44.123   8.555
 6245POPC   C2B11780  32.237  44.101   8.255
 6245POPC   C3B11781  32.279  44.170   7.955
 6245POPC   C4B11782  32.244  44.111   7.655
 6246POPC   NC311783   8.992  22.157   9.455
 6246POPC   PO411784   8.974  22.182   9.155
 6246POPC   GL111785   8.984  22.208   8.855
 6246POPC   GL211786   8.926  22.046   8.855
 6246POPC   C1A11787   8.991  22.159   8.555
 6246POPC   D2A11788   9.019  22.208   8.255
 6246POPC   C3A11789   8.962  22.126   7.955
 6246POPC   C4A11790   9.020  22.160   7.655
 6246POPC   C1B11791   8.790  22.003   8.555
 6246POPC   C2B11792   8.829  21.909   8.255
 6246POPC   C3B11793   8.816  21.936   7.955
 6246POPC   C4B11794   8.804  22.002   7.655
 6247POPC   NC311795  41.552  20.605   9.455
 6247POPC   PO411796  41.587  20.574   9.155
 6247POPC   GL111797  41.514  20.613   8.855
 6247POPC   GL211798  41.482  20.771   8.855
 6247POPC   C1A11799  41.558  20.590   8.555
 6247POPC   D2A11800  41.519  20.636   8.255
 6247POPC   C3A11801  41.607  20.567   7.955
 6247POPC   C4A11802  41.574  20.582   7.655
 6247POPC   C1B11803  41.425  20.876   8.555
 6247POPC   C2B11804  41.437  20.829   8.255
 6247POPC   C3B11805  41.488  20.880   7.955
 6247POPC   C4B11806  41.438  20.821   7.655
 6248POPC   NC311807   9.754  33.847   9.455
 6248POPC   PO411808   9.793  33.806   9.155
 6248POPC   GL111809   9.784  33.834   8.855
 6248POPC   GL211810   9.643  33.716   8.855
 6248POPC   C1A11811   9.760  33.778   8.555
 6248POPC   D2A11812   9.776  33.780   8.255
 6248POPC   C3A11813   9.795  33.769   7.955
 6248POPC   C4A11814   9.762  33.829   7.655
 6248POPC   C1B11815   9.562  33.614   8.555
 6248POPC   C2B11816   9.566  33.687   8.255
 6248POPC   C3B11817   9.527  33.629   7.955
 6248POPC   C4B11818   9.589  33.656   7.655
 6249POPC   NC311819   2.779   1.203   9.455
 6249POPC   PO411820   2.750   1.196   9.155
 6249POPC   GL111821   2.793   1.186   8.855
 6249POPC   GL211822   2.623   1.315   8.855
 6249POPC   C1A11823   2.764   1.182   8.555
 6249POPC   D2A11824   2.722   1.200   8.255
 6249POPC   C3A11825   2.788   1.172   7.955
 6249POPC   C4A11826   2.725   1.169   7.655
 6249POPC   C1B11827   2.548   1.389   8.555
 6249POPC   C2B11828   2.568   1.387   8.255
 6249POPC   C3B11829   2.624   1.373   7.955
 6249POPC   C4B11830   2.567   1.338   7.655
 6250POPC   NC311831  13.578  42.362   9.455
 6250POPC   PO411832  13.672  42.306   9.155
 6250POPC   GL111833  13.613  42.285   8.855
 6250POPC   GL211834  13.559  42.445   8.855
 6250POPC   C1A11835  13.602  42.322   8.555
 6250POPC   D2A11836  13.596  42.361   8.255
 6250POPC   C3A11837  13.618  42.285   7.955
 6250POPC   C4A11838  13.609  42.378   7.655
 6250POPC   C1B11839  13.434  42.517   8.555
 6250POPC   C2B11840  13.484  42.502   8.255
 6250POPC   C3B11841  13.509  42.570   7.955
 6250POPC   C4B11842  13.503  42.560   7.655
 6251POPC   NC311843  27.603  43.900   9.455
 6251POPC   PO411844  27.584  43.885   9.155
 6251POPC   GL111845  27.642  43.930   8.855
 6251POPC   GL211846  27.595  43.964   8.855
 6251POPC   C1A11847  27.612  43.850   8.555
 6251POPC   D2A11848  27.622  43.911   8.255
 6251POPC   C3A11849  27.621  43.853   7.955
 6251POPC   C4A11850  27.625  43.897   7.655
 6251POPC   C1B11851  27.599  44.162   8.555
 6251POPC   C2B11852  27.532  44.163   8.255
 6251POPC   C3B11853  27.581  44.123   7.955
 6251POPC   C4B11854  27.537  44.172   7.655
 6252POPC   NC311855  27.590  22.966   9.455
 6252POPC   PO411856  27.622  22.984   9.155
 6252POPC   GL111857  27.623  22.967   8.855
 6252POPC   GL211858  27.663  23.029   8.855
 6252POPC   C1A11859  27.622  22.922   8.555
 6252POPC   D2A11860  27.638  22.934   8.255
 6252POPC   C3A11861  27.577  22.972   7.955
 6252POPC   C4A11862  27.609  22.949   7.655
 6252POPC   C1B11863  27.775  23.117   8.555
 6252POPC   C2B11864  27.764  23.188   8.255
 6252POPC   C3B11865  27.740  23.153   7.955
 6252POPC   C4B11866  27.721  23.159   7.655
 6253POPC   NC311867  26.799  10.556   9.455
 6253POPC   PO411868  26.783  10.573   9.155
 6253POPC   GL111869  26.845  10.497   8.855
 6253POPC   GL211870  26.862  10.471   8.855
 6253POPC   C1A11871  26.865  10.552   8.555
 6253POPC   D2A11872  26.788  10.502   8.255
 6253POPC   C3A11873  26.770  10.570   7.955
 6253POPC   C4A11874  26.820  10.481   7.655
 6253POPC   C1B11875  26.982  10.340   8.555
 6253POPC   C2B11876  27.015  10.298   8.255
 6253POPC   C3B11877  26.951  10.333   7.955
 6253POPC   C4B11878  27.023  10.329   7.655
 6254POPC   NC311879  24.463  43.839   9.455
 6254POPC   PO411880  24.472  43.908   9.155
 6254POPC   GL111881  24.522  43.908   8.855
 6254POPC   GL211882  24.499  43.970   8.855
 6254POPC   C1A11883  24.465  43.876   8.555
 6254POPC   D2A11884  24.449  43.861   8.255
 6254POPC   C3A11885  24.463  43.895   7.955
 6254POPC   C4A11886  24.480  43.902   7.655
 6254POPC   C1B11887  24.632  44.124   8.555
 6254POPC   C2B11888  24.562  44.158   8.255
 6254POPC   C3B11889  24.605  44.064   7.955
 6254POPC   C4B11890  24.603  44.155   7.655
 6255POPC   NC311891  43.929  43.917   9.455
 6255POPC   PO411892  43.864  43.915   9.155
 6255POPC   GL111893  43.854  43.866   8.855
 6255POPC   GL211894  43.972  43.818   8.855
 6255POPC   C1A11895  43.864  43.901   8.555
 6255POPC   D2A11896  43.906  43.884   8.255
 6255POPC   C3A11897  43.842  43.876   7.955
 6255POPC   C4A11898  43.853  43.896   7.655
 6255POPC   C1B11899  44.042  43.691   8.555
 6255POPC   C2B11900  44.079  43.734   8.255
 6255POPC   C3B11901  44.081  43.686   7.955
 6255POPC   C4B11902  44.104  43.748   7.655
 6256POPC   NC311903  43.900   7.414   9.455
 6256POPC   PO411904  43.847   7.398   9.155
 6256POPC   GL111905  43.911   7.407   8.855
 6256POPC   GL211906  43.869   7.294   8.855
 6256POPC   C1A11907  43.885   7.395   8.555
 6256POPC   D2A11908  43.921   7.406   8.255
 6256POPC   C3A11909  43.932   7.386   7.955
 6256POPC   C4A11910  43.886   7.395   7.655
 6256POPC   C1B11911  43.911   7.152   8.555
 6256POPC   C2B11912  43.882   7.171   8.255
 6256POPC   C3B11913  43.951   7.175   7.955
 6256POPC   C4B11914  43.896   7.208   7.655
 6257POPC   NC311915  14.447  12.079   9.455
 6257POPC   PO411916  14.383  12.036   9.155
 6257POPC   GL111917  14.433  12.115   8.855
 6257POPC   GL211918  14.344  12.152   8.855
 6257POPC   C1A11919  14.378  12.125   8.555
 6257POPC   D2A11920  14.354  12.117   8.255
 6257POPC   C3A11921  14.390  12.069   7.955
 6257POPC   C4A11922  14.446  12.057   7.655
 6257POPC   C1B11923  14.360  12.358   8.555
 6257POPC   C2B11924  14.308  12.320   8.255
 6257POPC   C3B11925  14.354  12.270   7.955
 6257POPC   C4B11926  14.337  12.296   7.655
 6258POPC   NC311927  30.649  12.075   9.455
 6258POPC   PO411928  30.656  12.114   9.155
 6258POPC   GL111929  30.681  12.054   8.855
 6258POPC   GL211930  30.828  12.024   8.855
 6258POPC   C1A11931  30.744  12.115   8.555
 6258POPC   D2A11932  30.686  12.047   8.255
 6258POPC   C3A11933  30.656  12.113   7.955
 6258POPC   C4A11934  30.665  12.046   7.655
 6258POPC   C1B11935  30.922  12.026   8.555
 6258POPC   C2B11936  30.974  12.039   8.255
 6258POPC   C3B11937  30.898  11.967   7.955
 6258POPC   C4B11938  30.900  11.973   7.655
 6259POPC   NC311939  38.499  44.627   9.455
 6259POPC   PO411940  38.498  44.625   9.155
 6259POPC   GL111941  38.447  44.626   8.855
 6259POPC   GL211942  38.437  44.590   8.855
 6259POPC   C1A11943  38.491  44.642   8.555
 6259POPC   D2A11944  38.479  44.682   8.255
 6259POPC   C3A11945  38.469  44.627   7.955
 6259POPC   C4A11946  38.416  44.626   7.655
 6259POPC   C1B11947  38.364  44.475   8.555
 6259POPC   C2B11948  38.317  44.465   8.255
 6259POPC   C3B11949  38.328  44.449   7.955
 6259POPC   C4B11950  38.332  44.447   7.655
 6260POPC   NC311951  42.314  27.581   9.455
 6260POPC   PO411952  42.322  27.572   9.155
 6260POPC   GL111953  42.327  27.547   8.855
 6260POPC   GL211954  42.426  27.719   8.855
 6260POPC   C1A11955  42.369  27.613   8.555
 6260POPC   D2A11956  42.375  27.550   8.255
 6260POPC   C3A11957  42.318  27.582   7.955
 6260POPC   C4A11958  42.302  27.570   7.655
 6260POPC   C1B11959  42.470  27.837   8.555
 6260POPC   C2B11960  42.456  27.799   8.255
 6260POPC   C3B11961  42.398  27.873   7.955
 6260POPC   C4B11962  42.454  27.825   7.655
 6261POPC   NC311963  15.187   1.257   9.455
 6261POPC   PO411964  15.161   1.254   9.155
 6261POPC   GL111965  15.171   1.248   8.855
 6261POPC   GL211966  15.119   1.110   8.855
 6261POPC   C1A11967  15.140   1.188   8.555
 6261POPC   D2A11968  15.149   1.238   8.255
 6261POPC   C3A11969  15.132   1.237   7.955
 6261POPC   C4A11970  15.144   1.174   7.655
 6261POPC   C1B11971  15.086   0.981   8.555
 6261POPC   C2B11972  15.161   0.936   8.255
 6261POPC   C3B11973  15.074   0.923   7.955
 6261POPC   C4B11974  15.081   0.957   7.655
 6262POPC   NC311975   2.724  42.306   9.455
 6262POPC   PO411976   2.770  42.293   9.155
 6262POPC   GL111977   2.806  42.325   8.855
 6262POPC   GL211978   2.642  42.300   8.855
 6262POPC   C1A11979   2.764  42.362   8.555
 6262POPC   D2A11980   2.744  42.372   8.255
 6262POPC   C3A11981   2.800  42.291   7.955
 6262POPC   C4A11982   2.769  42.349   7.655
 6262POPC   C1B11983   2.480  42.275   8.555
 6262POPC   C2B11984   2.553  42.304   8.255
 6262POPC   C3B11985   2.485  42.215   7.955
 6262POPC   C4B11986   2.524  42.213   7.655
 6263POPC   NC311987  17.555  28.411   9.455
 6263POPC   PO411988  17.506  28.414   9.155
 6263POPC   GL111989  17.547  28.417   8.855
 6263POPC   GL211990  17.582  28.387   8.855
 6263POPC   C1A11991  17.497  28.357   8.555
 6263POPC   D2A11992  17.470  28.409   8.255
 6263POPC   C3A11993  17.481  28.407   7.955
 6263POPC   C4A11994  17.491  28.408   7.655
 6263POPC   C1B11995  17.799  28.387   8.555
 6263POPC   C2B11996  17.755  28.313   8.255
 6263POPC   C3B11997  17.754  28.347   7.955
 6263POPC   C4B11998  17.799  28.322   7.655
 6264POPC   NC311999  17.471  33.835   9.455
 6264POPC   PO412000  17.512  33.849   9.155
 6264POPC   GL112001  17.469  33.803   8.855
 6264POPC   GL212002  17.513  33.963   8.855
 6264POPC   C1A12003  17.556  33.761   8.555
 6264POPC   D2A12004  17.549  33.848   8.255
 6264POPC   C3A12005  17.535  33.755   7.955
 6264POPC   C4A12006  17.508  33.751   7.655
 6264POPC   C1B12007  17.570  34.056   8.555
 6264POPC   C2B12008  17.571  34.050   8.255
 6264POPC   C3B12009  17.598  34.078   7.955
 6264POPC   C4B12010  17.632  34.031   7.655
 6265POPC   NC312011   5.127  26.864   9.455
 6265POPC   PO412012   5.140  26.848   9.155
 6265POPC   GL112013   5.121  26.844   8.855
 6265POPC   GL212014   4.955  26.804   8.855
 6265POPC   C1A12015   5.112  26.827   8.555
 6265POPC   D2A12016   5.093  26.866   8.255
 6265POPC   C3A12017   5.129  26.861   7.955
 6265POPC   C4A12018   5.080  26.841   7.655
 6265POPC   C1B12019   4.887  26.727   8.555
 6265POPC   C2B12020   4.859  26.703   8.255
 6265POPC   C3B12021   4.875  26.720   7.955
 6265POPC   C4B12022   4.821  26.769   7.655
 6266POPC   NC312023  27.555  14.452   9.455
 6266POPC   PO412024  27.556  14.430   9.155
 6266POPC   GL112025  27.628  14.429   8.855
 6266POPC   GL212026  27.451  14.416   8.855
 6266POPC   C1A12027  27.594  14.402   8.555
 6266POPC   D2A12028  27.547  14.431   8.255
 6266POPC   C3A12029  27.558  14.419   7.955
 6266POPC   C4A12030  27.559  14.395   7.655
 6266POPC   C1B12031  27.343  14.546   8.555
 6266POPC   C2B12032  27.358  14.508   8.255
 6266POPC   C3B12033  27.355  14.505   7.955
 6266POPC   C4B12034  27.390  14.503   7.655
 6267POPC   NC312035  14.411  33.057   9.455
 6267POPC   PO412036  14.424  33.050   9.155
 6267POPC   GL112037  14.380  33.066   8.855
 6267POPC   GL212038  14.386  33.183   8.855
 6267POPC   C1A12039  14.396  33.062   8.555
 6267POPC   D2A12040  14.374  33.051   8.255
 6267POPC   C3A12041  14.389  33.002   7.955
 6267POPC   C4A12042  14.436  33.049   7.655
 6267POPC   C1B12043  14.406  33.245   8.555
 6267POPC   C2B12044  14.417  33.240   8.255
 6267POPC   C3B12045  14.481  33.311   7.955
 6267POPC   C4B12046  14.442  33.234   7.655
 6268POPC   NC312047   3.545   8.215   9.455
 6268POPC   PO412048   3.532   8.243   9.155
 6268POPC   GL112049   3.505   8.240   8.855
 6268POPC   GL212050   3.524   8.326   8.855
 6268POPC   C1A12051   3.533   8.228   8.555
 6268POPC   D2A12052   3.527   8.199   8.255
 6268POPC   C3A12053   3.566   8.148   7.955
 6268POPC   C4A12054   3.553   8.179   7.655
 6268POPC   C1B12055   3.460   8.385   8.555
 6268POPC   C2B12056   3.424   8.453   8.255
 6268POPC   C3B12057   3.429   8.407   7.955
 6268POPC   C4B12058   3.481   8.454   7.655
 6269POPC   NC312059  15.907   1.984   9.455
 6269POPC   PO412060  15.961   1.975   9.155
 6269POPC   GL112061  15.953   1.944   8.855
 6269POPC   GL212062  16.023   2.080   8.855
 6269POPC   C1A12063  15.980   1.991   8.555
 6269POPC   D2A12064  15.987   2.020   8.255
 6269POPC   C3A12065  15.991   1.976   7.955
 6269POPC   C4A12066  16.002   1.963   7.655
 6269POPC   C1B12067  16.040   2.231   8.555
 6269POPC   C2B12068  16.112   2.190   8.255
 6269POPC   C3B12069  16.110   2.229   7.955
 6269POPC   C4B12070  16.105   2.250   7.655
 6270POPC   NC312071   6.688  19.028   9.455
 6270POPC   PO412072   6.617  19.093   9.155
 6270POPC   GL112073   6.661  19.066   8.855
 6270POPC   GL212074   6.473  19.044   8.855
 6270POPC   C1A12075   6.600  19.108   8.555
 6270POPC   D2A12076   6.671  19.049   8.255
 6270POPC   C3A12077   6.622  19.061   7.955
 6270POPC   C4A12078   6.633  19.021   7.655
 6270POPC   C1B12079   6.386  19.031   8.555
 6270POPC   C2B12080   6.380  19.074   8.255
 6270POPC   C3B12081   6.385  19.066   7.955
 6270POPC   C4B12082   6.413  19.008   7.655
 6271POPC   NC312083  20.561   9.756   9.455
 6271POPC   PO412084  20.635   9.726   9.155
 6271POPC   GL112085  20.640   9.713   8.855
 6271POPC   GL212086  20.482   9.812   8.855
 6271POPC   C1A12087  20.655   9.766   8.555
 6271POPC   D2A12088  20.630   9.773   8.255
 6271POPC   C3A12089  20.608   9.797   7.955
 6271POPC   C4A12090  20.601   9.715   7.655
 6271POPC   C1B12091  20.401   9.868   8.555
 6271POPC   C2B12092  20.383   9.908   8.255
 6271POPC   C3B12093  20.401   9.931   7.955
 6271POPC   C4B12094  20.472   9.931   7.655
 6272POPC   NC312095  16.781   3.533   9.455
 6272POPC   PO412096  16.711   3.528   9.155
 6272POPC   GL112097  16.687   3.584   8.855
 6272POPC   GL212098  16.755   3.416   8.855
 6272POPC   C1A12099  16.702   3.536   8.555
 6272POPC   D2A12100  16.682   3.578   8.255
 6272POPC   C3A12101  16.740   3.520   7.955
 6272POPC   C4A12102  16.690   3.525   7.655
 6272POPC   C1B12103  16.649   3.256   8.555
 6272POPC   C2B12104  16.645   3.279   8.255
 6272POPC   C3B12105  16.703   3.305   7.955
 6272POPC   C4B12106  16.651   3.279   7.655
 6273POPC   NC312107  12.098   8.214   9.455
 6273POPC   PO412108  12.057   8.217   9.155
 6273POPC   GL112109  12.062   8.244   8.855
 6273POPC   GL212110  12.043   8.265   8.855
 6273POPC   C1A12111  12.081   8.158   8.555
 6273POPC   D2A12112  12.066   8.156   8.255
 6273POPC   C3A12113  12.072   8.189   7.955
 6273POPC   C4A12114  12.117   8.207   7.655
 6273POPC   C1B12115  12.011   8.476   8.555
 6273POPC   C2B12116  11.986   8.424   8.255
 6273POPC   C3B12117  11.967   8.383   7.955
 6273POPC   C4B12118  12.035   8.385   7.655
 6274POPC   NC312119  28.415   0.482   9.455
 6274POPC   PO412120  28.389   0.457   9.155
 6274POPC   GL112121  28.387   0.408   8.855
 6274POPC   GL212122  28.458   0.401   8.855
 6274POPC   C1A12123  28.387   0.425   8.555
 6274POPC   D2A12124  28.396   0.452   8.255
 6274POPC   C3A12125  28.415   0.415   7.955
 6274POPC   C4A12126  28.380   0.442   7.655
 6274POPC   C1B12127  28.593   0.422   8.555
 6274POPC   C2B12128  28.635   0.405   8.255
 6274POPC   C3B12129  28.641   0.377   7.955
 6274POPC   C4B12130  28.614   0.410   7.655
 6275POPC   NC312131  28.369   1.983   9.455
 6275POPC   PO412132  28.329   2.028   9.155
 6275POPC   GL112133  28.364   1.978   8.855
 6275POPC   GL212134  28.314   1.828   8.855
 6275POPC   C1A12135  28.326   1.981   8.555
 6275POPC   D2A12136  28.323   1.957   8.255
 6275POPC   C3A12137  28.406   1.962   7.955
 6275POPC   C4A12138  28.374   2.018   7.655
 6275POPC   C1B12139  28.337   1.716   8.555
 6275POPC   C2B12140  28.289   1.735   8.255
 6275POPC   C3B12141  28.334   1.715   7.955
 6275POPC   C4B12142  28.360   1.766   7.655
 6276POPC   NC312143  20.570  35.347   9.455
 6276POPC   PO412144  20.660  35.306   9.155
 6276POPC   GL112145  20.610  35.325   8.855
 6276POPC   GL212146  20.617  35.467   8.855
 6276POPC   C1A12147  20.598  35.367   8.555
 6276POPC   D2A12148  20.579  35.320   8.255
 6276POPC   C3A12149  20.619  35.304   7.955
 6276POPC   C4A12150  20.656  35.370   7.655
 6276POPC   C1B12151  20.760  35.570   8.555
 6276POPC   C2B12152  20.723  35.612   8.255
 6276POPC   C3B12153  20.757  35.541   7.955
 6276POPC   C4B12154  20.734  35.573   7.655
 6277POPC   NC312155  42.364   1.210   9.455
 6277POPC   PO412156  42.354   1.186   9.155
 6277POPC   GL112157  42.321   1.201   8.855
 6277POPC   GL212158  42.426   1.308   8.855
 6277POPC   C1A12159  42.291   1.197   8.555
 6277POPC   D2A12160  42.377   1.243   8.255
 6277POPC   C3A12161  42.339   1.189   7.955
 6277POPC   C4A12162  42.366   1.214   7.655
 6277POPC   C1B12163  42.420   1.437   8.555
 6277POPC   C2B12164  42.398   1.473   8.255
 6277POPC   C3B12165  42.475   1.425   7.955
 6277POPC   C4B12166  42.386   1.404   7.655
 6278POPC   NC312167  44.647  26.040   9.455
 6278POPC   PO412168  44.662  26.018   9.155
 6278POPC   GL112169  44.645  26.000   8.855
 6278POPC   GL212170  44.613  25.912   8.855
 6278POPC   C1A12171  44.660  26.056   8.555
 6278POPC   D2A12172  44.685  26.069   8.255
 6278POPC   C3A12173  44.710  26.042   7.955
 6278POPC   C4A12174  44.652  26.025   7.655
 6278POPC   C1B12175  44.451  25.867   8.555
 6278POPC   C2B12176  44.481  25.895   8.255
 6278POPC   C3B12177  44.440  25.908   7.955
 6278POPC   C4B12178  44.448  25.868   7.655
 6279POPC   NC312179  30.735  43.068   9.455
 6279POPC   PO412180  30.668  43.140   9.155
 6279POPC   GL112181  30.671  43.101   8.855
 6279POPC   GL212182  30.744  43.056   8.855
 6279POPC   C1A12183  30.685  43.149   8.555
 6279POPC   D2A12184  30.648  43.100   8.255
 6279POPC   C3A12185  30.711  43.073   7.955
 6279POPC   C4A12186  30.652  43.098   7.655
 6279POPC   C1B12187  30.894  42.951   8.555
 6279POPC   C2B12188  30.887  42.897   8.255
 6279POPC   C3B12189  30.863  42.927   7.955
 6279POPC   C4B12190  30.927  42.945   7.655
 6280POPC   NC312191  41.603  44.670   9.455
 6280POPC   PO412192  41.608  44.648   9.155
 6280POPC   GL112193  41.543  44.658   8.855
 6280POPC   GL212194  41.669  44.706   8.855
 6280POPC   C1A12195  41.603  44.670   8.555
 6280POPC   D2A12196  41.519  44.659   8.255
 6280POPC   C3A12197  41.583  44.678   7.955
 6280POPC   C4A12198  41.562  44.643   7.655
 6280POPC   C1B12199  41.771  44.761   8.555
 6280POPC   C2B12200  41.840  44.729   8.255
 6280POPC   C3B12201  41.830  44.708   7.955
 6280POPC   C4B12202  41.819  44.791   7.655
 6281POPC   NC312203  44.630  44.645   9.455
 6281POPC   PO412204  44.673  44.626   9.155
 6281POPC   GL112205  44.661  44.642   8.855
 6281POPC   GL212206  44.762  44.545   8.855
 6281POPC   C1A12207  44.646  44.651   8.555
 6281POPC   D2A12208  44.643  44.633   8.255
 6281POPC   C3A12209  44.666  44.631   7.955
 6281POPC   C4A12210  44.625  44.696   7.655
 6281POPC   C1B12211  44.832  44.434   8.555
 6281POPC   C2B12212  44.820  44.487   8.255
 6281POPC   C3B12213  44.864  44.522   7.955
 6281POPC   C4B12214  44.866  44.456   7.655
 6282POPC   NC312215  41.528  29.923   9.455
 6282POPC   PO412216  41.581  29.900   9.155
 6282POPC   GL112217  41.600  29.913   8.855
 6282POPC   GL212218  41.514  30.063   8.855
 6282POPC   C1A12219  41.547  29.919   8.555
 6282POPC   D2A12220  41.542  29.966   8.255
 6282POPC   C3A12221  41.550  29.899   7.955
 6282POPC   C4A12222  41.535  29.955   7.655
 6282POPC   C1B12223  41.560  30.212   8.555
 6282POPC   C2B12224  41.531  30.134   8.255
 6282POPC   C3B12225  41.566  30.206   7.955
 6282POPC   C4B12226  41.519  30.198   7.655
 6283POPC   NC312227  38.455  22.955   9.455
 6283POPC   PO412228  38.426  22.929   9.155
 6283POPC   GL112229  38.409  22.943   8.855
 6283POPC   GL212230  38.386  23.094   8.855
 6283POPC   C1A12231  38.413  22.914   8.555
 6283POPC   D2A12232  38.430  22.890   8.255
 6283POPC   C3A12233  38.482  22.986   7.955
 6283POPC   C4A12234  38.428  22.953   7.655
 6283POPC   C1B12235  38.451  23.168   8.555
 6283POPC   C2B12236  38.409  23.139   8.255
 6283POPC   C3B12237  38.364  23.140   7.955
 6283POPC   C4B12238  38.366  23.218   7.655
 6284POPC   NC312239  33.073   7.459   9.455
 6284POPC   PO412240  33.040   7.465   9.155
 6284POPC   GL112241  32.986   7.382   8.855
 6284POPC   GL212242  33.110   7.329   8.855
 6284POPC   C1A12243  33.030   7.422   8.555
 6284POPC   D2A12244  33.072   7.385   8.255
 6284POPC   C3A12245  32.978   7.440   7.955
 6284POPC   C4A12246  33.006   7.460   7.655
 6284POPC   C1B12247  33.092   7.183   8.555
 6284POPC   C2B12248  33.072   7.171   8.255
 6284POPC   C3B12249  33.140   7.189   7.955
 6284POPC   C4B12250  33.144   7.164   7.655
 6285POPC   NC312251  34.569  34.623   9.455
 6285POPC   PO412252  34.616  34.617   9.155
 6285POPC   GL112253  34.551  34.570   8.855
 6285POPC   GL212254  34.629  34.722   8.855
 6285POPC   C1A12255  34.560  34.553   8.555
 6285POPC   D2A12256  34.601  34.596   8.255
 6285POPC   C3A12257  34.543  34.571   7.955
 6285POPC   C4A12258  34.576  34.555   7.655
 6285POPC   C1B12259  34.649  34.843   8.555
 6285POPC   C2B12260  34.689  34.767   8.255
 6285POPC   C3B12261  34.703  34.811   7.955
 6285POPC   C4B12262  34.710  34.769   7.655
 6286POPC   NC312263  42.381  22.928   9.455
 6286POPC   PO412264  42.369  22.943   9.155
 6286POPC   GL112265  42.350  22.958   8.855
 6286POPC   GL212266  42.387  22.797   8.855
 6286POPC   C1A12267  42.297  22.981   8.555
 6286POPC   D2A12268  42.371  22.968   8.255
 6286POPC   C3A12269  42.313  22.938   7.955
 6286POPC   C4A12270  42.374  22.979   7.655
 6286POPC   C1B12271  42.443  22.676   8.555
 6286POPC   C2B12272  42.395  22.666   8.255
 6286POPC   C3B12273  42.426  22.684   7.955
 6286POPC   C4B12274  42.427  22.759   7.655
 6287POPC   NC312275  42.362  25.253   9.455
 6287POPC   PO412276  42.371  25.239   9.155
 6287POPC   GL112277  42.305  25.282   8.855
 6287POPC   GL212278  42.253  25.130   8.855
 6287POPC   C1A12279  42.362  25.247   8.555
 6287POPC   D2A12280  42.375  25.310   8.255
 6287POPC   C3A12281  42.349  25.281   7.955
 6287POPC   C4A12282  42.318  25.288   7.655
 6287POPC   C1B12283  42.138  25.128   8.555
 6287POPC   C2B12284  42.191  25.107   8.255
 6287POPC   C3B12285  42.193  25.045   7.955
 6287POPC   C4B12286  42.145  25.086   7.655
 6288POPC   NC312287  12.117  13.613   9.455
 6288POPC   PO412288  12.116  13.633   9.155
 6288POPC   GL112289  12.064  13.584   8.855
 6288POPC   GL212290  12.187  13.657   8.855
 6288POPC   C1A12291  12.046  13.579   8.555
 6288POPC   D2A12292  12.069  13.672   8.255
 6288POPC   C3A12293  12.043  13.676   7.955
 6288POPC   C4A12294  12.095  13.657   7.655
 6288POPC   C1B12295  12.359  13.741   8.555
 6288POPC   C2B12296  12.336  13.689   8.255
 6288POPC   C3B12297  12.284  13.687   7.955
 6288POPC   C4B12298  12.351  13.722   7.655
 6289POPC   NC312299  38.502  15.996   9.455
 6289POPC   PO412300  38.427  15.995   9.155
 6289POPC   GL112301  38.447  15.978   8.855
 6289POPC   GL212302  38.468  15.787   8.855
 6289POPC   C1A12303  38.427  15.935   8.555
 6289POPC   D2A12304  38.461  15.929   8.255
 6289POPC   C3A12305  38.439  15.982   7.955
 6289POPC   C4A12306  38.456  15.926   7.655
 6289POPC   C1B12307  38.452  15.659   8.555
 6289POPC   C2B12308  38.462  15.694   8.255
 6289POPC   C3B12309  38.493  15.668   7.955
 6289POPC   C4B12310  38.469  15.720   7.655
 6290POPC   NC312311  40.775  37.659   9.455
 6290POPC   PO412312  40.760  37.681   9.155
 6290POPC   GL112313  40.810  37.668   8.855
 6290POPC   GL212314  40.705  37.575   8.855
 6290POPC   C1A12315  40.750  37.641   8.555
 6290POPC   D2A12316  40.796  37.704   8.255
 6290POPC   C3A12317  40.777  37.711   7.955
 6290POPC   C4A12318  40.833  37.674   7.655
 6290POPC   C1B12319  40.605  37.567   8.555
 6290POPC   C2B12320  40.569  37.564   8.255
 6290POPC   C3B12321  40.559  37.550   7.955
 6290POPC   C4B12322  40.554  37.506   7.655
 6291POPC   NC312323  43.140   5.102   9.455
 6291POPC   PO412324  43.076   5.091   9.155
 6291POPC   GL112325  43.132   5.077   8.855
 6291POPC   GL212326  43.128   4.923   8.855
 6291POPC   C1A12327  43.061   5.086   8.555
 6291POPC   D2A12328  43.071   5.117   8.255
 6291POPC   C3A12329  43.081   5.072   7.955
 6291POPC   C4A12330  43.092   5.095   7.655
 6291POPC   C1B12331  43.168   4.799   8.555
 6291POPC   C2B12332  43.125   4.885   8.255
 6291POPC   C3B12333  43.133   4.880   7.955
 6291POPC   C4B12334  43.120   4.817   7.655
 6292POPC   NC312335  38.416  16.750   9.455
 6292POPC   PO412336  38.465  16.761   9.155
 6292POPC   GL112337  38.473  16.727   8.855
 6292POPC   GL212338  38.478  16.667   8.855
 6292POPC   C1A12339  38.450  16.735   8.555
 6292POPC   D2A12340  38.412  16.751   8.255
 6292POPC   C3A12341  38.423  16.684   7.955
 6292POPC   C4A12342  38.430  16.731   7.655
 6292POPC   C1B12343  38.612  16.544   8.555
 6292POPC   C2B12344  38.644  16.483   8.255
 6292POPC   C3B12345  38.581  16.526   7.955
 6292POPC   C4B12346  38.608  16.556   7.655
 6293POPC   NC312347  22.921  10.568   9.455
 6293POPC   PO412348  22.983  10.485   9.155
 6293POPC   GL112349  22.902  10.533   8.855
 6293POPC   GL212350  22.837  10.425   8.855
 6293POPC   C1A12351  22.926  10.519   8.555
 6293POPC   D2A12352  22.953  10.553   8.255
 6293POPC   C3A12353  22.962  10.571   7.955
 6293POPC   C4A12354  22.980  10.530   7.655
 6293POPC   C1B12355  22.728  10.461   8.555
 6293POPC   C2B12356  22.661  10.470   8.255
 6293POPC   C3B12357  22.712  10.410   7.955
 6293POPC   C4B12358  22.669  10.413   7.655
 6294POPC   NC312359   9.738   3.578   9.455
 6294POPC   PO412360   9.704   3.547   9.155
 6294POPC   GL112361   9.734   3.561   8.855
 6294POPC   GL212362   9.667   3.487   8.855
 6294POPC   C1A12363   9.724   3.542   8.555
 6294POPC   D2A12364   9.791   3.589   8.255
 6294POPC   C3A12365   9.735   3.551   7.955
 6294POPC   C4A12366   9.786   3.573   7.655
 6294POPC   C1B12367   9.527   3.569   8.555
 6294POPC   C2B12368   9.504   3.568   8.255
 6294POPC   C3B12369   9.461   3.522   7.955
 6294POPC   C4B12370   9.471   3.560   7.655
 6295POPC   NC312371  27.627  29.929   9.455
 6295POPC   PO412372  27.624  29.948   9.155
 6295POPC   GL112373  27.567  29.887   8.855
 6295POPC   GL212374  27.704  29.937   8.855
 6295POPC   C1A12375  27.568  29.940   8.555
 6295POPC   D2A12376  27.555  29.929   8.255
 6295POPC   C3A12377  27.637  29.928   7.955
 6295POPC   C4A12378  27.585  29.925   7.655
 6295POPC   C1B12379  27.856  29.887   8.555
 6295POPC   C2B12380  27.850  29.865   8.255
 6295POPC   C3B12381  27.836  29.909   7.955
 6295POPC   C4B12382  27.873  29.849   7.655
 6296POPC   NC312383   4.284   0.486   9.455
 6296POPC   PO412384   4.297   0.454   9.155
 6296POPC   GL112385   4.367   0.445   8.855
 6296POPC   GL212386   4.398   0.404   8.855
 6296POPC   C1A12387   4.311   0.391   8.555
 6296POPC   D2A12388   4.314   0.406   8.255
 6296POPC   C3A12389   4.307   0.465   7.955
 6296POPC   C4A12390   4.292   0.436   7.655
 6296POPC   C1B12391   4.554   0.246   8.555
 6296POPC   C2B12392   4.554   0.324   8.255
 6296POPC   C3B12393   4.528   0.273   7.955
 6296POPC   C4B12394   4.476   0.295   7.655
 6297POPC   NC312395  40.745  13.592   9.455
 6297POPC   PO412396  40.765  13.596   9.155
 6297POPC   GL112397  40.750  13.664   8.855
 6297POPC   GL212398  40.698  13.531   8.855
 6297POPC   C1A12399  40.830  13.613   8.555
 6297POPC   D2A12400  40.770  13.651   8.255
 6297POPC   C3A12401  40.742  13.665   7.955
 6297POPC   C4A12402  40.787  13.645   7.655
 6297POPC   C1B12403  40.605  13.513   8.555
 6297POPC   C2B12404  40.565  13.475   8.255
 6297POPC   C3B12405  40.573  13.457   7.955
 6297POPC   C4B12406  40.558  13.482   7.655
 6298POPC   NC312407  26.025  19.796   9.455
 6298POPC   PO412408  26.048  19.836   9.155
 6298POPC   GL112409  26.017  19.830   8.855
 6298POPC   GL212410  26.001  19.697   8.855
 6298POPC   C1A12411  25.992  19.837   8.555
 6298POPC   D2A12412  26.034  19.880   8.255
 6298POPC   C3A12413  26.052  19.841   7.955
 6298POPC   C4A12414  25.999  19.800   7.655
 6298POPC   C1B12415  26.102  19.634   8.555
 6298POPC   C2B12416  26.003  19.561   8.255
 6298POPC   C3B12417  26.003  19.581   7.955
 6298POPC   C4B12418  26.082  19.626   7.655
 6299POPC   NC312419  42.313  26.025   9.455
 6299POPC   PO412420  42.363  26.033   9.155
 6299POPC   GL112421  42.325  26.076   8.855
 6299POPC   GL212422  42.173  26.043   8.855
 6299POPC   C1A12423  42.360  26.033   8.555
 6299POPC   D2A12424  42.300  26.003   8.255
 6299POPC   C3A12425  42.356  26.024   7.955
 6299POPC   C4A12426  42.364  26.011   7.655
 6299POPC   C1B12427  42.097  25.951   8.555
 6299POPC   C2B12428  42.076  25.914   8.255
 6299POPC   C3B12429  42.058  25.971   7.955
 6299POPC   C4B12430  42.092  26.006   7.655
 6300POPC   NC312431  29.135   1.232   9.455
 6300POPC   PO412432  29.145   1.210   9.155
 6300POPC   GL112433  29.189   1.235   8.855
 6300POPC   GL212434  29.221   1.134   8.855
 6300POPC   C1A12435  29.112   1.256   8.555
 6300POPC   D2A12436  29.157   1.212   8.255
 6300POPC   C3A12437  29.191   1.186   7.955
 6300POPC   C4A12438  29.127   1.188   7.655
 6300POPC   C1B12439  29.409   1.083   8.555
 6300POPC   C2B12440  29.383   1.096   8.255
 6300POPC   C3B12441  29.406   1.047   7.955
 6300POPC   C4B12442  29.323   1.078   7.655
 6301POPC   NC312443  21.376   6.601   9.455
 6301POPC   PO412444  21.426   6.613   9.155
 6301POPC   GL112445  21.344   6.616   8.855
 6301POPC   GL212446  21.281   6.695   8.855
 6301POPC   C1A12447  21.389   6.637   8.555
 6301POPC   D2A12448  21.348   6.652   8.255
 6301POPC   C3A12449  21.423   6.623   7.955
 6301POPC   C4A12450  21.432   6.625   7.655
 6301POPC   C1B12451  21.201   6.872   8.555
 6301POPC   C2B12452  21.252   6.800   8.255
 6301POPC   C3B12453  21.248   6.828   7.955
 6301POPC   C4B12454  21.194   6.812   7.655
 6302POPC   NC312455   6.615  20.595   9.455
 6302POPC   PO412456   6.600  20.653   9.155
 6302POPC   GL112457   6.640  20.582   8.855
 6302POPC   GL212458   6.525  20.523   8.855
 6302POPC   C1A12459   6.694  20.641   8.555
 6302POPC   D2A12460   6.634  20.633   8.255
 6302POPC   C3A12461   6.603  20.609   7.955
 6302POPC   C4A12462   6.613  20.629   7.655
 6302POPC   C1B12463   6.505  20.391   8.555
 6302POPC   C2B12464   6.508  20.449   8.255
 6302POPC   C3B12465   6.508  20.432   7.955
 6302POPC   C4B12466   6.505  20.470   7.655
 6303POPC   NC312467  27.577   8.233   9.455
 6303POPC   PO412468  27.572   8.169   9.155
 6303POPC   GL112469  27.613   8.211   8.855
 6303POPC   GL212470  27.754   8.216   8.855
 6303POPC   C1A12471  27.585   8.218   8.555
 6303POPC   D2A12472  27.625   8.185   8.255
 6303POPC   C3A12473  27.624   8.226   7.955
 6303POPC   C4A12474  27.564   8.151   7.655
 6303POPC   C1B12475  27.884   8.171   8.555
 6303POPC   C2B12476  27.891   8.165   8.255
 6303POPC   C3B12477  27.838   8.151   7.955
 6303POPC   C4B12478  27.875   8.219   7.655
 6304POPC   NC312479  23.695   7.416   9.455
 6304POPC   PO412480  23.757   7.432   9.155
 6304POPC   GL112481  23.682   7.449   8.855
 6304POPC   GL212482  23.857   7.398   8.855
 6304POPC   C1A12483  23.675   7.408   8.555
 6304POPC   D2A12484  23.719   7.398   8.255
 6304POPC   C3A12485  23.751   7.423   7.955
 6304POPC   C4A12486  23.708   7.426   7.655
 6304POPC   C1B12487  23.916   7.439   8.555
 6304POPC   C2B12488  23.953   7.451   8.255
 6304POPC   C3B12489  23.974   7.480   7.955
 6304POPC   C4B12490  23.977   7.493   7.655
 6305POPC   NC312491  13.661  44.636   9.455
 6305POPC   PO412492  13.673  44.688   9.155
 6305POPC   GL112493  13.652  44.614   8.855
 6305POPC   GL212494  13.508  44.613   8.855
 6305POPC   C1A12495  13.635  44.649   8.555
 6305POPC   D2A12496  13.644  44.638   8.255
 6305POPC   C3A12497  13.644  44.678   7.955
 6305POPC   C4A12498  13.632  44.705   7.655
 6305POPC   C1B12499  13.477  44.461   8.555
 6305POPC   C2B12500  13.473  44.511   8.255
 6305POPC   C3B12501  13.497  44.467   7.955
 6305POPC   C4B12502  13.488  44.489   7.655
 6306POPC   NC312503  15.157  13.626   9.455
 6306POPC   PO412504  15.218  13.578   9.155
 6306POPC   GL112505  15.209  13.635   8.855
 6306POPC   GL212506  15.099  13.650   8.855
 6306POPC   C1A12507  15.137  13.592   8.555
 6306POPC   D2A12508  15.130  13.636   8.255
 6306POPC   C3A12509  15.140  13.581   7.955
 6306POPC   C4A12510  15.175  13.632   7.655
 6306POPC   C1B12511  14.937  13.648   8.555
 6306POPC   C2B12512  14.946  13.655   8.255
 6306POPC   C3B12513  14.956  13.653   7.955
 6306POPC   C4B12514  14.922  13.584   7.655
 6307POPC   NC312515  14.413  19.015   9.455
 6307POPC   PO412516  14.367  19.015   9.155
 6307POPC   GL112517  14.363  19.067   8.855
 6307POPC   GL212518  14.451  19.131   8.855
 6307POPC   C1A12519  14.408  19.063   8.555
 6307POPC   D2A12520  14.360  19.074   8.255
 6307POPC   C3A12521  14.401  19.061   7.955
 6307POPC   C4A12522  14.416  19.082   7.655
 6307POPC   C1B12523  14.458  19.285   8.555
 6307POPC   C2B12524  14.452  19.303   8.255
 6307POPC   C3B12525  14.426  19.273   7.955
 6307POPC   C4B12526  14.517  19.279   7.655
 6308POPC   NC312527  11.300  12.074   9.455
 6308POPC   PO412528  11.273  12.103   9.155
 6308POPC   GL112529  11.311  12.053   8.855
 6308POPC   GL212530  11.382  11.940   8.855
 6308POPC   C1A12531  11.327  12.120   8.555
 6308POPC   D2A12532  11.284  12.112   8.255
 6308POPC   C3A12533  11.250  12.082   7.955
 6308POPC   C4A12534  11.325  12.122   7.655
 6308POPC   C1B12535  11.408  11.854   8.555
 6308POPC   C2B12536  11.443  11.851   8.255
 6308POPC   C3B12537  11.451  11.805   7.955
 6308POPC   C4B12538  11.441  11.856   7.655
 6309POPC   NC312539   6.616  37.676   9.455
 6309POPC   PO412540   6.687  37.669   9.155
 6309POPC   GL112541   6.671  37.712   8.855
 6309POPC   GL212542   6.812  37.625   8.855
 6309POPC   C1A12543   6.596  37.646   8.555
 6309POPC   D2A12544   6.601  37.706   8.255
 6309POPC   C3A12545   6.641  37.653   7.955
 6309POPC   C4A12546   6.646  37.718   7.655
 6309POPC   C1B12547   6.879  37.614   8.555
 6309POPC   C2B12548   6.916  37.670   8.255
 6309POPC   C3B12549   6.867  37.606   7.955
 6309POPC   C4B12550   6.895  37.663   7.655
 6310POPC   NC312551   8.190  38.479   9.455
 6310POPC   PO412552   8.152  38.465   9.155
 6310POPC   GL112553   8.156  38.427   8.855
 6310POPC   GL212554   8.117  38.426   8.855
 6310POPC   C1A12555   8.193  38.501   8.555
 6310POPC   D2A12556   8.243  38.405   8.255
 6310POPC   C3A12557   8.159  38.457   7.955
 6310POPC   C4A12558   8.217  38.424   7.655
 6310POPC   C1B12559   7.919  38.419   8.555
 6310POPC   C2B12560   7.954  38.401   8.255
 6310POPC   C3B12561   8.005  38.405   7.955
 6310POPC   C4B12562   7.992  38.364   7.655
 6311POPC   NC312563  12.096  29.881   9.455
 6311POPC   PO412564  12.029  29.954   9.155
 6311POPC   GL112565  12.072  29.926   8.855
 6311POPC   GL212566  11.964  29.805   8.855
 6311POPC   C1A12567  12.091  29.951   8.555
 6311POPC   D2A12568  12.034  29.873   8.255
 6311POPC   C3A12569  12.048  29.906   7.955
 6311POPC   C4A12570  12.071  29.942   7.655
 6311POPC   C1B12571  11.927  29.712   8.555
 6311POPC   C2B12572  11.965  29.692   8.255
 6311POPC   C3B12573  11.925  29.728   7.955
 6311POPC   C4B12574  11.945  29.764   7.655
 6312POPC   NC312575  22.917   6.672   9.455
 6312POPC   PO412576  22.944   6.671   9.155
 6312POPC   GL112577  22.984   6.664   8.855
 6312POPC   GL212578  22.881   6.812   8.855
 6312POPC   C1A12579  22.932   6.640   8.555
 6312POPC   D2A12580  22.923   6.599   8.255
 6312POPC   C3A12581  22.957   6.644   7.955
 6312POPC   C4A12582  22.938   6.684   7.655
 6312POPC   C1B12583  22.911   6.888   8.555
 6312POPC   C2B12584  22.907   6.891   8.255
 6312POPC   C3B12585  22.844   6.906   7.955
 6312POPC   C4B12586  22.907   6.851   7.655
 6313POPC   NC312587  12.028   5.863   9.455
 6313POPC   PO412588  12.093   5.899   9.155
 6313POPC   GL112589  12.045   5.918   8.855
 6313POPC   GL212590  12.197   5.797   8.855
 6313POPC   C1A12591  12.087   5.831   8.555
 6313POPC   D2A12592  12.061   5.884   8.255
 6313POPC   C3A12593  12.069   5.824   7.955
 6313POPC   C4A12594  12.119   5.906   7.655
 6313POPC   C1B12595  12.299   5.790   8.555
 6313POPC   C2B12596  12.317   5.748   8.255
 6313POPC   C3B12597  12.326   5.801   7.955
 6313POPC   C4B12598  12.285   5.776   7.655
 6314POPC   NC312599  17.528  42.316   9.455
 6314POPC   PO412600  17.464  42.374   9.155
 6314POPC   GL112601  17.478  42.305   8.855
 6314POPC   GL212602  17.370  42.303   8.855
 6314POPC   C1A12603  17.488  42.352   8.555
 6314POPC   D2A12604  17.529  42.294   8.255
 6314POPC   C3A12605  17.536  42.306   7.955
 6314POPC   C4A12606  17.511  42.304   7.655
 6314POPC   C1B12607  17.271  42.245   8.555
 6314POPC   C2B12608  17.227  42.269   8.255
 6314POPC   C3B12609  17.302  42.242   7.955
 6314POPC   C4B12610  17.265  42.269   7.655
 6315POPC   NC312611  16.749  26.846   9.455
 6315POPC   PO412612  16.777  26.855   9.155
 6315POPC   GL112613  16.708  26.789   8.855
 6315POPC   GL212614  16.799  26.917   8.855
 6315POPC   C1A12615  16.727  26.831   8.555
 6315POPC   D2A12616  16.770  26.807   8.255
 6315POPC   C3A12617  16.746  26.812   7.955
 6315POPC   C4A12618  16.772  26.787   7.655
 6315POPC   C1B12619  16.863  27.039   8.555
 6315POPC   C2B12620  16.859  27.022   8.255
 6315POPC   C3B12621  16.909  26.979   7.955
 6315POPC   C4B12622  16.865  27.038   7.655
 6316POPC   NC312623  41.557   4.302   9.455
 6316POPC   PO412624  41.521   4.269   9.155
 6316POPC   GL112625  41.582   4.281   8.855
 6316POPC   GL212626  41.683   4.286   8.855
 6316POPC   C1A12627  41.552   4.268   8.555
 6316POPC   D2A12628  41.529   4.349   8.255
 6316POPC   C3A12629  41.579   4.334   7.955
 6316POPC   C4A12630  41.600   4.309   7.655
 6316POPC   C1B12631  41.763   4.286   8.555
 6316POPC   C2B12632  41.773   4.329   8.255
 6316POPC   C3B12633  41.759   4.299   7.955
 6316POPC   C4B12634  41.803   4.290   7.655
 6317POPC   NC312635  16.751  29.191   9.455
 6317POPC   PO412636  16.739  29.189   9.155
 6317POPC   GL112637  16.747  29.109   8.855
 6317POPC   GL212638  16.759  29.263   8.855
 6317POPC   C1A12639  16.756  29.122   8.555
 6317POPC   D2A12640  16.725  29.150   8.255
 6317POPC   C3A12641  16.755  29.151   7.955
 6317POPC   C4A12642  16.773  29.171   7.655
 6317POPC   C1B12643  16.705  29.345   8.555
 6317POPC   C2B12644  16.753  29.392   8.255
 6317POPC   C3B12645  16.743  29.355   7.955
 6317POPC   C4B12646  16.762  29.410   7.655
 6318POPC   NC312647  17.507  22.162   9.455
 6318POPC   PO412648  17.507  22.212   9.155
 6318POPC   GL112649  17.521  22.187   8.855
 6318POPC   GL212650  17.606  22.239   8.855
 6318POPC   C1A12651  17.462  22.187   8.555
 6318POPC   D2A12652  17.463  22.134   8.255
 6318POPC   C3A12653  17.493  22.113   7.955
 6318POPC   C4A12654  17.528  22.144   7.655
 6318POPC   C1B12655  17.604  22.363   8.555
 6318POPC   C2B12656  17.600  22.389   8.255
 6318POPC   C3B12657  17.587  22.378   7.955
 6318POPC   C4B12658  17.638  22.340   7.655
 6319POPC   NC312659  27.584  17.470   9.455
 6319POPC   PO412660  27.590  17.488   9.155
 6319POPC   GL112661  27.643  17.498   8.855
 6319POPC   GL212662  27.737  17.540   8.855
 6319POPC   C1A12663  27.564  17.458   8.555
 6319POPC   D2A12664  27.597  17.520   8.255
 6319POPC   C3A12665  27.591  17.496   7.955
 6319POPC   C4A12666  27.567  17.510   7.655
 6319POPC   C1B12667  27.886  17.528   8.555
 6319POPC   C2B12668  27.866  17.554   8.255
 6319POPC   C3B12669  27.887  17.538   7.955
 6319POPC   C4B12670  27.806  17.524   7.655
 6320POPC   NC312671  36.882  22.151   9.455
 6320POPC   PO412672  36.949  22.120   9.155
 6320POPC   GL112673  36.894  22.166   8.855
 6320POPC   GL212674  36.790  22.171   8.855
 6320POPC   C1A12675  36.856  22.202   8.555
 6320POPC   D2A12676  36.942  22.156   8.255
 6320POPC   C3A12677  36.887  22.185   7.955
 6320POPC   C4A12678  36.880  22.123   7.655
 6320POPC   C1B12679  36.658  22.176   8.555
 6320POPC   C2B12680  36.689  22.189   8.255
 6320POPC   C3B12681  36.664  22.163   7.955
 6320POPC   C4B12682  36.654  22.105   7.655
 6321POPC   NC312683   4.302  10.533   9.455
 6321POPC   PO412684   4.352  10.541   9.155
 6321POPC   GL112685   4.355  10.568   8.855
 6321POPC   GL212686   4.303  10.590   8.855
 6321POPC   C1A12687   4.281  10.521   8.555
 6321POPC   D2A12688   4.354  10.523   8.255
 6321POPC   C3A12689   4.274  10.518   7.955
 6321POPC   C4A12690   4.331  10.499   7.655
 6321POPC   C1B12691   4.249  10.745   8.555
 6321POPC   C2B12692   4.161  10.708   8.255
 6321POPC   C3B12693   4.175  10.703   7.955
 6321POPC   C4B12694   4.233  10.716   7.655
 6322POPC   NC312695  17.503  20.654   9.455
 6322POPC   PO412696  17.515  20.600   9.155
 6322POPC   GL112697  17.538  20.594   8.855
 6322POPC   GL212698  17.509  20.498   8.855
 6322POPC   C1A12699  17.499  20.646   8.555
 6322POPC   D2A12700  17.520  20.587   8.255
 6322POPC   C3A12701  17.490  20.637   7.955
 6322POPC   C4A12702  17.466  20.567   7.655
 6322POPC   C1B12703  17.630  20.370   8.555
 6322POPC   C2B12704  17.562  20.350   8.255
 6322POPC   C3B12705  17.591  20.348   7.955
 6322POPC   C4B12706  17.564  20.343   7.655
 6323POPC   NC312707  38.502  26.823   9.455
 6323POPC   PO412708  38.436  26.782   9.155
 6323POPC   GL112709  38.407  26.824   8.855
 6323POPC   GL212710  38.503  26.677   8.855
 6323POPC   C1A12711  38.449  26.773   8.555
 6323POPC   D2A12712  38.473  26.801   8.255
 6323POPC   C3A12713  38.431  26.827   7.955
 6323POPC   C4A12714  38.441  26.816   7.655
 6323POPC   C1B12715  38.507  26.605   8.555
 6323POPC   C2B12716  38.540  26.610   8.255
 6323POPC   C3B12717  38.545  26.606   7.955
 6323POPC   C4B12718  38.502  26.633   7.655
 6324POPC   NC312719  33.802  37.670   9.455
 6324POPC   PO412720  33.803  37.715   9.155
 6324POPC   GL112721  33.771  37.701   8.855
 6324POPC   GL212722  33.669  37.642   8.855
 6324POPC   C1A12723  33.836  37.642   8.555
 6324POPC   D2A12724  33.762  37.652   8.255
 6324POPC   C3A12725  33.751  37.673   7.955
 6324POPC   C4A12726  33.809  37.714   7.655
 6324POPC   C1B12727  33.580  37.676   8.555
 6324POPC   C2B12728  33.513  37.601   8.255
 6324POPC   C3B12729  33.562  37.612   7.955
 6324POPC   C4B12730  33.503  37.640   7.655
 6325POPC   NC312731  14.389   9.021   9.455
 6325POPC   PO412732  14.435   8.977   9.155
 6325POPC   GL112733  14.439   8.975   8.855
 6325POPC   GL212734  14.502   9.085   8.855
 6325POPC   C1A12735  14.390   8.960   8.555
 6325POPC   D2A12736  14.368   9.002   8.255
 6325POPC   C3A12737  14.381   8.949   7.955
 6325POPC   C4A12738  14.407   8.971   7.655
 6325POPC   C1B12739  14.580   9.169   8.555
 6325POPC   C2B12740  14.559   9.229   8.255
 6325POPC   C3B12741  14.508   9.158   7.955
 6325POPC   C4B12742  14.553   9.211   7.655
 6326POPC   NC312743  22.967  26.806   9.455
 6326POPC   PO412744  22.889  26.781   9.155
 6326POPC   GL112745  22.969  26.795   8.855
 6326POPC   GL212746  22.920  26.741   8.855
 6326POPC   C1A12747  22.972  26.837   8.555
 6326POPC   D2A12748  22.964  26.829   8.255
 6326POPC   C3A12749  22.963  26.778   7.955
 6326POPC   C4A12750  22.925  26.813   7.655
 6326POPC   C1B12751  22.843  26.586   8.555
 6326POPC   C2B12752  22.764  26.652   8.255
 6326POPC   C3B12753  22.810  26.608   7.955
 6326POPC   C4B12754  22.830  26.571   7.655
 6327POPC   NC312755  42.302  16.705   9.455
 6327POPC   PO412756  42.295  16.747   9.155
 6327POPC   GL112757  42.342  16.688   8.855
 6327POPC   GL212758  42.185  16.693   8.855
 6327POPC   C1A12759  42.367  16.781   8.555
 6327POPC   D2A12760  42.362  16.766   8.255
 6327POPC   C3A12761  42.324  16.753   7.955
 6327POPC   C4A12762  42.334  16.779   7.655
 6327POPC   C1B12763  42.049  16.730   8.555
 6327POPC   C2B12764  42.108  16.752   8.255
 6327POPC   C3B12765  42.077  16.704   7.955
 6327POPC   C4B12766  42.127  16.754   7.655
 6328POPC   NC312767  41.518  33.753   9.455
 6328POPC   PO412768  41.562  33.781   9.155
 6328POPC   GL112769  41.595  33.790   8.855
 6328POPC   GL212770  41.471  33.868   8.855
 6328POPC   C1A12771  41.589  33.772   8.555
 6328POPC   D2A12772  41.596  33.752   8.255
 6328POPC   C3A12773  41.587  33.781   7.955
 6328POPC   C4A12774  41.544  33.764   7.655
 6328POPC   C1B12775  41.411  34.010   8.555
 6328POPC   C2B12776  41.388  33.988   8.255
 6328POPC   C3B12777  41.369  33.993   7.955
 6328POPC   C4B12778  41.391  33.988   7.655
 6329POPC   NC312779   3.571  22.126   9.455
 6329POPC   PO412780   3.550  22.131   9.155
 6329POPC   GL112781   3.528  22.129   8.855
 6329POPC   GL212782   3.513  22.308   8.855
 6329POPC   C1A12783   3.514  22.123   8.555
 6329POPC   D2A12784   3.492  22.139   8.255
 6329POPC   C3A12785   3.576  22.191   7.955
 6329POPC   C4A12786   3.517  22.128   7.655
 6329POPC   C1B12787   3.439  22.343   8.555
 6329POPC   C2B12788   3.391  22.317   8.255
 6329POPC   C3B12789   3.395  22.370   7.955
 6329POPC   C4B12790   3.423  22.381   7.655
 6330POPC   NC312791  18.317  33.787   9.455
 6330POPC   PO412792  18.310  33.777   9.155
 6330POPC   GL112793  18.248  33.847   8.855
 6330POPC   GL212794  18.295  33.958   8.855
 6330POPC   C1A12795  18.302  33.807   8.555
 6330POPC   D2A12796  18.274  33.764   8.255
 6330POPC   C3A12797  18.264  33.828   7.955
 6330POPC   C4A12798  18.313  33.768   7.655
 6330POPC   C1B12799  18.350  34.033   8.555
 6330POPC   C2B12800  18.374  34.027   8.255
 6330POPC   C3B12801  18.406  33.998   7.955
 6330POPC   C4B12802  18.373  34.077   7.655
 6331POPC   NC312803   5.121  33.038   9.455
 6331POPC   PO412804   5.126  33.045   9.155
 6331POPC   GL112805   5.084  33.034   8.855
 6331POPC   GL212806   5.249  33.086   8.855
 6331POPC   C1A12807   5.092  33.027   8.555
 6331POPC   D2A12808   5.134  33.055   8.255
 6331POPC   C3A12809   5.102  33.065   7.955
 6331POPC   C4A12810   5.140  32.997   7.655
 6331POPC   C1B12811   5.291  33.030   8.555
 6331POPC   C2B12812   5.356  33.096   8.255
 6331POPC   C3B12813   5.341  33.092   7.955
 6331POPC   C4B12814   5.349  33.030   7.655
 6332POPC   NC312815  32.287  37.659   9.455
 6332POPC   PO412816  32.215  37.684   9.155
 6332POPC   GL112817  32.205  37.631   8.855
 6332POPC   GL212818  32.082  37.713   8.855
 6332POPC   C1A12819  32.228  37.704   8.555
 6332POPC   D2A12820  32.249  37.716   8.255
 6332POPC   C3A12821  32.250  37.698   7.955
 6332POPC   C4A12822  32.215  37.676   7.655
 6332POPC   C1B12823  32.033  37.664   8.555
 6332POPC   C2B12824  32.031  37.695   8.255
 6332POPC   C3B12825  32.004  37.670   7.955
 6332POPC   C4B12826  32.022  37.609   7.655
 6333POPC   NC312827  26.843   8.961   9.455
 6333POPC   PO412828  26.826   8.997   9.155
 6333POPC   GL112829  26.822   8.927   8.855
 6333POPC   GL212830  26.808   8.842   8.855
 6333POPC   C1A12831  26.845   9.006   8.555
 6333POPC   D2A12832  26.834   9.003   8.255
 6333POPC   C3A12833  26.815   8.943   7.955
 6333POPC   C4A12834  26.862   8.984   7.655
 6333POPC   C1B12835  26.716   8.693   8.555
 6333POPC   C2B12836  26.713   8.702   8.255
 6333POPC   C3B12837  26.733   8.749   7.955
 6333POPC   C4B12838  26.788   8.767   7.655
 6334POPC   NC312839   8.201  15.216   9.455
 6334POPC   PO412840   8.194  15.148   9.155
 6334POPC   GL112841   8.241  15.140   8.855
 6334POPC   GL212842   8.117  15.197   8.855
 6334POPC   C1A12843   8.162  15.141   8.555
 6334POPC   D2A12844   8.211  15.163   8.255
 6334POPC   C3A12845   8.217  15.219   7.955
 6334POPC   C4A12846   8.234  15.200   7.655
 6334POPC   C1B12847   7.976  15.235   8.555
 6334POPC   C2B12848   7.915  15.226   8.255
 6334POPC   C3B12849   7.912  15.287   7.955
 6334POPC   C4B12850   7.953  15.260   7.655
 6335POPC   NC312851  13.612  17.535   9.455
 6335POPC   PO412852  13.592  17.553   9.155
 6335POPC   GL112853  13.625  17.471   8.855
 6335POPC   GL212854  13.775  17.469   8.855
 6335POPC   C1A12855  13.593  17.496   8.555
 6335POPC   D2A12856  13.649  17.527   8.255
 6335POPC   C3A12857  13.583  17.489   7.955
 6335POPC   C4A12858  13.616  17.555   7.655
 6335POPC   C1B12859  13.850  17.432   8.555
 6335POPC   C2B12860  13.840  17.465   8.255
 6335POPC   C3B12861  13.862  17.439   7.955
 6335POPC   C4B12862  13.848  17.477   7.655
 6336POPC   NC312863  16.757  43.848   9.455
 6336POPC   PO412864  16.761  43.871   9.155
 6336POPC   GL112865  16.723  43.864   8.855
 6336POPC   GL212866  16.839  43.739   8.855
 6336POPC   C1A12867  16.779  43.859   8.555
 6336POPC   D2A12868  16.687  43.876   8.255
 6336POPC   C3A12869  16.774  43.869   7.955
 6336POPC   C4A12870  16.770  43.892   7.655
 6336POPC   C1B12871  16.833  43.669   8.555
 6336POPC   C2B12872  16.840  43.662   8.255
 6336POPC   C3B12873  16.874  43.695   7.955
 6336POPC   C4B12874  16.874  43.701   7.655
 6337POPC   NC312875  39.280   6.637   9.455
 6337POPC   PO412876  39.219   6.644   9.155
 6337POPC   GL112877  39.200   6.623   8.855
 6337POPC   GL212878  39.153   6.663   8.855
 6337POPC   C1A12879  39.275   6.622   8.555
 6337POPC   D2A12880  39.267   6.606   8.255
 6337POPC   C3A12881  39.253   6.620   7.955
 6337POPC   C4A12882  39.274   6.670   7.655
 6337POPC   C1B12883  38.960   6.740   8.555
 6337POPC   C2B12884  39.023   6.767   8.255
 6337POPC   C3B12885  39.033   6.707   7.955
 6337POPC   C4B12886  38.982   6.767   7.655
 6338POPC   NC312887  10.483   6.659   9.455
 6338POPC   PO412888  10.493   6.597   9.155
 6338POPC   GL112889  10.571   6.626   8.855
 6338POPC   GL212890  10.378   6.633   8.855
 6338POPC   C1A12891  10.548   6.631   8.555
 6338POPC   D2A12892  10.501   6.657   8.255
 6338POPC   C3A12893  10.489   6.596   7.955
 6338POPC   C4A12894  10.570   6.669   7.655
 6338POPC   C1B12895  10.263   6.627   8.555
 6338POPC   C2B12896  10.328   6.638   8.255
 6338POPC   C3B12897  10.325   6.608   7.955
 6338POPC   C4B12898  10.318   6.627   7.655
 6339POPC   NC312899  33.049  32.984   9.455
 6339POPC   PO412900  33.025  33.053   9.155
 6339POPC   GL112901  33.013  33.031   8.855
 6339POPC   GL212902  32.962  33.107   8.855
 6339POPC   C1A12903  33.072  33.032   8.555
 6339POPC   D2A12904  33.000  32.995   8.255
 6339POPC   C3A12905  33.063  33.052   7.955
 6339POPC   C4A12906  32.981  33.044   7.655
 6339POPC   C1B12907  32.791  33.136   8.555
 6339POPC   C2B12908  32.779  33.186   8.255
 6339POPC   C3B12909  32.829  33.104   7.955
 6339POPC   C4B12910  32.837  33.167   7.655
 6340POPC   NC312911  12.034  12.081   9.455
 6340POPC   PO412912  12.103  12.104   9.155
 6340POPC   GL112913  12.089  12.058   8.855
 6340POPC   GL212914  12.191  12.000   8.855
 6340POPC   C1A12915  12.117  12.085   8.555
 6340POPC   D2A12916  12.108  12.046   8.255
 6340POPC   C3A12917  12.046  12.084   7.955
 6340POPC   C4A12918  12.053  12.026   7.655
 6340POPC   C1B12919  12.297  11.934   8.555
 6340POPC   C2B12920  12.303  11.945   8.255
 6340POPC   C3B12921  12.307  11.941   7.955
 6340POPC   C4B12922  12.335  11.986   7.655
 6341POPC   NC312923  20.658  39.976   9.455
 6341POPC   PO412924  20.576  40.018   9.155
 6341POPC   GL112925  20.655  40.015   8.855
 6341POPC   GL212926  20.553  40.108   8.855
 6341POPC   C1A12927  20.568  40.046   8.555
 6341POPC   D2A12928  20.615  39.977   8.255
 6341POPC   C3A12929  20.576  39.977   7.955
 6341POPC   C4A12930  20.562  40.007   7.655
 6341POPC   C1B12931  20.522  40.256   8.555
 6341POPC   C2B12932  20.519  40.261   8.255
 6341POPC   C3B12933  20.513  40.270   7.955
 6341POPC   C4B12934  20.495  40.222   7.655
 6342POPC   NC312935  15.929  29.172   9.455
 6342POPC   PO412936  15.995  29.107   9.155
 6342POPC   GL112937  15.957  29.184   8.855
 6342POPC   GL212938  15.827  29.170   8.855
 6342POPC   C1A12939  15.995  29.141   8.555
 6342POPC   D2A12940  15.981  29.158   8.255
 6342POPC   C3A12941  15.918  29.160   7.955
 6342POPC   C4A12942  15.929  29.134   7.655
 6342POPC   C1B12943  15.760  29.169   8.555
 6342POPC   C2B12944  15.751  29.184   8.255
 6342POPC   C3B12945  15.673  29.237   7.955
 6342POPC   C4B12946  15.709  29.164   7.655
 6343POPC   NC312947   9.705  41.554   9.455
 6343POPC   PO412948   9.790  41.594   9.155
 6343POPC   GL112949   9.787  41.523   8.855
 6343POPC   GL212950   9.753  41.700   8.855
 6343POPC   C1A12951   9.798  41.526   8.555
 6343POPC   D2A12952   9.719  41.604   8.255
 6343POPC   C3A12953   9.753  41.598   7.955
 6343POPC   C4A12954   9.735  41.554   7.655
 6343POPC   C1B12955   9.712  41.850   8.555
 6343POPC   C2B12956   9.669  41.770   8.255
 6343POPC   C3B12957   9.707  41.778   7.955
 6343POPC   C4B12958   9.731  41.837   7.655
 6344POPC   NC312959  19.879  17.472   9.455
 6344POPC   PO412960  19.799  17.530   9.155
 6344POPC   GL112961  19.864  17.524   8.855
 6344POPC   GL212962  19.758  17.432   8.855
 6344POPC   C1A12963  19.870  17.472   8.555
 6344POPC   D2A12964  19.864  17.468   8.255
 6344POPC   C3A12965  19.799  17.482   7.955
 6344POPC   C4A12966  19.870  17.523   7.655
 6344POPC   C1B12967  19.603  17.407   8.555
 6344POPC   C2B12968  19.648  17.460   8.255
 6344POPC   C3B12969  19.610  17.440   7.955
 6344POPC   C4B12970  19.610  17.433   7.655
 6345POPC   NC312971  32.206  32.203   9.455
 6345POPC   PO412972  32.212  32.255   9.155
 6345POPC   GL112973  32.252  32.244   8.855
 6345POPC   GL212974  32.194  32.176   8.855
 6345POPC   C1A12975  32.243  32.215   8.555
 6345POPC   D2A12976  32.226  32.276   8.255
 6345POPC   C3A12977  32.217  32.286   7.955
 6345POPC   C4A12978  32.229  32.264   7.655
 6345POPC   C1B12979  32.117  32.079   8.555
 6345POPC   C2B12980  32.066  32.117   8.255
 6345POPC   C3B12981  32.026  32.057   7.955
 6345POPC   C4B12982  32.106  32.032   7.655
 6346POPC   NC312983  23.747  44.650   9.455
 6346POPC   PO412984  23.723  44.707   9.155
 6346POPC   GL112985  23.689  44.637   8.855
 6346POPC   GL212986  23.682  44.584   8.855
 6346POPC   C1A12987  23.746  44.645   8.555
 6346POPC   D2A12988  23.685  44.615   8.255
 6346POPC   C3A12989  23.670  44.668   7.955
 6346POPC   C4A12990  23.692  44.667   7.655
 6346POPC   C1B12991  23.739  44.455   8.555
 6346POPC   C2B12992  23.712  44.405   8.255
 6346POPC   C3B12993  23.779  44.381   7.955
 6346POPC   C4B12994  23.713  44.393   7.655
 6347POPC   NC312995  36.111  12.866   9.455
 6347POPC   PO412996  36.166  12.825   9.155
 6347POPC   GL112997  36.172  12.844   8.855
 6347POPC   GL212998  36.048  12.980   8.855
 6347POPC   C1A12999  36.145  12.867   8.555
 6347POPC   D2A13000  36.125  12.803   8.255
 6347POPC   C3A13001  36.081  12.883   7.955
 6347POPC   C4A13002  36.103  12.841   7.655
 6347POPC   C1B13003  35.927  13.074   8.555
 6347POPC   C2B13004  35.984  13.028   8.255
 6347POPC   C3B13005  35.967  13.039   7.955
 6347POPC   C4B13006  35.993  13.003   7.655
 6348POPC   NC313007  18.264  19.881   9.455
 6348POPC   PO413008  18.321  19.825   9.155
 6348POPC   GL113009  18.322  19.847   8.855
 6348POPC   GL213010  18.349  19.950   8.855
 6348POPC   C1A13011  18.313  19.873   8.555
 6348POPC   D2A13012  18.323  19.808   8.255
 6348POPC   C3A13013  18.326  19.861   7.955
 6348POPC   C4A13014  18.248  19.858   7.655
 6348POPC   C1B13015  18.419  20.019   8.555
 6348POPC   C2B13016  18.406  20.040   8.255
 6348POPC   C3B13017  18.330  20.073   7.955
 6348POPC   C4B13018  18.396  20.067   7.655
 6349POPC   NC313019   2.748  40.008   9.455
 6349POPC   PO413020   2.729  40.039   9.155
 6349POPC   GL113021   2.785  40.015   8.855
 6349POPC   GL213022   2.839  39.897   8.855
 6349POPC   C1A13023   2.742  40.055   8.555
 6349POPC   D2A13024   2.716  39.972   8.255
 6349POPC   C3A13025   2.757  39.968   7.955
 6349POPC   C4A13026   2.793  39.976   7.655
 6349POPC   C1B13027   2.976  39.897   8.555
 6349POPC   C2B13028   2.963  39.922   8.255
 6349POPC   C3B13029   2.963  39.886   7.955
 6349POPC   C4B13030   2.994  39.882   7.655
 6350POPC   NC313031  11.340  28.402   9.455
 6350POPC   PO413032  11.300  28.386   9.155
 6350POPC   GL113033  11.296  28.342   8.855
 6350POPC   GL213034  11.414  28.254   8.855
 6350POPC   C1A13035  11.301  28.370   8.555
 6350POPC   D2A13036  11.263  28.326   8.255
 6350POPC   C3A13037  11.331  28.339   7.955
 6350POPC   C4A13038  11.308  28.323   7.655
 6350POPC   C1B13039  11.413  28.149   8.555
 6350POPC   C2B13040  11.452  28.200   8.255
 6350POPC   C3B13041  11.430  28.147   7.955
 6350POPC   C4B13042  11.465  28.166   7.655
 6351POPC   NC313043  29.190  42.303   9.455
 6351POPC   PO413044  29.120  42.324   9.155
 6351POPC   GL113045  29.132  42.309   8.855
 6351POPC   GL213046  29.263  42.326   8.855
 6351POPC   C1A13047  29.121  42.288   8.555
 6351POPC   D2A13048  29.109  42.305   8.255
 6351POPC   C3A13049  29.102  42.300   7.955
 6351POPC   C4A13050  29.179  42.332   7.655
 6351POPC   C1B13051  29.379  42.395   8.555
 6351POPC   C2B13052  29.394  42.394   8.255
 6351POPC   C3B13053  29.388  42.386   7.955
 6351POPC   C4B13054  29.418  42.354   7.655
 6352POPC   NC313055   4.281  25.249   9.455
 6352POPC   PO413056   4.289  25.251   9.155
 6352POPC   GL113057   4.268  25.232   8.855
 6352POPC   GL213058   4.315  25.143   8.855
 6352POPC   C1A13059   4.293  25.253   8.555
 6352POPC   D2A13060   4.300  25.233   8.255
 6352POPC   C3A13061   4.296  25.238   7.955
 6352POPC   C4A13062   4.340  25.220   7.655
 6352POPC   C1B13063   4.314  25.054   8.555
 6352POPC   C2B13064   4.368  25.041   8.255
 6352POPC   C3B13065   4.352  24.989   7.955
 6352POPC   C4B13066   4.332  25.017   7.655
 6353POPC   NC313067  36.156  29.130   9.455
 6353POPC   PO413068  36.086  29.174   9.155
 6353POPC   GL113069  36.104  29.112   8.855
 6353POPC   GL213070  36.058  29.221   8.855
 6353POPC   C1A13071  36.146  29.180   8.555
 6353POPC   D2A13072  36.083  29.110   8.255
 6353POPC   C3A13073  36.078  29.166   7.955
 6353POPC   C4A13074  36.112  29.189   7.655
 6353POPC   C1B13075  36.061  29.372   8.555
 6353POPC   C2B13076  36.024  29.355   8.255
 6353POPC   C3B13077  36.019  29.376   7.955
 6353POPC   C4B13078  36.080  29.394   7.655
 6354POPC   NC313079   8.182  16.687   9.455
 6354POPC   PO413080   8.207  16.751   9.155
 6354POPC   GL113081   8.234  16.695   8.855
 6354POPC   GL213082   8.307  16.783   8.855
 6354POPC   C1A13083   8.154  16.750   8.555
 6354POPC   D2A13084   8.148  16.749   8.255
 6354POPC   C3A13085   8.147  16.683   7.955
 6354POPC   C4A13086   8.228  16.769   7.655
 6354POPC   C1B13087   8.382  16.915   8.555
 6354POPC   C2B13088   8.347  16.927   8.255
 6354POPC   C3B13089   8.324  16.871   7.955
 6354POPC   C4B13090   8.312  16.937   7.655
 6355POPC   NC313091  44.630   0.422   9.455
 6355POPC   PO413092  44.675   0.422   9.155
 6355POPC   GL113093  44.686   0.478   8.855
 6355POPC   GL213094  44.610   0.599   8.855
 6355POPC   C1A13095  44.666   0.454   8.555
 6355POPC   D2A13096  44.616   0.460   8.255
 6355POPC   C3A13097  44.669   0.475   7.955
 6355POPC   C4A13098  44.640   0.395   7.655
 6355POPC   C1B13099  44.599   0.657   8.555
 6355POPC   C2B13100  44.648   0.730   8.255
 6355POPC   C3B13101  44.608   0.648   7.955
 6355POPC   C4B13102  44.691   0.725   7.655
 6356POPC   NC313103  19.072  22.888   9.455
 6356POPC   PO413104  19.081  22.928   9.155
 6356POPC   GL113105  19.048  22.931   8.855
 6356POPC   GL213106  18.910  22.870   8.855
 6356POPC   C1A13107  19.063  22.932   8.555
 6356POPC   D2A13108  19.060  22.940   8.255
 6356POPC   C3A13109  19.019  22.924   7.955
 6356POPC   C4A13110  19.068  22.964   7.655
 6356POPC   C1B13111  18.856  22.865   8.555
 6356POPC   C2B13112  18.823  22.815   8.255
 6356POPC   C3B13113  18.847  22.889   7.955
 6356POPC   C4B13114  18.844  22.851   7.655
 6357POPC   NC313115   1.966   1.962   9.455
 6357POPC   PO413116   1.979   2.008   9.155
 6357POPC   GL113117   1.964   2.007   8.855
 6357POPC   GL213118   1.860   1.939   8.855
 6357POPC   C1A13119   1.995   2.006   8.555
 6357POPC   D2A13120   2.002   1.998   8.255
 6357POPC   C3A13121   2.026   2.029   7.955
 6357POPC   C4A13122   2.002   1.957   7.655
 6357POPC   C1B13123   1.714   1.921   8.555
 6357POPC   C2B13124   1.791   1.901   8.255
 6357POPC   C3B13125   1.723   1.889   7.955
 6357POPC   C4B13126   1.763   1.972   7.655
 6358POPC   NC313127  15.150   7.396   9.455
 6358POPC   PO413128  15.166   7.462   9.155
 6358POPC   GL113129  15.154   7.399   8.855
 6358POPC   GL213130  15.290   7.416   8.855
 6358POPC   C1A13131  15.223   7.400   8.555
 6358POPC   D2A13132  15.147   7.466   8.255
 6358POPC   C3A13133  15.174   7.458   7.955
 6358POPC   C4A13134  15.198   7.426   7.655
 6358POPC   C1B13135  15.433   7.468   8.555
 6358POPC   C2B13136  15.457   7.406   8.255
 6358POPC   C3B13137  15.439   7.396   7.955
 6358POPC   C4B13138  15.413   7.446   7.655
 6359POPC   NC313139   3.524  32.273   9.455
 6359POPC   PO413140   3.527  32.280   9.155
 6359POPC   GL113141   3.537  32.292   8.855
 6359POPC   GL213142   3.472  32.164   8.855
 6359POPC   C1A13143   3.544  32.293   8.555
 6359POPC   D2A13144   3.553  32.228   8.255
 6359POPC   C3A13145   3.524  32.265   7.955
 6359POPC   C4A13146   3.588  32.240   7.655
 6359POPC   C1B13147   3.354  32.169   8.555
 6359POPC   C2B13148   3.330  32.193   8.255
 6359POPC   C3B13149   3.322  32.113   7.955
 6359POPC   C4B13150   3.348  32.173   7.655
 6360POPC   NC313151  40.736   9.774   9.455
 6360POPC   PO413152  40.791   9.733   9.155
 6360POPC   GL113153  40.799   9.777   8.855
 6360POPC   GL213154  40.705   9.693   8.855
 6360POPC   C1A13155  40.733   9.715   8.555
 6360POPC   D2A13156  40.771   9.725   8.255
 6360POPC   C3A13157  40.825   9.772   7.955
 6360POPC   C4A13158  40.825   9.739   7.655
 6360POPC   C1B13159  40.559   9.563   8.555
 6360POPC   C2B13160  40.632   9.595   8.255
 6360POPC   C3B13161  40.612   9.635   7.955
 6360POPC   C4B13162  40.619   9.588   7.655
 6361POPC   NC313163  17.470  41.515   9.455
 6361POPC   PO413164  17.491  41.515   9.155
 6361POPC   GL113165  17.547  41.603   8.855
 6361POPC   GL213166  17.426  41.592   8.855
 6361POPC   C1A13167  17.494  41.581   8.555
 6361POPC   D2A13168  17.486  41.590   8.255
 6361POPC   C3A13169  17.555  41.520   7.955
 6361POPC   C4A13170  17.542  41.607   7.655
 6361POPC   C1B13171  17.265  41.648   8.555
 6361POPC   C2B13172  17.298  41.674   8.255
 6361POPC   C3B13173  17.242  41.627   7.955
 6361POPC   C4B13174  17.297  41.614   7.655
 6362POPC   NC313175  11.313   1.218   9.455
 6362POPC   PO413176  11.281   1.219   9.155
 6362POPC   GL113177  11.327   1.258   8.855
 6362POPC   GL213178  11.308   1.354   8.855
 6362POPC   C1A13179  11.274   1.229   8.555
 6362POPC   D2A13180  11.325   1.193   8.255
 6362POPC   C3A13181  11.276   1.199   7.955
 6362POPC   C4A13182  11.309   1.219   7.655
 6362POPC   C1B13183  11.354   1.501   8.555
 6362POPC   C2B13184  11.368   1.472   8.255
 6362POPC   C3B13185  11.380   1.437   7.955
 6362POPC   C4B13186  11.332   1.475   7.655
 6363POPC   NC313187   0.481  11.297   9.455
 6363POPC   PO413188   0.441  11.270   9.155
 6363POPC   GL113189   0.466  11.300   8.855
 6363POPC   GL213190   0.479  11.186   8.855
 6363POPC   C1A13191   0.449  11.253   8.555
 6363POPC   D2A13192   0.478  11.317   8.255
 6363POPC   C3A13193   0.442  11.290   7.955
 6363POPC   C4A13194   0.487  11.345   7.655
 6363POPC   C1B13195   0.519  11.074   8.555
 6363POPC   C2B13196   0.579  11.109   8.255
 6363POPC   C3B13197   0.510  11.090   7.955
 6363POPC   C4B13198   0.552  11.059   7.655
 6364POPC   NC313199  38.427   4.303   9.455
 6364POPC   PO413200  38.413   4.292   9.155
 6364POPC   GL113201  38.482   4.300   8.855
 6364POPC   GL213202  38.426   4.473   8.855
 6364POPC   C1A13203  38.442   4.316   8.555
 6364POPC   D2A13204  38.456   4.359   8.255
 6364POPC   C3A13205  38.464   4.292   7.955
 6364POPC   C4A13206  38.453   4.326   7.655
 6364POPC   C1B13207  38.420   4.602   8.555
 6364POPC   C2B13208  38.369   4.554   8.255
 6364POPC   C3B13209  38.398   4.567   7.955
 6364POPC   C4B13210  38.367   4.563   7.655
 6365POPC   NC313211  16.780  12.844   9.455
 6365POPC   PO413212  16.736  12.856   9.155
 6365POPC   GL113213  16.700  12.861   8.855
 6365POPC   GL213214  16.799  12.770   8.855
 6365POPC   C1A13215  16.731  12.852   8.555
 6365POPC   D2A13216  16.747  12.824   8.255
 6365POPC   C3A13217  16.780  12.869   7.955
 6365POPC   C4A13218  16.689  12.886   7.655
 6365POPC   C1B13219  16.900  12.658   8.555
 6365POPC   C2B13220  16.867  12.698   8.255
 6365POPC   C3B13221  16.879  12.668   7.955
 6365POPC   C4B13222  16.838  12.606   7.655
 6366POPC   NC313223  22.202  41.603   9.455
 6366POPC   PO413224  22.198  41.563   9.155
 6366POPC   GL113225  22.208  41.530   8.855
 6366POPC   GL213226  22.028  41.568   8.855
 6366POPC   C1A13227  22.166  41.534   8.555
 6366POPC   D2A13228  22.139  41.537   8.255
 6366POPC   C3A13229  22.198  41.602   7.955
 6366POPC   C4A13230  22.129  41.509   7.655
 6366POPC   C1B13231  21.914  41.567   8.555
 6366POPC   C2B13232  21.945  41.616   8.255
 6366POPC   C3B13233  21.925  41.629   7.955
 6366POPC   C4B13234  21.921  41.559   7.655
 6367POPC   NC313235  40.033  24.467   9.455
 6367POPC   PO413236  39.997  24.519   9.155
 6367POPC   GL113237  40.028  24.451   8.855
 6367POPC   GL213238  39.871  24.529   8.855
 6367POPC   C1A13239  40.047  24.529   8.555
 6367POPC   D2A13240  40.000  24.458   8.255
 6367POPC   C3A13241  39.997  24.527   7.955
 6367POPC   C4A13242  39.979  24.530   7.655
 6367POPC   C1B13243  39.809  24.677   8.555
 6367POPC   C2B13244  39.796  24.680   8.255
 6367POPC   C3B13245  39.764  24.616   7.955
 6367POPC   C4B13246  39.755  24.622   7.655
 6368POPC   NC313247   9.742  36.136   9.455
 6368POPC   PO413248   9.734  36.136   9.155
 6368POPC   GL113249   9.790  36.151   8.855
 6368POPC   GL213250   9.697  36.031   8.855
 6368POPC   C1A13251   9.788  36.158   8.555
 6368POPC   D2A13252   9.703  36.157   8.255
 6368POPC   C3A13253   9.715  36.084   7.955
 6368POPC   C4A13254   9.730  36.138   7.655
 6368POPC   C1B13255   9.665  35.866   8.555
 6368POPC   C2B13256   9.660  35.930   8.255
 6368POPC   C3B13257   9.689  35.884   7.955
 6368POPC   C4B13258   9.689  35.851   7.655
 6369POPC   NC313259  30.722   9.780   9.455
 6369POPC   PO413260  30.674   9.736   9.155
 6369POPC   GL113261  30.651   9.774   8.855
 6369POPC   GL213262  30.600   9.783   8.855
 6369POPC   C1A13263  30.701   9.726   8.555
 6369POPC   D2A13264  30.707   9.737   8.255
 6369POPC   C3A13265  30.690   9.789   7.955
 6369POPC   C4A13266  30.680   9.731   7.655
 6369POPC   C1B13267  30.407   9.769   8.555
 6369POPC   C2B13268  30.441   9.764   8.255
 6369POPC   C3B13269  30.408   9.753   7.955
 6369POPC   C4B13270  30.462   9.710   7.655
 6370POPC   NC313271  19.805  38.454   9.455
 6370POPC   PO413272  19.860  38.422   9.155
 6370POPC   GL113273  19.811  38.415   8.855
 6370POPC   GL213274  19.916  38.514   8.855
 6370POPC   C1A13275  19.795  38.447   8.555
 6370POPC   D2A13276  19.843  38.477   8.255
 6370POPC   C3A13277  19.858  38.429   7.955
 6370POPC   C4A13278  19.800  38.434   7.655
 6370POPC   C1B13279  20.017  38.557   8.555
 6370POPC   C2B13280  20.093  38.575   8.255
 6370POPC   C3B13281  20.096  38.603   7.955
 6370POPC   C4B13282  20.003  38.627   7.655
 6371POPC   NC313283  25.241  19.826   9.455
 6371POPC   PO413284  25.223  19.839   9.155
 6371POPC   GL113285  25.282  19.877   8.855
 6371POPC   GL213286  25.277  19.940   8.855
 6371POPC   C1A13287  25.256  19.828   8.555
 6371POPC   D2A13288  25.312  19.799   8.255
 6371POPC   C3A13289  25.293  19.832   7.955
 6371POPC   C4A13290  25.243  19.848   7.655
 6371POPC   C1B13291  25.228  20.039   8.555
 6371POPC   C2B13292  25.149  20.055   8.255
 6371POPC   C3B13293  25.157  20.045   7.955
 6371POPC   C4B13294  25.187  20.059   7.655
 6372POPC   NC313295  22.917  39.260   9.455
 6372POPC   PO413296  22.958  39.222   9.155
 6372POPC   GL113297  22.978  39.181   8.855
 6372POPC   GL213298  23.067  39.176   8.855
 6372POPC   C1A13299  22.890  39.270   8.555
 6372POPC   D2A13300  22.934  39.255   8.255
 6372POPC   C3A13301  22.950  39.220   7.955
 6372POPC   C4A13302  22.987  39.189   7.655
 6372POPC   C1B13303  23.154  39.127   8.555
 6372POPC   C2B13304  23.149  39.125   8.255
 6372POPC   C3B13305  23.165  39.051   7.955
 6372POPC   C4B13306  23.159  39.095   7.655
 6373POPC   NC313307  27.637   1.166   9.455
 6373POPC   PO413308  27.633   1.247   9.155
 6373POPC   GL113309  27.642   1.183   8.855
 6373POPC   GL213310  27.737   1.321   8.855
 6373POPC   C1A13311  27.637   1.200   8.555
 6373POPC   D2A13312  27.584   1.184   8.255
 6373POPC   C3A13313  27.548   1.247   7.955
 6373POPC   C4A13314  27.594   1.206   7.655
 6373POPC   C1B13315  27.813   1.372   8.555
 6373POPC   C2B13316  27.842   1.315   8.255
 6373POPC   C3B13317  27.790   1.334   7.955
 6373POPC   C4B13318  27.855   1.346   7.655
 6374POPC   NC313319  33.812  41.587   9.455
 6374POPC   PO413320  33.789  41.584   9.155
 6374POPC   GL113321  33.791  41.590   8.855
 6374POPC   GL213322  33.688  41.484   8.855
 6374POPC   C1A13323  33.808  41.604   8.555
 6374POPC   D2A13324  33.801  41.606   8.255
 6374POPC   C3A13325  33.804  41.563   7.955
 6374POPC   C4A13326  33.829  41.530   7.655
 6374POPC   C1B13327  33.646  41.398   8.555
 6374POPC   C2B13328  33.625  41.329   8.255
 6374POPC   C3B13329  33.653  41.331   7.955
 6374POPC   C4B13330  33.597  41.376   7.655
 6375POPC   NC313331   5.838  22.964   9.455
 6375POPC   PO413332   5.904  22.926   9.155
 6375POPC   GL113333   5.910  22.979   8.855
 6375POPC   GL213334   6.020  22.917   8.855
 6375POPC   C1A13335   5.822  22.907   8.555
 6375POPC   D2A13336   5.864  22.960   8.255
 6375POPC   C3A13337   5.890  22.982   7.955
 6375POPC   C4A13338   5.861  22.945   7.655
 6375POPC   C1B13339   6.070  22.958   8.555
 6375POPC   C2B13340   6.101  22.962   8.255
 6375POPC   C3B13341   6.094  22.992   7.955
 6375POPC   C4B13342   6.098  22.957   7.655
 6376POPC   NC313343  41.524  11.348   9.455
 6376POPC   PO413344  41.553  11.347   9.155
 6376POPC   GL113345  41.569  11.277   8.855
 6376POPC   GL213346  41.588  11.421   8.855
 6376POPC   C1A13347  41.563  11.259   8.555
 6376POPC   D2A13348  41.591  11.346   8.255
 6376POPC   C3A13349  41.539  11.289   7.955
 6376POPC   C4A13350  41.608  11.306   7.655
 6376POPC   C1B13351  41.688  11.466   8.555
 6376POPC   C2B13352  41.712  11.526   8.255
 6376POPC   C3B13353  41.694  11.532   7.955
 6376POPC   C4B13354  41.672  11.509   7.655
 6377POPC   NC313355   8.980  30.652   9.455
 6377POPC   PO413356   8.926  30.670   9.155
 6377POPC   GL113357   9.000  30.674   8.855
 6377POPC   GL213358   9.014  30.856   8.855
 6377POPC   C1A13359   9.020  30.679   8.555
 6377POPC   D2A13360   8.965  30.730   8.255
 6377POPC   C3A13361   8.959  30.655   7.955
 6377POPC   C4A13362   8.964  30.659   7.655
 6377POPC   C1B13363   9.068  30.888   8.555
 6377POPC   C2B13364   9.071  30.922   8.255
 6377POPC   C3B13365   9.105  30.888   7.955
 6377POPC   C4B13366   9.091  30.924   7.655
 6378POPC   NC313367  14.448  25.280   9.455
 6378POPC   PO413368  14.371  25.308   9.155
 6378POPC   GL113369  14.453  25.241   8.855
 6378POPC   GL213370  14.264  25.224   8.855
 6378POPC   C1A13371  14.416  25.282   8.555
 6378POPC   D2A13372  14.355  25.262   8.255
 6378POPC   C3A13373  14.390  25.268   7.955
 6378POPC   C4A13374  14.394  25.258   7.655
 6378POPC   C1B13375  14.147  25.144   8.555
 6378POPC   C2B13376  14.179  25.159   8.255
 6378POPC   C3B13377  14.204  25.134   7.955
 6378POPC   C4B13378  14.169  25.184   7.655
 6379POPC   NC313379   8.971   0.418   9.455
 6379POPC   PO413380   9.018   0.410   9.155
 6379POPC   GL113381   9.019   0.427   8.855
 6379POPC   GL213382   8.952   0.554   8.855
 6379POPC   C1A13383   8.983   0.391   8.555
 6379POPC   D2A13384   8.966   0.444   8.255
 6379POPC   C3A13385   8.943   0.425   7.955
 6379POPC   C4A13386   8.998   0.483   7.655
 6379POPC   C1B13387   8.863   0.697   8.555
 6379POPC   C2B13388   8.884   0.689   8.255
 6379POPC   C3B13389   8.848   0.668   7.955
 6379POPC   C4B13390   8.897   0.630   7.655
 6380POPC   NC313391   0.423  12.810   9.455
 6380POPC   PO413392   0.439  12.893   9.155
 6380POPC   GL113393   0.403  12.883   8.855
 6380POPC   GL213394   0.275  12.807   8.855
 6380POPC   C1A13395   0.431  12.857   8.555
 6380POPC   D2A13396   0.432  12.867   8.255
 6380POPC   C3A13397   0.465  12.815   7.955
 6380POPC   C4A13398   0.404  12.861   7.655
 6380POPC   C1B13399   0.229  12.868   8.555
 6380POPC   C2B13400   0.168  12.802   8.255
 6380POPC   C3B13401   0.151  12.889   7.955
 6380POPC   C4B13402   0.214  12.884   7.655
 6381POPC   NC313403  12.035   3.526   9.455
 6381POPC   PO413404  12.087   3.579   9.155
 6381POPC   GL113405  12.086   3.568   8.855
 6381POPC   GL213406  12.041   3.626   8.855
 6381POPC   C1A13407  12.045   3.507   8.555
 6381POPC   D2A13408  12.090   3.578   8.255
 6381POPC   C3A13409  12.084   3.536   7.955
 6381POPC   C4A13410  12.110   3.554   7.655
 6381POPC   C1B13411  12.003   3.748   8.555
 6381POPC   C2B13412  12.017   3.786   8.255
 6381POPC   C3B13413  12.006   3.804   7.955
 6381POPC   C4B13414  12.018   3.788   7.655
 6382POPC   NC313415  11.315  26.061   9.455
 6382POPC   PO413416  11.255  26.024   9.155
 6382POPC   GL113417  11.336  26.068   8.855
 6382POPC   GL213418  11.222  25.993   8.855
 6382POPC   C1A13419  11.273  26.053   8.555
 6382POPC   D2A13420  11.335  26.026   8.255
 6382POPC   C3A13421  11.291  26.043   7.955
 6382POPC   C4A13422  11.274  26.053   7.655
 6382POPC   C1B13423  11.083  26.019   8.555
 6382POPC   C2B13424  11.054  25.976   8.255
 6382POPC   C3B13425  11.061  26.014   7.955
 6382POPC   C4B13426  11.014  26.015   7.655
 6383POPC   NC313427   7.443  12.048   9.455
 6383POPC   PO413428   7.401  12.123   9.155
 6383POPC   GL113429   7.372  12.049   8.855
 6383POPC   GL213430   7.306  11.944   8.855
 6383POPC   C1A13431   7.380  12.103   8.555
 6383POPC   D2A13432   7.371  12.063   8.255
 6383POPC   C3A13433   7.465  12.089   7.955
 6383POPC   C4A13434   7.450  12.090   7.655
 6383POPC   C1B13435   7.312  11.849   8.555
 6383POPC   C2B13436   7.333  11.834   8.255
 6383POPC   C3B13437   7.293  11.879   7.955
 6383POPC   C4B13438   7.251  11.884   7.655
 6384POPC   NC313439  12.805  30.736   9.455
 6384POPC   PO413440  12.851  30.665   9.155
 6384POPC   GL113441  12.870  30.655   8.855
 6384POPC   GL213442  12.740  30.648   8.855
 6384POPC   C1A13443  12.814  30.669   8.555
 6384POPC   D2A13444  12.833  30.703   8.255
 6384POPC   C3A13445  12.867  30.652   7.955
 6384POPC   C4A13446  12.850  30.648   7.655
 6384POPC   C1B13447  12.602  30.538   8.555
 6384POPC   C2B13448  12.606  30.573   8.255
 6384POPC   C3B13449  12.686  30.511   7.955
 6384POPC   C4B13450  12.635  30.521   7.655
 6385POPC   NC313451  35.364   8.215   9.455
 6385POPC   PO413452  35.353   8.227   9.155
 6385POPC   GL113453  35.339   8.150   8.855
 6385POPC   GL213454  35.265   8.286   8.855
 6385POPC   C1A13455  35.339   8.207   8.555
 6385POPC   D2A13456  35.312   8.200   8.255
 6385POPC   C3A13457  35.330   8.175   7.955
 6385POPC   C4A13458  35.344   8.200   7.655
 6385POPC   C1B13459  35.230   8.459   8.555
 6385POPC   C2B13460  35.253   8.417   8.255
 6385POPC   C3B13461  35.300   8.445   7.955
 6385POPC   C4B13462  35.220   8.399   7.655
 6386POPC   NC313463  12.802  19.058   9.455
 6386POPC   PO413464  12.900  19.047   9.155
 6386POPC   GL113465  12.885  19.064   8.855
 6386POPC   GL213466  12.880  19.160   8.855
 6386POPC   C1A13467  12.824  19.067   8.555
 6386POPC   D2A13468  12.814  19.056   8.255
 6386POPC   C3A13469  12.866  19.086   7.955
 6386POPC   C4A13470  12.843  19.053   7.655
 6386POPC   C1B13471  12.906  19.269   8.555
 6386POPC   C2B13472  12.856  19.269   8.255
 6386POPC   C3B13473  12.906  19.273   7.955
 6386POPC   C4B13474  12.875  19.341   7.655
 6387POPC   NC313475  37.694  18.266   9.455
 6387POPC   PO413476  37.658  18.321   9.155
 6387POPC   GL113477  37.669  18.300   8.855
 6387POPC   GL213478  37.756  18.288   8.855
 6387POPC   C1A13479  37.699  18.327   8.555
 6387POPC   D2A13480  37.654  18.262   8.255
 6387POPC   C3A13481  37.716  18.291   7.955
 6387POPC   C4A13482  37.714  18.240   7.655
 6387POPC   C1B13483  37.938  18.293   8.555
 6387POPC   C2B13484  37.964  18.348   8.255
 6387POPC   C3B13485  37.881  18.255   7.955
 6387POPC   C4B13486  37.919  18.341   7.655
 6388POPC   NC313487  38.409  22.138   9.455
 6388POPC   PO413488  38.434  22.205   9.155
 6388POPC   GL113489  38.410  22.148   8.855
 6388POPC   GL213490  38.312  22.212   8.855
 6388POPC   C1A13491  38.406  22.176   8.555
 6388POPC   D2A13492  38.496  22.175   8.255
 6388POPC   C3A13493  38.455  22.197   7.955
 6388POPC   C4A13494  38.484  22.164   7.655
 6388POPC   C1B13495  38.180  22.224   8.555
 6388POPC   C2B13496  38.169  22.206   8.255
 6388POPC   C3B13497  38.246  22.242   7.955
 6388POPC   C4B13498  38.181  22.210   7.655
 6389POPC   NC313499  36.116   7.416   9.455
 6389POPC   PO413500  36.125   7.390   9.155
 6389POPC   GL113501  36.102   7.439   8.855
 6389POPC   GL213502  36.251   7.381   8.855
 6389POPC   C1A13503  36.161   7.461   8.555
 6389POPC   D2A13504  36.123   7.437   8.255
 6389POPC   C3A13505  36.120   7.408   7.955
 6389POPC   C4A13506  36.167   7.413   7.655
 6389POPC   C1B13507  36.402   7.372   8.555
 6389POPC   C2B13508  36.326   7.361   8.255
 6389POPC   C3B13509  36.337   7.355   7.955
 6389POPC   C4B13510  36.391   7.359   7.655
 6390POPC   NC313511   1.261  13.621   9.455
 6390POPC   PO413512   1.232  13.580   9.155
 6390POPC   GL113513   1.207  13.619   8.855
 6390POPC   GL213514   1.139  13.595   8.855
 6390POPC   C1A13515   1.182  13.646   8.555
 6390POPC   D2A13516   1.197  13.669   8.255
 6390POPC   C3A13517   1.179  13.645   7.955
 6390POPC   C4A13518   1.246  13.612   7.655
 6390POPC   C1B13519   1.002  13.646   8.555
 6390POPC   C2B13520   0.931  13.618   8.255
 6390POPC   C3B13521   0.916  13.692   7.955
 6390POPC   C4B13522   1.007  13.609   7.655
 6391POPC   NC313523   7.398  17.555   9.455
 6391POPC   PO413524   7.373  17.468   9.155
 6391POPC   GL113525   7.379  17.551   8.855
 6391POPC   GL213526   7.280  17.434   8.855
 6391POPC   C1A13527   7.459  17.556   8.555
 6391POPC   D2A13528   7.391  17.490   8.255
 6391POPC   C3A13529   7.408  17.485   7.955
 6391POPC   C4A13530   7.392  17.483   7.655
 6391POPC   C1B13531   7.224  17.455   8.555
 6391POPC   C2B13532   7.146  17.390   8.255
 6391POPC   C3B13533   7.144  17.435   7.955
 6391POPC   C4B13534   7.164  17.406   7.655
 6392POPC   NC313535  21.386  43.090   9.455
 6392POPC   PO413536  21.406  43.151   9.155
 6392POPC   GL113537  21.416  43.065   8.855
 6392POPC   GL213538  21.477  43.018   8.855
 6392POPC   C1A13539  21.414  43.071   8.555
 6392POPC   D2A13540  21.435  43.099   8.255
 6392POPC   C3A13541  21.396  43.081   7.955
 6392POPC   C4A13542  21.383  43.062   7.655
 6392POPC   C1B13543  21.626  43.018   8.555
 6392POPC   C2B13544  21.580  42.976   8.255
 6392POPC   C3B13545  21.556  42.932   7.955
 6392POPC   C4B13546  21.549  42.976   7.655
 6393POPC   NC313547  14.355   5.097   9.455
 6393POPC   PO413548  14.453   5.115   9.155
 6393POPC   GL113549  14.419   5.123   8.855
 6393POPC   GL213550  14.412   5.181   8.855
 6393POPC   C1A13551  14.426   5.085   8.555
 6393POPC   D2A13552  14.413   5.121   8.255
 6393POPC   C3A13553  14.388   5.141   7.955
 6393POPC   C4A13554  14.450   5.076   7.655
 6393POPC   C1B13555  14.327   5.328   8.555
 6393POPC   C2B13556  14.369   5.383   8.255
 6393POPC   C3B13557  14.367   5.375   7.955
 6393POPC   C4B13558  14.363   5.311   7.655
 6394POPC   NC313559  36.895   4.291   9.455
 6394POPC   PO413560  36.857   4.320   9.155
 6394POPC   GL113561  36.907   4.308   8.855
 6394POPC   GL213562  36.981   4.281   8.855
 6394POPC   C1A13563  36.930   4.337   8.555
 6394POPC   D2A13564  36.944   4.342   8.255
 6394POPC   C3A13565  36.913   4.279   7.955
 6394POPC   C4A13566  36.942   4.339   7.655
 6394POPC   C1B13567  37.140   4.326   8.555
 6394POPC   C2B13568  37.163   4.260   8.255
 6394POPC   C3B13569  37.154   4.286   7.955
 6394POPC   C4B13570  37.198   4.289   7.655
 6395POPC   NC313571  22.925  41.530   9.455
 6395POPC   PO413572  22.953  41.564   9.155
 6395POPC   GL113573  22.948  41.542   8.855
 6395POPC   GL213574  22.777  41.592   8.855
 6395POPC   C1A13575  22.960  41.576   8.555
 6395POPC   D2A13576  22.891  41.568   8.255
 6395POPC   C3A13577  22.945  41.546   7.955
 6395POPC   C4A13578  22.900  41.586   7.655
 6395POPC   C1B13579  22.675  41.561   8.555
 6395POPC   C2B13580  22.664  41.514   8.255
 6395POPC   C3B13581  22.723  41.573   7.955
 6395POPC   C4B13582  22.686  41.554   7.655
 6396POPC   NC313583  12.071  11.261   9.455
 6396POPC   PO413584  12.050  11.262   9.155
 6396POPC   GL113585  12.075  11.315   8.855
 6396POPC   GL213586  11.928  11.270   8.855
 6396POPC   C1A13587  12.100  11.251   8.555
 6396POPC   D2A13588  12.041  11.346   8.255
 6396POPC   C3A13589  12.056  11.297   7.955
 6396POPC   C4A13590  12.081  11.306   7.655
 6396POPC   C1B13591  11.850  11.226   8.555
 6396POPC   C2B13592  11.853  11.193   8.255
 6396POPC   C3B13593  11.805  11.256   7.955
 6396POPC   C4B13594  11.861  11.269   7.655
 6397POPC   NC313595  15.934  43.929   9.455
 6397POPC   PO413596  15.938  43.867   9.155
 6397POPC   GL113597  15.980  43.856   8.855
 6397POPC   GL213598  16.049  43.958   8.855
 6397POPC   C1A13599  15.934  43.874   8.555
 6397POPC   D2A13600  15.925  43.910   8.255
 6397POPC   C3A13601  15.962  43.908   7.955
 6397POPC   C4A13602  15.910  43.935   7.655
 6397POPC   C1B13603  16.177  43.977   8.555
 6397POPC   C2B13604  16.174  43.945   8.255
 6397POPC   C3B13605  16.221  43.972   7.955
 6397POPC   C4B13606  16.200  43.997   7.655
 6398POPC   NC313607  19.863  12.076   9.455
 6398POPC   PO413608  19.839  12.073   9.155
 6398POPC   GL113609  19.861  12.048   8.855
 6398POPC   GL213610  19.780  12.169   8.855
 6398POPC   C1A13611  19.837  12.120   8.555
 6398POPC   D2A13612  19.814  12.086   8.255
 6398POPC   C3A13613  19.791  12.091   7.955
 6398POPC   C4A13614  19.851  12.062   7.655
 6398POPC   C1B13615  19.776  12.268   8.555
 6398POPC   C2B13616  19.723  12.354   8.255
 6398POPC   C3B13617  19.711  12.267   7.955
 6398POPC   C4B13618  19.788  12.270   7.655
 6399POPC   NC313619   5.135  23.714   9.455
 6399POPC   PO413620   5.070  23.668   9.155
 6399POPC   GL113621   5.138  23.707   8.855
 6399POPC   GL213622   5.118  23.809   8.855
 6399POPC   C1A13623   5.074  23.726   8.555
 6399POPC   D2A13624   5.140  23.727   8.255
 6399POPC   C3A13625   5.125  23.762   7.955
 6399POPC   C4A13626   5.135  23.698   7.655
 6399POPC   C1B13627   5.192  23.930   8.555
 6399POPC   C2B13628   5.170  23.909   8.255
 6399POPC   C3B13629   5.239  23.920   7.955
 6399POPC   C4B13630   5.204  23.950   7.655
 6400POPC   NC313631  36.936   9.782   9.455
 6400POPC   PO413632  36.927   9.773   9.155
 6400POPC   GL113633  36.945   9.754   8.855
 6400POPC   GL213634  36.829   9.837   8.855
 6400POPC   C1A13635  36.913   9.798   8.555
 6400POPC   D2A13636  36.902   9.782   8.255
 6400POPC   C3A13637  36.947   9.795   7.955
 6400POPC   C4A13638  36.862   9.730   7.655
 6400POPC   C1B13639  36.750   9.964   8.555
 6400POPC   C2B13640  36.765   9.959   8.255
 6400POPC   C3B13641  36.761   9.931   7.955
 6400POPC   C4B13642  36.820   9.922   7.655
 6401POPC   NC313643   3.554   1.191   9.455
 6401POPC   PO413644   3.585   1.182   9.155
 6401POPC   GL113645   3.524   1.214   8.855
 6401POPC   GL213646   3.642   1.172   8.855
 6401POPC   C1A13647   3.498   1.196   8.555
 6401POPC   D2A13648   3.498   1.222   8.255
 6401POPC   C3A13649   3.586   1.223   7.955
 6401POPC   C4A13650   3.555   1.238   7.655
 6401POPC   C1B13651   3.719   1.006   8.555
 6401POPC   C2B13652   3.723   1.092   8.255
 6401POPC   C3B13653   3.702   1.046   7.955
 6401POPC   C4B13654   3.749   1.067   7.655
 6402POPC   NC313655  35.339  14.448   9.455
 6402POPC   PO413656  35.338  14.413   9.155
 6402POPC   GL113657  35.350  14.406   8.855
 6402POPC   GL213658  35.309  14.299   8.855
 6402POPC   C1A13659  35.372  14.433   8.555
 6402POPC   D2A13660  35.352  14.401   8.255
 6402POPC   C3A13661  35.327  14.378   7.955
 6402POPC   C4A13662  35.372  14.430   7.655
 6402POPC   C1B13663  35.149  14.226   8.555
 6402POPC   C2B13664  35.195  14.230   8.255
 6402POPC   C3B13665  35.127  14.255   7.955
 6402POPC   C4B13666  35.130  14.280   7.655
 6403POPC   NC313667  13.635  11.282   9.455
 6403POPC   PO413668  13.584  11.303   9.155
 6403POPC   GL113669  13.630  11.265   8.855
 6403POPC   GL213670  13.642  11.220   8.855
 6403POPC   C1A13671  13.655  11.253   8.555
 6403POPC   D2A13672  13.601  11.306   8.255
 6403POPC   C3A13673  13.639  11.327   7.955
 6403POPC   C4A13674  13.578  11.293   7.655
 6403POPC   C1B13675  13.511  11.056   8.555
 6403POPC   C2B13676  13.586  11.010   8.255
 6403POPC   C3B13677  13.603  11.043   7.955
 6403POPC   C4B13678  13.541  11.040   7.655
 6404POPC   NC313679  26.014  20.647   9.455
 6404POPC   PO413680  26.070  20.593   9.155
 6404POPC   GL113681  26.058  20.613   8.855
 6404POPC   GL213682  25.940  20.678   8.855
 6404POPC   C1A13683  26.010  20.568   8.555
 6404POPC   D2A13684  26.030  20.561   8.255
 6404POPC   C3A13685  26.069  20.620   7.955
 6404POPC   C4A13686  26.033  20.642   7.655
 6404POPC   C1B13687  25.847  20.670   8.555
 6404POPC   C2B13688  25.796  20.681   8.255
 6404POPC   C3B13689  25.852  20.683   7.955
 6404POPC   C4B13690  25.785  20.672   7.655
 6405POPC   NC313691   7.373  28.330   9.455
 6405POPC   PO413692   7.426  28.374   9.155
 6405POPC   GL113693   7.418  28.368   8.855
 6405POPC   GL213694   7.426  28.276   8.855
 6405POPC   C1A13695   7.420  28.413   8.555
 6405POPC   D2A13696   7.391  28.330   8.255
 6405POPC   C3A13697   7.415  28.336   7.955
 6405POPC   C4A13698   7.460  28.341   7.655
 6405POPC   C1B13699   7.296  28.126   8.555
 6405POPC   C2B13700   7.368  28.140   8.255
 6405POPC   C3B13701   7.328  28.154   7.955
 6405POPC   C4B13702   7.332  28.107   7.655
 6406POPC   NC313703  29.193  14.387   9.455
 6406POPC   PO413704  29.116  14.379   9.155
 6406POPC   GL113705  29.155  14.430   8.855
 6406POPC   GL213706  29.069  14.270   8.855
 6406POPC   C1A13707  29.126  14.404   8.555
 6406POPC   D2A13708  29.143  14.434   8.255
 6406POPC   C3A13709  29.148  14.392   7.955
 6406POPC   C4A13710  29.149  14.399   7.655
 6406POPC   C1B13711  29.041  14.158   8.555
 6406POPC   C2B13712  29.107  14.194   8.255
 6406POPC   C3B13713  29.103  14.139   7.955
 6406POPC   C4B13714  29.030  14.186   7.655
 6407POPC   NC313715  12.860  18.285   9.455
 6407POPC   PO413716  12.857  18.269   9.155
 6407POPC   GL113717  12.849  18.297   8.855
 6407POPC   GL213718  12.690  18.231   8.855
 6407POPC   C1A13719  12.856  18.252   8.555
 6407POPC   D2A13720  12.869  18.322   8.255
 6407POPC   C3A13721  12.803  18.323   7.955
 6407POPC   C4A13722  12.805  18.233   7.655
 6407POPC   C1B13723  12.557  18.311   8.555
 6407POPC   C2B13724  12.625  18.291   8.255
 6407POPC   C3B13725  12.622  18.228   7.955
 6407POPC   C4B13726  12.575  18.309   7.655
 6408POPC   NC313727  24.445  27.591   9.455
 6408POPC   PO413728  24.502  27.619   9.155
 6408POPC   GL113729  24.446  27.561   8.855
 6408POPC   GL213730  24.443  27.728   8.855
 6408POPC   C1A13731  24.485  27.545   8.555
 6408POPC   D2A13732  24.517  27.615   8.255
 6408POPC   C3A13733  24.508  27.580   7.955
 6408POPC   C4A13734  24.482  27.628   7.655
 6408POPC   C1B13735  24.308  27.801   8.555
 6408POPC   C2B13736  24.356  27.798   8.255
 6408POPC   C3B13737  24.306  27.760   7.955
 6408POPC   C4B13738  24.297  27.838   7.655
 6409POPC   NC313739  30.739  40.746   9.455
 6409POPC   PO413740  30.664  40.815   9.155
 6409POPC   GL113741  30.746  40.748   8.855
 6409POPC   GL213742  30.625  40.813   8.855
 6409POPC   C1A13743  30.693  40.764   8.555
 6409POPC   D2A13744  30.708  40.738   8.255
 6409POPC   C3A13745  30.655  40.811   7.955
 6409POPC   C4A13746  30.671  40.802   7.655
 6409POPC   C1B13747  30.508  40.826   8.555
 6409POPC   C2B13748  30.469  40.881   8.255
 6409POPC   C3B13749  30.471  40.887   7.955
 6409POPC   C4B13750  30.433  40.891   7.655
 6410POPC   NC313751  14.451  44.642   9.455
 6410POPC   PO413752  14.453  44.651   9.155
 6410POPC   GL113753  14.368  44.638   8.855
 6410POPC   GL213754  14.389  44.762   8.855
 6410POPC   C1A13755  14.383  44.651   8.555
 6410POPC   D2A13756  14.406  44.660   8.255
 6410POPC   C3A13757  14.423  44.681   7.955
 6410POPC   C4A13758  14.439  44.707   7.655
 6410POPC   C1B13759  14.479  44.927   8.555
 6410POPC   C2B13760  14.440  44.945   8.255
 6410POPC   C3B13761  14.473  44.882   7.955
 6410POPC   C4B13762  14.385  44.924   7.655
 6411POPC   NC313763  16.701  22.915   9.455
 6411POPC   PO413764  16.773  22.969   9.155
 6411POPC   GL113765  16.713  22.953   8.855
 6411POPC   GL213766  16.677  23.001   8.855
 6411POPC   C1A13767  16.700  22.906   8.555
 6411POPC   D2A13768  16.737  22.914   8.255
 6411POPC   C3A13769  16.719  22.909   7.955
 6411POPC   C4A13770  16.778  22.933   7.655
 6411POPC   C1B13771  16.544  23.115   8.555
 6411POPC   C2B13772  16.573  23.160   8.255
 6411POPC   C3B13773  16.602  23.159   7.955
 6411POPC   C4B13774  16.581  23.076   7.655
 6412POPC   NC313775  43.854  15.995   9.455
 6412POPC   PO413776  43.855  15.988   9.155
 6412POPC   GL113777  43.842  15.941   8.855
 6412POPC   GL213778  43.993  16.002   8.855
 6412POPC   C1A13779  43.873  15.945   8.555
 6412POPC   D2A13780  43.925  15.980   8.255
 6412POPC   C3A13781  43.878  15.988   7.955
 6412POPC   C4A13782  43.870  15.987   7.655
 6412POPC   C1B13783  44.125  16.111   8.555
 6412POPC   C2B13784  44.046  16.124   8.255
 6412POPC   C3B13785  44.035  16.092   7.955
 6412POPC   C4B13786  44.093  16.094   7.655
 6413POPC   NC313787  30.671  43.866   9.455
 6413POPC   PO413788  30.732  43.890   9.155
 6413POPC   GL113789  30.690  43.846   8.855
 6413POPC   GL213790  30.536  43.988   8.855
 6413POPC   C1A13791  30.742  43.842   8.555
 6413POPC   D2A13792  30.729  43.855   8.255
 6413POPC   C3A13793  30.695  43.902   7.955
 6413POPC   C4A13794  30.687  43.933   7.655
 6413POPC   C1B13795  30.451  43.984   8.555
 6413POPC   C2B13796  30.427  44.011   8.255
 6413POPC   C3B13797  30.429  44.024   7.955
 6413POPC   C4B13798  30.428  44.039   7.655
 6414POPC   NC313799  20.604   5.092   9.455
 6414POPC   PO413800  20.585   5.099   9.155
 6414POPC   GL113801  20.656   5.108   8.855
 6414POPC   GL213802  20.638   5.245   8.855
 6414POPC   C1A13803  20.605   5.069   8.555
 6414POPC   D2A13804  20.606   5.104   8.255
 6414POPC   C3A13805  20.562   5.072   7.955
 6414POPC   C4A13806  20.571   5.096   7.655
 6414POPC   C1B13807  20.658   5.316   8.555
 6414POPC   C2B13808  20.722   5.366   8.255
 6414POPC   C3B13809  20.669   5.332   7.955
 6414POPC   C4B13810  20.665   5.361   7.655
 6415POPC   NC313811  10.498  44.621   9.455
 6415POPC   PO413812  10.502  44.705   9.155
 6415POPC   GL113813  10.549  44.615   8.855
 6415POPC   GL213814  10.592  44.798   8.855
 6415POPC   C1A13815  10.478  44.655   8.555
 6415POPC   D2A13816  10.533  44.623   8.255
 6415POPC   C3A13817  10.547  44.656   7.955
 6415POPC   C4A13818  10.496  44.641   7.655
 6415POPC   C1B13819  10.679  44.842   8.555
 6415POPC   C2B13820  10.708  44.827   8.255
 6415POPC   C3B13821  10.643  44.853   7.955
 6415POPC   C4B13822  10.674  44.826   7.655
 6416POPC   NC313823  11.255  25.248   9.455
 6416POPC   PO413824  11.324  25.274   9.155
 6416POPC   GL113825  11.300  25.314   8.855
 6416POPC   GL213826  11.252  25.358   8.855
 6416POPC   C1A13827  11.299  25.292   8.555
 6416POPC   D2A13828  11.256  25.245   8.255
 6416POPC   C3A13829  11.289  25.279   7.955
 6416POPC   C4A13830  11.272  25.250   7.655
 6416POPC   C1B13831  11.208  25.523   8.555
 6416POPC   C2B13832  11.117  25.435   8.255
 6416POPC   C3B13833  11.160  25.522   7.955
 6416POPC   C4B13834  11.159  25.444   7.655
 6417POPC   NC313835   0.433  23.730   9.455
 6417POPC   PO413836   0.443  23.677   9.155
 6417POPC   GL113837   0.392  23.735   8.855
 6417POPC   GL213838   0.448  23.595   8.855
 6417POPC   C1A13839   0.438  23.722   8.555
 6417POPC   D2A13840   0.409  23.749   8.255
 6417POPC   C3A13841   0.445  23.664   7.955
 6417POPC   C4A13842   0.401  23.739   7.655
 6417POPC   C1B13843   0.381  23.450   8.555
 6417POPC   C2B13844   0.465  23.438   8.255
 6417POPC   C3B13845   0.411  23.489   7.955
 6417POPC   C4B13846   0.445  23.501   7.655
 6418POPC   NC313847  20.620  36.177   9.455
 6418POPC   PO413848  20.576  36.166   9.155
 6418POPC   GL113849  20.564  36.105   8.855
 6418POPC   GL213850  20.582  36.262   8.855
 6418POPC   C1A13851  20.617  36.156   8.555
 6418POPC   D2A13852  20.637  36.155   8.255
 6418POPC   C3A13853  20.638  36.166   7.955
 6418POPC   C4A13854  20.571  36.154   7.655
 6418POPC   C1B13855  20.554  36.419   8.555
 6418POPC   C2B13856  20.592  36.395   8.255
 6418POPC   C3B13857  20.594  36.405   7.955
 6418POPC   C4B13858  20.593  36.375   7.655
 6419POPC   NC313859  39.275  36.159   9.455
 6419POPC   PO413860  39.222  36.160   9.155
 6419POPC   GL113861  39.261  36.082   8.855
 6419POPC   GL213862  39.317  36.190   8.855
 6419POPC   C1A13863  39.203  36.144   8.555
 6419POPC   D2A13864  39.208  36.087   8.255
 6419POPC   C3A13865  39.239  36.153   7.955
 6419POPC   C4A13866  39.246  36.152   7.655
 6419POPC   C1B13867  39.512  36.139   8.555
 6419POPC   C2B13868  39.481  36.208   8.255
 6419POPC   C3B13869  39.479  36.223   7.955
 6419POPC   C4B13870  39.504  36.137   7.655
 6420POPC   NC313871  36.078   2.809   9.455
 6420POPC   PO413872  36.164   2.745   9.155
 6420POPC   GL113873  36.157   2.729   8.855
 6420POPC   GL213874  36.037   2.645   8.855
 6420POPC   C1A13875  36.107   2.744   8.555
 6420POPC   D2A13876  36.123   2.774   8.255
 6420POPC   C3A13877  36.111   2.774   7.955
 6420POPC   C4A13878  36.085   2.719   7.655
 6420POPC   C1B13879  35.955   2.600   8.555
 6420POPC   C2B13880  36.023   2.551   8.255
 6420POPC   C3B13881  36.009   2.579   7.955
 6420POPC   C4B13882  36.003   2.583   7.655
 6421POPC   NC313883  40.797   8.962   9.455
 6421POPC   PO413884  40.803   8.927   9.155
 6421POPC   GL113885  40.782   8.947   8.855
 6421POPC   GL213886  40.750   9.085   8.855
 6421POPC   C1A13887  40.794   8.988   8.555
 6421POPC   D2A13888  40.763   8.940   8.255
 6421POPC   C3A13889  40.753   8.948   7.955
 6421POPC   C4A13890  40.768   8.949   7.655
 6421POPC   C1B13891  40.666   9.199   8.555
 6421POPC   C2B13892  40.597   9.150   8.255
 6421POPC   C3B13893  40.612   9.175   7.955
 6421POPC   C4B13894  40.622   9.172   7.655
 6422POPC   NC313895  29.916  13.582   9.455
 6422POPC   PO413896  29.929  13.581   9.155
 6422POPC   GL113897  29.887  13.625   8.855
 6422POPC   GL213898  30.022  13.647   8.855
 6422POPC   C1A13899  29.909  13.601   8.555
 6422POPC   D2A13900  29.906  13.634   8.255
 6422POPC   C3A13901  29.882  13.628   7.955
 6422POPC   C4A13902  29.957  13.578   7.655
 6422POPC   C1B13903  30.125  13.611   8.555
 6422POPC   C2B13904  30.195  13.584   8.255
 6422POPC   C3B13905  30.148  13.588   7.955
 6422POPC   C4B13906  30.152  13.571   7.655
 6423POPC   NC313907  12.870  24.456   9.455
 6423POPC   PO413908  12.855  24.478   9.155
 6423POPC   GL113909  12.835  24.512   8.855
 6423POPC   GL213910  12.885  24.598   8.855
 6423POPC   C1A13911  12.857  24.462   8.555
 6423POPC   D2A13912  12.836  24.496   8.255
 6423POPC   C3A13913  12.849  24.505   7.955
 6423POPC   C4A13914  12.872  24.491   7.655
 6423POPC   C1B13915  13.020  24.686   8.555
 6423POPC   C2B13916  13.059  24.710   8.255
 6423POPC   C3B13917  12.975  24.669   7.955
 6423POPC   C4B13918  12.987  24.629   7.655
 6424POPC   NC313919  19.057  19.817   9.455
 6424POPC   PO413920  19.038  19.818   9.155
 6424POPC   GL113921  19.095  19.867   8.855
 6424POPC   GL213922  19.036  19.972   8.855
 6424POPC   C1A13923  19.032  19.834   8.555
 6424POPC   D2A13924  19.055  19.868   8.255
 6424POPC   C3A13925  19.026  19.875   7.955
 6424POPC   C4A13926  19.038  19.836   7.655
 6424POPC   C1B13927  19.049  20.075   8.555
 6424POPC   C2B13928  19.131  20.044   8.255
 6424POPC   C3B13929  19.055  20.074   7.955
 6424POPC   C4B13930  19.068  20.096   7.655
 6425POPC   NC313931   4.358  11.265   9.455
 6425POPC   PO413932   4.318  11.346   9.155
 6425POPC   GL113933   4.315  11.303   8.855
 6425POPC   GL213934   4.328  11.402   8.855
 6425POPC   C1A13935   4.354  11.281   8.555
 6425POPC   D2A13936   4.355  11.275   8.255
 6425POPC   C3A13937   4.298  11.266   7.955
 6425POPC   C4A13938   4.270  11.302   7.655
 6425POPC   C1B13939   4.423  11.555   8.555
 6425POPC   C2B13940   4.457  11.482   8.255
 6425POPC   C3B13941   4.376  11.538   7.955
 6425POPC   C4B13942   4.449  11.514   7.655
 6426POPC   NC313943   8.148  29.915   9.455
 6426POPC   PO413944   8.149  29.900   9.155
 6426POPC   GL113945   8.200  29.927   8.855
 6426POPC   GL213946   8.199  29.800   8.855
 6426POPC   C1A13947   8.185  29.902   8.555
 6426POPC   D2A13948   8.225  29.967   8.255
 6426POPC   C3A13949   8.188  29.893   7.955
 6426POPC   C4A13950   8.231  29.885   7.655
 6426POPC   C1B13951   8.113  29.668   8.555
 6426POPC   C2B13952   8.146  29.626   8.255
 6426POPC   C3B13953   8.169  29.714   7.955
 6426POPC   C4B13954   8.173  29.644   7.655
 6427POPC   NC313955  29.135  26.800   9.455
 6427POPC   PO413956  29.131  26.857   9.155
 6427POPC   GL113957  29.185  26.858   8.855
 6427POPC   GL213958  29.192  26.666   8.855
 6427POPC   C1A13959  29.167  26.796   8.555
 6427POPC   D2A13960  29.174  26.815   8.255
 6427POPC   C3A13961  29.176  26.790   7.955
 6427POPC   C4A13962  29.181  26.791   7.655
 6427POPC   C1B13963  29.243  26.598   8.555
 6427POPC   C2B13964  29.203  26.598   8.255
 6427POPC   C3B13965  29.296  26.639   7.955
 6427POPC   C4B13966  29.208  26.624   7.655
 6428POPC   NC313967  23.750  38.420   9.455
 6428POPC   PO413968  23.687  38.462   9.155
 6428POPC   GL113969  23.679  38.431   8.855
 6428POPC   GL213970  23.648  38.395   8.855
 6428POPC   C1A13971  23.670  38.495   8.555
 6428POPC   D2A13972  23.724  38.445   8.255
 6428POPC   C3A13973  23.704  38.450   7.955
 6428POPC   C4A13974  23.706  38.450   7.655
 6428POPC   C1B13975  23.533  38.234   8.555
 6428POPC   C2B13976  23.502  38.243   8.255
 6428POPC   C3B13977  23.507  38.272   7.955
 6428POPC   C4B13978  23.575  38.270   7.655
 6429POPC   NC313979  39.249  33.051   9.455
 6429POPC   PO413980  39.257  33.066   9.155
 6429POPC   GL113981  39.187  33.026   8.855
 6429POPC   GL213982  39.371  33.065   8.855
 6429POPC   C1A13983  39.196  33.003   8.555
 6429POPC   D2A13984  39.198  33.020   8.255
 6429POPC   C3A13985  39.242  33.014   7.955
 6429POPC   C4A13986  39.187  32.993   7.655
 6429POPC   C1B13987  39.520  33.064   8.555
 6429POPC   C2B13988  39.454  32.985   8.255
 6429POPC   C3B13989  39.450  33.009   7.955
 6429POPC   C4B13990  39.502  33.030   7.655
 6430POPC   NC313991   9.755   0.410   9.455
 6430POPC   PO413992   9.733   0.406   9.155
 6430POPC   GL113993   9.746   0.431   8.855
 6430POPC   GL213994   9.712   0.307   8.855
 6430POPC   C1A13995   9.767   0.410   8.555
 6430POPC   D2A13996   9.732   0.395   8.255
 6430POPC   C3A13997   9.755   0.454   7.955
 6430POPC   C4A13998   9.791   0.414   7.655
 6430POPC   C1B13999   9.546   0.241   8.555
 6430POPC   C2B14000   9.536   0.287   8.255
 6430POPC   C3B14001   9.555   0.227   7.955
 6430POPC   C4B14002   9.540   0.255   7.655
 6431POPC   NC314003  35.369  31.452   9.455
 6431POPC   PO414004  35.357  31.426   9.155
 6431POPC   GL114005  35.379  31.451   8.855
 6431POPC   GL214006  35.322  31.636   8.855
 6431POPC   C1A14007  35.322  31.488   8.555
 6431POPC   D2A14008  35.379  31.423   8.255
 6431POPC   C3A14009  35.392  31.515   7.955
 6431POPC   C4A14010  35.392  31.516   7.655
 6431POPC   C1B14011  35.285  31.682   8.555
 6431POPC   C2B14012  35.276  31.677   8.255
 6431POPC   C3B14013  35.275  31.692   7.955
 6431POPC   C4B14014  35.251  31.734   7.655
 6432POPC   NC314015  40.043  22.122   9.455
 6432POPC   PO414016  40.018  22.167   9.155
 6432POPC   GL114017  39.972  22.148   8.855
 6432POPC   GL214018  39.933  22.047   8.855
 6432POPC   C1A14019  39.978  22.130   8.555
 6432POPC   D2A14020  40.003  22.158   8.255
 6432POPC   C3A14021  40.054  22.176   7.955
 6432POPC   C4A14022  39.960  22.166   7.655
 6432POPC   C1B14023  39.844  21.945   8.555
 6432POPC   C2B14024  39.858  22.032   8.255
 6432POPC   C3B14025  39.844  21.981   7.955
 6432POPC   C4B14026  39.796  21.974   7.655
 6433POPC   NC314027  22.953  42.331   9.455
 6433POPC   PO414028  22.969  42.347   9.155
 6433POPC   GL114029  22.934  42.378   8.855
 6433POPC   GL214030  22.800  42.383   8.855
 6433POPC   C1A14031  22.910  42.369   8.555
 6433POPC   D2A14032  22.959  42.353   8.255
 6433POPC   C3A14033  22.892  42.334   7.955
 6433POPC   C4A14034  22.979  42.366   7.655
 6433POPC   C1B14035  22.739  42.513   8.555
 6433POPC   C2B14036  22.770  42.458   8.255
 6433POPC   C3B14037  22.754  42.504   7.955
 6433POPC   C4B14038  22.732  42.455   7.655
 6434POPC   NC314039  32.297  40.780   9.455
 6434POPC   PO414040  32.280  40.746   9.155
 6434POPC   GL114041  32.252  40.824   8.855
 6434POPC   GL214042  32.104  40.814   8.855
 6434POPC   C1A14043  32.225  40.740   8.555
 6434POPC   D2A14044  32.223  40.767   8.255
 6434POPC   C3A14045  32.274  40.745   7.955
 6434POPC   C4A14046  32.286  40.736   7.655
 6434POPC   C1B14047  31.965  40.830   8.555
 6434POPC   C2B14048  32.006  40.815   8.255
 6434POPC   C3B14049  31.973  40.830   7.955
 6434POPC   C4B14050  31.958  40.765   7.655
 6435POPC   NC314051  39.961  18.274   9.455
 6435POPC   PO414052  40.052  18.236   9.155
 6435POPC   GL114053  40.015  18.247   8.855
 6435POPC   GL214054  40.053  18.347   8.855
 6435POPC   C1A14055  40.006  18.267   8.555
 6435POPC   D2A14056  40.050  18.242   8.255
 6435POPC   C3A14057  39.993  18.291   7.955
 6435POPC   C4A14058  39.987  18.266   7.655
 6435POPC   C1B14059  40.158  18.452   8.555
 6435POPC   C2B14060  40.218  18.407   8.255
 6435POPC   C3B14061  40.189  18.498   7.955
 6435POPC   C4B14062  40.224  18.503   7.655
 6436POPC   NC314063   1.189   5.092   9.455
 6436POPC   PO414064   1.259   5.101   9.155
 6436POPC   GL114065   1.231   5.068   8.855
 6436POPC   GL214066   1.282   5.109   8.855
 6436POPC   C1A14067   1.212   5.129   8.555
 6436POPC   D2A14068   1.198   5.128   8.255
 6436POPC   C3A14069   1.225   5.067   7.955
 6436POPC   C4A14070   1.220   5.129   7.655
 6436POPC   C1B14071   1.482   5.143   8.555
 6436POPC   C2B14072   1.480   5.207   8.255
 6436POPC   C3B14073   1.437   5.141   7.955
 6436POPC   C4B14074   1.435   5.229   7.655
 6437POPC   NC314075  15.149  42.371   9.455
 6437POPC   PO414076  15.178  42.296   9.155
 6437POPC   GL114077  15.228  42.315   8.855
 6437POPC   GL214078  15.115  42.260   8.855
 6437POPC   C1A14079  15.193  42.292   8.555
 6437POPC   D2A14080  15.179  42.355   8.255
 6437POPC   C3A14081  15.220  42.376   7.955
 6437POPC   C4A14082  15.131  42.359   7.655
 6437POPC   C1B14083  15.087  42.102   8.555
 6437POPC   C2B14084  15.044  42.081   8.255
 6437POPC   C3B14085  15.098  42.099   7.955
 6437POPC   C4B14086  15.038  42.064   7.655
 6438POPC   NC314087  27.594   9.762   9.455
 6438POPC   PO414088  27.569   9.784   9.155
 6438POPC   GL114089  27.559   9.768   8.855
 6438POPC   GL214090  27.593   9.834   8.855
 6438POPC   C1A14091  27.563   9.699   8.555
 6438POPC   D2A14092  27.597   9.754   8.255
 6438POPC   C3A14093  27.562   9.778   7.955
 6438POPC   C4A14094  27.549   9.777   7.655
 6438POPC   C1B14095  27.615  10.012   8.555
 6438POPC   C2B14096  27.576   9.981   8.255
 6438POPC   C3B14097  27.596   9.968   7.955
 6438POPC   C4B14098  27.630  10.021   7.655
 6439POPC   NC314099  40.748   3.509   9.455
 6439POPC   PO414100  40.797   3.497   9.155
 6439POPC   GL114101  40.803   3.532   8.855
 6439POPC   GL214102  40.838   3.665   8.855
 6439POPC   C1A14103  40.753   3.529   8.555
 6439POPC   D2A14104  40.799   3.542   8.255
 6439POPC   C3A14105  40.826   3.496   7.955
 6439POPC   C4A14106  40.747   3.569   7.655
 6439POPC   C1B14107  40.975   3.750   8.555
 6439POPC   C2B14108  40.950   3.711   8.255
 6439POPC   C3B14109  40.922   3.677   7.955
 6439POPC   C4B14110  40.963   3.726   7.655
 6440POPC   NC314111  32.229  12.866   9.455
 6440POPC   PO414112  32.214  12.856   9.155
 6440POPC   GL114113  32.283  12.817   8.855
 6440POPC   GL214114  32.133  12.787   8.855
 6440POPC   C1A14115  32.200  12.867   8.555
 6440POPC   D2A14116  32.297  12.855   8.255
 6440POPC   C3A14117  32.248  12.843   7.955
 6440POPC   C4A14118  32.215  12.842   7.655
 6440POPC   C1B14119  32.025  12.719   8.555
 6440POPC   C2B14120  31.975  12.751   8.255
 6440POPC   C3B14121  32.058  12.805   7.955
 6440POPC   C4B14122  31.986  12.764   7.655
 6441POPC   NC314123  33.805  12.892   9.455
 6441POPC   PO414124  33.846  12.819   9.155
 6441POPC   GL114125  33.826  12.859   8.855
 6441POPC   GL214126  33.879  12.943   8.855
 6441POPC   C1A14127  33.847  12.868   8.555
 6441POPC   D2A14128  33.816  12.849   8.255
 6441POPC   C3A14129  33.816  12.822   7.955
 6441POPC   C4A14130  33.772  12.893   7.655
 6441POPC   C1B14131  34.061  12.932   8.555
 6441POPC   C2B14132  34.018  13.004   8.255
 6441POPC   C3B14133  33.974  12.933   7.955
 6441POPC   C4B14134  34.002  12.929   7.655
 6442POPC   NC314135  19.833  18.286   9.455
 6442POPC   PO414136  19.862  18.314   9.155
 6442POPC   GL114137  19.805  18.283   8.855
 6442POPC   GL214138  19.760  18.397   8.855
 6442POPC   C1A14139  19.852  18.326   8.555
 6442POPC   D2A14140  19.841  18.267   8.255
 6442POPC   C3A14141  19.788  18.247   7.955
 6442POPC   C4A14142  19.801  18.238   7.655
 6442POPC   C1B14143  19.675  18.458   8.555
 6442POPC   C2B14144  19.681  18.498   8.255
 6442POPC   C3B14145  19.635  18.447   7.955
 6442POPC   C4B14146  19.727  18.515   7.655
 6443POPC   NC314147   5.045  40.742   9.455
 6443POPC   PO414148   5.094  40.734   9.155
 6443POPC   GL114149   5.069  40.776   8.855
 6443POPC   GL214150   5.226  40.724   8.855
 6443POPC   C1A14151   5.081  40.774   8.555
 6443POPC   D2A14152   5.096  40.760   8.255
 6443POPC   C3A14153   5.064  40.808   7.955
 6443POPC   C4A14154   5.067  40.743   7.655
 6443POPC   C1B14155   5.341  40.730   8.555
 6443POPC   C2B14156   5.292  40.704   8.255
 6443POPC   C3B14157   5.275  40.643   7.955
 6443POPC   C4B14158   5.354  40.733   7.655
 6444POPC   NC314159  22.187  35.390   9.455
 6444POPC   PO414160  22.182  35.392   9.155
 6444POPC   GL114161  22.206  35.338   8.855
 6444POPC   GL214162  22.107  35.247   8.855
 6444POPC   C1A14163  22.155  35.378   8.555
 6444POPC   D2A14164  22.174  35.366   8.255
 6444POPC   C3A14165  22.129  35.303   7.955
 6444POPC   C4A14166  22.168  35.353   7.655
 6444POPC   C1B14167  21.949  35.218   8.555
 6444POPC   C2B14168  21.948  35.149   8.255
 6444POPC   C3B14169  22.020  35.125   7.955
 6444POPC   C4B14170  22.031  35.219   7.655
 6445POPC   NC314171  40.055  20.577   9.455
 6445POPC   PO414172  40.016  20.621   9.155
 6445POPC   GL114173  39.988  20.586   8.855
 6445POPC   GL214174  39.964  20.784   8.855
 6445POPC   C1A14175  39.959  20.612   8.555
 6445POPC   D2A14176  39.996  20.618   8.255
 6445POPC   C3A14177  39.994  20.586   7.955
 6445POPC   C4A14178  40.006  20.582   7.655
 6445POPC   C1B14179  39.995  20.902   8.555
 6445POPC   C2B14180  40.005  20.843   8.255
 6445POPC   C3B14181  39.951  20.875   7.955
 6445POPC   C4B14182  39.995  20.876   7.655
 6446POPC   NC314183  39.986  38.413   9.455
 6446POPC   PO414184  39.981  38.414   9.155
 6446POPC   GL114185  40.038  38.481   8.855
 6446POPC   GL214186  39.908  38.487   8.855
 6446POPC   C1A14187  40.034  38.431   8.555
 6446POPC   D2A14188  39.996  38.497   8.255
 6446POPC   C3A14189  39.979  38.444   7.955
 6446POPC   C4A14190  39.994  38.497   7.655
 6446POPC   C1B14191  39.726  38.463   8.555
 6446POPC   C2B14192  39.711  38.469   8.255
 6446POPC   C3B14193  39.749  38.408   7.955
 6446POPC   C4B14194  39.726  38.447   7.655
 6447POPC   NC314195   8.963  34.583   9.455
 6447POPC   PO414196   8.975  34.555   9.155
 6447POPC   GL114197   8.960  34.618   8.855
 6447POPC   GL214198   9.131  34.584   8.855
 6447POPC   C1A14199   8.975  34.574   8.555
 6447POPC   D2A14200   8.965  34.580   8.255
 6447POPC   C3A14201   8.973  34.584   7.955
 6447POPC   C4A14202   8.956  34.600   7.655
 6447POPC   C1B14203   9.189  34.524   8.555
 6447POPC   C2B14204   9.249  34.551   8.255
 6447POPC   C3B14205   9.244  34.545   7.955
 6447POPC   C4B14206   9.256  34.470   7.655
 6448POPC   NC314207  11.265  19.838   9.455
 6448POPC   PO414208  11.340  19.796   9.155
 6448POPC   GL114209  11.318  19.794   8.855
 6448POPC   GL214210  11.376  19.871   8.855
 6448POPC   C1A14211  11.252  19.878   8.555
 6448POPC   D2A14212  11.349  19.825   8.255
 6448POPC   C3A14213  11.279  19.840   7.955
 6448POPC   C4A14214  11.293  19.834   7.655
 6448POPC   C1B14215  11.493  19.855   8.555
 6448POPC   C2B14216  11.555  19.894   8.255
 6448POPC   C3B14217  11.557  19.853   7.955
 6448POPC   C4B14218  11.564  19.936   7.655
 6449POPC   NC314219  40.819  22.146   9.455
 6449POPC   PO414220  40.755  22.135   9.155
 6449POPC   GL114221  40.819  22.203   8.855
 6449POPC   GL214222  40.933  22.205   8.855
 6449POPC   C1A14223  40.777  22.125   8.555
 6449POPC   D2A14224  40.776  22.195   8.255
 6449POPC   C3A14225  40.827  22.121   7.955
 6449POPC   C4A14226  40.764  22.210   7.655
 6449POPC   C1B14227  40.981  22.270   8.555
 6449POPC   C2B14228  41.003  22.182   8.255
 6449POPC   C3B14229  40.990  22.203   7.955
 6449POPC   C4B14230  41.026  22.197   7.655
 6450POPC   NC314231  39.990  32.268   9.455
 6450POPC   PO414232  40.013  32.277   9.155
 6450POPC   GL114233  40.025  32.233   8.855
 6450POPC   GL214234  40.135  32.276   8.855
 6450POPC   C1A14235  39.989  32.296   8.555
 6450POPC   D2A14236  39.983  32.284   8.255
 6450POPC   C3A14237  40.003  32.282   7.955
 6450POPC   C4A14238  40.042  32.233   7.655
 6450POPC   C1B14239  40.209  32.274   8.555
 6450POPC   C2B14240  40.303  32.261   8.255
 6450POPC   C3B14241  40.269  32.184   7.955
 6450POPC   C4B14242  40.304  32.189   7.655
 6451POPC   NC314243   5.138  33.795   9.455
 6451POPC   PO414244   5.119  33.772   9.155
 6451POPC   GL114245   5.125  33.812   8.855
 6451POPC   GL214246   5.240  33.802   8.855
 6451POPC   C1A14247   5.100  33.841   8.555
 6451POPC   D2A14248   5.062  33.756   8.255
 6451POPC   C3A14249   5.125  33.825   7.955
 6451POPC   C4A14250   5.143  33.817   7.655
 6451POPC   C1B14251   5.356  33.877   8.555
 6451POPC   C2B14252   5.349  33.800   8.255
 6451POPC   C3B14253   5.324  33.800   7.955
 6451POPC   C4B14254   5.362  33.864   7.655
 6452POPC   NC314255  42.331  12.030   9.455
 6452POPC   PO414256  42.305  12.101   9.155
 6452POPC   GL114257  42.317  12.027   8.855
 6452POPC   GL214258  42.416  12.032   8.855
 6452POPC   C1A14259  42.338  12.065   8.555
 6452POPC   D2A14260  42.325  12.044   8.255
 6452POPC   C3A14261  42.331  12.030   7.955
 6452POPC   C4A14262  42.366  12.097   7.655
 6452POPC   C1B14263  42.508  11.930   8.555
 6452POPC   C2B14264  42.515  11.971   8.255
 6452POPC   C3B14265  42.502  11.954   7.955
 6452POPC   C4B14266  42.580  11.959   7.655
 6453POPC   NC314267  26.830   9.785   9.455
 6453POPC   PO414268  26.839   9.724   9.155
 6453POPC   GL114269  26.828   9.738   8.855
 6453POPC   GL214270  26.872   9.895   8.855
 6453POPC   C1A14271  26.787   9.760   8.555
 6453POPC   D2A14272  26.782   9.748   8.255
 6453POPC   C3A14273  26.794   9.784   7.955
 6453POPC   C4A14274  26.776   9.797   7.655
 6453POPC   C1B14275  26.962  10.005   8.555
 6453POPC   C2B14276  26.892   9.974   8.255
 6453POPC   C3B14277  26.939   9.958   7.955
 6453POPC   C4B14278  26.972   9.932   7.655
 6454POPC   NC314279  38.474   5.913   9.455
 6454POPC   PO414280  38.438   5.875   9.155
 6454POPC   GL114281  38.465   5.893   8.855
 6454POPC   GL214282  38.527   5.855   8.855
 6454POPC   C1A14283  38.498   5.861   8.555
 6454POPC   D2A14284  38.475   5.845   8.255
 6454POPC   C3A14285  38.449   5.889   7.955
 6454POPC   C4A14286  38.454   5.856   7.655
 6454POPC   C1B14287  38.664   5.793   8.555
 6454POPC   C2B14288  38.688   5.788   8.255
 6454POPC   C3B14289  38.692   5.813   7.955
 6454POPC   C4B14290  38.683   5.799   7.655
 6455POPC   NC314291  26.818  18.234   9.455
 6455POPC   PO414292  26.854  18.285   9.155
 6455POPC   GL114293  26.829  18.289   8.855
 6455POPC   GL214294  26.836  18.113   8.855
 6455POPC   C1A14295  26.792  18.331   8.555
 6455POPC   D2A14296  26.857  18.297   8.255
 6455POPC   C3A14297  26.815  18.317   7.955
 6455POPC   C4A14298  26.792  18.295   7.655
 6455POPC   C1B14299  26.829  18.012   8.555
 6455POPC   C2B14300  26.808  18.044   8.255
 6455POPC   C3B14301  26.872  18.074   7.955
 6455POPC   C4B14302  26.827  18.064   7.655
 6456POPC   NC314303  42.294   9.755   9.455
 6456POPC   PO414304  42.333   9.754   9.155
 6456POPC   GL114305  42.379   9.721   8.855
 6456POPC   GL214306  42.256   9.641   8.855
 6456POPC   C1A14307  42.352   9.704   8.555
 6456POPC   D2A14308  42.336   9.752   8.255
 6456POPC   C3A14309  42.307   9.792   7.955
 6456POPC   C4A14310  42.323   9.771   7.655
 6456POPC   C1B14311  42.107   9.656   8.555
 6456POPC   C2B14312  42.128   9.613   8.255
 6456POPC   C3B14313  42.133   9.645   7.955
 6456POPC   C4B14314  42.124   9.572   7.655
 6457POPC   NC314315  26.768  14.442   9.455
 6457POPC   PO414316  26.863  14.433   9.155
 6457POPC   GL114317  26.788  14.407   8.855
 6457POPC   GL214318  26.905  14.365   8.855
 6457POPC   C1A14319  26.815  14.395   8.555
 6457POPC   D2A14320  26.832  14.436   8.255
 6457POPC   C3A14321  26.797  14.363   7.955
 6457POPC   C4A14322  26.847  14.448   7.655
 6457POPC   C1B14323  27.020  14.398   8.555
 6457POPC   C2B14324  27.031  14.412   8.255
 6457POPC   C3B14325  27.098  14.462   7.955
 6457POPC   C4B14326  27.063  14.381   7.655
 6458POPC   NC314327   8.229  35.355   9.455
 6458POPC   PO414328   8.210  35.325   9.155
 6458POPC   GL114329   8.159  35.305   8.855
 6458POPC   GL214330   8.149  35.265   8.855
 6458POPC   C1A14331   8.159  35.312   8.555
 6458POPC   D2A14332   8.207  35.382   8.255
 6458POPC   C3A14333   8.185  35.366   7.955
 6458POPC   C4A14334   8.206  35.329   7.655
 6458POPC   C1B14335   8.108  35.085   8.555
 6458POPC   C2B14336   8.107  35.106   8.255
 6458POPC   C3B14337   8.103  35.146   7.955
 6458POPC   C4B14338   8.075  35.109   7.655
 6459POPC   NC314339  27.615   8.970   9.455
 6459POPC   PO414340  27.598   8.969   9.155
 6459POPC   GL114341  27.638   8.992   8.855
 6459POPC   GL214342  27.739   8.947   8.855
 6459POPC   C1A14343  27.621   9.017   8.555
 6459POPC   D2A14344  27.596   8.939   8.255
 6459POPC   C3A14345  27.574   8.958   7.955
 6459POPC   C4A14346  27.597   8.974   7.655
 6459POPC   C1B14347  27.814   8.865   8.555
 6459POPC   C2B14348  27.800   8.798   8.255
 6459POPC   C3B14349  27.841   8.858   7.955
 6459POPC   C4B14350  27.792   8.876   7.655
 6460POPC   NC314351  35.383  38.492   9.455
 6460POPC   PO414352  35.347  38.455   9.155
 6460POPC   GL114353  35.393  38.413   8.855
 6460POPC   GL214354  35.435  38.425   8.855
 6460POPC   C1A14355  35.393  38.433   8.555
 6460POPC   D2A14356  35.323  38.469   8.255
 6460POPC   C3A14357  35.307  38.463   7.955
 6460POPC   C4A14358  35.334  38.413   7.655
 6460POPC   C1B14359  35.574  38.364   8.555
 6460POPC   C2B14360  35.540  38.276   8.255
 6460POPC   C3B14361  35.556  38.330   7.955
 6460POPC   C4B14362  35.519  38.349   7.655
 6461POPC   NC314363   2.007  24.449   9.455
 6461POPC   PO414364   1.967  24.454   9.155
 6461POPC   GL114365   1.958  24.469   8.855
 6461POPC   GL214366   1.946  24.645   8.855
 6461POPC   C1A14367   2.030  24.508   8.555
 6461POPC   D2A14368   2.038  24.517   8.255
 6461POPC   C3A14369   1.999  24.490   7.955
 6461POPC   C4A14370   1.991  24.504   7.655
 6461POPC   C1B14371   1.979  24.695   8.555
 6461POPC   C2B14372   1.987  24.699   8.255
 6461POPC   C3B14373   1.906  24.734   7.955
 6461POPC   C4B14374   1.949  24.696   7.655
 6462POPC   NC314375  26.776  40.050   9.455
 6462POPC   PO414376  26.811  39.987   9.155
 6462POPC   GL114377  26.808  40.023   8.855
 6462POPC   GL214378  26.872  39.880   8.855
 6462POPC   C1A14379  26.796  40.022   8.555
 6462POPC   D2A14380  26.813  40.036   8.255
 6462POPC   C3A14381  26.777  39.991   7.955
 6462POPC   C4A14382  26.773  40.008   7.655
 6462POPC   C1B14383  26.877  39.808   8.555
 6462POPC   C2B14384  26.873  39.762   8.255
 6462POPC   C3B14385  26.888  39.749   7.955
 6462POPC   C4B14386  26.937  39.792   7.655
 6463POPC   NC314387  31.437  22.927   9.455
 6463POPC   PO414388  31.521  22.915   9.155
 6463POPC   GL114389  31.512  22.952   8.855
 6463POPC   GL214390  31.390  22.975   8.855
 6463POPC   C1A14391  31.433  22.972   8.555
 6463POPC   D2A14392  31.454  22.920   8.255
 6463POPC   C3A14393  31.461  22.943   7.955
 6463POPC   C4A14394  31.469  22.927   7.655
 6463POPC   C1B14395  31.226  23.062   8.555
 6463POPC   C2B14396  31.231  23.093   8.255
 6463POPC   C3B14397  31.303  23.116   7.955
 6463POPC   C4B14398  31.255  23.074   7.655
 6464POPC   NC314399   6.613   5.075   9.455
 6464POPC   PO414400   6.610   5.045   9.155
 6464POPC   GL114401   6.608   5.127   8.855
 6464POPC   GL214402   6.725   5.124   8.855
 6464POPC   C1A14403   6.615   5.073   8.555
 6464POPC   D2A14404   6.680   5.068   8.255
 6464POPC   C3A14405   6.689   5.056   7.955
 6464POPC   C4A14406   6.619   5.138   7.655
 6464POPC   C1B14407   6.923   5.142   8.555
 6464POPC   C2B14408   6.844   5.150   8.255
 6464POPC   C3B14409   6.911   5.127   7.955
 6464POPC   C4B14410   6.861   5.196   7.655
 6465POPC   NC314411   9.757  10.485   9.455
 6465POPC   PO414412   9.768  10.502   9.155
 6465POPC   GL114413   9.740  10.550   8.855
 6465POPC   GL214414   9.898  10.531   8.855
 6465POPC   C1A14415   9.790  10.526   8.555
 6465POPC   D2A14416   9.765  10.495   8.255
 6465POPC   C3A14417   9.757  10.516   7.955
 6465POPC   C4A14418   9.779  10.520   7.655
 6465POPC   C1B14419  10.003  10.463   8.555
 6465POPC   C2B14420  10.015  10.452   8.255
 6465POPC   C3B14421  10.016  10.515   7.955
 6465POPC   C4B14422   9.994  10.523   7.655
 6466POPC   NC314423  23.690  41.584   9.455
 6466POPC   PO414424  23.730  41.563   9.155
 6466POPC   GL114425  23.726  41.601   8.855
 6466POPC   GL214426  23.750  41.463   8.855
 6466POPC   C1A14427  23.716  41.517   8.555
 6466POPC   D2A14428  23.694  41.596   8.255
 6466POPC   C3A14429  23.720  41.587   7.955
 6466POPC   C4A14430  23.752  41.520   7.655
 6466POPC   C1B14431  23.788  41.303   8.555
 6466POPC   C2B14432  23.849  41.375   8.255
 6466POPC   C3B14433  23.827  41.357   7.955
 6466POPC   C4B14434  23.841  41.373   7.655
 6467POPC   NC314435  14.401  42.332   9.455
 6467POPC   PO414436  14.400  42.313   9.155
 6467POPC   GL114437  14.431  42.365   8.855
 6467POPC   GL214438  14.451  42.447   8.855
 6467POPC   C1A14439  14.376  42.324   8.555
 6467POPC   D2A14440  14.412  42.369   8.255
 6467POPC   C3A14441  14.453  42.296   7.955
 6467POPC   C4A14442  14.393  42.312   7.655
 6467POPC   C1B14443  14.602  42.465   8.555
 6467POPC   C2B14444  14.569  42.498   8.255
 6467POPC   C3B14445  14.613  42.509   7.955
 6467POPC   C4B14446  14.636  42.491   7.655
 6468POPC   NC314447  42.367  43.089   9.455
 6468POPC   PO414448  42.328  43.124   9.155
 6468POPC   GL114449  42.368  43.141   8.855
 6468POPC   GL214450  42.417  43.219   8.855
 6468POPC   C1A14451  42.358  43.075   8.555
 6468POPC   D2A14452  42.372  43.159   8.255
 6468POPC   C3A14453  42.367  43.133   7.955
 6468POPC   C4A14454  42.384  43.124   7.655
 6468POPC   C1B14455  42.501  43.229   8.555
 6468POPC   C2B14456  42.486  43.230   8.255
 6468POPC   C3B14457  42.545  43.289   7.955
 6468POPC   C4B14458  42.568  43.319   7.655
 6469POPC   NC314459  30.653  36.168   9.455
 6469POPC   PO414460  30.733  36.147   9.155
 6469POPC   GL114461  30.698  36.171   8.855
 6469POPC   GL214462  30.740  36.180   8.855
 6469POPC   C1A14463  30.670  36.114   8.555
 6469POPC   D2A14464  30.734  36.087   8.255
 6469POPC   C3A14465  30.738  36.078   7.955
 6469POPC   C4A14466  30.656  36.166   7.655
 6469POPC   C1B14467  30.874  36.326   8.555
 6469POPC   C2B14468  30.867  36.249   8.255
 6469POPC   C3B14469  30.917  36.261   7.955
 6469POPC   C4B14470  30.842  36.311   7.655
 6470POPC   NC314471  19.054  10.505   9.455
 6470POPC   PO414472  19.033  10.478   9.155
 6470POPC   GL114473  19.051  10.501   8.855
 6470POPC   GL214474  19.140  10.410   8.855
 6470POPC   C1A14475  19.093  10.548   8.555
 6470POPC   D2A14476  19.072  10.562   8.255
 6470POPC   C3A14477  19.023  10.500   7.955
 6470POPC   C4A14478  19.027  10.566   7.655
 6470POPC   C1B14479  19.095  10.325   8.555
 6470POPC   C2B14480  19.135  10.290   8.255
 6470POPC   C3B14481  19.116  10.273   7.955
 6470POPC   C4B14482  19.089  10.297   7.655
 6471POPC   NC314483  30.706   7.430   9.455
 6471POPC   PO414484  30.743   7.411   9.155
 6471POPC   GL114485  30.668   7.418   8.855
 6471POPC   GL214486  30.630   7.496   8.855
 6471POPC   C1A14487  30.650   7.464   8.555
 6471POPC   D2A14488  30.707   7.432   8.255
 6471POPC   C3A14489  30.735   7.432   7.955
 6471POPC   C4A14490  30.666   7.385   7.655
 6471POPC   C1B14491  30.443   7.545   8.555
 6471POPC   C2B14492  30.448   7.530   8.255
 6471POPC   C3B14493  30.483   7.492   7.955
 6471POPC   C4B14494  30.446   7.484   7.655
 6472POPC   NC314495  43.114  43.870   9.455
 6472POPC   PO414496  43.136  43.909   9.155
 6472POPC   GL114497  43.085  43.913   8.855
 6472POPC   GL214498  43.009  43.741   8.855
 6472POPC   C1A14499  43.144  43.854   8.555
 6472POPC   D2A14500  43.077  43.920   8.255
 6472POPC   C3A14501  43.079  43.896   7.955
 6472POPC   C4A14502  43.094  43.866   7.655
 6472POPC   C1B14503  43.040  43.620   8.555
 6472POPC   C2B14504  42.990  43.638   8.255
 6472POPC   C3B14505  42.963  43.683   7.955
 6472POPC   C4B14506  43.053  43.708   7.655
 6473POPC   NC314507  11.313  42.373   9.455
 6473POPC   PO414508  11.275  42.384   9.155
 6473POPC   GL114509  11.313  42.296   8.855
 6473POPC   GL214510  11.244  42.216   8.855
 6473POPC   C1A14511  11.337  42.335   8.555
 6473POPC   D2A14512  11.306  42.292   8.255
 6473POPC   C3A14513  11.277  42.314   7.955
 6473POPC   C4A14514  11.297  42.354   7.655
 6473POPC   C1B14515  11.170  42.119   8.555
 6473POPC   C2B14516  11.188  42.137   8.255
 6473POPC   C3B14517  11.151  42.119   7.955
 6473POPC   C4B14518  11.147  42.184   7.655
 6474POPC   NC314519  43.859  12.094   9.455
 6474POPC   PO414520  43.851  12.072   9.155
 6474POPC   GL114521  43.902  12.092   8.855
 6474POPC   GL214522  43.920  11.998   8.855
 6474POPC   C1A14523  43.877  12.102   8.555
 6474POPC   D2A14524  43.841  12.091   8.255
 6474POPC   C3A14525  43.882  12.088   7.955
 6474POPC   C4A14526  43.936  12.027   7.655
 6474POPC   C1B14527  43.875  11.867   8.555
 6474POPC   C2B14528  43.889  11.840   8.255
 6474POPC   C3B14529  43.855  11.822   7.955
 6474POPC   C4B14530  43.837  11.874   7.655
 6475POPC   NC314531   5.138  11.336   9.455
 6475POPC   PO414532   5.132  11.338   9.155
 6475POPC   GL114533   5.108  11.345   8.855
 6475POPC   GL214534   5.079  11.413   8.855
 6475POPC   C1A14535   5.051  11.287   8.555
 6475POPC   D2A14536   5.066  11.280   8.255
 6475POPC   C3A14537   5.077  11.348   7.955
 6475POPC   C4A14538   5.045  11.267   7.655
 6475POPC   C1B14539   5.013  11.564   8.555
 6475POPC   C2B14540   5.005  11.531   8.255
 6475POPC   C3B14541   5.009  11.573   7.955
 6475POPC   C4B14542   4.983  11.559   7.655
 6476POPC   NC314543  16.773   2.729   9.455
 6476POPC   PO414544  16.777   2.766   9.155
 6476POPC   GL114545  16.696   2.815   8.855
 6476POPC   GL214546  16.676   2.911   8.855
 6476POPC   C1A14547  16.743   2.755   8.555
 6476POPC   D2A14548  16.756   2.794   8.255
 6476POPC   C3A14549  16.706   2.758   7.955
 6476POPC   C4A14550  16.715   2.803   7.655
 6476POPC   C1B14551  16.530   2.959   8.555
 6476POPC   C2B14552  16.546   2.975   8.255
 6476POPC   C3B14553  16.604   2.948   7.955
 6476POPC   C4B14554  16.561   2.930   7.655
 6477POPC   NC314555  36.134   4.358   9.455
 6477POPC   PO414556  36.157   4.295   9.155
 6477POPC   GL114557  36.110   4.284   8.855
 6477POPC   GL214558  36.149   4.207   8.855
 6477POPC   C1A14559  36.114   4.267   8.555
 6477POPC   D2A14560  36.150   4.271   8.255
 6477POPC   C3A14561  36.177   4.307   7.955
 6477POPC   C4A14562  36.145   4.310   7.655
 6477POPC   C1B14563  36.090   4.050   8.555
 6477POPC   C2B14564  36.120   4.066   8.255
 6477POPC   C3B14565  36.088   4.089   7.955
 6477POPC   C4B14566  36.109   4.053   7.655
 6478POPC   NC314567  14.434   8.224   9.455
 6478POPC   PO414568  14.428   8.216   9.155
 6478POPC   GL114569  14.390   8.208   8.855
 6478POPC   GL214570  14.500   8.244   8.855
 6478POPC   C1A14571  14.421   8.240   8.555
 6478POPC   D2A14572  14.439   8.222   8.255
 6478POPC   C3A14573  14.443   8.153   7.955
 6478POPC   C4A14574  14.431   8.169   7.655
 6478POPC   C1B14575  14.634   8.192   8.555
 6478POPC   C2B14576  14.675   8.210   8.255
 6478POPC   C3B14577  14.681   8.209   7.955
 6478POPC   C4B14578  14.613   8.199   7.655
 6479POPC   NC314579  26.091   8.160   9.455
 6479POPC   PO414580  26.068   8.185   9.155
 6479POPC   GL114581  26.078   8.177   8.855
 6479POPC   GL214582  26.166   8.229   8.855
 6479POPC   C1A14583  26.006   8.189   8.555
 6479POPC   D2A14584  26.025   8.155   8.255
 6479POPC   C3A14585  25.992   8.152   7.955
 6479POPC   C4A14586  26.019   8.244   7.655
 6479POPC   C1B14587  26.333   8.221   8.555
 6479POPC   C2B14588  26.312   8.225   8.255
 6479POPC   C3B14589  26.296   8.264   7.955
 6479POPC   C4B14590  26.312   8.272   7.655
 6480POPC   NC314591  40.824  19.834   9.455
 6480POPC   PO414592  40.804  19.816   9.155
 6480POPC   GL114593  40.751  19.877   8.855
 6480POPC   GL214594  40.793  19.922   8.855
 6480POPC   C1A14595  40.744  19.800   8.555
 6480POPC   D2A14596  40.806  19.843   8.255
 6480POPC   C3A14597  40.739  19.828   7.955
 6480POPC   C4A14598  40.756  19.856   7.655
 6480POPC   C1B14599  40.889  20.118   8.555
 6480POPC   C2B14600  40.800  20.047   8.255
 6480POPC   C3B14601  40.854  20.121   7.955
 6480POPC   C4B14602  40.850  20.061   7.655
 6481POPC   NC314603  42.334  29.913   9.455
 6481POPC   PO414604  42.326  29.894   9.155
 6481POPC   GL114605  42.342  29.927   8.855
 6481POPC   GL214606  42.359  29.802   8.855
 6481POPC   C1A14607  42.328  29.898   8.555
 6481POPC   D2A14608  42.333  29.891   8.255
 6481POPC   C3A14609  42.291  29.913   7.955
 6481POPC   C4A14610  42.366  29.917   7.655
 6481POPC   C1B14611  42.489  29.675   8.555
 6481POPC   C2B14612  42.452  29.700   8.255
 6481POPC   C3B14613  42.485  29.683   7.955
 6481POPC   C4B14614  42.450  29.664   7.655
 6482POPC   NC314615  14.372  20.637   9.455
 6482POPC   PO414616  14.449  20.657   9.155
 6482POPC   GL114617  14.432  20.620   8.855
 6482POPC   GL214618  14.311  20.622   8.855
 6482POPC   C1A14619  14.450  20.575   8.555
 6482POPC   D2A14620  14.376  20.632   8.255
 6482POPC   C3A14621  14.407  20.583   7.955
 6482POPC   C4A14622  14.448  20.584   7.655
 6482POPC   C1B14623  14.131  20.494   8.555
 6482POPC   C2B14624  14.182  20.492   8.255
 6482POPC   C3B14625  14.210  20.552   7.955
 6482POPC   C4B14626  14.200  20.577   7.655
 6483POPC   NC314627  35.321  39.196   9.455
 6483POPC   PO414628  35.386  39.273   9.155
 6483POPC   GL114629  35.324  39.255   8.855
 6483POPC   GL214630  35.393  39.126   8.855
 6483POPC   C1A14631  35.339  39.191   8.555
 6483POPC   D2A14632  35.402  39.219   8.255
 6483POPC   C3A14633  35.366  39.251   7.955
 6483POPC   C4A14634  35.337  39.235   7.655
 6483POPC   C1B14635  35.444  38.994   8.555
 6483POPC   C2B14636  35.411  39.005   8.255
 6483POPC   C3B14637  35.463  39.037   7.955
 6483POPC   C4B14638  35.396  39.048   7.655
 6484POPC   NC314639  10.510  26.864   9.455
 6484POPC   PO414640  10.475  26.832   9.155
 6484POPC   GL114641  10.530  26.803   8.855
 6484POPC   GL214642  10.600  26.704   8.855
 6484POPC   C1A14643  10.566  26.866   8.555
 6484POPC   D2A14644  10.509  26.811   8.255
 6484POPC   C3A14645  10.569  26.787   7.955
 6484POPC   C4A14646  10.546  26.825   7.655
 6484POPC   C1B14647  10.716  26.626   8.555
 6484POPC   C2B14648  10.696  26.625   8.255
 6484POPC   C3B14649  10.705  26.626   7.955
 6484POPC   C4B14650  10.736  26.635   7.655
 6485POPC   NC314651  18.252   9.729   9.455
 6485POPC   PO414652  18.245   9.788   9.155
 6485POPC   GL114653  18.244   9.766   8.855
 6485POPC   GL214654  18.381   9.701   8.855
 6485POPC   C1A14655  18.306   9.711   8.555
 6485POPC   D2A14656  18.256   9.765   8.255
 6485POPC   C3A14657  18.294   9.795   7.955
 6485POPC   C4A14658  18.269   9.704   7.655
 6485POPC   C1B14659  18.457   9.562   8.555
 6485POPC   C2B14660  18.441   9.510   8.255
 6485POPC   C3B14661  18.400   9.583   7.955
 6485POPC   C4B14662  18.422   9.549   7.655
 6486POPC   NC314663  15.959  26.830   9.455
 6486POPC   PO414664  15.973  26.823   9.155
 6486POPC   GL114665  15.984  26.804   8.855
 6486POPC   GL214666  15.894  26.746   8.855
 6486POPC   C1A14667  15.936  26.809   8.555
 6486POPC   D2A14668  15.977  26.774   8.255
 6486POPC   C3A14669  15.989  26.842   7.955
 6486POPC   C4A14670  15.906  26.853   7.655
 6486POPC   C1B14671  15.910  26.619   8.555
 6486POPC   C2B14672  15.888  26.541   8.255
 6486POPC   C3B14673  15.878  26.611   7.955
 6486POPC   C4B14674  15.859  26.589   7.655
 6487POPC   NC314675   3.586  12.087   9.455
 6487POPC   PO414676   3.498  12.109   9.155
 6487POPC   GL114677   3.538  12.051   8.855
 6487POPC   GL214678   3.656  12.156   8.855
 6487POPC   C1A14679   3.524  12.112   8.555
 6487POPC   D2A14680   3.523  12.110   8.255
 6487POPC   C3A14681   3.547  12.042   7.955
 6487POPC   C4A14682   3.568  12.123   7.655
 6487POPC   C1B14683   3.737  12.260   8.555
 6487POPC   C2B14684   3.699  12.298   8.255
 6487POPC   C3B14685   3.669  12.285   7.955
 6487POPC   C4B14686   3.709  12.214   7.655
 6488POPC   NC314687  12.872   8.219   9.455
 6488POPC   PO414688  12.853   8.222   9.155
 6488POPC   GL114689  12.843   8.235   8.855
 6488POPC   GL214690  12.940   8.290   8.855
 6488POPC   C1A14691  12.886   8.173   8.555
 6488POPC   D2A14692  12.863   8.241   8.255
 6488POPC   C3A14693  12.825   8.189   7.955
 6488POPC   C4A14694  12.879   8.161   7.655
 6488POPC   C1B14695  12.998   8.418   8.555
 6488POPC   C2B14696  13.077   8.346   8.255
 6488POPC   C3B14697  13.003   8.389   7.955
 6488POPC   C4B14698  13.026   8.402   7.655
 6489POPC   NC314699  16.689  29.948   9.455
 6489POPC   PO414700  16.700  29.937   9.155
 6489POPC   GL114701  16.700  29.884   8.855
 6489POPC   GL214702  16.835  29.892   8.855
 6489POPC   C1A14703  16.763  29.879   8.555
 6489POPC   D2A14704  16.757  29.888   8.255
 6489POPC   C3A14705  16.690  29.964   7.955
 6489POPC   C4A14706  16.745  29.915   7.655
 6489POPC   C1B14707  16.895  29.830   8.555
 6489POPC   C2B14708  16.960  29.773   8.255
 6489POPC   C3B14709  16.941  29.775   7.955
 6489POPC   C4B14710  16.982  29.750   7.655
 6490POPC   NC314711  12.080  42.366   9.455
 6490POPC   PO414712  12.052  42.353   9.155
 6490POPC   GL114713  12.084  42.378   8.855
 6490POPC   GL214714  12.210  42.283   8.855
 6490POPC   C1A14715  12.100  42.322   8.555
 6490POPC   D2A14716  12.062  42.382   8.255
 6490POPC   C3A14717  12.026  42.371   7.955
 6490POPC   C4A14718  12.079  42.325   7.655
 6490POPC   C1B14719  12.291  42.304   8.555
 6490POPC   C2B14720  12.321  42.295   8.255
 6490POPC   C3B14721  12.341  42.286   7.955
 6490POPC   C4B14722  12.341  42.255   7.655
 6491POPC   NC314723  12.827  39.209   9.455
 6491POPC   PO414724  12.849  39.280   9.155
 6491POPC   GL114725  12.899  39.267   8.855
 6491POPC   GL214726  12.783  39.285   8.855
 6491POPC   C1A14727  12.888  39.254   8.555
 6491POPC   D2A14728  12.808  39.274   8.255
 6491POPC   C3A14729  12.898  39.210   7.955
 6491POPC   C4A14730  12.858  39.272   7.655
 6491POPC   C1B14731  12.662  39.451   8.555
 6491POPC   C2B14732  12.698  39.466   8.255
 6491POPC   C3B14733  12.657  39.376   7.955
 6491POPC   C4B14734  12.710  39.429   7.655
 6492POPC   NC314735  43.110  22.184   9.455
 6492POPC   PO414736  43.147  22.157   9.155
 6492POPC   GL114737  43.092  22.195   8.855
 6492POPC   GL214738  43.111  22.084   8.855
 6492POPC   C1A14739  43.135  22.170   8.555
 6492POPC   D2A14740  43.080  22.193   8.255
 6492POPC   C3A14741  43.068  22.196   7.955
 6492POPC   C4A14742  43.103  22.135   7.655
 6492POPC   C1B14743  43.162  21.915   8.555
 6492POPC   C2B14744  43.225  21.921   8.255
 6492POPC   C3B14745  43.178  21.889   7.955
 6492POPC   C4B14746  43.201  21.968   7.655
 6493POPC   NC314747  35.310  35.349   9.455
 6493POPC   PO414748  35.382  35.315   9.155
 6493POPC   GL114749  35.374  35.366   8.855
 6493POPC   GL214750  35.376  35.493   8.855
 6493POPC   C1A14751  35.314  35.384   8.555
 6493POPC   D2A14752  35.387  35.386   8.255
 6493POPC   C3A14753  35.304  35.379   7.955
 6493POPC   C4A14754  35.303  35.396   7.655
 6493POPC   C1B14755  35.474  35.554   8.555
 6493POPC   C2B14756  35.472  35.598   8.255
 6493POPC   C3B14757  35.378  35.614   7.955
 6493POPC   C4B14758  35.385  35.600   7.655
 6494POPC   NC314759  29.939  39.193   9.455
 6494POPC   PO414760  29.958  39.181   9.155
 6494POPC   GL114761  29.905  39.207   8.855
 6494POPC   GL214762  29.953  39.298   8.855
 6494POPC   C1A14763  29.932  39.235   8.555
 6494POPC   D2A14764  29.966  39.225   8.255
 6494POPC   C3A14765  29.962  39.185   7.955
 6494POPC   C4A14766  29.929  39.236   7.655
 6494POPC   C1B14767  30.058  39.433   8.555
 6494POPC   C2B14768  30.080  39.463   8.255
 6494POPC   C3B14769  30.041  39.417   7.955
 6494POPC   C4B14770  30.032  39.463   7.655
 6495POPC   NC314771   5.905  33.031   9.455
 6495POPC   PO414772   5.831  32.989   9.155
 6495POPC   GL114773   5.890  33.002   8.855
 6495POPC   GL214774   5.817  33.134   8.855
 6495POPC   C1A14775   5.919  33.017   8.555
 6495POPC   D2A14776   5.822  33.061   8.255
 6495POPC   C3A14777   5.899  33.037   7.955
 6495POPC   C4A14778   5.903  32.991   7.655
 6495POPC   C1B14779   5.788  33.220   8.555
 6495POPC   C2B14780   5.796  33.258   8.255
 6495POPC   C3B14781   5.789  33.302   7.955
 6495POPC   C4B14782   5.850  33.263   7.655
 6496POPC   NC314783  44.673  43.077   9.455
 6496POPC   PO414784  44.653  43.096   9.155
 6496POPC   GL114785  44.671  43.104   8.855
 6496POPC   GL214786  44.594  43.197   8.855
 6496POPC   C1A14787  44.688  43.156   8.555
 6496POPC   D2A14788  44.689  43.123   8.255
 6496POPC   C3A14789  44.684  43.084   7.955
 6496POPC   C4A14790  44.690  43.112   7.655
 6496POPC   C1B14791  44.468  43.225   8.555
 6496POPC   C2B14792  44.437  43.295   8.255
 6496POPC   C3B14793  44.512  43.271   7.955
 6496POPC   C4B14794  44.446  43.244   7.655
 6497POPC   NC314795   4.275   9.009   9.455
 6497POPC   PO414796   4.318   8.996   9.155
 6497POPC   GL114797   4.281   9.011   8.855
 6497POPC   GL214798   4.285   9.122   8.855
 6497POPC   C1A14799   4.302   8.945   8.555
 6497POPC   D2A14800   4.316   8.982   8.255
 6497POPC   C3A14801   4.307   8.940   7.955
 6497POPC   C4A14802   4.273   8.926   7.655
 6497POPC   C1B14803   4.220   9.164   8.555
 6497POPC   C2B14804   4.243   9.223   8.255
 6497POPC   C3B14805   4.217   9.235   7.955
 6497POPC   C4B14806   4.257   9.210   7.655
 6498POPC   NC314807  35.366  22.912   9.455
 6498POPC   PO414808  35.313  22.911   9.155
 6498POPC   GL114809  35.376  22.983   8.855
 6498POPC   GL214810  35.299  23.021   8.855
 6498POPC   C1A14811  35.347  22.950   8.555
 6498POPC   D2A14812  35.392  22.977   8.255
 6498POPC   C3A14813  35.322  22.915   7.955
 6498POPC   C4A14814  35.356  22.975   7.655
 6498POPC   C1B14815  35.173  23.094   8.555
 6498POPC   C2B14816  35.204  23.163   8.255
 6498POPC   C3B14817  35.200  23.124   7.955
 6498POPC   C4B14818  35.199  23.133   7.655
 6499POPC   NC314819   2.745   5.819   9.455
 6499POPC   PO414820   2.734   5.830   9.155
 6499POPC   GL114821   2.773   5.868   8.855
 6499POPC   GL214822   2.670   5.797   8.855
 6499POPC   C1A14823   2.753   5.852   8.555
 6499POPC   D2A14824   2.725   5.866   8.255
 6499POPC   C3A14825   2.758   5.887   7.955
 6499POPC   C4A14826   2.797   5.880   7.655
 6499POPC   C1B14827   2.600   5.732   8.555
 6499POPC   C2B14828   2.588   5.689   8.255
 6499POPC   C3B14829   2.623   5.699   7.955
 6499POPC   C4B14830   2.619   5.719   7.655
 6500POPC   NC314831   6.614  12.034   9.455
 6500POPC   PO414832   6.601  12.053   9.155
 6500POPC   GL114833   6.635  12.053   8.855
 6500POPC   GL214834   6.655  12.245   8.855
 6500POPC   C1A14835   6.670  12.114   8.555
 6500POPC   D2A14836   6.671  12.074   8.255
 6500POPC   C3A14837   6.670  12.083   7.955
 6500POPC   C4A14838   6.601  12.085   7.655
 6500POPC   C1B14839   6.691  12.277   8.555
 6500POPC   C2B14840   6.610  12.344   8.255
 6500POPC   C3B14841   6.687  12.293   7.955
 6500POPC   C4B14842   6.673  12.346   7.655
 6501POPC   NC314843  16.744  30.724   9.455
 6501POPC   PO414844  16.695  30.686   9.155
 6501POPC   GL114845  16.767  30.745   8.855
 6501POPC   GL214846  16.861  30.746   8.855
 6501POPC   C1A14847  16.710  30.714   8.555
 6501POPC   D2A14848  16.686  30.678   8.255
 6501POPC   C3A14849  16.700  30.664   7.955
 6501POPC   C4A14850  16.743  30.660   7.655
 6501POPC   C1B14851  16.920  30.812   8.555
 6501POPC   C2B14852  16.950  30.769   8.255
 6501POPC   C3B14853  16.961  30.790   7.955
 6501POPC   C4B14854  16.957  30.834   7.655
 6502POPC   NC314855   4.300  44.700   9.455
 6502POPC   PO414856   4.278  44.686   9.155
 6502POPC   GL114857   4.308  44.629   8.855
 6502POPC   GL214858   4.294  44.558   8.855
 6502POPC   C1A14859   4.325  44.705   8.555
 6502POPC   D2A14860   4.285  44.647   8.255
 6502POPC   C3A14861   4.353  44.710   7.955
 6502POPC   C4A14862   4.335  44.617   7.655
 6502POPC   C1B14863   4.184  44.436   8.555
 6502POPC   C2B14864   4.177  44.399   8.255
 6502POPC   C3B14865   4.172  44.425   7.955
 6502POPC   C4B14866   4.186  44.448   7.655
 6503POPC   NC314867  20.580   7.410   9.455
 6503POPC   PO414868  20.622   7.408   9.155
 6503POPC   GL114869  20.598   7.468   8.855
 6503POPC   GL214870  20.702   7.491   8.855
 6503POPC   C1A14871  20.654   7.407   8.555
 6503POPC   D2A14872  20.645   7.386   8.255
 6503POPC   C3A14873  20.579   7.464   7.955
 6503POPC   C4A14874  20.592   7.374   7.655
 6503POPC   C1B14875  20.691   7.634   8.555
 6503POPC   C2B14876  20.738   7.587   8.255
 6503POPC   C3B14877  20.701   7.637   7.955
 6503POPC   C4B14878  20.727   7.665   7.655
 6504POPC   NC314879  26.022   5.871   9.455
 6504POPC   PO414880  26.018   5.896   9.155
 6504POPC   GL114881  26.017   5.885   8.855
 6504POPC   GL214882  26.113   5.723   8.855
 6504POPC   C1A14883  26.062   5.878   8.555
 6504POPC   D2A14884  25.995   5.911   8.255
 6504POPC   C3A14885  26.018   5.860   7.955
 6504POPC   C4A14886  26.028   5.915   7.655
 6504POPC   C1B14887  26.146   5.636   8.555
 6504POPC   C2B14888  26.149   5.611   8.255
 6504POPC   C3B14889  26.157   5.640   7.955
 6504POPC   C4B14890  26.217   5.688   7.655
 6505POPC   NC314891  28.349  39.277   9.455
 6505POPC   PO414892  28.344  39.267   9.155
 6505POPC   GL114893  28.411  39.245   8.855
 6505POPC   GL214894  28.477  39.237   8.855
 6505POPC   C1A14895  28.412  39.238   8.555
 6505POPC   D2A14896  28.334  39.233   8.255
 6505POPC   C3A14897  28.359  39.213   7.955
 6505POPC   C4A14898  28.413  39.256   7.655
 6505POPC   C1B14899  28.646  39.239   8.555
 6505POPC   C2B14900  28.589  39.195   8.255
 6505POPC   C3B14901  28.611  39.178   7.955
 6505POPC   C4B14902  28.570  39.162   7.655
 6506POPC   NC314903   8.992  20.629   9.455
 6506POPC   PO414904   8.996  20.604   9.155
 6506POPC   GL114905   8.965  20.571   8.855
 6506POPC   GL214906   8.833  20.655   8.855
 6506POPC   C1A14907   8.963  20.591   8.555
 6506POPC   D2A14908   8.937  20.588   8.255
 6506POPC   C3A14909   8.986  20.584   7.955
 6506POPC   C4A14910   8.951  20.647   7.655
 6506POPC   C1B14911   8.743  20.727   8.555
 6506POPC   C2B14912   8.773  20.705   8.255
 6506POPC   C3B14913   8.742  20.725   7.955
 6506POPC   C4B14914   8.697  20.708   7.655
 6507POPC   NC314915  19.102  36.147   9.455
 6507POPC   PO414916  19.099  36.154   9.155
 6507POPC   GL114917  19.051  36.125   8.855
 6507POPC   GL214918  18.945  36.168   8.855
 6507POPC   C1A14919  19.071  36.123   8.555
 6507POPC   D2A14920  19.033  36.140   8.255
 6507POPC   C3A14921  19.075  36.144   7.955
 6507POPC   C4A14922  19.084  36.152   7.655
 6507POPC   C1B14923  18.791  36.254   8.555
 6507POPC   C2B14924  18.885  36.199   8.255
 6507POPC   C3B14925  18.844  36.209   7.955
 6507POPC   C4B14926  18.836  36.229   7.655
 6508POPC   NC314927  12.063  27.637   9.455
 6508POPC   PO414928  12.099  27.627   9.155
 6508POPC   GL114929  12.084  27.617   8.855
 6508POPC   GL214930  12.168  27.536   8.855
 6508POPC   C1A14931  12.030  27.634   8.555
 6508POPC   D2A14932  12.088  27.572   8.255
 6508POPC   C3A14933  12.034  27.597   7.955
 6508POPC   C4A14934  12.100  27.623   7.655
 6508POPC   C1B14935  12.260  27.424   8.555
 6508POPC   C2B14936  12.260  27.354   8.255
 6508POPC   C3B14937  12.188  27.420   7.955
 6508POPC   C4B14938  12.194  27.373   7.655
 6509POPC   NC314939  10.482  13.585   9.455
 6509POPC   PO414940  10.486  13.600   9.155
 6509POPC   GL114941  10.499  13.600   8.855
 6509POPC   GL214942  10.383  13.623   8.855
 6509POPC   C1A14943  10.489  13.578   8.555
 6509POPC   D2A14944  10.491  13.626   8.255
 6509POPC   C3A14945  10.507  13.661   7.955
 6509POPC   C4A14946  10.497  13.607   7.655
 6509POPC   C1B14947  10.317  13.661   8.555
 6509POPC   C2B14948  10.306  13.734   8.255
 6509POPC   C3B14949  10.258  13.751   7.955
 6509POPC   C4B14950  10.320  13.663   7.655
 6510POPC   NC314951  31.451  42.378   9.455
 6510POPC   PO414952  31.497  42.323   9.155
 6510POPC   GL114953  31.438  42.292   8.855
 6510POPC   GL214954  31.597  42.392   8.855
 6510POPC   C1A14955  31.474  42.296   8.555
 6510POPC   D2A14956  31.470  42.293   8.255
 6510POPC   C3A14957  31.460  42.377   7.955
 6510POPC   C4A14958  31.488  42.339   7.655
 6510POPC   C1B14959  31.720  42.387   8.555
 6510POPC   C2B14960  31.758  42.355   8.255
 6510POPC   C3B14961  31.701  42.351   7.955
 6510POPC   C4B14962  31.716  42.329   7.655
 6511POPC   NC314963  14.405   6.658   9.455
 6511POPC   PO414964  14.362   6.660   9.155
 6511POPC   GL114965  14.444   6.637   8.855
 6511POPC   GL214966  14.476   6.712   8.855
 6511POPC   C1A14967  14.361   6.630   8.555
 6511POPC   D2A14968  14.386   6.609   8.255
 6511POPC   C3A14969  14.452   6.671   7.955
 6511POPC   C4A14970  14.437   6.657   7.655
 6511POPC   C1B14971  14.577   6.819   8.555
 6511POPC   C2B14972  14.636   6.800   8.255
 6511POPC   C3B14973  14.628   6.805   7.955
 6511POPC   C4B14974  14.585   6.842   7.655
 6512POPC   NC314975  40.803  23.677   9.455
 6512POPC   PO414976  40.743  23.718   9.155
 6512POPC   GL114977  40.788  23.703   8.855
 6512POPC   GL214978  40.684  23.720   8.855
 6512POPC   C1A14979  40.762  23.731   8.555
 6512POPC   D2A14980  40.750  23.715   8.255
 6512POPC   C3A14981  40.741  23.687   7.955
 6512POPC   C4A14982  40.825  23.719   7.655
 6512POPC   C1B14983  40.549  23.742   8.555
 6512POPC   C2B14984  40.495  23.682   8.255
 6512POPC   C3B14985  40.492  23.723   7.955
 6512POPC   C4B14986  40.580  23.706   7.655
 6513POPC   NC314987   9.790  31.521   9.455
 6513POPC   PO414988   9.753  31.433   9.155
 6513POPC   GL114989   9.727  31.470   8.855
 6513POPC   GL214990   9.847  31.397   8.855
 6513POPC   C1A14991   9.773  31.461   8.555
 6513POPC   D2A14992   9.794  31.443   8.255
 6513POPC   C3A14993   9.768  31.432   7.955
 6513POPC   C4A14994   9.721  31.452   7.655
 6513POPC   C1B14995   9.953  31.340   8.555
 6513POPC   C2B14996   9.996  31.395   8.255
 6513POPC   C3B14997   9.986  31.333   7.955
 6513POPC   C4B14998   9.992  31.339   7.655
 6514POPC   NC314999   7.441   6.676   9.455
 6514POPC   PO415000   7.438   6.662   9.155
 6514POPC   GL115001   7.464   6.675   8.855
 6514POPC   GL215002   7.437   6.729   8.855
 6514POPC   C1A15003   7.434   6.610   8.555
 6514POPC   D2A15004   7.415   6.671   8.255
 6514POPC   C3A15005   7.377   6.602   7.955
 6514POPC   C4A15006   7.387   6.680   7.655
 6514POPC   C1B15007   7.503   6.880   8.555
 6514POPC   C2B15008   7.499   6.863   8.255
 6514POPC   C3B15009   7.560   6.910   7.955
 6514POPC   C4B15010   7.576   6.816   7.655
 6515POPC   NC315011  26.024  42.287   9.455
 6515POPC   PO415012  25.997  42.350   9.155
 6515POPC   GL115013  25.996  42.335   8.855
 6515POPC   GL215014  26.209  42.358   8.855
 6515POPC   C1A15015  26.024  42.330   8.555
 6515POPC   D2A15016  26.044  42.348   8.255
 6515POPC   C3A15017  26.027  42.315   7.955
 6515POPC   C4A15018  26.046  42.296   7.655
 6515POPC   C1B15019  26.240  42.345   8.555
 6515POPC   C2B15020  26.267  42.297   8.255
 6515POPC   C3B15021  26.239  42.339   7.955
 6515POPC   C4B15022  26.314  42.255   7.655
 6516POPC   NC315023  40.752  22.908   9.455
 6516POPC   PO415024  40.759  22.955   9.155
 6516POPC   GL115025  40.809  22.936   8.855
 6516POPC   GL215026  40.666  22.957   8.855
 6516POPC   C1A15027  40.772  22.948   8.555
 6516POPC   D2A15028  40.803  22.922   8.255
 6516POPC   C3A15029  40.747  22.932   7.955
 6516POPC   C4A15030  40.796  22.901   7.655
 6516POPC   C1B15031  40.578  23.060   8.555
 6516POPC   C2B15032  40.587  23.009   8.255
 6516POPC   C3B15033  40.554  23.008   7.955
 6516POPC   C4B15034  40.569  23.042   7.655
 6517POPC   NC315035   5.860   2.743   9.455
 6517POPC   PO415036   5.853   2.735   9.155
 6517POPC   GL115037   5.901   2.731   8.855
 6517POPC   GL215038   6.040   2.741   8.855
 6517POPC   C1A15039   5.888   2.780   8.555
 6517POPC   D2A15040   5.844   2.736   8.255
 6517POPC   C3A15041   5.830   2.739   7.955
 6517POPC   C4A15042   5.887   2.779   7.655
 6517POPC   C1B15043   6.141   2.789   8.555
 6517POPC   C2B15044   6.093   2.768   8.255
 6517POPC   C3B15045   6.129   2.825   7.955
 6517POPC   C4B15046   6.142   2.760   7.655
 6518POPC   NC315047  14.437  26.811   9.455
 6518POPC   PO415048  14.396  26.861   9.155
 6518POPC   GL115049  14.443  26.770   8.855
 6518POPC   GL215050  14.510  26.860   8.855
 6518POPC   C1A15051  14.453  26.818   8.555
 6518POPC   D2A15052  14.378  26.772   8.255
 6518POPC   C3A15053  14.397  26.845   7.955
 6518POPC   C4A15054  14.437  26.825   7.655
 6518POPC   C1B15055  14.645  26.826   8.555
 6518POPC   C2B15056  14.632  26.845   8.255
 6518POPC   C3B15057  14.630  26.832   7.955
 6518POPC   C4B15058  14.663  26.804   7.655
 6519POPC   NC315059  33.759  13.636   9.455
 6519POPC   PO415060  33.831  13.629   9.155
 6519POPC   GL115061  33.760  13.638   8.855
 6519POPC   GL215062  33.871  13.746   8.855
 6519POPC   C1A15063  33.774  13.637   8.555
 6519POPC   D2A15064  33.796  13.650   8.255
 6519POPC   C3A15065  33.784  13.586   7.955
 6519POPC   C4A15066  33.813  13.608   7.655
 6519POPC   C1B15067  33.978  13.758   8.555
 6519POPC   C2B15068  33.940  13.826   8.255
 6519POPC   C3B15069  33.964  13.750   7.955
 6519POPC   C4B15070  33.985  13.788   7.655
 6520POPC   NC315071  29.886  24.453   9.455
 6520POPC   PO415072  29.919  24.472   9.155
 6520POPC   GL115073  29.871  24.515   8.855
 6520POPC   GL215074  30.087  24.475   8.855
 6520POPC   C1A15075  29.954  24.520   8.555
 6520POPC   D2A15076  29.942  24.482   8.255
 6520POPC   C3A15077  29.913  24.535   7.955
 6520POPC   C4A15078  29.884  24.446   7.655
 6520POPC   C1B15079  30.125  24.445   8.555
 6520POPC   C2B15080  30.178  24.456   8.255
 6520POPC   C3B15081  30.127  24.501   7.955
 6520POPC   C4B15082  30.128  24.448   7.655
 6521POPC   NC315083  20.625  43.883   9.455
 6521POPC   PO415084  20.620  43.908   9.155
 6521POPC   GL115085  20.614  43.903   8.855
 6521POPC   GL215086  20.600  43.732   8.855
 6521POPC   C1A15087  20.644  43.884   8.555
 6521POPC   D2A15088  20.605  43.891   8.255
 6521POPC   C3A15089  20.573  43.873   7.955
 6521POPC   C4A15090  20.637  43.874   7.655
 6521POPC   C1B15091  20.585  43.666   8.555
 6521POPC   C2B15092  20.586  43.648   8.255
 6521POPC   C3B15093  20.580  43.611   7.955
 6521POPC   C4B15094  20.551  43.609   7.655
 6522POPC   NC315095  34.587  29.097   9.455
 6522POPC   PO415096  34.538  29.193   9.155
 6522POPC   GL115097  34.539  29.104   8.855
 6522POPC   GL215098  34.684  29.181   8.855
 6522POPC   C1A15099  34.587  29.127   8.555
 6522POPC   D2A15100  34.591  29.136   8.255
 6522POPC   C3A15101  34.603  29.188   7.955
 6522POPC   C4A15102  34.587  29.098   7.655
 6522POPC   C1B15103  34.800  29.279   8.555
 6522POPC   C2B15104  34.830  29.261   8.255
 6522POPC   C3B15105  34.800  29.302   7.955
 6522POPC   C4B15106  34.837  29.254   7.655
 6523POPC   NC315107  42.336   5.043   9.455
 6523POPC   PO415108  42.371   5.065   9.155
 6523POPC   GL115109  42.343   5.140   8.855
 6523POPC   GL215110  42.387   4.974   8.855
 6523POPC   C1A15111  42.374   5.083   8.555
 6523POPC   D2A15112  42.377   5.049   8.255
 6523POPC   C3A15113  42.379   5.076   7.955
 6523POPC   C4A15114  42.321   5.065   7.655
 6523POPC   C1B15115  42.378   4.853   8.555
 6523POPC   C2B15116  42.390   4.837   8.255
 6523POPC   C3B15117  42.407   4.891   7.955
 6523POPC   C4B15118  42.423   4.909   7.655
 6524POPC   NC315119  12.094  41.590   9.455
 6524POPC   PO415120  12.081  41.526   9.155
 6524POPC   GL115121  12.027  41.516   8.855
 6524POPC   GL215122  12.022  41.683   8.855
 6524POPC   C1A15123  12.104  41.596   8.555
 6524POPC   D2A15124  12.036  41.583   8.255
 6524POPC   C3A15125  12.077  41.582   7.955
 6524POPC   C4A15126  12.087  41.558   7.655
 6524POPC   C1B15127  11.844  41.695   8.555
 6524POPC   C2B15128  11.909  41.678   8.255
 6524POPC   C3B15129  11.911  41.714   7.955
 6524POPC   C4B15130  11.899  41.700   7.655
 6525POPC   NC315131   6.617  42.351   9.455
 6525POPC   PO415132   6.660  42.329   9.155
 6525POPC   GL115133   6.602  42.367   8.855
 6525POPC   GL215134   6.637  42.463   8.855
 6525POPC   C1A15135   6.662  42.356   8.555
 6525POPC   D2A15136   6.644  42.354   8.255
 6525POPC   C3A15137   6.660  42.285   7.955
 6525POPC   C4A15138   6.681  42.378   7.655
 6525POPC   C1B15139   6.494  42.531   8.555
 6525POPC   C2B15140   6.559  42.519   8.255
 6525POPC   C3B15141   6.506  42.537   7.955
 6525POPC   C4B15142   6.534  42.522   7.655
 6526POPC   NC315143  36.090  33.033   9.455
 6526POPC   PO415144  36.102  33.013   9.155
 6526POPC   GL115145  36.110  33.043   8.855
 6526POPC   GL215146  36.227  32.926   8.855
 6526POPC   C1A15147  36.169  32.994   8.555
 6526POPC   D2A15148  36.103  33.031   8.255
 6526POPC   C3A15149  36.097  32.981   7.955
 6526POPC   C4A15150  36.150  33.029   7.655
 6526POPC   C1B15151  36.307  32.934   8.555
 6526POPC   C2B15152  36.338  32.908   8.255
 6526POPC   C3B15153  36.347  32.954   7.955
 6526POPC   C4B15154  36.395  32.856   7.655
 6527POPC   NC315155  19.838  22.933   9.455
 6527POPC   PO415156  19.820  22.916   9.155
 6527POPC   GL115157  19.820  22.940   8.855
 6527POPC   GL215158  19.813  22.781   8.855
 6527POPC   C1A15159  19.812  22.944   8.555
 6527POPC   D2A15160  19.861  22.920   8.255
 6527POPC   C3A15161  19.798  22.908   7.955
 6527POPC   C4A15162  19.836  22.892   7.655
 6527POPC   C1B15163  19.739  22.718   8.555
 6527POPC   C2B15164  19.713  22.712   8.255
 6527POPC   C3B15165  19.693  22.760   7.955
 6527POPC   C4B15166  19.724  22.687   7.655
 6528POPC   NC315167  12.050  26.001   9.455
 6528POPC   PO415168  12.070  25.998   9.155
 6528POPC   GL115169  12.111  26.032   8.855
 6528POPC   GL215170  12.065  25.928   8.855
 6528POPC   C1A15171  12.103  26.057   8.555
 6528POPC   D2A15172  12.093  26.075   8.255
 6528POPC   C3A15173  12.106  26.076   7.955
 6528POPC   C4A15174  12.040  26.018   7.655
 6528POPC   C1B15175  12.159  25.785   8.555
 6528POPC   C2B15176  12.140  25.822   8.255
 6528POPC   C3B15177  12.146  25.750   7.955
 6528POPC   C4B15178  12.144  25.806   7.655
 6529POPC   NC315179   7.440  33.029   9.455
 6529POPC   PO415180   7.385  32.999   9.155
 6529POPC   GL115181   7.432  33.005   8.855
 6529POPC   GL215182   7.560  33.000   8.855
 6529POPC   C1A15183   7.455  32.986   8.555
 6529POPC   D2A15184   7.422  32.992   8.255
 6529POPC   C3A15185   7.439  32.990   7.955
 6529POPC   C4A15186   7.389  33.025   7.655
 6529POPC   C1B15187   7.682  32.947   8.555
 6529POPC   C2B15188   7.622  33.025   8.255
 6529POPC   C3B15189   7.623  32.937   7.955
 6529POPC   C4B15190   7.636  33.026   7.655
 6530POPC   NC315191  39.260  32.244   9.455
 6530POPC   PO415192  39.260  32.213   9.155
 6530POPC   GL115193  39.218  32.253   8.855
 6530POPC   GL215194  39.209  32.141   8.855
 6530POPC   C1A15195  39.265  32.260   8.555
 6530POPC   D2A15196  39.184  32.237   8.255
 6530POPC   C3A15197  39.203  32.203   7.955
 6530POPC   C4A15198  39.269  32.246   7.655
 6530POPC   C1B15199  39.102  32.031   8.555
 6530POPC   C2B15200  39.131  32.001   8.255
 6530POPC   C3B15201  39.087  32.034   7.955
 6530POPC   C4B15202  39.044  32.081   7.655
 6531POPC   NC315203  43.855  13.652   9.455
 6531POPC   PO415204  43.873  13.624   9.155
 6531POPC   GL115205  43.932  13.641   8.855
 6531POPC   GL215206  43.806  13.751   8.855
 6531POPC   C1A15207  43.874  13.638   8.555
 6531POPC   D2A15208  43.907  13.623   8.255
 6531POPC   C3A15209  43.856  13.597   7.955
 6531POPC   C4A15210  43.858  13.607   7.655
 6531POPC   C1B15211  43.756  13.843   8.555
 6531POPC   C2B15212  43.701  13.854   8.255
 6531POPC   C3B15213  43.729  13.837   7.955
 6531POPC   C4B15214  43.771  13.858   7.655
 6532POPC   NC315215  34.620  25.293   9.455
 6532POPC   PO415216  34.541  25.235   9.155
 6532POPC   GL115217  34.534  25.264   8.855
 6532POPC   GL215218  34.571  25.095   8.855
 6532POPC   C1A15219  34.560  25.280   8.555
 6532POPC   D2A15220  34.618  25.286   8.255
 6532POPC   C3A15221  34.599  25.243   7.955
 6532POPC   C4A15222  34.545  25.314   7.655
 6532POPC   C1B15223  34.609  25.037   8.555
 6532POPC   C2B15224  34.625  25.046   8.255
 6532POPC   C3B15225  34.580  25.018   7.955
 6532POPC   C4B15226  34.593  25.009   7.655
 6533POPC   NC315227  37.714  39.974   9.455
 6533POPC   PO415228  37.685  40.046   9.155
 6533POPC   GL115229  37.728  39.990   8.855
 6533POPC   GL215230  37.615  40.162   8.855
 6533POPC   C1A15231  37.658  40.000   8.555
 6533POPC   D2A15232  37.664  40.027   8.255
 6533POPC   C3A15233  37.664  39.961   7.955
 6533POPC   C4A15234  37.686  39.961   7.655
 6533POPC   C1B15235  37.582  40.274   8.555
 6533POPC   C2B15236  37.582  40.281   8.255
 6533POPC   C3B15237  37.615  40.227   7.955
 6533POPC   C4B15238  37.579  40.219   7.655
 6534POPC   NC315239  29.934  38.502   9.455
 6534POPC   PO415240  29.916  38.450   9.155
 6534POPC   GL115241  29.879  38.456   8.855
 6534POPC   GL215242  29.958  38.574   8.855
 6534POPC   C1A15243  29.952  38.503   8.555
 6534POPC   D2A15244  29.936  38.415   8.255
 6534POPC   C3A15245  29.928  38.450   7.955
 6534POPC   C4A15246  29.951  38.503   7.655
 6534POPC   C1B15247  29.899  38.730   8.555
 6534POPC   C2B15248  29.948  38.701   8.255
 6534POPC   C3B15249  29.954  38.664   7.955
 6534POPC   C4B15250  29.938  38.716   7.655
 6535POPC   NC315251  42.362  18.280   9.455
 6535POPC   PO415252  42.285  18.325   9.155
 6535POPC   GL115253  42.296  18.329   8.855
 6535POPC   GL215254  42.442  18.171   8.855
 6535POPC   C1A15255  42.295  18.268   8.555
 6535POPC   D2A15256  42.332  18.244   8.255
 6535POPC   C3A15257  42.375  18.260   7.955
 6535POPC   C4A15258  42.300  18.294   7.655
 6535POPC   C1B15259  42.523  18.185   8.555
 6535POPC   C2B15260  42.521  18.149   8.255
 6535POPC   C3B15261  42.587  18.158   7.955
 6535POPC   C4B15262  42.556  18.190   7.655
 6536POPC   NC315263  15.911  15.971   9.455
 6536POPC   PO415264  15.979  15.983   9.155
 6536POPC   GL115265  15.922  15.937   8.855
 6536POPC   GL215266  15.887  15.915   8.855
 6536POPC   C1A15267  15.967  15.946   8.555
 6536POPC   D2A15268  16.002  15.961   8.255
 6536POPC   C3A15269  15.949  15.920   7.955
 6536POPC   C4A15270  15.981  15.931   7.655
 6536POPC   C1B15271  15.786  15.787   8.555
 6536POPC   C2B15272  15.707  15.808   8.255
 6536POPC   C3B15273  15.718  15.812   7.955
 6536POPC   C4B15274  15.764  15.772   7.655
 6537POPC   NC315275  25.293  14.415   9.455
 6537POPC   PO415276  25.280  14.446   9.155
 6537POPC   GL115277  25.311  14.436   8.855
 6537POPC   GL215278  25.235  14.259   8.855
 6537POPC   C1A15279  25.235  14.397   8.555
 6537POPC   D2A15280  25.255  14.393   8.255
 6537POPC   C3A15281  25.277  14.389   7.955
 6537POPC   C4A15282  25.305  14.376   7.655
 6537POPC   C1B15283  25.157  14.234   8.555
 6537POPC   C2B15284  25.103  14.198   8.255
 6537POPC   C3B15285  25.140  14.199   7.955
 6537POPC   C4B15286  25.147  14.157   7.655
 6538POPC   NC315287  39.249   3.549   9.455
 6538POPC   PO415288  39.211   3.584   9.155
 6538POPC   GL115289  39.195   3.583   8.855
 6538POPC   GL215290  39.198   3.431   8.855
 6538POPC   C1A15291  39.254   3.567   8.555
 6538POPC   D2A15292  39.239   3.554   8.255
 6538POPC   C3A15293  39.269   3.541   7.955
 6538POPC   C4A15294  39.218   3.530   7.655
 6538POPC   C1B15295  39.126   3.306   8.555
 6538POPC   C2B15296  39.132   3.357   8.255
 6538POPC   C3B15297  39.084   3.310   7.955
 6538POPC   C4B15298  39.102   3.351   7.655
 6539POPC   NC315299  26.828   0.408   9.455
 6539POPC   PO415300  26.822   0.485   9.155
 6539POPC   GL115301  26.808   0.388   8.855
 6539POPC   GL215302  26.834   0.363   8.855
 6539POPC   C1A15303  26.788   0.476   8.555
 6539POPC   D2A15304  26.850   0.419   8.255
 6539POPC   C3A15305  26.784   0.405   7.955
 6539POPC   C4A15306  26.829   0.401   7.655
 6539POPC   C1B15307  26.881   0.225   8.555
 6539POPC   C2B15308  26.818   0.212   8.255
 6539POPC   C3B15309  26.854   0.208   7.955
 6539POPC   C4B15310  26.869   0.223   7.655
 6540POPC   NC315311  41.550  26.815   9.455
 6540POPC   PO415312  41.603  26.852   9.155
 6540POPC   GL115313  41.602  26.835   8.855
 6540POPC   GL215314  41.645  26.805   8.855
 6540POPC   C1A15315  41.547  26.841   8.555
 6540POPC   D2A15316  41.520  26.829   8.255
 6540POPC   C3A15317  41.589  26.773   7.955
 6540POPC   C4A15318  41.594  26.787   7.655
 6540POPC   C1B15319  41.779  26.832   8.555
 6540POPC   C2B15320  41.787  26.829   8.255
 6540POPC   C3B15321  41.810  26.818   7.955
 6540POPC   C4B15322  41.848  26.873   7.655
 6541POPC   NC315323   5.103  28.389   9.455
 6541POPC   PO415324   5.056  28.418   9.155
 6541POPC   GL115325   5.073  28.376   8.855
 6541POPC   GL215326   5.178  28.424   8.855
 6541POPC   C1A15327   5.083  28.378   8.555
 6541POPC   D2A15328   5.082  28.351   8.255
 6541POPC   C3A15329   5.076  28.347   7.955
 6541POPC   C4A15330   5.044  28.382   7.655
 6541POPC   C1B15331   5.297  28.440   8.555
 6541POPC   C2B15332   5.354  28.429   8.255
 6541POPC   C3B15333   5.318  28.476   7.955
 6541POPC   C4B15334   5.374  28.488   7.655
 6542POPC   NC315335   6.678  43.896   9.455
 6542POPC   PO415336   6.601  43.854   9.155
 6542POPC   GL115337   6.662  43.924   8.855
 6542POPC   GL215338   6.482  43.908   8.855
 6542POPC   C1A15339   6.632  43.848   8.555
 6542POPC   D2A15340   6.617  43.918   8.255
 6542POPC   C3A15341   6.603  43.879   7.955
 6542POPC   C4A15342   6.671  43.928   7.655
 6542POPC   C1B15343   6.357  43.935   8.555
 6542POPC   C2B15344   6.434  43.908   8.255
 6542POPC   C3B15345   6.437  43.845   7.955
 6542POPC   C4B15346   6.402  43.889   7.655
 6543POPC   NC315347  18.268  36.884   9.455
 6543POPC   PO415348  18.289  36.916   9.155
 6543POPC   GL115349  18.274  36.930   8.855
 6543POPC   GL215350  18.319  36.992   8.855
 6543POPC   C1A15351  18.300  36.877   8.555
 6543POPC   D2A15352  18.262  36.885   8.255
 6543POPC   C3A15353  18.254  36.948   7.955
 6543POPC   C4A15354  18.285  36.944   7.655
 6543POPC   C1B15355  18.425  37.079   8.555
 6543POPC   C2B15356  18.466  37.139   8.255
 6543POPC   C3B15357  18.427  37.071   7.955
 6543POPC   C4B15358  18.411  37.127   7.655
 6544POPC   NC315359  19.807  32.226   9.455
 6544POPC   PO415360  19.821  32.244   9.155
 6544POPC   GL115361  19.874  32.221   8.855
 6544POPC   GL215362  19.799  32.327   8.855
 6544POPC   C1A15363  19.883  32.251   8.555
 6544POPC   D2A15364  19.810  32.283   8.255
 6544POPC   C3A15365  19.813  32.252   7.955
 6544POPC   C4A15366  19.838  32.231   7.655
 6544POPC   C1B15367  19.776  32.469   8.555
 6544POPC   C2B15368  19.758  32.461   8.255
 6544POPC   C3B15369  19.731  32.450   7.955
 6544POPC   C4B15370  19.726  32.507   7.655
 6545POPC   NC315371  33.073  35.332   9.455
 6545POPC   PO415372  32.990  35.389   9.155
 6545POPC   GL115373  33.017  35.313   8.855
 6545POPC   GL215374  32.971  35.427   8.855
 6545POPC   C1A15375  32.987  35.334   8.555
 6545POPC   D2A15376  33.023  35.386   8.255
 6545POPC   C3A15377  33.043  35.316   7.955
 6545POPC   C4A15378  33.031  35.384   7.655
 6545POPC   C1B15379  32.958  35.623   8.555
 6545POPC   C2B15380  32.926  35.551   8.255
 6545POPC   C3B15381  32.901  35.561   7.955
 6545POPC   C4B15382  32.908  35.602   7.655
 6546POPC   NC315383  12.082  22.935   9.455
 6546POPC   PO415384  12.088  22.981   9.155
 6546POPC   GL115385  12.120  22.890   8.855
 6546POPC   GL215386  11.944  22.982   8.855
 6546POPC   C1A15387  12.092  22.931   8.555
 6546POPC   D2A15388  12.095  22.937   8.255
 6546POPC   C3A15389  12.057  22.983   7.955
 6546POPC   C4A15390  12.107  22.895   7.655
 6546POPC   C1B15391  11.931  23.118   8.555
 6546POPC   C2B15392  11.875  23.131   8.255
 6546POPC   C3B15393  11.918  23.100   7.955
 6546POPC   C4B15394  11.930  23.071   7.655
 6547POPC   NC315395  19.810  36.891   9.455
 6547POPC   PO415396  19.878  36.885   9.155
 6547POPC   GL115397  19.846  36.930   8.855
 6547POPC   GL215398  19.785  36.832   8.855
 6547POPC   C1A15399  19.858  36.884   8.555
 6547POPC   D2A15400  19.801  36.950   8.255
 6547POPC   C3A15401  19.823  36.898   7.955
 6547POPC   C4A15402  19.847  36.854   7.655
 6547POPC   C1B15403  19.690  36.640   8.555
 6547POPC   C2B15404  19.728  36.705   8.255
 6547POPC   C3B15405  19.693  36.663   7.955
 6547POPC   C4B15406  19.776  36.675   7.655
 6548POPC   NC315407   7.435   3.569   9.455
 6548POPC   PO415408   7.462   3.495   9.155
 6548POPC   GL115409   7.376   3.502   8.855
 6548POPC   GL215410   7.327   3.425   8.855
 6548POPC   C1A15411   7.388   3.501   8.555
 6548POPC   D2A15412   7.426   3.586   8.255
 6548POPC   C3A15413   7.453   3.560   7.955
 6548POPC   C4A15414   7.389   3.576   7.655
 6548POPC   C1B15415   7.312   3.298   8.555
 6548POPC   C2B15416   7.247   3.364   8.255
 6548POPC   C3B15417   7.248   3.369   7.955
 6548POPC   C4B15418   7.267   3.346   7.655
 6549POPC   NC315419  12.103  21.418   9.455
 6549POPC   PO415420  12.097  21.378   9.155
 6549POPC   GL115421  12.109  21.392   8.855
 6549POPC   GL215422  11.991  21.428   8.855
 6549POPC   C1A15423  12.091  21.373   8.555
 6549POPC   D2A15424  12.121  21.366   8.255
 6549POPC   C3A15425  12.040  21.349   7.955
 6549POPC   C4A15426  12.097  21.376   7.655
 6549POPC   C1B15427  11.911  21.535   8.555
 6549POPC   C2B15428  11.929  21.555   8.255
 6549POPC   C3B15429  11.880  21.595   7.955
 6549POPC   C4B15430  11.876  21.578   7.655
 6550POPC   NC315431  10.507   1.971   9.455
 6550POPC   PO415432  10.528   1.950   9.155
 6550POPC   GL115433  10.475   1.996   8.855
 6550POPC   GL215434  10.602   1.873   8.855
 6550POPC   C1A15435  10.524   1.993   8.555
 6550POPC   D2A15436  10.522   1.999   8.255
 6550POPC   C3A15437  10.499   2.034   7.955
 6550POPC   C4A15438  10.569   1.972   7.655
 6550POPC   C1B15439  10.645   1.772   8.555
 6550POPC   C2B15440  10.574   1.770   8.255
 6550POPC   C3B15441  10.623   1.726   7.955
 6550POPC   C4B15442  10.574   1.724   7.655
 6551POPC   NC315443  43.911  43.094   9.455
 6551POPC   PO415444  43.927  43.069   9.155
 6551POPC   GL115445  43.904  43.124   8.855
 6551POPC   GL215446  43.753  43.123   8.855
 6551POPC   C1A15447  43.886  43.064   8.555
 6551POPC   D2A15448  43.845  43.142   8.255
 6551POPC   C3A15449  43.855  43.113   7.955
 6551POPC   C4A15450  43.891  43.120   7.655
 6551POPC   C1B15451  43.677  43.090   8.555
 6551POPC   C2B15452  43.679  43.137   8.255
 6551POPC   C3B15453  43.654  43.092   7.955
 6551POPC   C4B15454  43.605  43.124   7.655
 6552POPC   NC315455  43.068  23.751   9.455
 6552POPC   PO415456  43.128  23.665   9.155
 6552POPC   GL115457  43.086  23.691   8.855
 6552POPC   GL215458  43.044  23.790   8.855
 6552POPC   C1A15459  43.091  23.730   8.555
 6552POPC   D2A15460  43.086  23.665   8.255
 6552POPC   C3A15461  43.099  23.677   7.955
 6552POPC   C4A15462  43.156  23.721   7.655
 6552POPC   C1B15463  42.904  23.788   8.555
 6552POPC   C2B15464  42.851  23.873   8.255
 6552POPC   C3B15465  42.890  23.837   7.955
 6552POPC   C4B15466  42.861  23.856   7.655
 6553POPC   NC315467  42.380  13.644   9.455
 6553POPC   PO415468  42.345  13.604   9.155
 6553POPC   GL115469  42.365  13.631   8.855
 6553POPC   GL215470  42.343  13.710   8.855
 6553POPC   C1A15471  42.359  13.632   8.555
 6553POPC   D2A15472  42.289  13.606   8.255
 6553POPC   C3A15473  42.332  13.661   7.955
 6553POPC   C4A15474  42.290  13.609   7.655
 6553POPC   C1B15475  42.458  13.883   8.555
 6553POPC   C2B15476  42.432  13.830   8.255
 6553POPC   C3B15477  42.421  13.899   7.955
 6553POPC   C4B15478  42.432  13.830   7.655
 6554POPC   NC315479  32.983  23.689   9.455
 6554POPC   PO415480  33.016  23.758   9.155
 6554POPC   GL115481  33.060  23.705   8.855
 6554POPC   GL215482  33.108  23.612   8.855
 6554POPC   C1A15483  33.067  23.730   8.555
 6554POPC   D2A15484  32.991  23.688   8.255
 6554POPC   C3A15485  32.992  23.692   7.955
 6554POPC   C4A15486  33.019  23.680   7.655
 6554POPC   C1B15487  33.128  23.474   8.555
 6554POPC   C2B15488  33.131  23.454   8.255
 6554POPC   C3B15489  33.052  23.502   7.955
 6554POPC   C4B15490  33.074  23.478   7.655
 6555POPC   NC315491  36.874  38.448   9.455
 6555POPC   PO415492  36.919  38.421   9.155
 6555POPC   GL115493  36.894  38.435   8.855
 6555POPC   GL215494  37.019  38.427   8.855
 6555POPC   C1A15495  36.904  38.478   8.555
 6555POPC   D2A15496  36.927  38.413   8.255
 6555POPC   C3A15497  36.923  38.447   7.955
 6555POPC   C4A15498  36.933  38.489   7.655
 6555POPC   C1B15499  37.157  38.278   8.555
 6555POPC   C2B15500  37.118  38.318   8.255
 6555POPC   C3B15501  37.134  38.306   7.955
 6555POPC   C4B15502  37.148  38.270   7.655
 6556POPC   NC315503   8.153  34.583   9.455
 6556POPC   PO415504   8.205  34.606   9.155
 6556POPC   GL115505   8.185  34.604   8.855
 6556POPC   GL215506   8.075  34.560   8.855
 6556POPC   C1A15507   8.203  34.578   8.555
 6556POPC   D2A15508   8.148  34.553   8.255
 6556POPC   C3A15509   8.196  34.565   7.955
 6556POPC   C4A15510   8.168  34.556   7.655
 6556POPC   C1B15511   7.984  34.470   8.555
 6556POPC   C2B15512   7.960  34.485   8.255
 6556POPC   C3B15513   8.002  34.523   7.955
 6556POPC   C4B15514   7.989  34.504   7.655
 6557POPC   NC315515  26.825  25.254   9.455
 6557POPC   PO415516  26.803  25.241   9.155
 6557POPC   GL115517  26.848  25.269   8.855
 6557POPC   GL215518  26.807  25.389   8.855
 6557POPC   C1A15519  26.851  25.258   8.555
 6557POPC   D2A15520  26.798  25.220   8.255
 6557POPC   C3A15521  26.780  25.312   7.955
 6557POPC   C4A15522  26.770  25.269   7.655
 6557POPC   C1B15523  26.886  25.501   8.555
 6557POPC   C2B15524  26.911  25.517   8.255
 6557POPC   C3B15525  26.874  25.543   7.955
 6557POPC   C4B15526  26.896  25.500   7.655
 6558POPC   NC315527  21.342  39.990   9.455
 6558POPC   PO415528  21.376  39.984   9.155
 6558POPC   GL115529  21.416  40.009   8.855
 6558POPC   GL215530  21.502  39.890   8.855
 6558POPC   C1A15531  21.347  40.023   8.555
 6558POPC   D2A15532  21.408  39.985   8.255
 6558POPC   C3A15533  21.367  39.989   7.955
 6558POPC   C4A15534  21.344  40.015   7.655
 6558POPC   C1B15535  21.507  39.835   8.555
 6558POPC   C2B15536  21.505  39.830   8.255
 6558POPC   C3B15537  21.554  39.795   7.955
 6558POPC   C4B15538  21.498  39.775   7.655
 6559POPC   NC315539  16.002  16.713   9.455
 6559POPC   PO415540  15.961  16.763   9.155
 6559POPC   GL115541  16.003  16.733   8.855
 6559POPC   GL215542  15.862  16.795   8.855
 6559POPC   C1A15543  15.986  16.737   8.555
 6559POPC   D2A15544  15.946  16.704   8.255
 6559POPC   C3A15545  15.985  16.681   7.955
 6559POPC   C4A15546  15.907  16.761   7.655
 6559POPC   C1B15547  15.771  16.917   8.555
 6559POPC   C2B15548  15.808  16.905   8.255
 6559POPC   C3B15549  15.807  16.922   7.955
 6559POPC   C4B15550  15.726  16.904   7.655
 6560POPC   NC315551  40.808  34.621   9.455
 6560POPC   PO415552  40.791  34.546   9.155
 6560POPC   GL115553  40.780  34.536   8.855
 6560POPC   GL215554  40.833  34.729   8.855
 6560POPC   C1A15555  40.772  34.614   8.555
 6560POPC   D2A15556  40.803  34.622   8.255
 6560POPC   C3A15557  40.755  34.540   7.955
 6560POPC   C4A15558  40.779  34.608   7.655
 6560POPC   C1B15559  40.789  34.773   8.555
 6560POPC   C2B15560  40.864  34.870   8.255
 6560POPC   C3B15561  40.778  34.844   7.955
 6560POPC   C4B15562  40.787  34.836   7.655
 6561POPC   NC315563  35.374   0.434   9.455
 6561POPC   PO415564  35.352   0.476   9.155
 6561POPC   GL115565  35.353   0.456   8.855
 6561POPC   GL215566  35.399   0.542   8.855
 6561POPC   C1A15567  35.352   0.394   8.555
 6561POPC   D2A15568  35.321   0.468   8.255
 6561POPC   C3A15569  35.390   0.427   7.955
 6561POPC   C4A15570  35.393   0.467   7.655
 6561POPC   C1B15571  35.414   0.684   8.555
 6561POPC   C2B15572  35.383   0.704   8.255
 6561POPC   C3B15573  35.424   0.634   7.955
 6561POPC   C4B15574  35.457   0.674   7.655
 6562POPC   NC315575  39.999  21.400   9.455
 6562POPC   PO415576  39.972  21.365   9.155
 6562POPC   GL115577  39.994  21.392   8.855
 6562POPC   GL215578  40.046  21.472   8.855
 6562POPC   C1A15579  39.998  21.431   8.555
 6562POPC   D2A15580  40.041  21.359   8.255
 6562POPC   C3A15581  40.030  21.394   7.955
 6562POPC   C4A15582  39.968  21.429   7.655
 6562POPC   C1B15583  40.159  21.554   8.555
 6562POPC   C2B15584  40.136  21.621   8.255
 6562POPC   C3B15585  40.157  21.533   7.955
 6562POPC   C4B15586  40.177  21.580   7.655
 6563POPC   NC315587   9.758  30.711   9.455
 6563POPC   PO415588   9.707  30.709   9.155
 6563POPC   GL115589   9.785  30.675   8.855
 6563POPC   GL215590   9.639  30.586   8.855
 6563POPC   C1A15591   9.706  30.726   8.555
 6563POPC   D2A15592   9.771  30.681   8.255
 6563POPC   C3A15593   9.772  30.647   7.955
 6563POPC   C4A15594   9.754  30.720   7.655
 6563POPC   C1B15595   9.597  30.513   8.555
 6563POPC   C2B15596   9.564  30.508   8.255
 6563POPC   C3B15597   9.553  30.487   7.955
 6563POPC   C4B15598   9.528  30.577   7.655
 6564POPC   NC315599   8.931  17.508   9.455
 6564POPC   PO415600   8.991  17.493   9.155
 6564POPC   GL115601   8.978  17.492   8.855
 6564POPC   GL215602   8.890  17.496   8.855
 6564POPC   C1A15603   8.964  17.548   8.555
 6564POPC   D2A15604   9.006  17.503   8.255
 6564POPC   C3A15605   9.018  17.507   7.955
 6564POPC   C4A15606   8.984  17.511   7.655
 6564POPC   C1B15607   8.680  17.479   8.555
 6564POPC   C2B15608   8.680  17.474   8.255
 6564POPC   C3B15609   8.692  17.472   7.955
 6564POPC   C4B15610   8.766  17.502   7.655
 6565POPC   NC315611  15.169   2.015   9.455
 6565POPC   PO415612  15.227   2.026   9.155
 6565POPC   GL115613  15.207   2.016   8.855
 6565POPC   GL215614  15.322   1.981   8.855
 6565POPC   C1A15615  15.145   2.005   8.555
 6565POPC   D2A15616  15.137   1.956   8.255
 6565POPC   C3A15617  15.221   1.972   7.955
 6565POPC   C4A15618  15.140   2.010   7.655
 6565POPC   C1B15619  15.470   1.986   8.555
 6565POPC   C2B15620  15.475   2.045   8.255
 6565POPC   C3B15621  15.433   2.015   7.955
 6565POPC   C4B15622  15.453   2.060   7.655
 6566POPC   NC315623   8.149   7.387   9.455
 6566POPC   PO415624   8.221   7.371   9.155
 6566POPC   GL115625   8.192   7.413   8.855
 6566POPC   GL215626   8.341   7.402   8.855
 6566POPC   C1A15627   8.153   7.431   8.555
 6566POPC   D2A15628   8.237   7.391   8.255
 6566POPC   C3A15629   8.186   7.401   7.955
 6566POPC   C4A15630   8.229   7.393   7.655
 6566POPC   C1B15631   8.445   7.299   8.555
 6566POPC   C2B15632   8.450   7.309   8.255
 6566POPC   C3B15633   8.448   7.322   7.955
 6566POPC   C4B15634   8.440   7.286   7.655
 6567POPC   NC315635  26.793  36.891   9.455
 6567POPC   PO415636  26.864  36.862   9.155
 6567POPC   GL115637  26.786  36.944   8.855
 6567POPC   GL215638  26.899  36.966   8.855
 6567POPC   C1A15639  26.779  36.858   8.555
 6567POPC   D2A15640  26.784  36.897   8.255
 6567POPC   C3A15641  26.795  36.943   7.955
 6567POPC   C4A15642  26.813  36.941   7.655
 6567POPC   C1B15643  27.030  37.095   8.555
 6567POPC   C2B15644  26.969  37.013   8.255
 6567POPC   C3B15645  26.966  37.033   7.955
 6567POPC   C4B15646  27.016  37.044   7.655
 6568POPC   NC315647  13.657   4.276   9.455
 6568POPC   PO415648  13.596   4.283   9.155
 6568POPC   GL115649  13.662   4.313   8.855
 6568POPC   GL215650  13.566   4.294   8.855
 6568POPC   C1A15651  13.625   4.284   8.555
 6568POPC   D2A15652  13.657   4.309   8.255
 6568POPC   C3A15653  13.589   4.283   7.955
 6568POPC   C4A15654  13.673   4.312   7.655
 6568POPC   C1B15655  13.394   4.146   8.555
 6568POPC   C2B15656  13.435   4.200   8.255
 6568POPC   C3B15657  13.378   4.178   7.955
 6568POPC   C4B15658  13.379   4.196   7.655
 6569POPC   NC315659  41.589  33.070   9.455
 6569POPC   PO415660  41.569  33.024   9.155
 6569POPC   GL115661  41.572  33.073   8.855
 6569POPC   GL215662  41.619  32.888   8.855
 6569POPC   C1A15663  41.560  32.994   8.555
 6569POPC   D2A15664  41.595  32.984   8.255
 6569POPC   C3A15665  41.538  33.067   7.955
 6569POPC   C4A15666  41.574  33.054   7.655
 6569POPC   C1B15667  41.721  32.757   8.555
 6569POPC   C2B15668  41.637  32.808   8.255
 6569POPC   C3B15669  41.671  32.846   7.955
 6569POPC   C4B15670  41.663  32.816   7.655
 6570POPC   NC315671  25.263  40.769   9.455
 6570POPC   PO415672  25.258  40.791   9.155
 6570POPC   GL115673  25.294  40.735   8.855
 6570POPC   GL215674  25.333  40.893   8.855
 6570POPC   C1A15675  25.285  40.783   8.555
 6570POPC   D2A15676  25.297  40.790   8.255
 6570POPC   C3A15677  25.247  40.779   7.955
 6570POPC   C4A15678  25.315  40.828   7.655
 6570POPC   C1B15679  25.481  40.893   8.555
 6570POPC   C2B15680  25.461  40.860   8.255
 6570POPC   C3B15681  25.454  40.887   7.955
 6570POPC   C4B15682  25.518  40.947   7.655
 6571POPC   NC315683   5.107  34.603   9.455
 6571POPC   PO415684   5.059  34.535   9.155
 6571POPC   GL115685   5.111  34.611   8.855
 6571POPC   GL215686   5.045  34.718   8.855
 6571POPC   C1A15687   5.134  34.617   8.555
 6571POPC   D2A15688   5.097  34.623   8.255
 6571POPC   C3A15689   5.064  34.575   7.955
 6571POPC   C4A15690   5.072  34.572   7.655
 6571POPC   C1B15691   5.023  34.785   8.555
 6571POPC   C2B15692   5.028  34.823   8.255
 6571POPC   C3B15693   5.056  34.783   7.955
 6571POPC   C4B15694   5.057  34.851   7.655
 6572POPC   NC315695  43.080   9.021   9.455
 6572POPC   PO415696  43.124   8.956   9.155
 6572POPC   GL115697  43.077   8.943   8.855
 6572POPC   GL215698  42.996   9.075   8.855
 6572POPC   C1A15699  43.124   8.994   8.555
 6572POPC   D2A15700  43.105   9.007   8.255
 6572POPC   C3A15701  43.156   8.998   7.955
 6572POPC   C4A15702  43.070   8.986   7.655
 6572POPC   C1B15703  42.856   9.151   8.555
 6572POPC   C2B15704  42.885   9.069   8.255
 6572POPC   C3B15705  42.949   9.098   7.955
 6572POPC   C4B15706  42.890   9.062   7.655
 6573POPC   NC315707  12.863  44.625   9.455
 6573POPC   PO415708  12.860  44.682   9.155
 6573POPC   GL115709  12.811  44.625   8.855
 6573POPC   GL215710  12.757  44.619   8.855
 6573POPC   C1A15711  12.825  44.682   8.555
 6573POPC   D2A15712  12.839  44.649   8.255
 6573POPC   C3A15713  12.843  44.680   7.955
 6573POPC   C4A15714  12.879  44.632   7.655
 6573POPC   C1B15715  12.618  44.505   8.555
 6573POPC   C2B15716  12.640  44.466   8.255
 6573POPC   C3B15717  12.682  44.508   7.955
 6573POPC   C4B15718  12.683  44.528   7.655
 6574POPC   NC315719   1.996  12.029   9.455
 6574POPC   PO415720   1.970  12.084   9.155
 6574POPC   GL115721   2.002  12.090   8.855
 6574POPC   GL215722   1.842  12.025   8.855
 6574POPC   C1A15723   2.034  12.117   8.555
 6574POPC   D2A15724   1.956  12.076   8.255
 6574POPC   C3A15725   2.038  12.084   7.955
 6574POPC   C4A15726   2.025  12.077   7.655
 6574POPC   C1B15727   1.809  11.936   8.555
 6574POPC   C2B15728   1.734  11.931   8.255
 6574POPC   C3B15729   1.736  11.993   7.955
 6574POPC   C4B15730   1.811  12.004   7.655
 6575POPC   NC315731  36.102  25.219   9.455
 6575POPC   PO415732  36.114  25.308   9.155
 6575POPC   GL115733  36.134  25.294   8.855
 6575POPC   GL215734  36.169  25.400   8.855
 6575POPC   C1A15735  36.080  25.234   8.555
 6575POPC   D2A15736  36.110  25.304   8.255
 6575POPC   C3A15737  36.078  25.216   7.955
 6575POPC   C4A15738  36.146  25.245   7.655
 6575POPC   C1B15739  36.197  25.491   8.555
 6575POPC   C2B15740  36.203  25.554   8.255
 6575POPC   C3B15741  36.167  25.484   7.955
 6575POPC   C4B15742  36.213  25.479   7.655
 6576POPC   NC315743  39.987  44.704   9.455
 6576POPC   PO415744  39.980  44.640   9.155
 6576POPC   GL115745  39.993  44.642   8.855
 6576POPC   GL215746  39.918  44.634   8.855
 6576POPC   C1A15747  40.036  44.622   8.555
 6576POPC   D2A15748  40.052  44.682   8.255
 6576POPC   C3A15749  39.977  44.636   7.955
 6576POPC   C4A15750  40.050  44.643   7.655
 6576POPC   C1B15751  39.787  44.509   8.555
 6576POPC   C2B15752  39.758  44.493   8.255
 6576POPC   C3B15753  39.828  44.551   7.955
 6576POPC   C4B15754  39.798  44.567   7.655
 6577POPC   NC315755  42.328  43.883   9.455
 6577POPC   PO415756  42.345  43.923   9.155
 6577POPC   GL115757  42.332  43.863   8.855
 6577POPC   GL215758  42.369  43.973   8.855
 6577POPC   C1A15759  42.322  43.924   8.555
 6577POPC   D2A15760  42.352  43.870   8.255
 6577POPC   C3A15761  42.294  43.837   7.955
 6577POPC   C4A15762  42.300  43.922   7.655
 6577POPC   C1B15763  42.502  44.048   8.555
 6577POPC   C2B15764  42.466  44.109   8.255
 6577POPC   C3B15765  42.498  44.102   7.955
 6577POPC   C4B15766  42.447  44.035   7.655
 6578POPC   NC315767  14.397  28.384   9.455
 6578POPC   PO415768  14.358  28.394   9.155
 6578POPC   GL115769  14.401  28.346   8.855
 6578POPC   GL215770  14.546  28.364   8.855
 6578POPC   C1A15771  14.360  28.337   8.555
 6578POPC   D2A15772  14.391  28.324   8.255
 6578POPC   C3A15773  14.391  28.412   7.955
 6578POPC   C4A15774  14.393  28.375   7.655
 6578POPC   C1B15775  14.591  28.320   8.555
 6578POPC   C2B15776  14.631  28.321   8.255
 6578POPC   C3B15777  14.668  28.299   7.955
 6578POPC   C4B15778  14.641  28.249   7.655
 6579POPC   NC315779  38.486  30.648   9.455
 6579POPC   PO415780  38.498  30.648   9.155
 6579POPC   GL115781  38.417  30.716   8.855
 6579POPC   GL215782  38.393  30.567   8.855
 6579POPC   C1A15783  38.423  30.647   8.555
 6579POPC   D2A15784  38.416  30.686   8.255
 6579POPC   C3A15785  38.496  30.674   7.955
 6579POPC   C4A15786  38.503  30.744   7.655
 6579POPC   C1B15787  38.361  30.421   8.555
 6579POPC   C2B15788  38.351  30.476   8.255
 6579POPC   C3B15789  38.322  30.512   7.955
 6579POPC   C4B15790  38.326  30.484   7.655
 6580POPC   NC315791  40.802   2.806   9.455
 6580POPC   PO415792  40.733   2.717   9.155
 6580POPC   GL115793  40.758   2.735   8.855
 6580POPC   GL215794  40.748   2.897   8.855
 6580POPC   C1A15795  40.777   2.769   8.555
 6580POPC   D2A15796  40.809   2.772   8.255
 6580POPC   C3A15797  40.824   2.746   7.955
 6580POPC   C4A15798  40.786   2.747   7.655
 6580POPC   C1B15799  40.599   2.943   8.555
 6580POPC   C2B15800  40.664   2.971   8.255
 6580POPC   C3B15801  40.573   2.959   7.955
 6580POPC   C4B15802  40.626   2.978   7.655
 6581POPC   NC315803  24.470  22.942   9.455
 6581POPC   PO415804  24.489  22.938   9.155
 6581POPC   GL115805  24.485  22.928   8.855
 6581POPC   GL215806  24.347  22.970   8.855
 6581POPC   C1A15807  24.522  22.914   8.555
 6581POPC   D2A15808  24.533  22.906   8.255
 6581POPC   C3A15809  24.498  22.938   7.955
 6581POPC   C4A15810  24.461  22.903   7.655
 6581POPC   C1B15811  24.253  23.095   8.555
 6581POPC   C2B15812  24.250  23.041   8.255
 6581POPC   C3B15813  24.304  23.063   7.955
 6581POPC   C4B15814  24.254  23.005   7.655
 6582POPC   NC315815  15.140  14.438   9.455
 6582POPC   PO415816  15.134  14.399   9.155
 6582POPC   GL115817  15.195  14.406   8.855
 6582POPC   GL215818  15.139  14.317   8.855
 6582POPC   C1A15819  15.206  14.447   8.555
 6582POPC   D2A15820  15.148  14.394   8.255
 6582POPC   C3A15821  15.148  14.379   7.955
 6582POPC   C4A15822  15.193  14.432   7.655
 6582POPC   C1B15823  15.004  14.155   8.555
 6582POPC   C2B15824  15.060  14.249   8.255
 6582POPC   C3B15825  15.026  14.204   7.955
 6582POPC   C4B15826  15.021  14.195   7.655
 6583POPC   NC315827  39.252  15.972   9.455
 6583POPC   PO415828  39.185  15.924   9.155
 6583POPC   GL115829  39.188  15.937   8.855
 6583POPC   GL215830  39.145  15.960   8.855
 6583POPC   C1A15831  39.263  15.977   8.555
 6583POPC   D2A15832  39.207  15.975   8.255
 6583POPC   C3A15833  39.189  15.956   7.955
 6583POPC   C4A15834  39.267  15.939   7.655
 6583POPC   C1B15835  38.991  15.839   8.555
 6583POPC   C2B15836  38.951  15.843   8.255
 6583POPC   C3B15837  38.987  15.846   7.955
 6583POPC   C4B15838  39.023  15.825   7.655
 6584POPC   NC315839  19.874  11.336   9.455
 6584POPC   PO415840  19.844  11.345   9.155
 6584POPC   GL115841  19.798  11.318   8.855
 6584POPC   GL215842  19.870  11.420   8.855
 6584POPC   C1A15843  19.845  11.271   8.555
 6584POPC   D2A15844  19.875  11.303   8.255
 6584POPC   C3A15845  19.860  11.262   7.955
 6584POPC   C4A15846  19.873  11.284   7.655
 6584POPC   C1B15847  20.007  11.510   8.555
 6584POPC   C2B15848  20.012  11.497   8.255
 6584POPC   C3B15849  19.980  11.500   7.955
 6584POPC   C4B15850  20.021  11.459   7.655
 6585POPC   NC315851  12.836   5.830   9.455
 6585POPC   PO415852  12.896   5.882   9.155
 6585POPC   GL115853  12.873   5.855   8.855
 6585POPC   GL215854  12.876   5.744   8.855
 6585POPC   C1A15855  12.847   5.840   8.555
 6585POPC   D2A15856  12.844   5.894   8.255
 6585POPC   C3A15857  12.821   5.857   7.955
 6585POPC   C4A15858  12.805   5.847   7.655
 6585POPC   C1B15859  12.955   5.609   8.555
 6585POPC   C2B15860  12.953   5.645   8.255
 6585POPC   C3B15861  12.884   5.678   7.955
 6585POPC   C4B15862  12.927   5.583   7.655
 6586POPC   NC315863  26.035  40.828   9.455
 6586POPC   PO415864  26.011  40.800   9.155
 6586POPC   GL115865  26.014  40.826   8.855
 6586POPC   GL215866  26.081  40.939   8.855
 6586POPC   C1A15867  26.012  40.810   8.555
 6586POPC   D2A15868  26.005  40.744   8.255
 6586POPC   C3A15869  26.074  40.770   7.955
 6586POPC   C4A15870  26.066  40.764   7.655
 6586POPC   C1B15871  26.045  41.046   8.555
 6586POPC   C2B15872  26.018  41.016   8.255
 6586POPC   C3B15873  26.031  41.029   7.955
 6586POPC   C4B15874  26.016  40.984   7.655
 6587POPC   NC315875  43.876  19.010   9.455
 6587POPC   PO415876  43.924  19.062   9.155
 6587POPC   GL115877  43.908  19.082   8.855
 6587POPC   GL215878  43.891  18.937   8.855
 6587POPC   C1A15879  43.934  19.017   8.555
 6587POPC   D2A15880  43.902  19.064   8.255
 6587POPC   C3A15881  43.875  19.070   7.955
 6587POPC   C4A15882  43.842  19.074   7.655
 6587POPC   C1B15883  43.797  18.777   8.555
 6587POPC   C2B15884  43.814  18.775   8.255
 6587POPC   C3B15885  43.815  18.781   7.955
 6587POPC   C4B15886  43.773  18.859   7.655
 6588POPC   NC315887   7.401  22.978   9.455
 6588POPC   PO415888   7.436  22.972   9.155
 6588POPC   GL115889   7.387  22.919   8.855
 6588POPC   GL215890   7.579  22.855   8.855
 6588POPC   C1A15891   7.445  22.987   8.555
 6588POPC   D2A15892   7.409  22.978   8.255
 6588POPC   C3A15893   7.398  22.983   7.955
 6588POPC   C4A15894   7.440  22.935   7.655
 6588POPC   C1B15895   7.676  22.886   8.555
 6588POPC   C2B15896   7.633  22.846   8.255
 6588POPC   C3B15897   7.685  22.833   7.955
 6588POPC   C4B15898   7.681  22.847   7.655
 6589POPC   NC315899  29.921  12.851   9.455
 6589POPC   PO415900  29.937  12.848   9.155
 6589POPC   GL115901  29.930  12.833   8.855
 6589POPC   GL215902  29.895  12.972   8.855
 6589POPC   C1A15903  29.902  12.825   8.555
 6589POPC   D2A15904  29.900  12.840   8.255
 6589POPC   C3A15905  29.918  12.902   7.955
 6589POPC   C4A15906  29.928  12.890   7.655
 6589POPC   C1B15907  29.870  13.053   8.555
 6589POPC   C2B15908  29.935  13.055   8.255
 6589POPC   C3B15909  29.867  13.149   7.955
 6589POPC   C4B15910  29.933  13.123   7.655
 6590POPC   NC315911  20.619  23.677   9.455
 6590POPC   PO415912  20.596  23.687   9.155
 6590POPC   GL115913  20.573  23.756   8.855
 6590POPC   GL215914  20.496  23.620   8.855
 6590POPC   C1A15915  20.627  23.734   8.555
 6590POPC   D2A15916  20.578  23.701   8.255
 6590POPC   C3A15917  20.607  23.756   7.955
 6590POPC   C4A15918  20.601  23.717   7.655
 6590POPC   C1B15919  20.363  23.600   8.555
 6590POPC   C2B15920  20.441  23.591   8.255
 6590POPC   C3B15921  20.409  23.607   7.955
 6590POPC   C4B15922  20.410  23.604   7.655
 6591POPC   NC315923  11.321  43.900   9.455
 6591POPC   PO415924  11.261  43.892   9.155
 6591POPC   GL115925  11.320  43.917   8.855
 6591POPC   GL215926  11.299  43.721   8.855
 6591POPC   C1A15927  11.345  43.861   8.555
 6591POPC   D2A15928  11.332  43.850   8.255
 6591POPC   C3A15929  11.275  43.837   7.955
 6591POPC   C4A15930  11.272  43.871   7.655
 6591POPC   C1B15931  11.368  43.605   8.555
 6591POPC   C2B15932  11.358  43.654   8.255
 6591POPC   C3B15933  11.359  43.673   7.955
 6591POPC   C4B15934  11.374  43.610   7.655
 6592POPC   NC315935  33.033  25.303   9.455
 6592POPC   PO415936  33.057  25.271   9.155
 6592POPC   GL115937  33.069  25.261   8.855
 6592POPC   GL215938  33.013  25.170   8.855
 6592POPC   C1A15939  33.033  25.227   8.555
 6592POPC   D2A15940  33.064  25.296   8.255
 6592POPC   C3A15941  33.023  25.218   7.955
 6592POPC   C4A15942  32.982  25.306   7.655
 6592POPC   C1B15943  33.047  25.003   8.555
 6592POPC   C2B15944  33.081  25.058   8.255
 6592POPC   C3B15945  33.083  24.994   7.955
 6592POPC   C4B15946  33.056  24.997   7.655
 6593POPC   NC315947  27.640   1.958   9.455
 6593POPC   PO415948  27.553   1.978   9.155
 6593POPC   GL115949  27.545   1.942   8.855
 6593POPC   GL215950  27.759   1.993   8.855
 6593POPC   C1A15951  27.595   1.960   8.555
 6593POPC   D2A15952  27.642   2.038   8.255
 6593POPC   C3A15953  27.548   1.987   7.955
 6593POPC   C4A15954  27.570   1.942   7.655
 6593POPC   C1B15955  27.836   2.101   8.555
 6593POPC   C2B15956  27.802   2.077   8.255
 6593POPC   C3B15957  27.877   2.039   7.955
 6593POPC   C4B15958  27.843   2.071   7.655
 6594POPC   NC315959  16.700  19.792   9.455
 6594POPC   PO415960  16.732  19.834   9.155
 6594POPC   GL115961  16.718  19.864   8.855
 6594POPC   GL215962  16.802  19.698   8.855
 6594POPC   C1A15963  16.763  19.828   8.555
 6594POPC   D2A15964  16.751  19.822   8.255
 6594POPC   C3A15965  16.758  19.810   7.955
 6594POPC   C4A15966  16.699  19.882   7.655
 6594POPC   C1B15967  16.742  19.590   8.555
 6594POPC   C2B15968  16.787  19.577   8.255
 6594POPC   C3B15969  16.790  19.553   7.955
 6594POPC   C4B15970  16.833  19.617   7.655
 6595POPC   NC315971  39.276  19.086   9.455
 6595POPC   PO415972  39.259  19.025   9.155
 6595POPC   GL115973  39.227  19.108   8.855
 6595POPC   GL215974  39.329  19.147   8.855
 6595POPC   C1A15975  39.252  19.043   8.555
 6595POPC   D2A15976  39.190  19.026   8.255
 6595POPC   C3A15977  39.247  19.024   7.955
 6595POPC   C4A15978  39.185  19.024   7.655
 6595POPC   C1B15979  39.341  19.325   8.555
 6595POPC   C2B15980  39.314  19.303   8.255
 6595POPC   C3B15981  39.340  19.252   7.955
 6595POPC   C4B15982  39.307  19.235   7.655
 6596POPC   NC315983  33.042   0.445   9.455
 6596POPC   PO415984  33.047   0.464   9.155
 6596POPC   GL115985  33.036   0.397   8.855
 6596POPC   GL215986  32.958   0.567   8.855
 6596POPC   C1A15987  33.015   0.446   8.555
 6596POPC   D2A15988  32.985   0.428   8.255
 6596POPC   C3A15989  33.009   0.452   7.955
 6596POPC   C4A15990  33.042   0.463   7.655
 6596POPC   C1B15991  32.891   0.623   8.555
 6596POPC   C2B15992  32.886   0.632   8.255
 6596POPC   C3B15993  32.868   0.639   7.955
 6596POPC   C4B15994  32.887   0.675   7.655
 6597POPC   NC315995  33.030  41.528   9.455
 6597POPC   PO415996  33.049  41.602   9.155
 6597POPC   GL115997  33.031  41.594   8.855
 6597POPC   GL215998  33.102  41.451   8.855
 6597POPC   C1A15999  33.004  41.540   8.555
 6597POPC   D2A16000  33.021  41.550   8.255
 6597POPC   C3A16001  33.073  41.557   7.955
 6597POPC   C4A16002  32.976  41.558   7.655
 6597POPC   C1B16003  33.148  41.329   8.555
 6597POPC   C2B16004  33.133  41.329   8.255
 6597POPC   C3B16005  33.182  41.364   7.955
 6597POPC   C4B16006  33.173  41.405   7.655
 6598POPC   NC316007  27.544  12.862   9.455
 6598POPC   PO416008  27.595  12.859   9.155
 6598POPC   GL116009  27.608  12.901   8.855
 6598POPC   GL216010  27.445  12.805   8.855
 6598POPC   C1A16011  27.547  12.875   8.555
 6598POPC   D2A16012  27.607  12.832   8.255
 6598POPC   C3A16013  27.612  12.886   7.955
 6598POPC   C4A16014  27.629  12.820   7.655
 6598POPC   C1B16015  27.319  12.799   8.555
 6598POPC   C2B16016  27.328  12.803   8.255
 6598POPC   C3B16017  27.380  12.844   7.955
 6598POPC   C4B16018  27.380  12.853   7.655
 6599POPC   NC316019  19.096  12.819   9.455
 6599POPC   PO416020  19.017  12.870   9.155
 6599POPC   GL116021  19.090  12.879   8.855
 6599POPC   GL216022  18.961  12.978   8.855
 6599POPC   C1A16023  19.084  12.871   8.555
 6599POPC   D2A16024  19.032  12.892   8.255
 6599POPC   C3A16025  19.053  12.859   7.955
 6599POPC   C4A16026  19.105  12.839   7.655
 6599POPC   C1B16027  18.915  13.095   8.555
 6599POPC   C2B16028  18.980  13.122   8.255
 6599POPC   C3B16029  18.994  13.065   7.955
 6599POPC   C4B16030  18.968  13.099   7.655
 6600POPC   NC316031   4.296  41.545   9.455
 6600POPC   PO416032   4.276  41.550   9.155
 6600POPC   GL116033   4.284  41.567   8.855
 6600POPC   GL216034   4.325  41.421   8.855
 6600POPC   C1A16035   4.320  41.556   8.555
 6600POPC   D2A16036   4.366  41.588   8.255
 6600POPC   C3A16037   4.283  41.563   7.955
 6600POPC   C4A16038   4.291  41.589   7.655
 6600POPC   C1B16039   4.345  41.293   8.555
 6600POPC   C2B16040   4.379  41.333   8.255
 6600POPC   C3B16041   4.427  41.282   7.955
 6600POPC   C4B16042   4.424  41.334   7.655
 6601POPC   NC316043  28.412   9.703   9.455
 6601POPC   PO416044  28.418   9.746   9.155
 6601POPC   GL116045  28.323   9.757   8.855
 6601POPC   GL216046  28.496   9.796   8.855
 6601POPC   C1A16047  28.394   9.793   8.555
 6601POPC   D2A16048  28.355   9.717   8.255
 6601POPC   C3A16049  28.383   9.722   7.955
 6601POPC   C4A16050  28.320   9.756   7.655
 6601POPC   C1B16051  28.518   9.961   8.555
 6601POPC   C2B16052  28.565   9.910   8.255
 6601POPC   C3B16053  28.543   9.914   7.955
 6601POPC   C4B16054  28.523   9.862   7.655
 6602POPC   NC316055   0.399   1.231   9.455
 6602POPC   PO416056   0.425   1.192   9.155
 6602POPC   GL116057   0.424   1.257   8.855
 6602POPC   GL216058   0.301   1.197   8.855
 6602POPC   C1A16059   0.474   1.170   8.555
 6602POPC   D2A16060   0.415   1.260   8.255
 6602POPC   C3A16061   0.482   1.174   7.955
 6602POPC   C4A16062   0.465   1.171   7.655
 6602POPC   C1B16063   0.163   1.182   8.555
 6602POPC   C2B16064   0.223   1.198   8.255
 6602POPC   C3B16065   0.165   1.225   7.955
 6602POPC   C4B16066   0.216   1.173   7.655
 6603POPC   NC316067  27.562   0.395   9.455
 6603POPC   PO416068  27.563   0.446   9.155
 6603POPC   GL116069  27.609   0.422   8.855
 6603POPC   GL216070  27.653   0.340   8.855
 6603POPC   C1A16071  27.610   0.446   8.555
 6603POPC   D2A16072  27.609   0.476   8.255
 6603POPC   C3A16073  27.545   0.458   7.955
 6603POPC   C4A16074  27.554   0.464   7.655
 6603POPC   C1B16075  27.837   0.357   8.555
 6603POPC   C2B16076  27.784   0.275   8.255
 6603POPC   C3B16077  27.792   0.355   7.955
 6603POPC   C4B16078  27.805   0.341   7.655
 6604POPC   NC316079   7.393   0.421   9.455
 6604POPC   PO416080   7.468   0.400   9.155
 6604POPC   GL116081   7.447   0.397   8.855
 6604POPC   GL216082   7.382   0.578   8.855
 6604POPC   C1A16083   7.470   0.476   8.555
 6604POPC   D2A16084   7.434   0.398   8.255
 6604POPC   C3A16085   7.387   0.414   7.955
 6604POPC   C4A16086   7.409   0.452   7.655
 6604POPC   C1B16087   7.249   0.663   8.555
 6604POPC   C2B16088   7.249   0.661   8.255
 6604POPC   C3B16089   7.276   0.592   7.955
 6604POPC   C4B16090   7.266   0.602   7.655
 6605POPC   NC316091  43.903  33.838   9.455
 6605POPC   PO416092  43.897  33.802   9.155
 6605POPC   GL116093  43.915  33.768   8.855
 6605POPC   GL216094  43.982  33.890   8.855
 6605POPC   C1A16095  43.867  33.844   8.555
 6605POPC   D2A16096  43.847  33.825   8.255
 6605POPC   C3A16097  43.889  33.824   7.955
 6605POPC   C4A16098  43.910  33.828   7.655
 6605POPC   C1B16099  44.079  33.900   8.555
 6605POPC   C2B16100  44.105  33.947   8.255
 6605POPC   C3B16101  44.127  33.928   7.955
 6605POPC   C4B16102  44.069  33.862   7.655
 6606POPC   NC316103   9.787  19.807   9.455
 6606POPC   PO416104   9.729  19.787   9.155
 6606POPC   GL116105   9.752  19.855   8.855
 6606POPC   GL216106   9.609  19.856   8.855
 6606POPC   C1A16107   9.751  19.876   8.555
 6606POPC   D2A16108   9.709  19.868   8.255
 6606POPC   C3A16109   9.743  19.791   7.955
 6606POPC   C4A16110   9.751  19.836   7.655
 6606POPC   C1B16111   9.524  19.905   8.555
 6606POPC   C2B16112   9.543  19.928   8.255
 6606POPC   C3B16113   9.554  19.966   7.955
 6606POPC   C4B16114   9.530  19.928   7.655
 6607POPC   NC316115  40.781  29.126   9.455
 6607POPC   PO416116  40.768  29.192   9.155
 6607POPC   GL116117  40.771  29.095   8.855
 6607POPC   GL216118  40.633  29.125   8.855
 6607POPC   C1A16119  40.737  29.165   8.555
 6607POPC   D2A16120  40.766  29.121   8.255
 6607POPC   C3A16121  40.750  29.155   7.955
 6607POPC   C4A16122  40.752  29.105   7.655
 6607POPC   C1B16123  40.556  29.157   8.555
 6607POPC   C2B16124  40.537  29.155   8.255
 6607POPC   C3B16125  40.559  29.185   7.955
 6607POPC   C4B16126  40.522  29.139   7.655
 6608POPC   NC316127  11.335  12.855   9.455
 6608POPC   PO416128  11.284  12.861   9.155
 6608POPC   GL116129  11.318  12.897   8.855
 6608POPC   GL216130  11.206  12.955   8.855
 6608POPC   C1A16131  11.277  12.843   8.555
 6608POPC   D2A16132  11.283  12.901   8.255
 6608POPC   C3A16133  11.252  12.825   7.955
 6608POPC   C4A16134  11.303  12.863   7.655
 6608POPC   C1B16135  11.090  13.052   8.555
 6608POPC   C2B16136  11.107  12.998   8.255
 6608POPC   C3B16137  11.068  13.029   7.955
 6608POPC   C4B16138  11.079  13.027   7.655
 6609POPC   NC316139   3.542  34.574   9.455
 6609POPC   PO416140   3.566  34.536   9.155
 6609POPC   GL116141   3.523  34.559   8.855
 6609POPC   GL216142   3.447  34.651   8.855
 6609POPC   C1A16143   3.531  34.544   8.555
 6609POPC   D2A16144   3.560  34.605   8.255
 6609POPC   C3A16145   3.583  34.594   7.955
 6609POPC   C4A16146   3.540  34.601   7.655
 6609POPC   C1B16147   3.366  34.671   8.555
 6609POPC   C2B16148   3.375  34.679   8.255
 6609POPC   C3B16149   3.347  34.700   7.955
 6609POPC   C4B16150   3.337  34.750   7.655
 6610POPC   NC316151  37.714  12.048   9.455
 6610POPC   PO416152  37.698  12.038   9.155
 6610POPC   GL116153  37.672  12.059   8.855
 6610POPC   GL216154  37.538  12.178   8.855
 6610POPC   C1A16155  37.717  12.105   8.555
 6610POPC   D2A16156  37.705  12.091   8.255
 6610POPC   C3A16157  37.698  12.085   7.955
 6610POPC   C4A16158  37.671  12.028   7.655
 6610POPC   C1B16159  37.428  12.187   8.555
 6610POPC   C2B16160  37.455  12.206   8.255
 6610POPC   C3B16161  37.478  12.160   7.955
 6610POPC   C4B16162  37.500  12.188   7.655
 6611POPC   NC316163  39.233  43.869   9.455
 6611POPC   PO416164  39.224  43.909   9.155
 6611POPC   GL116165  39.189  43.869   8.855
 6611POPC   GL216166  39.074  43.933   8.855
 6611POPC   C1A16167  39.232  43.900   8.555
 6611POPC   D2A16168  39.232  43.894   8.255
 6611POPC   C3A16169  39.217  43.853   7.955
 6611POPC   C4A16170  39.211  43.854   7.655
 6611POPC   C1B16171  38.990  43.951   8.555
 6611POPC   C2B16172  39.023  43.892   8.255
 6611POPC   C3B16173  38.990  43.930   7.955
 6611POPC   C4B16174  38.961  43.925   7.655
 6612POPC   NC316175  39.243   1.177   9.455
 6612POPC   PO416176  39.188   1.179   9.155
 6612POPC   GL116177  39.217   1.215   8.855
 6612POPC   GL216178  39.110   1.151   8.855
 6612POPC   C1A16179  39.209   1.200   8.555
 6612POPC   D2A16180  39.203   1.238   8.255
 6612POPC   C3A16181  39.241   1.215   7.955
 6612POPC   C4A16182  39.195   1.220   7.655
 6612POPC   C1B16183  39.034   1.172   8.555
 6612POPC   C2B16184  38.996   1.093   8.255
 6612POPC   C3B16185  39.011   1.134   7.955
 6612POPC   C4B16186  39.008   1.162   7.655
 6613POPC   NC316187  34.610  29.953   9.455
 6613POPC   PO416188  34.570  29.904   9.155
 6613POPC   GL116189  34.586  29.945   8.855
 6613POPC   GL216190  34.491  29.846   8.855
 6613POPC   C1A16191  34.623  29.928   8.555
 6613POPC   D2A16192  34.527  29.929   8.255
 6613POPC   C3A16193  34.543  29.915   7.955
 6613POPC   C4A16194  34.543  29.950   7.655
 6613POPC   C1B16195  34.477  29.719   8.555
 6613POPC   C2B16196  34.478  29.680   8.255
 6613POPC   C3B16197  34.434  29.755   7.955
 6613POPC   C4B16198  34.484  29.719   7.655
 6614POPC   NC316199  13.625  16.773   9.455
 6614POPC   PO416200  13.579  16.771   9.155
 6614POPC   GL116201  13.610  16.752   8.855
 6614POPC   GL216202  13.736  16.675   8.855
 6614POPC   C1A16203  13.604  16.740   8.555
 6614POPC   D2A16204  13.640  16.693   8.255
 6614POPC   C3A16205  13.597  16.738   7.955
 6614POPC   C4A16206  13.649  16.690   7.655
 6614POPC   C1B16207  13.821  16.498   8.555
 6614POPC   C2B16208  13.735  16.495   8.255
 6614POPC   C3B16209  13.804  16.576   7.955
 6614POPC   C4B16210  13.746  16.544   7.655
 6615POPC   NC316211  44.617  22.909   9.455
 6615POPC   PO416212  44.682  22.959   9.155
 6615POPC   GL116213  44.631  22.920   8.855
 6615POPC   GL216214  44.622  22.985   8.855
 6615POPC   C1A16215  44.693  22.982   8.555
 6615POPC   D2A16216  44.641  22.970   8.255
 6615POPC   C3A16217  44.687  22.911   7.955
 6615POPC   C4A16218  44.708  22.934   7.655
 6615POPC   C1B16219  44.516  23.122   8.555
 6615POPC   C2B16220  44.513  23.086   8.255
 6615POPC   C3B16221  44.536  23.096   7.955
 6615POPC   C4B16222  44.519  23.092   7.655
 6616POPC   NC316223  39.979  40.771   9.455
 6616POPC   PO416224  39.976  40.753   9.155
 6616POPC   GL116225  39.980  40.741   8.855
 6616POPC   GL216226  39.933  40.851   8.855
 6616POPC   C1A16227  39.996  40.784   8.555
 6616POPC   D2A16228  40.057  40.812   8.255
 6616POPC   C3A16229  39.971  40.813   7.955
 6616POPC   C4A16230  39.965  40.767   7.655
 6616POPC   C1B16231  39.801  40.942   8.555
 6616POPC   C2B16232  39.784  40.959   8.255
 6616POPC   C3B16233  39.830  40.986   7.955
 6616POPC   C4B16234  39.820  40.949   7.655
 6617POPC   NC316235   2.753  41.585   9.455
 6617POPC   PO416236   2.768  41.542   9.155
 6617POPC   GL116237   2.779  41.562   8.855
 6617POPC   GL216238   2.831  41.677   8.855
 6617POPC   C1A16239   2.796  41.513   8.555
 6617POPC   D2A16240   2.814  41.515   8.255
 6617POPC   C3A16241   2.763  41.518   7.955
 6617POPC   C4A16242   2.815  41.540   7.655
 6617POPC   C1B16243   2.798  41.818   8.555
 6617POPC   C2B16244   2.812  41.774   8.255
 6617POPC   C3B16245   2.785  41.778   7.955
 6617POPC   C4B16246   2.832  41.799   7.655
 6618POPC   NC316247  41.574  22.978   9.455
 6618POPC   PO416248  41.525  22.912   9.155
 6618POPC   GL116249  41.575  22.892   8.855
 6618POPC   GL216250  41.500  23.066   8.855
 6618POPC   C1A16251  41.603  22.962   8.555
 6618POPC   D2A16252  41.603  22.984   8.255
 6618POPC   C3A16253  41.558  22.987   7.955
 6618POPC   C4A16254  41.509  22.926   7.655
 6618POPC   C1B16255  41.501  23.224   8.555
 6618POPC   C2B16256  41.528  23.181   8.255
 6618POPC   C3B16257  41.555  23.193   7.955
 6618POPC   C4B16258  41.469  23.133   7.655
 6619POPC   NC316259   8.975   5.822   9.455
 6619POPC   PO416260   8.959   5.871   9.155
 6619POPC   GL116261   8.926   5.917   8.855
 6619POPC   GL216262   8.835   5.825   8.855
 6619POPC   C1A16263   8.950   5.898   8.555
 6619POPC   D2A16264   8.952   5.840   8.255
 6619POPC   C3A16265   8.947   5.883   7.955
 6619POPC   C4A16266   8.949   5.903   7.655
 6619POPC   C1B16267   8.779   5.739   8.555
 6619POPC   C2B16268   8.760   5.662   8.255
 6619POPC   C3B16269   8.823   5.747   7.955
 6619POPC   C4B16270   8.817   5.734   7.655
 6620POPC   NC316271  26.087  26.866   9.455
 6620POPC   PO416272  26.050  26.848   9.155
 6620POPC   GL116273  26.090  26.820   8.855
 6620POPC   GL216274  25.986  26.979   8.855
 6620POPC   C1A16275  26.043  26.823   8.555
 6620POPC   D2A16276  26.013  26.786   8.255
 6620POPC   C3A16277  26.083  26.809   7.955
 6620POPC   C4A16278  26.007  26.840   7.655
 6620POPC   C1B16279  25.931  27.085   8.555
 6620POPC   C2B16280  25.990  27.064   8.255
 6620POPC   C3B16281  25.919  27.101   7.955
 6620POPC   C4B16282  25.947  27.050   7.655
 6621POPC   NC316283  10.545   8.930   9.455
 6621POPC   PO416284  10.523   8.983   9.155
 6621POPC   GL116285  10.497   8.969   8.855
 6621POPC   GL216286  10.637   8.889   8.855
 6621POPC   C1A16287  10.517   8.924   8.555
 6621POPC   D2A16288  10.562   9.001   8.255
 6621POPC   C3A16289  10.507   9.022   7.955
 6621POPC   C4A16290  10.522   8.987   7.655
 6621POPC   C1B16291  10.755   8.847   8.555
 6621POPC   C2B16292  10.710   8.816   8.255
 6621POPC   C3B16293  10.673   8.784   7.955
 6621POPC   C4B16294  10.685   8.795   7.655
 6622POPC   NC316295  12.091   5.137   9.455
 6622POPC   PO416296  12.055   5.080   9.155
 6622POPC   GL116297  12.075   5.108   8.855
 6622POPC   GL216298  12.101   4.940   8.855
 6622POPC   C1A16299  12.052   5.113   8.555
 6622POPC   D2A16300  12.076   5.066   8.255
 6622POPC   C3A16301  12.069   5.108   7.955
 6622POPC   C4A16302  12.106   5.088   7.655
 6622POPC   C1B16303  12.152   4.841   8.555
 6622POPC   C2B16304  12.196   4.870   8.255
 6622POPC   C3B16305  12.147   4.855   7.955
 6622POPC   C4B16306  12.149   4.885   7.655
 6623POPC   NC316307  17.483  15.176   9.455
 6623POPC   PO416308  17.555  15.161   9.155
 6623POPC   GL116309  17.503  15.160   8.855
 6623POPC   GL216310  17.619  15.062   8.855
 6623POPC   C1A16311  17.542  15.156   8.555
 6623POPC   D2A16312  17.485  15.188   8.255
 6623POPC   C3A16313  17.540  15.229   7.955
 6623POPC   C4A16314  17.459  15.150   7.655
 6623POPC   C1B16315  17.719  15.048   8.555
 6623POPC   C2B16316  17.750  15.005   8.255
 6623POPC   C3B16317  17.722  15.033   7.955
 6623POPC   C4B16318  17.659  15.039   7.655
 6624POPC   NC316319  11.343  21.397   9.455
 6624POPC   PO416320  11.290  21.424   9.155
 6624POPC   GL116321  11.303  21.370   8.855
 6624POPC   GL216322  11.267  21.304   8.855
 6624POPC   C1A16323  11.305  21.352   8.555
 6624POPC   D2A16324  11.288  21.391   8.255
 6624POPC   C3A16325  11.271  21.373   7.955
 6624POPC   C4A16326  11.266  21.392   7.655
 6624POPC   C1B16327  11.211  21.120   8.555
 6624POPC   C2B16328  11.150  21.168   8.255
 6624POPC   C3B16329  11.168  21.199   7.955
 6624POPC   C4B16330  11.195  21.203   7.655
 6625POPC   NC316331  31.434  44.640   9.455
 6625POPC   PO416332  31.469  44.659   9.155
 6625POPC   GL116333  31.502  44.659   8.855
 6625POPC   GL216334  31.376  44.751   8.855
 6625POPC   C1A16335  31.487  44.626   8.555
 6625POPC   D2A16336  31.441  44.684   8.255
 6625POPC   C3A16337  31.501  44.673   7.955
 6625POPC   C4A16338  31.489  44.705   7.655
 6625POPC   C1B16339  31.273  44.852   8.555
 6625POPC   C2B16340  31.360  44.869   8.255
 6625POPC   C3B16341  31.275  44.839   7.955
 6625POPC   C4B16342  31.293  44.838   7.655
 6626POPC   NC316343  15.185  41.517   9.455
 6626POPC   PO416344  15.148  41.590   9.155
 6626POPC   GL116345  15.207  41.512   8.855
 6626POPC   GL216346  15.133  41.455   8.855
 6626POPC   C1A16347  15.167  41.516   8.555
 6626POPC   D2A16348  15.216  41.580   8.255
 6626POPC   C3A16349  15.154  41.545   7.955
 6626POPC   C4A16350  15.202  41.531   7.655
 6626POPC   C1B16351  14.959  41.397   8.555
 6626POPC   C2B16352  14.969  41.371   8.255
 6626POPC   C3B16353  15.014  41.392   7.955
 6626POPC   C4B16354  14.978  41.445   7.655
 6627POPC   NC316355   9.769  26.087   9.455
 6627POPC   PO416356   9.775  26.062   9.155
 6627POPC   GL116357   9.723  26.061   8.855
 6627POPC   GL216358   9.808  26.100   8.855
 6627POPC   C1A16359   9.779  26.005   8.555
 6627POPC   D2A16360   9.701  26.012   8.255
 6627POPC   C3A16361   9.753  26.035   7.955
 6627POPC   C4A16362   9.744  25.995   7.655
 6627POPC   C1B16363   9.901  26.199   8.555
 6627POPC   C2B16364   9.912  26.179   8.255
 6627POPC   C3B16365   9.914  26.182   7.955
 6627POPC   C4B16366   9.896  26.181   7.655
 6628POPC   NC316367  32.280  33.819   9.455
 6628POPC   PO416368  32.233  33.815   9.155
 6628POPC   GL116369  32.229  33.794   8.855
 6628POPC   GL216370  32.280  33.732   8.855
 6628POPC   C1A16371  32.256  33.824   8.555
 6628POPC   D2A16372  32.225  33.823   8.255
 6628POPC   C3A16373  32.267  33.774   7.955
 6628POPC   C4A16374  32.217  33.776   7.655
 6628POPC   C1B16375  32.390  33.552   8.555
 6628POPC   C2B16376  32.389  33.562   8.255
 6628POPC   C3B16377  32.347  33.614   7.955
 6628POPC   C4B16378  32.436  33.612   7.655
 6629POPC   NC316379  36.885   2.724   9.455
 6629POPC   PO416380  36.915   2.755   9.155
 6629POPC   GL116381  36.876   2.813   8.855
 6629POPC   GL216382  36.991   2.706   8.855
 6629POPC   C1A16383  36.938   2.728   8.555
 6629POPC   D2A16384  36.884   2.745   8.255
 6629POPC   C3A16385  36.902   2.765   7.955
 6629POPC   C4A16386  36.908   2.792   7.655
 6629POPC   C1B16387  37.055   2.596   8.555
 6629POPC   C2B16388  37.087   2.600   8.255
 6629POPC   C3B16389  37.096   2.589   7.955
 6629POPC   C4B16390  37.082   2.563   7.655
 6630POPC   NC316391   7.466  29.913   9.455
 6630POPC   PO416392   7.459  29.900   9.155
 6630POPC   GL116393   7.417  29.941   8.855
 6630POPC   GL216394   7.307  30.049   8.855
 6630POPC   C1A16395   7.403  29.935   8.555
 6630POPC   D2A16396   7.449  29.932   8.255
 6630POPC   C3A16397   7.411  29.874   7.955
 6630POPC   C4A16398   7.437  29.931   7.655
 6630POPC   C1B16399   7.322  30.163   8.555
 6630POPC   C2B16400   7.230  30.078   8.255
 6630POPC   C3B16401   7.289  30.084   7.955
 6630POPC   C4B16402   7.300  30.100   7.655
 6631POPC   NC316403  37.692  15.982   9.455
 6631POPC   PO416404  37.693  15.955   9.155
 6631POPC   GL116405  37.706  15.911   8.855
 6631POPC   GL216406  37.813  16.057   8.855
 6631POPC   C1A16407  37.681  15.950   8.555
 6631POPC   D2A16408  37.672  15.920   8.255
 6631POPC   C3A16409  37.664  16.004   7.955
 6631POPC   C4A16410  37.672  15.980   7.655
 6631POPC   C1B16411  37.893  16.124   8.555
 6631POPC   C2B16412  37.864  16.134   8.255
 6631POPC   C3B16413  37.840  16.140   7.955
 6631POPC   C4B16414  37.902  16.125   7.655
 6632POPC   NC316415  36.117  15.223   9.455
 6632POPC   PO416416  36.114  15.205   9.155
 6632POPC   GL116417  36.085  15.155   8.855
 6632POPC   GL216418  36.194  15.041   8.855
 6632POPC   C1A16419  36.091  15.216   8.555
 6632POPC   D2A16420  36.086  15.187   8.255
 6632POPC   C3A16421  36.104  15.150   7.955
 6632POPC   C4A16422  36.128  15.166   7.655
 6632POPC   C1B16423  36.295  14.997   8.555
 6632POPC   C2B16424  36.219  14.969   8.255
 6632POPC   C3B16425  36.268  15.012   7.955
 6632POPC   C4B16426  36.291  14.953   7.655
 6633POPC   NC316427  31.465  36.899   9.455
 6633POPC   PO416428  31.447  36.918   9.155
 6633POPC   GL116429  31.507  36.908   8.855
 6633POPC   GL216430  31.455  36.979   8.855
 6633POPC   C1A16431  31.495  36.875   8.555
 6633POPC   D2A16432  31.454  36.939   8.255
 6633POPC   C3A16433  31.475  36.915   7.955
 6633POPC   C4A16434  31.437  36.894   7.655
 6633POPC   C1B16435  31.475  37.109   8.555
 6633POPC   C2B16436  31.459  37.121   8.255
 6633POPC   C3B16437  31.506  37.134   7.955
 6633POPC   C4B16438  31.478  37.164   7.655
 6634POPC   NC316439  10.557  16.748   9.455
 6634POPC   PO416440  10.561  16.682   9.155
 6634POPC   GL116441  10.497  16.695   8.855
 6634POPC   GL216442  10.659  16.631   8.855
 6634POPC   C1A16443  10.508  16.735   8.555
 6634POPC   D2A16444  10.536  16.763   8.255
 6634POPC   C3A16445  10.523  16.732   7.955
 6634POPC   C4A16446  10.489  16.722   7.655
 6634POPC   C1B16447  10.767  16.614   8.555
 6634POPC   C2B16448  10.721  16.618   8.255
 6634POPC   C3B16449  10.782  16.636   7.955
 6634POPC   C4B16450  10.728  16.593   7.655
 6635POPC   NC316451  32.274  36.153   9.455
 6635POPC   PO416452  32.235  36.078   9.155
 6635POPC   GL116453  32.267  36.153   8.855
 6635POPC   GL216454  32.343  36.022   8.855
 6635POPC   C1A16455  32.218  36.087   8.555
 6635POPC   D2A16456  32.259  36.104   8.255
 6635POPC   C3A16457  32.286  36.083   7.955
 6635POPC   C4A16458  32.213  36.149   7.655
 6635POPC   C1B16459  32.416  35.911   8.555
 6635POPC   C2B16460  32.392  35.984   8.255
 6635POPC   C3B16461  32.418  35.920   7.955
 6635POPC   C4B16462  32.394  35.917   7.655
 6636POPC   NC316463   8.240  20.651   9.455
 6636POPC   PO416464   8.236  20.563   9.155
 6636POPC   GL116465   8.189  20.605   8.855
 6636POPC   GL216466   8.062  20.689   8.855
 6636POPC   C1A16467   8.231  20.636   8.555
 6636POPC   D2A16468   8.176  20.657   8.255
 6636POPC   C3A16469   8.163  20.609   7.955
 6636POPC   C4A16470   8.173  20.646   7.655
 6636POPC   C1B16471   7.979  20.656   8.555
 6636POPC   C2B16472   7.924  20.697   8.255
 6636POPC   C3B16473   7.915  20.690   7.955
 6636POPC   C4B16474   7.996  20.671   7.655
 6637POPC   NC316475  35.316  10.526   9.455
 6637POPC   PO416476  35.331  10.562   9.155
 6637POPC   GL116477  35.395  10.566   8.855
 6637POPC   GL216478  35.272  10.438   8.855
 6637POPC   C1A16479  35.371  10.523   8.555
 6637POPC   D2A16480  35.366  10.521   8.255
 6637POPC   C3A16481  35.306  10.487   7.955
 6637POPC   C4A16482  35.307  10.573   7.655
 6637POPC   C1B16483  35.173  10.377   8.555
 6637POPC   C2B16484  35.083  10.433   8.255
 6637POPC   C3B16485  35.129  10.466   7.955
 6637POPC   C4B16486  35.079  10.405   7.655
 6638POPC   NC316487  10.514  36.177   9.455
 6638POPC   PO416488  10.517  36.135   9.155
 6638POPC   GL116489  10.532  36.148   8.855
 6638POPC   GL216490  10.440  35.993   8.855
 6638POPC   C1A16491  10.539  36.101   8.555
 6638POPC   D2A16492  10.545  36.127   8.255
 6638POPC   C3A16493  10.545  36.156   7.955
 6638POPC   C4A16494  10.509  36.094   7.655
 6638POPC   C1B16495  10.452  35.893   8.555
 6638POPC   C2B16496  10.429  35.845   8.255
 6638POPC   C3B16497  10.452  35.857   7.955
 6638POPC   C4B16498  10.485  35.904   7.655
 6639POPC   NC316499  12.804   8.935   9.455
 6639POPC   PO416500  12.836   8.985   9.155
 6639POPC   GL116501  12.888   8.940   8.855
 6639POPC   GL216502  12.756   8.989   8.855
 6639POPC   C1A16503  12.889   8.945   8.555
 6639POPC   D2A16504  12.835   8.983   8.255
 6639POPC   C3A16505  12.815   8.937   7.955
 6639POPC   C4A16506  12.820   8.961   7.655
 6639POPC   C1B16507  12.571   9.061   8.555
 6639POPC   C2B16508  12.626   9.025   8.255
 6639POPC   C3B16509  12.648   9.053   7.955
 6639POPC   C4B16510  12.661   9.079   7.655
 6640POPC   NC316511  41.593  35.333   9.455
 6640POPC   PO416512  41.546  35.323   9.155
 6640POPC   GL116513  41.604  35.309   8.855
 6640POPC   GL216514  41.503  35.262   8.855
 6640POPC   C1A16515  41.550  35.367   8.555
 6640POPC   D2A16516  41.519  35.350   8.255
 6640POPC   C3A16517  41.528  35.325   7.955
 6640POPC   C4A16518  41.550  35.344   7.655
 6640POPC   C1B16519  41.548  35.123   8.555
 6640POPC   C2B16520  41.515  35.137   8.255
 6640POPC   C3B16521  41.541  35.065   7.955
 6640POPC   C4B16522  41.559  35.082   7.655
 6641POPC   NC316523  11.312  43.134   9.455
 6641POPC   PO416524  11.285  43.145   9.155
 6641POPC   GL116525  11.313  43.124   8.855
 6641POPC   GL216526  11.206  43.261   8.855
 6641POPC   C1A16527  11.320  43.088   8.555
 6641POPC   D2A16528  11.307  43.158   8.255
 6641POPC   C3A16529  11.275  43.149   7.955
 6641POPC   C4A16530  11.308  43.070   7.655
 6641POPC   C1B16531  11.151  43.321   8.555
 6641POPC   C2B16532  11.204  43.351   8.255
 6641POPC   C3B16533  11.117  43.281   7.955
 6641POPC   C4B16534  11.166  43.314   7.655
 6642POPC   NC316535   9.733   2.759   9.455
 6642POPC   PO416536   9.734   2.785   9.155
 6642POPC   GL116537   9.765   2.744   8.855
 6642POPC   GL216538   9.597   2.836   8.855
 6642POPC   C1A16539   9.729   2.785   8.555
 6642POPC   D2A16540   9.747   2.722   8.255
 6642POPC   C3A16541   9.789   2.760   7.955
 6642POPC   C4A16542   9.717   2.802   7.655
 6642POPC   C1B16543   9.473   2.820   8.555
 6642POPC   C2B16544   9.500   2.886   8.255
 6642POPC   C3B16545   9.557   2.819   7.955
 6642POPC   C4B16546   9.502   2.864   7.655
 6643POPC   NC316547   9.707  26.793   9.455
 6643POPC   PO416548   9.753  26.831   9.155
 6643POPC   GL116549   9.769  26.804   8.855
 6643POPC   GL216550   9.720  26.981   8.855
 6643POPC   C1A16551   9.725  26.793   8.555
 6643POPC   D2A16552   9.793  26.850   8.255
 6643POPC   C3A16553   9.781  26.866   7.955
 6643POPC   C4A16554   9.750  26.799   7.655
 6643POPC   C1B16555   9.663  27.049   8.555
 6643POPC   C2B16556   9.724  27.083   8.255
 6643POPC   C3B16557   9.665  27.082   7.955
 6643POPC   C4B16558   9.715  27.065   7.655
 6644POPC   NC316559  12.039  28.374   9.455
 6644POPC   PO416560  12.073  28.384   9.155
 6644POPC   GL116561  12.089  28.356   8.855
 6644POPC   GL216562  12.138  28.279   8.855
 6644POPC   C1A16563  12.109  28.323   8.555
 6644POPC   D2A16564  12.061  28.322   8.255
 6644POPC   C3A16565  12.035  28.411   7.955
 6644POPC   C4A16566  12.089  28.403   7.655
 6644POPC   C1B16567  12.109  28.096   8.555
 6644POPC   C2B16568  12.092  28.102   8.255
 6644POPC   C3B16569  12.089  28.109   7.955
 6644POPC   C4B16570  12.106  28.096   7.655
 6645POPC   NC316571   8.234  40.734   9.455
 6645POPC   PO416572   8.240  40.743   9.155
 6645POPC   GL116573   8.151  40.760   8.855
 6645POPC   GL216574   8.036  40.745   8.855
 6645POPC   C1A16575   8.188  40.821   8.555
 6645POPC   D2A16576   8.206  40.769   8.255
 6645POPC   C3A16577   8.238  40.737   7.955
 6645POPC   C4A16578   8.209  40.807   7.655
 6645POPC   C1B16579   7.908  40.839   8.555
 6645POPC   C2B16580   7.904  40.769   8.255
 6645POPC   C3B16581   7.942  40.794   7.955
 6645POPC   C4B16582   7.947  40.810   7.655
 6646POPC   NC316583  36.867  25.305   9.455
 6646POPC   PO416584  36.899  25.311   9.155
 6646POPC   GL116585  36.930  25.297   8.855
 6646POPC   GL216586  36.967  25.185   8.855
 6646POPC   C1A16587  36.899  25.306   8.555
 6646POPC   D2A16588  36.876  25.221   8.255
 6646POPC   C3A16589  36.941  25.277   7.955
 6646POPC   C4A16590  36.943  25.268   7.655
 6646POPC   C1B16591  37.073  25.090   8.555
 6646POPC   C2B16592  37.081  25.110   8.255
 6646POPC   C3B16593  37.148  25.123   7.955
 6646POPC   C4B16594  37.084  25.111   7.655
 6647POPC   NC316595  15.909  18.262   9.455
 6647POPC   PO416596  15.923  18.316   9.155
 6647POPC   GL116597  15.907  18.310   8.855
 6647POPC   GL216598  16.024  18.394   8.855
 6647POPC   C1A16599  15.965  18.304   8.555
 6647POPC   D2A16600  15.963  18.267   8.255
 6647POPC   C3A16601  15.927  18.299   7.955
 6647POPC   C4A16602  15.963  18.282   7.655
 6647POPC   C1B16603  16.101  18.494   8.555
 6647POPC   C2B16604  16.132  18.516   8.255
 6647POPC   C3B16605  16.154  18.467   7.955
 6647POPC   C4B16606  16.079  18.528   7.655
 6648POPC   NC316607  15.184  29.929   9.455
 6648POPC   PO416608  15.138  29.965   9.155
 6648POPC   GL116609  15.182  29.935   8.855
 6648POPC   GL216610  15.260  29.915   8.855
 6648POPC   C1A16611  15.196  29.959   8.555
 6648POPC   D2A16612  15.190  29.938   8.255
 6648POPC   C3A16613  15.221  29.965   7.955
 6648POPC   C4A16614  15.152  29.924   7.655
 6648POPC   C1B16615  15.423  29.926   8.555
 6648POPC   C2B16616  15.455  29.951   8.255
 6648POPC   C3B16617  15.436  29.948   7.955
 6648POPC   C4B16618  15.403  29.939   7.655
 6649POPC   NC316619  30.680   8.194   9.455
 6649POPC   PO416620  30.734   8.216   9.155
 6649POPC   GL116621  30.739   8.185   8.855
 6649POPC   GL216622  30.831   8.234   8.855
 6649POPC   C1A16623  30.731   8.200   8.555
 6649POPC   D2A16624  30.709   8.208   8.255
 6649POPC   C3A16625  30.716   8.187   7.955
 6649POPC   C4A16626  30.656   8.190   7.655
 6649POPC   C1B16627  30.934   8.289   8.555
 6649POPC   C2B16628  30.898   8.313   8.255
 6649POPC   C3B16629  30.902   8.253   7.955
 6649POPC   C4B16630  30.944   8.240   7.655
 6650POPC   NC316631  37.727   7.453   9.455
 6650POPC   PO416632  37.719   7.423   9.155
 6650POPC   GL116633  37.659   7.458   8.855
 6650POPC   GL216634  37.578   7.331   8.855
 6650POPC   C1A16635  37.666   7.405   8.555
 6650POPC   D2A16636  37.698   7.379   8.255
 6650POPC   C3A16637  37.704   7.410   7.955
 6650POPC   C4A16638  37.647   7.453   7.655
 6650POPC   C1B16639  37.474   7.273   8.555
 6650POPC   C2B16640  37.487   7.261   8.255
 6650POPC   C3B16641  37.511   7.298   7.955
 6650POPC   C4B16642  37.470   7.279   7.655
 6651POPC   NC316643  36.858  34.546   9.455
 6651POPC   PO416644  36.871  34.526   9.155
 6651POPC   GL116645  36.924  34.586   8.855
 6651POPC   GL216646  36.793  34.530   8.855
 6651POPC   C1A16647  36.932  34.580   8.555
 6651POPC   D2A16648  36.951  34.537   8.255
 6651POPC   C3A16649  36.906  34.529   7.955
 6651POPC   C4A16650  36.876  34.595   7.655
 6651POPC   C1B16651  36.683  34.503   8.555
 6651POPC   C2B16652  36.693  34.557   8.255
 6651POPC   C3B16653  36.662  34.510   7.955
 6651POPC   C4B16654  36.611  34.519   7.655
 6652POPC   NC316655   8.185  21.379   9.455
 6652POPC   PO416656   8.226  21.422   9.155
 6652POPC   GL116657   8.208  21.406   8.855
 6652POPC   GL216658   8.258  21.361   8.855
 6652POPC   C1A16659   8.215  21.339   8.555
 6652POPC   D2A16660   8.181  21.434   8.255
 6652POPC   C3A16661   8.188  21.413   7.955
 6652POPC   C4A16662   8.161  21.396   7.655
 6652POPC   C1B16663   8.463  21.320   8.555
 6652POPC   C2B16664   8.386  21.281   8.255
 6652POPC   C3B16665   8.425  21.319   7.955
 6652POPC   C4B16666   8.446  21.271   7.655
 6653POPC   NC316667  25.229   9.720   9.455
 6653POPC   PO416668  25.220   9.747   9.155
 6653POPC   GL116669  25.251   9.729   8.855
 6653POPC   GL216670  25.131   9.755   8.855
 6653POPC   C1A16671  25.258   9.702   8.555
 6653POPC   D2A16672  25.303   9.727   8.255
 6653POPC   C3A16673  25.250   9.727   7.955
 6653POPC   C4A16674  25.294   9.710   7.655
 6653POPC   C1B16675  25.037   9.692   8.555
 6653POPC   C2B16676  24.987   9.671   8.255
 6653POPC   C3B16677  25.024   9.663   7.955
 6653POPC   C4B16678  25.039   9.666   7.655
 6654POPC   NC316679  43.107  29.961   9.455
 6654POPC   PO416680  43.157  29.876   9.155
 6654POPC   GL116681  43.077  29.950   8.855
 6654POPC   GL216682  43.138  29.807   8.855
 6654POPC   C1A16683  43.115  29.941   8.555
 6654POPC   D2A16684  43.062  29.944   8.255
 6654POPC   C3A16685  43.135  29.883   7.955
 6654POPC   C4A16686  43.077  29.953   7.655
 6654POPC   C1B16687  43.255  29.662   8.555
 6654POPC   C2B16688  43.230  29.725   8.255
 6654POPC   C3B16689  43.245  29.673   7.955
 6654POPC   C4B16690  43.216  29.700   7.655
 6655POPC   NC316691  26.026  28.416   9.455
 6655POPC   PO416692  26.060  28.319   9.155
 6655POPC   GL116693  26.081  28.375   8.855
 6655POPC   GL216694  25.980  28.282   8.855
 6655POPC   C1A16695  25.999  28.321   8.555
 6655POPC   D2A16696  25.994  28.404   8.255
 6655POPC   C3A16697  26.034  28.349   7.955
 6655POPC   C4A16698  25.992  28.368   7.655
 6655POPC   C1B16699  26.022  28.136   8.555
 6655POPC   C2B16700  25.973  28.084   8.255
 6655POPC   C3B16701  25.994  28.142   7.955
 6655POPC   C4B16702  26.035  28.151   7.655
 6656POPC   NC316703  16.743  21.432   9.455
 6656POPC   PO416704  16.690  21.400   9.155
 6656POPC   GL116705  16.709  21.359   8.855
 6656POPC   GL216706  16.720  21.479   8.855
 6656POPC   C1A16707  16.689  21.338   8.555
 6656POPC   D2A16708  16.736  21.353   8.255
 6656POPC   C3A16709  16.770  21.388   7.955
 6656POPC   C4A16710  16.725  21.344   7.655
 6656POPC   C1B16711  16.835  21.622   8.555
 6656POPC   C2B16712  16.832  21.585   8.255
 6656POPC   C3B16713  16.833  21.587   7.955
 6656POPC   C4B16714  16.800  21.635   7.655
 6657POPC   NC316715   1.228  12.088   9.455
 6657POPC   PO416716   1.215  12.085   9.155
 6657POPC   GL116717   1.182  12.046   8.855
 6657POPC   GL216718   1.293  12.204   8.855
 6657POPC   C1A16719   1.257  12.076   8.555
 6657POPC   D2A16720   1.169  12.105   8.255
 6657POPC   C3A16721   1.252  12.057   7.955
 6657POPC   C4A16722   1.240  12.104   7.655
 6657POPC   C1B16723   1.388  12.300   8.555
 6657POPC   C2B16724   1.382  12.238   8.255
 6657POPC   C3B16725   1.390  12.324   7.955
 6657POPC   C4B16726   1.353  12.243   7.655
 6658POPC   NC316727   1.189  25.221   9.455
 6658POPC   PO416728   1.243  25.219   9.155
 6658POPC   GL116729   1.239  25.216   8.855
 6658POPC   GL216730   1.332  25.372   8.855
 6658POPC   C1A16731   1.238  25.244   8.555
 6658POPC   D2A16732   1.211  25.312   8.255
 6658POPC   C3A16733   1.167  25.294   7.955
 6658POPC   C4A16734   1.253  25.256   7.655
 6658POPC   C1B16735   1.451  25.421   8.555
 6658POPC   C2B16736   1.382  25.365   8.255
 6658POPC   C3B16737   1.453  25.411   7.955
 6658POPC   C4B16738   1.424  25.421   7.655
 6659POPC   NC316739  39.190  38.430   9.455
 6659POPC   PO416740  39.201  38.500   9.155
 6659POPC   GL116741  39.181  38.479   8.855
 6659POPC   GL216742  39.185  38.369   8.855
 6659POPC   C1A16743  39.235  38.503   8.555
 6659POPC   D2A16744  39.206  38.436   8.255
 6659POPC   C3A16745  39.259  38.455   7.955
 6659POPC   C4A16746  39.256  38.444   7.655
 6659POPC   C1B16747  39.186  38.187   8.555
 6659POPC   C2B16748  39.199  38.235   8.255
 6659POPC   C3B16749  39.218  38.237   7.955
 6659POPC   C4B16750  39.211  38.214   7.655
 6660POPC   NC316751  43.903   3.501   9.455
 6660POPC   PO416752  43.917   3.550   9.155
 6660POPC   GL116753  43.914   3.507   8.855
 6660POPC   GL216754  43.765   3.518   8.855
 6660POPC   C1A16755  43.912   3.558   8.555
 6660POPC   D2A16756  43.838   3.502   8.255
 6660POPC   C3A16757  43.904   3.582   7.955
 6660POPC   C4A16758  43.855   3.561   7.655
 6660POPC   C1B16759  43.677   3.540   8.555
 6660POPC   C2B16760  43.664   3.567   8.255
 6660POPC   C3B16761  43.674   3.499   7.955
 6660POPC   C4B16762  43.667   3.519   7.655
 6661POPC   NC316763  36.869  32.203   9.455
 6661POPC   PO416764  36.936  32.287   9.155
 6661POPC   GL116765  36.866  32.209   8.855
 6661POPC   GL216766  37.035  32.365   8.855
 6661POPC   C1A16767  36.857  32.201   8.555
 6661POPC   D2A16768  36.880  32.260   8.255
 6661POPC   C3A16769  36.871  32.244   7.955
 6661POPC   C4A16770  36.949  32.288   7.655
 6661POPC   C1B16771  37.022  32.408   8.555
 6661POPC   C2B16772  37.120  32.476   8.255
 6661POPC   C3B16773  37.067  32.391   7.955
 6661POPC   C4B16774  37.115  32.421   7.655
 6662POPC   NC316775   8.155  23.717   9.455
 6662POPC   PO416776   8.175  23.699   9.155
 6662POPC   GL116777   8.195  23.688   8.855
 6662POPC   GL216778   8.311  23.627   8.855
 6662POPC   C1A16779   8.163  23.743   8.555
 6662POPC   D2A16780   8.238  23.758   8.255
 6662POPC   C3A16781   8.229  23.710   7.955
 6662POPC   C4A16782   8.154  23.738   7.655
 6662POPC   C1B16783   8.385  23.549   8.555
 6662POPC   C2B16784   8.297  23.512   8.255
 6662POPC   C3B16785   8.392  23.498   7.955
 6662POPC   C4B16786   8.348  23.463   7.655
 6663POPC   NC316787  25.258  25.257   9.455
 6663POPC   PO416788  25.303  25.230   9.155
 6663POPC   GL116789  25.276  25.241   8.855
 6663POPC   GL216790  25.193  25.138   8.855
 6663POPC   C1A16791  25.257  25.265   8.555
 6663POPC   D2A16792  25.259  25.247   8.255
 6663POPC   C3A16793  25.299  25.313   7.955
 6663POPC   C4A16794  25.302  25.295   7.655
 6663POPC   C1B16795  25.113  25.135   8.555
 6663POPC   C2B16796  25.111  25.092   8.255
 6663POPC   C3B16797  25.069  25.049   7.955
 6663POPC   C4B16798  25.105  25.134   7.655
 6664POPC   NC316799  35.351   1.994   9.455
 6664POPC   PO416800  35.321   1.997   9.155
 6664POPC   GL116801  35.341   1.980   8.855
 6664POPC   GL216802  35.470   2.080   8.855
 6664POPC   C1A16803  35.349   2.018   8.555
 6664POPC   D2A16804  35.372   1.977   8.255
 6664POPC   C3A16805  35.333   2.036   7.955
 6664POPC   C4A16806  35.381   1.951   7.655
 6664POPC   C1B16807  35.571   2.113   8.555
 6664POPC   C2B16808  35.559   2.208   8.255
 6664POPC   C3B16809  35.491   2.202   7.955
 6664POPC   C4B16810  35.490   2.186   7.655
 6665POPC   NC316811  17.504   9.003   9.455
 6665POPC   PO416812  17.544   9.006   9.155
 6665POPC   GL116813  17.527   8.924   8.855
 6665POPC   GL216814  17.463   9.093   8.855
 6665POPC   C1A16815  17.461   8.983   8.555
 6665POPC   D2A16816  17.476   8.966   8.255
 6665POPC   C3A16817  17.479   8.948   7.955
 6665POPC   C4A16818  17.553   9.016   7.655
 6665POPC   C1B16819  17.340   9.119   8.555
 6665POPC   C2B16820  17.303   9.155   8.255
 6665POPC   C3B16821  17.386   9.194   7.955
 6665POPC   C4B16822  17.328   9.127   7.655
 6666POPC   NC316823  44.634  25.285   9.455
 6666POPC   PO416824  44.672  25.225   9.155
 6666POPC   GL116825  44.626  25.217   8.855
 6666POPC   GL216826  44.786  25.358   8.855
 6666POPC   C1A16827  44.707  25.314   8.555
 6666POPC   D2A16828  44.667  25.224   8.255
 6666POPC   C3A16829  44.681  25.256   7.955
 6666POPC   C4A16830  44.698  25.283   7.655
 6666POPC   C1B16831  44.864  25.449   8.555
 6666POPC   C2B16832  44.827  25.423   8.255
 6666POPC   C3B16833  44.783  25.470   7.955
 6666POPC   C4B16834  44.810  25.405   7.655
 6667POPC   NC316835  28.414  21.343   9.455
 6667POPC   PO416836  28.394  21.371   9.155
 6667POPC   GL116837  28.339  21.360   8.855
 6667POPC   GL216838  28.390  21.277   8.855
 6667POPC   C1A16839  28.328  21.387   8.555
 6667POPC   D2A16840  28.336  21.353   8.255
 6667POPC   C3A16841  28.360  21.377   7.955
 6667POPC   C4A16842  28.386  21.391   7.655
 6667POPC   C1B16843  28.471  21.111   8.555
 6667POPC   C2B16844  28.480  21.129   8.255
 6667POPC   C3B16845  28.471  21.105   7.955
 6667POPC   C4B16846  28.488  21.133   7.655
 6668POPC   NC316847  43.849  20.660   9.455
 6668POPC   PO416848  43.849  20.591   9.155
 6668POPC   GL116849  43.879  20.642   8.855
 6668POPC   GL216850  43.759  20.561   8.855
 6668POPC   C1A16851  43.914  20.612   8.555
 6668POPC   D2A16852  43.921  20.567   8.255
 6668POPC   C3A16853  43.870  20.640   7.955
 6668POPC   C4A16854  43.879  20.561   7.655
 6668POPC   C1B16855  43.657  20.470   8.555
 6668POPC   C2B16856  43.704  20.461   8.255
 6668POPC   C3B16857  43.633  20.451   7.955
 6668POPC   C4B16858  43.659  20.536   7.655
 6669POPC   NC316859  38.427  29.873   9.455
 6669POPC   PO416860  38.483  29.930   9.155
 6669POPC   GL116861  38.500  29.946   8.855
 6669POPC   GL216862  38.305  29.874   8.855
 6669POPC   C1A16863  38.415  29.926   8.555
 6669POPC   D2A16864  38.420  29.913   8.255
 6669POPC   C3A16865  38.415  29.943   7.955
 6669POPC   C4A16866  38.448  29.943   7.655
 6669POPC   C1B16867  38.276  29.837   8.555
 6669POPC   C2B16868  38.200  29.821   8.255
 6669POPC   C3B16869  38.239  29.832   7.955
 6669POPC   C4B16870  38.204  29.804   7.655
 6670POPC   NC316871  12.086  24.509   9.455
 6670POPC   PO416872  12.038  24.461   9.155
 6670POPC   GL116873  12.090  24.536   8.855
 6670POPC   GL216874  11.941  24.437   8.855
 6670POPC   C1A16875  12.092  24.478   8.555
 6670POPC   D2A16876  12.113  24.460   8.255
 6670POPC   C3A16877  12.062  24.506   7.955
 6670POPC   C4A16878  12.081  24.485   7.655
 6670POPC   C1B16879  11.790  24.493   8.555
 6670POPC   C2B16880  11.815  24.454   8.255
 6670POPC   C3B16881  11.856  24.438   7.955
 6670POPC   C4B16882  11.800  24.505   7.655
 6671POPC   NC316883   9.774  17.485   9.455
 6671POPC   PO416884   9.778  17.519   9.155
 6671POPC   GL116885   9.776  17.556   8.855
 6671POPC   GL216886   9.777  17.385   8.855
 6671POPC   C1A16887   9.746  17.535   8.555
 6671POPC   D2A16888   9.793  17.467   8.255
 6671POPC   C3A16889   9.787  17.524   7.955
 6671POPC   C4A16890   9.771  17.467   7.655
 6671POPC   C1B16891   9.890  17.317   8.555
 6671POPC   C2B16892   9.852  17.332   8.255
 6671POPC   C3B16893   9.890  17.300   7.955
 6671POPC   C4B16894   9.879  17.280   7.655
 6672POPC   NC316895  12.039   8.940   9.455
 6672POPC   PO416896  12.118   8.976   9.155
 6672POPC   GL116897  12.120   8.941   8.855
 6672POPC   GL216898  12.196   8.967   8.855
 6672POPC   C1A16899  12.045   9.020   8.555
 6672POPC   D2A16900  12.035   9.012   8.255
 6672POPC   C3A16901  12.029   8.996   7.955
 6672POPC   C4A16902  12.083   8.939   7.655
 6672POPC   C1B16903  12.351   8.985   8.555
 6672POPC   C2B16904  12.373   8.976   8.255
 6672POPC   C3B16905  12.315   8.969   7.955
 6672POPC   C4B16906  12.358   8.918   7.655
 6673POPC   NC316907  35.365  23.680   9.455
 6673POPC   PO416908  35.316  23.705   9.155
 6673POPC   GL116909  35.320  23.746   8.855
 6673POPC   GL216910  35.229  23.843   8.855
 6673POPC   C1A16911  35.334  23.697   8.555
 6673POPC   D2A16912  35.359  23.694   8.255
 6673POPC   C3A16913  35.361  23.708   7.955
 6673POPC   C4A16914  35.311  23.736   7.655
 6673POPC   C1B16915  35.179  23.904   8.555
 6673POPC   C2B16916  35.141  23.895   8.255
 6673POPC   C3B16917  35.197  23.854   7.955
 6673POPC   C4B16918  35.168  23.885   7.655
 6674POPC   NC316919  26.064  21.413   9.455
 6674POPC   PO416920  26.052  21.373   9.155
 6674POPC   GL116921  26.028  21.411   8.855
 6674POPC   GL216922  25.959  21.467   8.855
 6674POPC   C1A16923  26.049  21.429   8.555
 6674POPC   D2A16924  26.054  21.409   8.255
 6674POPC   C3A16925  26.069  21.359   7.955
 6674POPC   C4A16926  26.053  21.397   7.655
 6674POPC   C1B16927  25.858  21.592   8.555
 6674POPC   C2B16928  25.868  21.576   8.255
 6674POPC   C3B16929  25.836  21.572   7.955
 6674POPC   C4B16930  25.873  21.565   7.655
 6675POPC   NC316931  12.861  38.440   9.455
 6675POPC   PO416932  12.824  38.428   9.155
 6675POPC   GL116933  12.901  38.473   8.855
 6675POPC   GL216934  12.702  38.449   8.855
 6675POPC   C1A16935  12.815  38.420   8.555
 6675POPC   D2A16936  12.853  38.487   8.255
 6675POPC   C3A16937  12.827  38.494   7.955
 6675POPC   C4A16938  12.866  38.453   7.655
 6675POPC   C1B16939  12.620  38.339   8.555
 6675POPC   C2B16940  12.604  38.318   8.255
 6675POPC   C3B16941  12.655  38.323   7.955
 6675POPC   C4B16942  12.583  38.309   7.655
 6676POPC   NC316943  20.566  36.921   9.455
 6676POPC   PO416944  20.649  36.865   9.155
 6676POPC   GL116945  20.564  36.902   8.855
 6676POPC   GL216946  20.655  37.021   8.855
 6676POPC   C1A16947  20.583  36.866   8.555
 6676POPC   D2A16948  20.594  36.907   8.255
 6676POPC   C3A16949  20.630  36.904   7.955
 6676POPC   C4A16950  20.626  36.877   7.655
 6676POPC   C1B16951  20.759  37.097   8.555
 6676POPC   C2B16952  20.757  37.159   8.255
 6676POPC   C3B16953  20.689  37.157   7.955
 6676POPC   C4B16954  20.758  37.146   7.655
 6677POPC   NC316955  36.175  11.339   9.455
 6677POPC   PO416956  36.089  11.256   9.155
 6677POPC   GL116957  36.174  11.308   8.855
 6677POPC   GL216958  35.993  11.362   8.855
 6677POPC   C1A16959  36.165  11.298   8.555
 6677POPC   D2A16960  36.104  11.267   8.255
 6677POPC   C3A16961  36.154  11.266   7.955
 6677POPC   C4A16962  36.141  11.261   7.655
 6677POPC   C1B16963  35.931  11.438   8.555
 6677POPC   C2B16964  35.924  11.407   8.255
 6677POPC   C3B16965  35.882  11.413   7.955
 6677POPC   C4B16966  35.928  11.480   7.655
 6678POPC   NC316967  20.588  18.330   9.455
 6678POPC   PO416968  20.653  18.270   9.155
 6678POPC   GL116969  20.610  18.245   8.855
 6678POPC   GL216970  20.694  18.287   8.855
 6678POPC   C1A16971  20.564  18.237   8.555
 6678POPC   D2A16972  20.575  18.275   8.255
 6678POPC   C3A16973  20.650  18.242   7.955
 6678POPC   C4A16974  20.600  18.270   7.655
 6678POPC   C1B16975  20.835  18.238   8.555
 6678POPC   C2B16976  20.847  18.208   8.255
 6678POPC   C3B16977  20.836  18.252   7.955
 6678POPC   C4B16978  20.823  18.227   7.655
 6679POPC   NC316979  18.302  22.904   9.455
 6679POPC   PO416980  18.311  22.897   9.155
 6679POPC   GL116981  18.245  22.917   8.855
 6679POPC   GL216982  18.158  23.011   8.855
 6679POPC   C1A16983  18.255  22.972   8.555
 6679POPC   D2A16984  18.268  22.889   8.255
 6679POPC   C3A16985  18.308  22.916   7.955
 6679POPC   C4A16986  18.316  22.962   7.655
 6679POPC   C1B16987  18.126  23.119   8.555
 6679POPC   C2B16988  18.076  23.080   8.255
 6679POPC   C3B16989  18.156  23.150   7.955
 6679POPC   C4B16990  18.081  23.095   7.655
 6680POPC   NC316991  26.777  19.851   9.455
 6680POPC   PO416992  26.859  19.813   9.155
 6680POPC   GL116993  26.778  19.883   8.855
 6680POPC   GL216994  26.851  19.937   8.855
 6680POPC   C1A16995  26.807  19.861   8.555
 6680POPC   D2A16996  26.853  19.850   8.255
 6680POPC   C3A16997  26.785  19.816   7.955
 6680POPC   C4A16998  26.853  19.852   7.655
 6680POPC   C1B16999  26.964  20.092   8.555
 6680POPC   C2B17000  26.882  20.021   8.255
 6680POPC   C3B17001  26.919  20.061   7.955
 6680POPC   C4B17002  26.927  20.033   7.655
 6681POPC   NC317003  43.118  15.961   9.455
 6681POPC   PO417004  43.086  15.960   9.155
 6681POPC   GL117005  43.128  15.960   8.855
 6681POPC   GL217006  43.097  16.097   8.855
 6681POPC   C1A17007  43.062  15.922   8.555
 6681POPC   D2A17008  43.109  15.925   8.255
 6681POPC   C3A17009  43.074  15.984   7.955
 6681POPC   C4A17010  43.085  15.936   7.655
 6681POPC   C1B17011  43.028  16.216   8.555
 6681POPC   C2B17012  43.078  16.232   8.255
 6681POPC   C3B17013  43.091  16.192   7.955
 6681POPC   C4B17014  43.015  16.184   7.655
 6682POPC   NC317015  18.328  19.108   9.455
 6682POPC   PO417016  18.274  19.099   9.155
 6682POPC   GL117017  18.280  19.072   8.855
 6682POPC   GL217018  18.193  19.092   8.855
 6682POPC   C1A17019  18.298  19.029   8.555
 6682POPC   D2A17020  18.241  19.042   8.255
 6682POPC   C3A17021  18.288  19.018   7.955
 6682POPC   C4A17022  18.308  19.087   7.655
 6682POPC   C1B17023  18.009  19.122   8.555
 6682POPC   C2B17024  18.034  19.189   8.255
 6682POPC   C3B17025  18.017  19.118   7.955
 6682POPC   C4B17026  18.001  19.199   7.655
 6683POPC   NC317027  27.603  38.426   9.455
 6683POPC   PO417028  27.564  38.476   9.155
 6683POPC   GL117029  27.565  38.470   8.855
 6683POPC   GL217030  27.758  38.502   8.855
 6683POPC   C1A17031  27.566  38.445   8.555
 6683POPC   D2A17032  27.547  38.485   8.255
 6683POPC   C3A17033  27.603  38.483   7.955
 6683POPC   C4A17034  27.556  38.452   7.655
 6683POPC   C1B17035  27.873  38.486   8.555
 6683POPC   C2B17036  27.815  38.491   8.255
 6683POPC   C3B17037  27.868  38.576   7.955
 6683POPC   C4B17038  27.805  38.547   7.655
 6684POPC   NC317039   8.957  19.038   9.455
 6684POPC   PO417040   8.936  19.072   9.155
 6684POPC   GL117041   8.948  19.081   8.855
 6684POPC   GL217042   8.829  19.135   8.855
 6684POPC   C1A17043   8.989  19.012   8.555
 6684POPC   D2A17044   8.957  19.017   8.255
 6684POPC   C3A17045   8.961  19.043   7.955
 6684POPC   C4A17046   8.937  19.027   7.655
 6684POPC   C1B17047   8.726  19.174   8.555
 6684POPC   C2B17048   8.763  19.211   8.255
 6684POPC   C3B17049   8.736  19.160   7.955
 6684POPC   C4B17050   8.766  19.216   7.655
 6685POPC   NC317051  12.883  21.368   9.455
 6685POPC   PO417052  12.866  21.364   9.155
 6685POPC   GL117053  12.806  21.341   8.855
 6685POPC   GL217054  12.742  21.426   8.855
 6685POPC   C1A17055  12.894  21.340   8.555
 6685POPC   D2A17056  12.865  21.428   8.255
 6685POPC   C3A17057  12.815  21.356   7.955
 6685POPC   C4A17058  12.830  21.434   7.655
 6685POPC   C1B17059  12.609  21.342   8.555
 6685POPC   C2B17060  12.631  21.394   8.255
 6685POPC   C3B17061  12.623  21.424   7.955
 6685POPC   C4B17062  12.587  21.407   7.655
 6686POPC   NC317063  29.133   1.951   9.455
 6686POPC   PO417064  29.097   1.967   9.155
 6686POPC   GL117065  29.124   2.037   8.855
 6686POPC   GL217066  29.088   2.012   8.855
 6686POPC   C1A17067  29.183   2.029   8.555
 6686POPC   D2A17068  29.104   2.012   8.255
 6686POPC   C3A17069  29.182   1.975   7.955
 6686POPC   C4A17070  29.141   2.023   7.655
 6686POPC   C1B17071  28.917   2.138   8.555
 6686POPC   C2B17072  28.952   2.110   8.255
 6686POPC   C3B17073  28.926   2.125   7.955
 6686POPC   C4B17074  28.916   2.171   7.655
 6687POPC   NC317075  19.833  22.151   9.455
 6687POPC   PO417076  19.798  22.114   9.155
 6687POPC   GL117077  19.876  22.139   8.855
 6687POPC   GL217078  19.894  22.327   8.855
 6687POPC   C1A17079  19.837  22.197   8.555
 6687POPC   D2A17080  19.793  22.127   8.255
 6687POPC   C3A17081  19.803  22.134   7.955
 6687POPC   C4A17082  19.814  22.161   7.655
 6687POPC   C1B17083  19.891  22.438   8.555
 6687POPC   C2B17084  19.936  22.439   8.255
 6687POPC   C3B17085  19.935  22.370   7.955
 6687POPC   C4B17086  19.877  22.378   7.655
 6688POPC   NC317087  22.199  23.759   9.455
 6688POPC   PO417088  22.122  23.671   9.155
 6688POPC   GL117089  22.203  23.688   8.855
 6688POPC   GL217090  22.081  23.830   8.855
 6688POPC   C1A17091  22.125  23.667   8.555
 6688POPC   D2A17092  22.185  23.714   8.255
 6688POPC   C3A17093  22.193  23.697   7.955
 6688POPC   C4A17094  22.169  23.712   7.655
 6688POPC   C1B17095  22.063  23.898   8.555
 6688POPC   C2B17096  22.042  23.939   8.255
 6688POPC   C3B17097  22.075  23.904   7.955
 6688POPC   C4B17098  22.046  23.911   7.655
 6689POPC   NC317099  40.828  43.103   9.455
 6689POPC   PO417100  40.758  43.124   9.155
 6689POPC   GL117101  40.832  43.108   8.855
 6689POPC   GL217102  40.684  43.263   8.855
 6689POPC   C1A17103  40.733  43.061   8.555
 6689POPC   D2A17104  40.804  43.064   8.255
 6689POPC   C3A17105  40.804  43.142   7.955
 6689POPC   C4A17106  40.797  43.124   7.655
 6689POPC   C1B17107  40.637  43.306   8.555
 6689POPC   C2B17108  40.693  43.337   8.255
 6689POPC   C3B17109  40.729  43.319   7.955
 6689POPC   C4B17110  40.701  43.305   7.655
 6690POPC   NC317111  33.020  39.255   9.455
 6690POPC   PO417112  33.057  39.235   9.155
 6690POPC   GL117113  32.985  39.234   8.855
 6690POPC   GL217114  33.048  39.346   8.855
 6690POPC   C1A17115  33.039  39.194   8.555
 6690POPC   D2A17116  33.021  39.230   8.255
 6690POPC   C3A17117  33.057  39.208   7.955
 6690POPC   C4A17118  32.988  39.252   7.655
 6690POPC   C1B17119  33.055  39.525   8.555
 6690POPC   C2B17120  33.045  39.460   8.255
 6690POPC   C3B17121  33.092  39.444   7.955
 6690POPC   C4B17122  33.086  39.501   7.655
 6691POPC   NC317123   9.789  12.028   9.455
 6691POPC   PO417124   9.720  12.110   9.155
 6691POPC   GL117125   9.721  12.108   8.855
 6691POPC   GL217126   9.662  12.021   8.855
 6691POPC   C1A17127   9.777  12.090   8.555
 6691POPC   D2A17128   9.795  12.027   8.255
 6691POPC   C3A17129   9.723  12.033   7.955
 6691POPC   C4A17130   9.788  12.041   7.655
 6691POPC   C1B17131   9.517  11.941   8.555
 6691POPC   C2B17132   9.493  11.901   8.255
 6691POPC   C3B17133   9.529  11.896   7.955
 6691POPC   C4B17134   9.590  11.902   7.655
 6692POPC   NC317135  28.375  40.794   9.455
 6692POPC   PO417136  28.364  40.765   9.155
 6692POPC   GL117137  28.411  40.781   8.855
 6692POPC   GL217138  28.330  40.713   8.855
 6692POPC   C1A17139  28.339  40.781   8.555
 6692POPC   D2A17140  28.356  40.794   8.255
 6692POPC   C3A17141  28.328  40.813   7.955
 6692POPC   C4A17142  28.375  40.751   7.655
 6692POPC   C1B17143  28.245  40.538   8.555
 6692POPC   C2B17144  28.253  40.588   8.255
 6692POPC   C3B17145  28.300  40.588   7.955
 6692POPC   C4B17146  28.277  40.538   7.655
 6693POPC   NC317147  29.966  43.159   9.455
 6693POPC   PO417148  29.963  43.097   9.155
 6693POPC   GL117149  29.914  43.063   8.855
 6693POPC   GL217150  29.985  43.210   8.855
 6693POPC   C1A17151  29.895  43.064   8.555
 6693POPC   D2A17152  29.876  43.148   8.255
 6693POPC   C3A17153  29.873  43.140   7.955
 6693POPC   C4A17154  29.910  43.117   7.655
 6693POPC   C1B17155  30.091  43.187   8.555
 6693POPC   C2B17156  30.129  43.225   8.255
 6693POPC   C3B17157  30.111  43.220   7.955
 6693POPC   C4B17158  30.132  43.197   7.655
 6694POPC   NC317159  43.121   9.719   9.455
 6694POPC   PO417160  43.094   9.785   9.155
 6694POPC   GL117161  43.132   9.766   8.855
 6694POPC   GL217162  43.239   9.699   8.855
 6694POPC   C1A17163  43.135   9.754   8.555
 6694POPC   D2A17164  43.148   9.721   8.255
 6694POPC   C3A17165  43.087   9.711   7.955
 6694POPC   C4A17166  43.097   9.735   7.655
 6694POPC   C1B17167  43.306   9.571   8.555
 6694POPC   C2B17168  43.301   9.606   8.255
 6694POPC   C3B17169  43.291   9.548   7.955
 6694POPC   C4B17170  43.281   9.538   7.655
 6695POPC   NC317171   8.162  14.385   9.455
 6695POPC   PO417172   8.160  14.439   9.155
 6695POPC   GL117173   8.211  14.431   8.855
 6695POPC   GL217174   8.120  14.449   8.855
 6695POPC   C1A17175   8.236  14.385   8.555
 6695POPC   D2A17176   8.244  14.430   8.255
 6695POPC   C3A17177   8.188  14.378   7.955
 6695POPC   C4A17178   8.171  14.431   7.655
 6695POPC   C1B17179   8.016  14.618   8.555
 6695POPC   C2B17180   8.018  14.592   8.255
 6695POPC   C3B17181   8.017  14.575   7.955
 6695POPC   C4B17182   7.971  14.530   7.655
 6696POPC   NC317183  12.894  14.384   9.455
 6696POPC   PO417184  12.824  14.440   9.155
 6696POPC   GL117185  12.843  14.434   8.855
 6696POPC   GL217186  12.728  14.283   8.855
 6696POPC   C1A17187  12.852  14.442   8.555
 6696POPC   D2A17188  12.827  14.446   8.255
 6696POPC   C3A17189  12.894  14.425   7.955
 6696POPC   C4A17190  12.872  14.409   7.655
 6696POPC   C1B17191  12.643  14.214   8.555
 6696POPC   C2B17192  12.723  14.233   8.255
 6696POPC   C3B17193  12.671  14.201   7.955
 6696POPC   C4B17194  12.630  14.218   7.655
 6697POPC   NC317195  21.369   8.152   9.455
 6697POPC   PO417196  21.431   8.243   9.155
 6697POPC   GL117197  21.358   8.188   8.855
 6697POPC   GL217198  21.307   8.252   8.855
 6697POPC   C1A17199  21.409   8.243   8.555
 6697POPC   D2A17200  21.355   8.185   8.255
 6697POPC   C3A17201  21.416   8.168   7.955
 6697POPC   C4A17202  21.393   8.240   7.655
 6697POPC   C1B17203  21.140   8.295   8.555
 6697POPC   C2B17204  21.152   8.299   8.255
 6697POPC   C3B17205  21.186   8.327   7.955
 6697POPC   C4B17206  21.202   8.334   7.655
 6698POPC   NC317207  27.622  36.147   9.455
 6698POPC   PO417208  27.549  36.079   9.155
 6698POPC   GL117209  27.579  36.099   8.855
 6698POPC   GL217210  27.473  36.118   8.855
 6698POPC   C1A17211  27.568  36.085   8.555
 6698POPC   D2A17212  27.563  36.081   8.255
 6698POPC   C3A17213  27.612  36.140   7.955
 6698POPC   C4A17214  27.580  36.095   7.655
 6698POPC   C1B17215  27.308  36.137   8.555
 6698POPC   C2B17216  27.335  36.082   8.255
 6698POPC   C3B17217  27.346  36.130   7.955
 6698POPC   C4B17218  27.371  36.081   7.655
 6699POPC   NC317219  37.632  16.728   9.455
 6699POPC   PO417220  37.646  16.775   9.155
 6699POPC   GL117221  37.651  16.714   8.855
 6699POPC   GL217222  37.732  16.590   8.855
 6699POPC   C1A17223  37.653  16.749   8.555
 6699POPC   D2A17224  37.684  16.730   8.255
 6699POPC   C3A17225  37.649  16.721   7.955
 6699POPC   C4A17226  37.670  16.711   7.655
 6699POPC   C1B17227  37.720  16.457   8.555
 6699POPC   C2B17228  37.720  16.481   8.255
 6699POPC   C3B17229  37.808  16.492   7.955
 6699POPC   C4B17230  37.721  16.461   7.655
 6700POPC   NC317231   4.335   2.755   9.455
 6700POPC   PO417232   4.328   2.761   9.155
 6700POPC   GL117233   4.280   2.721   8.855
 6700POPC   GL217234   4.373   2.868   8.855
 6700POPC   C1A17235   4.342   2.763   8.555
 6700POPC   D2A17236   4.329   2.772   8.255
 6700POPC   C3A17237   4.268   2.767   7.955
 6700POPC   C4A17238   4.323   2.799   7.655
 6700POPC   C1B17239   4.455   2.957   8.555
 6700POPC   C2B17240   4.446   2.973   8.255
 6700POPC   C3B17241   4.485   2.944   7.955
 6700POPC   C4B17242   4.526   2.982   7.655
 6701POPC   NC317243   4.348  43.913   9.455
 6701POPC   PO417244   4.292  43.870   9.155
 6701POPC   GL117245   4.322  43.906   8.855
 6701POPC   GL217246   4.417  43.939   8.855
 6701POPC   C1A17247   4.278  43.893   8.555
 6701POPC   D2A17248   4.323  43.892   8.255
 6701POPC   C3A17249   4.304  43.853   7.955
 6701POPC   C4A17250   4.359  43.898   7.655
 6701POPC   C1B17251   4.577  44.052   8.555
 6701POPC   C2B17252   4.511  44.037   8.255
 6701POPC   C3B17253   4.551  44.039   7.955
 6701POPC   C4B17254   4.502  44.015   7.655
 6702POPC   NC317255  23.691   1.983   9.455
 6702POPC   PO417256  23.736   2.013   9.155
 6702POPC   GL117257  23.701   1.967   8.855
 6702POPC   GL217258  23.618   2.054   8.855
 6702POPC   C1A17259  23.679   1.957   8.555
 6702POPC   D2A17260  23.701   1.949   8.255
 6702POPC   C3A17261  23.706   1.967   7.955
 6702POPC   C4A17262  23.745   1.957   7.655
 6702POPC   C1B17263  23.556   2.154   8.555
 6702POPC   C2B17264  23.524   2.117   8.255
 6702POPC   C3B17265  23.487   2.167   7.955
 6702POPC   C4B17266  23.535   2.116   7.655
 6703POPC   NC317267  35.311   1.206   9.455
 6703POPC   PO417268  35.328   1.199   9.155
 6703POPC   GL117269  35.352   1.240   8.855
 6703POPC   GL217270  35.254   1.213   8.855
 6703POPC   C1A17271  35.359   1.257   8.555
 6703POPC   D2A17272  35.317   1.170   8.255
 6703POPC   C3A17273  35.366   1.168   7.955
 6703POPC   C4A17274  35.314   1.209   7.655
 6703POPC   C1B17275  35.145   1.137   8.555
 6703POPC   C2B17276  35.137   1.132   8.255
 6703POPC   C3B17277  35.066   1.105   7.955
 6703POPC   C4B17278  35.091   1.121   7.655
 6704POPC   NC317279  44.681   5.827   9.455
 6704POPC   PO417280  44.649   5.876   9.155
 6704POPC   GL117281  44.654   5.833   8.855
 6704POPC   GL217282  44.732   5.735   8.855
 6704POPC   C1A17283  44.633   5.904   8.555
 6704POPC   D2A17284  44.617   5.868   8.255
 6704POPC   C3A17285  44.683   5.917   7.955
 6704POPC   C4A17286  44.625   5.895   7.655
 6704POPC   C1B17287  44.816   5.641   8.555
 6704POPC   C2B17288  44.769   5.718   8.255
 6704POPC   C3B17289  44.831   5.694   7.955
 6704POPC   C4B17290  44.762   5.709   7.655
 6705POPC   NC317291  19.098  18.239   9.455
 6705POPC   PO417292  19.037  18.306   9.155
 6705POPC   GL117293  19.108  18.283   8.855
 6705POPC   GL217294  19.164  18.264   8.855
 6705POPC   C1A17295  19.039  18.264   8.555
 6705POPC   D2A17296  19.087  18.243   8.255
 6705POPC   C3A17297  19.031  18.328   7.955
 6705POPC   C4A17298  19.104  18.273   7.655
 6705POPC   C1B17299  19.292  18.189   8.555
 6705POPC   C2B17300  19.232  18.195   8.255
 6705POPC   C3B17301  19.272  18.187   7.955
 6705POPC   C4B17302  19.237  18.124   7.655
 6706POPC   NC317303  40.051  34.536   9.455
 6706POPC   PO417304  39.975  34.589   9.155
 6706POPC   GL117305  39.969  34.539   8.855
 6706POPC   GL217306  39.848  34.634   8.855
 6706POPC   C1A17307  39.979  34.594   8.555
 6706POPC   D2A17308  39.965  34.616   8.255
 6706POPC   C3A17309  40.036  34.624   7.955
 6706POPC   C4A17310  39.974  34.527   7.655
 6706POPC   C1B17311  39.714  34.594   8.555
 6706POPC   C2B17312  39.718  34.549   8.255
 6706POPC   C3B17313  39.797  34.625   7.955
 6706POPC   C4B17314  39.740  34.622   7.655
 6707POPC   NC317315   4.348  12.882   9.455
 6707POPC   PO417316   4.318  12.890   9.155
 6707POPC   GL117317   4.313  12.892   8.855
 6707POPC   GL217318   4.387  12.775   8.855
 6707POPC   C1A17319   4.322  12.832   8.555
 6707POPC   D2A17320   4.297  12.879   8.255
 6707POPC   C3A17321   4.366  12.848   7.955
 6707POPC   C4A17322   4.324  12.853   7.655
 6707POPC   C1B17323   4.550  12.676   8.555
 6707POPC   C2B17324   4.523  12.665   8.255
 6707POPC   C3B17325   4.533  12.711   7.955
 6707POPC   C4B17326   4.523  12.691   7.655
 6708POPC   NC317327  20.635  38.444   9.455
 6708POPC   PO417328  20.609  38.432   9.155
 6708POPC   GL117329  20.639  38.459   8.855
 6708POPC   GL217330  20.695  38.482   8.855
 6708POPC   C1A17331  20.652  38.470   8.555
 6708POPC   D2A17332  20.595  38.472   8.255
 6708POPC   C3A17333  20.637  38.467   7.955
 6708POPC   C4A17334  20.638  38.431   7.655
 6708POPC   C1B17335  20.835  38.436   8.555
 6708POPC   C2B17336  20.811  38.431   8.255
 6708POPC   C3B17337  20.861  38.379   7.955
 6708POPC   C4B17338  20.892  38.422   7.655
 6709POPC   NC317339  16.768   2.023   9.455
 6709POPC   PO417340  16.728   2.035   9.155
 6709POPC   GL117341  16.713   1.996   8.855
 6709POPC   GL217342  16.769   2.127   8.855
 6709POPC   C1A17343  16.711   2.003   8.555
 6709POPC   D2A17344  16.699   1.993   8.255
 6709POPC   C3A17345  16.726   1.959   7.955
 6709POPC   C4A17346  16.750   1.985   7.655
 6709POPC   C1B17347  16.882   2.164   8.555
 6709POPC   C2B17348  16.848   2.245   8.255
 6709POPC   C3B17349  16.846   2.160   7.955
 6709POPC   C4B17350  16.882   2.243   7.655
 6710POPC   NC317351  31.445  33.829   9.455
 6710POPC   PO417352  31.500  33.838   9.155
 6710POPC   GL117353  31.499  33.765   8.855
 6710POPC   GL217354  31.550  33.826   8.855
 6710POPC   C1A17355  31.500  33.783   8.555
 6710POPC   D2A17356  31.462  33.753   8.255
 6710POPC   C3A17357  31.521  33.838   7.955
 6710POPC   C4A17358  31.435  33.776   7.655
 6710POPC   C1B17359  31.653  33.944   8.555
 6710POPC   C2B17360  31.742  33.895   8.255
 6710POPC   C3B17361  31.723  33.958   7.955
 6710POPC   C4B17362  31.730  33.955   7.655
 6711POPC   NC317363  33.791   8.202   9.455
 6711POPC   PO417364  33.794   8.150   9.155
 6711POPC   GL117365  33.783   8.233   8.855
 6711POPC   GL217366  33.744   8.363   8.855
 6711POPC   C1A17367  33.750   8.246   8.555
 6711POPC   D2A17368  33.843   8.193   8.255
 6711POPC   C3A17369  33.790   8.181   7.955
 6711POPC   C4A17370  33.844   8.225   7.655
 6711POPC   C1B17371  33.790   8.474   8.555
 6711POPC   C2B17372  33.770   8.428   8.255
 6711POPC   C3B17373  33.771   8.415   7.955
 6711POPC   C4B17374  33.701   8.399   7.655
 6712POPC   NC317375  26.080  11.254   9.455
 6712POPC   PO417376  26.066  11.301   9.155
 6712POPC   GL117377  26.079  11.330   8.855
 6712POPC   GL217378  26.141  11.185   8.855
 6712POPC   C1A17379  26.018  11.281   8.555
 6712POPC   D2A17380  26.017  11.343   8.255
 6712POPC   C3A17381  26.043  11.285   7.955
 6712POPC   C4A17382  26.023  11.346   7.655
 6712POPC   C1B17383  26.180  11.068   8.555
 6712POPC   C2B17384  26.193  11.115   8.255
 6712POPC   C3B17385  26.233  11.093   7.955
 6712POPC   C4B17386  26.234  11.071   7.655
 6713POPC   NC317387  43.107  35.384   9.455
 6713POPC   PO417388  43.078  35.318   9.155
 6713POPC   GL117389  43.150  35.376   8.855
 6713POPC   GL217390  43.027  35.403   8.855
 6713POPC   C1A17391  43.147  35.353   8.555
 6713POPC   D2A17392  43.061  35.309   8.255
 6713POPC   C3A17393  43.062  35.331   7.955
 6713POPC   C4A17394  43.075  35.319   7.655
 6713POPC   C1B17395  42.889  35.434   8.555
 6713POPC   C2B17396  42.902  35.413   8.255
 6713POPC   C3B17397  42.879  35.428   7.955
 6713POPC   C4B17398  42.875  35.431   7.655
 6714POPC   NC317399  22.133  37.686   9.455
 6714POPC   PO417400  22.197  37.635   9.155
 6714POPC   GL117401  22.125  37.663   8.855
 6714POPC   GL217402  22.051  37.701   8.855
 6714POPC   C1A17403  22.117  37.692   8.555
 6714POPC   D2A17404  22.172  37.670   8.255
 6714POPC   C3A17405  22.114  37.704   7.955
 6714POPC   C4A17406  22.121  37.711   7.655
 6714POPC   C1B17407  21.940  37.735   8.555
 6714POPC   C2B17408  21.964  37.725   8.255
 6714POPC   C3B17409  21.889  37.744   7.955
 6714POPC   C4B17410  21.970  37.780   7.655
 6715POPC   NC317411  37.673  27.566   9.455
 6715POPC   PO417412  37.634  27.610   9.155
 6715POPC   GL117413  37.645  27.558   8.855
 6715POPC   GL217414  37.572  27.546   8.855
 6715POPC   C1A17415  37.715  27.623   8.555
 6715POPC   D2A17416  37.662  27.616   8.255
 6715POPC   C3A17417  37.704  27.634   7.955
 6715POPC   C4A17418  37.657  27.592   7.655
 6715POPC   C1B17419  37.498  27.483   8.555
 6715POPC   C2B17420  37.428  27.489   8.255
 6715POPC   C3B17421  37.447  27.455   7.955
 6715POPC   C4B17422  37.430  27.439   7.655
 6716POPC   NC317423  36.949  23.665   9.455
 6716POPC   PO417424  36.869  23.712   9.155
 6716POPC   GL117425  36.929  23.754   8.855
 6716POPC   GL217426  36.926  23.807   8.855
 6716POPC   C1A17427  36.897  23.746   8.555
 6716POPC   D2A17428  36.898  23.762   8.255
 6716POPC   C3A17429  36.894  23.698   7.955
 6716POPC   C4A17430  36.944  23.728   7.655
 6716POPC   C1B17431  37.017  23.892   8.555
 6716POPC   C2B17432  37.048  23.889   8.255
 6716POPC   C3B17433  37.015  23.948   7.955
 6716POPC   C4B17434  37.041  23.935   7.655
 6717POPC   NC317435  31.500  39.198   9.455
 6717POPC   PO417436  31.503  39.266   9.155
 6717POPC   GL117437  31.444  39.181   8.855
 6717POPC   GL217438  31.557  39.246   8.855
 6717POPC   C1A17439  31.426  39.242   8.555
 6717POPC   D2A17440  31.449  39.264   8.255
 6717POPC   C3A17441  31.510  39.250   7.955
 6717POPC   C4A17442  31.439  39.233   7.655
 6717POPC   C1B17443  31.647  39.386   8.555
 6717POPC   C2B17444  31.712  39.371   8.255
 6717POPC   C3B17445  31.718  39.309   7.955
 6717POPC   C4B17446  31.701  39.384   7.655
 6718POPC   NC317447  11.321  20.563   9.455
 6718POPC   PO417448  11.278  20.610   9.155
 6718POPC   GL117449  11.309  20.642   8.855
 6718POPC   GL217450  11.188  20.594   8.855
 6718POPC   C1A17451  11.298  20.648   8.555
 6718POPC   D2A17452  11.304  20.591   8.255
 6718POPC   C3A17453  11.313  20.589   7.955
 6718POPC   C4A17454  11.331  20.623   7.655
 6718POPC   C1B17455  11.054  20.509   8.555
 6718POPC   C2B17456  11.036  20.544   8.255
 6718POPC   C3B17457  11.047  20.508   7.955
 6718POPC   C4B17458  11.043  20.487   7.655
 6719POPC   NC317459  15.130   3.506   9.455
 6719POPC   PO417460  15.143   3.561   9.155
 6719POPC   GL117461  15.137   3.511   8.855
 6719POPC   GL217462  15.160   3.437   8.855
 6719POPC   C1A17463  15.132   3.545   8.555
 6719POPC   D2A17464  15.137   3.579   8.255
 6719POPC   C3A17465  15.186   3.571   7.955
 6719POPC   C4A17466  15.164   3.589   7.655
 6719POPC   C1B17467  15.203   3.320   8.555
 6719POPC   C2B17468  15.246   3.310   8.255
 6719POPC   C3B17469  15.282   3.335   7.955
 6719POPC   C4B17470  15.258   3.287   7.655
 6720POPC   NC317471  13.582  12.871   9.455
 6720POPC   PO417472  13.664  12.884   9.155
 6720POPC   GL117473  13.586  12.827   8.855
 6720POPC   GL217474  13.604  12.948   8.855
 6720POPC   C1A17475  13.617  12.833   8.555
 6720POPC   D2A17476  13.616  12.878   8.255
 6720POPC   C3A17477  13.582  12.833   7.955
 6720POPC   C4A17478  13.608  12.880   7.655
 6720POPC   C1B17479  13.704  13.102   8.555
 6720POPC   C2B17480  13.663  13.058   8.255
 6720POPC   C3B17481  13.651  13.065   7.955
 6720POPC   C4B17482  13.690  13.086   7.655
 6721POPC   NC317483  12.900  26.843   9.455
 6721POPC   PO417484  12.830  26.791   9.155
 6721POPC   GL117485  12.898  26.840   8.855
 6721POPC   GL217486  12.960  26.946   8.855
 6721POPC   C1A17487  12.891  26.837   8.555
 6721POPC   D2A17488  12.815  26.827   8.255
 6721POPC   C3A17489  12.899  26.822   7.955
 6721POPC   C4A17490  12.890  26.843   7.655
 6721POPC   C1B17491  12.997  27.037   8.555
 6721POPC   C2B17492  12.988  26.996   8.255
 6721POPC   C3B17493  12.993  27.066   7.955
 6721POPC   C4B17494  12.973  26.972   7.655
 6722POPC   NC317495  33.023  14.448   9.455
 6722POPC   PO417496  33.015  14.408   9.155
 6722POPC   GL117497  33.062  14.366   8.855
 6722POPC   GL217498  33.133  14.334   8.855
 6722POPC   C1A17499  33.018  14.368   8.555
 6722POPC   D2A17500  33.012  14.373   8.255
 6722POPC   C3A17501  32.979  14.403   7.955
 6722POPC   C4A17502  33.022  14.392   7.655
 6722POPC   C1B17503  33.200  14.207   8.555
 6722POPC   C2B17504  33.162  14.218   8.255
 6722POPC   C3B17505  33.208  14.193   7.955
 6722POPC   C4B17506  33.163  14.234   7.655
 6723POPC   NC317507  39.216  22.959   9.455
 6723POPC   PO417508  39.247  22.969   9.155
 6723POPC   GL117509  39.225  22.944   8.855
 6723POPC   GL217510  39.351  22.897   8.855
 6723POPC   C1A17511  39.182  22.938   8.555
 6723POPC   D2A17512  39.198  22.938   8.255
 6723POPC   C3A17513  39.185  22.927   7.955
 6723POPC   C4A17514  39.201  22.901   7.655
 6723POPC   C1B17515  39.460  22.770   8.555
 6723POPC   C2B17516  39.412  22.828   8.255
 6723POPC   C3B17517  39.431  22.795   7.955
 6723POPC   C4B17518  39.422  22.852   7.655
 6724POPC   NC317519  12.119  30.678   9.455
 6724POPC   PO417520  12.106  30.733   9.155
 6724POPC   GL117521  12.068  30.688   8.855
 6724POPC   GL217522  12.165  30.643   8.855
 6724POPC   C1A17523  12.039  30.662   8.555
 6724POPC   D2A17524  12.122  30.723   8.255
 6724POPC   C3A17525  12.077  30.742   7.955
 6724POPC   C4A17526  12.101  30.743   7.655
 6724POPC   C1B17527  12.363  30.617   8.555
 6724POPC   C2B17528  12.286  30.605   8.255
 6724POPC   C3B17529  12.316  30.643   7.955
 6724POPC   C4B17530  12.342  30.598   7.655
 6725POPC   NC317531   0.486   9.789   9.455
 6725POPC   PO417532   0.453   9.727   9.155
 6725POPC   GL117533   0.465   9.798   8.855
 6725POPC   GL217534   0.272   9.777   8.855
 6725POPC   C1A17535   0.481   9.726   8.555
 6725POPC   D2A17536   0.453   9.745   8.255
 6725POPC   C3A17537   0.408   9.727   7.955
 6725POPC   C4A17538   0.484   9.750   7.655
 6725POPC   C1B17539   0.208   9.798   8.555
 6725POPC   C2B17540   0.208   9.876   8.255
 6725POPC   C3B17541   0.213   9.864   7.955
 6725POPC   C4B17542   0.235   9.855   7.655
 6726POPC   NC317543  39.245  26.799   9.455
 6726POPC   PO417544  39.228  26.835   9.155
 6726POPC   GL117545  39.261  26.786   8.855
 6726POPC   GL217546  39.096  26.820   8.855
 6726POPC   C1A17547  39.277  26.802   8.555
 6726POPC   D2A17548  39.264  26.866   8.255
 6726POPC   C3A17549  39.218  26.811   7.955
 6726POPC   C4A17550  39.191  26.789   7.655
 6726POPC   C1B17551  39.034  26.859   8.555
 6726POPC   C2B17552  39.013  26.893   8.255
 6726POPC   C3B17553  38.962  26.948   7.955
 6726POPC   C4B17554  39.035  26.859   7.655
 6727POPC   NC317555  22.951  26.000   9.455
 6727POPC   PO417556  22.980  26.046   9.155
 6727POPC   GL117557  22.894  26.048   8.855
 6727POPC   GL217558  22.924  25.929   8.855
 6727POPC   C1A17559  22.938  26.040   8.555
 6727POPC   D2A17560  22.954  26.046   8.255
 6727POPC   C3A17561  22.945  26.064   7.955
 6727POPC   C4A17562  22.950  26.029   7.655
 6727POPC   C1B17563  22.918  25.786   8.555
 6727POPC   C2B17564  22.986  25.790   8.255
 6727POPC   C3B17565  22.980  25.812   7.955
 6727POPC   C4B17566  22.928  25.796   7.655
 6728POPC   NC317567   4.365  26.797   9.455
 6728POPC   PO417568   4.346  26.781   9.155
 6728POPC   GL117569   4.356  26.815   8.855
 6728POPC   GL217570   4.349  26.693   8.855
 6728POPC   C1A17571   4.290  26.803   8.555
 6728POPC   D2A17572   4.319  26.797   8.255
 6728POPC   C3A17573   4.280  26.833   7.955
 6728POPC   C4A17574   4.298  26.836   7.655
 6728POPC   C1B17575   4.413  26.646   8.555
 6728POPC   C2B17576   4.469  26.585   8.255
 6728POPC   C3B17577   4.430  26.563   7.955
 6728POPC   C4B17578   4.430  26.563   7.655
 6729POPC   NC317579  26.083  16.771   9.455
 6729POPC   PO417580  26.050  16.712   9.155
 6729POPC   GL117581  26.086  16.706   8.855
 6729POPC   GL217582  25.943  16.724   8.855
 6729POPC   C1A17583  26.014  16.743   8.555
 6729POPC   D2A17584  26.046  16.767   8.255
 6729POPC   C3A17585  26.002  16.718   7.955
 6729POPC   C4A17586  26.081  16.738   7.655
 6729POPC   C1B17587  25.753  16.712   8.555
 6729POPC   C2B17588  25.753  16.725   8.255
 6729POPC   C3B17589  25.743  16.736   7.955
 6729POPC   C4B17590  25.828  16.781   7.655
 6730POPC   NC317591  15.983  40.031   9.455
 6730POPC   PO417592  15.944  40.047   9.155
 6730POPC   GL117593  15.976  39.979   8.855
 6730POPC   GL217594  16.072  40.025   8.855
 6730POPC   C1A17595  15.979  39.992   8.555
 6730POPC   D2A17596  15.967  40.003   8.255
 6730POPC   C3A17597  15.945  40.053   7.955
 6730POPC   C4A17598  15.948  40.004   7.655
 6730POPC   C1B17599  16.143  40.066   8.555
 6730POPC   C2B17600  16.154  40.082   8.255
 6730POPC   C3B17601  16.220  40.103   7.955
 6730POPC   C4B17602  16.200  40.119   7.655
 6731POPC   NC317603   6.677  34.551   9.455
 6731POPC   PO417604   6.649  34.568   9.155
 6731POPC   GL117605   6.606  34.533   8.855
 6731POPC   GL217606   6.721  34.692   8.855
 6731POPC   C1A17607   6.677  34.610   8.555
 6731POPC   D2A17608   6.666  34.576   8.255
 6731POPC   C3A17609   6.662  34.607   7.955
 6731POPC   C4A17610   6.695  34.570   7.655
 6731POPC   C1B17611   6.846  34.750   8.555
 6731POPC   C2B17612   6.820  34.725   8.255
 6731POPC   C3B17613   6.807  34.775   7.955
 6731POPC   C4B17614   6.818  34.750   7.655
 6732POPC   NC317615   6.683  40.797   9.455
 6732POPC   PO417616   6.641  40.819   9.155
 6732POPC   GL117617   6.692  40.776   8.855
 6732POPC   GL217618   6.528  40.706   8.855
 6732POPC   C1A17619   6.605  40.822   8.555
 6732POPC   D2A17620   6.649  40.785   8.255
 6732POPC   C3A17621   6.679  40.786   7.955
 6732POPC   C4A17622   6.681  40.734   7.655
 6732POPC   C1B17623   6.439  40.573   8.555
 6732POPC   C2B17624   6.496  40.558   8.255
 6732POPC   C3B17625   6.461  40.626   7.955
 6732POPC   C4B17626   6.521  40.590   7.655
 6733POPC   NC317627  36.134  13.585   9.455
 6733POPC   PO417628  36.078  13.595   9.155
 6733POPC   GL117629  36.165  13.671   8.855
 6733POPC   GL217630  36.120  13.489   8.855
 6733POPC   C1A17631  36.082  13.624   8.555
 6733POPC   D2A17632  36.102  13.619   8.255
 6733POPC   C3A17633  36.117  13.587   7.955
 6733POPC   C4A17634  36.123  13.674   7.655
 6733POPC   C1B17635  36.214  13.337   8.555
 6733POPC   C2B17636  36.195  13.417   8.255
 6733POPC   C3B17637  36.136  13.366   7.955
 6733POPC   C4B17638  36.180  13.364   7.655
 6734POPC   NC317639  14.408  11.282   9.455
 6734POPC   PO417640  14.439  11.322   9.155
 6734POPC   GL117641  14.451  11.349   8.855
 6734POPC   GL217642  14.305  11.195   8.855
 6734POPC   C1A17643  14.451  11.273   8.555
 6734POPC   D2A17644  14.438  11.260   8.255
 6734POPC   C3A17645  14.439  11.297   7.955
 6734POPC   C4A17646  14.398  11.281   7.655
 6734POPC   C1B17647  14.186  11.087   8.555
 6734POPC   C2B17648  14.250  11.121   8.255
 6734POPC   C3B17649  14.196  11.166   7.955
 6734POPC   C4B17650  14.249  11.176   7.655
 6735POPC   NC317651   7.400  40.786   9.455
 6735POPC   PO417652   7.442  40.773   9.155
 6735POPC   GL117653   7.386  40.749   8.855
 6735POPC   GL217654   7.323  40.757   8.855
 6735POPC   C1A17655   7.393  40.804   8.555
 6735POPC   D2A17656   7.440  40.748   8.255
 6735POPC   C3A17657   7.403  40.771   7.955
 6735POPC   C4A17658   7.386  40.758   7.655
 6735POPC   C1B17659   7.194  40.633   8.555
 6735POPC   C2B17660   7.206  40.651   8.255
 6735POPC   C3B17661   7.230  40.679   7.955
 6735POPC   C4B17662   7.241  40.615   7.655
 6736POPC   NC317663  43.889  34.614   9.455
 6736POPC   PO417664  43.883  34.564   9.155
 6736POPC   GL117665  43.845  34.548   8.855
 6736POPC   GL217666  43.832  34.423   8.855
 6736POPC   C1A17667  43.898  34.566   8.555
 6736POPC   D2A17668  43.932  34.604   8.255
 6736POPC   C3A17669  43.931  34.573   7.955
 6736POPC   C4A17670  43.856  34.618   7.655
 6736POPC   C1B17671  43.874  34.358   8.555
 6736POPC   C2B17672  43.827  34.314   8.255
 6736POPC   C3B17673  43.868  34.373   7.955
 6736POPC   C4B17674  43.872  34.306   7.655
 6737POPC   NC317675  15.959  17.503   9.455
 6737POPC   PO417676  15.985  17.519   9.155
 6737POPC   GL117677  15.959  17.514   8.855
 6737POPC   GL217678  16.040  17.488   8.855
 6737POPC   C1A17679  15.916  17.480   8.555
 6737POPC   D2A17680  15.942  17.457   8.255
 6737POPC   C3A17681  15.942  17.486   7.955
 6737POPC   C4A17682  15.910  17.480   7.655
 6737POPC   C1B17683  16.218  17.494   8.555
 6737POPC   C2B17684  16.214  17.555   8.255
 6737POPC   C3B17685  16.163  17.554   7.955
 6737POPC   C4B17686  16.245  17.552   7.655
 6738POPC   NC317687   9.716   6.694   9.455
 6738POPC   PO417688   9.776   6.600   9.155
 6738POPC   GL117689   9.706   6.661   8.855
 6738POPC   GL217690   9.884   6.707   8.855
 6738POPC   C1A17691   9.722   6.693   8.555
 6738POPC   D2A17692   9.769   6.663   8.255
 6738POPC   C3A17693   9.711   6.602   7.955
 6738POPC   C4A17694   9.794   6.679   7.655
 6738POPC   C1B17695  10.004   6.742   8.555
 6738POPC   C2B17696   9.969   6.817   8.255
 6738POPC   C3B17697   9.988   6.745   7.955
 6738POPC   C4B17698   9.968   6.768   7.655
 6739POPC   NC317699   8.989  43.107   9.455
 6739POPC   PO417700   8.927  43.147   9.155
 6739POPC   GL117701   9.008  43.095   8.855
 6739POPC   GL217702   8.863  43.157   8.855
 6739POPC   C1A17703   8.972  43.137   8.555
 6739POPC   D2A17704   8.986  43.128   8.255
 6739POPC   C3A17705   8.993  43.120   7.955
 6739POPC   C4A17706   8.965  43.085   7.655
 6739POPC   C1B17707   8.738  43.314   8.555
 6739POPC   C2B17708   8.770  43.249   8.255
 6739POPC   C3B17709   8.793  43.259   7.955
 6739POPC   C4B17710   8.785  43.271   7.655
 6740POPC   NC317711  18.261  15.946   9.455
 6740POPC   PO417712  18.277  15.927   9.155
 6740POPC   GL117713  18.316  15.920   8.855
 6740POPC   GL217714  18.427  16.018   8.855
 6740POPC   C1A17715  18.315  15.959   8.555
 6740POPC   D2A17716  18.308  15.981   8.255
 6740POPC   C3A17717  18.269  15.984   7.955
 6740POPC   C4A17718  18.276  15.908   7.655
 6740POPC   C1B17719  18.479  16.006   8.555
 6740POPC   C2B17720  18.541  16.040   8.255
 6740POPC   C3B17721  18.533  16.013   7.955
 6740POPC   C4B17722  18.537  16.003   7.655
 6741POPC   NC317723  19.838  40.025   9.455
 6741POPC   PO417724  19.811  40.044   9.155
 6741POPC   GL117725  19.877  40.020   8.855
 6741POPC   GL217726  19.995  40.030   8.855
 6741POPC   C1A17727  19.848  39.993   8.555
 6741POPC   D2A17728  19.795  39.969   8.255
 6741POPC   C3A17729  19.874  40.004   7.955
 6741POPC   C4A17730  19.808  40.007   7.655
 6741POPC   C1B17731  20.069  39.910   8.555
 6741POPC   C2B17732  20.129  39.955   8.255
 6741POPC   C3B17733  20.112  39.970   7.955
 6741POPC   C4B17734  20.097  39.953   7.655
 6742POPC   NC317735   2.801  23.747   9.455
 6742POPC   PO417736   2.790  23.732   9.155
 6742POPC   GL117737   2.737  23.684   8.855
 6742POPC   GL217738   2.813  23.613   8.855
 6742POPC   C1A17739   2.766  23.680   8.555
 6742POPC   D2A17740   2.807  23.702   8.255
 6742POPC   C3A17741   2.732  23.741   7.955
 6742POPC   C4A17742   2.758  23.668   7.655
 6742POPC   C1B17743   2.784  23.458   8.555
 6742POPC   C2B17744   2.792  23.463   8.255
 6742POPC   C3B17745   2.860  23.522   7.955
 6742POPC   C4B17746   2.881  23.476   7.655
 6743POPC   NC317747  35.305  43.878   9.455
 6743POPC   PO417748  35.339  43.843   9.155
 6743POPC   GL117749  35.379  43.934   8.855
 6743POPC   GL217750  35.272  43.938   8.855
 6743POPC   C1A17751  35.397  43.878   8.555
 6743POPC   D2A17752  35.388  43.934   8.255
 6743POPC   C3A17753  35.366  43.906   7.955
 6743POPC   C4A17754  35.374  43.871   7.655
 6743POPC   C1B17755  35.155  44.103   8.555
 6743POPC   C2B17756  35.180  44.116   8.255
 6743POPC   C3B17757  35.250  44.127   7.955
 6743POPC   C4B17758  35.247  44.132   7.655
 6744POPC   NC317759  42.334  17.529   9.455
 6744POPC   PO417760  42.292  17.545   9.155
 6744POPC   GL117761  42.333  17.510   8.855
 6744POPC   GL217762  42.427  17.469   8.855
 6744POPC   C1A17763  42.346  17.547   8.555
 6744POPC   D2A17764  42.381  17.547   8.255
 6744POPC   C3A17765  42.367  17.511   7.955
 6744POPC   C4A17766  42.291  17.537   7.655
 6744POPC   C1B17767  42.561  17.514   8.555
 6744POPC   C2B17768  42.538  17.471   8.255
 6744POPC   C3B17769  42.538  17.546   7.955
 6744POPC   C4B17770  42.568  17.555   7.655
 6745POPC   NC317771  25.254  43.152   9.455
 6745POPC   PO417772  25.235  43.132   9.155
 6745POPC   GL117773  25.270  43.133   8.855
 6745POPC   GL217774  25.286  43.257   8.855
 6745POPC   C1A17775  25.234  43.091   8.555
 6745POPC   D2A17776  25.291  43.157   8.255
 6745POPC   C3A17777  25.222  43.137   7.955
 6745POPC   C4A17778  25.218  43.083   7.655
 6745POPC   C1B17779  25.200  43.349   8.555
 6745POPC   C2B17780  25.264  43.349   8.255
 6745POPC   C3B17781  25.238  43.396   7.955
 6745POPC   C4B17782  25.216  43.333   7.655
 6746POPC   NC317783  41.533   8.211   9.455
 6746POPC   PO417784  41.533   8.193   9.155
 6746POPC   GL117785  41.573   8.192   8.855
 6746POPC   GL217786  41.438   8.265   8.855
 6746POPC   C1A17787  41.528   8.236   8.555
 6746POPC   D2A17788  41.578   8.190   8.255
 6746POPC   C3A17789  41.534   8.174   7.955
 6746POPC   C4A17790  41.534   8.208   7.655
 6746POPC   C1B17791  41.403   8.393   8.555
 6746POPC   C2B17792  41.385   8.396   8.255
 6746POPC   C3B17793  41.394   8.376   7.955
 6746POPC   C4B17794  41.376   8.362   7.655
 6747POPC   NC317795  29.927  42.379   9.455
 6747POPC   PO417796  29.888  42.334   9.155
 6747POPC   GL117797  29.873  42.313   8.855
 6747POPC   GL217798  30.018  42.267   8.855
 6747POPC   C1A17799  29.932  42.305   8.555
 6747POPC   D2A17800  29.891  42.342   8.255
 6747POPC   C3A17801  29.939  42.339   7.955
 6747POPC   C4A17802  29.950  42.318   7.655
 6747POPC   C1B17803  30.034  42.136   8.555
 6747POPC   C2B17804  30.079  42.105   8.255
 6747POPC   C3B17805  30.105  42.103   7.955
 6747POPC   C4B17806  30.063  42.160   7.655
 6748POPC   NC317807   9.797   5.863   9.455
 6748POPC   PO417808   9.721   5.892   9.155
 6748POPC   GL117809   9.763   5.860   8.855
 6748POPC   GL217810   9.745   5.989   8.855
 6748POPC   C1A17811   9.747   5.833   8.555
 6748POPC   D2A17812   9.706   5.915   8.255
 6748POPC   C3A17813   9.790   5.864   7.955
 6748POPC   C4A17814   9.786   5.856   7.655
 6748POPC   C1B17815   9.794   6.141   8.555
 6748POPC   C2B17816   9.860   6.126   8.255
 6748POPC   C3B17817   9.806   6.113   7.955
 6748POPC   C4B17818   9.838   6.110   7.655
 6749POPC   NC317819  42.304  36.092   9.455
 6749POPC   PO417820  42.383  36.124   9.155
 6749POPC   GL117821  42.367  36.166   8.855
 6749POPC   GL217822  42.332  35.972   8.855
 6749POPC   C1A17823  42.365  36.174   8.555
 6749POPC   D2A17824  42.324  36.090   8.255
 6749POPC   C3A17825  42.289  36.149   7.955
 6749POPC   C4A17826  42.360  36.114   7.655
 6749POPC   C1B17827  42.371  35.925   8.555
 6749POPC   C2B17828  42.336  35.850   8.255
 6749POPC   C3B17829  42.311  35.874   7.955
 6749POPC   C4B17830  42.324  35.839   7.655
 6750POPC   NC317831  16.722   6.667   9.455
 6750POPC   PO417832  16.704   6.629   9.155
 6750POPC   GL117833  16.753   6.665   8.855
 6750POPC   GL217834  16.591   6.604   8.855
 6750POPC   C1A17835  16.742   6.690   8.555
 6750POPC   D2A17836  16.748   6.616   8.255
 6750POPC   C3A17837  16.769   6.646   7.955
 6750POPC   C4A17838  16.728   6.622   7.655
 6750POPC   C1B17839  16.489   6.496   8.555
 6750POPC   C2B17840  16.483   6.535   8.255
 6750POPC   C3B17841  16.562   6.507   7.955
 6750POPC   C4B17842  16.508   6.475   7.655
 6751POPC   NC317843  28.370  19.850   9.455
 6751POPC   PO417844  28.410  19.787   9.155
 6751POPC   GL117845  28.356  19.882   8.855
 6751POPC   GL217846  28.508  19.778   8.855
 6751POPC   C1A17847  28.339  19.828   8.555
 6751POPC   D2A17848  28.373  19.810   8.255
 6751POPC   C3A17849  28.404  19.803   7.955
 6751POPC   C4A17850  28.416  19.825   7.655
 6751POPC   C1B17851  28.582  19.719   8.555
 6751POPC   C2B17852  28.544  19.707   8.255
 6751POPC   C3B17853  28.595  19.738   7.955
 6751POPC   C4B17854  28.598  19.657   7.655
 6752POPC   NC317855  28.348  25.274   9.455
 6752POPC   PO417856  28.331  25.303   9.155
 6752POPC   GL117857  28.388  25.306   8.855
 6752POPC   GL217858  28.325  25.146   8.855
 6752POPC   C1A17859  28.403  25.262   8.555
 6752POPC   D2A17860  28.380  25.287   8.255
 6752POPC   C3A17861  28.322  25.292   7.955
 6752POPC   C4A17862  28.364  25.284   7.655
 6752POPC   C1B17863  28.166  25.060   8.555
 6752POPC   C2B17864  28.214  25.101   8.255
 6752POPC   C3B17865  28.162  25.076   7.955
 6752POPC   C4B17866  28.252  25.056   7.655
 6753POPC   NC317867  17.506  30.697   9.455
 6753POPC   PO417868  17.534  30.724   9.155
 6753POPC   GL117869  17.556  30.692   8.855
 6753POPC   GL217870  17.578  30.749   8.855
 6753POPC   C1A17871  17.517  30.706   8.555
 6753POPC   D2A17872  17.520  30.680   8.255
 6753POPC   C3A17873  17.507  30.738   7.955
 6753POPC   C4A17874  17.543  30.742   7.655
 6753POPC   C1B17875  17.741  30.819   8.555
 6753POPC   C2B17876  17.691  30.807   8.255
 6753POPC   C3B17877  17.673  30.815   7.955
 6753POPC   C4B17878  17.744  30.845   7.655
 6754POPC   NC317879  13.600  25.216   9.455
 6754POPC   PO417880  13.636  25.314   9.155
 6754POPC   GL117881  13.670  25.302   8.855
 6754POPC   GL217882  13.474  25.241   8.855
 6754POPC   C1A17883  13.594  25.272   8.555
 6754POPC   D2A17884  13.622  25.296   8.255
 6754POPC   C3A17885  13.578  25.306   7.955
 6754POPC   C4A17886  13.616  25.263   7.655
 6754POPC   C1B17887  13.366  25.126   8.555
 6754POPC   C2B17888  13.452  25.148   8.255
 6754POPC   C3B17889  13.399  25.191   7.955
 6754POPC   C4B17890  13.418  25.136   7.655
 6755POPC   NC317891  37.668  36.903   9.455
 6755POPC   PO417892  37.648  36.917   9.155
 6755POPC   GL117893  37.662  36.904   8.855
 6755POPC   GL217894  37.735  37.053   8.855
 6755POPC   C1A17895  37.665  36.952   8.555
 6755POPC   D2A17896  37.699  36.945   8.255
 6755POPC   C3A17897  37.675  36.882   7.955
 6755POPC   C4A17898  37.631  36.883   7.655
 6755POPC   C1B17899  37.831  37.105   8.555
 6755POPC   C2B17900  37.768  37.110   8.255
 6755POPC   C3B17901  37.760  37.125   7.955
 6755POPC   C4B17902  37.767  37.082   7.655
 6756POPC   NC317903  36.147  39.256   9.455
 6756POPC   PO417904  36.157  39.210   9.155
 6756POPC   GL117905  36.083  39.272   8.855
 6756POPC   GL217906  36.118  39.309   8.855
 6756POPC   C1A17907  36.086  39.269   8.555
 6756POPC   D2A17908  36.143  39.208   8.255
 6756POPC   C3A17909  36.110  39.216   7.955
 6756POPC   C4A17910  36.154  39.183   7.655
 6756POPC   C1B17911  36.145  39.450   8.555
 6756POPC   C2B17912  36.139  39.523   8.255
 6756POPC   C3B17913  36.141  39.478   7.955
 6756POPC   C4B17914  36.172  39.431   7.655
 6757POPC   NC317915  39.244  19.851   9.455
 6757POPC   PO417916  39.269  19.810   9.155
 6757POPC   GL117917  39.249  19.866   8.855
 6757POPC   GL217918  39.188  20.003   8.855
 6757POPC   C1A17919  39.225  19.785   8.555
 6757POPC   D2A17920  39.186  19.860   8.255
 6757POPC   C3A17921  39.189  19.857   7.955
 6757POPC   C4A17922  39.204  19.789   7.655
 6757POPC   C1B17923  39.183  20.028   8.555
 6757POPC   C2B17924  39.170  20.073   8.255
 6757POPC   C3B17925  39.197  20.053   7.955
 6757POPC   C4B17926  39.201  20.045   7.655
 6758POPC   NC317927  27.621  32.265   9.455
 6758POPC   PO417928  27.630  32.277   9.155
 6758POPC   GL117929  27.633  32.293   8.855
 6758POPC   GL217930  27.465  32.178   8.855
 6758POPC   C1A17931  27.571  32.206   8.555
 6758POPC   D2A17932  27.608  32.221   8.255
 6758POPC   C3A17933  27.580  32.241   7.955
 6758POPC   C4A17934  27.548  32.297   7.655
 6758POPC   C1B17935  27.341  32.090   8.555
 6758POPC   C2B17936  27.353  32.100   8.255
 6758POPC   C3B17937  27.338  32.110   7.955
 6758POPC   C4B17938  27.399  32.153   7.655
 6759POPC   NC317939   1.207  12.825   9.455
 6759POPC   PO417940   1.258  12.889   9.155
 6759POPC   GL117941   1.231  12.819   8.855
 6759POPC   GL217942   1.189  12.985   8.855
 6759POPC   C1A17943   1.257  12.852   8.555
 6759POPC   D2A17944   1.264  12.811   8.255
 6759POPC   C3A17945   1.232  12.856   7.955
 6759POPC   C4A17946   1.250  12.882   7.655
 6759POPC   C1B17947   1.051  13.045   8.555
 6759POPC   C2B17948   1.034  13.020   8.255
 6759POPC   C3B17949   1.120  13.055   7.955
 6759POPC   C4B17950   1.061  13.060   7.655
 6760POPC   NC317951  22.936  37.717   9.455
 6760POPC   PO417952  22.978  37.644   9.155
 6760POPC   GL117953  22.937  37.661   8.855
 6760POPC   GL217954  23.026  37.792   8.855
 6760POPC   C1A17955  22.894  37.707   8.555
 6760POPC   D2A17956  22.918  37.699   8.255
 6760POPC   C3A17957  22.932  37.634   7.955
 6760POPC   C4A17958  22.893  37.719   7.655
 6760POPC   C1B17959  23.116  37.782   8.555
 6760POPC   C2B17960  23.183  37.836   8.255
 6760POPC   C3B17961  23.203  37.847   7.955
 6760POPC   C4B17962  23.128  37.812   7.655
 6761POPC   NC317963  20.621  15.166   9.455
 6761POPC   PO417964  20.625  15.175   9.155
 6761POPC   GL117965  20.618  15.157   8.855
 6761POPC   GL217966  20.519  15.275   8.855
 6761POPC   C1A17967  20.579  15.181   8.555
 6761POPC   D2A17968  20.563  15.215   8.255
 6761POPC   C3A17969  20.651  15.179   7.955
 6761POPC   C4A17970  20.641  15.140   7.655
 6761POPC   C1B17971  20.451  15.375   8.555
 6761POPC   C2B17972  20.472  15.401   8.255
 6761POPC   C3B17973  20.421  15.375   7.955
 6761POPC   C4B17974  20.445  15.413   7.655
 6762POPC   NC317975  19.810  10.571   9.455
 6762POPC   PO417976  19.875  10.495   9.155
 6762POPC   GL117977  19.790  10.494   8.855
 6762POPC   GL217978  19.829  10.399   8.855
 6762POPC   C1A17979  19.869  10.488   8.555
 6762POPC   D2A17980  19.828  10.545   8.255
 6762POPC   C3A17981  19.836  10.476   7.955
 6762POPC   C4A17982  19.830  10.523   7.655
 6762POPC   C1B17983  19.743  10.295   8.555
 6762POPC   C2B17984  19.791  10.279   8.255
 6762POPC   C3B17985  19.766  10.273   7.955
 6762POPC   C4B17986  19.763  10.329   7.655
 6763POPC   NC317987  31.519  43.909   9.455
 6763POPC   PO417988  31.491  43.935   9.155
 6763POPC   GL117989  31.464  43.916   8.855
 6763POPC   GL217990  31.471  43.783   8.855
 6763POPC   C1A17991  31.478  43.898   8.555
 6763POPC   D2A17992  31.492  43.891   8.255
 6763POPC   C3A17993  31.478  43.869   7.955
 6763POPC   C4A17994  31.462  43.861   7.655
 6763POPC   C1B17995  31.585  43.625   8.555
 6763POPC   C2B17996  31.548  43.682   8.255
 6763POPC   C3B17997  31.533  43.693   7.955
 6763POPC   C4B17998  31.573  43.685   7.655
 6764POPC   NC317999  17.467  35.359   9.455
 6764POPC   PO418000  17.465  35.392   9.155
 6764POPC   GL118001  17.531  35.400   8.855
 6764POPC   GL218002  17.468  35.448   8.855
 6764POPC   C1A18003  17.513  35.352   8.555
 6764POPC   D2A18004  17.474  35.393   8.255
 6764POPC   C3A18005  17.479  35.364   7.955
 6764POPC   C4A18006  17.470  35.331   7.655
 6764POPC   C1B18007  17.394  35.556   8.555
 6764POPC   C2B18008  17.459  35.591   8.255
 6764POPC   C3B18009  17.425  35.594   7.955
 6764POPC   C4B18010  17.389  35.548   7.655
 6765POPC   NC318011  14.414  17.514   9.455
 6765POPC   PO418012  14.362  17.542   9.155
 6765POPC   GL118013  14.388  17.519   8.855
 6765POPC   GL218014  14.565  17.552   8.855
 6765POPC   C1A18015  14.445  17.471   8.555
 6765POPC   D2A18016  14.387  17.464   8.255
 6765POPC   C3A18017  14.425  17.489   7.955
 6765POPC   C4A18018  14.385  17.509   7.655
 6765POPC   C1B18019  14.663  17.585   8.555
 6765POPC   C2B18020  14.633  17.591   8.255
 6765POPC   C3B18021  14.649  17.610   7.955
 6765POPC   C4B18022  14.632  17.590   7.655
 6766POPC   NC318023  25.237  24.446   9.455
 6766POPC   PO418024  25.258  24.521   9.155
 6766POPC   GL118025  25.216  24.513   8.855
 6766POPC   GL218026  25.189  24.555   8.855
 6766POPC   C1A18027  25.235  24.530   8.555
 6766POPC   D2A18028  25.249  24.518   8.255
 6766POPC   C3A18029  25.240  24.475   7.955
 6766POPC   C4A18030  25.232  24.522   7.655
 6766POPC   C1B18031  25.031  24.577   8.555
 6766POPC   C2B18032  25.106  24.612   8.255
 6766POPC   C3B18033  25.051  24.673   7.955
 6766POPC   C4B18034  25.018  24.652   7.655
 6767POPC   NC318035  32.230  24.471   9.455
 6767POPC   PO418036  32.279  24.465   9.155
 6767POPC   GL118037  32.276  24.519   8.855
 6767POPC   GL218038  32.342  24.559   8.855
 6767POPC   C1A18039  32.269  24.498   8.555
 6767POPC   D2A18040  32.290  24.451   8.255
 6767POPC   C3A18041  32.286  24.464   7.955
 6767POPC   C4A18042  32.294  24.538   7.655
 6767POPC   C1B18043  32.504  24.588   8.555
 6767POPC   C2B18044  32.489  24.496   8.255
 6767POPC   C3B18045  32.486  24.535   7.955
 6767POPC   C4B18046  32.489  24.568   7.655
 6768POPC   NC318047   6.644   7.392   9.455
 6768POPC   PO418048   6.694   7.469   9.155
 6768POPC   GL118049   6.660   7.387   8.855
 6768POPC   GL218050   6.568   7.482   8.855
 6768POPC   C1A18051   6.682   7.419   8.555
 6768POPC   D2A18052   6.666   7.390   8.255
 6768POPC   C3A18053   6.663   7.380   7.955
 6768POPC   C4A18054   6.606   7.409   7.655
 6768POPC   C1B18055   6.440   7.526   8.555
 6768POPC   C2B18056   6.402   7.561   8.255
 6768POPC   C3B18057   6.460   7.528   7.955
 6768POPC   C4B18058   6.433   7.584   7.655
 6769POPC   NC318059  12.070  40.019   9.455
 6769POPC   PO418060  12.086  40.006   9.155
 6769POPC   GL118061  12.079  40.015   8.855
 6769POPC   GL218062  12.087  40.138   8.855
 6769POPC   C1A18063  12.046  39.980   8.555
 6769POPC   D2A18064  12.100  40.018   8.255
 6769POPC   C3A18065  12.031  39.981   7.955
 6769POPC   C4A18066  12.046  40.028   7.655
 6769POPC   C1B18067  12.146  40.284   8.555
 6769POPC   C2B18068  12.087  40.247   8.255
 6769POPC   C3B18069  12.165  40.296   7.955
 6769POPC   C4B18070  12.136  40.235   7.655
 6770POPC   NC318071   5.048  15.985   9.455
 6770POPC   PO418072   5.092  15.921   9.155
 6770POPC   GL118073   5.085  15.997   8.855
 6770POPC   GL218074   4.973  15.936   8.855
 6770POPC   C1A18075   5.119  15.932   8.555
 6770POPC   D2A18076   5.077  15.937   8.255
 6770POPC   C3A18077   5.079  15.921   7.955
 6770POPC   C4A18078   5.056  15.946   7.655
 6770POPC   C1B18079   4.896  16.024   8.555
 6770POPC   C2B18080   4.880  16.029   8.255
 6770POPC   C3B18081   4.836  16.042   7.955
 6770POPC   C4B18082   4.859  15.985   7.655
 6771POPC   NC318083  11.321   3.510   9.455
 6771POPC   PO418084  11.334   3.533   9.155
 6771POPC   GL118085  11.324   3.548   8.855
 6771POPC   GL218086  11.394   3.458   8.855
 6771POPC   C1A18087  11.276   3.568   8.555
 6771POPC   D2A18088  11.297   3.563   8.255
 6771POPC   C3A18089  11.335   3.587   7.955
 6771POPC   C4A18090  11.347   3.521   7.655
 6771POPC   C1B18091  11.468   3.404   8.555
 6771POPC   C2B18092  11.467   3.390   8.255
 6771POPC   C3B18093  11.492   3.367   7.955
 6771POPC   C4B18094  11.485   3.374   7.655
 6772POPC   NC318095  14.394  41.565   9.455
 6772POPC   PO418096  14.398  41.591   9.155
 6772POPC   GL118097  14.449  41.599   8.855
 6772POPC   GL218098  14.552  41.587   8.855
 6772POPC   C1A18099  14.390  41.592   8.555
 6772POPC   D2A18100  14.426  41.556   8.255
 6772POPC   C3A18101  14.401  41.564   7.955
 6772POPC   C4A18102  14.431  41.522   7.655
 6772POPC   C1B18103  14.621  41.596   8.555
 6772POPC   C2B18104  14.678  41.694   8.255
 6772POPC   C3B18105  14.647  41.635   7.955
 6772POPC   C4B18106  14.593  41.676   7.655
 6773POPC   NC318107  31.487  15.984   9.455
 6773POPC   PO418108  31.474  15.967   9.155
 6773POPC   GL118109  31.452  15.990   8.855
 6773POPC   GL218110  31.415  16.107   8.855
 6773POPC   C1A18111  31.466  15.956   8.555
 6773POPC   D2A18112  31.518  15.959   8.255
 6773POPC   C3A18113  31.439  15.937   7.955
 6773POPC   C4A18114  31.437  15.920   7.655
 6773POPC   C1B18115  31.491  16.219   8.555
 6773POPC   C2B18116  31.427  16.253   8.255
 6773POPC   C3B18117  31.407  16.196   7.955
 6773POPC   C4B18118  31.467  16.169   7.655
 6774POPC   NC318119  24.444   9.002   9.455
 6774POPC   PO418120  24.538   8.964   9.155
 6774POPC   GL118121  24.518   8.948   8.855
 6774POPC   GL218122  24.468   9.065   8.855
 6774POPC   C1A18123  24.464   8.939   8.555
 6774POPC   D2A18124  24.521   8.935   8.255
 6774POPC   C3A18125  24.515   8.993   7.955
 6774POPC   C4A18126  24.539   9.014   7.655
 6774POPC   C1B18127  24.393   9.178   8.555
 6774POPC   C2B18128  24.434   9.168   8.255
 6774POPC   C3B18129  24.424   9.188   7.955
 6774POPC   C4B18130  24.358   9.214   7.655
 6775POPC   NC318131   2.805   8.185   9.455
 6775POPC   PO418132   2.727   8.209   9.155
 6775POPC   GL118133   2.756   8.178   8.855
 6775POPC   GL218134   2.889   8.208   8.855
 6775POPC   C1A18135   2.757   8.207   8.555
 6775POPC   D2A18136   2.716   8.239   8.255
 6775POPC   C3A18137   2.766   8.147   7.955
 6775POPC   C4A18138   2.770   8.180   7.655
 6775POPC   C1B18139   3.002   8.152   8.555
 6775POPC   C2B18140   2.981   8.151   8.255
 6775POPC   C3B18141   3.043   8.154   7.955
 6775POPC   C4B18142   2.972   8.144   7.655
 6776POPC   NC318143   5.917  31.432   9.455
 6776POPC   PO418144   5.838  31.482   9.155
 6776POPC   GL118145   5.840  31.520   8.855
 6776POPC   GL218146   5.838  31.548   8.855
 6776POPC   C1A18147   5.899  31.493   8.555
 6776POPC   D2A18148   5.854  31.487   8.255
 6776POPC   C3A18149   5.914  31.473   7.955
 6776POPC   C4A18150   5.894  31.433   7.655
 6776POPC   C1B18151   5.797  31.715   8.555
 6776POPC   C2B18152   5.770  31.725   8.255
 6776POPC   C3B18153   5.752  31.677   7.955
 6776POPC   C4B18154   5.716  31.715   7.655
 6777POPC   NC318155  37.630   1.211   9.455
 6777POPC   PO418156  37.630   1.170   9.155
 6777POPC   GL118157  37.669   1.214   8.855
 6777POPC   GL218158  37.787   1.271   8.855
 6777POPC   C1A18159  37.634   1.191   8.555
 6777POPC   D2A18160  37.717   1.229   8.255
 6777POPC   C3A18161  37.637   1.199   7.955
 6777POPC   C4A18162  37.663   1.250   7.655
 6777POPC   C1B18163  37.893   1.371   8.555
 6777POPC   C2B18164  37.894   1.375   8.255
 6777POPC   C3B18165  37.905   1.352   7.955
 6777POPC   C4B18166  37.881   1.351   7.655
 6778POPC   NC318167  19.059  25.235   9.455
 6778POPC   PO418168  19.037  25.228   9.155
 6778POPC   GL118169  19.073  25.231   8.855
 6778POPC   GL218170  19.078  25.323   8.855
 6778POPC   C1A18171  19.088  25.281   8.555
 6778POPC   D2A18172  19.033  25.220   8.255
 6778POPC   C3A18173  19.010  25.261   7.955
 6778POPC   C4A18174  19.016  25.272   7.655
 6778POPC   C1B18175  19.155  25.456   8.555
 6778POPC   C2B18176  19.162  25.525   8.255
 6778POPC   C3B18177  19.230  25.459   7.955
 6778POPC   C4B18178  19.158  25.453   7.655
 6779POPC   NC318179  23.699  39.258   9.455
 6779POPC   PO418180  23.727  39.247   9.155
 6779POPC   GL118181  23.731  39.211   8.855
 6779POPC   GL218182  23.709  39.087   8.855
 6779POPC   C1A18183  23.672  39.183   8.555
 6779POPC   D2A18184  23.754  39.237   8.255
 6779POPC   C3A18185  23.735  39.278   7.955
 6779POPC   C4A18186  23.687  39.237   7.655
 6779POPC   C1B18187  23.769  38.942   8.555
 6779POPC   C2B18188  23.769  39.032   8.255
 6779POPC   C3B18189  23.793  39.022   7.955
 6779POPC   C4B18190  23.702  38.999   7.655
 6780POPC   NC318191   1.262  11.313   9.455
 6780POPC   PO418192   1.170  11.261   9.155
 6780POPC   GL118193   1.202  11.278   8.855
 6780POPC   GL218194   1.122  11.366   8.855
 6780POPC   C1A18195   1.261  11.269   8.555
 6780POPC   D2A18196   1.222  11.326   8.255
 6780POPC   C3A18197   1.185  11.308   7.955
 6780POPC   C4A18198   1.194  11.260   7.655
 6780POPC   C1B18199   0.921  11.372   8.555
 6780POPC   C2B18200   0.990  11.397   8.255
 6780POPC   C3B18201   0.922  11.352   7.955
 6780POPC   C4B18202   0.986  11.320   7.655
 6781POPC   NC318203  18.262  37.724   9.455
 6781POPC   PO418204  18.270  37.649   9.155
 6781POPC   GL118205  18.241  37.699   8.855
 6781POPC   GL218206  18.276  37.593   8.855
 6781POPC   C1A18207  18.253  37.696   8.555
 6781POPC   D2A18208  18.274  37.714   8.255
 6781POPC   C3A18209  18.263  37.688   7.955
 6781POPC   C4A18210  18.267  37.640   7.655
 6781POPC   C1B18211  18.281  37.476   8.555
 6781POPC   C2B18212  18.280  37.458   8.255
 6781POPC   C3B18213  18.265  37.478   7.955
 6781POPC   C4B18214  18.273  37.400   7.655
 6782POPC   NC318215  12.065   7.461   9.455
 6782POPC   PO418216  12.038   7.453   9.155
 6782POPC   GL118217  12.030   7.423   8.855
 6782POPC   GL218218  12.176   7.517   8.855
 6782POPC   C1A18219  12.124   7.410   8.555
 6782POPC   D2A18220  12.122   7.437   8.255
 6782POPC   C3A18221  12.096   7.406   7.955
 6782POPC   C4A18222  12.057   7.386   7.655
 6782POPC   C1B18223  12.247   7.574   8.555
 6782POPC   C2B18224  12.294   7.533   8.255
 6782POPC   C3B18225  12.242   7.547   7.955
 6782POPC   C4B18226  12.231   7.538   7.655
 6783POPC   NC318227  30.694  15.918   9.455
 6783POPC   PO418228  30.686  15.910   9.155
 6783POPC   GL118229  30.685  15.998   8.855
 6783POPC   GL218230  30.566  15.854   8.855
 6783POPC   C1A18231  30.711  15.949   8.555
 6783POPC   D2A18232  30.706  15.962   8.255
 6783POPC   C3A18233  30.723  15.966   7.955
 6783POPC   C4A18234  30.734  15.955   7.655
 6783POPC   C1B18235  30.446  15.794   8.555
 6783POPC   C2B18236  30.465  15.760   8.255
 6783POPC   C3B18237  30.501  15.768   7.955
 6783POPC   C4B18238  30.509  15.837   7.655
 6784POPC   NC318239   9.742  32.283   9.455
 6784POPC   PO418240   9.772  32.203   9.155
 6784POPC   GL118241   9.794  32.296   8.855
 6784POPC   GL218242   9.689  32.136   8.855
 6784POPC   C1A18243   9.763  32.237   8.555
 6784POPC   D2A18244   9.784  32.253   8.255
 6784POPC   C3A18245   9.723  32.254   7.955
 6784POPC   C4A18246   9.771  32.254   7.655
 6784POPC   C1B18247   9.630  32.004   8.555
 6784POPC   C2B18248   9.622  32.031   8.255
 6784POPC   C3B18249   9.675  32.017   7.955
 6784POPC   C4B18250   9.625  32.048   7.655
 6785POPC   NC318251  17.459   6.638   9.455
 6785POPC   PO418252  17.465   6.670   9.155
 6785POPC   GL118253  17.477   6.633   8.855
 6785POPC   GL218254  17.527   6.578   8.855
 6785POPC   C1A18255  17.549   6.599   8.555
 6785POPC   D2A18256  17.515   6.690   8.255
 6785POPC   C3A18257  17.528   6.678   7.955
 6785POPC   C4A18258  17.489   6.684   7.655
 6785POPC   C1B18259  17.604   6.388   8.555
 6785POPC   C2B18260  17.640   6.408   8.255
 6785POPC   C3B18261  17.575   6.388   7.955
 6785POPC   C4B18262  17.609   6.397   7.655
 6786POPC   NC318263  42.314  19.035   9.455
 6786POPC   PO418264  42.318  19.032   9.155
 6786POPC   GL118265  42.326  19.017   8.855
 6786POPC   GL218266  42.291  19.007   8.855
 6786POPC   C1A18267  42.325  19.018   8.555
 6786POPC   D2A18268  42.328  19.031   8.255
 6786POPC   C3A18269  42.296  19.107   7.955
 6786POPC   C4A18270  42.293  19.076   7.655
 6786POPC   C1B18271  42.178  18.826   8.555
 6786POPC   C2B18272  42.215  18.875   8.255
 6786POPC   C3B18273  42.129  18.861   7.955
 6786POPC   C4B18274  42.144  18.910   7.655
 6787POPC   NC318275   2.002   8.939   9.455
 6787POPC   PO418276   1.941   8.965   9.155
 6787POPC   GL118277   1.953   8.935   8.855
 6787POPC   GL218278   1.877   9.029   8.855
 6787POPC   C1A18279   1.992   8.986   8.555
 6787POPC   D2A18280   1.967   9.008   8.255
 6787POPC   C3A18281   1.964   9.009   7.955
 6787POPC   C4A18282   1.969   8.993   7.655
 6787POPC   C1B18283   1.822   9.128   8.555
 6787POPC   C2B18284   1.816   9.178   8.255
 6787POPC   C3B18285   1.850   9.186   7.955
 6787POPC   C4B18286   1.819   9.186   7.655
 6788POPC   NC318287  14.374  27.622   9.455
 6788POPC   PO418288  14.379  27.579   9.155
 6788POPC   GL118289  14.421  27.560   8.855
 6788POPC   GL218290  14.504  27.637   8.855
 6788POPC   C1A18291  14.356  27.616   8.555
 6788POPC   D2A18292  14.384  27.581   8.255
 6788POPC   C3A18293  14.447  27.626   7.955
 6788POPC   C4A18294  14.422  27.604   7.655
 6788POPC   C1B18295  14.645  27.738   8.555
 6788POPC   C2B18296  14.609  27.679   8.255
 6788POPC   C3B18297  14.659  27.664   7.955
 6788POPC   C4B18298  14.676  27.698   7.655
 6789POPC   NC318299  12.093  40.809   9.455
 6789POPC   PO418300  12.027  40.774   9.155
 6789POPC   GL118301  12.052  40.801   8.855
 6789POPC   GL218302  12.080  40.949   8.855
 6789POPC   C1A18303  12.040  40.784   8.555
 6789POPC   D2A18304  12.053  40.744   8.255
 6789POPC   C3A18305  12.073  40.804   7.955
 6789POPC   C4A18306  12.096  40.771   7.655
 6789POPC   C1B18307  12.124  41.021   8.555
 6789POPC   C2B18308  12.144  41.060   8.255
 6789POPC   C3B18309  12.134  41.039   7.955
 6789POPC   C4B18310  12.136  41.041   7.655
 6790POPC   NC318311  25.283   2.011   9.455
 6790POPC   PO418312  25.235   2.019   9.155
 6790POPC   GL118313  25.236   1.941   8.855
 6790POPC   GL218314  25.179   1.955   8.855
 6790POPC   C1A18315  25.227   1.971   8.555
 6790POPC   D2A18316  25.288   1.978   8.255
 6790POPC   C3A18317  25.287   1.998   7.955
 6790POPC   C4A18318  25.315   2.001   7.655
 6790POPC   C1B18319  25.054   1.943   8.555
 6790POPC   C2B18320  25.040   1.974   8.255
 6790POPC   C3B18321  25.045   1.938   7.955
 6790POPC   C4B18322  25.010   1.923   7.655
 6791POPC   NC318323  23.747  19.044   9.455
 6791POPC   PO418324  23.675  19.013   9.155
 6791POPC   GL118325  23.704  19.096   8.855
 6791POPC   GL218326  23.807  19.128   8.855
 6791POPC   C1A18327  23.704  19.041   8.555
 6791POPC   D2A18328  23.690  19.048   8.255
 6791POPC   C3A18329  23.725  19.055   7.955
 6791POPC   C4A18330  23.760  19.099   7.655
 6791POPC   C1B18331  23.846  19.275   8.555
 6791POPC   C2B18332  23.885  19.303   8.255
 6791POPC   C3B18333  23.895  19.272   7.955
 6791POPC   C4B18334  23.900  19.256   7.655
 6792POPC   NC318335  26.082  41.581   9.455
 6792POPC   PO418336  26.065  41.536   9.155
 6792POPC   GL118337  26.061  41.510   8.855
 6792POPC   GL218338  25.992  41.471   8.855
 6792POPC   C1A18339  26.042  41.586   8.555
 6792POPC   D2A18340  26.079  41.580   8.255
 6792POPC   C3A18341  26.047  41.579   7.955
 6792POPC   C4A18342  26.011  41.587   7.655
 6792POPC   C1B18343  25.824  41.361   8.555
 6792POPC   C2B18344  25.863  41.379   8.255
 6792POPC   C3B18345  25.912  41.424   7.955
 6792POPC   C4B18346  25.872  41.421   7.655
 6793POPC   NC318347  36.880  10.546   9.455
 6793POPC   PO418348  36.857  10.552   9.155
 6793POPC   GL118349  36.949  10.544   8.855
 6793POPC   GL218350  36.841  10.615   8.855
 6793POPC   C1A18351  36.897  10.558   8.555
 6793POPC   D2A18352  36.875  10.482   8.255
 6793POPC   C3A18353  36.919  10.531   7.955
 6793POPC   C4A18354  36.900  10.573   7.655
 6793POPC   C1B18355  36.798  10.743   8.555
 6793POPC   C2B18356  36.772  10.700   8.255
 6793POPC   C3B18357  36.781  10.764   7.955
 6793POPC   C4B18358  36.777  10.706   7.655
 6794POPC   NC318359   8.149  36.130   9.455
 6794POPC   PO418360   8.228  36.087   9.155
 6794POPC   GL118361   8.216  36.112   8.855
 6794POPC   GL218362   8.120  36.017   8.855
 6794POPC   C1A18363   8.202  36.168   8.555
 6794POPC   D2A18364   8.232  36.111   8.255
 6794POPC   C3A18365   8.238  36.127   7.955
 6794POPC   C4A18366   8.245  36.080   7.655
 6794POPC   C1B18367   8.139  35.937   8.555
 6794POPC   C2B18368   8.151  35.922   8.255
 6794POPC   C3B18369   8.111  35.883   7.955
 6794POPC   C4B18370   8.075  35.854   7.655
 6795POPC   NC318371  36.166   6.665   9.455
 6795POPC   PO418372  36.122   6.677   9.155
 6795POPC   GL118373  36.083   6.605   8.855
 6795POPC   GL218374  36.032   6.740   8.855
 6795POPC   C1A18375  36.122   6.606   8.555
 6795POPC   D2A18376  36.143   6.636   8.255
 6795POPC   C3A18377  36.103   6.618   7.955
 6795POPC   C4A18378  36.147   6.647   7.655
 6795POPC   C1B18379  35.949   6.765   8.555
 6795POPC   C2B18380  35.931   6.810   8.255
 6795POPC   C3B18381  35.901   6.742   7.955
 6795POPC   C4B18382  35.901   6.759   7.655
 6796POPC   NC318383   8.940  21.358   9.455
 6796POPC   PO418384   9.008  21.409   9.155
 6796POPC   GL118385   8.925  21.370   8.855
 6796POPC   GL218386   8.870  21.416   8.855
 6796POPC   C1A18387   8.970  21.381   8.555
 6796POPC   D2A18388   8.975  21.381   8.255
 6796POPC   C3A18389   8.958  21.413   7.955
 6796POPC   C4A18390   9.018  21.414   7.655
 6796POPC   C1B18391   8.792  21.462   8.555
 6796POPC   C2B18392   8.742  21.506   8.255
 6796POPC   C3B18393   8.767  21.529   7.955
 6796POPC   C4B18394   8.787  21.490   7.655
 6797POPC   NC318395  29.100  24.471   9.455
 6797POPC   PO418396  29.125  24.480   9.155
 6797POPC   GL118397  29.106  24.456   8.855
 6797POPC   GL218398  29.244  24.642   8.855
 6797POPC   C1A18399  29.176  24.485   8.555
 6797POPC   D2A18400  29.128  24.460   8.255
 6797POPC   C3A18401  29.148  24.458   7.955
 6797POPC   C4A18402  29.102  24.467   7.655
 6797POPC   C1B18403  29.225  24.748   8.555
 6797POPC   C2B18404  29.317  24.671   8.255
 6797POPC   C3B18405  29.248  24.709   7.955
 6797POPC   C4B18406  29.262  24.706   7.655
 6798POPC   NC318407  43.856   4.332   9.455
 6798POPC   PO418408  43.894   4.360   9.155
 6798POPC   GL118409  43.870   4.284   8.855
 6798POPC   GL218410  43.788   4.304   8.855
 6798POPC   C1A18411  43.932   4.331   8.555
 6798POPC   D2A18412  43.857   4.288   8.255
 6798POPC   C3A18413  43.880   4.302   7.955
 6798POPC   C4A18414  43.856   4.356   7.655
 6798POPC   C1B18415  43.671   4.285   8.555
 6798POPC   C2B18416  43.665   4.320   8.255
 6798POPC   C3B18417  43.604   4.313   7.955
 6798POPC   C4B18418  43.674   4.359   7.655
 6799POPC   NC318419  39.982  39.220   9.455
 6799POPC   PO418420  40.042  39.244   9.155
 6799POPC   GL118421  39.965  39.269   8.855
 6799POPC   GL218422  40.098  39.193   8.855
 6799POPC   C1A18423  40.006  39.240   8.555
 6799POPC   D2A18424  39.989  39.222   8.255
 6799POPC   C3A18425  39.979  39.218   7.955
 6799POPC   C4A18426  39.987  39.266   7.655
 6799POPC   C1B18427  40.225  39.173   8.555
 6799POPC   C2B18428  40.233  39.143   8.255
 6799POPC   C3B18429  40.302  39.237   7.955
 6799POPC   C4B18430  40.244  39.146   7.655
 6800POPC   NC318431  12.876  40.008   9.455
 6800POPC   PO418432  12.870  40.057   9.155
 6800POPC   GL118433  12.864  39.972   8.855
 6800POPC   GL218434  12.978  40.054   8.855
 6800POPC   C1A18435  12.863  39.977   8.555
 6800POPC   D2A18436  12.870  39.995   8.255
 6800POPC   C3A18437  12.874  40.017   7.955
 6800POPC   C4A18438  12.898  40.031   7.655
 6800POPC   C1B18439  13.062  39.978   8.555
 6800POPC   C2B18440  13.138  40.022   8.255
 6800POPC   C3B18441  13.148  40.004   7.955
 6800POPC   C4B18442  13.136  39.989   7.655
 6801POPC   NC318443   8.234  29.190   9.455
 6801POPC   PO418444   8.222  29.165   9.155
 6801POPC   GL118445   8.164  29.174   8.855
 6801POPC   GL218446   8.124  29.090   8.855
 6801POPC   C1A18447   8.171  29.144   8.555
 6801POPC   D2A18448   8.229  29.162   8.255
 6801POPC   C3A18449   8.183  29.184   7.955
 6801POPC   C4A18450   8.212  29.137   7.655
 6801POPC   C1B18451   7.970  28.972   8.555
 6801POPC   C2B18452   7.988  28.947   8.255
 6801POPC   C3B18453   8.007  29.002   7.955
 6801POPC   C4B18454   7.988  29.011   7.655
 6802POPC   NC318455  10.557  15.143   9.455
 6802POPC   PO418456  10.508  15.218   9.155
 6802POPC   GL118457  10.552  15.184   8.855
 6802POPC   GL218458  10.656  15.195   8.855
 6802POPC   C1A18459  10.490  15.215   8.555
 6802POPC   D2A18460  10.533  15.181   8.255
 6802POPC   C3A18461  10.502  15.209   7.955
 6802POPC   C4A18462  10.513  15.208   7.655
 6802POPC   C1B18463  10.805  15.163   8.555
 6802POPC   C2B18464  10.819  15.170   8.255
 6802POPC   C3B18465  10.768  15.135   7.955
 6802POPC   C4B18466  10.795  15.164   7.655
 6803POPC   NC318467  37.670  19.025   9.455
 6803POPC   PO418468  37.660  19.098   9.155
 6803POPC   GL118469  37.659  19.041   8.855
 6803POPC   GL218470  37.751  18.981   8.855
 6803POPC   C1A18471  37.631  19.098   8.555
 6803POPC   D2A18472  37.644  19.052   8.255
 6803POPC   C3A18473  37.692  19.069   7.955
 6803POPC   C4A18474  37.666  19.099   7.655
 6803POPC   C1B18475  37.894  18.971   8.555
 6803POPC   C2B18476  37.963  18.984   8.255
 6803POPC   C3B18477  37.908  19.006   7.955
 6803POPC   C4B18478  37.893  18.951   7.655
 6804POPC   NC318479  40.825  42.349   9.455
 6804POPC   PO418480  40.755  42.358   9.155
 6804POPC   GL118481  40.832  42.357   8.855
 6804POPC   GL218482  40.750  42.421   8.855
 6804POPC   C1A18483  40.760  42.356   8.555
 6804POPC   D2A18484  40.833  42.354   8.255
 6804POPC   C3A18485  40.739  42.360   7.955
 6804POPC   C4A18486  40.743  42.295   7.655
 6804POPC   C1B18487  40.593  42.542   8.555
 6804POPC   C2B18488  40.665  42.544   8.255
 6804POPC   C3B18489  40.614  42.537   7.955
 6804POPC   C4B18490  40.606  42.553   7.655
 6805POPC   NC318491  36.878  15.978   9.455
 6805POPC   PO418492  36.926  15.964   9.155
 6805POPC   GL118493  36.875  15.979   8.855
 6805POPC   GL218494  36.961  15.859   8.855
 6805POPC   C1A18495  36.887  15.925   8.555
 6805POPC   D2A18496  36.863  15.988   8.255
 6805POPC   C3A18497  36.862  15.936   7.955
 6805POPC   C4A18498  36.948  15.988   7.655
 6805POPC   C1B18499  36.938  15.729   8.555
 6805POPC   C2B18500  36.933  15.744   8.255
 6805POPC   C3B18501  36.936  15.722   7.955
 6805POPC   C4B18502  36.963  15.739   7.655
 6806POPC   NC318503  16.702   9.019   9.455
 6806POPC   PO418504  16.687   9.002   9.155
 6806POPC   GL118505  16.746   9.008   8.855
 6806POPC   GL218506  16.811   9.033   8.855
 6806POPC   C1A18507  16.748   8.990   8.555
 6806POPC   D2A18508  16.693   8.955   8.255
 6806POPC   C3A18509  16.689   9.020   7.955
 6806POPC   C4A18510  16.696   8.996   7.655
 6806POPC   C1B18511  16.951   9.101   8.555
 6806POPC   C2B18512  16.915   9.160   8.255
 6806POPC   C3B18513  16.977   9.125   7.955
 6806POPC   C4B18514  16.928   9.146   7.655
 6807POPC   NC318515   7.443  38.448   9.455
 6807POPC   PO418516   7.385  38.456   9.155
 6807POPC   GL118517   7.416  38.428   8.855
 6807POPC   GL218518   7.393  38.590   8.855
 6807POPC   C1A18519   7.428  38.483   8.555
 6807POPC   D2A18520   7.388  38.459   8.255
 6807POPC   C3A18521   7.454  38.502   7.955
 6807POPC   C4A18522   7.422  38.495   7.655
 6807POPC   C1B18523   7.452  38.708   8.555
 6807POPC   C2B18524   7.449  38.670   8.255
 6807POPC   C3B18525   7.456  38.689   7.955
 6807POPC   C4B18526   7.451  38.656   7.655
 6808POPC   NC318527  38.504  27.633   9.455
 6808POPC   PO418528  38.422  27.613   9.155
 6808POPC   GL118529  38.502  27.557   8.855
 6808POPC   GL218530  38.544  27.516   8.855
 6808POPC   C1A18531  38.416  27.571   8.555
 6808POPC   D2A18532  38.454  27.616   8.255
 6808POPC   C3A18533  38.486  27.587   7.955
 6808POPC   C4A18534  38.470  27.589   7.655
 6808POPC   C1B18535  38.567  27.348   8.555
 6808POPC   C2B18536  38.583  27.344   8.255
 6808POPC   C3B18537  38.523  27.321   7.955
 6808POPC   C4B18538  38.546  27.352   7.655
 6809POPC   NC318539  42.289  41.594   9.455
 6809POPC   PO418540  42.335  41.574   9.155
 6809POPC   GL118541  42.342  41.580   8.855
 6809POPC   GL218542  42.276  41.442   8.855
 6809POPC   C1A18543  42.347  41.588   8.555
 6809POPC   D2A18544  42.349  41.553   8.255
 6809POPC   C3A18545  42.373  41.577   7.955
 6809POPC   C4A18546  42.348  41.516   7.655
 6809POPC   C1B18547  42.216  41.316   8.555
 6809POPC   C2B18548  42.206  41.317   8.255
 6809POPC   C3B18549  42.244  41.311   7.955
 6809POPC   C4B18550  42.227  41.317   7.655
 6810POPC   NC318551  39.218  43.072   9.455
 6810POPC   PO418552  39.253  43.109   9.155
 6810POPC   GL118553  39.250  43.139   8.855
 6810POPC   GL218554  39.285  42.969   8.855
 6810POPC   C1A18555  39.269  43.136   8.555
 6810POPC   D2A18556  39.271  43.123   8.255
 6810POPC   C3A18557  39.201  43.124   7.955
 6810POPC   C4A18558  39.209  43.125   7.655
 6810POPC   C1B18559  39.354  42.908   8.555
 6810POPC   C2B18560  39.364  42.892   8.255
 6810POPC   C3B18561  39.365  42.871   7.955
 6810POPC   C4B18562  39.413  42.957   7.655
 6811POPC   NC318563  37.658  33.789   9.455
 6811POPC   PO418564  37.672  33.788   9.155
 6811POPC   GL118565  37.666  33.850   8.855
 6811POPC   GL218566  37.512  33.797   8.855
 6811POPC   C1A18567  37.636  33.755   8.555
 6811POPC   D2A18568  37.659  33.839   8.255
 6811POPC   C3A18569  37.698  33.795   7.955
 6811POPC   C4A18570  37.691  33.844   7.655
 6811POPC   C1B18571  37.414  33.717   8.555
 6811POPC   C2B18572  37.480  33.804   8.255
 6811POPC   C3B18573  37.404  33.793   7.955
 6811POPC   C4B18574  37.446  33.734   7.655
 6812POPC   NC318575  39.182  25.313   9.455
 6812POPC   PO418576  39.267  25.245   9.155
 6812POPC   GL118577  39.189  25.233   8.855
 6812POPC   GL218578  39.127  25.310   8.855
 6812POPC   C1A18579  39.265  25.311   8.555
 6812POPC   D2A18580  39.244  25.222   8.255
 6812POPC   C3A18581  39.185  25.309   7.955
 6812POPC   C4A18582  39.266  25.296   7.655
 6812POPC   C1B18583  39.023  25.279   8.555
 6812POPC   C2B18584  38.933  25.304   8.255
 6812POPC   C3B18585  39.027  25.239   7.955
 6812POPC   C4B18586  38.987  25.255   7.655
 6813POPC   NC318587  33.773  10.547   9.455
 6813POPC   PO418588  33.803  10.499   9.155
 6813POPC   GL118589  33.761  10.485   8.855
 6813POPC   GL218590  33.877  10.399   8.855
 6813POPC   C1A18591  33.832  10.524   8.555
 6813POPC   D2A18592  33.833  10.564   8.255
 6813POPC   C3A18593  33.768  10.523   7.955
 6813POPC   C4A18594  33.780  10.498   7.655
 6813POPC   C1B18595  33.957  10.383   8.555
 6813POPC   C2B18596  34.013  10.313   8.255
 6813POPC   C3B18597  33.934  10.353   7.955
 6813POPC   C4B18598  34.008  10.293   7.655
 6814POPC   NC318599  32.211   9.713   9.455
 6814POPC   PO418600  32.288   9.787   9.155
 6814POPC   GL118601  32.284   9.793   8.855
 6814POPC   GL218602  32.094   9.753   8.855
 6814POPC   C1A18603  32.209   9.776   8.555
 6814POPC   D2A18604  32.250   9.705   8.255
 6814POPC   C3A18605  32.259   9.761   7.955
 6814POPC   C4A18606  32.228   9.728   7.655
 6814POPC   C1B18607  31.980   9.747   8.555
 6814POPC   C2B18608  31.962   9.750   8.255
 6814POPC   C3B18609  32.005   9.810   7.955
 6814POPC   C4B18610  31.964   9.818   7.655
 6815POPC   NC318611   8.242  37.685   9.455
 6815POPC   PO418612   8.191  37.665   9.155
 6815POPC   GL118613   8.232  37.663   8.855
 6815POPC   GL218614   8.288  37.600   8.855
 6815POPC   C1A18615   8.165  37.698   8.555
 6815POPC   D2A18616   8.172  37.705   8.255
 6815POPC   C3A18617   8.184  37.723   7.955
 6815POPC   C4A18618   8.194  37.666   7.655
 6815POPC   C1B18619   8.389  37.597   8.555
 6815POPC   C2B18620   8.391  37.607   8.255
 6815POPC   C3B18621   8.478  37.572   7.955
 6815POPC   C4B18622   8.483  37.580   7.655
 6816POPC   NC318623  29.173  43.138   9.455
 6816POPC   PO418624  29.153  43.119   9.155
 6816POPC   GL118625  29.121  43.124   8.855
 6816POPC   GL218626  29.049  42.993   8.855
 6816POPC   C1A18627  29.193  43.106   8.555
 6816POPC   D2A18628  29.142  43.075   8.255
 6816POPC   C3A18629  29.182  43.091   7.955
 6816POPC   C4A18630  29.102  43.131   7.655
 6816POPC   C1B18631  28.918  42.933   8.555
 6816POPC   C2B18632  28.920  42.975   8.255
 6816POPC   C3B18633  28.997  42.925   7.955
 6816POPC   C4B18634  28.919  42.933   7.655
 6817POPC   NC318635  10.486  18.251   9.455
 6817POPC   PO418636  10.476  18.261   9.155
 6817POPC   GL118637  10.574  18.254   8.855
 6817POPC   GL218638  10.626  18.285   8.855
 6817POPC   C1A18639  10.536  18.330   8.555
 6817POPC   D2A18640  10.491  18.309   8.255
 6817POPC   C3A18641  10.568  18.255   7.955
 6817POPC   C4A18642  10.550  18.270   7.655
 6817POPC   C1B18643  10.795  18.240   8.555
 6817POPC   C2B18644  10.801  18.244   8.255
 6817POPC   C3B18645  10.793  18.197   7.955
 6817POPC   C4B18646  10.772  18.255   7.655
 6818POPC   NC318647  12.869  12.076   9.455
 6818POPC   PO418648  12.829  12.055   9.155
 6818POPC   GL118649  12.842  12.035   8.855
 6818POPC   GL218650  12.900  12.193   8.855
 6818POPC   C1A18651  12.894  12.032   8.555
 6818POPC   D2A18652  12.868  12.039   8.255
 6818POPC   C3A18653  12.886  12.062   7.955
 6818POPC   C4A18654  12.886  12.039   7.655
 6818POPC   C1B18655  13.020  12.286   8.555
 6818POPC   C2B18656  13.009  12.211   8.255
 6818POPC   C3B18657  13.025  12.201   7.955
 6818POPC   C4B18658  13.026  12.239   7.655
 6819POPC   NC318659  18.280  17.540   9.455
 6819POPC   PO418660  18.251  17.464   9.155
 6819POPC   GL118661  18.273  17.504   8.855
 6819POPC   GL218662  18.257  17.411   8.855
 6819POPC   C1A18663  18.242  17.544   8.555
 6819POPC   D2A18664  18.293  17.555   8.255
 6819POPC   C3A18665  18.267  17.544   7.955
 6819POPC   C4A18666  18.310  17.460   7.655
 6819POPC   C1B18667  18.214  17.245   8.555
 6819POPC   C2B18668  18.225  17.311   8.255
 6819POPC   C3B18669  18.264  17.230   7.955
 6819POPC   C4B18670  18.242  17.245   7.655
 6820POPC   NC318671  36.101  32.211   9.455
 6820POPC   PO418672  36.150  32.280   9.155
 6820POPC   GL118673  36.090  32.256   8.855
 6820POPC   GL218674  36.249  32.278   8.855
 6820POPC   C1A18675  36.123  32.241   8.555
 6820POPC   D2A18676  36.129  32.218   8.255
 6820POPC   C3A18677  36.122  32.240   7.955
 6820POPC   C4A18678  36.116  32.266   7.655
 6820POPC   C1B18679  36.327  32.319   8.555
 6820POPC   C2B18680  36.301  32.314   8.255
 6820POPC   C3B18681  36.399  32.385   7.955
 6820POPC   C4B18682  36.364  32.407   7.655
 6821POPC   NC318683  37.654  15.198   9.455
 6821POPC   PO418684  37.726  15.132   9.155
 6821POPC   GL118685  37.689  15.194   8.855
 6821POPC   GL218686  37.580  15.218   8.855
 6821POPC   C1A18687  37.657  15.197   8.555
 6821POPC   D2A18688  37.694  15.179   8.255
 6821POPC   C3A18689  37.652  15.171   7.955
 6821POPC   C4A18690  37.705  15.144   7.655
 6821POPC   C1B18691  37.436  15.214   8.555
 6821POPC   C2B18692  37.480  15.216   8.255
 6821POPC   C3B18693  37.474  15.231   7.955
 6821POPC   C4B18694  37.400  15.265   7.655
 6822POPC   NC318695  15.180  44.706   9.455
 6822POPC   PO418696  15.222  44.674   9.155
 6822POPC   GL118697  15.132  44.683   8.855
 6822POPC   GL218698  15.110  44.705   8.855
 6822POPC   C1A18699  15.205  44.639   8.555
 6822POPC   D2A18700  15.143  44.666   8.255
 6822POPC   C3A18701  15.183  44.654   7.955
 6822POPC   C4A18702  15.157  44.620   7.655
 6822POPC   C1B18703  14.984  44.796   8.555
 6822POPC   C2B18704  15.008  44.827   8.255
 6822POPC   C3B18705  14.928  44.834   7.955
 6822POPC   C4B18706  15.016  44.840   7.655
 6823POPC   NC318707  12.829  26.002   9.455
 6823POPC   PO418708  12.824  26.004   9.155
 6823POPC   GL118709  12.830  26.010   8.855
 6823POPC   GL218710  12.957  25.998   8.855
 6823POPC   C1A18711  12.821  26.020   8.555
 6823POPC   D2A18712  12.874  26.018   8.255
 6823POPC   C3A18713  12.804  25.993   7.955
 6823POPC   C4A18714  12.890  26.017   7.655
 6823POPC   C1B18715  13.084  25.901   8.555
 6823POPC   C2B18716  13.041  25.863   8.255
 6823POPC   C3B18717  13.102  25.867   7.955
 6823POPC   C4B18718  13.102  25.856   7.655
 6824POPC   NC318719  19.085  40.799   9.455
 6824POPC   PO418720  19.040  40.737   9.155
 6824POPC   GL118721  19.010  40.756   8.855
 6824POPC   GL218722  19.211  40.865   8.855
 6824POPC   C1A18723  19.058  40.796   8.555
 6824POPC   D2A18724  19.070  40.783   8.255
 6824POPC   C3A18725  19.091  40.770   7.955
 6824POPC   C4A18726  19.106  40.770   7.655
 6824POPC   C1B18727  19.310  40.824   8.555
 6824POPC   C2B18728  19.338  40.867   8.255
 6824POPC   C3B18729  19.332  40.908   7.955
 6824POPC   C4B18730  19.264  40.823   7.655
 6825POPC   NC318731  38.469   7.383   9.455
 6825POPC   PO418732  38.414   7.459   9.155
 6825POPC   GL118733  38.414   7.452   8.855
 6825POPC   GL218734  38.463   7.332   8.855
 6825POPC   C1A18735  38.452   7.444   8.555
 6825POPC   D2A18736  38.418   7.452   8.255
 6825POPC   C3A18737  38.423   7.447   7.955
 6825POPC   C4A18738  38.424   7.454   7.655
 6825POPC   C1B18739  38.540   7.196   8.555
 6825POPC   C2B18740  38.513   7.209   8.255
 6825POPC   C3B18741  38.519   7.165   7.955
 6825POPC   C4B18742  38.489   7.205   7.655
 6826POPC   NC318743  23.684  43.842   9.455
 6826POPC   PO418744  23.717  43.884   9.155
 6826POPC   GL118745  23.713  43.883   8.855
 6826POPC   GL218746  23.729  43.724   8.855
 6826POPC   C1A18747  23.700  43.917   8.555
 6826POPC   D2A18748  23.689  43.908   8.255
 6826POPC   C3A18749  23.736  43.911   7.955
 6826POPC   C4A18750  23.693  43.928   7.655
 6826POPC   C1B18751  23.821  43.627   8.555
 6826POPC   C2B18752  23.850  43.624   8.255
 6826POPC   C3B18753  23.854  43.699   7.955
 6826POPC   C4B18754  23.839  43.669   7.655
 6827POPC   NC318755  11.260  32.293   9.455
 6827POPC   PO418756  11.320  32.282   9.155
 6827POPC   GL118757  11.306  32.263   8.855
 6827POPC   GL218758  11.192  32.203   8.855
 6827POPC   C1A18759  11.301  32.252   8.555
 6827POPC   D2A18760  11.341  32.232   8.255
 6827POPC   C3A18761  11.273  32.206   7.955
 6827POPC   C4A18762  11.268  32.291   7.655
 6827POPC   C1B18763  11.043  32.155   8.555
 6827POPC   C2B18764  11.038  32.178   8.255
 6827POPC   C3B18765  11.019  32.170   7.955
 6827POPC   C4B18766  11.013  32.200   7.655
 6828POPC   NC318767  15.932   9.711   9.455
 6828POPC   PO418768  15.907   9.737   9.155
 6828POPC   GL118769  15.950   9.701   8.855
 6828POPC   GL218770  16.058   9.761   8.855
 6828POPC   C1A18771  15.968   9.766   8.555
 6828POPC   D2A18772  15.987   9.743   8.255
 6828POPC   C3A18773  15.973   9.700   7.955
 6828POPC   C4A18774  15.970   9.708   7.655
 6828POPC   C1B18775  16.159   9.792   8.555
 6828POPC   C2B18776  16.208   9.732   8.255
 6828POPC   C3B18777  16.219   9.770   7.955
 6828POPC   C4B18778  16.180   9.771   7.655
 6829POPC   NC318779  36.880   8.950   9.455
 6829POPC   PO418780  36.878   8.986   9.155
 6829POPC   GL118781  36.870   8.964   8.855
 6829POPC   GL218782  36.756   8.910   8.855
 6829POPC   C1A18783  36.889   8.992   8.555
 6829POPC   D2A18784  36.945   9.022   8.255
 6829POPC   C3A18785  36.953   8.923   7.955
 6829POPC   C4A18786  36.888   9.006   7.655
 6829POPC   C1B18787  36.715   8.843   8.555
 6829POPC   C2B18788  36.673   8.864   8.255
 6829POPC   C3B18789  36.720   8.872   7.955
 6829POPC   C4B18790  36.712   8.826   7.655
 6830POPC   NC318791  11.311   8.990   9.455
 6830POPC   PO418792  11.323   9.013   9.155
 6830POPC   GL118793  11.271   8.962   8.855
 6830POPC   GL218794  11.369   9.024   8.855
 6830POPC   C1A18795  11.345   8.988   8.555
 6830POPC   D2A18796  11.306   8.987   8.255
 6830POPC   C3A18797  11.345   8.945   7.955
 6830POPC   C4A18798  11.277   8.931   7.655
 6830POPC   C1B18799  11.573   9.032   8.555
 6830POPC   C2B18800  11.574   9.013   8.255
 6830POPC   C3B18801  11.528   9.090   7.955
 6830POPC   C4B18802  11.533   9.010   7.655
 6831POPC   NC318803  33.025  33.832   9.455
 6831POPC   PO418804  33.038  33.799   9.155
 6831POPC   GL118805  33.059  33.845   8.855
 6831POPC   GL218806  32.938  33.763   8.855
 6831POPC   C1A18807  33.069  33.831   8.555
 6831POPC   D2A18808  33.002  33.801   8.255
 6831POPC   C3A18809  33.073  33.801   7.955
 6831POPC   C4A18810  33.056  33.763   7.655
 6831POPC   C1B18811  32.748  33.797   8.555
 6831POPC   C2B18812  32.738  33.763   8.255
 6831POPC   C3B18813  32.737  33.735   7.955
 6831POPC   C4B18814  32.767  33.812   7.655
 6832POPC   NC318815   0.439  15.966   9.455
 6832POPC   PO418816   0.442  15.925   9.155
 6832POPC   GL118817   0.483  15.926   8.855
 6832POPC   GL218818   0.404  16.095   8.855
 6832POPC   C1A18819   0.459  15.921   8.555
 6832POPC   D2A18820   0.403  16.004   8.255
 6832POPC   C3A18821   0.423  15.940   7.955
 6832POPC   C4A18822   0.487  15.997   7.655
 6832POPC   C1B18823   0.460  16.246   8.555
 6832POPC   C2B18824   0.472  16.183   8.255
 6832POPC   C3B18825   0.432  16.231   7.955
 6832POPC   C4B18826   0.458  16.175   7.655
 6833POPC   NC318827  41.591  39.264   9.455
 6833POPC   PO418828  41.598  39.196   9.155
 6833POPC   GL118829  41.539  39.217   8.855
 6833POPC   GL218830  41.511  39.371   8.855
 6833POPC   C1A18831  41.588  39.253   8.555
 6833POPC   D2A18832  41.518  39.182   8.255
 6833POPC   C3A18833  41.573  39.215   7.955
 6833POPC   C4A18834  41.580  39.233   7.655
 6833POPC   C1B18835  41.488  39.523   8.555
 6833POPC   C2B18836  41.511  39.488   8.255
 6833POPC   C3B18837  41.531  39.501   7.955
 6833POPC   C4B18838  41.513  39.454   7.655
 6834POPC   NC318839  25.256  38.434   9.455
 6834POPC   PO418840  25.250  38.501   9.155
 6834POPC   GL118841  25.315  38.410   8.855
 6834POPC   GL218842  25.391  38.556   8.855
 6834POPC   C1A18843  25.293  38.469   8.555
 6834POPC   D2A18844  25.216  38.437   8.255
 6834POPC   C3A18845  25.312  38.481   7.955
 6834POPC   C4A18846  25.233  38.480   7.655
 6834POPC   C1B18847  25.480  38.627   8.555
 6834POPC   C2B18848  25.464  38.618   8.255
 6834POPC   C3B18849  25.411  38.663   7.955
 6834POPC   C4B18850  25.418  38.635   7.655
 6835POPC   NC318851   0.397  10.516   9.455
 6835POPC   PO418852   0.475  10.501   9.155
 6835POPC   GL118853   0.400  10.486   8.855
 6835POPC   GL218854   0.353  10.596   8.855
 6835POPC   C1A18855   0.462  10.535   8.555
 6835POPC   D2A18856   0.428  10.518   8.255
 6835POPC   C3A18857   0.433  10.566   7.955
 6835POPC   C4A18858   0.411  10.525   7.655
 6835POPC   C1B18859   0.264  10.705   8.555
 6835POPC   C2B18860   0.261  10.686   8.255
 6835POPC   C3B18861   0.213  10.661   7.955
 6835POPC   C4B18862   0.247  10.719   7.655
 6836POPC   NC318863  18.272  29.161   9.455
 6836POPC   PO418864  18.304  29.157   9.155
 6836POPC   GL118865  18.322  29.149   8.855
 6836POPC   GL218866  18.324  29.215   8.855
 6836POPC   C1A18867  18.272  29.155   8.555
 6836POPC   D2A18868  18.272  29.122   8.255
 6836POPC   C3A18869  18.326  29.145   7.955
 6836POPC   C4A18870  18.283  29.144   7.655
 6836POPC   C1B18871  18.415  29.336   8.555
 6836POPC   C2B18872  18.450  29.353   8.255
 6836POPC   C3B18873  18.430  29.387   7.955
 6836POPC   C4B18874  18.389  29.406   7.655
 6837POPC   NC318875  35.342   7.425   9.455
 6837POPC   PO418876  35.353   7.468   9.155
 6837POPC   GL118877  35.379   7.383   8.855
 6837POPC   GL218878  35.444   7.570   8.855
 6837POPC   C1A18879  35.391   7.464   8.555
 6837POPC   D2A18880  35.316   7.434   8.255
 6837POPC   C3A18881  35.361   7.459   7.955
 6837POPC   C4A18882  35.372   7.457   7.655
 6837POPC   C1B18883  35.423   7.619   8.555
 6837POPC   C2B18884  35.479   7.673   8.255
 6837POPC   C3B18885  35.481   7.668   7.955
 6837POPC   C4B18886  35.468   7.633   7.655
 6838POPC   NC318887  34.586   9.741   9.455
 6838POPC   PO418888  34.588   9.731   9.155
 6838POPC   GL118889  34.538   9.777   8.855
 6838POPC   GL218890  34.473   9.709   8.855
 6838POPC   C1A18891  34.534   9.745   8.555
 6838POPC   D2A18892  34.594   9.721   8.255
 6838POPC   C3A18893  34.538   9.743   7.955
 6838POPC   C4A18894  34.620   9.741   7.655
 6838POPC   C1B18895  34.277   9.778   8.555
 6838POPC   C2B18896  34.353   9.749   8.255
 6838POPC   C3B18897  34.303   9.717   7.955
 6838POPC   C4B18898  34.277   9.705   7.655
 6839POPC   NC318899   8.192  40.012   9.455
 6839POPC   PO418900   8.241  40.019   9.155
 6839POPC   GL118901   8.210  39.966   8.855
 6839POPC   GL218902   8.146  40.147   8.855
 6839POPC   C1A18903   8.156  39.969   8.555
 6839POPC   D2A18904   8.196  40.007   8.255
 6839POPC   C3A18905   8.185  40.033   7.955
 6839POPC   C4A18906   8.215  39.989   7.655
 6839POPC   C1B18907   8.153  40.200   8.555
 6839POPC   C2B18908   8.167  40.204   8.255
 6839POPC   C3B18909   8.138  40.210   7.955
 6839POPC   C4B18910   8.185  40.251   7.655
 6840POPC   NC318911  33.051   1.209   9.455
 6840POPC   PO418912  33.010   1.227   9.155
 6840POPC   GL118913  33.011   1.262   8.855
 6840POPC   GL218914  33.099   1.198   8.855
 6840POPC   C1A18915  33.017   1.214   8.555
 6840POPC   D2A18916  32.990   1.196   8.255
 6840POPC   C3A18917  32.986   1.205   7.955
 6840POPC   C4A18918  32.978   1.255   7.655
 6840POPC   C1B18919  33.234   1.184   8.555
 6840POPC   C2B18920  33.306   1.161   8.255
 6840POPC   C3B18921  33.296   1.139   7.955
 6840POPC   C4B18922  33.270   1.178   7.655
 6841POPC   NC318923  22.135  19.810   9.455
 6841POPC   PO418924  22.198  19.829   9.155
 6841POPC   GL118925  22.189  19.800   8.855
 6841POPC   GL218926  22.062  19.885   8.855
 6841POPC   C1A18927  22.146  19.856   8.555
 6841POPC   D2A18928  22.158  19.813   8.255
 6841POPC   C3A18929  22.113  19.802   7.955
 6841POPC   C4A18930  22.149  19.828   7.655
 6841POPC   C1B18931  21.918  19.866   8.555
 6841POPC   C2B18932  21.922  19.829   8.255
 6841POPC   C3B18933  21.901  19.859   7.955
 6841POPC   C4B18934  21.917  19.835   7.655
 6842POPC   NC318935  16.740  38.412   9.455
 6842POPC   PO418936  16.773  38.409   9.155
 6842POPC   GL118937  16.734  38.406   8.855
 6842POPC   GL218938  16.829  38.417   8.855
 6842POPC   C1A18939  16.751  38.497   8.555
 6842POPC   D2A18940  16.736  38.466   8.255
 6842POPC   C3A18941  16.743  38.488   7.955
 6842POPC   C4A18942  16.775  38.485   7.655
 6842POPC   C1B18943  17.016  38.420   8.555
 6842POPC   C2B18944  17.006  38.458   8.255
 6842POPC   C3B18945  17.021  38.435   7.955
 6842POPC   C4B18946  17.009  38.405   7.655
 6843POPC   NC318947  37.662  11.255   9.455
 6843POPC   PO418948  37.684  11.294   9.155
 6843POPC   GL118949  37.704  11.266   8.855
 6843POPC   GL218950  37.778  11.417   8.855
 6843POPC   C1A18951  37.727  11.255   8.555
 6843POPC   D2A18952  37.631  11.315   8.255
 6843POPC   C3A18953  37.695  11.308   7.955
 6843POPC   C4A18954  37.677  11.333   7.655
 6843POPC   C1B18955  37.922  11.464   8.555
 6843POPC   C2B18956  37.932  11.460   8.255
 6843POPC   C3B18957  37.871  11.443   7.955
 6843POPC   C4B18958  37.903  11.405   7.655
 6844POPC   NC318959   0.488   3.580   9.455
 6844POPC   PO418960   0.445   3.525   9.155
 6844POPC   GL118961   0.425   3.552   8.855
 6844POPC   GL218962   0.537   3.552   8.855
 6844POPC   C1A18963   0.486   3.571   8.555
 6844POPC   D2A18964   0.427   3.568   8.255
 6844POPC   C3A18965   0.433   3.560   7.955
 6844POPC   C4A18966   0.454   3.563   7.655
 6844POPC   C1B18967   0.654   3.587   8.555
 6844POPC   C2B18968   0.700   3.582   8.255
 6844POPC   C3B18969   0.685   3.559   7.955
 6844POPC   C4B18970   0.641   3.599   7.655
 6845POPC   NC318971  43.848   5.895   9.455
 6845POPC   PO418972  43.847   5.884   9.155
 6845POPC   GL118973  43.872   5.832   8.855
 6845POPC   GL218974  43.959   5.971   8.855
 6845POPC   C1A18975  43.847   5.855   8.555
 6845POPC   D2A18976  43.917   5.890   8.255
 6845POPC   C3A18977  43.886   5.893   7.955
 6845POPC   C4A18978  43.874   5.850   7.655
 6845POPC   C1B18979  44.114   6.055   8.555
 6845POPC   C2B18980  44.104   6.042   8.255
 6845POPC   C3B18981  44.103   5.984   7.955
 6845POPC   C4B18982  44.126   6.071   7.655
 6846POPC   NC318983  27.584  41.602   9.455
 6846POPC   PO418984  27.595  41.553   9.155
 6846POPC   GL118985  27.619  41.519   8.855
 6846POPC   GL218986  27.657  41.643   8.855
 6846POPC   C1A18987  27.567  41.544   8.555
 6846POPC   D2A18988  27.591  41.523   8.255
 6846POPC   C3A18989  27.558  41.541   7.955
 6846POPC   C4A18990  27.591  41.513   7.655
 6846POPC   C1B18991  27.673  41.758   8.555
 6846POPC   C2B18992  27.698  41.804   8.255
 6846POPC   C3B18993  27.670  41.775   7.955
 6846POPC   C4B18994  27.694  41.806   7.655
 6847POPC   NC318995  16.001   5.092   9.455
 6847POPC   PO418996  15.963   5.101   9.155
 6847POPC   GL118997  15.981   5.107   8.855
 6847POPC   GL218998  15.974   4.993   8.855
 6847POPC   C1A18999  15.985   5.066   8.555
 6847POPC   D2A19000  15.941   5.061   8.255
 6847POPC   C3A19001  15.992   5.062   7.955
 6847POPC   C4A19002  15.921   5.119   7.655
 6847POPC   C1B19003  16.055   4.878   8.555
 6847POPC   C2B19004  16.018   4.895   8.255
 6847POPC   C3B19005  16.071   4.838   7.955
 6847POPC   C4B19006  16.057   4.897   7.655
 6848POPC   NC319007  40.053  36.946   9.455
 6848POPC   PO419008  40.009  36.925   9.155
 6848POPC   GL119009  39.969  36.874   8.855
 6848POPC   GL219010  40.155  36.920   8.855
 6848POPC   C1A19011  40.054  36.923   8.555
 6848POPC   D2A19012  40.035  36.921   8.255
 6848POPC   C3A19013  40.026  36.905   7.955
 6848POPC   C4A19014  39.965  36.908   7.655
 6848POPC   C1B19015  40.270  37.018   8.555
 6848POPC   C2B19016  40.234  36.998   8.255
 6848POPC   C3B19017  40.260  36.975   7.955
 6848POPC   C4B19018  40.250  37.043   7.655
 6849POPC   NC319019  40.738   1.247   9.455
 6849POPC   PO419020  40.749   1.223   9.155
 6849POPC   GL119021  40.754   1.218   8.855
 6849POPC   GL219022  40.810   1.060   8.855
 6849POPC   C1A19023  40.752   1.169   8.555
 6849POPC   D2A19024  40.748   1.249   8.255
 6849POPC   C3A19025  40.830   1.263   7.955
 6849POPC   C4A19026  40.821   1.192   7.655
 6849POPC   C1B19027  40.773   0.980   8.555
 6849POPC   C2B19028  40.712   0.917   8.255
 6849POPC   C3B19029  40.715   0.952   7.955
 6849POPC   C4B19030  40.763   0.981   7.655
 6850POPC   NC319031  39.224   1.972   9.455
 6850POPC   PO419032  39.217   2.019   9.155
 6850POPC   GL119033  39.185   2.031   8.855
 6850POPC   GL219034  39.149   1.992   8.855
 6850POPC   C1A19035  39.229   1.944   8.555
 6850POPC   D2A19036  39.238   2.033   8.255
 6850POPC   C3A19037  39.226   1.955   7.955
 6850POPC   C4A19038  39.186   2.037   7.655
 6850POPC   C1B19039  39.005   2.005   8.555
 6850POPC   C2B19040  38.946   1.982   8.255
 6850POPC   C3B19041  39.010   2.010   7.955
 6850POPC   C4B19042  39.018   1.953   7.655
 6851POPC   NC319043   2.763  25.262   9.455
 6851POPC   PO419044   2.796  25.217   9.155
 6851POPC   GL119045   2.774  25.241   8.855
 6851POPC   GL219046   2.843  25.243   8.855
 6851POPC   C1A19047   2.772  25.272   8.555
 6851POPC   D2A19048   2.771  25.313   8.255
 6851POPC   C3A19049   2.774  25.229   7.955
 6851POPC   C4A19050   2.736  25.245   7.655
 6851POPC   C1B19051   3.015  25.166   8.555
 6851POPC   C2B19052   2.990  25.240   8.255
 6851POPC   C3B19053   3.038  25.232   7.955
 6851POPC   C4B19054   2.989  25.261   7.655
 6852POPC   NC319055  22.922  21.374   9.455
 6852POPC   PO419056  22.966  21.346   9.155
 6852POPC   GL119057  22.987  21.410   8.855
 6852POPC   GL219058  22.838  21.416   8.855
 6852POPC   C1A19059  22.966  21.345   8.555
 6852POPC   D2A19060  22.892  21.422   8.255
 6852POPC   C3A19061  22.946  21.344   7.955
 6852POPC   C4A19062  22.915  21.406   7.655
 6852POPC   C1B19063  22.682  21.376   8.555
 6852POPC   C2B19064  22.665  21.382   8.255
 6852POPC   C3B19065  22.689  21.417   7.955
 6852POPC   C4B19066  22.676  21.416   7.655
 6853POPC   NC319067   6.630  33.806   9.455
 6853POPC   PO419068   6.634  33.786   9.155
 6853POPC   GL119069   6.634  33.786   8.855
 6853POPC   GL219070   6.736  33.730   8.855
 6853POPC   C1A19071   6.598  33.807   8.555
 6853POPC   D2A19072   6.611  33.808   8.255
 6853POPC   C3A19073   6.681  33.832   7.955
 6853POPC   C4A19074   6.634  33.830   7.655
 6853POPC   C1B19075   6.866  33.596   8.555
 6853POPC   C2B19076   6.824  33.650   8.255
 6853POPC   C3B19077   6.829  33.595   7.955
 6853POPC   C4B19078   6.859  33.602   7.655
 6854POPC   NC319079   4.272  42.299   9.455
 6854POPC   PO419080   4.367  42.289   9.155
 6854POPC   GL119081   4.327  42.378   8.855
 6854POPC   GL219082   4.284  42.474   8.855
 6854POPC   C1A19083   4.319  42.308   8.555
 6854POPC   D2A19084   4.269  42.333   8.255
 6854POPC   C3A19085   4.308  42.288   7.955
 6854POPC   C4A19086   4.320  42.362   7.655
 6854POPC   C1B19087   4.138  42.581   8.555
 6854POPC   C2B19088   4.231  42.516   8.255
 6854POPC   C3B19089   4.189  42.523   7.955
 6854POPC   C4B19090   4.203  42.575   7.655
 6855POPC   NC319091  18.236  43.088   9.455
 6855POPC   PO419092  18.257  43.076   9.155
 6855POPC   GL119093  18.240  43.134   8.855
 6855POPC   GL219094  18.217  42.956   8.855
 6855POPC   C1A19095  18.248  43.095   8.555
 6855POPC   D2A19096  18.237  43.153   8.255
 6855POPC   C3A19097  18.257  43.118   7.955
 6855POPC   C4A19098  18.329  43.099   7.655
 6855POPC   C1B19099  18.231  42.825   8.555
 6855POPC   C2B19100  18.250  42.864   8.255
 6855POPC   C3B19101  18.229  42.846   7.955
 6855POPC   C4B19102  18.193  42.914   7.655
 6856POPC   NC319103   7.385   1.217   9.455
 6856POPC   PO419104   7.374   1.225   9.155
 6856POPC   GL119105   7.416   1.218   8.855
 6856POPC   GL219106   7.421   1.044   8.855
 6856POPC   C1A19107   7.455   1.231   8.555
 6856POPC   D2A19108   7.466   1.166   8.255
 6856POPC   C3A19109   7.416   1.240   7.955
 6856POPC   C4A19110   7.408   1.179   7.655
 6856POPC   C1B19111   7.509   0.972   8.555
 6856POPC   C2B19112   7.538   0.963   8.255
 6856POPC   C3B19113   7.466   0.939   7.955
 6856POPC   C4B19114   7.470   0.930   7.655
 6857POPC   NC319115  18.275  41.541   9.455
 6857POPC   PO419116  18.306  41.535   9.155
 6857POPC   GL119117  18.308  41.542   8.855
 6857POPC   GL219118  18.213  41.405   8.855
 6857POPC   C1A19119  18.253  41.553   8.555
 6857POPC   D2A19120  18.276  41.598   8.255
 6857POPC   C3A19121  18.330  41.511   7.955
 6857POPC   C4A19122  18.297  41.521   7.655
 6857POPC   C1B19123  18.141  41.324   8.555
 6857POPC   C2B19124  18.169  41.307   8.255
 6857POPC   C3B19125  18.182  41.297   7.955
 6857POPC   C4B19126  18.154  41.325   7.655
 6858POPC   NC319127  15.170  20.606   9.455
 6858POPC   PO419128  15.172  20.606   9.155
 6858POPC   GL119129  15.162  20.600   8.855
 6858POPC   GL219130  15.312  20.605   8.855
 6858POPC   C1A19131  15.220  20.645   8.555
 6858POPC   D2A19132  15.137  20.592   8.255
 6858POPC   C3A19133  15.151  20.561   7.955
 6858POPC   C4A19134  15.211  20.644   7.655
 6858POPC   C1B19135  15.394  20.602   8.555
 6858POPC   C2B19136  15.461  20.588   8.255
 6858POPC   C3B19137  15.451  20.563   7.955
 6858POPC   C4B19138  15.393  20.568   7.655
 6859POPC   NC319139  43.907  29.873   9.455
 6859POPC   PO419140  43.876  29.901   9.155
 6859POPC   GL119141  43.836  29.883   8.855
 6859POPC   GL219142  43.778  29.842   8.855
 6859POPC   C1A19143  43.878  29.887   8.555
 6859POPC   D2A19144  43.923  29.889   8.255
 6859POPC   C3A19145  43.918  29.909   7.955
 6859POPC   C4A19146  43.906  29.892   7.655
 6859POPC   C1B19147  43.773  29.738   8.555
 6859POPC   C2B19148  43.715  29.757   8.255
 6859POPC   C3B19149  43.740  29.689   7.955
 6859POPC   C4B19150  43.739  29.749   7.655
 6860POPC   NC319151  27.572  44.617   9.455
 6860POPC   PO419152  27.591  44.708   9.155
 6860POPC   GL119153  27.631  44.690   8.855
 6860POPC   GL219154  27.547  44.747   8.855
 6860POPC   C1A19155  27.640  44.645   8.555
 6860POPC   D2A19156  27.571  44.639   8.255
 6860POPC   C3A19157  27.575  44.630   7.955
 6860POPC   C4A19158  27.560  44.640   7.655
 6860POPC   C1B19159  27.567  44.953   8.555
 6860POPC   C2B19160  27.575  44.925   8.255
 6860POPC   C3B19161  27.517  44.887   7.955
 6860POPC   C4B19162  27.579  44.880   7.655
 6861POPC   NC319163  36.165  43.857   9.455
 6861POPC   PO419164  36.137  43.936   9.155
 6861POPC   GL119165  36.165  43.892   8.855
 6861POPC   GL219166  35.992  43.957   8.855
 6861POPC   C1A19167  36.094  43.852   8.555
 6861POPC   D2A19168  36.109  43.873   8.255
 6861POPC   C3A19169  36.158  43.933   7.955
 6861POPC   C4A19170  36.084  43.844   7.655
 6861POPC   C1B19171  35.934  44.045   8.555
 6861POPC   C2B19172  35.898  44.036   8.255
 6861POPC   C3B19173  35.878  44.019   7.955
 6861POPC   C4B19174  35.970  43.986   7.655
 6862POPC   NC319175  10.553  29.123   9.455
 6862POPC   PO419176  10.511  29.158   9.155
 6862POPC   GL119177  10.517  29.188   8.855
 6862POPC   GL219178  10.660  29.100   8.855
 6862POPC   C1A19179  10.506  29.193   8.555
 6862POPC   D2A19180  10.499  29.159   8.255
 6862POPC   C3A19181  10.559  29.138   7.955
 6862POPC   C4A19182  10.543  29.131   7.655
 6862POPC   C1B19183  10.819  29.184   8.555
 6862POPC   C2B19184  10.732  29.192   8.255
 6862POPC   C3B19185  10.782  29.132   7.955
 6862POPC   C4B19186  10.797  29.104   7.655
 6863POPC   NC319187  29.190  41.527   9.455
 6863POPC   PO419188  29.128  41.561   9.155
 6863POPC   GL119189  29.098  41.566   8.855
 6863POPC   GL219190  29.246  41.683   8.855
 6863POPC   C1A19191  29.163  41.547   8.555
 6863POPC   D2A19192  29.162  41.541   8.255
 6863POPC   C3A19193  29.183  41.583   7.955
 6863POPC   C4A19194  29.100  41.582   7.655
 6863POPC   C1B19195  29.320  41.749   8.555
 6863POPC   C2B19196  29.320  41.765   8.255
 6863POPC   C3B19197  29.292  41.821   7.955
 6863POPC   C4B19198  29.313  41.815   7.655
 6864POPC   NC319199   6.627  15.188   9.455
 6864POPC   PO419200   6.652  15.222   9.155
 6864POPC   GL119201   6.692  15.137   8.855
 6864POPC   GL219202   6.559  15.284   8.855
 6864POPC   C1A19203   6.653  15.161   8.555
 6864POPC   D2A19204   6.667  15.159   8.255
 6864POPC   C3A19205   6.688  15.216   7.955
 6864POPC   C4A19206   6.687  15.200   7.655
 6864POPC   C1B19207   6.428  15.340   8.555
 6864POPC   C2B19208   6.441  15.279   8.255
 6864POPC   C3B19209   6.412  15.268   7.955
 6864POPC   C4B19210   6.385  15.322   7.655
 6865POPC   NC319211  30.688  42.361   9.455
 6865POPC   PO419212  30.678  42.348   9.155
 6865POPC   GL119213  30.697  42.344   8.855
 6865POPC   GL219214  30.608  42.393   8.855
 6865POPC   C1A19215  30.740  42.299   8.555
 6865POPC   D2A19216  30.685  42.336   8.255
 6865POPC   C3A19217  30.713  42.379   7.955
 6865POPC   C4A19218  30.719  42.290   7.655
 6865POPC   C1B19219  30.495  42.397   8.555
 6865POPC   C2B19220  30.423  42.415   8.255
 6865POPC   C3B19221  30.463  42.456   7.955
 6865POPC   C4B19222  30.509  42.401   7.655
 6866POPC   NC319223  26.781  17.472   9.455
 6866POPC   PO419224  26.859  17.552   9.155
 6866POPC   GL119225  26.851  17.474   8.855
 6866POPC   GL219226  26.823  17.668   8.855
 6866POPC   C1A19227  26.860  17.516   8.555
 6866POPC   D2A19228  26.770  17.469   8.255
 6866POPC   C3A19229  26.825  17.532   7.955
 6866POPC   C4A19230  26.778  17.533   7.655
 6866POPC   C1B19231  26.894  17.759   8.555
 6866POPC   C2B19232  26.868  17.755   8.255
 6866POPC   C3B19233  26.927  17.735   7.955
 6866POPC   C4B19234  26.862  17.744   7.655
 6867POPC   NC319235   8.976  13.663   9.455
 6867POPC   PO419236   8.932  13.638   9.155
 6867POPC   GL119237   9.003  13.667   8.855
 6867POPC   GL219238   8.952  13.512   8.855
 6867POPC   C1A19239   8.988  13.598   8.555
 6867POPC   D2A19240   9.008  13.667   8.255
 6867POPC   C3A19241   8.971  13.616   7.955
 6867POPC   C4A19242   8.936  13.595   7.655
 6867POPC   C1B19243   8.824  13.387   8.555
 6867POPC   C2B19244   8.871  13.469   8.255
 6867POPC   C3B19245   8.790  13.421   7.955
 6867POPC   C4B19246   8.817  13.449   7.655
 6868POPC   NC319247  30.702  44.688   9.455
 6868POPC   PO419248  30.692  44.682   9.155
 6868POPC   GL119249  30.743  44.618   8.855
 6868POPC   GL219250  30.539  44.612   8.855
 6868POPC   C1A19251  30.727  44.684   8.555
 6868POPC   D2A19252  30.734  44.638   8.255
 6868POPC   C3A19253  30.739  44.640   7.955
 6868POPC   C4A19254  30.666  44.696   7.655
 6868POPC   C1B19255  30.425  44.649   8.555
 6868POPC   C2B19256  30.477  44.630   8.255
 6868POPC   C3B19257  30.465  44.628   7.955
 6868POPC   C4B19258  30.469  44.601   7.655
 6869POPC   NC319259  29.098  18.312   9.455
 6869POPC   PO419260  29.191  18.236   9.155
 6869POPC   GL119261  29.123  18.280   8.855
 6869POPC   GL219262  29.210  18.198   8.855
 6869POPC   C1A19263  29.152  18.247   8.555
 6869POPC   D2A19264  29.118  18.237   8.255
 6869POPC   C3A19265  29.176  18.328   7.955
 6869POPC   C4A19266  29.144  18.241   7.655
 6869POPC   C1B19267  29.145  18.009   8.555
 6869POPC   C2B19268  29.202  18.022   8.255
 6869POPC   C3B19269  29.231  18.002   7.955
 6869POPC   C4B19270  29.158  18.027   7.655
 6870POPC   NC319271  21.393  28.343   9.455
 6870POPC   PO419272  21.420  28.403   9.155
 6870POPC   GL119273  21.343  28.397   8.855
 6870POPC   GL219274  21.434  28.251   8.855
 6870POPC   C1A19275  21.361  28.407   8.555
 6870POPC   D2A19276  21.339  28.370   8.255
 6870POPC   C3A19277  21.401  28.390   7.955
 6870POPC   C4A19278  21.385  28.354   7.655
 6870POPC   C1B19279  21.595  28.196   8.555
 6870POPC   C2B19280  21.533  28.172   8.255
 6870POPC   C3B19281  21.562  28.157   7.955
 6870POPC   C4B19282  21.609  28.238   7.655
 6871POPC   NC319283  14.451  15.928   9.455
 6871POPC   PO419284  14.449  15.913   9.155
 6871POPC   GL119285  14.358  15.975   8.855
 6871POPC   GL219286  14.560  15.993   8.855
 6871POPC   C1A19287  14.395  15.926   8.555
 6871POPC   D2A19288  14.386  15.919   8.255
 6871POPC   C3A19289  14.380  15.938   7.955
 6871POPC   C4A19290  14.400  15.934   7.655
 6871POPC   C1B19291  14.702  15.983   8.555
 6871POPC   C2B19292  14.622  15.962   8.255
 6871POPC   C3B19293  14.613  16.003   7.955
 6871POPC   C4B19294  14.680  15.994   7.655
 6872POPC   NC319295  34.582  24.465   9.455
 6872POPC   PO419296  34.617  24.499   9.155
 6872POPC   GL119297  34.601  24.532   8.855
 6872POPC   GL219298  34.411  24.482   8.855
 6872POPC   C1A19299  34.559  24.469   8.555
 6872POPC   D2A19300  34.557  24.515   8.255
 6872POPC   C3A19301  34.609  24.448   7.955
 6872POPC   C4A19302  34.620  24.512   7.655
 6872POPC   C1B19303  34.369  24.556   8.555
 6872POPC   C2B19304  34.336  24.559   8.255
 6872POPC   C3B19305  34.291  24.467   7.955
 6872POPC   C4B19306  34.281  24.494   7.655
 6873POPC   NC319307  38.455  32.262   9.455
 6873POPC   PO419308  38.445  32.282   9.155
 6873POPC   GL119309  38.428  32.243   8.855
 6873POPC   GL219310  38.588  32.354   8.855
 6873POPC   C1A19311  38.424  32.256   8.555
 6873POPC   D2A19312  38.497  32.266   8.255
 6873POPC   C3A19313  38.494  32.202   7.955
 6873POPC   C4A19314  38.418  32.240   7.655
 6873POPC   C1B19315  38.585  32.405   8.555
 6873POPC   C2B19316  38.579  32.452   8.255
 6873POPC   C3B19317  38.631  32.452   7.955
 6873POPC   C4B19318  38.624  32.431   7.655
 6874POPC   NC319319  35.386  26.790   9.455
 6874POPC   PO419320  35.306  26.847   9.155
 6874POPC   GL119321  35.356  26.841   8.855
 6874POPC   GL219322  35.271  26.722   8.855
 6874POPC   C1A19323  35.376  26.781   8.555
 6874POPC   D2A19324  35.399  26.795   8.255
 6874POPC   C3A19325  35.381  26.772   7.955
 6874POPC   C4A19326  35.342  26.796   7.655
 6874POPC   C1B19327  35.165  26.608   8.555
 6874POPC   C2B19328  35.226  26.617   8.255
 6874POPC   C3B19329  35.200  26.657   7.955
 6874POPC   C4B19330  35.217  26.604   7.655
 6875POPC   NC319331  28.331  22.152   9.455
 6875POPC   PO419332  28.337  22.207   9.155
 6875POPC   GL119333  28.385  22.166   8.855
 6875POPC   GL219334  28.472  22.129   8.855
 6875POPC   C1A19335  28.340  22.123   8.555
 6875POPC   D2A19336  28.371  22.202   8.255
 6875POPC   C3A19337  28.379  22.204   7.955
 6875POPC   C4A19338  28.377  22.153   7.655
 6875POPC   C1B19339  28.585  22.074   8.555
 6875POPC   C2B19340  28.624  22.079   8.255
 6875POPC   C3B19341  28.619  22.043   7.955
 6875POPC   C4B19342  28.589  22.025   7.655
 6876POPC   NC319343  23.693  36.896   9.455
 6876POPC   PO419344  23.739  36.930   9.155
 6876POPC   GL119345  23.714  36.896   8.855
 6876POPC   GL219346  23.727  36.779   8.855
 6876POPC   C1A19347  23.667  36.912   8.555
 6876POPC   D2A19348  23.717  36.941   8.255
 6876POPC   C3A19349  23.735  36.881   7.955
 6876POPC   C4A19350  23.720  36.918   7.655
 6876POPC   C1B19351  23.831  36.665   8.555
 6876POPC   C2B19352  23.836  36.725   8.255
 6876POPC   C3B19353  23.787  36.660   7.955
 6876POPC   C4B19354  23.783  36.695   7.655
 6877POPC   NC319355   8.176   1.263   9.455
 6877POPC   PO419356   8.188   1.235   9.155
 6877POPC   GL119357   8.223   1.203   8.855
 6877POPC   GL219358   8.239   1.111   8.855
 6877POPC   C1A19359   8.232   1.240   8.555
 6877POPC   D2A19360   8.228   1.178   8.255
 6877POPC   C3A19361   8.154   1.233   7.955
 6877POPC   C4A19362   8.175   1.257   7.655
 6877POPC   C1B19363   8.302   0.990   8.555
 6877POPC   C2B19364   8.324   0.958   8.255
 6877POPC   C3B19365   8.363   1.049   7.955
 6877POPC   C4B19366   8.339   1.049   7.655
 6878POPC   NC319367   3.533  13.614   9.455
 6878POPC   PO419368   3.528  13.600   9.155
 6878POPC   GL119369   3.576  13.611   8.855
 6878POPC   GL219370   3.597  13.719   8.855
 6878POPC   C1A19371   3.512  13.626   8.555
 6878POPC   D2A19372   3.574  13.600   8.255
 6878POPC   C3A19373   3.574  13.622   7.955
 6878POPC   C4A19374   3.575  13.639   7.655
 6878POPC   C1B19375   3.575  13.885   8.555
 6878POPC   C2B19376   3.527  13.844   8.255
 6878POPC   C3B19377   3.562  13.902   7.955
 6878POPC   C4B19378   3.543  13.918   7.655
 6879POPC   NC319379  42.300  26.777   9.455
 6879POPC   PO419380  42.383  26.774   9.155
 6879POPC   GL119381  42.289  26.784   8.855
 6879POPC   GL219382  42.339  26.918   8.855
 6879POPC   C1A19383  42.341  26.784   8.555
 6879POPC   D2A19384  42.329  26.854   8.255
 6879POPC   C3A19385  42.319  26.860   7.955
 6879POPC   C4A19386  42.290  26.860   7.655
 6879POPC   C1B19387  42.397  27.063   8.555
 6879POPC   C2B19388  42.396  27.077   8.255
 6879POPC   C3B19389  42.441  27.088   7.955
 6879POPC   C4B19390  42.368  27.027   7.655
 6880POPC   NC319391  17.523  23.670   9.455
 6880POPC   PO419392  17.516  23.754   9.155
 6880POPC   GL119393  17.544  23.684   8.855
 6880POPC   GL219394  17.374  23.788   8.855
 6880POPC   C1A19395  17.534  23.742   8.555
 6880POPC   D2A19396  17.509  23.667   8.255
 6880POPC   C3A19397  17.520  23.689   7.955
 6880POPC   C4A19398  17.471  23.712   7.655
 6880POPC   C1B19399  17.333  23.862   8.555
 6880POPC   C2B19400  17.338  23.898   8.255
 6880POPC   C3B19401  17.253  23.863   7.955
 6880POPC   C4B19402  17.315  23.805   7.655
 6881POPC   NC319403  31.462  43.153   9.455
 6881POPC   PO419404  31.431  43.094   9.155
 6881POPC   GL119405  31.487  43.114   8.855
 6881POPC   GL219406  31.542  43.232   8.855
 6881POPC   C1A19407  31.437  43.095   8.555
 6881POPC   D2A19408  31.461  43.121   8.255
 6881POPC   C3A19409  31.520  43.090   7.955
 6881POPC   C4A19410  31.486  43.063   7.655
 6881POPC   C1B19411  31.579  43.332   8.555
 6881POPC   C2B19412  31.524  43.345   8.255
 6881POPC   C3B19413  31.580  43.338   7.955
 6881POPC   C4B19414  31.554  43.402   7.655
 6882POPC   NC319415   9.773   5.052   9.455
 6882POPC   PO419416   9.784   5.133   9.155
 6882POPC   GL119417   9.718   5.057   8.855
 6882POPC   GL219418   9.817   4.969   8.855
 6882POPC   C1A19419   9.753   5.085   8.555
 6882POPC   D2A19420   9.792   5.132   8.255
 6882POPC   C3A19421   9.746   5.055   7.955
 6882POPC   C4A19422   9.757   5.117   7.655
 6882POPC   C1B19423   9.822   4.846   8.555
 6882POPC   C2B19424   9.796   4.894   8.255
 6882POPC   C3B19425   9.782   4.825   7.955
 6882POPC   C4B19426   9.843   4.824   7.655
 6883POPC   NC319427   5.853  23.706   9.455
 6883POPC   PO419428   5.914  23.664   9.155
 6883POPC   GL119429   5.869  23.749   8.855
 6883POPC   GL219430   5.769  23.667   8.855
 6883POPC   C1A19431   5.915  23.764   8.555
 6883POPC   D2A19432   5.864  23.753   8.255
 6883POPC   C3A19433   5.841  23.681   7.955
 6883POPC   C4A19434   5.892  23.753   7.655
 6883POPC   C1B19435   5.571  23.751   8.555
 6883POPC   C2B19436   5.644  23.743   8.255
 6883POPC   C3B19437   5.624  23.708   7.955
 6883POPC   C4B19438   5.618  23.677   7.655
 6884POPC   NC319439  13.657  21.376   9.455
 6884POPC   PO419440  13.591  21.346   9.155
 6884POPC   GL119441  13.584  21.354   8.855
 6884POPC   GL219442  13.541  21.498   8.855
 6884POPC   C1A19443  13.647  21.395   8.555
 6884POPC   D2A19444  13.646  21.387   8.255
 6884POPC   C3A19445  13.607  21.353   7.955
 6884POPC   C4A19446  13.623  21.354   7.655
 6884POPC   C1B19447  13.434  21.546   8.555
 6884POPC   C2B19448  13.433  21.523   8.255
 6884POPC   C3B19449  13.439  21.563   7.955
 6884POPC   C4B19450  13.377  21.497   7.655
 6885POPC   NC319451  11.323  22.935   9.455
 6885POPC   PO419452  11.287  22.970   9.155
 6885POPC   GL119453  11.286  22.928   8.855
 6885POPC   GL219454  11.350  22.808   8.855
 6885POPC   C1A19455  11.259  22.962   8.555
 6885POPC   D2A19456  11.292  22.900   8.255
 6885POPC   C3A19457  11.285  22.899   7.955
 6885POPC   C4A19458  11.304  22.967   7.655
 6885POPC   C1B19459  11.305  22.656   8.555
 6885POPC   C2B19460  11.329  22.682   8.255
 6885POPC   C3B19461  11.372  22.734   7.955
 6885POPC   C4B19462  11.318  22.644   7.655
 6886POPC   NC319463  12.057  14.410   9.455
 6886POPC   PO419464  12.104  14.392   9.155
 6886POPC   GL119465  12.039  14.422   8.855
 6886POPC   GL219466  12.015  14.554   8.855
 6886POPC   C1A19467  12.104  14.452   8.555
 6886POPC   D2A19468  12.052  14.356   8.255
 6886POPC   C3A19469  12.062  14.402   7.955
 6886POPC   C4A19470  12.069  14.386   7.655
 6886POPC   C1B19471  12.040  14.606   8.555
 6886POPC   C2B19472  12.030  14.661   8.255
 6886POPC   C3B19473  12.014  14.607   7.955
 6886POPC   C4B19474  12.007  14.650   7.655
 6887POPC   NC319475  37.676   6.599   9.455
 6887POPC   PO419476  37.667   6.633   9.155
 6887POPC   GL119477  37.710   6.599   8.855
 6887POPC   GL219478  37.598   6.527   8.855
 6887POPC   C1A19479  37.676   6.661   8.555
 6887POPC   D2A19480  37.708   6.664   8.255
 6887POPC   C3A19481  37.659   6.681   7.955
 6887POPC   C4A19482  37.723   6.695   7.655
 6887POPC   C1B19483  37.531   6.445   8.555
 6887POPC   C2B19484  37.596   6.405   8.255
 6887POPC   C3B19485  37.557   6.399   7.955
 6887POPC   C4B19486  37.600   6.433   7.655
 6888POPC   NC319487   9.005  41.591   9.455
 6888POPC   PO419488   8.943  41.525   9.155
 6888POPC   GL119489   8.978  41.509   8.855
 6888POPC   GL219490   8.886  41.543   8.855
 6888POPC   C1A19491   8.924  41.544   8.555
 6888POPC   D2A19492   8.953  41.594   8.255
 6888POPC   C3A19493   8.967  41.525   7.955
 6888POPC   C4A19494   9.003  41.580   7.655
 6888POPC   C1B19495   8.709  41.615   8.555
 6888POPC   C2B19496   8.770  41.590   8.255
 6888POPC   C3B19497   8.760  41.567   7.955
 6888POPC   C4B19498   8.689  41.616   7.655
 6889POPC   NC319499  44.655  12.871   9.455
 6889POPC   PO419500  44.646  12.844   9.155
 6889POPC   GL119501  44.623  12.867   8.855
 6889POPC   GL219502  44.704  12.890   8.855
 6889POPC   C1A19503  44.690  12.845   8.555
 6889POPC   D2A19504  44.692  12.895   8.255
 6889POPC   C3A19505  44.710  12.843   7.955
 6889POPC   C4A19506  44.647  12.864   7.655
 6889POPC   C1B19507  44.828  12.999   8.555
 6889POPC   C2B19508  44.883  13.053   8.255
 6889POPC   C3B19509  44.872  13.055   7.955
 6889POPC   C4B19510  44.807  13.006   7.655
 6890POPC   NC319511  25.297  10.498   9.455
 6890POPC   PO419512  25.283  10.547   9.155
 6890POPC   GL119513  25.232  10.563   8.855
 6890POPC   GL219514  25.379  10.489   8.855
 6890POPC   C1A19515  25.301  10.497   8.555
 6890POPC   D2A19516  25.253  10.523   8.255
 6890POPC   C3A19517  25.237  10.523   7.955
 6890POPC   C4A19518  25.251  10.487   7.655
 6890POPC   C1B19519  25.437  10.369   8.555
 6890POPC   C2B19520  25.466  10.363   8.255
 6890POPC   C3B19521  25.433  10.353   7.955
 6890POPC   C4B19522  25.517  10.371   7.655
 6891POPC   NC319523   8.930   1.228   9.455
 6891POPC   PO419524   8.963   1.255   9.155
 6891POPC   GL119525   8.981   1.171   8.855
 6891POPC   GL219526   8.971   1.296   8.855
 6891POPC   C1A19527   8.928   1.180   8.555
 6891POPC   D2A19528   8.984   1.259   8.255
 6891POPC   C3A19529   8.926   1.228   7.955
 6891POPC   C4A19530   8.953   1.216   7.655
 6891POPC   C1B19531   8.973   1.511   8.555
 6891POPC   C2B19532   8.921   1.457   8.255
 6891POPC   C3B19533   8.960   1.500   7.955
 6891POPC   C4B19534   8.904   1.508   7.655
 6892POPC   NC319535  13.610  43.849   9.455
 6892POPC   PO419536  13.592  43.936   9.155
 6892POPC   GL119537  13.642  43.935   8.855
 6892POPC   GL219538  13.665  44.057   8.855
 6892POPC   C1A19539  13.674  43.844   8.555
 6892POPC   D2A19540  13.624  43.881   8.255
 6892POPC   C3A19541  13.614  43.848   7.955
 6892POPC   C4A19542  13.643  43.903   7.655
 6892POPC   C1B19543  13.604  44.109   8.555
 6892POPC   C2B19544  13.637  44.131   8.255
 6892POPC   C3B19545  13.584  44.147   7.955
 6892POPC   C4B19546  13.611  44.134   7.655
 6893POPC   NC319547   5.109   3.590   9.455
 6893POPC   PO419548   5.064   3.545   9.155
 6893POPC   GL119549   5.110   3.537   8.855
 6893POPC   GL219550   4.933   3.513   8.855
 6893POPC   C1A19551   5.108   3.540   8.555
 6893POPC   D2A19552   5.090   3.496   8.255
 6893POPC   C3A19553   5.134   3.535   7.955
 6893POPC   C4A19554   5.071   3.513   7.655
 6893POPC   C1B19555   4.899   3.529   8.555
 6893POPC   C2B19556   4.847   3.485   8.255
 6893POPC   C3B19557   4.829   3.518   7.955
 6893POPC   C4B19558   4.865   3.498   7.655
 6894POPC   NC319559  43.160  15.157   9.455
 6894POPC   PO419560  43.096  15.195   9.155
 6894POPC   GL119561  43.089  15.187   8.855
 6894POPC   GL219562  43.069  15.267   8.855
 6894POPC   C1A19563  43.153  15.200   8.555
 6894POPC   D2A19564  43.067  15.178   8.255
 6894POPC   C3A19565  43.097  15.165   7.955
 6894POPC   C4A19566  43.141  15.181   7.655
 6894POPC   C1B19567  43.035  15.387   8.555
 6894POPC   C2B19568  43.045  15.394   8.255
 6894POPC   C3B19569  43.031  15.376   7.955
 6894POPC   C4B19570  43.057  15.374   7.655
 6895POPC   NC319571  33.013  34.546   9.455
 6895POPC   PO419572  33.073  34.575   9.155
 6895POPC   GL119573  33.069  34.568   8.855
 6895POPC   GL219574  32.980  34.694   8.855
 6895POPC   C1A19575  32.982  34.572   8.555
 6895POPC   D2A19576  32.974  34.605   8.255
 6895POPC   C3A19577  33.044  34.616   7.955
 6895POPC   C4A19578  33.006  34.585   7.655
 6895POPC   C1B19579  32.917  34.825   8.555
 6895POPC   C2B19580  32.903  34.822   8.255
 6895POPC   C3B19581  32.891  34.776   7.955
 6895POPC   C4B19582  32.860  34.728   7.655
 6896POPC   NC319583  43.883  25.993   9.455
 6896POPC   PO419584  43.923  26.071   9.155
 6896POPC   GL119585  43.905  26.044   8.855
 6896POPC   GL219586  43.953  26.082   8.855
 6896POPC   C1A19587  43.874  25.994   8.555
 6896POPC   D2A19588  43.853  26.087   8.255
 6896POPC   C3A19589  43.841  26.054   7.955
 6896POPC   C4A19590  43.890  26.047   7.655
 6896POPC   C1B19591  44.081  26.157   8.555
 6896POPC   C2B19592  44.105  26.243   8.255
 6896POPC   C3B19593  44.095  26.178   7.955
 6896POPC   C4B19594  44.085  26.188   7.655
 6897POPC   NC319595  44.685  15.947   9.455
 6897POPC   PO419596  44.681  15.949   9.155
 6897POPC   GL119597  44.710  15.983   8.855
 6897POPC   GL219598  44.704  16.037   8.855
 6897POPC   C1A19599  44.660  16.001   8.555
 6897POPC   D2A19600  44.711  15.911   8.255
 6897POPC   C3A19601  44.641  15.936   7.955
 6897POPC   C4A19602  44.705  15.980   7.655
 6897POPC   C1B19603  44.714  16.226   8.555
 6897POPC   C2B19604  44.648  16.175   8.255
 6897POPC   C3B19605  44.667  16.208   7.955
 6897POPC   C4B19606  44.734  16.181   7.655
 6898POPC   NC319607  41.555  17.509   9.455
 6898POPC   PO419608  41.563  17.488   9.155
 6898POPC   GL119609  41.515  17.495   8.855
 6898POPC   GL219610  41.504  17.348   8.855
 6898POPC   C1A19611  41.563  17.544   8.555
 6898POPC   D2A19612  41.531  17.548   8.255
 6898POPC   C3A19613  41.565  17.536   7.955
 6898POPC   C4A19614  41.511  17.510   7.655
 6898POPC   C1B19615  41.440  17.321   8.555
 6898POPC   C2B19616  41.504  17.241   8.255
 6898POPC   C3B19617  41.485  17.259   7.955
 6898POPC   C4B19618  41.450  17.233   7.655
 6899POPC   NC319619  19.043  15.992   9.455
 6899POPC   PO419620  19.013  15.933   9.155
 6899POPC   GL119621  19.047  15.912   8.855
 6899POPC   GL219622  19.210  15.871   8.855
 6899POPC   C1A19623  19.057  15.989   8.555
 6899POPC   D2A19624  19.082  15.980   8.255
 6899POPC   C3A19625  19.076  15.980   7.955
 6899POPC   C4A19626  19.107  16.000   7.655
 6899POPC   C1B19627  19.314  15.797   8.555
 6899POPC   C2B19628  19.241  15.822   8.255
 6899POPC   C3B19629  19.283  15.796   7.955
 6899POPC   C4B19630  19.306  15.807   7.655
 6900POPC   NC319631  39.983   4.298   9.455
 6900POPC   PO419632  39.979   4.319   9.155
 6900POPC   GL119633  40.034   4.353   8.855
 6900POPC   GL219634  40.020   4.163   8.855
 6900POPC   C1A19635  39.979   4.341   8.555
 6900POPC   D2A19636  40.054   4.324   8.255
 6900POPC   C3A19637  39.963   4.291   7.955
 6900POPC   C4A19638  40.025   4.306   7.655
 6900POPC   C1B19639  40.046   4.107   8.555
 6900POPC   C2B19640  40.032   4.071   8.255
 6900POPC   C3B19641  40.013   4.019   7.955
 6900POPC   C4B19642  40.056   4.035   7.655
 6901POPC   NC319643  10.478  43.070   9.455
 6901POPC   PO419644  10.546  43.064   9.155
 6901POPC   GL119645  10.558  43.063   8.855
 6901POPC   GL219646  10.436  43.206   8.855
 6901POPC   C1A19647  10.508  43.144   8.555
 6901POPC   D2A19648  10.574  43.113   8.255
 6901POPC   C3A19649  10.572  43.095   7.955
 6901POPC   C4A19650  10.535  43.077   7.655
 6901POPC   C1B19651  10.328  43.298   8.555
 6901POPC   C2B19652  10.284  43.224   8.255
 6901POPC   C3B19653  10.319  43.281   7.955
 6901POPC   C4B19654  10.302  43.258   7.655
 6902POPC   NC319655  22.191  39.231   9.455
 6902POPC   PO419656  22.184  39.196   9.155
 6902POPC   GL119657  22.186  39.270   8.855
 6902POPC   GL219658  22.262  39.085   8.855
 6902POPC   C1A19659  22.185  39.225   8.555
 6902POPC   D2A19660  22.165  39.255   8.255
 6902POPC   C3A19661  22.194  39.263   7.955
 6902POPC   C4A19662  22.195  39.242   7.655
 6902POPC   C1B19663  22.289  38.995   8.555
 6902POPC   C2B19664  22.308  39.010   8.255
 6902POPC   C3B19665  22.314  39.010   7.955
 6902POPC   C4B19666  22.307  38.985   7.655
 6903POPC   NC319667  31.469  15.141   9.455
 6903POPC   PO419668  31.470  15.207   9.155
 6903POPC   GL119669  31.474  15.146   8.855
 6903POPC   GL219670  31.533  15.286   8.855
 6903POPC   C1A19671  31.433  15.195   8.555
 6903POPC   D2A19672  31.482  15.206   8.255
 6903POPC   C3A19673  31.441  15.149   7.955
 6903POPC   C4A19674  31.433  15.229   7.655
 6903POPC   C1B19675  31.688  15.326   8.555
 6903POPC   C2B19676  31.675  15.354   8.255
 6903POPC   C3B19677  31.639  15.292   7.955
 6903POPC   C4B19678  31.718  15.378   7.655
 6904POPC   NC319679  19.840  20.609   9.455
 6904POPC   PO419680  19.814  20.659   9.155
 6904POPC   GL119681  19.853  20.612   8.855
 6904POPC   GL219682  19.905  20.713   8.855
 6904POPC   C1A19683  19.871  20.623   8.555
 6904POPC   D2A19684  19.816  20.638   8.255
 6904POPC   C3A19685  19.818  20.624   7.955
 6904POPC   C4A19686  19.876  20.561   7.655
 6904POPC   C1B19687  19.909  20.905   8.555
 6904POPC   C2B19688  19.916  20.812   8.255
 6904POPC   C3B19689  19.861  20.860   7.955
 6904POPC   C4B19690  19.867  20.855   7.655
 6905POPC   NC319691  32.204   1.951   9.455
 6905POPC   PO419692  32.280   1.954   9.155
 6905POPC   GL119693  32.244   1.946   8.855
 6905POPC   GL219694  32.167   2.094   8.855
 6905POPC   C1A19695  32.234   1.994   8.555
 6905POPC   D2A19696  32.211   2.017   8.255
 6905POPC   C3A19697  32.240   1.972   7.955
 6905POPC   C4A19698  32.244   1.990   7.655
 6905POPC   C1B19699  32.154   2.187   8.555
 6905POPC   C2B19700  32.169   2.225   8.255
 6905POPC   C3B19701  32.145   2.205   7.955
 6905POPC   C4B19702  32.180   2.212   7.655
 6906POPC   NC319703  29.890  16.004   9.455
 6906POPC   PO419704  29.917  15.983   9.155
 6906POPC   GL119705  29.877  16.003   8.855
 6906POPC   GL219706  29.960  16.016   8.855
 6906POPC   C1A19707  29.961  15.951   8.555
 6906POPC   D2A19708  29.967  15.949   8.255
 6906POPC   C3A19709  29.933  16.002   7.955
 6906POPC   C4A19710  29.936  15.990   7.655
 6906POPC   C1B19711  30.073  16.140   8.555
 6906POPC   C2B19712  30.029  16.143   8.255
 6906POPC   C3B19713  30.039  16.154   7.955
 6906POPC   C4B19714  30.030  16.189   7.655
 6907POPC   NC319715  39.960  43.892   9.455
 6907POPC   PO419716  39.966  43.914   9.155
 6907POPC   GL119717  40.028  43.859   8.855
 6907POPC   GL219718  39.849  43.903   8.855
 6907POPC   C1A19719  40.045  43.889   8.555
 6907POPC   D2A19720  40.046  43.915   8.255
 6907POPC   C3A19721  39.963  43.898   7.955
 6907POPC   C4A19722  39.985  43.837   7.655
 6907POPC   C1B19723  39.750  44.003   8.555
 6907POPC   C2B19724  39.726  43.989   8.255
 6907POPC   C3B19725  39.810  43.915   7.955
 6907POPC   C4B19726  39.751  43.932   7.655
 6908POPC   NC319727   2.017  44.652   9.455
 6908POPC   PO419728   1.985  44.707   9.155
 6908POPC   GL119729   1.957  44.666   8.855
 6908POPC   GL219730   1.862  44.632   8.855
 6908POPC   C1A19731   1.986  44.652   8.555
 6908POPC   D2A19732   1.959  44.668   8.255
 6908POPC   C3A19733   2.037  44.652   7.955
 6908POPC   C4A19734   2.011  44.639   7.655
 6908POPC   C1B19735   1.699  44.603   8.555
 6908POPC   C2B19736   1.789  44.573   8.255
 6908POPC   C3B19737   1.726  44.638   7.955
 6908POPC   C4B19738   1.758  44.621   7.655
 6909POPC   NC319739   3.534   6.623   9.455
 6909POPC   PO419740   3.553   6.634   9.155
 6909POPC   GL119741   3.549   6.653   8.855
 6909POPC   GL219742   3.695   6.724   8.855
 6909POPC   C1A19743   3.584   6.677   8.555
 6909POPC   D2A19744   3.502   6.620   8.255
 6909POPC   C3A19745   3.573   6.624   7.955
 6909POPC   C4A19746   3.502   6.667   7.655
 6909POPC   C1B19747   3.795   6.729   8.555
 6909POPC   C2B19748   3.784   6.781   8.255
 6909POPC   C3B19749   3.757   6.792   7.955
 6909POPC   C4B19750   3.765   6.812   7.655
 6910POPC   NC319751  16.742  42.360   9.455
 6910POPC   PO419752  16.715  42.300   9.155
 6910POPC   GL119753  16.727  42.349   8.855
 6910POPC   GL219754  16.803  42.393   8.855
 6910POPC   C1A19755  16.732  42.310   8.555
 6910POPC   D2A19756  16.682  42.384   8.255
 6910POPC   C3A19757  16.688  42.363   7.955
 6910POPC   C4A19758  16.759  42.308   7.655
 6910POPC   C1B19759  16.857  42.546   8.555
 6910POPC   C2B19760  16.818  42.545   8.255
 6910POPC   C3B19761  16.883  42.528   7.955
 6910POPC   C4B19762  16.842  42.571   7.655
 6911POPC   NC319763  13.651  28.373   9.455
 6911POPC   PO419764  13.668  28.387   9.155
 6911POPC   GL119765  13.596  28.349   8.855
 6911POPC   GL219766  13.696  28.499   8.855
 6911POPC   C1A19767  13.628  28.369   8.555
 6911POPC   D2A19768  13.664  28.399   8.255
 6911POPC   C3A19769  13.619  28.391   7.955
 6911POPC   C4A19770  13.625  28.353   7.655
 6911POPC   C1B19771  13.742  28.612   8.555
 6911POPC   C2B19772  13.787  28.533   8.255
 6911POPC   C3B19773  13.732  28.567   7.955
 6911POPC   C4B19774  13.737  28.579   7.655
 6912POPC   NC319775  30.689  22.963   9.455
 6912POPC   PO419776  30.694  22.955   9.155
 6912POPC   GL119777  30.649  22.985   8.855
 6912POPC   GL219778  30.596  23.028   8.855
 6912POPC   C1A19779  30.701  22.977   8.555
 6912POPC   D2A19780  30.666  22.925   8.255
 6912POPC   C3A19781  30.674  22.978   7.955
 6912POPC   C4A19782  30.724  22.987   7.655
 6912POPC   C1B19783  30.626  23.130   8.555
 6912POPC   C2B19784  30.609  23.126   8.255
 6912POPC   C3B19785  30.569  23.174   7.955
 6912POPC   C4B19786  30.640  23.208   7.655
 6913POPC   NC319787  26.788  19.088   9.455
 6913POPC   PO419788  26.794  19.073   9.155
 6913POPC   GL119789  26.853  19.027   8.855
 6913POPC   GL219790  26.915  19.034   8.855
 6913POPC   C1A19791  26.808  19.090   8.555
 6913POPC   D2A19792  26.770  19.087   8.255
 6913POPC   C3A19793  26.804  19.030   7.955
 6913POPC   C4A19794  26.776  19.108   7.655
 6913POPC   C1B19795  27.025  18.947   8.555
 6913POPC   C2B19796  27.050  18.964   8.255
 6913POPC   C3B19797  27.019  18.988   7.955
 6913POPC   C4B19798  27.103  19.006   7.655
 6914POPC   NC319799  38.502  14.377   9.455
 6914POPC   PO419800  38.500  14.436   9.155
 6914POPC   GL119801  38.448  14.375   8.855
 6914POPC   GL219802  38.461  14.508   8.855
 6914POPC   C1A19803  38.504  14.358   8.555
 6914POPC   D2A19804  38.452  14.358   8.255
 6914POPC   C3A19805  38.473  14.424   7.955
 6914POPC   C4A19806  38.462  14.358   7.655
 6914POPC   C1B19807  38.515  14.647   8.555
 6914POPC   C2B19808  38.466  14.630   8.255
 6914POPC   C3B19809  38.527  14.634   7.955
 6914POPC   C4B19810  38.562  14.617   7.655
 6915POPC   NC319811   2.018  26.013   9.455
 6915POPC   PO419812   1.960  26.017   9.155
 6915POPC   GL119813   1.970  26.021   8.855
 6915POPC   GL219814   1.910  25.991   8.855
 6915POPC   C1A19815   1.978  26.013   8.555
 6915POPC   D2A19816   1.946  26.042   8.255
 6915POPC   C3A19817   1.993  25.996   7.955
 6915POPC   C4A19818   2.035  26.054   7.655
 6915POPC   C1B19819   1.767  25.837   8.555
 6915POPC   C2B19820   1.776  25.858   8.255
 6915POPC   C3B19821   1.814  25.863   7.955
 6915POPC   C4B19822   1.776  25.844   7.655
 6916POPC   NC319823   9.749   9.716   9.455
 6916POPC   PO419824   9.716   9.725   9.155
 6916POPC   GL119825   9.770   9.773   8.855
 6916POPC   GL219826   9.653   9.826   8.855
 6916POPC   C1A19827   9.753   9.755   8.555
 6916POPC   D2A19828   9.757   9.798   8.255
 6916POPC   C3A19829   9.743   9.795   7.955
 6916POPC   C4A19830   9.750   9.792   7.655
 6916POPC   C1B19831   9.542   9.904   8.555
 6916POPC   C2B19832   9.570   9.956   8.255
 6916POPC   C3B19833   9.614   9.928   7.955
 6916POPC   C4B19834   9.529   9.933   7.655
 6917POPC   NC319835  18.308  12.060   9.455
 6917POPC   PO419836  18.271  12.055   9.155
 6917POPC   GL119837  18.300  12.090   8.855
 6917POPC   GL219838  18.226  12.041   8.855
 6917POPC   C1A19839  18.301  12.032   8.555
 6917POPC   D2A19840  18.234  12.051   8.255
 6917POPC   C3A19841  18.320  12.112   7.955
 6917POPC   C4A19842  18.277  12.073   7.655
 6917POPC   C1B19843  18.134  11.964   8.555
 6917POPC   C2B19844  18.086  11.957   8.255
 6917POPC   C3B19845  18.090  11.898   7.955
 6917POPC   C4B19846  18.068  11.884   7.655
 6918POPC   NC319847   8.227   9.743   9.455
 6918POPC   PO419848   8.240   9.747   9.155
 6918POPC   GL119849   8.178   9.703   8.855
 6918POPC   GL219850   8.088   9.697   8.855
 6918POPC   C1A19851   8.236   9.784   8.555
 6918POPC   D2A19852   8.209   9.717   8.255
 6918POPC   C3A19853   8.246   9.715   7.955
 6918POPC   C4A19854   8.214   9.719   7.655
 6918POPC   C1B19855   7.964   9.701   8.555
 6918POPC   C2B19856   7.939   9.674   8.255
 6918POPC   C3B19857   7.906   9.743   7.955
 6918POPC   C4B19858   7.931   9.711   7.655
 6919POPC   NC319859  28.338  43.132   9.455
 6919POPC   PO419860  28.402  43.150   9.155
 6919POPC   GL119861  28.352  43.062   8.855
 6919POPC   GL219862  28.375  42.967   8.855
 6919POPC   C1A19863  28.398  43.134   8.555
 6919POPC   D2A19864  28.327  43.077   8.255
 6919POPC   C3A19865  28.322  43.101   7.955
 6919POPC   C4A19866  28.328  43.081   7.655
 6919POPC   C1B19867  28.373  42.843   8.555
 6919POPC   C2B19868  28.359  42.832   8.255
 6919POPC   C3B19869  28.360  42.818   7.955
 6919POPC   C4B19870  28.403  42.825   7.655
 6920POPC   NC319871  12.894  29.186   9.455
 6920POPC   PO419872  12.898  29.142   9.155
 6920POPC   GL119873  12.807  29.136   8.855
 6920POPC   GL219874  12.845  29.020   8.855
 6920POPC   C1A19875  12.827  29.103   8.555
 6920POPC   D2A19876  12.848  29.130   8.255
 6920POPC   C3A19877  12.899  29.163   7.955
 6920POPC   C4A19878  12.865  29.120   7.655
 6920POPC   C1B19879  12.829  28.873   8.555
 6920POPC   C2B19880  12.742  28.915   8.255
 6920POPC   C3B19881  12.736  28.937   7.955
 6920POPC   C4B19882  12.753  28.905   7.655
 6921POPC   NC319883  28.419  15.906   9.455
 6921POPC   PO419884  28.405  15.941   9.155
 6921POPC   GL119885  28.397  15.916   8.855
 6921POPC   GL219886  28.444  16.002   8.855
 6921POPC   C1A19887  28.418  15.962   8.555
 6921POPC   D2A19888  28.384  16.001   8.255
 6921POPC   C3A19889  28.419  15.960   7.955
 6921POPC   C4A19890  28.328  15.950   7.655
 6921POPC   C1B19891  28.588  16.015   8.555
 6921POPC   C2B19892  28.618  16.045   8.255
 6921POPC   C3B19893  28.578  16.064   7.955
 6921POPC   C4B19894  28.610  16.017   7.655
 6922POPC   NC319895  43.085   4.353   9.455
 6922POPC   PO419896  43.101   4.322   9.155
 6922POPC   GL119897  43.113   4.310   8.855
 6922POPC   GL219898  43.140   4.414   8.855
 6922POPC   C1A19899  43.120   4.356   8.555
 6922POPC   D2A19900  43.068   4.351   8.255
 6922POPC   C3A19901  43.160   4.342   7.955
 6922POPC   C4A19902  43.159   4.270   7.655
 6922POPC   C1B19903  43.099   4.562   8.555
 6922POPC   C2B19904  43.088   4.523   8.255
 6922POPC   C3B19905  43.099   4.597   7.955
 6922POPC   C4B19906  43.088   4.518   7.655
 6923POPC   NC319907   7.394  21.350   9.455
 6923POPC   PO419908   7.438  21.374   9.155
 6923POPC   GL119909   7.399  21.341   8.855
 6923POPC   GL219910   7.266  21.366   8.855
 6923POPC   C1A19911   7.397  21.372   8.555
 6923POPC   D2A19912   7.413  21.337   8.255
 6923POPC   C3A19913   7.374  21.432   7.955
 6923POPC   C4A19914   7.381  21.425   7.655
 6923POPC   C1B19915   7.152  21.416   8.555
 6923POPC   C2B19916   7.215  21.417   8.255
 6923POPC   C3B19917   7.147  21.448   7.955
 6923POPC   C4B19918   7.200  21.394   7.655
 6924POPC   NC319919  11.341  40.747   9.455
 6924POPC   PO419920  11.332  40.754   9.155
 6924POPC   GL119921  11.336  40.780   8.855
 6924POPC   GL219922  11.383  40.660   8.855
 6924POPC   C1A19923  11.279  40.776   8.555
 6924POPC   D2A19924  11.264  40.781   8.255
 6924POPC   C3A19925  11.329  40.801   7.955
 6924POPC   C4A19926  11.272  40.776   7.655
 6924POPC   C1B19927  11.382  40.538   8.555
 6924POPC   C2B19928  11.424  40.592   8.255
 6924POPC   C3B19929  11.406  40.581   7.955
 6924POPC   C4B19930  11.448  40.543   7.655
 6925POPC   NC319931  36.927  44.708   9.455
 6925POPC   PO419932  36.900  44.663   9.155
 6925POPC   GL119933  36.907  44.678   8.855
 6925POPC   GL219934  36.862  44.580   8.855
 6925POPC   C1A19935  36.882  44.624   8.555
 6925POPC   D2A19936  36.902  44.644   8.255
 6925POPC   C3A19937  36.875  44.684   7.955
 6925POPC   C4A19938  36.911  44.646   7.655
 6925POPC   C1B19939  36.774  44.456   8.555
 6925POPC   C2B19940  36.745  44.463   8.255
 6925POPC   C3B19941  36.777  44.489   7.955
 6925POPC   C4B19942  36.806  44.424   7.655
 6926POPC   NC319943  20.594  17.499   9.455
 6926POPC   PO419944  20.657  17.551   9.155
 6926POPC   GL119945  20.566  17.519   8.855
 6926POPC   GL219946  20.510  17.585   8.855
 6926POPC   C1A19947  20.656  17.538   8.555
 6926POPC   D2A19948  20.629  17.507   8.255
 6926POPC   C3A19949  20.594  17.512   7.955
 6926POPC   C4A19950  20.657  17.536   7.655
 6926POPC   C1B19951  20.399  17.583   8.555
 6926POPC   C2B19952  20.364  17.638   8.255
 6926POPC   C3B19953  20.353  17.577   7.955
 6926POPC   C4B19954  20.414  17.564   7.655
 6927POPC   NC319955   8.224  44.667   9.455
 6927POPC   PO419956   8.157  44.616   9.155
 6927POPC   GL119957   8.191  44.705   8.855
 6927POPC   GL219958   8.342  44.576   8.855
 6927POPC   C1A19959   8.175  44.696   8.555
 6927POPC   D2A19960   8.173  44.612   8.255
 6927POPC   C3A19961   8.178  44.668   7.955
 6927POPC   C4A19962   8.183  44.618   7.655
 6927POPC   C1B19963   8.388  44.609   8.555
 6927POPC   C2B19964   8.417  44.613   8.255
 6927POPC   C3B19965   8.429  44.567   7.955
 6927POPC   C4B19966   8.421  44.577   7.655
 6928POPC   NC319967  24.530  40.787   9.455
 6928POPC   PO419968  24.489  40.773   9.155
 6928POPC   GL119969  24.473  40.783   8.855
 6928POPC   GL219970  24.572  40.666   8.855
 6928POPC   C1A19971  24.538  40.737   8.555
 6928POPC   D2A19972  24.511  40.772   8.255
 6928POPC   C3A19973  24.501  40.796   7.955
 6928POPC   C4A19974  24.478  40.806   7.655
 6928POPC   C1B19975  24.675  40.581   8.555
 6928POPC   C2B19976  24.605  40.528   8.255
 6928POPC   C3B19977  24.632  40.566   7.955
 6928POPC   C4B19978  24.623  40.563   7.655
 6929POPC   NC319979  31.469  24.495   9.455
 6929POPC   PO419980  31.446  24.518   9.155
 6929POPC   GL119981  31.439  24.464   8.855
 6929POPC   GL219982  31.358  24.433   8.855
 6929POPC   C1A19983  31.433  24.473   8.555
 6929POPC   D2A19984  31.443  24.441   8.255
 6929POPC   C3A19985  31.467  24.451   7.955
 6929POPC   C4A19986  31.437  24.486   7.655
 6929POPC   C1B19987  31.307  24.377   8.555
 6929POPC   C2B19988  31.324  24.324   8.255
 6929POPC   C3B19989  31.284  24.364   7.955
 6929POPC   C4B19990  31.275  24.308   7.655
 6930POPC   NC319991   4.317  27.627   9.455
 6930POPC   PO419992   4.278  27.569   9.155
 6930POPC   GL119993   4.318  27.641   8.855
 6930POPC   GL219994   4.333  27.435   8.855
 6930POPC   C1A19995   4.268  27.576   8.555
 6930POPC   D2A19996   4.278  27.578   8.255
 6930POPC   C3A19997   4.316  27.605   7.955
 6930POPC   C4A19998   4.270  27.561   7.655
 6930POPC   C1B19999   4.379  27.307   8.555
 6930POPC   C2B20000   4.314  27.316   8.255
 6930POPC   C3B20001   4.379  27.326   7.955
 6930POPC   C4B20002   4.306  27.336   7.655
 6931POPC   NC320003  22.138  36.930   9.455
 6931POPC   PO420004  22.187  36.932   9.155
 6931POPC   GL120005  22.177  36.868   8.855
 6931POPC   GL220006  22.314  36.943   8.855
 6931POPC   C1A20007  22.182  36.940   8.555
 6931POPC   D2A20008  22.149  36.912   8.255
 6931POPC   C3A20009  22.140  36.865   7.955
 6931POPC   C4A20010  22.170  36.904   7.655
 6931POPC   C1B20011  22.360  36.974   8.555
 6931POPC   C2B20012  22.424  36.972   8.255
 6931POPC   C3B20013  22.391  37.050   7.955
 6931POPC   C4B20014  22.432  36.982   7.655
 6932POPC   NC320015  20.656  26.042   9.455
 6932POPC   PO420016  20.578  26.019   9.155
 6932POPC   GL120017  20.593  26.076   8.855
 6932POPC   GL220018  20.641  25.873   8.855
 6932POPC   C1A20019  20.647  26.075   8.555
 6932POPC   D2A20020  20.580  26.078   8.255
 6932POPC   C3A20021  20.628  26.014   7.955
 6932POPC   C4A20022  20.584  26.086   7.655
 6932POPC   C1B20023  20.674  25.785   8.555
 6932POPC   C2B20024  20.666  25.825   8.255
 6932POPC   C3B20025  20.602  25.755   7.955
 6932POPC   C4B20026  20.612  25.746   7.655
 6933POPC   NC320027  20.656  37.647   9.455
 6933POPC   PO420028  20.582  37.708   9.155
 6933POPC   GL120029  20.570  37.683   8.855
 6933POPC   GL220030  20.503  37.819   8.855
 6933POPC   C1A20031  20.657  37.643   8.555
 6933POPC   D2A20032  20.604  37.726   8.255
 6933POPC   C3A20033  20.617  37.687   7.955
 6933POPC   C4A20034  20.625  37.667   7.655
 6933POPC   C1B20035  20.473  37.876   8.555
 6933POPC   C2B20036  20.432  37.844   8.255
 6933POPC   C3B20037  20.459  37.883   7.955
 6933POPC   C4B20038  20.447  37.837   7.655
 6934POPC   NC320039  19.029  41.580   9.455
 6934POPC   PO420040  19.009  41.520   9.155
 6934POPC   GL120041  19.036  41.534   8.855
 6934POPC   GL220042  19.120  41.640   8.855
 6934POPC   C1A20043  19.030  41.511   8.555
 6934POPC   D2A20044  19.039  41.587   8.255
 6934POPC   C3A20045  19.011  41.586   7.955
 6934POPC   C4A20046  19.055  41.601   7.655
 6934POPC   C1B20047  19.150  41.754   8.555
 6934POPC   C2B20048  19.077  41.777   8.255
 6934POPC   C3B20049  19.070  41.789   7.955
 6934POPC   C4B20050  19.161  41.775   7.655
 6935POPC   NC320051  33.800  35.396   9.455
 6935POPC   PO420052  33.797  35.391   9.155
 6935POPC   GL120053  33.845  35.312   8.855
 6935POPC   GL220054  33.894  35.379   8.855
 6935POPC   C1A20055  33.771  35.336   8.555
 6935POPC   D2A20056  33.788  35.309   8.255
 6935POPC   C3A20057  33.787  35.390   7.955
 6935POPC   C4A20058  33.805  35.347   7.655
 6935POPC   C1B20059  34.041  35.262   8.555
 6935POPC   C2B20060  34.048  35.275   8.255
 6935POPC   C3B20061  34.057  35.353   7.955
 6935POPC   C4B20062  34.029  35.335   7.655
 6936POPC   NC320063  16.003  19.878   9.455
 6936POPC   PO420064  15.917  19.814   9.155
 6936POPC   GL120065  15.978  19.865   8.855
 6936POPC   GL220066  15.806  19.873   8.855
 6936POPC   C1A20067  15.982  19.852   8.555
 6936POPC   D2A20068  15.920  19.868   8.255
 6936POPC   C3A20069  15.955  19.824   7.955
 6936POPC   C4A20070  15.961  19.862   7.655
 6936POPC   C1B20071  15.750  19.772   8.555
 6936POPC   C2B20072  15.711  19.833   8.255
 6936POPC   C3B20073  15.692  19.832   7.955
 6936POPC   C4B20074  15.704  19.801   7.655
 6937POPC   NC320075  12.046  15.187   9.455
 6937POPC   PO420076  12.083  15.184   9.155
 6937POPC   GL120077  12.118  15.213   8.855
 6937POPC   GL220078  11.946  15.099   8.855
 6937POPC   C1A20079  12.061  15.151   8.555
 6937POPC   D2A20080  12.034  15.228   8.255
 6937POPC   C3A20081  12.079  15.143   7.955
 6937POPC   C4A20082  12.123  15.135   7.655
 6937POPC   C1B20083  11.906  15.042   8.555
 6937POPC   C2B20084  11.887  15.019   8.255
 6937POPC   C3B20085  11.832  15.049   7.955
 6937POPC   C4B20086  11.915  15.010   7.655
 6938POPC   NC320087  15.220   6.676   9.455
 6938POPC   PO420088  15.144   6.602   9.155
 6938POPC   GL120089  15.150   6.651   8.855
 6938POPC   GL220090  15.161   6.509   8.855
 6938POPC   C1A20091  15.159   6.602   8.555
 6938POPC   D2A20092  15.216   6.598   8.255
 6938POPC   C3A20093  15.207   6.683   7.955
 6938POPC   C4A20094  15.145   6.663   7.655
 6938POPC   C1B20095  15.174   6.421   8.555
 6938POPC   C2B20096  15.195   6.426   8.255
 6938POPC   C3B20097  15.152   6.413   7.955
 6938POPC   C4B20098  15.173   6.386   7.655
 6939POPC   NC320099  15.211  17.543   9.455
 6939POPC   PO420100  15.193  17.527   9.155
 6939POPC   GL120101  15.206  17.544   8.855
 6939POPC   GL220102  15.114  17.574   8.855
 6939POPC   C1A20103  15.196  17.535   8.555
 6939POPC   D2A20104  15.214  17.477   8.255
 6939POPC   C3A20105  15.187  17.551   7.955
 6939POPC   C4A20106  15.148  17.476   7.655
 6939POPC   C1B20107  15.070  17.780   8.555
 6939POPC   C2B20108  15.057  17.732   8.255
 6939POPC   C3B20109  15.043  17.701   7.955
 6939POPC   C4B20110  15.077  17.693   7.655
 6940POPC   NC320111  13.613  24.474   9.455
 6940POPC   PO420112  13.651  24.494   9.155
 6940POPC   GL120113  13.615  24.458   8.855
 6940POPC   GL220114  13.676  24.652   8.855
 6940POPC   C1A20115  13.669  24.451   8.555
 6940POPC   D2A20116  13.627  24.464   8.255
 6940POPC   C3A20117  13.667  24.515   7.955
 6940POPC   C4A20118  13.656  24.523   7.655
 6940POPC   C1B20119  13.632  24.748   8.555
 6940POPC   C2B20120  13.682  24.744   8.255
 6940POPC   C3B20121  13.700  24.719   7.955
 6940POPC   C4B20122  13.674  24.740   7.655
 6941POPC   NC320123  32.274   1.221   9.455
 6941POPC   PO420124  32.251   1.258   9.155
 6941POPC   GL120125  32.285   1.225   8.855
 6941POPC   GL220126  32.234   1.301   8.855
 6941POPC   C1A20127  32.286   1.245   8.555
 6941POPC   D2A20128  32.291   1.204   8.255
 6941POPC   C3A20129  32.209   1.221   7.955
 6941POPC   C4A20130  32.272   1.186   7.655
 6941POPC   C1B20131  32.196   1.486   8.555
 6941POPC   C2B20132  32.161   1.490   8.255
 6941POPC   C3B20133  32.222   1.437   7.955
 6941POPC   C4B20134  32.164   1.501   7.655
 6942POPC   NC320135  28.380  44.644   9.455
 6942POPC   PO420136  28.414  44.636   9.155
 6942POPC   GL120137  28.388  44.635   8.855
 6942POPC   GL220138  28.237  44.736   8.855
 6942POPC   C1A20139  28.329  44.666   8.555
 6942POPC   D2A20140  28.363  44.691   8.255
 6942POPC   C3A20141  28.402  44.667   7.955
 6942POPC   C4A20142  28.350  44.658   7.655
 6942POPC   C1B20143  28.204  44.823   8.555
 6942POPC   C2B20144  28.232  44.841   8.255
 6942POPC   C3B20145  28.234  44.891   7.955
 6942POPC   C4B20146  28.241  44.879   7.655
 6943POPC   NC320147  25.223  27.603   9.455
 6943POPC   PO420148  25.287  27.617   9.155
 6943POPC   GL120149  25.263  27.637   8.855
 6943POPC   GL220150  25.241  27.716   8.855
 6943POPC   C1A20151  25.308  27.575   8.555
 6943POPC   D2A20152  25.312  27.586   8.255
 6943POPC   C3A20153  25.250  27.549   7.955
 6943POPC   C4A20154  25.218  27.579   7.655
 6943POPC   C1B20155  25.121  27.832   8.555
 6943POPC   C2B20156  25.156  27.826   8.255
 6943POPC   C3B20157  25.191  27.766   7.955
 6943POPC   C4B20158  25.181  27.803   7.655
 6944POPC   NC320159  39.220  21.393   9.455
 6944POPC   PO420160  39.257  21.435   9.155
 6944POPC   GL120161  39.224  21.385   8.855
 6944POPC   GL220162  39.068  21.342   8.855
 6944POPC   C1A20163  39.218  21.378   8.555
 6944POPC   D2A20164  39.246  21.376   8.255
 6944POPC   C3A20165  39.240  21.366   7.955
 6944POPC   C4A20166  39.188  21.342   7.655
 6944POPC   C1B20167  38.999  21.246   8.555
 6944POPC   C2B20168  38.986  21.244   8.255
 6944POPC   C3B20169  39.026  21.234   7.955
 6944POPC   C4B20170  38.975  21.281   7.655
 6945POPC   NC320171  36.142  20.609   9.455
 6945POPC   PO420172  36.161  20.564   9.155
 6945POPC   GL120173  36.171  20.593   8.855
 6945POPC   GL220174  36.256  20.588   8.855
 6945POPC   C1A20175  36.088  20.605   8.555
 6945POPC   D2A20176  36.096  20.634   8.255
 6945POPC   C3A20177  36.167  20.605   7.955
 6945POPC   C4A20178  36.127  20.629   7.655
 6945POPC   C1B20179  36.369  20.520   8.555
 6945POPC   C2B20180  36.335  20.491   8.255
 6945POPC   C3B20181  36.294  20.451   7.955
 6945POPC   C4B20182  36.311  20.483   7.655
 6946POPC   NC320183   9.728   4.308   9.455
 6946POPC   PO420184   9.743   4.295   9.155
 6946POPC   GL120185   9.705   4.271   8.855
 6946POPC   GL220186   9.747   4.155   8.855
 6946POPC   C1A20187   9.777   4.294   8.555
 6946POPC   D2A20188   9.735   4.307   8.255
 6946POPC   C3A20189   9.723   4.366   7.955
 6946POPC   C4A20190   9.755   4.295   7.655
 6946POPC   C1B20191   9.670   4.136   8.555
 6946POPC   C2B20192   9.691   4.067   8.255
 6946POPC   C3B20193   9.684   4.082   7.955
 6946POPC   C4B20194   9.691   4.133   7.655
 6947POPC   NC320195  22.121  22.899   9.455
 6947POPC   PO420196  22.191  22.913   9.155
 6947POPC   GL120197  22.167  22.979   8.855
 6947POPC   GL220198  22.155  22.842   8.855
 6947POPC   C1A20199  22.132  22.905   8.555
 6947POPC   D2A20200  22.159  22.942   8.255
 6947POPC   C3A20201  22.167  22.975   7.955
 6947POPC   C4A20202  22.162  22.892   7.655
 6947POPC   C1B20203  22.067  22.696   8.555
 6947POPC   C2B20204  22.100  22.744   8.255
 6947POPC   C3B20205  22.067  22.705   7.955
 6947POPC   C4B20206  22.115  22.743   7.655
 6948POPC   NC320207  36.085   3.538   9.455
 6948POPC   PO420208  36.162   3.574   9.155
 6948POPC   GL120209  36.126   3.541   8.855
 6948POPC   GL220210  36.045   3.459   8.855
 6948POPC   C1A20211  36.173   3.578   8.555
 6948POPC   D2A20212  36.104   3.495   8.255
 6948POPC   C3A20213  36.161   3.568   7.955
 6948POPC   C4A20214  36.177   3.577   7.655
 6948POPC   C1B20215  36.046   3.314   8.555
 6948POPC   C2B20216  36.009   3.364   8.255
 6948POPC   C3B20217  35.975   3.306   7.955
 6948POPC   C4B20218  36.031   3.348   7.655
 6949POPC   NC320219  32.278  22.170   9.455
 6949POPC   PO420220  32.198  22.119   9.155
 6949POPC   GL120221  32.296  22.191   8.855
 6949POPC   GL220222  32.370  22.130   8.855
 6949POPC   C1A20223  32.223  22.130   8.555
 6949POPC   D2A20224  32.271  22.204   8.255
 6949POPC   C3A20225  32.216  22.121   7.955
 6949POPC   C4A20226  32.247  22.125   7.655
 6949POPC   C1B20227  32.486  22.187   8.555
 6949POPC   C2B20228  32.535  22.206   8.255
 6949POPC   C3B20229  32.482  22.202   7.955
 6949POPC   C4B20230  32.524  22.199   7.655
 6950POPC   NC320231  37.691  12.845   9.455
 6950POPC   PO420232  37.695  12.880   9.155
 6950POPC   GL120233  37.660  12.850   8.855
 6950POPC   GL220234  37.610  12.891   8.855
 6950POPC   C1A20235  37.650  12.835   8.555
 6950POPC   D2A20236  37.695  12.877   8.255
 6950POPC   C3A20237  37.631  12.860   7.955
 6950POPC   C4A20238  37.729  12.806   7.655
 6950POPC   C1B20239  37.506  13.038   8.555
 6950POPC   C2B20240  37.518  13.006   8.255
 6950POPC   C3B20241  37.459  12.985   7.955
 6950POPC   C4B20242  37.523  12.992   7.655
 6951POPC   NC320243   3.547  23.725   9.455
 6951POPC   PO420244   3.554  23.740   9.155
 6951POPC   GL120245   3.590  23.756   8.855
 6951POPC   GL220246   3.472  23.835   8.855
 6951POPC   C1A20247   3.533  23.745   8.555
 6951POPC   D2A20248   3.535  23.720   8.255
 6951POPC   C3A20249   3.543  23.730   7.955
 6951POPC   C4A20250   3.584  23.716   7.655
 6951POPC   C1B20251   3.515  23.963   8.555
 6951POPC   C2B20252   3.494  23.958   8.255
 6951POPC   C3B20253   3.461  23.967   7.955
 6951POPC   C4B20254   3.516  23.961   7.655
 6952POPC   NC320255  29.951  36.866   9.455
 6952POPC   PO420256  29.942  36.943   9.155
 6952POPC   GL120257  29.953  36.870   8.855
 6952POPC   GL220258  30.056  36.953   8.855
 6952POPC   C1A20259  29.939  36.918   8.555
 6952POPC   D2A20260  29.954  36.871   8.255
 6952POPC   C3A20261  29.947  36.906   7.955
 6952POPC   C4A20262  29.969  36.931   7.655
 6952POPC   C1B20263  30.125  36.916   8.555
 6952POPC   C2B20264  30.201  36.983   8.255
 6952POPC   C3B20265  30.205  36.963   7.955
 6952POPC   C4B20266  30.143  36.921   7.655
 6953POPC   NC320267  43.146  27.560   9.455
 6953POPC   PO420268  43.128  27.553   9.155
 6953POPC   GL120269  43.151  27.563   8.855
 6953POPC   GL220270  43.145  27.488   8.855
 6953POPC   C1A20271  43.108  27.641   8.555
 6953POPC   D2A20272  43.131  27.551   8.255
 6953POPC   C3A20273  43.151  27.580   7.955
 6953POPC   C4A20274  43.067  27.583   7.655
 6953POPC   C1B20275  43.219  27.336   8.555
 6953POPC   C2B20276  43.187  27.314   8.255
 6953POPC   C3B20277  43.164  27.368   7.955
 6953POPC   C4B20278  43.142  27.305   7.655
 6954POPC   NC320279  37.657  30.682   9.455
 6954POPC   PO420280  37.675  30.676   9.155
 6954POPC   GL120281  37.687  30.658   8.855
 6954POPC   GL220282  37.816  30.656   8.855
 6954POPC   C1A20283  37.632  30.651   8.555
 6954POPC   D2A20284  37.664  30.665   8.255
 6954POPC   C3A20285  37.632  30.682   7.955
 6954POPC   C4A20286  37.703  30.688   7.655
 6954POPC   C1B20287  37.899  30.540   8.555
 6954POPC   C2B20288  37.853  30.484   8.255
 6954POPC   C3B20289  37.888  30.549   7.955
 6954POPC   C4B20290  37.860  30.537   7.655
 6955POPC   NC320291  30.696   0.410   9.455
 6955POPC   PO420292  30.695   0.395   9.155
 6955POPC   GL120293  30.712   0.483   8.855
 6955POPC   GL220294  30.643   0.363   8.855
 6955POPC   C1A20295  30.677   0.425   8.555
 6955POPC   D2A20296  30.676   0.443   8.255
 6955POPC   C3A20297  30.705   0.486   7.955
 6955POPC   C4A20298  30.740   0.482   7.655
 6955POPC   C1B20299  30.589   0.280   8.555
 6955POPC   C2B20300  30.523   0.205   8.255
 6955POPC   C3B20301  30.525   0.256   7.955
 6955POPC   C4B20302  30.535   0.194   7.655
 6956POPC   NC320303  19.836  21.362   9.455
 6956POPC   PO420304  19.792  21.427   9.155
 6956POPC   GL120305  19.828  21.424   8.855
 6956POPC   GL220306  19.859  21.471   8.855
 6956POPC   C1A20307  19.803  21.405   8.555
 6956POPC   D2A20308  19.847  21.357   8.255
 6956POPC   C3A20309  19.870  21.391   7.955
 6956POPC   C4A20310  19.839  21.370   7.655
 6956POPC   C1B20311  19.829  21.609   8.555
 6956POPC   C2B20312  19.870  21.661   8.255
 6956POPC   C3B20313  19.866  21.588   7.955
 6956POPC   C4B20314  19.806  21.638   7.655
 6957POPC   NC320315  44.660  43.924   9.455
 6957POPC   PO420316  44.635  43.845   9.155
 6957POPC   GL120317  44.683  43.915   8.855
 6957POPC   GL220318  44.693  43.973   8.855
 6957POPC   C1A20319  44.642  43.911   8.555
 6957POPC   D2A20320  44.640  43.884   8.255
 6957POPC   C3A20321  44.710  43.859   7.955
 6957POPC   C4A20322  44.677  43.871   7.655
 6957POPC   C1B20323  44.708  44.129   8.555
 6957POPC   C2B20324  44.729  44.138   8.255
 6957POPC   C3B20325  44.710  44.132   7.955
 6957POPC   C4B20326  44.794  44.133   7.655
 6958POPC   NC320327  20.656  33.817   9.455
 6958POPC   PO420328  20.635  33.773   9.155
 6958POPC   GL120329  20.620  33.832   8.855
 6958POPC   GL220330  20.629  33.972   8.855
 6958POPC   C1A20331  20.601  33.750   8.555
 6958POPC   D2A20332  20.574  33.765   8.255
 6958POPC   C3A20333  20.569  33.845   7.955
 6958POPC   C4A20334  20.630  33.778   7.655
 6958POPC   C1B20335  20.551  34.040   8.555
 6958POPC   C2B20336  20.564  34.063   8.255
 6958POPC   C3B20337  20.542  34.079   7.955
 6958POPC   C4B20338  20.596  34.014   7.655
 6959POPC   NC320339  20.656   6.657   9.455
 6959POPC   PO420340  20.583   6.658   9.155
 6959POPC   GL120341  20.601   6.646   8.855
 6959POPC   GL220342  20.687   6.546   8.855
 6959POPC   C1A20343  20.656   6.642   8.555
 6959POPC   D2A20344  20.636   6.632   8.255
 6959POPC   C3A20345  20.591   6.672   7.955
 6959POPC   C4A20346  20.578   6.638   7.655
 6959POPC   C1B20347  20.829   6.491   8.555
 6959POPC   C2B20348  20.815   6.474   8.255
 6959POPC   C3B20349  20.799   6.444   7.955
 6959POPC   C4B20350  20.778   6.444   7.655
 6960POPC   NC320351   3.521  22.928   9.455
 6960POPC   PO420352   3.532  22.966   9.155
 6960POPC   GL120353   3.547  22.976   8.855
 6960POPC   GL220354   3.616  22.973   8.855
 6960POPC   C1A20355   3.492  22.890   8.555
 6960POPC   D2A20356   3.536  22.953   8.255
 6960POPC   C3A20357   3.568  22.957   7.955
 6960POPC   C4A20358   3.559  22.986   7.655
 6960POPC   C1B20359   3.838  22.960   8.555
 6960POPC   C2B20360   3.802  22.952   8.255
 6960POPC   C3B20361   3.784  22.991   7.955
 6960POPC   C4B20362   3.749  22.969   7.655
 6961POPC   NC320363   0.394   0.471   9.455
 6961POPC   PO420364   0.391   0.473   9.155
 6961POPC   GL120365   0.466   0.428   8.855
 6961POPC   GL220366   0.347   0.363   8.855
 6961POPC   C1A20367   0.443   0.438   8.555
 6961POPC   D2A20368   0.434   0.456   8.255
 6961POPC   C3A20369   0.441   0.476   7.955
 6961POPC   C4A20370   0.424   0.412   7.655
 6961POPC   C1B20371   0.335   0.278   8.555
 6961POPC   C2B20372   0.255   0.191   8.255
 6961POPC   C3B20373   0.317   0.242   7.955
 6961POPC   C4B20374   0.295   0.188   7.655
 6962POPC   NC320375  41.590  25.252   9.455
 6962POPC   PO420376  41.546  25.275   9.155
 6962POPC   GL120377  41.533  25.246   8.855
 6962POPC   GL220378  41.511  25.338   8.855
 6962POPC   C1A20379  41.593  25.275   8.555
 6962POPC   D2A20380  41.579  25.240   8.255
 6962POPC   C3A20381  41.601  25.265   7.955
 6962POPC   C4A20382  41.567  25.262   7.655
 6962POPC   C1B20383  41.450  25.467   8.555
 6962POPC   C2B20384  41.512  25.477   8.255
 6962POPC   C3B20385  41.452  25.461   7.955
 6962POPC   C4B20386  41.453  25.483   7.655
 6963POPC   NC320387  41.565   0.448   9.455
 6963POPC   PO420388  41.581   0.485   9.155
 6963POPC   GL120389  41.551   0.422   8.855
 6963POPC   GL220390  41.656   0.463   8.855
 6963POPC   C1A20391  41.567   0.480   8.555
 6963POPC   D2A20392  41.559   0.427   8.255
 6963POPC   C3A20393  41.536   0.388   7.955
 6963POPC   C4A20394  41.587   0.389   7.655
 6963POPC   C1B20395  41.849   0.373   8.555
 6963POPC   C2B20396  41.785   0.406   8.255
 6963POPC   C3B20397  41.767   0.438   7.955
 6963POPC   C4B20398  41.775   0.343   7.655
 6964POPC   NC320399   4.296  29.159   9.455
 6964POPC   PO420400   4.288  29.163   9.155
 6964POPC   GL120401   4.283  29.109   8.855
 6964POPC   GL220402   4.164  29.053   8.855
 6964POPC   C1A20403   4.297  29.160   8.555
 6964POPC   D2A20404   4.306  29.185   8.255
 6964POPC   C3A20405   4.359  29.099   7.955
 6964POPC   C4A20406   4.312  29.174   7.655
 6964POPC   C1B20407   4.088  29.069   8.555
 6964POPC   C2B20408   4.140  29.027   8.255
 6964POPC   C3B20409   4.115  29.072   7.955
 6964POPC   C4B20410   4.046  29.080   7.655
 6965POPC   NC320411  25.311  37.722   9.455
 6965POPC   PO420412  25.264  37.697   9.155
 6965POPC   GL120413  25.305  37.653   8.855
 6965POPC   GL220414  25.406  37.660   8.855
 6965POPC   C1A20415  25.247  37.634   8.555
 6965POPC   D2A20416  25.306  37.728   8.255
 6965POPC   C3A20417  25.242  37.680   7.955
 6965POPC   C4A20418  25.238  37.655   7.655
 6965POPC   C1B20419  25.485  37.604   8.555
 6965POPC   C2B20420  25.466  37.603   8.255
 6965POPC   C3B20421  25.551  37.625   7.955
 6965POPC   C4B20422  25.525  37.629   7.655
 6966POPC   NC320423  10.524  39.263   9.455
 6966POPC   PO420424  10.508  39.260   9.155
 6966POPC   GL120425  10.509  39.256   8.855
 6966POPC   GL220426  10.533  39.322   8.855
 6966POPC   C1A20427  10.551  39.191   8.555
 6966POPC   D2A20428  10.562  39.229   8.255
 6966POPC   C3A20429  10.500  39.235   7.955
 6966POPC   C4A20430  10.492  39.255   7.655
 6966POPC   C1B20431  10.597  39.501   8.555
 6966POPC   C2B20432  10.582  39.489   8.255
 6966POPC   C3B20433  10.591  39.455   7.955
 6966POPC   C4B20434  10.522  39.496   7.655
 6967POPC   NC320435  44.668  13.672   9.455
 6967POPC   PO420436  44.706  13.592   9.155
 6967POPC   GL120437  44.645  13.622   8.855
 6967POPC   GL220438  44.605  13.742   8.855
 6967POPC   C1A20439  44.615  13.660   8.555
 6967POPC   D2A20440  44.669  13.601   8.255
 6967POPC   C3A20441  44.634  13.598   7.955
 6967POPC   C4A20442  44.628  13.591   7.655
 6967POPC   C1B20443  44.676  13.890   8.555
 6967POPC   C2B20444  44.616  13.915   8.255
 6967POPC   C3B20445  44.675  13.863   7.955
 6967POPC   C4B20446  44.626  13.858   7.655
 6968POPC   NC320447  16.684  15.160   9.455
 6968POPC   PO420448  16.765  15.179   9.155
 6968POPC   GL120449  16.751  15.173   8.855
 6968POPC   GL220450  16.809  15.145   8.855
 6968POPC   C1A20451  16.761  15.193   8.555
 6968POPC   D2A20452  16.698  15.173   8.255
 6968POPC   C3A20453  16.715  15.134   7.955
 6968POPC   C4A20454  16.683  15.162   7.655
 6968POPC   C1B20455  16.941  15.017   8.555
 6968POPC   C2B20456  16.940  15.056   8.255
 6968POPC   C3B20457  16.901  15.011   7.955
 6968POPC   C4B20458  16.930  14.992   7.655
 6969POPC   NC320459  22.207  10.562   9.455
 6969POPC   PO420460  22.196  10.563   9.155
 6969POPC   GL120461  22.204  10.568   8.855
 6969POPC   GL220462  22.072  10.450   8.855
 6969POPC   C1A20463  22.150  10.496   8.555
 6969POPC   D2A20464  22.158  10.545   8.255
 6969POPC   C3A20465  22.147  10.488   7.955
 6969POPC   C4A20466  22.152  10.539   7.655
 6969POPC   C1B20467  21.913  10.462   8.555
 6969POPC   C2B20468  21.893  10.441   8.255
 6969POPC   C3B20469  21.960  10.464   7.955
 6969POPC   C4B20470  21.880  10.445   7.655
 6970POPC   NC320471  33.001   8.944   9.455
 6970POPC   PO420472  33.048   8.987   9.155
 6970POPC   GL120473  33.002   8.993   8.855
 6970POPC   GL220474  32.917   8.994   8.855
 6970POPC   C1A20475  33.002   8.937   8.555
 6970POPC   D2A20476  33.021   9.019   8.255
 6970POPC   C3A20477  33.045   8.987   7.955
 6970POPC   C4A20478  33.000   8.975   7.655
 6970POPC   C1B20479  32.768   9.103   8.555
 6970POPC   C2B20480  32.760   9.135   8.255
 6970POPC   C3B20481  32.823   9.099   7.955
 6970POPC   C4B20482  32.802   9.123   7.655
 6971POPC   NC320483  25.221  26.009   9.455
 6971POPC   PO420484  25.299  26.000   9.155
 6971POPC   GL120485  25.280  26.035   8.855
 6971POPC   GL220486  25.196  25.972   8.855
 6971POPC   C1A20487  25.285  26.068   8.555
 6971POPC   D2A20488  25.268  26.026   8.255
 6971POPC   C3A20489  25.287  26.083   7.955
 6971POPC   C4A20490  25.282  26.043   7.655
 6971POPC   C1B20491  25.128  25.793   8.555
 6971POPC   C2B20492  25.156  25.856   8.255
 6971POPC   C3B20493  25.169  25.778   7.955
 6971POPC   C4B20494  25.202  25.845   7.655
 6972POPC   NC320495   0.464  24.502   9.455
 6972POPC   PO420496   0.422  24.450   9.155
 6972POPC   GL120497   0.399  24.535   8.855
 6972POPC   GL220498   0.415  24.386   8.855
 6972POPC   C1A20499   0.445  24.538   8.555
 6972POPC   D2A20500   0.439  24.465   8.255
 6972POPC   C3A20501   0.458  24.449   7.955
 6972POPC   C4A20502   0.407  24.526   7.655
 6972POPC   C1B20503   0.322  24.277   8.555
 6972POPC   C2B20504   0.348  24.317   8.255
 6972POPC   C3B20505   0.283  24.232   7.955
 6972POPC   C4B20506   0.332  24.247   7.655
 6973POPC   NC320507   8.979   5.103   9.455
 6973POPC   PO420508   8.982   5.076   9.155
 6973POPC   GL120509   8.963   5.054   8.855
 6973POPC   GL220510   9.121   5.169   8.855
 6973POPC   C1A20511   9.013   5.070   8.555
 6973POPC   D2A20512   9.000   5.109   8.255
 6973POPC   C3A20513   8.969   5.126   7.955
 6973POPC   C4A20514   9.011   5.107   7.655
 6973POPC   C1B20515   9.172   5.177   8.555
 6973POPC   C2B20516   9.220   5.196   8.255
 6973POPC   C3B20517   9.178   5.193   7.955
 6973POPC   C4B20518   9.218   5.219   7.655
 6974POPC   NC320519  26.037  31.505   9.455
 6974POPC   PO420520  26.033  31.492   9.155
 6974POPC   GL120521  26.078  31.491   8.855
 6974POPC   GL220522  26.186  31.442   8.855
 6974POPC   C1A20523  26.060  31.435   8.555
 6974POPC   D2A20524  25.992  31.429   8.255
 6974POPC   C3A20525  26.008  31.490   7.955
 6974POPC   C4A20526  26.058  31.502   7.655
 6974POPC   C1B20527  26.309  31.501   8.555
 6974POPC   C2B20528  26.320  31.475   8.255
 6974POPC   C3B20529  26.255  31.510   7.955
 6974POPC   C4B20530  26.255  31.532   7.655
 6975POPC   NC320531  21.342  19.815   9.455
 6975POPC   PO420532  21.417  19.814   9.155
 6975POPC   GL120533  21.385  19.815   8.855
 6975POPC   GL220534  21.395  19.752   8.855
 6975POPC   C1A20535  21.371  19.829   8.555
 6975POPC   D2A20536  21.401  19.818   8.255
 6975POPC   C3A20537  21.392  19.796   7.955
 6975POPC   C4A20538  21.400  19.849   7.655
 6975POPC   C1B20539  21.339  19.539   8.555
 6975POPC   C2B20540  21.303  19.539   8.255
 6975POPC   C3B20541  21.379  19.590   7.955
 6975POPC   C4B20542  21.333  19.600   7.655
 6976POPC   NC320543   7.406  24.519   9.455
 6976POPC   PO420544   7.394  24.462   9.155
 6976POPC   GL120545   7.400  24.446   8.855
 6976POPC   GL220546   7.592  24.445   8.855
 6976POPC   C1A20547   7.405  24.526   8.555
 6976POPC   D2A20548   7.454  24.452   8.255
 6976POPC   C3A20549   7.408  24.454   7.955
 6976POPC   C4A20550   7.467  24.532   7.655
 6976POPC   C1B20551   7.670  24.517   8.555
 6976POPC   C2B20552   7.643  24.520   8.255
 6976POPC   C3B20553   7.660  24.510   7.955
 6976POPC   C4B20554   7.673  24.495   7.655
 6977POPC   NC320555  11.287  15.953   9.455
 6977POPC   PO420556  11.290  15.912   9.155
 6977POPC   GL120557  11.344  15.950   8.855
 6977POPC   GL220558  11.143  15.969   8.855
 6977POPC   C1A20559  11.260  15.936   8.555
 6977POPC   D2A20560  11.332  16.004   8.255
 6977POPC   C3A20561  11.265  15.973   7.955
 6977POPC   C4A20562  11.345  15.909   7.655
 6977POPC   C1B20563  11.093  15.948   8.555
 6977POPC   C2B20564  11.003  15.931   8.255
 6977POPC   C3B20565  11.100  15.938   7.955
 6977POPC   C4B20566  11.099  15.995   7.655
 6978POPC   NC320567  33.834  29.166   9.455
 6978POPC   PO420568  33.792  29.111   9.155
 6978POPC   GL120569  33.761  29.114   8.855
 6978POPC   GL220570  33.862  29.223   8.855
 6978POPC   C1A20571  33.845  29.138   8.555
 6978POPC   D2A20572  33.756  29.194   8.255
 6978POPC   C3A20573  33.751  29.120   7.955
 6978POPC   C4A20574  33.799  29.180   7.655
 6978POPC   C1B20575  33.921  29.352   8.555
 6978POPC   C2B20576  33.907  29.358   8.255
 6978POPC   C3B20577  33.851  29.396   7.955
 6978POPC   C4B20578  33.899  29.402   7.655
 6979POPC   NC320579  20.579  42.339   9.455
 6979POPC   PO420580  20.582  42.374   9.155
 6979POPC   GL120581  20.560  42.319   8.855
 6979POPC   GL220582  20.581  42.430   8.855
 6979POPC   C1A20583  20.631  42.318   8.555
 6979POPC   D2A20584  20.630  42.353   8.255
 6979POPC   C3A20585  20.634  42.288   7.955
 6979POPC   C4A20586  20.612  42.358   7.655
 6979POPC   C1B20587  20.536  42.539   8.555
 6979POPC   C2B20588  20.527  42.578   8.255
 6979POPC   C3B20589  20.519  42.543   7.955
 6979POPC   C4B20590  20.551  42.604   7.655
 6980POPC   NC320591  10.574  12.886   9.455
 6980POPC   PO420592  10.508  12.897   9.155
 6980POPC   GL120593  10.520  12.892   8.855
 6980POPC   GL220594  10.583  12.729   8.855
 6980POPC   C1A20595  10.536  12.900   8.555
 6980POPC   D2A20596  10.480  12.829   8.255
 6980POPC   C3A20597  10.523  12.860   7.955
 6980POPC   C4A20598  10.481  12.861   7.655
 6980POPC   C1B20599  10.598  12.640   8.555
 6980POPC   C2B20600  10.603  12.645   8.255
 6980POPC   C3B20601  10.597  12.622   7.955
 6980POPC   C4B20602  10.603  12.580   7.655
 6981POPC   NC320603   2.788   4.298   9.455
 6981POPC   PO420604   2.727   4.354   9.155
 6981POPC   GL120605   2.719   4.344   8.855
 6981POPC   GL220606   2.690   4.370   8.855
 6981POPC   C1A20607   2.796   4.331   8.555
 6981POPC   D2A20608   2.731   4.356   8.255
 6981POPC   C3A20609   2.726   4.291   7.955
 6981POPC   C4A20610   2.760   4.356   7.655
 6981POPC   C1B20611   2.587   4.483   8.555
 6981POPC   C2B20612   2.542   4.411   8.255
 6981POPC   C3B20613   2.606   4.436   7.955
 6981POPC   C4B20614   2.573   4.446   7.655
 6982POPC   NC320615   2.785  12.853   9.455
 6982POPC   PO420616   2.760  12.859   9.155
 6982POPC   GL120617   2.808  12.870   8.855
 6982POPC   GL220618   2.881  12.753   8.855
 6982POPC   C1A20619   2.727  12.831   8.555
 6982POPC   D2A20620   2.750  12.835   8.255
 6982POPC   C3A20621   2.773  12.851   7.955
 6982POPC   C4A20622   2.724  12.864   7.655
 6982POPC   C1B20623   2.971  12.723   8.555
 6982POPC   C2B20624   2.946  12.706   8.255
 6982POPC   C3B20625   2.960  12.745   7.955
 6982POPC   C4B20626   2.956  12.688   7.655
 6983POPC   NC320627  14.379   3.522   9.455
 6983POPC   PO420628  14.423   3.570   9.155
 6983POPC   GL120629  14.389   3.568   8.855
 6983POPC   GL220630  14.270   3.587   8.855
 6983POPC   C1A20631  14.452   3.563   8.555
 6983POPC   D2A20632  14.426   3.493   8.255
 6983POPC   C3A20633  14.442   3.587   7.955
 6983POPC   C4A20634  14.442   3.573   7.655
 6983POPC   C1B20635  14.118   3.601   8.555
 6983POPC   C2B20636  14.155   3.632   8.255
 6983POPC   C3B20637  14.115   3.604   7.955
 6983POPC   C4B20638  14.123   3.541   7.655
 6984POPC   NC320639   1.252  21.430   9.455
 6984POPC   PO420640   1.232  21.342   9.155
 6984POPC   GL120641   1.229  21.367   8.855
 6984POPC   GL220642   1.182  21.267   8.855
 6984POPC   C1A20643   1.227  21.352   8.555
 6984POPC   D2A20644   1.172  21.399   8.255
 6984POPC   C3A20645   1.208  21.436   7.955
 6984POPC   C4A20646   1.183  21.339   7.655
 6984POPC   C1B20647   1.100  21.142   8.555
 6984POPC   C2B20648   1.099  21.208   8.255
 6984POPC   C3B20649   1.141  21.160   7.955
 6984POPC   C4B20650   1.066  21.118   7.655
 6985POPC   NC320651   3.530   4.366   9.455
 6985POPC   PO420652   3.550   4.276   9.155
 6985POPC   GL120653   3.518   4.301   8.855
 6985POPC   GL220654   3.600   4.181   8.855
 6985POPC   C1A20655   3.567   4.278   8.555
 6985POPC   D2A20656   3.558   4.299   8.255
 6985POPC   C3A20657   3.546   4.299   7.955
 6985POPC   C4A20658   3.548   4.316   7.655
 6985POPC   C1B20659   3.758   4.110   8.555
 6985POPC   C2B20660   3.764   4.139   8.255
 6985POPC   C3B20661   3.703   4.149   7.955
 6985POPC   C4B20662   3.748   4.131   7.655
 6986POPC   NC320663  29.946   8.172   9.455
 6986POPC   PO420664  29.917   8.175   9.155
 6986POPC   GL120665  29.875   8.198   8.855
 6986POPC   GL220666  29.864   8.109   8.855
 6986POPC   C1A20667  29.887   8.203   8.555
 6986POPC   D2A20668  29.888   8.200   8.255
 6986POPC   C3A20669  29.953   8.184   7.955
 6986POPC   C4A20670  29.936   8.203   7.655
 6986POPC   C1B20671  29.926   7.988   8.555
 6986POPC   C2B20672  29.847   7.943   8.255
 6986POPC   C3B20673  29.865   7.964   7.955
 6986POPC   C4B20674  29.865   7.984   7.655
 6987POPC   NC320675  42.293   2.779   9.455
 6987POPC   PO420676  42.291   2.771   9.155
 6987POPC   GL120677  42.289   2.729   8.855
 6987POPC   GL220678  42.392   2.716   8.855
 6987POPC   C1A20679  42.319   2.791   8.555
 6987POPC   D2A20680  42.381   2.735   8.255
 6987POPC   C3A20681  42.370   2.790   7.955
 6987POPC   C4A20682  42.297   2.777   7.655
 6987POPC   C1B20683  42.480   2.594   8.555
 6987POPC   C2B20684  42.497   2.633   8.255
 6987POPC   C3B20685  42.477   2.637   7.955
 6987POPC   C4B20686  42.469   2.555   7.655
 6988POPC   NC320687  35.345  16.754   9.455
 6988POPC   PO420688  35.364  16.764   9.155
 6988POPC   GL120689  35.334  16.689   8.855
 6988POPC   GL220690  35.449  16.784   8.855
 6988POPC   C1A20691  35.369  16.720   8.555
 6988POPC   D2A20692  35.399  16.765   8.255
 6988POPC   C3A20693  35.384  16.774   7.955
 6988POPC   C4A20694  35.359  16.686   7.655
 6988POPC   C1B20695  35.582  16.821   8.555
 6988POPC   C2B20696  35.583  16.828   8.255
 6988POPC   C3B20697  35.532  16.846   7.955
 6988POPC   C4B20698  35.527  16.865   7.655
 6989POPC   NC320699  40.796  36.114   9.455
 6989POPC   PO420700  40.793  36.102   9.155
 6989POPC   GL120701  40.791  36.104   8.855
 6989POPC   GL220702  40.897  36.016   8.855
 6989POPC   C1A20703  40.832  36.172   8.555
 6989POPC   D2A20704  40.761  36.130   8.255
 6989POPC   C3A20705  40.769  36.165   7.955
 6989POPC   C4A20706  40.735  36.087   7.655
 6989POPC   C1B20707  41.022  35.995   8.555
 6989POPC   C2B20708  41.035  35.963   8.255
 6989POPC   C3B20709  41.008  36.007   7.955
 6989POPC   C4B20710  40.990  36.042   7.655
 6990POPC   NC320711  10.548   0.471   9.455
 6990POPC   PO420712  10.534   0.390   9.155
 6990POPC   GL120713  10.504   0.393   8.855
 6990POPC   GL220714  10.392   0.547   8.855
 6990POPC   C1A20715  10.567   0.394   8.555
 6990POPC   D2A20716  10.569   0.433   8.255
 6990POPC   C3A20717  10.486   0.484   7.955
 6990POPC   C4A20718  10.478   0.398   7.655
 6990POPC   C1B20719  10.358   0.590   8.555
 6990POPC   C2B20720  10.278   0.601   8.255
 6990POPC   C3B20721  10.349   0.575   7.955
 6990POPC   C4B20722  10.330   0.633   7.655
 6991POPC   NC320723  22.916  43.876   9.455
 6991POPC   PO420724  22.942  43.885   9.155
 6991POPC   GL120725  22.909  43.916   8.855
 6991POPC   GL220726  23.077  43.821   8.855
 6991POPC   C1A20727  22.893  43.928   8.555
 6991POPC   D2A20728  22.981  43.868   8.255
 6991POPC   C3A20729  22.974  43.882   7.955
 6991POPC   C4A20730  22.950  43.917   7.655
 6991POPC   C1B20731  23.093  43.761   8.555
 6991POPC   C2B20732  23.112  43.707   8.255
 6991POPC   C3B20733  23.147  43.692   7.955
 6991POPC   C4B20734  23.123  43.725   7.655
 6992POPC   NC320735   6.642   8.173   9.455
 6992POPC   PO420736   6.608   8.235   9.155
 6992POPC   GL120737   6.639   8.196   8.855
 6992POPC   GL220738   6.776   8.187   8.855
 6992POPC   C1A20739   6.689   8.230   8.555
 6992POPC   D2A20740   6.687   8.204   8.255
 6992POPC   C3A20741   6.605   8.147   7.955
 6992POPC   C4A20742   6.639   8.225   7.655
 6992POPC   C1B20743   6.920   8.161   8.555
 6992POPC   C2B20744   6.849   8.192   8.255
 6992POPC   C3B20745   6.862   8.180   7.955
 6992POPC   C4B20746   6.915   8.184   7.655
 6993POPC   NC320747  25.315  26.785   9.455
 6993POPC   PO420748  25.300  26.811   9.155
 6993POPC   GL120749  25.231  26.831   8.855
 6993POPC   GL220750  25.250  26.907   8.855
 6993POPC   C1A20751  25.219  26.801   8.555
 6993POPC   D2A20752  25.304  26.788   8.255
 6993POPC   C3A20753  25.307  26.819   7.955
 6993POPC   C4A20754  25.300  26.806   7.655
 6993POPC   C1B20755  25.279  27.061   8.555
 6993POPC   C2B20756  25.283  27.022   8.255
 6993POPC   C3B20757  25.194  27.107   7.955
 6993POPC   C4B20758  25.270  27.029   7.655
 6994POPC   NC320759   9.759  37.727   9.455
 6994POPC   PO420760   9.731  37.680   9.155
 6994POPC   GL120761   9.747  37.729   8.855
 6994POPC   GL220762   9.842  37.684   8.855
 6994POPC   C1A20763   9.735  37.714   8.555
 6994POPC   D2A20764   9.785  37.639   8.255
 6994POPC   C3A20765   9.749  37.697   7.955
 6994POPC   C4A20766   9.711  37.663   7.655
 6994POPC   C1B20767  10.002  37.714   8.555
 6994POPC   C2B20768   9.994  37.704   8.255
 6994POPC   C3B20769   9.990  37.679   7.955
 6994POPC   C4B20770  10.044  37.671   7.655
 6995POPC   NC320771  31.512  35.319   9.455
 6995POPC   PO420772  31.483  35.335   9.155
 6995POPC   GL120773  31.424  35.334   8.855
 6995POPC   GL220774  31.537  35.236   8.855
 6995POPC   C1A20775  31.468  35.390   8.555
 6995POPC   D2A20776  31.452  35.329   8.255
 6995POPC   C3A20777  31.440  35.359   7.955
 6995POPC   C4A20778  31.442  35.314   7.655
 6995POPC   C1B20779  31.648  35.164   8.555
 6995POPC   C2B20780  31.608  35.195   8.255
 6995POPC   C3B20781  31.639  35.137   7.955
 6995POPC   C4B20782  31.648  35.167   7.655
 6996POPC   NC320783  40.809   1.968   9.455
 6996POPC   PO420784  40.767   1.999   9.155
 6996POPC   GL120785  40.774   1.944   8.855
 6996POPC   GL220786  40.803   1.867   8.855
 6996POPC   C1A20787  40.799   1.989   8.555
 6996POPC   D2A20788  40.767   1.954   8.255
 6996POPC   C3A20789  40.826   2.007   7.955
 6996POPC   C4A20790  40.831   2.033   7.655
 6996POPC   C1B20791  40.818   1.790   8.555
 6996POPC   C2B20792  40.851   1.767   8.255
 6996POPC   C3B20793  40.797   1.698   7.955
 6996POPC   C4B20794  40.786   1.719   7.655
 6997POPC   NC320795  41.584  37.672   9.455
 6997POPC   PO420796  41.575  37.675   9.155
 6997POPC   GL120797  41.554  37.638   8.855
 6997POPC   GL220798  41.476  37.737   8.855
 6997POPC   C1A20799  41.587  37.680   8.555
 6997POPC   D2A20800  41.561  37.715   8.255
 6997POPC   C3A20801  41.563  37.657   7.955
 6997POPC   C4A20802  41.597  37.644   7.655
 6997POPC   C1B20803  41.417  37.882   8.555
 6997POPC   C2B20804  41.414  37.849   8.255
 6997POPC   C3B20805  41.364  37.840   7.955
 6997POPC   C4B20806  41.413  37.861   7.655
 6998POPC   NC320807  31.500  13.586   9.455
 6998POPC   PO420808  31.479  13.620   9.155
 6998POPC   GL120809  31.454  13.598   8.855
 6998POPC   GL220810  31.419  13.529   8.855
 6998POPC   C1A20811  31.473  13.656   8.555
 6998POPC   D2A20812  31.424  13.603   8.255
 6998POPC   C3A20813  31.489  13.601   7.955
 6998POPC   C4A20814  31.516  13.626   7.655
 6998POPC   C1B20815  31.379  13.391   8.555
 6998POPC   C2B20816  31.403  13.446   8.255
 6998POPC   C3B20817  31.413  13.392   7.955
 6998POPC   C4B20818  31.330  13.374   7.655
 6999POPC   NC320819   5.074  29.155   9.455
 6999POPC   PO420820   5.114  29.175   9.155
 6999POPC   GL120821   5.071  29.188   8.855
 6999POPC   GL220822   4.961  29.111   8.855
 6999POPC   C1A20823   5.060  29.194   8.555
 6999POPC   D2A20824   5.100  29.163   8.255
 6999POPC   C3A20825   5.073  29.179   7.955
 6999POPC   C4A20826   5.058  29.123   7.655
 6999POPC   C1B20827   4.844  29.037   8.555
 6999POPC   C2B20828   4.884  29.075   8.255
 6999POPC   C3B20829   4.906  29.054   7.955
 6999POPC   C4B20830   4.907  28.987   7.655
 7000POPC   NC320831  12.889  12.831   9.455
 7000POPC   PO420832  12.803  12.849   9.155
 7000POPC   GL120833  12.809  12.866   8.855
 7000POPC   GL220834  12.789  13.014   8.855
 7000POPC   C1A20835  12.854  12.866   8.555
 7000POPC   D2A20836  12.860  12.839   8.255
 7000POPC   C3A20837  12.838  12.854   7.955
 7000POPC   C4A20838  12.852  12.810   7.655
 7000POPC   C1B20839  12.751  13.067   8.555
 7000POPC   C2B20840  12.773  13.109   8.255
 7000POPC   C3B20841  12.771  13.051   7.955
 7000POPC   C4B20842  12.741  13.118   7.655
 7001POPC   NC320843  18.283  25.264   9.455
 7001POPC   PO420844  18.262  25.290   9.155
 7001POPC   GL120845  18.284  25.229   8.855
 7001POPC   GL220846  18.171  25.135   8.855
 7001POPC   C1A20847  18.273  25.277   8.555
 7001POPC   D2A20848  18.270  25.305   8.255
 7001POPC   C3A20849  18.304  25.226   7.955
 7001POPC   C4A20850  18.319  25.287   7.655
 7001POPC   C1B20851  18.125  25.052   8.555
 7001POPC   C2B20852  18.092  25.075   8.255
 7001POPC   C3B20853  18.122  25.107   7.955
 7001POPC   C4B20854  18.085  25.032   7.655
 7002POPC   NC320855  37.727  32.981   9.455
 7002POPC   PO420856  37.705  33.024   9.155
 7002POPC   GL120857  37.689  33.028   8.855
 7002POPC   GL220858  37.703  33.090   8.855
 7002POPC   C1A20859  37.699  33.013   8.555
 7002POPC   D2A20860  37.681  32.979   8.255
 7002POPC   C3A20861  37.716  33.060   7.955
 7002POPC   C4A20862  37.689  33.021   7.655
 7002POPC   C1B20863  37.805  33.227   8.555
 7002POPC   C2B20864  37.782  33.217   8.255
 7002POPC   C3B20865  37.824  33.206   7.955
 7002POPC   C4B20866  37.809  33.255   7.655
 7003POPC   NC320867  41.567  15.973   9.455
 7003POPC   PO420868  41.510  15.982   9.155
 7003POPC   GL120869  41.570  15.960   8.855
 7003POPC   GL220870  41.447  16.018   8.855
 7003POPC   C1A20871  41.557  16.003   8.555
 7003POPC   D2A20872  41.535  15.964   8.255
 7003POPC   C3A20873  41.518  15.993   7.955
 7003POPC   C4A20874  41.579  15.947   7.655
 7003POPC   C1B20875  41.334  16.074   8.555
 7003POPC   C2B20876  41.358  16.067   8.255
 7003POPC   C3B20877  41.369  16.058   7.955
 7003POPC   C4B20878  41.329  16.110   7.655
 7004POPC   NC320879  44.620   8.953   9.455
 7004POPC   PO420880  44.678   9.017   9.155
 7004POPC   GL120881  44.695   9.011   8.855
 7004POPC   GL220882  44.761   8.898   8.855
 7004POPC   C1A20883  44.643   8.979   8.555
 7004POPC   D2A20884  44.623   8.994   8.255
 7004POPC   C3A20885  44.657   8.977   7.955
 7004POPC   C4A20886  44.655   8.963   7.655
 7004POPC   C1B20887  44.877   8.902   8.555
 7004POPC   C2B20888  44.891   8.879   8.255
 7004POPC   C3B20889  44.873   8.854   7.955
 7004POPC   C4B20890  44.856   8.940   7.655
 7005POPC   NC320891  40.021  29.871   9.455
 7005POPC   PO420892  40.003  29.877   9.155
 7005POPC   GL120893  40.020  29.872   8.855
 7005POPC   GL220894  40.115  29.938   8.855
 7005POPC   C1A20895  40.044  29.890   8.555
 7005POPC   D2A20896  39.977  29.942   8.255
 7005POPC   C3A20897  40.015  29.880   7.955
 7005POPC   C4A20898  39.969  29.889   7.655
 7005POPC   C1B20899  40.253  29.879   8.555
 7005POPC   C2B20900  40.280  29.857   8.255
 7005POPC   C3B20901  40.212  29.919   7.955
 7005POPC   C4B20902  40.276  29.863   7.655
 7006POPC   NC320903  34.548  40.777   9.455
 7006POPC   PO420904  34.609  40.761   9.155
 7006POPC   GL120905  34.541  40.808   8.855
 7006POPC   GL220906  34.472  40.757   8.855
 7006POPC   C1A20907  34.532  40.792   8.555
 7006POPC   D2A20908  34.615  40.750   8.255
 7006POPC   C3A20909  34.543  40.816   7.955
 7006POPC   C4A20910  34.527  40.756   7.655
 7006POPC   C1B20911  34.326  40.722   8.555
 7006POPC   C2B20912  34.335  40.743   8.255
 7006POPC   C3B20913  34.290  40.766   7.955
 7006POPC   C4B20914  34.327  40.704   7.655
 7007POPC   NC320915  42.297  33.068   9.455
 7007POPC   PO420916  42.353  32.978   9.155
 7007POPC   GL120917  42.333  33.013   8.855
 7007POPC   GL220918  42.482  32.968   8.855
 7007POPC   C1A20919  42.298  32.981   8.555
 7007POPC   D2A20920  42.337  33.044   8.255
 7007POPC   C3A20921  42.338  33.053   7.955
 7007POPC   C4A20922  42.375  33.046   7.655
 7007POPC   C1B20923  42.532  32.844   8.555
 7007POPC   C2B20924  42.572  32.851   8.255
 7007POPC   C3B20925  42.490  32.872   7.955
 7007POPC   C4B20926  42.523  32.878   7.655
 7008POPC   NC320927  14.395  23.683   9.455
 7008POPC   PO420928  14.420  23.686   9.155
 7008POPC   GL120929  14.425  23.723   8.855
 7008POPC   GL220930  14.255  23.667   8.855
 7008POPC   C1A20931  14.387  23.665   8.555
 7008POPC   D2A20932  14.360  23.746   8.255
 7008POPC   C3A20933  14.392  23.691   7.955
 7008POPC   C4A20934  14.354  23.763   7.655
 7008POPC   C1B20935  14.197  23.648   8.555
 7008POPC   C2B20936  14.169  23.672   8.255
 7008POPC   C3B20937  14.128  23.674   7.955
 7008POPC   C4B20938  14.205  23.691   7.655
 7009POPC   NC320939  43.117  40.011   9.455
 7009POPC   PO420940  43.155  39.996   9.155
 7009POPC   GL120941  43.112  39.964   8.855
 7009POPC   GL220942  43.236  40.016   8.855
 7009POPC   C1A20943  43.114  39.971   8.555
 7009POPC   D2A20944  43.125  40.024   8.255
 7009POPC   C3A20945  43.095  40.027   7.955
 7009POPC   C4A20946  43.102  40.008   7.655
 7009POPC   C1B20947  43.358  40.054   8.555
 7009POPC   C2B20948  43.355  40.084   8.255
 7009POPC   C3B20949  43.321  40.075   7.955
 7009POPC   C4B20950  43.298  40.137   7.655
 7010POPC   NC320951  43.152  14.424   9.455
 7010POPC   PO420952  43.107  14.354   9.155
 7010POPC   GL120953  43.097  14.434   8.855
 7010POPC   GL220954  42.974  14.359   8.855
 7010POPC   C1A20955  43.146  14.429   8.555
 7010POPC   D2A20956  43.150  14.398   8.255
 7010POPC   C3A20957  43.152  14.357   7.955
 7010POPC   C4A20958  43.069  14.443   7.655
 7010POPC   C1B20959  42.919  14.342   8.555
 7010POPC   C2B20960  42.829  14.294   8.255
 7010POPC   C3B20961  42.880  14.344   7.955
 7010POPC   C4B20962  42.854  14.276   7.655
 7011POPC   NC320963  34.621   8.178   9.455
 7011POPC   PO420964  34.606   8.149   9.155
 7011POPC   GL120965  34.616   8.189   8.855
 7011POPC   GL220966  34.732   8.179   8.855
 7011POPC   C1A20967  34.555   8.196   8.555
 7011POPC   D2A20968  34.564   8.185   8.255
 7011POPC   C3A20969  34.542   8.224   7.955
 7011POPC   C4A20970  34.572   8.200   7.655
 7011POPC   C1B20971  34.843   8.144   8.555
 7011POPC   C2B20972  34.837   8.204   8.255
 7011POPC   C3B20973  34.830   8.140   7.955
 7011POPC   C4B20974  34.866   8.174   7.655
 7012POPC   NC320975   1.263   4.299   9.455
 7012POPC   PO420976   1.228   4.306   9.155
 7012POPC   GL120977   1.249   4.329   8.855
 7012POPC   GL220978   1.361   4.224   8.855
 7012POPC   C1A20979   1.246   4.350   8.555
 7012POPC   D2A20980   1.222   4.300   8.255
 7012POPC   C3A20981   1.185   4.308   7.955
 7012POPC   C4A20982   1.175   4.286   7.655
 7012POPC   C1B20983   1.396   4.157   8.555
 7012POPC   C2B20984   1.397   4.236   8.255
 7012POPC   C3B20985   1.449   4.185   7.955
 7012POPC   C4B20986   1.468   4.177   7.655
 7013POPC   NC320987  11.265   8.177   9.455
 7013POPC   PO420988  11.320   8.181   9.155
 7013POPC   GL120989  11.293   8.209   8.855
 7013POPC   GL220990  11.154   8.228   8.855
 7013POPC   C1A20991  11.296   8.194   8.555
 7013POPC   D2A20992  11.255   8.241   8.255
 7013POPC   C3A20993  11.327   8.198   7.955
 7013POPC   C4A20994  11.299   8.188   7.655
 7013POPC   C1B20995  11.007   8.179   8.555
 7013POPC   C2B20996  11.088   8.201   8.255
 7013POPC   C3B20997  11.059   8.189   7.955
 7013POPC   C4B20998  11.066   8.200   7.655
 7014POPC   NC320999  24.491  10.523   9.455
 7014POPC   PO421000  24.535  10.545   9.155
 7014POPC   GL121001  24.511  10.514   8.855
 7014POPC   GL221002  24.364  10.456   8.855
 7014POPC   C1A21003  24.464  10.506   8.555
 7014POPC   D2A21004  24.457  10.556   8.255
 7014POPC   C3A21005  24.459  10.482   7.955
 7014POPC   C4A21006  24.513  10.535   7.655
 7014POPC   C1B21007  24.228  10.433   8.555
 7014POPC   C2B21008  24.232  10.399   8.255
 7014POPC   C3B21009  24.275  10.395   7.955
 7014POPC   C4B21010  24.303  10.345   7.655
 7015POPC   NC321011  35.357  33.045   9.455
 7015POPC   PO421012  35.372  33.038   9.155
 7015POPC   GL121013  35.310  33.048   8.855
 7015POPC   GL221014  35.431  33.184   8.855
 7015POPC   C1A21015  35.329  33.035   8.555
 7015POPC   D2A21016  35.371  33.057   8.255
 7015POPC   C3A21017  35.374  33.057   7.955
 7015POPC   C4A21018  35.341  32.996   7.655
 7015POPC   C1B21019  35.458  33.270   8.555
 7015POPC   C2B21020  35.445  33.260   8.255
 7015POPC   C3B21021  35.463  33.257   7.955
 7015POPC   C4B21022  35.442  33.306   7.655
 7016POPC   NC321023  13.623  20.652   9.455
 7016POPC   PO421024  13.661  20.579   9.155
 7016POPC   GL121025  13.654  20.600   8.855
 7016POPC   GL221026  13.708  20.772   8.855
 7016POPC   C1A21027  13.666  20.573   8.555
 7016POPC   D2A21028  13.661  20.574   8.255
 7016POPC   C3A21029  13.582  20.572   7.955
 7016POPC   C4A21030  13.667  20.643   7.655
 7016POPC   C1B21031  13.695  20.881   8.555
 7016POPC   C2B21032  13.680  20.859   8.255
 7016POPC   C3B21033  13.707  20.836   7.955
 7016POPC   C4B21034  13.656  20.811   7.655
 7017POPC   NC321035  40.037  41.597   9.455
 7017POPC   PO421036  39.978  41.559   9.155
 7017POPC   GL121037  40.014  41.519   8.855
 7017POPC   GL221038  40.048  41.482   8.855
 7017POPC   C1A21039  39.979  41.570   8.555
 7017POPC   D2A21040  39.971  41.564   8.255
 7017POPC   C3A21041  40.001  41.561   7.955
 7017POPC   C4A21042  40.018  41.576   7.655
 7017POPC   C1B21043  40.098  41.282   8.555
 7017POPC   C2B21044  40.135  41.357   8.255
 7017POPC   C3B21045  40.054  41.366   7.955
 7017POPC   C4B21046  40.081  41.331   7.655
 7018POPC   NC321047  40.025  29.194   9.455
 7018POPC   PO421048  40.011  29.174   9.155
 7018POPC   GL121049  39.979  29.149   8.855
 7018POPC   GL221050  39.896  29.127   8.855
 7018POPC   C1A21051  39.987  29.183   8.555
 7018POPC   D2A21052  40.034  29.178   8.255
 7018POPC   C3A21053  40.013  29.112   7.955
 7018POPC   C4A21054  39.999  29.180   7.655
 7018POPC   C1B21055  39.784  29.073   8.555
 7018POPC   C2B21056  39.731  29.090   8.255
 7018POPC   C3B21057  39.798  29.047   7.955
 7018POPC   C4B21058  39.763  29.010   7.655
 7019POPC   NC321059  20.591  24.482   9.455
 7019POPC   PO421060  20.645  24.503   9.155
 7019POPC   GL121061  20.625  24.461   8.855
 7019POPC   GL221062  20.552  24.574   8.855
 7019POPC   C1A21063  20.644  24.515   8.555
 7019POPC   D2A21064  20.591  24.468   8.255
 7019POPC   C3A21065  20.660  24.493   7.955
 7019POPC   C4A21066  20.659  24.513   7.655
 7019POPC   C1B21067  20.502  24.742   8.555
 7019POPC   C2B21068  20.490  24.740   8.255
 7019POPC   C3B21069  20.549  24.688   7.955
 7019POPC   C4B21070  20.567  24.742   7.655
 7020POPC   NC321071  24.469   6.661   9.455
 7020POPC   PO421072  24.502   6.678   9.155
 7020POPC   GL121073  24.501   6.665   8.855
 7020POPC   GL221074  24.560   6.494   8.855
 7020POPC   C1A21075  24.529   6.663   8.555
 7020POPC   D2A21076  24.534   6.616   8.255
 7020POPC   C3A21077  24.477   6.629   7.955
 7020POPC   C4A21078  24.455   6.667   7.655
 7020POPC   C1B21079  24.547   6.425   8.555
 7020POPC   C2B21080  24.561   6.451   8.255
 7020POPC   C3B21081  24.567   6.388   7.955
 7020POPC   C4B21082  24.586   6.429   7.655
 7021POPC   NC321083  24.468   2.003   9.455
 7021POPC   PO421084  24.539   1.977   9.155
 7021POPC   GL121085  24.513   1.978   8.855
 7021POPC   GL221086  24.523   2.140   8.855
 7021POPC   C1A21087  24.529   1.978   8.555
 7021POPC   D2A21088  24.441   1.966   8.255
 7021POPC   C3A21089  24.503   2.035   7.955
 7021POPC   C4A21090  24.506   2.001   7.655
 7021POPC   C1B21091  24.589   2.250   8.555
 7021POPC   C2B21092  24.546   2.214   8.255
 7021POPC   C3B21093  24.599   2.237   7.955
 7021POPC   C4B21094  24.528   2.256   7.655
 7022POPC   NC321095  35.328  43.101   9.455
 7022POPC   PO421096  35.400  43.120   9.155
 7022POPC   GL121097  35.314  43.150   8.855
 7022POPC   GL221098  35.363  42.972   8.855
 7022POPC   C1A21099  35.317  43.091   8.555
 7022POPC   D2A21100  35.389  43.066   8.255
 7022POPC   C3A21101  35.378  43.066   7.955
 7022POPC   C4A21102  35.374  43.084   7.655
 7022POPC   C1B21103  35.277  42.825   8.555
 7022POPC   C2B21104  35.274  42.867   8.255
 7022POPC   C3B21105  35.281  42.883   7.955
 7022POPC   C4B21106  35.337  42.820   7.655
 7023POPC   NC321107  10.518  19.073   9.455
 7023POPC   PO421108  10.496  19.092   9.155
 7023POPC   GL121109  10.520  19.039   8.855
 7023POPC   GL221110  10.442  18.972   8.855
 7023POPC   C1A21111  10.551  19.059   8.555
 7023POPC   D2A21112  10.548  19.022   8.255
 7023POPC   C3A21113  10.513  19.070   7.955
 7023POPC   C4A21114  10.482  19.046   7.655
 7023POPC   C1B21115  10.313  18.919   8.555
 7023POPC   C2B21116  10.335  18.862   8.255
 7023POPC   C3B21117  10.295  18.887   7.955
 7023POPC   C4B21118  10.370  18.934   7.655
 7024POPC   NC321119  14.365  43.930   9.455
 7024POPC   PO421120  14.422  43.930   9.155
 7024POPC   GL121121  14.417  43.839   8.855
 7024POPC   GL221122  14.424  43.723   8.855
 7024POPC   C1A21123  14.430  43.925   8.555
 7024POPC   D2A21124  14.393  43.846   8.255
 7024POPC   C3A21125  14.392  43.883   7.955
 7024POPC   C4A21126  14.437  43.887   7.655
 7024POPC   C1B21127  14.438  43.607   8.555
 7024POPC   C2B21128  14.406  43.675   8.255
 7024POPC   C3B21129  14.392  43.625   7.955
 7024POPC   C4B21130  14.458  43.666   7.655
 7025POPC   NC321131  40.809  17.515   9.455
 7025POPC   PO421132  40.768  17.525   9.155
 7025POPC   GL121133  40.781  17.493   8.855
 7025POPC   GL221134  40.891  17.581   8.855
 7025POPC   C1A21135  40.754  17.551   8.555
 7025POPC   D2A21136  40.793  17.505   8.255
 7025POPC   C3A21137  40.816  17.467   7.955
 7025POPC   C4A21138  40.745  17.457   7.655
 7025POPC   C1B21139  40.983  17.663   8.555
 7025POPC   C2B21140  40.958  17.663   8.255
 7025POPC   C3B21141  40.915  17.710   7.955
 7025POPC   C4B21142  40.908  17.672   7.655
 7026POPC   NC321143  33.027  36.140   9.455
 7026POPC   PO421144  33.032  36.115   9.155
 7026POPC   GL121145  33.032  36.142   8.855
 7026POPC   GL221146  32.906  36.132   8.855
 7026POPC   C1A21147  33.062  36.094   8.555
 7026POPC   D2A21148  32.985  36.107   8.255
 7026POPC   C3A21149  33.031  36.136   7.955
 7026POPC   C4A21150  33.020  36.156   7.655
 7026POPC   C1B21151  32.760  36.203   8.555
 7026POPC   C2B21152  32.779  36.190   8.255
 7026POPC   C3B21153  32.766  36.225   7.955
 7026POPC   C4B21154  32.786  36.187   7.655
 7027POPC   NC321155  13.663  43.095   9.455
 7027POPC   PO421156  13.592  43.132   9.155
 7027POPC   GL121157  13.667  43.126   8.855
 7027POPC   GL221158  13.776  43.080   8.855
 7027POPC   C1A21159  13.671  43.149   8.555
 7027POPC   D2A21160  13.639  43.082   8.255
 7027POPC   C3A21161  13.663  43.074   7.955
 7027POPC   C4A21162  13.622  43.093   7.655
 7027POPC   C1B21163  13.870  43.128   8.555
 7027POPC   C2B21164  13.875  43.151   8.255
 7027POPC   C3B21165  13.906  43.166   7.955
 7027POPC   C4B21166  13.829  43.112   7.655
 7028POPC   NC321167  19.090  31.512   9.455
 7028POPC   PO421168  19.046  31.441   9.155
 7028POPC   GL121169  19.087  31.514   8.855
 7028POPC   GL221170  19.023  31.562   8.855
 7028POPC   C1A21171  19.066  31.461   8.555
 7028POPC   D2A21172  19.026  31.425   8.255
 7028POPC   C3A21173  19.100  31.516   7.955
 7028POPC   C4A21174  19.026  31.494   7.655
 7028POPC   C1B21175  18.925  31.730   8.555
 7028POPC   C2B21176  18.957  31.681   8.255
 7028POPC   C3B21177  18.967  31.671   7.955
 7028POPC   C4B21178  18.967  31.734   7.655
 7029POPC   NC321179  30.702  15.168   9.455
 7029POPC   PO421180  30.657  15.154   9.155
 7029POPC   GL121181  30.701  15.146   8.855
 7029POPC   GL221182  30.691  15.309   8.855
 7029POPC   C1A21183  30.745  15.192   8.555
 7029POPC   D2A21184  30.719  15.184   8.255
 7029POPC   C3A21185  30.732  15.162   7.955
 7029POPC   C4A21186  30.659  15.150   7.655
 7029POPC   C1B21187  30.730  15.445   8.555
 7029POPC   C2B21188  30.685  15.384   8.255
 7029POPC   C3B21189  30.777  15.450   7.955
 7029POPC   C4B21190  30.704  15.433   7.655
 7030POPC   NC321191  12.864   7.458   9.455
 7030POPC   PO421192  12.868   7.374   9.155
 7030POPC   GL121193  12.901   7.374   8.855
 7030POPC   GL221194  12.812   7.343   8.855
 7030POPC   C1A21195  12.850   7.384   8.555
 7030POPC   D2A21196  12.857   7.374   8.255
 7030POPC   C3A21197  12.833   7.398   7.955
 7030POPC   C4A21198  12.809   7.388   7.655
 7030POPC   C1B21199  12.728   7.216   8.555
 7030POPC   C2B21200  12.685   7.179   8.255
 7030POPC   C3B21201  12.713   7.246   7.955
 7030POPC   C4B21202  12.711   7.193   7.655
 7031POPC   NC321203  33.769  43.924   9.455
 7031POPC   PO421204  33.844  43.917   9.155
 7031POPC   GL121205  33.783  43.911   8.855
 7031POPC   GL221206  33.969  43.861   8.855
 7031POPC   C1A21207  33.804  43.883   8.555
 7031POPC   D2A21208  33.803  43.935   8.255
 7031POPC   C3A21209  33.814  43.867   7.955
 7031POPC   C4A21210  33.831  43.887   7.655
 7031POPC   C1B21211  34.027  43.841   8.555
 7031POPC   C2B21212  33.996  43.846   8.255
 7031POPC   C3B21213  34.067  43.825   7.955
 7031POPC   C4B21214  34.033  43.840   7.655
 7032POPC   NC321215   0.443  44.617   9.455
 7032POPC   PO421216   0.481  44.679   9.155
 7032POPC   GL121217   0.431  44.699   8.855
 7032POPC   GL221218   0.448  44.825   8.855
 7032POPC   C1A21219   0.463  44.676   8.555
 7032POPC   D2A21220   0.427  44.677   8.255
 7032POPC   C3A21221   0.454  44.612   7.955
 7032POPC   C4A21222   0.401  44.676   7.655
 7032POPC   C1B21223   0.563  44.882   8.555
 7032POPC   C2B21224   0.561  44.917   8.255
 7032POPC   C3B21225   0.555  44.864   7.955
 7032POPC   C4B21226   0.529  44.882   7.655
 7033POPC   NC321227  12.839  15.223   9.455
 7033POPC   PO421228  12.852  15.204   9.155
 7033POPC   GL121229  12.821  15.185   8.855
 7033POPC   GL221230  12.708  15.097   8.855
 7033POPC   C1A21231  12.875  15.168   8.555
 7033POPC   D2A21232  12.891  15.168   8.255
 7033POPC   C3A21233  12.873  15.205   7.955
 7033POPC   C4A21234  12.808  15.216   7.655
 7033POPC   C1B21235  12.584  15.079   8.555
 7033POPC   C2B21236  12.641  15.043   8.255
 7033POPC   C3B21237  12.636  15.127   7.955
 7033POPC   C4B21238  12.585  15.055   7.655
 7034POPC   NC321239  22.964  22.115   9.455
 7034POPC   PO421240  22.984  22.132   9.155
 7034POPC   GL121241  22.890  22.167   8.855
 7034POPC   GL221242  23.010  22.283   8.855
 7034POPC   C1A21243  22.954  22.159   8.555
 7034POPC   D2A21244  22.961  22.138   8.255
 7034POPC   C3A21245  22.889  22.129   7.955
 7034POPC   C4A21246  22.932  22.150   7.655
 7034POPC   C1B21247  23.067  22.359   8.555
 7034POPC   C2B21248  22.985  22.399   8.255
 7034POPC   C3B21249  22.988  22.437   7.955
 7034POPC   C4B21250  23.018  22.385   7.655
 7035POPC   NC321251   3.554  41.585   9.455
 7035POPC   PO421252   3.571  41.565   9.155
 7035POPC   GL121253   3.580  41.579   8.855
 7035POPC   GL221254   3.645  41.515   8.855
 7035POPC   C1A21255   3.569  41.602   8.555
 7035POPC   D2A21256   3.495  41.523   8.255
 7035POPC   C3A21257   3.590  41.542   7.955
 7035POPC   C4A21258   3.536  41.528   7.655
 7035POPC   C1B21259   3.772  41.587   8.555
 7035POPC   C2B21260   3.776  41.522   8.255
 7035POPC   C3B21261   3.837  41.597   7.955
 7035POPC   C4B21262   3.765  41.571   7.655
 7036POPC   NC321263   8.208  10.488   9.455
 7036POPC   PO421264   8.192  10.504   9.155
 7036POPC   GL121265   8.203  10.564   8.855
 7036POPC   GL221266   8.279  10.577   8.855
 7036POPC   C1A21267   8.158  10.494   8.555
 7036POPC   D2A21268   8.226  10.522   8.255
 7036POPC   C3A21269   8.215  10.556   7.955
 7036POPC   C4A21270   8.201  10.546   7.655
 7036POPC   C1B21271   8.335  10.733   8.555
 7036POPC   C2B21272   8.407  10.742   8.255
 7036POPC   C3B21273   8.337  10.692   7.955
 7036POPC   C4B21274   8.326  10.689   7.655
 7037POPC   NC321275   6.651  12.868   9.455
 7037POPC   PO421276   6.666  12.832   9.155
 7037POPC   GL121277   6.660  12.879   8.855
 7037POPC   GL221278   6.570  12.734   8.855
 7037POPC   C1A21279   6.607  12.887   8.555
 7037POPC   D2A21280   6.683  12.843   8.255
 7037POPC   C3A21281   6.674  12.804   7.955
 7037POPC   C4A21282   6.602  12.892   7.655
 7037POPC   C1B21283   6.474  12.691   8.555
 7037POPC   C2B21284   6.479  12.715   8.255
 7037POPC   C3B21285   6.434  12.723   7.955
 7037POPC   C4B21286   6.506  12.675   7.655
 7038POPC   NC321287   5.096  10.485   9.455
 7038POPC   PO421288   5.117  10.475   9.155
 7038POPC   GL121289   5.052  10.512   8.855
 7038POPC   GL221290   4.982  10.527   8.855
 7038POPC   C1A21291   5.126  10.524   8.555
 7038POPC   D2A21292   5.137  10.516   8.255
 7038POPC   C3A21293   5.100  10.508   7.955
 7038POPC   C4A21294   5.065  10.566   7.655
 7038POPC   C1B21295   4.853  10.569   8.555
 7038POPC   C2B21296   4.892  10.622   8.255
 7038POPC   C3B21297   4.893  10.626   7.955
 7038POPC   C4B21298   4.802  10.556   7.655
 7039POPC   NC321299  12.100  43.919   9.455
 7039POPC   PO421300  12.065  43.934   9.155
 7039POPC   GL121301  12.104  43.855   8.855
 7039POPC   GL221302  12.163  43.921   8.855
 7039POPC   C1A21303  12.110  43.872   8.555
 7039POPC   D2A21304  12.086  43.924   8.255
 7039POPC   C3A21305  12.105  43.855   7.955
 7039POPC   C4A21306  12.122  43.936   7.655
 7039POPC   C1B21307  12.308  43.952   8.555
 7039POPC   C2B21308  12.347  44.022   8.255
 7039POPC   C3B21309  12.293  44.043   7.955
 7039POPC   C4B21310  12.342  43.979   7.655
 7040POPC   NC321311  42.314   5.833   9.455
 7040POPC   PO421312  42.376   5.906   9.155
 7040POPC   GL121313  42.296   5.915   8.855
 7040POPC   GL221314  42.241   5.785   8.855
 7040POPC   C1A21315  42.357   5.836   8.555
 7040POPC   D2A21316  42.339   5.879   8.255
 7040POPC   C3A21317  42.372   5.911   7.955
 7040POPC   C4A21318  42.341   5.903   7.655
 7040POPC   C1B21319  42.087   5.725   8.555
 7040POPC   C2B21320  42.078   5.740   8.255
 7040POPC   C3B21321  42.085   5.718   7.955
 7040POPC   C4B21322  42.087   5.726   7.655
 7041POPC   NC321323  29.163  36.898   9.455
 7041POPC   PO421324  29.167  36.879   9.155
 7041POPC   GL121325  29.182  36.919   8.855
 7041POPC   GL221326  28.978  36.869   8.855
 7041POPC   C1A21327  29.150  36.948   8.555
 7041POPC   D2A21328  29.151  36.885   8.255
 7041POPC   C3A21329  29.106  36.870   7.955
 7041POPC   C4A21330  29.144  36.930   7.655
 7041POPC   C1B21331  28.935  36.891   8.555
 7041POPC   C2B21332  28.910  36.827   8.255
 7041POPC   C3B21333  28.865  36.799   7.955
 7041POPC   C4B21334  28.885  36.821   7.655
 7042POPC   NC321335  41.557  27.591   9.455
 7042POPC   PO421336  41.580  27.584   9.155
 7042POPC   GL121337  41.552  27.544   8.855
 7042POPC   GL221338  41.612  27.431   8.855
 7042POPC   C1A21339  41.550  27.551   8.555
 7042POPC   D2A21340  41.570  27.606   8.255
 7042POPC   C3A21341  41.572  27.611   7.955
 7042POPC   C4A21342  41.518  27.573   7.655
 7042POPC   C1B21343  41.608  27.314   8.555
 7042POPC   C2B21344  41.627  27.315   8.255
 7042POPC   C3B21345  41.656  27.353   7.955
 7042POPC   C4B21346  41.651  27.387   7.655
 7043POPC   NC321347  34.600   8.977   9.455
 7043POPC   PO421348  34.607   9.008   9.155
 7043POPC   GL121349  34.618   9.009   8.855
 7043POPC   GL221350  34.493   8.967   8.855
 7043POPC   C1A21351  34.594   8.997   8.555
 7043POPC   D2A21352  34.615   8.963   8.255
 7043POPC   C3A21353  34.542   9.018   7.955
 7043POPC   C4A21354  34.549   8.961   7.655
 7043POPC   C1B21355  34.348   8.867   8.555
 7043POPC   C2B21356  34.310   8.868   8.255
 7043POPC   C3B21357  34.300   8.852   7.955
 7043POPC   C4B21358  34.376   8.832   7.655
 7044POPC   NC321359  28.398  10.529   9.455
 7044POPC   PO421360  28.374  10.504   9.155
 7044POPC   GL121361  28.389  10.538   8.855
 7044POPC   GL221362  28.373  10.622   8.855
 7044POPC   C1A21363  28.408  10.487   8.555
 7044POPC   D2A21364  28.407  10.533   8.255
 7044POPC   C3A21365  28.388  10.558   7.955
 7044POPC   C4A21366  28.353  10.501   7.655
 7044POPC   C1B21367  28.267  10.762   8.555
 7044POPC   C2B21368  28.310  10.717   8.255
 7044POPC   C3B21369  28.286  10.769   7.955
 7044POPC   C4B21370  28.265  10.760   7.655
 7045POPC   NC321371  13.578   7.419   9.455
 7045POPC   PO421372  13.600   7.454   9.155
 7045POPC   GL121373  13.580   7.399   8.855
 7045POPC   GL221374  13.737   7.368   8.855
 7045POPC   C1A21375  13.590   7.466   8.555
 7045POPC   D2A21376  13.650   7.463   8.255
 7045POPC   C3A21377  13.626   7.375   7.955
 7045POPC   C4A21378  13.617   7.420   7.655
 7045POPC   C1B21379  13.878   7.379   8.555
 7045POPC   C2B21380  13.864   7.369   8.255
 7045POPC   C3B21381  13.862   7.424   7.955
 7045POPC   C4B21382  13.915   7.448   7.655
 7046POPC   NC321383  36.864  43.930   9.455
 7046POPC   PO421384  36.882  43.926   9.155
 7046POPC   GL121385  36.918  43.842   8.855
 7046POPC   GL221386  36.868  43.996   8.855
 7046POPC   C1A21387  36.947  43.905   8.555
 7046POPC   D2A21388  36.923  43.882   8.255
 7046POPC   C3A21389  36.936  43.901   7.955
 7046POPC   C4A21390  36.947  43.837   7.655
 7046POPC   C1B21391  36.835  44.119   8.555
 7046POPC   C2B21392  36.829  44.155   8.255
 7046POPC   C3B21393  36.844  44.102   7.955
 7046POPC   C4B21394  36.892  44.106   7.655
 7047POPC   NC321395  21.387  23.685   9.455
 7047POPC   PO421396  21.429  23.722   9.155
 7047POPC   GL121397  21.397  23.665   8.855
 7047POPC   GL221398  21.431  23.843   8.855
 7047POPC   C1A21399  21.375  23.719   8.555
 7047POPC   D2A21400  21.352  23.709   8.255
 7047POPC   C3A21401  21.357  23.669   7.955
 7047POPC   C4A21402  21.344  23.756   7.655
 7047POPC   C1B21403  21.518  23.908   8.555
 7047POPC   C2B21404  21.597  23.872   8.255
 7047POPC   C3B21405  21.526  23.845   7.955
 7047POPC   C4B21406  21.602  23.900   7.655
 7048POPC   NC321407   8.159   5.079   9.455
 7048POPC   PO421408   8.185   5.132   9.155
 7048POPC   GL121409   8.233   5.052   8.855
 7048POPC   GL221410   8.053   5.129   8.855
 7048POPC   C1A21411   8.155   5.062   8.555
 7048POPC   D2A21412   8.148   5.109   8.255
 7048POPC   C3A21413   8.197   5.048   7.955
 7048POPC   C4A21414   8.239   5.079   7.655
 7048POPC   C1B21415   7.978   5.109   8.555
 7048POPC   C2B21416   7.986   5.087   8.255
 7048POPC   C3B21417   7.985   5.096   7.955
 7048POPC   C4B21418   7.938   5.136   7.655
 7049POPC   NC321419  38.466  17.466   9.455
 7049POPC   PO421420  38.481  17.502   9.155
 7049POPC   GL121421  38.426  17.527   8.855
 7049POPC   GL221422  38.554  17.602   8.855
 7049POPC   C1A21423  38.470  17.544   8.555
 7049POPC   D2A21424  38.429  17.526   8.255
 7049POPC   C3A21425  38.415  17.496   7.955
 7049POPC   C4A21426  38.451  17.493   7.655
 7049POPC   C1B21427  38.704  17.594   8.555
 7049POPC   C2B21428  38.661  17.573   8.255
 7049POPC   C3B21429  38.715  17.596   7.955
 7049POPC   C4B21430  38.664  17.585   7.655
 7050POPC   NC321431   7.408  34.566   9.455
 7050POPC   PO421432   7.453  34.592   9.155
 7050POPC   GL121433   7.440  34.587   8.855
 7050POPC   GL221434   7.576  34.564   8.855
 7050POPC   C1A21435   7.456  34.588   8.555
 7050POPC   D2A21436   7.470  34.550   8.255
 7050POPC   C3A21437   7.419  34.573   7.955
 7050POPC   C4A21438   7.470  34.617   7.655
 7050POPC   C1B21439   7.649  34.635   8.555
 7050POPC   C2B21440   7.674  34.647   8.255
 7050POPC   C3B21441   7.653  34.640   7.955
 7050POPC   C4B21442   7.689  34.569   7.655
 7051POPC   NC321443  43.855  44.685   9.455
 7051POPC   PO421444  43.903  44.618   9.155
 7051POPC   GL121445  43.923  44.682   8.855
 7051POPC   GL221446  43.970  44.750   8.855
 7051POPC   C1A21447  43.853  44.703   8.555
 7051POPC   D2A21448  43.913  44.693   8.255
 7051POPC   C3A21449  43.859  44.711   7.955
 7051POPC   C4A21450  43.853  44.628   7.655
 7051POPC   C1B21451  44.132  44.719   8.555
 7051POPC   C2B21452  44.130  44.742   8.255
 7051POPC   C3B21453  44.134  44.769   7.955
 7051POPC   C4B21454  44.079  44.799   7.655
 7052POPC   NC321455  15.165  27.546   9.455
 7052POPC   PO421456  15.171  27.580   9.155
 7052POPC   GL121457  15.161  27.556   8.855
 7052POPC   GL221458  15.063  27.478   8.855
 7052POPC   C1A21459  15.146  27.580   8.555
 7052POPC   D2A21460  15.161  27.615   8.255
 7052POPC   C3A21461  15.197  27.557   7.955
 7052POPC   C4A21462  15.189  27.581   7.655
 7052POPC   C1B21463  14.985  27.443   8.555
 7052POPC   C2B21464  14.967  27.427   8.255
 7052POPC   C3B21465  15.010  27.442   7.955
 7052POPC   C4B21466  15.026  27.396   7.655
 7053POPC   NC321467  37.720  34.569   9.455
 7053POPC   PO421468  37.675  34.614   9.155
 7053POPC   GL121469  37.710  34.622   8.855
 7053POPC   GL221470  37.759  34.545   8.855
 7053POPC   C1A21471  37.632  34.585   8.555
 7053POPC   D2A21472  37.649  34.577   8.255
 7053POPC   C3A21473  37.654  34.531   7.955
 7053POPC   C4A21474  37.679  34.602   7.655
 7053POPC   C1B21475  37.959  34.575   8.555
 7053POPC   C2B21476  37.952  34.630   8.255
 7053POPC   C3B21477  37.898  34.628   7.955
 7053POPC   C4B21478  37.896  34.631   7.655
 7054POPC   NC321479  28.369  13.616   9.455
 7054POPC   PO421480  28.395  13.622   9.155
 7054POPC   GL121481  28.358  13.615   8.855
 7054POPC   GL221482  28.469  13.491   8.855
 7054POPC   C1A21483  28.325  13.599   8.555
 7054POPC   D2A21484  28.375  13.624   8.255
 7054POPC   C3A21485  28.374  13.609   7.955
 7054POPC   C4A21486  28.346  13.626   7.655
 7054POPC   C1B21487  28.484  13.429   8.555
 7054POPC   C2B21488  28.495  13.455   8.255
 7054POPC   C3B21489  28.530  13.416   7.955
 7054POPC   C4B21490  28.533  13.449   7.655
 7055POPC   NC321491  11.274  31.469   9.455
 7055POPC   PO421492  11.292  31.442   9.155
 7055POPC   GL121493  11.321  31.471   8.855
 7055POPC   GL221494  11.188  31.395   8.855
 7055POPC   C1A21495  11.341  31.465   8.555
 7055POPC   D2A21496  11.294  31.493   8.255
 7055POPC   C3A21497  11.270  31.511   7.955
 7055POPC   C4A21498  11.295  31.518   7.655
 7055POPC   C1B21499  11.074  31.416   8.555
 7055POPC   C2B21500  11.097  31.453   8.255
 7055POPC   C3B21501  11.051  31.430   7.955
 7055POPC   C4B21502  11.099  31.377   7.655
 7056POPC   NC321503  26.801  40.795   9.455
 7056POPC   PO421504  26.785  40.754   9.155
 7056POPC   GL121505  26.851  40.739   8.855
 7056POPC   GL221506  26.844  40.880   8.855
 7056POPC   C1A21507  26.787  40.749   8.555
 7056POPC   D2A21508  26.806  40.824   8.255
 7056POPC   C3A21509  26.822  40.820   7.955
 7056POPC   C4A21510  26.839  40.803   7.655
 7056POPC   C1B21511  26.838  41.028   8.555
 7056POPC   C2B21512  26.852  41.039   8.255
 7056POPC   C3B21513  26.830  41.042   7.955
 7056POPC   C4B21514  26.787  41.067   7.655
 7057POPC   NC321515  15.200  21.350   9.455
 7057POPC   PO421516  15.171  21.426   9.155
 7057POPC   GL121517  15.209  21.395   8.855
 7057POPC   GL221518  15.104  21.333   8.855
 7057POPC   C1A21519  15.212  21.337   8.555
 7057POPC   D2A21520  15.193  21.343   8.255
 7057POPC   C3A21521  15.203  21.359   7.955
 7057POPC   C4A21522  15.165  21.349   7.655
 7057POPC   C1B21523  14.974  21.298   8.555
 7057POPC   C2B21524  14.919  21.307   8.255
 7057POPC   C3B21525  14.951  21.331   7.955
 7057POPC   C4B21526  14.900  21.305   7.655
 7058POPC   NC321527   8.208   8.161   9.455
 7058POPC   PO421528   8.221   8.195   9.155
 7058POPC   GL121529   8.177   8.230   8.855
 7058POPC   GL221530   8.257   8.091   8.855
 7058POPC   C1A21531   8.233   8.179   8.555
 7058POPC   D2A21532   8.178   8.194   8.255
 7058POPC   C3A21533   8.179   8.171   7.955
 7058POPC   C4A21534   8.200   8.211   7.655
 7058POPC   C1B21535   8.368   8.011   8.555
 7058POPC   C2B21536   8.326   8.018   8.255
 7058POPC   C3B21537   8.356   8.024   7.955
 7058POPC   C4B21538   8.312   7.965   7.655
 7059POPC   NC321539  41.577   8.923   9.455
 7059POPC   PO421540  41.563   8.990   9.155
 7059POPC   GL121541  41.565   8.943   8.855
 7059POPC   GL221542  41.579   8.818   8.855
 7059POPC   C1A21543  41.605   8.950   8.555
 7059POPC   D2A21544  41.559   8.956   8.255
 7059POPC   C3A21545  41.528   8.972   7.955
 7059POPC   C4A21546  41.543   8.949   7.655
 7059POPC   C1B21547  41.639   8.747   8.555
 7059POPC   C2B21548  41.662   8.722   8.255
 7059POPC   C3B21549  41.612   8.793   7.955
 7059POPC   C4B21550  41.689   8.695   7.655
 7060POPC   NC321551   8.923  40.040   9.455
 7060POPC   PO421552   8.974  40.056   9.155
 7060POPC   GL121553   8.963  40.040   8.855
 7060POPC   GL221554   9.045  39.886   8.855
 7060POPC   C1A21555   9.012  40.025   8.555
 7060POPC   D2A21556   9.020  39.957   8.255
 7060POPC   C3A21557   9.020  40.020   7.955
 7060POPC   C4A21558   8.928  40.032   7.655
 7060POPC   C1B21559   9.136  39.811   8.555
 7060POPC   C2B21560   9.129  39.799   8.255
 7060POPC   C3B21561   9.156  39.783   7.955
 7060POPC   C4B21562   9.122  39.808   7.655
 7061POPC   NC321563  26.838  27.625   9.455
 7061POPC   PO421564  26.847  27.617   9.155
 7061POPC   GL121565  26.841  27.596   8.855
 7061POPC   GL221566  26.707  27.638   8.855
 7061POPC   C1A21567  26.772  27.615   8.555
 7061POPC   D2A21568  26.775  27.606   8.255
 7061POPC   C3A21569  26.818  27.564   7.955
 7061POPC   C4A21570  26.795  27.638   7.655
 7061POPC   C1B21571  26.577  27.757   8.555
 7061POPC   C2B21572  26.561  27.736   8.255
 7061POPC   C3B21573  26.570  27.703   7.955
 7061POPC   C4B21574  26.627  27.752   7.655
 7062POPC   NC321575  42.314  22.119   9.455
 7062POPC   PO421576  42.311  22.116   9.155
 7062POPC   GL121577  42.346  22.158   8.855
 7062POPC   GL221578  42.192  22.146   8.855
 7062POPC   C1A21579  42.373  22.138   8.555
 7062POPC   D2A21580  42.379  22.202   8.255
 7062POPC   C3A21581  42.326  22.179   7.955
 7062POPC   C4A21582  42.337  22.147   7.655
 7062POPC   C1B21583  42.122  22.187   8.555
 7062POPC   C2B21584  42.123  22.263   8.255
 7062POPC   C3B21585  42.078  22.264   7.955
 7062POPC   C4B21586  42.045  22.226   7.655
 7063POPC   NC321587  13.661  30.727   9.455
 7063POPC   PO421588  13.625  30.705   9.155
 7063POPC   GL121589  13.620  30.701   8.855
 7063POPC   GL221590  13.660  30.796   8.855
 7063POPC   C1A21591  13.625  30.721   8.555
 7063POPC   D2A21592  13.587  30.708   8.255
 7063POPC   C3A21593  13.579  30.665   7.955
 7063POPC   C4A21594  13.662  30.691   7.655
 7063POPC   C1B21595  13.723  30.876   8.555
 7063POPC   C2B21596  13.774  30.860   8.255
 7063POPC   C3B21597  13.737  30.884   7.955
 7063POPC   C4B21598  13.752  30.933   7.655
 7064POPC   NC321599  44.667  34.542   9.455
 7064POPC   PO421600  44.644  34.571   9.155
 7064POPC   GL121601  44.616  34.527   8.855
 7064POPC   GL221602  44.583  34.467   8.855
 7064POPC   C1A21603  44.636  34.536   8.555
 7064POPC   D2A21604  44.706  34.538   8.255
 7064POPC   C3A21605  44.651  34.544   7.955
 7064POPC   C4A21606  44.681  34.614   7.655
 7064POPC   C1B21607  44.516  34.386   8.555
 7064POPC   C2B21608  44.472  34.425   8.255
 7064POPC   C3B21609  44.528  34.405   7.955
 7064POPC   C4B21610  44.484  34.442   7.655
 7065POPC   NC321611  22.192  26.023   9.455
 7065POPC   PO421612  22.202  26.030   9.155
 7065POPC   GL121613  22.148  26.022   8.855
 7065POPC   GL221614  22.160  25.880   8.855
 7065POPC   C1A21615  22.141  26.023   8.555
 7065POPC   D2A21616  22.210  26.033   8.255
 7065POPC   C3A21617  22.127  26.014   7.955
 7065POPC   C4A21618  22.172  26.078   7.655
 7065POPC   C1B21619  22.220  25.822   8.555
 7065POPC   C2B21620  22.265  25.783   8.255
 7065POPC   C3B21621  22.255  25.823   7.955
 7065POPC   C4B21622  22.234  25.834   7.655
 7066POPC   NC321623  31.494   9.704   9.455
 7066POPC   PO421624  31.517   9.739   9.155
 7066POPC   GL121625  31.518   9.756   8.855
 7066POPC   GL221626  31.361   9.712   8.855
 7066POPC   C1A21627  31.450   9.754   8.555
 7066POPC   D2A21628  31.426   9.750   8.255
 7066POPC   C3A21629  31.462   9.781   7.955
 7066POPC   C4A21630  31.517   9.788   7.655
 7066POPC   C1B21631  31.260   9.585   8.555
 7066POPC   C2B21632  31.231   9.634   8.255
 7066POPC   C3B21633  31.297   9.623   7.955
 7066POPC   C4B21634  31.203   9.671   7.655
 7067POPC   NC321635  36.872  24.485   9.455
 7067POPC   PO421636  36.905  24.473   9.155
 7067POPC   GL121637  36.894  24.516   8.855
 7067POPC   GL221638  36.816  24.436   8.855
 7067POPC   C1A21639  36.882  24.481   8.555
 7067POPC   D2A21640  36.916  24.539   8.255
 7067POPC   C3A21641  36.878  24.471   7.955
 7067POPC   C4A21642  36.885  24.488   7.655
 7067POPC   C1B21643  36.745  24.352   8.555
 7067POPC   C2B21644  36.727  24.284   8.255
 7067POPC   C3B21645  36.767  24.354   7.955
 7067POPC   C4B21646  36.707  24.327   7.655
 7068POPC   NC321647  11.298  26.777   9.455
 7068POPC   PO421648  11.329  26.836   9.155
 7068POPC   GL121649  11.283  26.773   8.855
 7068POPC   GL221650  11.289  26.666   8.855
 7068POPC   C1A21651  11.304  26.816   8.555
 7068POPC   D2A21652  11.321  26.823   8.255
 7068POPC   C3A21653  11.340  26.850   7.955
 7068POPC   C4A21654  11.252  26.823   7.655
 7068POPC   C1B21655  11.338  26.532   8.555
 7068POPC   C2B21656  11.283  26.605   8.255
 7068POPC   C3B21657  11.340  26.611   7.955
 7068POPC   C4B21658  11.351  26.548   7.655
 7069POPC   NC321659  38.478  11.309   9.455
 7069POPC   PO421660  38.473  11.308   9.155
 7069POPC   GL121661  38.438  11.315   8.855
 7069POPC   GL221662  38.307  11.341   8.855
 7069POPC   C1A21663  38.461  11.316   8.555
 7069POPC   D2A21664  38.473  11.314   8.255
 7069POPC   C3A21665  38.491  11.320   7.955
 7069POPC   C4A21666  38.418  11.284   7.655
 7069POPC   C1B21667  38.252  11.319   8.555
 7069POPC   C2B21668  38.216  11.297   8.255
 7069POPC   C3B21669  38.180  11.300   7.955
 7069POPC   C4B21670  38.162  11.307   7.655
 7070POPC   NC321671  29.965   0.400   9.455
 7070POPC   PO421672  29.917   0.420   9.155
 7070POPC   GL121673  29.964   0.432   8.855
 7070POPC   GL221674  29.802   0.465   8.855
 7070POPC   C1A21675  29.909   0.413   8.555
 7070POPC   D2A21676  29.923   0.391   8.255
 7070POPC   C3A21677  29.895   0.471   7.955
 7070POPC   C4A21678  29.927   0.487   7.655
 7070POPC   C1B21679  29.623   0.391   8.555
 7070POPC   C2B21680  29.626   0.457   8.255
 7070POPC   C3B21681  29.705   0.440   7.955
 7070POPC   C4B21682  29.711   0.461   7.655
 7071POPC   NC321683  16.753  16.722   9.455
 7071POPC   PO421684  16.780  16.716   9.155
 7071POPC   GL121685  16.723  16.713   8.855
 7071POPC   GL221686  16.633  16.786   8.855
 7071POPC   C1A21687  16.779  16.742   8.555
 7071POPC   D2A21688  16.744  16.778   8.255
 7071POPC   C3A21689  16.754  16.746   7.955
 7071POPC   C4A21690  16.765  16.688   7.655
 7071POPC   C1B21691  16.556  16.850   8.555
 7071POPC   C2B21692  16.563  16.883   8.255
 7071POPC   C3B21693  16.544  16.904   7.955
 7071POPC   C4B21694  16.558  16.873   7.655
 7072POPC   NC321695  36.080   9.731   9.455
 7072POPC   PO421696  36.120   9.783   9.155
 7072POPC   GL121697  36.124   9.707   8.855
 7072POPC   GL221698  36.201   9.695   8.855
 7072POPC   C1A21699  36.095   9.729   8.555
 7072POPC   D2A21700  36.174   9.707   8.255
 7072POPC   C3A21701  36.078   9.744   7.955
 7072POPC   C4A21702  36.123   9.767   7.655
 7072POPC   C1B21703  36.313   9.535   8.555
 7072POPC   C2B21704  36.328   9.589   8.255
 7072POPC   C3B21705  36.319   9.603   7.955
 7072POPC   C4B21706  36.315   9.586   7.655
 7073POPC   NC321707   1.245  26.791   9.455
 7073POPC   PO421708   1.258  26.850   9.155
 7073POPC   GL121709   1.222  26.865   8.855
 7073POPC   GL221710   1.156  26.765   8.855
 7073POPC   C1A21711   1.194  26.842   8.555
 7073POPC   D2A21712   1.204  26.800   8.255
 7073POPC   C3A21713   1.167  26.856   7.955
 7073POPC   C4A21714   1.187  26.855   7.655
 7073POPC   C1B21715   1.002  26.695   8.555
 7073POPC   C2B21716   1.027  26.724   8.255
 7073POPC   C3B21717   0.978  26.728   7.955
 7073POPC   C4B21718   0.981  26.679   7.655
 7074POPC   NC321719  11.338  14.446   9.455
 7074POPC   PO421720  11.296  14.440   9.155
 7074POPC   GL121721  11.279  14.447   8.855
 7074POPC   GL221722  11.326  14.538   8.855
 7074POPC   C1A21723  11.252  14.368   8.555
 7074POPC   D2A21724  11.344  14.382   8.255
 7074POPC   C3A21725  11.322  14.396   7.955
 7074POPC   C4A21726  11.299  14.383   7.655
 7074POPC   C1B21727  11.323  14.651   8.555
 7074POPC   C2B21728  11.349  14.622   8.255
 7074POPC   C3B21729  11.332  14.691   7.955
 7074POPC   C4B21730  11.271  14.644   7.655
 7075POPC   NC321731   5.080  27.615   9.455
 7075POPC   PO421732   5.062  27.629   9.155
 7075POPC   GL121733   5.044  27.564   8.855
 7075POPC   GL221734   5.109  27.750   8.855
 7075POPC   C1A21735   5.068  27.584   8.555
 7075POPC   D2A21736   5.089  27.598   8.255
 7075POPC   C3A21737   5.140  27.558   7.955
 7075POPC   C4A21738   5.101  27.598   7.655
 7075POPC   C1B21739   5.095  27.829   8.555
 7075POPC   C2B21740   5.070  27.856   8.255
 7075POPC   C3B21741   5.089  27.796   7.955
 7075POPC   C4B21742   5.082  27.800   7.655
 7076POPC   NC321743  42.326   8.949   9.455
 7076POPC   PO421744  42.312   8.983   9.155
 7076POPC   GL121745  42.349   9.000   8.855
 7076POPC   GL221746  42.427   8.959   8.855
 7076POPC   C1A21747  42.329   8.939   8.555
 7076POPC   D2A21748  42.312   8.993   8.255
 7076POPC   C3A21749  42.362   8.991   7.955
 7076POPC   C4A21750  42.377   9.010   7.655
 7076POPC   C1B21751  42.571   8.878   8.555
 7076POPC   C2B21752  42.600   8.902   8.255
 7076POPC   C3B21753  42.548   8.862   7.955
 7076POPC   C4B21754  42.577   8.871   7.655
 7077POPC   NC321755  37.676  25.223   9.455
 7077POPC   PO421756  37.641  25.284   9.155
 7077POPC   GL121757  37.726  25.302   8.855
 7077POPC   GL221758  37.624  25.332   8.855
 7077POPC   C1A21759  37.724  25.308   8.555
 7077POPC   D2A21760  37.692  25.272   8.255
 7077POPC   C3A21761  37.675  25.230   7.955
 7077POPC   C4A21762  37.651  25.297   7.655
 7077POPC   C1B21763  37.490  25.434   8.555
 7077POPC   C2B21764  37.506  25.393   8.255
 7077POPC   C3B21765  37.511  25.376   7.955
 7077POPC   C4B21766  37.484  25.466   7.655
 7078POPC   NC321767  26.823  12.061   9.455
 7078POPC   PO421768  26.790  12.037   9.155
 7078POPC   GL121769  26.845  12.039   8.855
 7078POPC   GL221770  26.957  12.024   8.855
 7078POPC   C1A21771  26.864  12.075   8.555
 7078POPC   D2A21772  26.822  12.050   8.255
 7078POPC   C3A21773  26.768  12.054   7.955
 7078POPC   C4A21774  26.794  12.116   7.655
 7078POPC   C1B21775  27.041  11.906   8.555
 7078POPC   C2B21776  26.985  11.920   8.255
 7078POPC   C3B21777  27.053  11.940   7.955
 7078POPC   C4B21778  27.035  11.871   7.655
 7079POPC   NC321779  34.590   2.012   9.455
 7079POPC   PO421780  34.539   2.031   9.155
 7079POPC   GL121781  34.537   1.958   8.855
 7079POPC   GL221782  34.675   2.057   8.855
 7079POPC   C1A21783  34.603   2.035   8.555
 7079POPC   D2A21784  34.622   1.942   8.255
 7079POPC   C3A21785  34.562   1.980   7.955
 7079POPC   C4A21786  34.586   1.962   7.655
 7079POPC   C1B21787  34.785   2.210   8.555
 7079POPC   C2B21788  34.742   2.168   8.255
 7079POPC   C3B21789  34.724   2.178   7.955
 7079POPC   C4B21790  34.760   2.179   7.655
 7080POPC   NC321791  36.147  22.972   9.455
 7080POPC   PO421792  36.152  22.934   9.155
 7080POPC   GL121793  36.080  22.947   8.855
 7080POPC   GL221794  36.214  22.831   8.855
 7080POPC   C1A21795  36.162  22.975   8.555
 7080POPC   D2A21796  36.131  22.891   8.255
 7080POPC   C3A21797  36.167  22.950   7.955
 7080POPC   C4A21798  36.138  22.970   7.655
 7080POPC   C1B21799  36.277  22.769   8.555
 7080POPC   C2B21800  36.296  22.757   8.255
 7080POPC   C3B21801  36.310  22.732   7.955
 7080POPC   C4B21802  36.237  22.771   7.655
 7081POPC   NC321803  19.790  40.799   9.455
 7081POPC   PO421804  19.789  40.803   9.155
 7081POPC   GL121805  19.812  40.744   8.855
 7081POPC   GL221806  19.927  40.864   8.855
 7081POPC   C1A21807  19.867  40.801   8.555
 7081POPC   D2A21808  19.819  40.821   8.255
 7081POPC   C3A21809  19.880  40.784   7.955
 7081POPC   C4A21810  19.799  40.792   7.655
 7081POPC   C1B21811  19.926  41.007   8.555
 7081POPC   C2B21812  19.943  40.954   8.255
 7081POPC   C3B21813  19.983  41.015   7.955
 7081POPC   C4B21814  19.908  41.020   7.655
 7082POPC   NC321815  28.340  42.331   9.455
 7082POPC   PO421816  28.397  42.364   9.155
 7082POPC   GL121817  28.343  42.354   8.855
 7082POPC   GL221818  28.460  42.185   8.855
 7082POPC   C1A21819  28.321  42.360   8.555
 7082POPC   D2A21820  28.384  42.352   8.255
 7082POPC   C3A21821  28.393  42.288   7.955
 7082POPC   C4A21822  28.352  42.305   7.655
 7082POPC   C1B21823  28.454  42.089   8.555
 7082POPC   C2B21824  28.508  42.086   8.255
 7082POPC   C3B21825  28.468  42.109   7.955
 7082POPC   C4B21826  28.463  42.099   7.655
 7083POPC   NC321827  29.115  43.873   9.455
 7083POPC   PO421828  29.140  43.882   9.155
 7083POPC   GL121829  29.098  43.913   8.855
 7083POPC   GL221830  29.100  43.970   8.855
 7083POPC   C1A21831  29.105  43.905   8.555
 7083POPC   D2A21832  29.164  43.922   8.255
 7083POPC   C3A21833  29.170  43.893   7.955
 7083POPC   C4A21834  29.162  43.876   7.655
 7083POPC   C1B21835  28.978  44.011   8.555
 7083POPC   C2B21836  28.917  44.049   8.255
 7083POPC   C3B21837  28.948  44.094   7.955
 7083POPC   C4B21838  28.963  44.083   7.655
 7084POPC   NC321839  26.038  35.383   9.455
 7084POPC   PO421840  26.057  35.349   9.155
 7084POPC   GL121841  26.061  35.315   8.855
 7084POPC   GL221842  26.142  35.197   8.855
 7084POPC   C1A21843  26.020  35.359   8.555
 7084POPC   D2A21844  26.035  35.318   8.255
 7084POPC   C3A21845  26.004  35.327   7.955
 7084POPC   C4A21846  26.016  35.395   7.655
 7084POPC   C1B21847  26.207  35.182   8.555
 7084POPC   C2B21848  26.182  35.139   8.255
 7084POPC   C3B21849  26.200  35.109   7.955
 7084POPC   C4B21850  26.150  35.149   7.655
 7085POPC   NC321851   2.016  13.640   9.455
 7085POPC   PO421852   1.967  13.639   9.155
 7085POPC   GL121853   1.992  13.649   8.855
 7085POPC   GL221854   1.911  13.545   8.855
 7085POPC   C1A21855   2.019  13.660   8.555
 7085POPC   D2A21856   1.967  13.584   8.255
 7085POPC   C3A21857   1.942  13.676   7.955
 7085POPC   C4A21858   2.034  13.657   7.655
 7085POPC   C1B21859   1.912  13.394   8.555
 7085POPC   C2B21860   1.910  13.439   8.255
 7085POPC   C3B21861   1.856  13.386   7.955
 7085POPC   C4B21862   1.857  13.422   7.655
 7086POPC   NC321863  41.518   9.771   9.455
 7086POPC   PO421864  41.583   9.732   9.155
 7086POPC   GL121865  41.560   9.731   8.855
 7086POPC   GL221866  41.599   9.637   8.855
 7086POPC   C1A21867  41.596   9.722   8.555
 7086POPC   D2A21868  41.598   9.754   8.255
 7086POPC   C3A21869  41.574   9.717   7.955
 7086POPC   C4A21870  41.543   9.737   7.655
 7086POPC   C1B21871  41.731   9.596   8.555
 7086POPC   C2B21872  41.694   9.562   8.255
 7086POPC   C3B21873  41.702   9.577   7.955
 7086POPC   C4B21874  41.758   9.557   7.655
 7087POPC   NC321875  32.992  40.017   9.455
 7087POPC   PO421876  33.064  40.017   9.155
 7087POPC   GL121877  32.989  40.025   8.855
 7087POPC   GL221878  33.152  39.964   8.855
 7087POPC   C1A21879  32.977  39.997   8.555
 7087POPC   D2A21880  32.997  39.987   8.255
 7087POPC   C3A21881  33.051  39.990   7.955
 7087POPC   C4A21882  33.009  39.969   7.655
 7087POPC   C1B21883  33.303  39.946   8.555
 7087POPC   C2B21884  33.248  39.921   8.255
 7087POPC   C3B21885  33.256  39.900   7.955
 7087POPC   C4B21886  33.289  39.898   7.655
 7088POPC   NC321887   5.062  36.909   9.455
 7088POPC   PO421888   5.113  36.928   9.155
 7088POPC   GL121889   5.088  36.904   8.855
 7088POPC   GL221890   5.251  36.860   8.855
 7088POPC   C1A21891   5.128  36.859   8.555
 7088POPC   D2A21892   5.080  36.910   8.255
 7088POPC   C3A21893   5.100  36.918   7.955
 7088POPC   C4A21894   5.121  36.943   7.655
 7088POPC   C1B21895   5.306  36.866   8.555
 7088POPC   C2B21896   5.319  36.881   8.255
 7088POPC   C3B21897   5.335  36.810   7.955
 7088POPC   C4B21898   5.358  36.859   7.655
 7089POPC   NC321899   9.706  33.019   9.455
 7089POPC   PO421900   9.710  32.975   9.155
 7089POPC   GL121901   9.730  33.055   8.855
 7089POPC   GL221902   9.832  32.906   8.855
 7089POPC   C1A21903   9.792  33.067   8.555
 7089POPC   D2A21904   9.718  33.050   8.255
 7089POPC   C3A21905   9.701  33.016   7.955
 7089POPC   C4A21906   9.762  32.981   7.655
 7089POPC   C1B21907   9.931  32.789   8.555
 7089POPC   C2B21908   9.867  32.787   8.255
 7089POPC   C3B21909   9.869  32.813   7.955
 7089POPC   C4B21910   9.884  32.866   7.655
 7090POPC   NC321911  34.568  13.637   9.455
 7090POPC   PO421912  34.567  13.631   9.155
 7090POPC   GL121913  34.545  13.676   8.855
 7090POPC   GL221914  34.527  13.496   8.855
 7090POPC   C1A21915  34.600  13.664   8.555
 7090POPC   D2A21916  34.572  13.582   8.255
 7090POPC   C3A21917  34.541  13.607   7.955
 7090POPC   C4A21918  34.531  13.616   7.655
 7090POPC   C1B21919  34.411  13.445   8.555
 7090POPC   C2B21920  34.415  13.402   8.255
 7090POPC   C3B21921  34.483  13.454   7.955
 7090POPC   C4B21922  34.472  13.367   7.655
 7091POPC   NC321923  19.079  22.159   9.455
 7091POPC   PO421924  19.034  22.134   9.155
 7091POPC   GL121925  19.108  22.112   8.855
 7091POPC   GL221926  19.125  22.053   8.855
 7091POPC   C1A21927  19.091  22.140   8.555
 7091POPC   D2A21928  19.072  22.197   8.255
 7091POPC   C3A21929  19.083  22.206   7.955
 7091POPC   C4A21930  19.108  22.141   7.655
 7091POPC   C1B21931  19.139  21.969   8.555
 7091POPC   C2B21932  19.176  21.956   8.255
 7091POPC   C3B21933  19.213  21.926   7.955
 7091POPC   C4B21934  19.189  21.945   7.655
 7092POPC   NC321935  31.461  12.107   9.455
 7092POPC   PO421936  31.427  12.109   9.155
 7092POPC   GL121937  31.473  12.066   8.855
 7092POPC   GL221938  31.331  12.018   8.855
 7092POPC   C1A21939  31.456  12.051   8.555
 7092POPC   D2A21940  31.481  12.034   8.255
 7092POPC   C3A21941  31.483  12.113   7.955
 7092POPC   C4A21942  31.471  12.073   7.655
 7092POPC   C1B21943  31.272  11.958   8.555
 7092POPC   C2B21944  31.315  11.942   8.255
 7092POPC   C3B21945  31.331  11.904   7.955
 7092POPC   C4B21946  31.292  11.928   7.655
 7093POPC   NC321947  19.030  15.202   9.455
 7093POPC   PO421948  19.092  15.204   9.155
 7093POPC   GL121949  19.076  15.182   8.855
 7093POPC   GL221950  19.126  15.248   8.855
 7093POPC   C1A21951  19.062  15.134   8.555
 7093POPC   D2A21952  19.097  15.225   8.255
 7093POPC   C3A21953  19.022  15.197   7.955
 7093POPC   C4A21954  19.045  15.173   7.655
 7093POPC   C1B21955  19.234  15.418   8.555
 7093POPC   C2B21956  19.238  15.369   8.255
 7093POPC   C3B21957  19.269  15.373   7.955
 7093POPC   C4B21958  19.207  15.413   7.655
 7094POPC   NC321959  43.118  17.522   9.455
 7094POPC   PO421960  43.082  17.538   9.155
 7094POPC   GL121961  43.103  17.520   8.855
 7094POPC   GL221962  43.191  17.632   8.855
 7094POPC   C1A21963  43.065  17.551   8.555
 7094POPC   D2A21964  43.119  17.504   8.255
 7094POPC   C3A21965  43.133  17.465   7.955
 7094POPC   C4A21966  43.065  17.460   7.655
 7094POPC   C1B21967  43.196  17.683   8.555
 7094POPC   C2B21968  43.205  17.746   8.255
 7094POPC   C3B21969  43.217  17.753   7.955
 7094POPC   C4B21970  43.288  17.707   7.655
 7095POPC   NC321971  17.522   5.083   9.455
 7095POPC   PO421972  17.487   5.106   9.155
 7095POPC   GL121973  17.498   5.047   8.855
 7095POPC   GL221974  17.450   4.953   8.855
 7095POPC   C1A21975  17.481   5.090   8.555
 7095POPC   D2A21976  17.529   5.123   8.255
 7095POPC   C3A21977  17.541   5.120   7.955
 7095POPC   C4A21978  17.541   5.099   7.655
 7095POPC   C1B21979  17.302   4.893   8.555
 7095POPC   C2B21980  17.297   4.896   8.255
 7095POPC   C3B21981  17.333   4.954   7.955
 7095POPC   C4B21982  17.307   4.927   7.655
 7096POPC   NC321983  44.681  15.159   9.455
 7096POPC   PO421984  44.675  15.210   9.155
 7096POPC   GL121985  44.712  15.129   8.855
 7096POPC   GL221986  44.534  15.248   8.855
 7096POPC   C1A21987  44.657  15.176   8.555
 7096POPC   D2A21988  44.629  15.211   8.255
 7096POPC   C3A21989  44.642  15.165   7.955
 7096POPC   C4A21990  44.705  15.191   7.655
 7096POPC   C1B21991  44.403  15.219   8.555
 7096POPC   C2B21992  44.468  15.290   8.255
 7096POPC   C3B21993  44.382  15.238   7.955
 7096POPC   C4B21994  44.388  15.288   7.655
 7097POPC   NC321995  36.906  39.237   9.455
 7097POPC   PO421996  36.928  39.241   9.155
 7097POPC   GL121997  36.917  39.213   8.855
 7097POPC   GL221998  36.804  39.133   8.855
 7097POPC   C1A21999  36.919  39.218   8.555
 7097POPC   D2A22000  36.953  39.186   8.255
 7097POPC   C3A22001  36.918  39.199   7.955
 7097POPC   C4A22002  36.876  39.223   7.655
 7097POPC   C1B22003  36.757  38.988   8.555
 7097POPC   C2B22004  36.803  39.036   8.255
 7097POPC   C3B22005  36.725  39.054   7.955
 7097POPC   C4B22006  36.730  39.061   7.655
 7098POPC   NC322007  12.802   6.675   9.455
 7098POPC   PO422008  12.853   6.598   9.155
 7098POPC   GL122009  12.884   6.607   8.855
 7098POPC   GL222010  12.906   6.508   8.855
 7098POPC   C1A22011  12.878   6.631   8.555
 7098POPC   D2A22012  12.823   6.609   8.255
 7098POPC   C3A22013  12.807   6.619   7.955
 7098POPC   C4A22014  12.853   6.598   7.655
 7098POPC   C1B22015  12.891   6.430   8.555
 7098POPC   C2B22016  12.928   6.413   8.255
 7098POPC   C3B22017  12.849   6.360   7.955
 7098POPC   C4B22018  12.938   6.362   7.655
 7099POPC   NC322019  34.552  11.300   9.455
 7099POPC   PO422020  34.563  11.332   9.155
 7099POPC   GL122021  34.589  11.252   8.855
 7099POPC   GL222022  34.642  11.424   8.855
 7099POPC   C1A22023  34.609  11.251   8.555
 7099POPC   D2A22024  34.576  11.289   8.255
 7099POPC   C3A22025  34.595  11.301   7.955
 7099POPC   C4A22026  34.594  11.334   7.655
 7099POPC   C1B22027  34.717  11.428   8.555
 7099POPC   C2B22028  34.730  11.453   8.255
 7099POPC   C3B22029  34.783  11.415   7.955
 7099POPC   C4B22030  34.805  11.443   7.655
 7100POPC   NC322031   4.271  26.084   9.455
 7100POPC   PO422032   4.357  26.091   9.155
 7100POPC   GL122033   4.289  26.037   8.855
 7100POPC   GL222034   4.258  26.173   8.855
 7100POPC   C1A22035   4.325  26.016   8.555
 7100POPC   D2A22036   4.333  26.001   8.255
 7100POPC   C3A22037   4.338  26.007   7.955
 7100POPC   C4A22038   4.285  26.005   7.655
 7100POPC   C1B22039   4.109  26.280   8.555
 7100POPC   C2B22040   4.183  26.272   8.255
 7100POPC   C3B22041   4.193  26.260   7.955
 7100POPC   C4B22042   4.177  26.240   7.655
 7101POPC   NC322043  27.637  11.259   9.455
 7101POPC   PO422044  27.616  11.330   9.155
 7101POPC   GL122045  27.552  11.309   8.855
 7101POPC   GL222046  27.715  11.188   8.855
 7101POPC   C1A22047  27.597  11.262   8.555
 7101POPC   D2A22048  27.597  11.293   8.255
 7101POPC   C3A22049  27.617  11.264   7.955
 7101POPC   C4A22050  27.576  11.339   7.655
 7101POPC   C1B22051  27.796  11.133   8.555
 7101POPC   C2B22052  27.825  11.199   8.255
 7101POPC   C3B22053  27.802  11.149   7.955
 7101POPC   C4B22054  27.848  11.166   7.655
 7102POPC   NC322055  15.162  43.076   9.455
 7102POPC   PO422056  15.218  43.147   9.155
 7102POPC   GL122057  15.167  43.113   8.855
 7102POPC   GL222058  15.054  43.107   8.855
 7102POPC   C1A22059  15.201  43.072   8.555
 7102POPC   D2A22060  15.185  43.097   8.255
 7102POPC   C3A22061  15.189  43.113   7.955
 7102POPC   C4A22062  15.192  43.085   7.655
 7102POPC   C1B22063  14.947  43.205   8.555
 7102POPC   C2B22064  14.973  43.225   8.255
 7102POPC   C3B22065  14.903  43.186   7.955
 7102POPC   C4B22066  14.901  43.157   7.655
 7103POPC   NC322067  36.919  36.117   9.455
 7103POPC   PO422068  36.945  36.111   9.155
 7103POPC   GL122069  36.900  36.086   8.855
 7103POPC   GL222070  36.999  36.103   8.855
 7103POPC   C1A22071  36.880  36.141   8.555
 7103POPC   D2A22072  36.890  36.115   8.255
 7103POPC   C3A22073  36.909  36.175   7.955
 7103POPC   C4A22074  36.896  36.117   7.655
 7103POPC   C1B22075  37.108  36.087   8.555
 7103POPC   C2B22076  37.203  36.084   8.255
 7103POPC   C3B22077  37.196  36.177   7.955
 7103POPC   C4B22078  37.107  36.161   7.655
 7104POPC   NC322079  22.965  20.641   9.455
 7104POPC   PO422080  22.910  20.610   9.155
 7104POPC   GL122081  22.942  20.635   8.855
 7104POPC   GL222082  22.870  20.676   8.855
 7104POPC   C1A22083  22.965  20.596   8.555
 7104POPC   D2A22084  22.977  20.637   8.255
 7104POPC   C3A22085  22.905  20.625   7.955
 7104POPC   C4A22086  22.894  20.587   7.655
 7104POPC   C1B22087  22.743  20.816   8.555
 7104POPC   C2B22088  22.796  20.826   8.255
 7104POPC   C3B22089  22.824  20.760   7.955
 7104POPC   C4B22090  22.760  20.801   7.655
 7105POPC   NC322091  22.148   8.942   9.455
 7105POPC   PO422092  22.116   8.970   9.155
 7105POPC   GL122093  22.192   8.982   8.855
 7105POPC   GL222094  22.002   8.909   8.855
 7105POPC   C1A22095  22.153   9.014   8.555
 7105POPC   D2A22096  22.156   9.008   8.255
 7105POPC   C3A22097  22.160   8.963   7.955
 7105POPC   C4A22098  22.149   9.015   7.655
 7105POPC   C1B22099  21.952   8.928   8.555
 7105POPC   C2B22100  21.906   8.914   8.255
 7105POPC   C3B22101  21.942   8.884   7.955
 7105POPC   C4B22102  21.913   8.892   7.655
 7106POPC   NC322103  31.457  41.566   9.455
 7106POPC   PO422104  31.514  41.569   9.155
 7106POPC   GL122105  31.499  41.518   8.855
 7106POPC   GL222106  31.456  41.424   8.855
 7106POPC   C1A22107  31.465  41.543   8.555
 7106POPC   D2A22108  31.503  41.571   8.255
 7106POPC   C3A22109  31.499  41.521   7.955
 7106POPC   C4A22110  31.520  41.538   7.655
 7106POPC   C1B22111  31.376  41.371   8.555
 7106POPC   C2B22112  31.339  41.385   8.255
 7106POPC   C3B22113  31.339  41.357   7.955
 7106POPC   C4B22114  31.318  41.331   7.655
 7107POPC   NC322115  37.701  39.205   9.455
 7107POPC   PO422116  37.650  39.205   9.155
 7107POPC   GL122117  37.666  39.277   8.855
 7107POPC   GL222118  37.600  39.154   8.855
 7107POPC   C1A22119  37.709  39.272   8.555
 7107POPC   D2A22120  37.646  39.189   8.255
 7107POPC   C3A22121  37.725  39.189   7.955
 7107POPC   C4A22122  37.716  39.267   7.655
 7107POPC   C1B22123  37.444  39.167   8.555
 7107POPC   C2B22124  37.486  39.133   8.255
 7107POPC   C3B22125  37.462  39.145   7.955
 7107POPC   C4B22126  37.483  39.144   7.655
 7108POPC   NC322127  34.557  27.552   9.455
 7108POPC   PO422128  34.599  27.614   9.155
 7108POPC   GL122129  34.532  27.615   8.855
 7108POPC   GL222130  34.439  27.607   8.855
 7108POPC   C1A22131  34.578  27.602   8.555
 7108POPC   D2A22132  34.534  27.597   8.255
 7108POPC   C3A22133  34.570  27.543   7.955
 7108POPC   C4A22134  34.579  27.614   7.655
 7108POPC   C1B22135  34.356  27.754   8.555
 7108POPC   C2B22136  34.323  27.685   8.255
 7108POPC   C3B22137  34.328  27.713   7.955
 7108POPC   C4B22138  34.373  27.721   7.655
 7109POPC   NC322139  36.109  41.574   9.455
 7109POPC   PO422140  36.174  41.602   9.155
 7109POPC   GL122141  36.144  41.571   8.855
 7109POPC   GL222142  36.286  41.584   8.855
 7109POPC   C1A22143  36.146  41.546   8.555
 7109POPC   D2A22144  36.161  41.558   8.255
 7109POPC   C3A22145  36.154  41.588   7.955
 7109POPC   C4A22146  36.154  41.559   7.655
 7109POPC   C1B22147  36.390  41.484   8.555
 7109POPC   C2B22148  36.412  41.570   8.255
 7109POPC   C3B22149  36.375  41.541   7.955
 7109POPC   C4B22150  36.414  41.569   7.655
 7110POPC   NC322151  41.583  10.536   9.455
 7110POPC   PO422152  41.578  10.546   9.155
 7110POPC   GL122153  41.562  10.534   8.855
 7110POPC   GL222154  41.480  10.604   8.855
 7110POPC   C1A22155  41.524  10.502   8.555
 7110POPC   D2A22156  41.528  10.485   8.255
 7110POPC   C3A22157  41.594  10.553   7.955
 7110POPC   C4A22158  41.552  10.479   7.655
 7110POPC   C1B22159  41.411  10.776   8.555
 7110POPC   C2B22160  41.449  10.707   8.255
 7110POPC   C3B22161  41.384  10.737   7.955
 7110POPC   C4B22162  41.451  10.751   7.655
 7111POPC   NC322163  14.418   5.823   9.455
 7111POPC   PO422164  14.431   5.889   9.155
 7111POPC   GL122165  14.379   5.825   8.855
 7111POPC   GL222166  14.315   5.793   8.855
 7111POPC   C1A22167  14.442   5.909   8.555
 7111POPC   D2A22168  14.445   5.854   8.255
 7111POPC   C3A22169  14.392   5.875   7.955
 7111POPC   C4A22170  14.402   5.900   7.655
 7111POPC   C1B22171  14.276   5.681   8.555
 7111POPC   C2B22172  14.281   5.654   8.255
 7111POPC   C3B22173  14.297   5.613   7.955
 7111POPC   C4B22174  14.239   5.641   7.655
 7112POPC   NC322175  43.887   9.726   9.455
 7112POPC   PO422176  43.919   9.792   9.155
 7112POPC   GL122177  43.928   9.711   8.855
 7112POPC   GL222178  43.944   9.626   8.855
 7112POPC   C1A22179  43.873   9.707   8.555
 7112POPC   D2A22180  43.846   9.749   8.255
 7112POPC   C3A22181  43.914   9.707   7.955
 7112POPC   C4A22182  43.904   9.771   7.655
 7112POPC   C1B22183  43.998   9.552   8.555
 7112POPC   C2B22184  44.024   9.509   8.255
 7112POPC   C3B22185  44.013   9.473   7.955
 7112POPC   C4B22186  43.950   9.508   7.655
 7113POPC   NC322187   5.881  28.322   9.455
 7113POPC   PO422188   5.865  28.402   9.155
 7113POPC   GL122189   5.917  28.335   8.855
 7113POPC   GL222190   5.801  28.265   8.855
 7113POPC   C1A22191   5.870  28.392   8.555
 7113POPC   D2A22192   5.833  28.390   8.255
 7113POPC   C3A22193   5.869  28.373   7.955
 7113POPC   C4A22194   5.865  28.327   7.655
 7113POPC   C1B22195   5.804  28.153   8.555
 7113POPC   C2B22196   5.804  28.129   8.255
 7113POPC   C3B22197   5.780  28.092   7.955
 7113POPC   C4B22198   5.809  28.154   7.655
 7114POPC   NC322199  37.672   8.163   9.455
 7114POPC   PO422200  37.660   8.182   9.155
 7114POPC   GL122201  37.646   8.164   8.855
 7114POPC   GL222202  37.641   8.289   8.855
 7114POPC   C1A22203  37.659   8.206   8.555
 7114POPC   D2A22204  37.696   8.201   8.255
 7114POPC   C3A22205  37.663   8.170   7.955
 7114POPC   C4A22206  37.655   8.202   7.655
 7114POPC   C1B22207  37.534   8.389   8.555
 7114POPC   C2B22208  37.478   8.358   8.255
 7114POPC   C3B22209  37.480   8.394   7.955
 7114POPC   C4B22210  37.492   8.405   7.655
 7115POPC   NC322211  39.205  22.196   9.455
 7115POPC   PO422212  39.208  22.140   9.155
 7115POPC   GL122213  39.233  22.179   8.855
 7115POPC   GL222214  39.146  22.113   8.855
 7115POPC   C1A22215  39.203  22.167   8.555
 7115POPC   D2A22216  39.193  22.207   8.255
 7115POPC   C3A22217  39.233  22.201   7.955
 7115POPC   C4A22218  39.267  22.171   7.655
 7115POPC   C1B22219  39.045  21.988   8.555
 7115POPC   C2B22220  39.113  21.955   8.255
 7115POPC   C3B22221  39.075  21.975   7.955
 7115POPC   C4B22222  39.101  22.009   7.655
 7116POPC   NC322223   8.978   2.801   9.455
 7116POPC   PO422224   8.952   2.763   9.155
 7116POPC   GL122225   8.974   2.734   8.855
 7116POPC   GL222226   9.089   2.696   8.855
 7116POPC   C1A22227   8.973   2.736   8.555
 7116POPC   D2A22228   9.006   2.718   8.255
 7116POPC   C3A22229   9.005   2.739   7.955
 7116POPC   C4A22230   8.934   2.749   7.655
 7116POPC   C1B22231   9.149   2.615   8.555
 7116POPC   C2B22232   9.118   2.558   8.255
 7116POPC   C3B22233   9.131   2.575   7.955
 7116POPC   C4B22234   9.127   2.606   7.655
 7117POPC   NC322235   7.420  41.571   9.455
 7117POPC   PO422236   7.376  41.528   9.155
 7117POPC   GL122237   7.403  41.533   8.855
 7117POPC   GL222238   7.339  41.448   8.855
 7117POPC   C1A22239   7.442  41.574   8.555
 7117POPC   D2A22240   7.401  41.538   8.255
 7117POPC   C3A22241   7.418  41.556   7.955
 7117POPC   C4A22242   7.402  41.570   7.655
 7117POPC   C1B22243   7.296  41.337   8.555
 7117POPC   C2B22244   7.275  41.417   8.255
 7117POPC   C3B22245   7.222  41.371   7.955
 7117POPC   C4B22246   7.235  41.359   7.655
 7118POPC   NC322247  42.308  14.388   9.455
 7118POPC   PO422248  42.339  14.431   9.155
 7118POPC   GL122249  42.360  14.387   8.855
 7118POPC   GL222250  42.440  14.504   8.855
 7118POPC   C1A22251  42.287  14.418   8.555
 7118POPC   D2A22252  42.311  14.364   8.255
 7118POPC   C3A22253  42.338  14.378   7.955
 7118POPC   C4A22254  42.327  14.358   7.655
 7118POPC   C1B22255  42.460  14.577   8.555
 7118POPC   C2B22256  42.461  14.622   8.255
 7118POPC   C3B22257  42.480  14.627   7.955
 7118POPC   C4B22258  42.519  14.583   7.655
 7119POPC   NC322259  19.833   7.465   9.455
 7119POPC   PO422260  19.821   7.450   9.155
 7119POPC   GL122261  19.810   7.444   8.855
 7119POPC   GL222262  19.702   7.425   8.855
 7119POPC   C1A22263  19.843   7.399   8.555
 7119POPC   D2A22264  19.835   7.423   8.255
 7119POPC   C3A22265  19.881   7.439   7.955
 7119POPC   C4A22266  19.805   7.446   7.655
 7119POPC   C1B22267  19.631   7.503   8.555
 7119POPC   C2B22268  19.567   7.492   8.255
 7119POPC   C3B22269  19.599   7.439   7.955
 7119POPC   C4B22270  19.601   7.408   7.655
 7120POPC   NC322271   7.469  23.742   9.455
 7120POPC   PO422272   7.415  23.694   9.155
 7120POPC   GL122273   7.431  23.685   8.855
 7120POPC   GL222274   7.466  23.778   8.855
 7120POPC   C1A22275   7.392  23.703   8.555
 7120POPC   D2A22276   7.434  23.707   8.255
 7120POPC   C3A22277   7.391  23.731   7.955
 7120POPC   C4A22278   7.419  23.703   7.655
 7120POPC   C1B22279   7.527  23.899   8.555
 7120POPC   C2B22280   7.570  23.944   8.255
 7120POPC   C3B22281   7.552  23.978   7.955
 7120POPC   C4B22282   7.555  23.965   7.655
 7121POPC   NC322283  42.381  19.826   9.455
 7121POPC   PO422284  42.374  19.832   9.155
 7121POPC   GL122285  42.374  19.803   8.855
 7121POPC   GL222286  42.172  19.748   8.855
 7121POPC   C1A22287  42.296  19.822   8.555
 7121POPC   D2A22288  42.311  19.787   8.255
 7121POPC   C3A22289  42.321  19.811   7.955
 7121POPC   C4A22290  42.365  19.802   7.655
 7121POPC   C1B22291  42.111  19.715   8.555
 7121POPC   C2B22292  42.124  19.763   8.255
 7121POPC   C3B22293  42.086  19.764   7.955
 7121POPC   C4B22294  42.062  19.763   7.655
 7122POPC   NC322295  44.644  10.492   9.455
 7122POPC   PO422296  44.629  10.548   9.155
 7122POPC   GL122297  44.643  10.501   8.855
 7122POPC   GL222298  44.804  10.497   8.855
 7122POPC   C1A22299  44.698  10.496   8.555
 7122POPC   D2A22300  44.641  10.516   8.255
 7122POPC   C3A22301  44.650  10.550   7.955
 7122POPC   C4A22302  44.653  10.559   7.655
 7122POPC   C1B22303  44.883  10.354   8.555
 7122POPC   C2B22304  44.818  10.374   8.255
 7122POPC   C3B22305  44.902  10.341   7.955
 7122POPC   C4B22306  44.845  10.395   7.655
 7123POPC   NC322307  26.077   9.713   9.455
 7123POPC   PO422308  26.022   9.715   9.155
 7123POPC   GL122309  26.038   9.707   8.855
 7123POPC   GL222310  26.150   9.706   8.855
 7123POPC   C1A22311  26.080   9.765   8.555
 7123POPC   D2A22312  26.041   9.753   8.255
 7123POPC   C3A22313  25.993   9.772   7.955
 7123POPC   C4A22314  26.091   9.773   7.655
 7123POPC   C1B22315  26.268   9.621   8.555
 7123POPC   C2B22316  26.272   9.624   8.255
 7123POPC   C3B22317  26.255   9.689   7.955
 7123POPC   C4B22318  26.304   9.689   7.655
 7124POPC   NC322319   4.291  36.106   9.455
 7124POPC   PO422320   4.349  36.110   9.155
 7124POPC   GL122321   4.339  36.168   8.855
 7124POPC   GL222322   4.273  36.224   8.855
 7124POPC   C1A22323   4.322  36.115   8.555
 7124POPC   D2A22324   4.341  36.115   8.255
 7124POPC   C3A22325   4.289  36.144   7.955
 7124POPC   C4A22326   4.364  36.162   7.655
 7124POPC   C1B22327   4.274  36.347   8.555
 7124POPC   C2B22328   4.314  36.340   8.255
 7124POPC   C3B22329   4.251  36.362   7.955
 7124POPC   C4B22330   4.253  36.369   7.655
 7125POPC   NC322331  15.195  38.414   9.455
 7125POPC   PO422332  15.173  38.425   9.155
 7125POPC   GL122333  15.192  38.408   8.855
 7125POPC   GL222334  15.147  38.365   8.855
 7125POPC   C1A22335  15.140  38.487   8.555
 7125POPC   D2A22336  15.176  38.475   8.255
 7125POPC   C3A22337  15.220  38.464   7.955
 7125POPC   C4A22338  15.208  38.473   7.655
 7125POPC   C1B22339  15.226  38.187   8.555
 7125POPC   C2B22340  15.187  38.209   8.255
 7125POPC   C3B22341  15.207  38.232   7.955
 7125POPC   C4B22342  15.165  38.209   7.655
 7126POPC   NC322343   5.826  22.207   9.455
 7126POPC   PO422344   5.839  22.137   9.155
 7126POPC   GL122345   5.899  22.185   8.855
 7126POPC   GL222346   5.790  22.222   8.855
 7126POPC   C1A22347   5.916  22.121   8.555
 7126POPC   D2A22348   5.896  22.173   8.255
 7126POPC   C3A22349   5.862  22.201   7.955
 7126POPC   C4A22350   5.887  22.192   7.655
 7126POPC   C1B22351   5.718  22.312   8.555
 7126POPC   C2B22352   5.706  22.390   8.255
 7126POPC   C3B22353   5.742  22.354   7.955
 7126POPC   C4B22354   5.700  22.393   7.655
 7127POPC   NC322355  26.009  12.068   9.455
 7127POPC   PO422356  26.053  12.111   9.155
 7127POPC   GL122357  26.011  12.044   8.855
 7127POPC   GL222358  26.113  12.009   8.855
 7127POPC   C1A22359  26.028  12.069   8.555
 7127POPC   D2A22360  26.055  12.124   8.255
 7127POPC   C3A22361  26.062  12.117   7.955
 7127POPC   C4A22362  26.003  12.067   7.655
 7127POPC   C1B22363  26.238  11.936   8.555
 7127POPC   C2B22364  26.175  11.891   8.255
 7127POPC   C3B22365  26.229  11.953   7.955
 7127POPC   C4B22366  26.194  11.900   7.655
 7128POPC   NC322367  43.883  14.354   9.455
 7128POPC   PO422368  43.885  14.432   9.155
 7128POPC   GL122369  43.935  14.420   8.855
 7128POPC   GL222370  43.889  14.503   8.855
 7128POPC   C1A22371  43.905  14.400   8.555
 7128POPC   D2A22372  43.919  14.438   8.255
 7128POPC   C3A22373  43.892  14.390   7.955
 7128POPC   C4A22374  43.893  14.447   7.655
 7128POPC   C1B22375  43.857  14.636   8.555
 7128POPC   C2B22376  43.935  14.611   8.255
 7128POPC   C3B22377  43.927  14.626   7.955
 7128POPC   C4B22378  43.930  14.631   7.655
 7129POPC   NC322379  29.106  33.000   9.455
 7129POPC   PO422380  29.164  33.019   9.155
 7129POPC   GL122381  29.133  33.036   8.855
 7129POPC   GL222382  29.000  33.125   8.855
 7129POPC   C1A22383  29.164  33.055   8.555
 7129POPC   D2A22384  29.179  32.986   8.255
 7129POPC   C3A22385  29.108  33.040   7.955
 7129POPC   C4A22386  29.157  32.997   7.655
 7129POPC   C1B22387  28.900  33.194   8.555
 7129POPC   C2B22388  28.942  33.192   8.255
 7129POPC   C3B22389  28.974  33.127   7.955
 7129POPC   C4B22390  28.965  33.199   7.655
 7130POPC   NC322391  17.521  10.572   9.455
 7130POPC   PO422392  17.527  10.522   9.155
 7130POPC   GL122393  17.538  10.520   8.855
 7130POPC   GL222394  17.570  10.425   8.855
 7130POPC   C1A22395  17.545  10.541   8.555
 7130POPC   D2A22396  17.499  10.512   8.255
 7130POPC   C3A22397  17.526  10.520   7.955
 7130POPC   C4A22398  17.520  10.560   7.655
 7130POPC   C1B22399  17.590  10.323   8.555
 7130POPC   C2B22400  17.596  10.273   8.255
 7130POPC   C3B22401  17.645  10.260   7.955
 7130POPC   C4B22402  17.600  10.275   7.655
 7131POPC   NC322403  20.637  20.584   9.455
 7131POPC   PO422404  20.650  20.640   9.155
 7131POPC   GL122405  20.567  20.584   8.855
 7131POPC   GL222406  20.690  20.551   8.855
 7131POPC   C1A22407  20.645  20.650   8.555
 7131POPC   D2A22408  20.612  20.631   8.255
 7131POPC   C3A22409  20.568  20.608   7.955
 7131POPC   C4A22410  20.595  20.611   7.655
 7131POPC   C1B22411  20.869  20.538   8.555
 7131POPC   C2B22412  20.857  20.489   8.255
 7131POPC   C3B22413  20.878  20.509   7.955
 7131POPC   C4B22414  20.829  20.574   7.655
 7132POPC   NC322415  36.935  28.377   9.455
 7132POPC   PO422416  36.919  28.320   9.155
 7132POPC   GL122417  36.857  28.359   8.855
 7132POPC   GL222418  36.932  28.465   8.855
 7132POPC   C1A22419  36.948  28.327   8.555
 7132POPC   D2A22420  36.881  28.367   8.255
 7132POPC   C3A22421  36.903  28.380   7.955
 7132POPC   C4A22422  36.927  28.344   7.655
 7132POPC   C1B22423  36.998  28.643   8.555
 7132POPC   C2B22424  36.987  28.597   8.255
 7132POPC   C3B22425  37.018  28.552   7.955
 7132POPC   C4B22426  36.953  28.554   7.655
 7133POPC   NC322427   9.777  44.707   9.455
 7133POPC   PO422428   9.753  44.680   9.155
 7133POPC   GL122429   9.712  44.696   8.855
 7133POPC   GL222430   9.701  44.763   8.855
 7133POPC   C1A22431   9.763  44.710   8.555
 7133POPC   D2A22432   9.761  44.624   8.255
 7133POPC   C3A22433   9.780  44.664   7.955
 7133POPC   C4A22434   9.751  44.626   7.655
 7133POPC   C1B22435   9.578  44.877   8.555
 7133POPC   C2B22436   9.599  44.864   8.255
 7133POPC   C3B22437   9.547  44.886   7.955
 7133POPC   C4B22438   9.572  44.857   7.655
 7134POPC   NC322439  28.353  12.878   9.455
 7134POPC   PO422440  28.408  12.826   9.155
 7134POPC   GL122441  28.403  12.897   8.855
 7134POPC   GL222442  28.463  12.725   8.855
 7134POPC   C1A22443  28.340  12.842   8.555
 7134POPC   D2A22444  28.336  12.827   8.255
 7134POPC   C3A22445  28.353  12.869   7.955
 7134POPC   C4A22446  28.354  12.879   7.655
 7134POPC   C1B22447  28.536  12.591   8.555
 7134POPC   C2B22448  28.517  12.673   8.255
 7134POPC   C3B22449  28.531  12.614   7.955
 7134POPC   C4B22450  28.476  12.656   7.655
 7135POPC   NC322451  13.645  31.452   9.455
 7135POPC   PO422452  13.665  31.434   9.155
 7135POPC   GL122453  13.664  31.439   8.855
 7135POPC   GL222454  13.470  31.554   8.855
 7135POPC   C1A22455  13.619  31.446   8.555
 7135POPC   D2A22456  13.639  31.446   8.255
 7135POPC   C3A22457  13.622  31.480   7.955
 7135POPC   C4A22458  13.581  31.455   7.655
 7135POPC   C1B22459  13.390  31.532   8.555
 7135POPC   C2B22460  13.355  31.532   8.255
 7135POPC   C3B22461  13.349  31.577   7.955
 7135POPC   C4B22462  13.350  31.535   7.655
 7136POPC   NC322463  36.894   7.377   9.455
 7136POPC   PO422464  36.867   7.387   9.155
 7136POPC   GL122465  36.953   7.418   8.855
 7136POPC   GL222466  36.787   7.334   8.855
 7136POPC   C1A22467  36.856   7.391   8.555
 7136POPC   D2A22468  36.953   7.428   8.255
 7136POPC   C3A22469  36.919   7.442   7.955
 7136POPC   C4A22470  36.868   7.374   7.655
 7136POPC   C1B22471  36.701   7.286   8.555
 7136POPC   C2B22472  36.694   7.325   8.255
 7136POPC   C3B22473  36.707   7.367   7.955
 7136POPC   C4B22474  36.692   7.320   7.655
 7137POPC   NC322475   9.735  40.008   9.455
 7137POPC   PO422476   9.748  40.036   9.155
 7137POPC   GL122477   9.745  39.975   8.855
 7137POPC   GL222478   9.714  40.116   8.855
 7137POPC   C1A22479   9.707  39.997   8.555
 7137POPC   D2A22480   9.727  39.978   8.255
 7137POPC   C3A22481   9.753  39.992   7.955
 7137POPC   C4A22482   9.739  39.994   7.655
 7137POPC   C1B22483   9.708  40.262   8.555
 7137POPC   C2B22484   9.717  40.245   8.255
 7137POPC   C3B22485   9.732  40.298   7.955
 7137POPC   C4B22486   9.716  40.286   7.655
 7138POPC   NC322487  26.003  26.018   9.455
 7138POPC   PO422488  26.085  26.029   9.155
 7138POPC   GL122489  26.026  26.029   8.855
 7138POPC   GL222490  26.038  26.202   8.855
 7138POPC   C1A22491  25.999  26.039   8.555
 7138POPC   D2A22492  26.061  26.085   8.255
 7138POPC   C3A22493  26.049  26.010   7.955
 7138POPC   C4A22494  26.083  26.088   7.655
 7138POPC   C1B22495  26.048  26.313   8.555
 7138POPC   C2B22496  26.075  26.308   8.255
 7138POPC   C3B22497  26.110  26.273   7.955
 7138POPC   C4B22498  26.129  26.245   7.655
 7139POPC   NC322499   0.431  14.380   9.455
 7139POPC   PO422500   0.475  14.383   9.155
 7139POPC   GL122501   0.431  14.412   8.855
 7139POPC   GL222502   0.584  14.354   8.855
 7139POPC   C1A22503   0.477  14.422   8.555
 7139POPC   D2A22504   0.465  14.380   8.255
 7139POPC   C3A22505   0.454  14.436   7.955
 7139POPC   C4A22506   0.427  14.353   7.655
 7139POPC   C1B22507   0.668  14.274   8.555
 7139POPC   C2B22508   0.681  14.254   8.255
 7139POPC   C3B22509   0.658  14.219   7.955
 7139POPC   C4B22510   0.673  14.239   7.655
 7140POPC   NC322511  36.855  16.719   9.455
 7140POPC   PO422512  36.922  16.726   9.155
 7140POPC   GL122513  36.902  16.715   8.855
 7140POPC   GL222514  36.825  16.782   8.855
 7140POPC   C1A22515  36.868  16.687   8.555
 7140POPC   D2A22516  36.913  16.693   8.255
 7140POPC   C3A22517  36.944  16.687   7.955
 7140POPC   C4A22518  36.932  16.712   7.655
 7140POPC   C1B22519  36.627  16.824   8.555
 7140POPC   C2B22520  36.651  16.774   8.255
 7140POPC   C3B22521  36.672  16.812   7.955
 7140POPC   C4B22522  36.663  16.761   7.655
 7141POPC   NC322523  39.960  35.325   9.455
 7141POPC   PO422524  39.980  35.355   9.155
 7141POPC   GL122525  39.960  35.316   8.855
 7141POPC   GL222526  40.096  35.280   8.855
 7141POPC   C1A22527  39.984  35.352   8.555
 7141POPC   D2A22528  40.049  35.394   8.255
 7141POPC   C3A22529  39.970  35.391   7.955
 7141POPC   C4A22530  40.000  35.374   7.655
 7141POPC   C1B22531  40.229  35.249   8.555
 7141POPC   C2B22532  40.276  35.259   8.255
 7141POPC   C3B22533  40.214  35.254   7.955
 7141POPC   C4B22534  40.233  35.222   7.655
 7142POPC   NC322535  16.718  35.341   9.455
 7142POPC   PO422536  16.728  35.342   9.155
 7142POPC   GL122537  16.777  35.358   8.855
 7142POPC   GL222538  16.646  35.343   8.855
 7142POPC   C1A22539  16.684  35.319   8.555
 7142POPC   D2A22540  16.686  35.353   8.255
 7142POPC   C3A22541  16.755  35.377   7.955
 7142POPC   C4A22542  16.692  35.348   7.655
 7142POPC   C1B22543  16.520  35.241   8.555
 7142POPC   C2B22544  16.494  35.320   8.255
 7142POPC   C3B22545  16.525  35.274   7.955
 7142POPC   C4B22546  16.495  35.252   7.655
 7143POPC   NC322547  15.944  24.457   9.455
 7143POPC   PO422548  15.964  24.530   9.155
 7143POPC   GL122549  15.955  24.494   8.855
 7143POPC   GL222550  15.849  24.487   8.855
 7143POPC   C1A22551  15.911  24.492   8.555
 7143POPC   D2A22552  15.985  24.441   8.255
 7143POPC   C3A22553  15.999  24.521   7.955
 7143POPC   C4A22554  15.940  24.456   7.655
 7143POPC   C1B22555  15.662  24.423   8.555
 7143POPC   C2B22556  15.739  24.468   8.255
 7143POPC   C3B22557  15.719  24.428   7.955
 7143POPC   C4B22558  15.670  24.444   7.655
 7144POPC   NC322559  37.694  42.339   9.455
 7144POPC   PO422560  37.634  42.373   9.155
 7144POPC   GL122561  37.712  42.341   8.855
 7144POPC   GL222562  37.701  42.480   8.855
 7144POPC   C1A22563  37.637  42.336   8.555
 7144POPC   D2A22564  37.726  42.330   8.255
 7144POPC   C3A22565  37.686  42.315   7.955
 7144POPC   C4A22566  37.684  42.299   7.655
 7144POPC   C1B22567  37.681  42.599   8.555
 7144POPC   C2B22568  37.687  42.558   8.255
 7144POPC   C3B22569  37.722  42.565   7.955
 7144POPC   C4B22570  37.672  42.632   7.655
 7145POPC   NC322571  19.012  26.042   9.455
 7145POPC   PO422572  19.062  25.993   9.155
 7145POPC   GL122573  19.025  26.060   8.855
 7145POPC   GL222574  18.932  26.093   8.855
 7145POPC   C1A22575  19.043  26.029   8.555
 7145POPC   D2A22576  19.099  26.066   8.255
 7145POPC   C3A22577  19.096  26.020   7.955
 7145POPC   C4A22578  19.046  26.035   7.655
 7145POPC   C1B22579  18.792  26.078   8.555
 7145POPC   C2B22580  18.798  26.123   8.255
 7145POPC   C3B22581  18.778  26.142   7.955
 7145POPC   C4B22582  18.844  26.077   7.655
 7146POPC   NC322583  36.928  17.464   9.455
 7146POPC   PO422584  36.912  17.484   9.155
 7146POPC   GL122585  36.922  17.516   8.855
 7146POPC   GL222586  36.964  17.592   8.855
 7146POPC   C1A22587  36.855  17.550   8.555
 7146POPC   D2A22588  36.868  17.460   8.255
 7146POPC   C3A22589  36.890  17.461   7.955
 7146POPC   C4A22590  36.932  17.523   7.655
 7146POPC   C1B22591  37.112  17.688   8.555
 7146POPC   C2B22592  37.061  17.657   8.255
 7146POPC   C3B22593  37.125  17.728   7.955
 7146POPC   C4B22594  37.030  17.713   7.655
 7147POPC   NC322595  19.792  42.364   9.455
 7147POPC   PO422596  19.806  42.317   9.155
 7147POPC   GL122597  19.787  42.309   8.855
 7147POPC   GL222598  19.926  42.466   8.855
 7147POPC   C1A22599  19.820  42.359   8.555
 7147POPC   D2A22600  19.792  42.348   8.255
 7147POPC   C3A22601  19.872  42.375   7.955
 7147POPC   C4A22602  19.836  42.313   7.655
 7147POPC   C1B22603  20.016  42.581   8.555
 7147POPC   C2B22604  20.009  42.559   8.255
 7147POPC   C3B22605  19.961  42.535   7.955
 7147POPC   C4B22606  19.950  42.575   7.655
 7148POPC   NC322607   6.597   9.762   9.455
 7148POPC   PO422608   6.684   9.714   9.155
 7148POPC   GL122609   6.627   9.712   8.855
 7148POPC   GL222610   6.803   9.708   8.855
 7148POPC   C1A22611   6.690   9.761   8.555
 7148POPC   D2A22612   6.615   9.702   8.255
 7148POPC   C3A22613   6.638   9.736   7.955
 7148POPC   C4A22614   6.671   9.777   7.655
 7148POPC   C1B22615   6.881   9.669   8.555
 7148POPC   C2B22616   6.864   9.633   8.255
 7148POPC   C3B22617   6.855   9.596   7.955
 7148POPC   C4B22618   6.834   9.679   7.655
 7149POPC   NC322619  16.707   8.166   9.455
 7149POPC   PO422620  16.749   8.222   9.155
 7149POPC   GL122621  16.764   8.161   8.855
 7149POPC   GL222622  16.647   8.286   8.855
 7149POPC   C1A22623  16.748   8.178   8.555
 7149POPC   D2A22624  16.780   8.244   8.255
 7149POPC   C3A22625  16.709   8.169   7.955
 7149POPC   C4A22626  16.730   8.212   7.655
 7149POPC   C1B22627  16.488   8.277   8.555
 7149POPC   C2B22628  16.475   8.337   8.255
 7149POPC   C3B22629  16.538   8.324   7.955
 7149POPC   C4B22630  16.555   8.327   7.655
 7150POPC   NC322631  24.445  24.443   9.455
 7150POPC   PO422632  24.506  24.514   9.155
 7150POPC   GL122633  24.506  24.448   8.855
 7150POPC   GL222634  24.345  24.430   8.855
 7150POPC   C1A22635  24.452  24.524   8.555
 7150POPC   D2A22636  24.503  24.444   8.255
 7150POPC   C3A22637  24.522  24.517   7.955
 7150POPC   C4A22638  24.521  24.490   7.655
 7150POPC   C1B22639  24.263  24.435   8.555
 7150POPC   C2B22640  24.285  24.478   8.255
 7150POPC   C3B22641  24.254  24.465   7.955
 7150POPC   C4B22642  24.267  24.403   7.655
 7151POPC   NC322643  18.251  31.430   9.455
 7151POPC   PO422644  18.248  31.515   9.155
 7151POPC   GL122645  18.265  31.517   8.855
 7151POPC   GL222646  18.345  31.346   8.855
 7151POPC   C1A22647  18.297  31.511   8.555
 7151POPC   D2A22648  18.318  31.501   8.255
 7151POPC   C3A22649  18.302  31.521   7.955
 7151POPC   C4A22650  18.284  31.481   7.655
 7151POPC   C1B22651  18.458  31.283   8.555
 7151POPC   C2B22652  18.399  31.297   8.255
 7151POPC   C3B22653  18.430  31.322   7.955
 7151POPC   C4B22654  18.477  31.284   7.655
 7152POPC   NC322655  14.381   7.371   9.455
 7152POPC   PO422656  14.453   7.411   9.155
 7152POPC   GL122657  14.433   7.447   8.855
 7152POPC   GL222658  14.331   7.256   8.855
 7152POPC   C1A22659  14.385   7.399   8.555
 7152POPC   D2A22660  14.427   7.435   8.255
 7152POPC   C3A22661  14.364   7.399   7.955
 7152POPC   C4A22662  14.425   7.461   7.655
 7152POPC   C1B22663  14.326   7.163   8.555
 7152POPC   C2B22664  14.316   7.170   8.255
 7152POPC   C3B22665  14.320   7.178   7.955
 7152POPC   C4B22666  14.384   7.140   7.655
 7153POPC   NC322667   1.167  43.076   9.455
 7153POPC   PO422668   1.223  43.156   9.155
 7153POPC   GL122669   1.214  43.110   8.855
 7153POPC   GL222670   1.265  43.024   8.855
 7153POPC   C1A22671   1.254  43.141   8.555
 7153POPC   D2A22672   1.182  43.117   8.255
 7153POPC   C3A22673   1.197  43.090   7.955
 7153POPC   C4A22674   1.241  43.068   7.655
 7153POPC   C1B22675   1.331  42.915   8.555
 7153POPC   C2B22676   1.379  42.888   8.255
 7153POPC   C3B22677   1.320  42.914   7.955
 7153POPC   C4B22678   1.386  42.953   7.655
 7154POPC   NC322679   5.059   2.740   9.455
 7154POPC   PO422680   5.086   2.803   9.155
 7154POPC   GL122681   5.085   2.797   8.855
 7154POPC   GL222682   5.167   2.826   8.855
 7154POPC   C1A22683   5.111   2.803   8.555
 7154POPC   D2A22684   5.103   2.736   8.255
 7154POPC   C3A22685   5.069   2.773   7.955
 7154POPC   C4A22686   5.095   2.721   7.655
 7154POPC   C1B22687   5.339   2.914   8.555
 7154POPC   C2B22688   5.309   2.843   8.255
 7154POPC   C3B22689   5.319   2.870   7.955
 7154POPC   C4B22690   5.264   2.857   7.655
 7155POPC   NC322691  19.072  32.238   9.455
 7155POPC   PO422692  19.089  32.261   9.155
 7155POPC   GL122693  19.101  32.202   8.855
 7155POPC   GL222694  19.190  32.201   8.855
 7155POPC   C1A22695  19.090  32.288   8.555
 7155POPC   D2A22696  19.058  32.236   8.255
 7155POPC   C3A22697  19.107  32.237   7.955
 7155POPC   C4A22698  19.097  32.271   7.655
 7155POPC   C1B22699  19.265  32.189   8.555
 7155POPC   C2B22700  19.284  32.149   8.255
 7155POPC   C3B22701  19.253  32.132   7.955
 7155POPC   C4B22702  19.317  32.143   7.655
 7156POPC   NC322703  11.263  44.620   9.455
 7156POPC   PO422704  11.288  44.659   9.155
 7156POPC   GL122705  11.321  44.649   8.855
 7156POPC   GL222706  11.409  44.591   8.855
 7156POPC   C1A22707  11.340  44.646   8.555
 7156POPC   D2A22708  11.280  44.651   8.255
 7156POPC   C3A22709  11.263  44.699   7.955
 7156POPC   C4A22710  11.310  44.680   7.655
 7156POPC   C1B22711  11.469  44.556   8.555
 7156POPC   C2B22712  11.486  44.531   8.255
 7156POPC   C3B22713  11.481  44.562   7.955
 7156POPC   C4B22714  11.483  44.583   7.655
 7157POPC   NC322715   1.192   7.438   9.455
 7157POPC   PO422716   1.263   7.388   9.155
 7157POPC   GL122717   1.223   7.458   8.855
 7157POPC   GL222718   1.141   7.469   8.855
 7157POPC   C1A22719   1.216   7.443   8.555
 7157POPC   D2A22720   1.206   7.373   8.255
 7157POPC   C3A22721   1.234   7.400   7.955
 7157POPC   C4A22722   1.258   7.397   7.655
 7157POPC   C1B22723   1.002   7.628   8.555
 7157POPC   C2B22724   1.023   7.563   8.255
 7157POPC   C3B22725   1.051   7.609   7.955
 7157POPC   C4B22726   1.017   7.593   7.655
 7158POPC   NC322727  15.921  25.268   9.455
 7158POPC   PO422728  15.987  25.234   9.155
 7158POPC   GL122729  15.925  25.297   8.855
 7158POPC   GL222730  15.938  25.417   8.855
 7158POPC   C1A22731  15.954  25.231   8.555
 7158POPC   D2A22732  15.930  25.274   8.255
 7158POPC   C3A22733  15.911  25.234   7.955
 7158POPC   C4A22734  15.909  25.303   7.655
 7158POPC   C1B22735  15.922  25.482   8.555
 7158POPC   C2B22736  15.936  25.469   8.255
 7158POPC   C3B22737  15.888  25.529   7.955
 7158POPC   C4B22738  15.886  25.462   7.655
 7159POPC   NC322739  15.928  26.038   9.455
 7159POPC   PO422740  15.996  26.087   9.155
 7159POPC   GL122741  15.984  26.046   8.855
 7159POPC   GL222742  16.122  26.026   8.855
 7159POPC   C1A22743  15.966  26.039   8.555
 7159POPC   D2A22744  15.978  25.996   8.255
 7159POPC   C3A22745  15.969  26.023   7.955
 7159POPC   C4A22746  15.954  26.015   7.655
 7159POPC   C1B22747  16.159  26.046   8.555
 7159POPC   C2B22748  16.193  26.035   8.255
 7159POPC   C3B22749  16.158  26.039   7.955
 7159POPC   C4B22750  16.184  26.054   7.655
 7160POPC   NC322751  34.624  36.891   9.455
 7160POPC   PO422752  34.569  36.920   9.155
 7160POPC   GL122753  34.530  36.871   8.855
 7160POPC   GL222754  34.668  37.028   8.855
 7160POPC   C1A22755  34.608  36.910   8.555
 7160POPC   D2A22756  34.579  36.903   8.255
 7160POPC   C3A22757  34.547  36.902   7.955
 7160POPC   C4A22758  34.621  36.858   7.655
 7160POPC   C1B22759  34.753  37.094   8.555
 7160POPC   C2B22760  34.726  37.131   8.255
 7160POPC   C3B22761  34.737  37.053   7.955
 7160POPC   C4B22762  34.708  37.067   7.655
 7161POPC   NC322763   9.735   1.953   9.455
 7161POPC   PO422764   9.777   2.027   9.155
 7161POPC   GL122765   9.779   1.968   8.855
 7161POPC   GL222766   9.622   2.069   8.855
 7161POPC   C1A22767   9.762   2.012   8.555
 7161POPC   D2A22768   9.748   2.019   8.255
 7161POPC   C3A22769   9.758   1.962   7.955
 7161POPC   C4A22770   9.778   1.952   7.655
 7161POPC   C1B22771   9.557   2.219   8.555
 7161POPC   C2B22772   9.603   2.196   8.255
 7161POPC   C3B22773   9.599   2.235   7.955
 7161POPC   C4B22774   9.559   2.160   7.655
 7162POPC   NC322775  32.992  43.904   9.455
 7162POPC   PO422776  33.042  43.850   9.155
 7162POPC   GL122777  32.996  43.889   8.855
 7162POPC   GL222778  33.125  44.034   8.855
 7162POPC   C1A22779  33.027  43.861   8.555
 7162POPC   D2A22780  32.987  43.859   8.255
 7162POPC   C3A22781  33.031  43.895   7.955
 7162POPC   C4A22782  33.032  43.843   7.655
 7162POPC   C1B22783  33.131  44.068   8.555
 7162POPC   C2B22784  33.161  44.046   8.255
 7162POPC   C3B22785  33.199  44.086   7.955
 7162POPC   C4B22786  33.132  44.129   7.655
 7163POPC   NC322787  42.320  35.313   9.455
 7163POPC   PO422788  42.310  35.343   9.155
 7163POPC   GL122789  42.289  35.387   8.855
 7163POPC   GL222790  42.508  35.336   8.855
 7163POPC   C1A22791  42.334  35.397   8.555
 7163POPC   D2A22792  42.334  35.358   8.255
 7163POPC   C3A22793  42.365  35.361   7.955
 7163POPC   C4A22794  42.377  35.341   7.655
 7163POPC   C1B22795  42.632  35.309   8.555
 7163POPC   C2B22796  42.621  35.340   8.255
 7163POPC   C3B22797  42.578  35.302   7.955
 7163POPC   C4B22798  42.603  35.318   7.655
 7164POPC   NC322799  19.863  25.269   9.455
 7164POPC   PO422800  19.841  25.314   9.155
 7164POPC   GL122801  19.793  25.269   8.855
 7164POPC   GL222802  19.743  25.207   8.855
 7164POPC   C1A22803  19.834  25.313   8.555
 7164POPC   D2A22804  19.798  25.238   8.255
 7164POPC   C3A22805  19.878  25.290   7.955
 7164POPC   C4A22806  19.785  25.284   7.655
 7164POPC   C1B22807  19.646  25.136   8.555
 7164POPC   C2B22808  19.636  25.079   8.255
 7164POPC   C3B22809  19.625  25.133   7.955
 7164POPC   C4B22810  19.632  25.110   7.655
 7165POPC   NC322811   7.442   8.192   9.455
 7165POPC   PO422812   7.433   8.185   9.155
 7165POPC   GL122813   7.411   8.238   8.855
 7165POPC   GL222814   7.507   8.240   8.855
 7165POPC   C1A22815   7.389   8.231   8.555
 7165POPC   D2A22816   7.419   8.204   8.255
 7165POPC   C3A22817   7.395   8.158   7.955
 7165POPC   C4A22818   7.378   8.158   7.655
 7165POPC   C1B22819   7.678   8.363   8.555
 7165POPC   C2B22820   7.621   8.347   8.255
 7165POPC   C3B22821   7.657   8.353   7.955
 7165POPC   C4B22822   7.606   8.328   7.655
 7166POPC   NC322823  37.691  22.164   9.455
 7166POPC   PO422824  37.630  22.147   9.155
 7166POPC   GL122825  37.699  22.126   8.855
 7166POPC   GL222826  37.594  22.232   8.855
 7166POPC   C1A22827  37.703  22.212   8.555
 7166POPC   D2A22828  37.720  22.184   8.255
 7166POPC   C3A22829  37.660  22.205   7.955
 7166POPC   C4A22830  37.685  22.209   7.655
 7166POPC   C1B22831  37.457  22.302   8.555
 7166POPC   C2B22832  37.422  22.277   8.255
 7166POPC   C3B22833  37.467  22.224   7.955
 7166POPC   C4B22834  37.502  22.314   7.655
 7167POPC   NC322835  11.338   5.824   9.455
 7167POPC   PO422836  11.312   5.866   9.155
 7167POPC   GL122837  11.302   5.878   8.855
 7167POPC   GL222838  11.268   5.808   8.855
 7167POPC   C1A22839  11.341   5.838   8.555
 7167POPC   D2A22840  11.305   5.841   8.255
 7167POPC   C3A22841  11.343   5.825   7.955
 7167POPC   C4A22842  11.297   5.903   7.655
 7167POPC   C1B22843  11.098   5.651   8.555
 7167POPC   C2B22844  11.141   5.631   8.255
 7167POPC   C3B22845  11.121   5.679   7.955
 7167POPC   C4B22846  11.182   5.676   7.655
 7168POPC   NC322847  19.027  14.386   9.455
 7168POPC   PO422848  19.068  14.369   9.155
 7168POPC   GL122849  19.072  14.381   8.855
 7168POPC   GL222850  18.982  14.411   8.855
 7168POPC   C1A22851  19.051  14.410   8.555
 7168POPC   D2A22852  19.056  14.445   8.255
 7168POPC   C3A22853  19.034  14.372   7.955
 7168POPC   C4A22854  19.054  14.381   7.655
 7168POPC   C1B22855  18.791  14.386   8.555
 7168POPC   C2B22856  18.825  14.407   8.255
 7168POPC   C3B22857  18.799  14.420   7.955
 7168POPC   C4B22858  18.848  14.415   7.655
 7169POPC   NC322859  30.679  11.347   9.455
 7169POPC   PO422860  30.670  11.347   9.155
 7169POPC   GL122861  30.670  11.315   8.855
 7169POPC   GL222862  30.665  11.442   8.855
 7169POPC   C1A22863  30.660  11.342   8.555
 7169POPC   D2A22864  30.665  11.349   8.255
 7169POPC   C3A22865  30.667  11.289   7.955
 7169POPC   C4A22866  30.664  11.342   7.655
 7169POPC   C1B22867  30.661  11.551   8.555
 7169POPC   C2B22868  30.590  11.538   8.255
 7169POPC   C3B22869  30.665  11.488   7.955
 7169POPC   C4B22870  30.585  11.510   7.655
 7170POPC   NC322871  19.037  12.051   9.455
 7170POPC   PO422872  19.015  12.121   9.155
 7170POPC   GL122873  19.063  12.123   8.855
 7170POPC   GL222874  19.201  12.067   8.855
 7170POPC   C1A22875  19.052  12.099   8.555
 7170POPC   D2A22876  19.020  12.117   8.255
 7170POPC   C3A22877  19.099  12.034   7.955
 7170POPC   C4A22878  19.102  12.095   7.655
 7170POPC   C1B22879  19.333  12.013   8.555
 7170POPC   C2B22880  19.308  12.021   8.255
 7170POPC   C3B22881  19.302  12.069   7.955
 7170POPC   C4B22882  19.254  12.038   7.655
 7171POPC   NC322883  38.487  38.499   9.455
 7171POPC   PO422884  38.446  38.485   9.155
 7171POPC   GL122885  38.406  38.468   8.855
 7171POPC   GL222886  38.525  38.541   8.855
 7171POPC   C1A22887  38.453  38.436   8.555
 7171POPC   D2A22888  38.463  38.421   8.255
 7171POPC   C3A22889  38.408  38.481   7.955
 7171POPC   C4A22890  38.429  38.428   7.655
 7171POPC   C1B22891  38.561  38.656   8.555
 7171POPC   C2B22892  38.591  38.649   8.255
 7171POPC   C3B22893  38.505  38.663   7.955
 7171POPC   C4B22894  38.554  38.695   7.655
 7172POPC   NC322895  18.287  30.745   9.455
 7172POPC   PO422896  18.304  30.733   9.155
 7172POPC   GL122897  18.332  30.652   8.855
 7172POPC   GL222898  18.406  30.767   8.855
 7172POPC   C1A22899  18.293  30.723   8.555
 7172POPC   D2A22900  18.252  30.668   8.255
 7172POPC   C3A22901  18.241  30.706   7.955
 7172POPC   C4A22902  18.299  30.672   7.655
 7172POPC   C1B22903  18.457  30.814   8.555
 7172POPC   C2B22904  18.518  30.860   8.255
 7172POPC   C3B22905  18.505  30.846   7.955
 7172POPC   C4B22906  18.485  30.841   7.655
 7173POPC   NC322907   4.311  18.278   9.455
 7173POPC   PO422908   4.338  18.301   9.155
 7173POPC   GL122909   4.267  18.329   8.855
 7173POPC   GL222910   4.176  18.343   8.855
 7173POPC   C1A22911   4.351  18.273   8.555
 7173POPC   D2A22912   4.362  18.240   8.255
 7173POPC   C3A22913   4.362  18.330   7.955
 7173POPC   C4A22914   4.359  18.274   7.655
 7173POPC   C1B22915   4.156  18.418   8.555
 7173POPC   C2B22916   4.112  18.488   8.255
 7173POPC   C3B22917   4.162  18.428   7.955
 7173POPC   C4B22918   4.148  18.473   7.655
 7174POPC   NC322919  23.709  21.416   9.455
 7174POPC   PO422920  23.666  21.423   9.155
 7174POPC   GL122921  23.680  21.371   8.855
 7174POPC   GL222922  23.543  21.362   8.855
 7174POPC   C1A22923  23.756  21.389   8.555
 7174POPC   D2A22924  23.742  21.414   8.255
 7174POPC   C3A22925  23.758  21.364   7.955
 7174POPC   C4A22926  23.698  21.362   7.655
 7174POPC   C1B22927  23.517  21.376   8.555
 7174POPC   C2B22928  23.484  21.459   8.255
 7174POPC   C3B22929  23.441  21.423   7.955
 7174POPC   C4B22930  23.426  21.420   7.655
 7175POPC   NC322931  11.264  41.521   9.455
 7175POPC   PO422932  11.322  41.543   9.155
 7175POPC   GL122933  11.305  41.551   8.855
 7175POPC   GL222934  11.421  41.514   8.855
 7175POPC   C1A22935  11.299  41.580   8.555
 7175POPC   D2A22936  11.313  41.550   8.255
 7175POPC   C3A22937  11.346  41.547   7.955
 7175POPC   C4A22938  11.314  41.551   7.655
 7175POPC   C1B22939  11.462  41.354   8.555
 7175POPC   C2B22940  11.512  41.374   8.255
 7175POPC   C3B22941  11.431  41.426   7.955
 7175POPC   C4B22942  11.453  41.358   7.655
 7176POPC   NC322943  30.677  19.872   9.455
 7176POPC   PO422944  30.745  19.855   9.155
 7176POPC   GL122945  30.681  19.858   8.855
 7176POPC   GL222946  30.753  19.675   8.855
 7176POPC   C1A22947  30.649  19.848   8.555
 7176POPC   D2A22948  30.671  19.879   8.255
 7176POPC   C3A22949  30.684  19.882   7.955
 7176POPC   C4A22950  30.737  19.873   7.655
 7176POPC   C1B22951  30.750  19.547   8.555
 7176POPC   C2B22952  30.769  19.604   8.255
 7176POPC   C3B22953  30.742  19.645   7.955
 7176POPC   C4B22954  30.797  19.612   7.655
 7177POPC   NC322955  18.307  10.510   9.455
 7177POPC   PO422956  18.258  10.508   9.155
 7177POPC   GL122957  18.238  10.492   8.855
 7177POPC   GL222958  18.335  10.669   8.855
 7177POPC   C1A22959  18.241  10.507   8.555
 7177POPC   D2A22960  18.299  10.548   8.255
 7177POPC   C3A22961  18.282  10.567   7.955
 7177POPC   C4A22962  18.236  10.545   7.655
 7177POPC   C1B22963  18.389  10.761   8.555
 7177POPC   C2B22964  18.317  10.722   8.255
 7177POPC   C3B22965  18.355  10.714   7.955
 7177POPC   C4B22966  18.388  10.802   7.655
 7178POPC   NC322967  17.506  39.224   9.455
 7178POPC   PO422968  17.498  39.187   9.155
 7178POPC   GL122969  17.462  39.222   8.855
 7178POPC   GL222970  17.492  39.358   8.855
 7178POPC   C1A22971  17.495  39.195   8.555
 7178POPC   D2A22972  17.508  39.239   8.255
 7178POPC   C3A22973  17.496  39.224   7.955
 7178POPC   C4A22974  17.541  39.219   7.655
 7178POPC   C1B22975  17.485  39.508   8.555
 7178POPC   C2B22976  17.488  39.524   8.255
 7178POPC   C3B22977  17.511  39.443   7.955
 7178POPC   C4B22978  17.477  39.464   7.655
 7179POPC   NC322979  10.488  24.513   9.455
 7179POPC   PO422980  10.543  24.495   9.155
 7179POPC   GL122981  10.503  24.454   8.855
 7179POPC   GL222982  10.566  24.621   8.855
 7179POPC   C1A22983  10.544  24.475   8.555
 7179POPC   D2A22984  10.545  24.526   8.255
 7179POPC   C3A22985  10.506  24.459   7.955
 7179POPC   C4A22986  10.496  24.465   7.655
 7179POPC   C1B22987  10.660  24.747   8.555
 7179POPC   C2B22988  10.581  24.703   8.255
 7179POPC   C3B22989  10.642  24.698   7.955
 7179POPC   C4B22990  10.634  24.700   7.655
 7180POPC   NC322991  17.531  14.374   9.455
 7180POPC   PO422992  17.474  14.419   9.155
 7180POPC   GL122993  17.483  14.408   8.855
 7180POPC   GL222994  17.565  14.513   8.855
 7180POPC   C1A22995  17.475  14.409   8.555
 7180POPC   D2A22996  17.477  14.445   8.255
 7180POPC   C3A22997  17.524  14.438   7.955
 7180POPC   C4A22998  17.458  14.441   7.655
 7180POPC   C1B22999  17.590  14.695   8.555
 7180POPC   C2B23000  17.563  14.653   8.255
 7180POPC   C3B23001  17.517  14.656   7.955
 7180POPC   C4B23002  17.548  14.602   7.655
 7181POPC   NC323003   2.023   6.611   9.455
 7181POPC   PO423004   1.956   6.685   9.155
 7181POPC   GL123005   2.033   6.676   8.855
 7181POPC   GL223006   1.967   6.479   8.855
 7181POPC   C1A23007   1.950   6.676   8.555
 7181POPC   D2A23008   1.951   6.625   8.255
 7181POPC   C3A23009   1.998   6.645   7.955
 7181POPC   C4A23010   1.998   6.689   7.655
 7181POPC   C1B23011   1.912   6.414   8.555
 7181POPC   C2B23012   1.918   6.360   8.255
 7181POPC   C3B23013   1.966   6.389   7.955
 7181POPC   C4B23014   1.927   6.384   7.655
 7182POPC   NC323015   6.631   2.732   9.455
 7182POPC   PO423016   6.660   2.788   9.155
 7182POPC   GL123017   6.659   2.773   8.855
 7182POPC   GL223018   6.541   2.825   8.855
 7182POPC   C1A23019   6.602   2.745   8.555
 7182POPC   D2A23020   6.602   2.724   8.255
 7182POPC   C3A23021   6.612   2.755   7.955
 7182POPC   C4A23022   6.633   2.796   7.655
 7182POPC   C1B23023   6.516   2.988   8.555
 7182POPC   C2B23024   6.538   2.952   8.255
 7182POPC   C3B23025   6.516   2.921   7.955
 7182POPC   C4B23026   6.516   2.983   7.655
 7183POPC   NC323027  11.309  16.771   9.455
 7183POPC   PO423028  11.311  16.728   9.155
 7183POPC   GL123029  11.272  16.733   8.855
 7183POPC   GL223030  11.279  16.587   8.855
 7183POPC   C1A23031  11.324  16.718   8.555
 7183POPC   D2A23032  11.277  16.714   8.255
 7183POPC   C3A23033  11.335  16.719   7.955
 7183POPC   C4A23034  11.260  16.709   7.655
 7183POPC   C1B23035  11.290  16.437   8.555
 7183POPC   C2B23036  11.259  16.443   8.255
 7183POPC   C3B23037  11.305  16.501   7.955
 7183POPC   C4B23038  11.240  16.486   7.655
 7184POPC   NC323039  40.815  35.370   9.455
 7184POPC   PO423040  40.759  35.337   9.155
 7184POPC   GL123041  40.793  35.401   8.855
 7184POPC   GL223042  40.858  35.409   8.855
 7184POPC   C1A23043  40.773  35.346   8.555
 7184POPC   D2A23044  40.782  35.366   8.255
 7184POPC   C3A23045  40.831  35.318   7.955
 7184POPC   C4A23046  40.786  35.311   7.655
 7184POPC   C1B23047  40.941  35.501   8.555
 7184POPC   C2B23048  40.937  35.483   8.255
 7184POPC   C3B23049  40.978  35.497   7.955
 7184POPC   C4B23050  40.971  35.524   7.655
 7185POPC   NC323051   5.906  25.271   9.455
 7185POPC   PO423052   5.825  25.308   9.155
 7185POPC   GL123053   5.863  25.311   8.855
 7185POPC   GL223054   5.801  25.408   8.855
 7185POPC   C1A23055   5.860  25.284   8.555
 7185POPC   D2A23056   5.876  25.219   8.255
 7185POPC   C3A23057   5.891  25.304   7.955
 7185POPC   C4A23058   5.824  25.217   7.655
 7185POPC   C1B23059   5.709  25.524   8.555
 7185POPC   C2B23060   5.775  25.465   8.255
 7185POPC   C3B23061   5.689  25.466   7.955
 7185POPC   C4B23062   5.696  25.471   7.655
 7186POPC   NC323063  19.053  42.332   9.455
 7186POPC   PO423064  19.086  42.377   9.155
 7186POPC   GL123065  19.072  42.362   8.855
 7186POPC   GL223066  19.028  42.162   8.855
 7186POPC   C1A23067  19.084  42.300   8.555
 7186POPC   D2A23068  19.038  42.313   8.255
 7186POPC   C3A23069  19.045  42.289   7.955
 7186POPC   C4A23070  19.043  42.372   7.655
 7186POPC   C1B23071  19.029  42.064   8.555
 7186POPC   C2B23072  19.018  42.055   8.255
 7186POPC   C3B23073  19.005  42.086   7.955
 7186POPC   C4B23074  18.997  42.116   7.655
 7187POPC   NC323075   2.778  15.924   9.455
 7187POPC   PO423076   2.733  15.934   9.155
 7187POPC   GL123077   2.749  15.916   8.855
 7187POPC   GL223078   2.935  15.959   8.855
 7187POPC   C1A23079   2.742  15.939   8.555
 7187POPC   D2A23080   2.767  15.955   8.255
 7187POPC   C3A23081   2.794  15.977   7.955
 7187POPC   C4A23082   2.728  15.996   7.655
 7187POPC   C1B23083   2.973  15.936   8.555
 7187POPC   C2B23084   3.063  15.983   8.255
 7187POPC   C3B23085   3.022  15.933   7.955
 7187POPC   C4B23086   3.014  15.979   7.655
 7188POPC   NC323087  23.706  37.726   9.455
 7188POPC   PO423088  23.686  37.668   9.155
 7188POPC   GL123089  23.722  37.712   8.855
 7188POPC   GL223090  23.826  37.733   8.855
 7188POPC   C1A23091  23.716  37.665   8.555
 7188POPC   D2A23092  23.671  37.660   8.255
 7188POPC   C3A23093  23.719  37.718   7.955
 7188POPC   C4A23094  23.717  37.725   7.655
 7188POPC   C1B23095  23.889  37.900   8.555
 7188POPC   C2B23096  23.895  37.904   8.255
 7188POPC   C3B23097  23.846  37.876   7.955
 7188POPC   C4B23098  23.881  37.823   7.655
 7189POPC   NC323099  39.275  23.686   9.455
 7189POPC   PO423100  39.273  23.718   9.155
 7189POPC   GL123101  39.266  23.680   8.855
 7189POPC   GL223102  39.130  23.663   8.855
 7189POPC   C1A23103  39.212  23.692   8.555
 7189POPC   D2A23104  39.274  23.676   8.255
 7189POPC   C3A23105  39.183  23.676   7.955
 7189POPC   C4A23106  39.197  23.727   7.655
 7189POPC   C1B23107  38.976  23.673   8.555
 7189POPC   C2B23108  38.993  23.669   8.255
 7189POPC   C3B23109  39.038  23.672   7.955
 7189POPC   C4B23110  39.020  23.632   7.655
 7190POPC   NC323111   5.826  36.139   9.455
 7190POPC   PO423112   5.875  36.119   9.155
 7190POPC   GL123113   5.852  36.143   8.855
 7190POPC   GL223114   5.733  36.126   8.855
 7190POPC   C1A23115   5.895  36.101   8.555
 7190POPC   D2A23116   5.876  36.090   8.255
 7190POPC   C3A23117   5.852  36.174   7.955
 7190POPC   C4A23118   5.822  36.078   7.655
 7190POPC   C1B23119   5.660  36.110   8.555
 7190POPC   C2B23120   5.597  36.094   8.255
 7190POPC   C3B23121   5.656  36.055   7.955
 7190POPC   C4B23122   5.578  36.102   7.655
 7191POPC   NC323123  39.965   2.730   9.455
 7191POPC   PO423124  39.968   2.746   9.155
 7191POPC   GL123125  40.030   2.729   8.855
 7191POPC   GL223126  39.958   2.925   8.855
 7191POPC   C1A23127  40.001   2.730   8.555
 7191POPC   D2A23128  40.002   2.809   8.255
 7191POPC   C3A23129  40.055   2.803   7.955
 7191POPC   C4A23130  40.006   2.799   7.655
 7191POPC   C1B23131  39.962   3.031   8.555
 7191POPC   C2B23132  40.058   3.039   8.255
 7191POPC   C3B23133  39.962   3.037   7.955
 7191POPC   C4B23134  39.963   3.012   7.655
 7192POPC   NC323135  18.244  16.720   9.455
 7192POPC   PO423136  18.309  16.757   9.155
 7192POPC   GL123137  18.241  16.743   8.855
 7192POPC   GL223138  18.192  16.820   8.855
 7192POPC   C1A23139  18.322  16.728   8.555
 7192POPC   D2A23140  18.246  16.753   8.255
 7192POPC   C3A23141  18.251  16.723   7.955
 7192POPC   C4A23142  18.317  16.772   7.655
 7192POPC   C1B23143  18.089  16.854   8.555
 7192POPC   C2B23144  18.023  16.905   8.255
 7192POPC   C3B23145  18.029  16.883   7.955
 7192POPC   C4B23146  18.109  16.838   7.655
 7193POPC   NC323147  41.510  19.806   9.455
 7193POPC   PO423148  41.539  19.802   9.155
 7193POPC   GL123149  41.608  19.829   8.855
 7193POPC   GL223150  41.433  19.793   8.855
 7193POPC   C1A23151  41.509  19.826   8.555
 7193POPC   D2A23152  41.596  19.834   8.255
 7193POPC   C3A23153  41.560  19.863   7.955
 7193POPC   C4A23154  41.551  19.845   7.655
 7193POPC   C1B23155  41.326  19.626   8.555
 7193POPC   C2B23156  41.422  19.714   8.255
 7193POPC   C3B23157  41.339  19.693   7.955
 7193POPC   C4B23158  41.409  19.617   7.655
 7194POPC   NC323159  15.945  39.254   9.455
 7194POPC   PO423160  16.002  39.201   9.155
 7194POPC   GL123161  15.968  39.231   8.855
 7194POPC   GL223162  15.885  39.125   8.855
 7194POPC   C1A23163  15.995  39.247   8.555
 7194POPC   D2A23164  15.939  39.249   8.255
 7194POPC   C3A23165  15.915  39.216   7.955
 7194POPC   C4A23166  15.913  39.182   7.655
 7194POPC   C1B23167  15.749  39.066   8.555
 7194POPC   C2B23168  15.708  39.120   8.255
 7194POPC   C3B23169  15.738  39.111   7.955
 7194POPC   C4B23170  15.755  39.154   7.655
 7195POPC   NC323171  14.409  31.424   9.455
 7195POPC   PO423172  14.390  31.460   9.155
 7195POPC   GL123173  14.381  31.464   8.855
 7195POPC   GL223174  14.317  31.606   8.855
 7195POPC   C1A23175  14.405  31.502   8.555
 7195POPC   D2A23176  14.450  31.502   8.255
 7195POPC   C3A23177  14.431  31.434   7.955
 7195POPC   C4A23178  14.360  31.431   7.655
 7195POPC   C1B23179  14.320  31.721   8.555
 7195POPC   C2B23180  14.273  31.663   8.255
 7195POPC   C3B23181  14.313  31.698   7.955
 7195POPC   C4B23182  14.295  31.699   7.655
 7196POPC   NC323183   4.342   3.525   9.455
 7196POPC   PO423184   4.340   3.492   9.155
 7196POPC   GL123185   4.283   3.530   8.855
 7196POPC   GL223186   4.222   3.446   8.855
 7196POPC   C1A23187   4.327   3.501   8.555
 7196POPC   D2A23188   4.271   3.583   8.255
 7196POPC   C3A23189   4.336   3.522   7.955
 7196POPC   C4A23190   4.355   3.541   7.655
 7196POPC   C1B23191   4.233   3.304   8.555
 7196POPC   C2B23192   4.250   3.290   8.255
 7196POPC   C3B23193   4.187   3.311   7.955
 7196POPC   C4B23194   4.167   3.343   7.655
 7197POPC   NC323195  19.046  13.644   9.455
 7197POPC   PO423196  19.080  13.602   9.155
 7197POPC   GL123197  19.098  13.593   8.855
 7197POPC   GL223198  18.987  13.699   8.855
 7197POPC   C1A23199  19.091  13.581   8.555
 7197POPC   D2A23200  19.022  13.651   8.255
 7197POPC   C3A23201  19.074  13.581   7.955
 7197POPC   C4A23202  19.031  13.648   7.655
 7197POPC   C1B23203  18.803  13.756   8.555
 7197POPC   C2B23204  18.810  13.760   8.255
 7197POPC   C3B23205  18.827  13.745   7.955
 7197POPC   C4B23206  18.801  13.691   7.655
 7198POPC   NC323207  35.362  36.117   9.455
 7198POPC   PO423208  35.357  36.139   9.155
 7198POPC   GL123209  35.325  36.160   8.855
 7198POPC   GL223210  35.306  36.208   8.855
 7198POPC   C1A23211  35.373  36.152   8.555
 7198POPC   D2A23212  35.304  36.172   8.255
 7198POPC   C3A23213  35.349  36.106   7.955
 7198POPC   C4A23214  35.335  36.127   7.655
 7198POPC   C1B23215  35.294  36.415   8.555
 7198POPC   C2B23216  35.265  36.421   8.255
 7198POPC   C3B23217  35.309  36.334   7.955
 7198POPC   C4B23218  35.297  36.425   7.655
 7199POPC   NC323219   7.388   5.915   9.455
 7199POPC   PO423220   7.469   5.901   9.155
 7199POPC   GL123221   7.445   5.912   8.855
 7199POPC   GL223222   7.338   5.801   8.855
 7199POPC   C1A23223   7.449   5.827   8.555
 7199POPC   D2A23224   7.456   5.881   8.255
 7199POPC   C3A23225   7.379   5.866   7.955
 7199POPC   C4A23226   7.386   5.864   7.655
 7199POPC   C1B23227   7.210   5.709   8.555
 7199POPC   C2B23228   7.218   5.717   8.255
 7199POPC   C3B23229   7.256   5.736   7.955
 7199POPC   C4B23230   7.251   5.735   7.655
 7200POPC   NC323231  40.775  24.501   9.455
 7200POPC   PO423232  40.773  24.518   9.155
 7200POPC   GL123233  40.801  24.535   8.855
 7200POPC   GL223234  40.930  24.582   8.855
 7200POPC   C1A23235  40.746  24.447   8.555
 7200POPC   D2A23236  40.832  24.451   8.255
 7200POPC   C3A23237  40.764  24.464   7.955
 7200POPC   C4A23238  40.815  24.498   7.655
 7200POPC   C1B23239  41.018  24.618   8.555
 7200POPC   C2B23240  41.035  24.661   8.255
 7200POPC   C3B23241  41.003  24.641   7.955
 7200POPC   C4B23242  41.023  24.600   7.655
 7201POPC   NC323243  19.085  43.872   9.455
 7201POPC   PO423244  19.079  43.859   9.155
 7201POPC   GL123245  19.068  43.863   8.855
 7201POPC   GL223246  19.018  43.777   8.855
 7201POPC   C1A23247  19.095  43.845   8.555
 7201POPC   D2A23248  19.050  43.876   8.255
 7201POPC   C3A23249  19.017  43.858   7.955
 7201POPC   C4A23250  19.067  43.854   7.655
 7201POPC   C1B23251  19.005  43.603   8.555
 7201POPC   C2B23252  18.997  43.631   8.255
 7201POPC   C3B23253  18.955  43.614   7.955
 7201POPC   C4B23254  18.989  43.679   7.655
 7202POPC   NC323255  16.760  25.272   9.455
 7202POPC   PO423256  16.711  25.278   9.155
 7202POPC   GL123257  16.754  25.216   8.855
 7202POPC   GL223258  16.752  25.419   8.855
 7202POPC   C1A23259  16.743  25.314   8.555
 7202POPC   D2A23260  16.749  25.308   8.255
 7202POPC   C3A23261  16.746  25.227   7.955
 7202POPC   C4A23262  16.683  25.314   7.655
 7202POPC   C1B23263  16.793  25.519   8.555
 7202POPC   C2B23264  16.734  25.502   8.255
 7202POPC   C3B23265  16.785  25.496   7.955
 7202POPC   C4B23266  16.803  25.560   7.655
 7203POPC   NC323267   8.158  19.039   9.455
 7203POPC   PO423268   8.171  19.023   9.155
 7203POPC   GL123269   8.152  19.020   8.855
 7203POPC   GL223270   8.273  19.177   8.855
 7203POPC   C1A23271   8.237  19.109   8.555
 7203POPC   D2A23272   8.147  19.042   8.255
 7203POPC   C3A23273   8.161  19.104   7.955
 7203POPC   C4A23274   8.182  19.035   7.655
 7203POPC   C1B23275   8.312  19.241   8.555
 7203POPC   C2B23276   8.298  19.336   8.255
 7203POPC   C3B23277   8.243  19.262   7.955
 7203POPC   C4B23278   8.281  19.304   7.655
 7204POPC   NC323279  25.268   2.783   9.455
 7204POPC   PO423280  25.271   2.738   9.155
 7204POPC   GL123281  25.235   2.720   8.855
 7204POPC   GL223282  25.360   2.644   8.855
 7204POPC   C1A23283  25.261   2.731   8.555
 7204POPC   D2A23284  25.266   2.810   8.255
 7204POPC   C3A23285  25.219   2.779   7.955
 7204POPC   C4A23286  25.278   2.805   7.655
 7204POPC   C1B23287  25.438   2.506   8.555
 7204POPC   C2B23288  25.355   2.565   8.255
 7204POPC   C3B23289  25.353   2.563   7.955
 7204POPC   C4B23290  25.357   2.519   7.655
 7205POPC   NC323291  44.665   4.349   9.455
 7205POPC   PO423292  44.664   4.354   9.155
 7205POPC   GL123293  44.689   4.362   8.855
 7205POPC   GL223294  44.619   4.236   8.855
 7205POPC   C1A23295  44.702   4.274   8.555
 7205POPC   D2A23296  44.665   4.299   8.255
 7205POPC   C3A23297  44.644   4.288   7.955
 7205POPC   C4A23298  44.655   4.278   7.655
 7205POPC   C1B23299  44.579   4.056   8.555
 7205POPC   C2B23300  44.664   4.084   8.255
 7205POPC   C3B23301  44.592   4.113   7.955
 7205POPC   C4B23302  44.651   4.085   7.655
 7206POPC   NC323303  18.319  23.748   9.455
 7206POPC   PO423304  18.333  23.673   9.155
 7206POPC   GL123305  18.271  23.753   8.855
 7206POPC   GL223306  18.220  23.600   8.855
 7206POPC   C1A23307  18.305  23.738   8.555
 7206POPC   D2A23308  18.284  23.753   8.255
 7206POPC   C3A23309  18.276  23.733   7.955
 7206POPC   C4A23310  18.237  23.723   7.655
 7206POPC   C1B23311  18.041  23.567   8.555
 7206POPC   C2B23312  18.074  23.607   8.255
 7206POPC   C3B23313  18.061  23.562   7.955
 7206POPC   C4B23314  18.048  23.546   7.655
 7207POPC   NC323315  23.692  39.958   9.455
 7207POPC   PO423316  23.729  39.974   9.155
 7207POPC   GL123317  23.753  39.995   8.855
 7207POPC   GL223318  23.599  39.956   8.855
 7207POPC   C1A23319  23.761  39.981   8.555
 7207POPC   D2A23320  23.718  40.027   8.255
 7207POPC   C3A23321  23.713  40.015   7.955
 7207POPC   C4A23322  23.672  40.039   7.655
 7207POPC   C1B23323  23.468  39.953   8.555
 7207POPC   C2B23324  23.435  39.937   8.255
 7207POPC   C3B23325  23.475  39.977   7.955
 7207POPC   C4B23326  23.508  39.993   7.655
 7208POPC   NC323327   5.100  13.621   9.455
 7208POPC   PO423328   5.050  13.672   9.155
 7208POPC   GL123329   5.079  13.646   8.855
 7208POPC   GL223330   4.998  13.551   8.855
 7208POPC   C1A23331   5.110  13.640   8.555
 7208POPC   D2A23332   5.136  13.657   8.255
 7208POPC   C3A23333   5.134  13.645   7.955
 7208POPC   C4A23334   5.089  13.641   7.655
 7208POPC   C1B23335   4.910  13.465   8.555
 7208POPC   C2B23336   4.932  13.516   8.255
 7208POPC   C3B23337   4.886  13.429   7.955
 7208POPC   C4B23338   4.911  13.497   7.655
 7209POPC   NC323339  40.742   0.439   9.455
 7209POPC   PO423340  40.810   0.444   9.155
 7209POPC   GL123341  40.829   0.425   8.855
 7209POPC   GL223342  40.928   0.346   8.855
 7209POPC   C1A23343  40.798   0.469   8.555
 7209POPC   D2A23344  40.773   0.459   8.255
 7209POPC   C3A23345  40.802   0.486   7.955
 7209POPC   C4A23346  40.801   0.472   7.655
 7209POPC   C1B23347  41.016   0.294   8.555
 7209POPC   C2B23348  41.014   0.295   8.255
 7209POPC   C3B23349  40.973   0.324   7.955
 7209POPC   C4B23350  41.061   0.360   7.655
 7210POPC   NC323351  18.301   2.783   9.455
 7210POPC   PO423352  18.247   2.758   9.155
 7210POPC   GL123353  18.301   2.764   8.855
 7210POPC   GL223354  18.123   2.822   8.855
 7210POPC   C1A23355  18.312   2.775   8.555
 7210POPC   D2A23356  18.255   2.765   8.255
 7210POPC   C3A23357  18.310   2.810   7.955
 7210POPC   C4A23358  18.284   2.761   7.655
 7210POPC   C1B23359  18.019   2.824   8.555
 7210POPC   C2B23360  18.036   2.845   8.255
 7210POPC   C3B23361  18.072   2.834   7.955
 7210POPC   C4B23362  18.076   2.814   7.655
 7211POPC   NC323363  19.025  39.196   9.455
 7211POPC   PO423364  19.105  39.225   9.155
 7211POPC   GL123365  19.048  39.269   8.855
 7211POPC   GL223366  19.038  39.314   8.855
 7211POPC   C1A23367  19.017  39.256   8.555
 7211POPC   D2A23368  19.027  39.256   8.255
 7211POPC   C3A23369  19.105  39.205   7.955
 7211POPC   C4A23370  19.014  39.241   7.655
 7211POPC   C1B23371  18.895  39.410   8.555
 7211POPC   C2B23372  18.986  39.431   8.255
 7211POPC   C3B23373  18.957  39.477   7.955
 7211POPC   C4B23374  18.929  39.403   7.655
 7212POPC   NC323375  37.710  24.447   9.455
 7212POPC   PO423376  37.686  24.477   9.155
 7212POPC   GL123377  37.718  24.492   8.855
 7212POPC   GL223378  37.621  24.620   8.855
 7212POPC   C1A23379  37.721  24.456   8.555
 7212POPC   D2A23380  37.641  24.453   8.255
 7212POPC   C3A23381  37.691  24.456   7.955
 7212POPC   C4A23382  37.714  24.492   7.655
 7212POPC   C1B23383  37.628  24.726   8.555
 7212POPC   C2B23384  37.636  24.695   8.255
 7212POPC   C3B23385  37.623  24.699   7.955
 7212POPC   C4B23386  37.642  24.677   7.655
 7213POPC   NC323387  34.568  43.881   9.455
 7213POPC   PO423388  34.530  43.848   9.155
 7213POPC   GL123389  34.567  43.845   8.855
 7213POPC   GL223390  34.666  43.793   8.855
 7213POPC   C1A23391  34.578  43.913   8.555
 7213POPC   D2A23392  34.619  43.903   8.255
 7213POPC   C3A23393  34.567  43.861   7.955
 7213POPC   C4A23394  34.545  43.843   7.655
 7213POPC   C1B23395  34.674  43.612   8.555
 7213POPC   C2B23396  34.641  43.660   8.255
 7213POPC   C3B23397  34.721  43.638   7.955
 7213POPC   C4B23398  34.694  43.708   7.655
 7214POPC   NC323399  34.594  15.941   9.455
 7214POPC   PO423400  34.530  15.928   9.155
 7214POPC   GL123401  34.578  15.949   8.855
 7214POPC   GL223402  34.471  15.941   8.855
 7214POPC   C1A23403  34.605  15.985   8.555
 7214POPC   D2A23404  34.565  15.936   8.255
 7214POPC   C3A23405  34.542  15.945   7.955
 7214POPC   C4A23406  34.574  15.937   7.655
 7214POPC   C1B23407  34.323  15.836   8.555
 7214POPC   C2B23408  34.368  15.895   8.255
 7214POPC   C3B23409  34.365  15.868   7.955
 7214POPC   C4B23410  34.366  15.798   7.655
 7215POPC   NC323411  13.607  40.818   9.455
 7215POPC   PO423412  13.656  40.804   9.155
 7215POPC   GL123413  13.650  40.751   8.855
 7215POPC   GL223414  13.509  40.766   8.855
 7215POPC   C1A23415  13.653  40.796   8.555
 7215POPC   D2A23416  13.672  40.757   8.255
 7215POPC   C3A23417  13.657  40.806   7.955
 7215POPC   C4A23418  13.595  40.828   7.655
 7215POPC   C1B23419  13.375  40.799   8.555
 7215POPC   C2B23420  13.429  40.713   8.255
 7215POPC   C3B23421  13.423  40.744   7.955
 7215POPC   C4B23422  13.404  40.712   7.655
 7216POPC   NC323423   5.095  42.372   9.455
 7216POPC   PO423424   5.127  42.370   9.155
 7216POPC   GL123425   5.098  42.297   8.855
 7216POPC   GL223426   5.064  42.464   8.855
 7216POPC   C1A23427   5.085  42.354   8.555
 7216POPC   D2A23428   5.109  42.374   8.255
 7216POPC   C3A23429   5.057  42.307   7.955
 7216POPC   C4A23430   5.046  42.322   7.655
 7216POPC   C1B23431   4.980  42.590   8.555
 7216POPC   C2B23432   5.044  42.589   8.255
 7216POPC   C3B23433   5.059  42.615   7.955
 7216POPC   C4B23434   5.072  42.540   7.655
 7217POPC   NC323435  26.016   0.455   9.455
 7217POPC   PO423436  26.037   0.429   9.155
 7217POPC   GL123437  25.998   0.485   8.855
 7217POPC   GL223438  26.169   0.374   8.855
 7217POPC   C1A23439  26.028   0.438   8.555
 7217POPC   D2A23440  26.089   0.438   8.255
 7217POPC   C3A23441  26.018   0.441   7.955
 7217POPC   C4A23442  26.044   0.464   7.655
 7217POPC   C1B23443  26.190   0.266   8.555
 7217POPC   C2B23444  26.186   0.273   8.255
 7217POPC   C3B23445  26.243   0.223   7.955
 7217POPC   C4B23446  26.262   0.214   7.655
 7218POPC   NC323447  16.002  32.237   9.455
 7218POPC   PO423448  15.949  32.201   9.155
 7218POPC   GL123449  15.983  32.264   8.855
 7218POPC   GL223450  15.978  32.390   8.855
 7218POPC   C1A23451  15.991  32.256   8.555
 7218POPC   D2A23452  15.940  32.287   8.255
 7218POPC   C3A23453  15.968  32.220   7.955
 7218POPC   C4A23454  15.915  32.262   7.655
 7218POPC   C1B23455  16.050  32.511   8.555
 7218POPC   C2B23456  16.006  32.533   8.255
 7218POPC   C3B23457  16.025  32.456   7.955
 7218POPC   C4B23458  16.020  32.442   7.655
 7219POPC   NC323459  42.320  34.573   9.455
 7219POPC   PO423460  42.328  34.537   9.155
 7219POPC   GL123461  42.346  34.613   8.855
 7219POPC   GL223462  42.350  34.465   8.855
 7219POPC   C1A23463  42.369  34.607   8.555
 7219POPC   D2A23464  42.340  34.597   8.255
 7219POPC   C3A23465  42.355  34.554   7.955
 7219POPC   C4A23466  42.350  34.607   7.655
 7219POPC   C1B23467  42.376  34.315   8.555
 7219POPC   C2B23468  42.318  34.308   8.255
 7219POPC   C3B23469  42.359  34.290   7.955
 7219POPC   C4B23470  42.301  34.348   7.655
 7220POPC   NC323471  20.608   8.170   9.455
 7220POPC   PO423472  20.621   8.161   9.155
 7220POPC   GL123473  20.585   8.196   8.855
 7220POPC   GL223474  20.643   8.116   8.855
 7220POPC   C1A23475  20.585   8.202   8.555
 7220POPC   D2A23476  20.614   8.194   8.255
 7220POPC   C3A23477  20.613   8.167   7.955
 7220POPC   C4A23478  20.581   8.147   7.655
 7220POPC   C1B23479  20.637   7.941   8.555
 7220POPC   C2B23480  20.635   7.954   8.255
 7220POPC   C3B23481  20.662   7.909   7.955
 7220POPC   C4B23482  20.681   7.963   7.655
 7221POPC   NC323483   1.222  43.838   9.455
 7221POPC   PO423484   1.166  43.871   9.155
 7221POPC   GL123485   1.202  43.869   8.855
 7221POPC   GL223486   1.369  43.915   8.855
 7221POPC   C1A23487   1.170  43.862   8.555
 7221POPC   D2A23488   1.229  43.879   8.255
 7221POPC   C3A23489   1.214  43.877   7.955
 7221POPC   C4A23490   1.253  43.847   7.655
 7221POPC   C1B23491   1.492  43.965   8.555
 7221POPC   C2B23492   1.431  43.981   8.255
 7221POPC   C3B23493   1.460  43.909   7.955
 7221POPC   C4B23494   1.440  43.985   7.655
 7222POPC   NC323495   7.469   2.724   9.455
 7222POPC   PO423496   7.382   2.747   9.155
 7222POPC   GL123497   7.383   2.785   8.855
 7222POPC   GL223498   7.419   2.666   8.855
 7222POPC   C1A23499   7.465   2.780   8.555
 7222POPC   D2A23500   7.441   2.787   8.255
 7222POPC   C3A23501   7.466   2.752   7.955
 7222POPC   C4A23502   7.456   2.798   7.655
 7222POPC   C1B23503   7.529   2.567   8.555
 7222POPC   C2B23504   7.546   2.505   8.255
 7222POPC   C3B23505   7.499   2.564   7.955
 7222POPC   C4B23506   7.484   2.513   7.655
 7223POPC   NC323507  10.486  17.457   9.455
 7223POPC   PO423508  10.541  17.492   9.155
 7223POPC   GL123509  10.523  17.461   8.855
 7223POPC   GL223510  10.455  17.431   8.855
 7223POPC   C1A23511  10.496  17.487   8.555
 7223POPC   D2A23512  10.572  17.503   8.255
 7223POPC   C3A23513  10.560  17.536   7.955
 7223POPC   C4A23514  10.514  17.536   7.655
 7223POPC   C1B23515  10.307  17.354   8.555
 7223POPC   C2B23516  10.355  17.335   8.255
 7223POPC   C3B23517  10.309  17.396   7.955
 7223POPC   C4B23518  10.293  17.409   7.655
 7224POPC   NC323519   9.015   6.684   9.455
 7224POPC   PO423520   8.940   6.615   9.155
 7224POPC   GL123521   8.964   6.674   8.855
 7224POPC   GL223522   9.091   6.665   8.855
 7224POPC   C1A23523   9.018   6.628   8.555
 7224POPC   D2A23524   8.968   6.666   8.255
 7224POPC   C3A23525   8.956   6.645   7.955
 7224POPC   C4A23526   9.012   6.661   7.655
 7224POPC   C1B23527   9.222   6.768   8.555
 7224POPC   C2B23528   9.186   6.738   8.255
 7224POPC   C3B23529   9.225   6.756   7.955
 7224POPC   C4B23530   9.165   6.746   7.655
 7225POPC   NC323531  36.884   0.466   9.455
 7225POPC   PO423532  36.935   0.433   9.155
 7225POPC   GL123533  36.948   0.432   8.855
 7225POPC   GL223534  36.811   0.567   8.855
 7225POPC   C1A23535  36.889   0.458   8.555
 7225POPC   D2A23536  36.907   0.484   8.255
 7225POPC   C3A23537  36.928   0.474   7.955
 7225POPC   C4A23538  36.905   0.419   7.655
 7225POPC   C1B23539  36.839   0.636   8.555
 7225POPC   C2B23540  36.853   0.643   8.255
 7225POPC   C3B23541  36.778   0.658   7.955
 7225POPC   C4B23542  36.765   0.687   7.655
 7226POPC   NC323543  22.937  38.434   9.455
 7226POPC   PO423544  22.896  38.437   9.155
 7226POPC   GL123545  22.957  38.482   8.855
 7226POPC   GL223546  22.825  38.518   8.855
 7226POPC   C1A23547  22.935  38.435   8.555
 7226POPC   D2A23548  22.930  38.474   8.255
 7226POPC   C3A23549  22.934  38.412   7.955
 7226POPC   C4A23550  22.891  38.472   7.655
 7226POPC   C1B23551  22.768  38.560   8.555
 7226POPC   C2B23552  22.736  38.614   8.255
 7226POPC   C3B23553  22.747  38.592   7.955
 7226POPC   C4B23554  22.764  38.600   7.655
 7227POPC   NC323555  38.455  12.819   9.455
 7227POPC   PO423556  38.501  12.840   9.155
 7227POPC   GL123557  38.482  12.894   8.855
 7227POPC   GL223558  38.486  12.779   8.855
 7227POPC   C1A23559  38.505  12.857   8.555
 7227POPC   D2A23560  38.494  12.862   8.255
 7227POPC   C3A23561  38.458  12.835   7.955
 7227POPC   C4A23562  38.470  12.852   7.655
 7227POPC   C1B23563  38.577  12.610   8.555
 7227POPC   C2B23564  38.579  12.621   8.255
 7227POPC   C3B23565  38.522  12.635   7.955
 7227POPC   C4B23566  38.516  12.657   7.655
 7228POPC   NC323567   2.015  12.831   9.455
 7228POPC   PO423568   1.943  12.863   9.155
 7228POPC   GL123569   1.961  12.827   8.855
 7228POPC   GL223570   2.075  12.916   8.855
 7228POPC   C1A23571   1.989  12.817   8.555
 7228POPC   D2A23572   2.019  12.810   8.255
 7228POPC   C3A23573   1.982  12.835   7.955
 7228POPC   C4A23574   1.957  12.900   7.655
 7228POPC   C1B23575   2.143  13.049   8.555
 7228POPC   C2B23576   2.175  13.051   8.255
 7228POPC   C3B23577   2.107  13.084   7.955
 7228POPC   C4B23578   2.132  13.017   7.655
 7229POPC   NC323579  22.113  28.363   9.455
 7229POPC   PO423580  22.140  28.403   9.155
 7229POPC   GL123581  22.183  28.324   8.855
 7229POPC   GL223582  22.058  28.419   8.855
 7229POPC   C1A23583  22.182  28.343   8.555
 7229POPC   D2A23584  22.144  28.388   8.255
 7229POPC   C3A23585  22.197  28.391   7.955
 7229POPC   C4A23586  22.194  28.417   7.655
 7229POPC   C1B23587  21.884  28.446   8.555
 7229POPC   C2B23588  21.934  28.382   8.255
 7229POPC   C3B23589  21.967  28.426   7.955
 7229POPC   C4B23590  21.934  28.400   7.655
 7230POPC   NC323591   3.498  15.978   9.455
 7230POPC   PO423592   3.551  15.936   9.155
 7230POPC   GL123593   3.568  15.909   8.855
 7230POPC   GL223594   3.609  15.892   8.855
 7230POPC   C1A23595   3.525  15.921   8.555
 7230POPC   D2A23596   3.561  15.930   8.255
 7230POPC   C3A23597   3.504  15.948   7.955
 7230POPC   C4A23598   3.546  15.950   7.655
 7230POPC   C1B23599   3.742  15.907   8.555
 7230POPC   C2B23600   3.739  15.876   8.255
 7230POPC   C3B23601   3.775  15.820   7.955
 7230POPC   C4B23602   3.792  15.871   7.655
 7231POPC   NC323603   8.954  37.685   9.455
 7231POPC   PO423604   8.950  37.645   9.155
 7231POPC   GL123605   8.975  37.665   8.855
 7231POPC   GL223606   8.904  37.519   8.855
 7231POPC   C1A23607   8.972  37.693   8.555
 7231POPC   D2A23608   8.935  37.647   8.255
 7231POPC   C3A23609   9.018  37.685   7.955
 7231POPC   C4A23610   9.020  37.649   7.655
 7231POPC   C1B23611   8.836  37.426   8.555
 7231POPC   C2B23612   8.920  37.452   8.255
 7231POPC   C3B23613   8.861  37.446   7.955
 7231POPC   C4B23614   8.839  37.407   7.655
 7232POPC   NC323615  15.987   8.227   9.455
 7232POPC   PO423616  16.003   8.200   9.155
 7232POPC   GL123617  15.936   8.169   8.855
 7232POPC   GL223618  15.919   8.095   8.855
 7232POPC   C1A23619  16.005   8.179   8.555
 7232POPC   D2A23620  15.906   8.223   8.255
 7232POPC   C3A23621  15.954   8.190   7.955
 7232POPC   C4A23622  15.988   8.226   7.655
 7232POPC   C1B23623  15.872   7.945   8.555
 7232POPC   C2B23624  15.937   7.939   8.255
 7232POPC   C3B23625  15.892   7.943   7.955
 7232POPC   C4B23626  15.863   7.924   7.655
 7233POPC   NC323627  19.864  27.580   9.455
 7233POPC   PO423628  19.819  27.549   9.155
 7233POPC   GL123629  19.794  27.567   8.855
 7233POPC   GL223630  19.969  27.645   8.855
 7233POPC   C1A23631  19.830  27.576   8.555
 7233POPC   D2A23632  19.785  27.561   8.255
 7233POPC   C3A23633  19.849  27.630   7.955
 7233POPC   C4A23634  19.873  27.625   7.655
 7233POPC   C1B23635  20.107  27.643   8.555
 7233POPC   C2B23636  20.086  27.667   8.255
 7233POPC   C3B23637  20.049  27.728   7.955
 7233POPC   C4B23638  20.050  27.701   7.655
 7234POPC   NC323639  15.993  11.256   9.455
 7234POPC   PO423640  15.925  11.276   9.155
 7234POPC   GL123641  15.944  11.285   8.855
 7234POPC   GL223642  16.098  11.228   8.855
 7234POPC   C1A23643  15.931  11.276   8.555
 7234POPC   D2A23644  15.993  11.339   8.255
 7234POPC   C3A23645  15.996  11.275   7.955
 7234POPC   C4A23646  16.003  11.275   7.655
 7234POPC   C1B23647  16.184  11.194   8.555
 7234POPC   C2B23648  16.202  11.219   8.255
 7234POPC   C3B23649  16.174  11.193   7.955
 7234POPC   C4B23650  16.147  11.216   7.655
 7235POPC   NC323651  10.515   5.085   9.455
 7235POPC   PO423652  10.555   5.136   9.155
 7235POPC   GL123653  10.483   5.092   8.855
 7235POPC   GL223654  10.417   5.110   8.855
 7235POPC   C1A23655  10.532   5.113   8.555
 7235POPC   D2A23656  10.491   5.053   8.255
 7235POPC   C3A23657  10.540   5.109   7.955
 7235POPC   C4A23658  10.530   5.109   7.655
 7235POPC   C1B23659  10.343   5.229   8.555
 7235POPC   C2B23660  10.323   5.240   8.255
 7235POPC   C3B23661  10.256   5.225   7.955
 7235POPC   C4B23662  10.310   5.231   7.655
 7236POPC   NC323663   7.376  11.286   9.455
 7236POPC   PO423664   7.402  11.311   9.155
 7236POPC   GL123665   7.398  11.260   8.855
 7236POPC   GL223666   7.453  11.147   8.855
 7236POPC   C1A23667   7.451  11.337   8.555
 7236POPC   D2A23668   7.374  11.308   8.255
 7236POPC   C3A23669   7.433  11.348   7.955
 7236POPC   C4A23670   7.424  11.287   7.655
 7236POPC   C1B23671   7.413  11.039   8.555
 7236POPC   C2B23672   7.488  11.075   8.255
 7236POPC   C3B23673   7.471  11.062   7.955
 7236POPC   C4B23674   7.409  11.047   7.655
 7237POPC   NC323675  19.060   8.952   9.455
 7237POPC   PO423676  19.062   8.937   9.155
 7237POPC   GL123677  19.065   8.969   8.855
 7237POPC   GL223678  19.111   9.108   8.855
 7237POPC   C1A23679  19.045   8.945   8.555
 7237POPC   D2A23680  19.095   8.998   8.255
 7237POPC   C3A23681  19.089   9.018   7.955
 7237POPC   C4A23682  19.071   8.988   7.655
 7237POPC   C1B23683  19.233   9.149   8.555
 7237POPC   C2B23684  19.149   9.140   8.255
 7237POPC   C3B23685  19.188   9.149   7.955
 7237POPC   C4B23686  19.165   9.141   7.655
 7238POPC   NC323687  41.565  14.404   9.455
 7238POPC   PO423688  41.553  14.389   9.155
 7238POPC   GL123689  41.582  14.453   8.855
 7238POPC   GL223690  41.422  14.496   8.855
 7238POPC   C1A23691  41.511  14.416   8.555
 7238POPC   D2A23692  41.538  14.416   8.255
 7238POPC   C3A23693  41.558  14.381   7.955
 7238POPC   C4A23694  41.550  14.387   7.655
 7238POPC   C1B23695  41.354  14.481   8.555
 7238POPC   C2B23696  41.309  14.545   8.255
 7238POPC   C3B23697  41.330  14.558   7.955
 7238POPC   C4B23698  41.367  14.534   7.655
 7239POPC   NC323699  27.562   5.057   9.455
 7239POPC   PO423700  27.582   5.140   9.155
 7239POPC   GL123701  27.553   5.046   8.855
 7239POPC   GL223702  27.560   5.194   8.855
 7239POPC   C1A23703  27.575   5.088   8.555
 7239POPC   D2A23704  27.634   5.073   8.255
 7239POPC   C3A23705  27.563   5.126   7.955
 7239POPC   C4A23706  27.597   5.099   7.655
 7239POPC   C1B23707  27.466   5.352   8.555
 7239POPC   C2B23708  27.470   5.312   8.255
 7239POPC   C3B23709  27.545   5.311   7.955
 7239POPC   C4B23710  27.538   5.306   7.655
 7240POPC   NC323711  17.480   9.764   9.455
 7240POPC   PO423712  17.483   9.790   9.155
 7240POPC   GL123713  17.508   9.701   8.855
 7240POPC   GL223714  17.611   9.784   8.855
 7240POPC   C1A23715  17.537   9.781   8.555
 7240POPC   D2A23716  17.467   9.741   8.255
 7240POPC   C3A23717  17.545   9.758   7.955
 7240POPC   C4A23718  17.507   9.753   7.655
 7240POPC   C1B23719  17.721   9.759   8.555
 7240POPC   C2B23720  17.734   9.808   8.255
 7240POPC   C3B23721  17.796   9.796   7.955
 7240POPC   C4B23722  17.787   9.777   7.655
 7241POPC   NC323723   2.033  42.348   9.455
 7241POPC   PO423724   1.996  42.343   9.155
 7241POPC   GL123725   1.957  42.370   8.855
 7241POPC   GL223726   2.065  42.244   8.855
 7241POPC   C1A23727   1.990  42.298   8.555
 7241POPC   D2A23728   1.944  42.297   8.255
 7241POPC   C3A23729   1.946  42.295   7.955
 7241POPC   C4A23730   1.968  42.326   7.655
 7241POPC   C1B23731   2.230  42.179   8.555
 7241POPC   C2B23732   2.219  42.226   8.255
 7241POPC   C3B23733   2.207  42.138   7.955
 7241POPC   C4B23734   2.219  42.210   7.655
 7242POPC   NC323735   3.539  29.145   9.455
 7242POPC   PO423736   3.492  29.169   9.155
 7242POPC   GL123737   3.553  29.168   8.855
 7242POPC   GL223738   3.459  29.084   8.855
 7242POPC   C1A23739   3.552  29.164   8.555
 7242POPC   D2A23740   3.505  29.122   8.255
 7242POPC   C3A23741   3.535  29.115   7.955
 7242POPC   C4A23742   3.501  29.104   7.655
 7242POPC   C1B23743   3.297  29.052   8.555
 7242POPC   C2B23744   3.285  29.013   8.255
 7242POPC   C3B23745   3.268  29.086   7.955
 7242POPC   C4B23746   3.355  29.056   7.655
 7243POPC   NC323747  16.707  33.051   9.455
 7243POPC   PO423748  16.717  32.986   9.155
 7243POPC   GL123749  16.779  33.002   8.855
 7243POPC   GL223750  16.669  33.044   8.855
 7243POPC   C1A23751  16.686  33.004   8.555
 7243POPC   D2A23752  16.705  33.000   8.255
 7243POPC   C3A23753  16.746  33.013   7.955
 7243POPC   C4A23754  16.708  33.053   7.655
 7243POPC   C1B23755  16.500  33.195   8.555
 7243POPC   C2B23756  16.572  33.187   8.255
 7243POPC   C3B23757  16.485  33.169   7.955
 7243POPC   C4B23758  16.501  33.203   7.655
 7244POPC   NC323759   5.098   8.963   9.455
 7244POPC   PO423760   5.051   9.004   9.155
 7244POPC   GL123761   5.134   8.936   8.855
 7244POPC   GL223762   4.944   8.977   8.855
 7244POPC   C1A23763   5.104   8.961   8.555
 7244POPC   D2A23764   5.094   9.009   8.255
 7244POPC   C3A23765   5.123   8.938   7.955
 7244POPC   C4A23766   5.063   8.985   7.655
 7244POPC   C1B23767   4.891   9.006   8.555
 7244POPC   C2B23768   4.865   8.995   8.255
 7244POPC   C3B23769   4.886   8.940   7.955
 7244POPC   C4B23770   4.866   8.938   7.655
 7245POPC   NC323771  40.038  13.624   9.455
 7245POPC   PO423772  39.974  13.662   9.155
 7245POPC   GL123773  40.021  13.672   8.855
 7245POPC   GL223774  39.998  13.502   8.855
 7245POPC   C1A23775  40.044  13.612   8.555
 7245POPC   D2A23776  40.012  13.595   8.255
 7245POPC   C3A23777  39.958  13.596   7.955
 7245POPC   C4A23778  39.984  13.637   7.655
 7245POPC   C1B23779  40.106  13.378   8.555
 7245POPC   C2B23780  40.129  13.364   8.255
 7245POPC   C3B23781  40.050  13.389   7.955
 7245POPC   C4B23782  40.066  13.347   7.655
 7246POPC   NC323783  34.624  44.682   9.455
 7246POPC   PO423784  34.564  44.700   9.155
 7246POPC   GL123785  34.544  44.657   8.855
 7246POPC   GL223786  34.503  44.604   8.855
 7246POPC   C1A23787  34.557  44.651   8.555
 7246POPC   D2A23788  34.570  44.614   8.255
 7246POPC   C3A23789  34.582  44.666   7.955
 7246POPC   C4A23790  34.552  44.637   7.655
 7246POPC   C1B23791  34.360  44.617   8.555
 7246POPC   C2B23792  34.336  44.572   8.255
 7246POPC   C3B23793  34.307  44.599   7.955
 7246POPC   C4B23794  34.308  44.603   7.655
 7247POPC   NC323795  17.471   4.327   9.455
 7247POPC   PO423796  17.459   4.284   9.155
 7247POPC   GL123797  17.474   4.268   8.855
 7247POPC   GL223798  17.371   4.434   8.855
 7247POPC   C1A23799  17.536   4.346   8.555
 7247POPC   D2A23800  17.514   4.297   8.255
 7247POPC   C3A23801  17.496   4.308   7.955
 7247POPC   C4A23802  17.476   4.311   7.655
 7247POPC   C1B23803  17.264   4.486   8.555
 7247POPC   C2B23804  17.287   4.522   8.255
 7247POPC   C3B23805  17.332   4.487   7.955
 7247POPC   C4B23806  17.298   4.514   7.655
 7248POPC   NC323807   6.611  21.416   9.455
 7248POPC   PO423808   6.635  21.423   9.155
 7248POPC   GL123809   6.604  21.425   8.855
 7248POPC   GL223810   6.630  21.525   8.855
 7248POPC   C1A23811   6.659  21.435   8.555
 7248POPC   D2A23812   6.664  21.435   8.255
 7248POPC   C3A23813   6.680  21.408   7.955
 7248POPC   C4A23814   6.682  21.339   7.655
 7248POPC   C1B23815   6.553  21.626   8.555
 7248POPC   C2B23816   6.571  21.590   8.255
 7248POPC   C3B23817   6.578  21.568   7.955
 7248POPC   C4B23818   6.537  21.625   7.655
 7249POPC   NC323819  12.103  19.056   9.455
 7249POPC   PO423820  12.073  19.062   9.155
 7249POPC   GL123821  12.073  19.097   8.855
 7249POPC   GL223822  12.194  18.922   8.855
 7249POPC   C1A23823  12.039  19.030   8.555
 7249POPC   D2A23824  12.107  19.013   8.255
 7249POPC   C3A23825  12.106  19.034   7.955
 7249POPC   C4A23826  12.102  19.013   7.655
 7249POPC   C1B23827  12.238  18.853   8.555
 7249POPC   C2B23828  12.262  18.840   8.255
 7249POPC   C3B23829  12.255  18.830   7.955
 7249POPC   C4B23830  12.250  18.892   7.655
 7250POPC   NC323831   8.959   3.544   9.455
 7250POPC   PO423832   8.971   3.542   9.155
 7250POPC   GL123833   8.939   3.547   8.855
 7250POPC   GL223834   8.806   3.546   8.855
 7250POPC   C1A23835   8.927   3.549   8.555
 7250POPC   D2A23836   8.923   3.517   8.255
 7250POPC   C3A23837   8.981   3.569   7.955
 7250POPC   C4A23838   9.017   3.537   7.655
 7250POPC   C1B23839   8.746   3.618   8.555
 7250POPC   C2B23840   8.756   3.569   8.255
 7250POPC   C3B23841   8.683   3.538   7.955
 7250POPC   C4B23842   8.760   3.541   7.655
 7251POPC   NC323843  12.045   0.443   9.455
 7251POPC   PO423844  12.113   0.389   9.155
 7251POPC   GL123845  12.094   0.460   8.855
 7251POPC   GL223846  11.971   0.387   8.855
 7251POPC   C1A23847  12.080   0.487   8.555
 7251POPC   D2A23848  12.033   0.421   8.255
 7251POPC   C3A23849  12.119   0.466   7.955
 7251POPC   C4A23850  12.087   0.478   7.655
 7251POPC   C1B23851  11.877   0.395   8.555
 7251POPC   C2B23852  11.874   0.399   8.255
 7251POPC   C3B23853  11.845   0.401   7.955
 7251POPC   C4B23854  11.785   0.434   7.655
 7252POPC   NC323855   5.064   7.373   9.455
 7252POPC   PO423856   5.104   7.467   9.155
 7252POPC   GL123857   5.093   7.455   8.855
 7252POPC   GL223858   5.157   7.478   8.855
 7252POPC   C1A23859   5.107   7.401   8.555
 7252POPC   D2A23860   5.061   7.415   8.255
 7252POPC   C3A23861   5.093   7.400   7.955
 7252POPC   C4A23862   5.085   7.376   7.655
 7252POPC   C1B23863   5.253   7.583   8.555
 7252POPC   C2B23864   5.273   7.591   8.255
 7252POPC   C3B23865   5.265   7.589   7.955
 7252POPC   C4B23866   5.240   7.613   7.655
 7253POPC   NC323867   6.632   3.496   9.455
 7253POPC   PO423868   6.603   3.543   9.155
 7253POPC   GL123869   6.688   3.585   8.855
 7253POPC   GL223870   6.594   3.472   8.855
 7253POPC   C1A23871   6.645   3.529   8.555
 7253POPC   D2A23872   6.618   3.503   8.255
 7253POPC   C3A23873   6.658   3.574   7.955
 7253POPC   C4A23874   6.600   3.534   7.655
 7253POPC   C1B23875   6.542   3.310   8.555
 7253POPC   C2B23876   6.613   3.257   8.255
 7253POPC   C3B23877   6.525   3.304   7.955
 7253POPC   C4B23878   6.613   3.302   7.655
 7254POPC   NC323879  39.978  23.762   9.455
 7254POPC   PO423880  40.038  23.732   9.155
 7254POPC   GL123881  40.056  23.733   8.855
 7254POPC   GL223882  39.930  23.593   8.855
 7254POPC   C1A23883  40.014  23.697   8.555
 7254POPC   D2A23884  40.014  23.732   8.255
 7254POPC   C3A23885  40.038  23.699   7.955
 7254POPC   C4A23886  40.001  23.732   7.655
 7254POPC   C1B23887  39.900  23.462   8.555
 7254POPC   C2B23888  39.844  23.528   8.255
 7254POPC   C3B23889  39.888  23.494   7.955
 7254POPC   C4B23890  39.910  23.541   7.655
 7255POPC   NC323891  15.200   9.712   9.455
 7255POPC   PO423892  15.203   9.786   9.155
 7255POPC   GL123893  15.197   9.742   8.855
 7255POPC   GL223894  15.259   9.866   8.855
 7255POPC   C1A23895  15.208   9.730   8.555
 7255POPC   D2A23896  15.180   9.753   8.255
 7255POPC   C3A23897  15.182   9.783   7.955
 7255POPC   C4A23898  15.182   9.725   7.655
 7255POPC   C1B23899  15.273  10.012   8.555
 7255POPC   C2B23900  15.323   9.938   8.255
 7255POPC   C3B23901  15.317   9.930   7.955
 7255POPC   C4B23902  15.325   9.941   7.655
 7256POPC   NC323903  24.469  11.308   9.455
 7256POPC   PO423904  24.532  11.307   9.155
 7256POPC   GL123905  24.520  11.283   8.855
 7256POPC   GL223906  24.564  11.144   8.855
 7256POPC   C1A23907  24.458  11.252   8.555
 7256POPC   D2A23908  24.512  11.272   8.255
 7256POPC   C3A23909  24.442  11.329   7.955
 7256POPC   C4A23910  24.442  11.323   7.655
 7256POPC   C1B23911  24.564  11.015   8.555
 7256POPC   C2B23912  24.493  11.006   8.255
 7256POPC   C3B23913  24.574  11.069   7.955
 7256POPC   C4B23914  24.587  11.054   7.655
 7257POPC   NC323915  25.278  35.390   9.455
 7257POPC   PO423916  25.245  35.396   9.155
 7257POPC   GL123917  25.245  35.371   8.855
 7257POPC   GL223918  25.195  35.288   8.855
 7257POPC   C1A23919  25.247  35.363   8.555
 7257POPC   D2A23920  25.295  35.315   8.255
 7257POPC   C3A23921  25.256  35.328   7.955
 7257POPC   C4A23922  25.225  35.382   7.655
 7257POPC   C1B23923  25.090  35.197   8.555
 7257POPC   C2B23924  25.081  35.129   8.255
 7257POPC   C3B23925  25.100  35.110   7.955
 7257POPC   C4B23926  25.150  35.123   7.655
 7258POPC   NC323927   3.526   2.024   9.455
 7258POPC   PO423928   3.544   2.027   9.155
 7258POPC   GL123929   3.555   2.000   8.855
 7258POPC   GL223930   3.669   1.928   8.855
 7258POPC   C1A23931   3.584   2.020   8.555
 7258POPC   D2A23932   3.529   1.942   8.255
 7258POPC   C3A23933   3.515   2.022   7.955
 7258POPC   C4A23934   3.496   1.983   7.655
 7258POPC   C1B23935   3.743   1.864   8.555
 7258POPC   C2B23936   3.721   1.823   8.255
 7258POPC   C3B23937   3.767   1.853   7.955
 7258POPC   C4B23938   3.723   1.835   7.655
 7259POPC   NC323939  30.664  37.647   9.455
 7259POPC   PO423940  30.712  37.692   9.155
 7259POPC   GL123941  30.647  37.649   8.855
 7259POPC   GL223942  30.695  37.518   8.855
 7259POPC   C1A23943  30.660  37.641   8.555
 7259POPC   D2A23944  30.710  37.657   8.255
 7259POPC   C3A23945  30.688  37.678   7.955
 7259POPC   C4A23946  30.723  37.668   7.655
 7259POPC   C1B23947  30.664  37.415   8.555
 7259POPC   C2B23948  30.702  37.470   8.255
 7259POPC   C3B23949  30.754  37.403   7.955
 7259POPC   C4B23950  30.723  37.442   7.655
 7260POPC   NC323951  39.195  26.054   9.455
 7260POPC   PO423952  39.256  26.011   9.155
 7260POPC   GL123953  39.267  26.082   8.855
 7260POPC   GL223954  39.089  25.987   8.855
 7260POPC   C1A23955  39.246  26.080   8.555
 7260POPC   D2A23956  39.241  26.012   8.255
 7260POPC   C3A23957  39.209  26.063   7.955
 7260POPC   C4A23958  39.238  25.999   7.655
 7260POPC   C1B23959  38.964  26.011   8.555
 7260POPC   C2B23960  39.015  25.967   8.255
 7260POPC   C3B23961  38.953  26.008   7.955
 7260POPC   C4B23962  38.967  25.957   7.655
 7261POPC   NC323963  10.534  25.230   9.455
 7261POPC   PO423964  10.509  25.247   9.155
 7261POPC   GL123965  10.499  25.255   8.855
 7261POPC   GL223966  10.441  25.327   8.855
 7261POPC   C1A23967  10.559  25.245   8.555
 7261POPC   D2A23968  10.519  25.282   8.255
 7261POPC   C3A23969  10.529  25.302   7.955
 7261POPC   C4A23970  10.480  25.220   7.655
 7261POPC   C1B23971  10.248  25.390   8.555
 7261POPC   C2B23972  10.339  25.396   8.255
 7261POPC   C3B23973  10.313  25.397   7.955
 7261POPC   C4B23974  10.279  25.338   7.655
 7262POPC   NC323975  24.496  41.547   9.455
 7262POPC   PO423976  24.520  41.587   9.155
 7262POPC   GL123977  24.498  41.544   8.855
 7262POPC   GL223978  24.563  41.556   8.855
 7262POPC   C1A23979  24.500  41.520   8.555
 7262POPC   D2A23980  24.498  41.547   8.255
 7262POPC   C3A23981  24.457  41.563   7.955
 7262POPC   C4A23982  24.521  41.554   7.655
 7262POPC   C1B23983  24.778  41.605   8.555
 7262POPC   C2B23984  24.766  41.570   8.255
 7262POPC   C3B23985  24.729  41.632   7.955
 7262POPC   C4B23986  24.708  41.579   7.655
 7263POPC   NC323987  21.392  41.523   9.455
 7263POPC   PO423988  21.424  41.598   9.155
 7263POPC   GL123989  21.371  41.535   8.855
 7263POPC   GL223990  21.400  41.674   8.855
 7263POPC   C1A23991  21.346  41.549   8.555
 7263POPC   D2A23992  21.388  41.590   8.255
 7263POPC   C3A23993  21.385  41.544   7.955
 7263POPC   C4A23994  21.382  41.555   7.655
 7263POPC   C1B23995  21.368  41.837   8.555
 7263POPC   C2B23996  21.300  41.792   8.255
 7263POPC   C3B23997  21.352  41.774   7.955
 7263POPC   C4B23998  21.311  41.770   7.655
 7264POPC   NC323999   7.406  15.198   9.455
 7264POPC   PO424000   7.411  15.180   9.155
 7264POPC   GL124001   7.406  15.205   8.855
 7264POPC   GL224002   7.523  15.061   8.855
 7264POPC   C1A24003   7.409  15.158   8.555
 7264POPC   D2A24004   7.404  15.207   8.255
 7264POPC   C3A24005   7.453  15.203   7.955
 7264POPC   C4A24006   7.416  15.147   7.655
 7264POPC   C1B24007   7.649  15.013   8.555
 7264POPC   C2B24008   7.652  15.080   8.255
 7264POPC   C3B24009   7.650  15.028   7.955
 7264POPC   C4B24010   7.611  15.054   7.655
 7265POPC   NC324011   2.772   8.969   9.455
 7265POPC   PO424012   2.755   8.993   9.155
 7265POPC   GL124013   2.780   8.971   8.855
 7265POPC   GL224014   2.741   8.822   8.855
 7265POPC   C1A24015   2.725   9.014   8.555
 7265POPC   D2A24016   2.725   9.010   8.255
 7265POPC   C3A24017   2.726   9.017   7.955
 7265POPC   C4A24018   2.749   9.014   7.655
 7265POPC   C1B24019   2.755   8.728   8.555
 7265POPC   C2B24020   2.746   8.681   8.255
 7265POPC   C3B24021   2.816   8.756   7.955
 7265POPC   C4B24022   2.793   8.746   7.655
 7266POPC   NC324023   4.350   1.947   9.455
 7266POPC   PO424024   4.295   2.024   9.155
 7266POPC   GL124025   4.345   1.953   8.855
 7266POPC   GL224026   4.247   2.080   8.855
 7266POPC   C1A24027   4.361   1.954   8.555
 7266POPC   D2A24028   4.349   1.989   8.255
 7266POPC   C3A24029   4.351   2.023   7.955
 7266POPC   C4A24030   4.298   2.029   7.655
 7266POPC   C1B24031   4.061   2.088   8.555
 7266POPC   C2B24032   4.138   2.117   8.255
 7266POPC   C3B24033   4.092   2.091   7.955
 7266POPC   C4B24034   4.087   2.087   7.655
 7267POPC   NC324035  23.681   9.754   9.455
 7267POPC   PO424036  23.723   9.718   9.155
 7267POPC   GL124037  23.718   9.731   8.855
 7267POPC   GL224038  23.842   9.806   8.855
 7267POPC   C1A24039  23.756   9.760   8.555
 7267POPC   D2A24040  23.724   9.757   8.255
 7267POPC   C3A24041  23.690   9.792   7.955
 7267POPC   C4A24042  23.703   9.777   7.655
 7267POPC   C1B24043  23.961   9.764   8.555
 7267POPC   C2B24044  23.938   9.752   8.255
 7267POPC   C3B24045  23.962   9.736   7.955
 7267POPC   C4B24046  23.929   9.799   7.655
 7268POPC   NC324047  20.585  39.208   9.455
 7268POPC   PO424048  20.646  39.210   9.155
 7268POPC   GL124049  20.659  39.272   8.855
 7268POPC   GL224050  20.503  39.323   8.855
 7268POPC   C1A24051  20.645  39.209   8.555
 7268POPC   D2A24052  20.644  39.242   8.255
 7268POPC   C3A24053  20.615  39.229   7.955
 7268POPC   C4A24054  20.587  39.185   7.655
 7268POPC   C1B24055  20.444  39.407   8.555
 7268POPC   C2B24056  20.444  39.386   8.255
 7268POPC   C3B24057  20.450  39.438   7.955
 7268POPC   C4B24058  20.399  39.462   7.655
 7269POPC   NC324059  43.889   8.974   9.455
 7269POPC   PO424060  43.856   8.970   9.155
 7269POPC   GL124061  43.902   8.946   8.855
 7269POPC   GL224062  43.877   8.868   8.855
 7269POPC   C1A24063  43.837   9.019   8.555
 7269POPC   D2A24064  43.930   8.982   8.255
 7269POPC   C3A24065  43.922   8.974   7.955
 7269POPC   C4A24066  43.899   8.965   7.655
 7269POPC   C1B24067  43.960   8.730   8.555
 7269POPC   C2B24068  43.914   8.741   8.255
 7269POPC   C3B24069  43.983   8.730   7.955
 7269POPC   C4B24070  43.956   8.740   7.655
 7270POPC   NC324071  25.256  40.000   9.455
 7270POPC   PO424072  25.217  39.990   9.155
 7270POPC   GL124073  25.236  40.047   8.855
 7270POPC   GL224074  25.336  39.964   8.855
 7270POPC   C1A24075  25.293  39.957   8.555
 7270POPC   D2A24076  25.299  39.967   8.255
 7270POPC   C3A24077  25.297  39.961   7.955
 7270POPC   C4A24078  25.229  39.961   7.655
 7270POPC   C1B24079  25.430  39.826   8.555
 7270POPC   C2B24080  25.451  39.828   8.255
 7270POPC   C3B24081  25.454  39.826   7.955
 7270POPC   C4B24082  25.398  39.856   7.655
 7271POPC   NC324083   1.965  14.430   9.455
 7271POPC   PO424084   2.035  14.438   9.155
 7271POPC   GL124085   1.980  14.425   8.855
 7271POPC   GL224086   2.070  14.389   8.855
 7271POPC   C1A24087   2.018  14.367   8.555
 7271POPC   D2A24088   2.039  14.414   8.255
 7271POPC   C3A24089   1.983  14.372   7.955
 7271POPC   C4A24090   1.949  14.421   7.655
 7271POPC   C1B24091   2.213  14.313   8.555
 7271POPC   C2B24092   2.255  14.281   8.255
 7271POPC   C3B24093   2.201  14.373   7.955
 7271POPC   C4B24094   2.256  14.341   7.655
 7272POPC   NC324095  17.519  26.039   9.455
 7272POPC   PO424096  17.500  26.070   9.155
 7272POPC   GL124097  17.542  26.016   8.855
 7272POPC   GL224098  17.499  26.124   8.855
 7272POPC   C1A24099  17.462  26.079   8.555
 7272POPC   D2A24100  17.469  26.066   8.255
 7272POPC   C3A24101  17.513  26.016   7.955
 7272POPC   C4A24102  17.521  26.051   7.655
 7272POPC   C1B24103  17.573  26.321   8.555
 7272POPC   C2B24104  17.545  26.273   8.255
 7272POPC   C3B24105  17.537  26.252   7.955
 7272POPC   C4B24106  17.531  26.317   7.655
 7273POPC   NC324107  43.083   6.671   9.455
 7273POPC   PO424108  43.132   6.686   9.155
 7273POPC   GL124109  43.114   6.647   8.855
 7273POPC   GL224110  43.188   6.496   8.855
 7273POPC   C1A24111  43.072   6.662   8.555
 7273POPC   D2A24112  43.063   6.682   8.255
 7273POPC   C3A24113  43.128   6.633   7.955
 7273POPC   C4A24114  43.140   6.615   7.655
 7273POPC   C1B24115  43.269   6.473   8.555
 7273POPC   C2B24116  43.212   6.456   8.255
 7273POPC   C3B24117  43.248   6.447   7.955
 7273POPC   C4B24118  43.255   6.407   7.655
 7274POPC   NC324119   3.515  26.018   9.455
 7274POPC   PO424120   3.519  26.028   9.155
 7274POPC   GL124121   3.557  26.081   8.855
 7274POPC   GL224122   3.491  26.171   8.855
 7274POPC   C1A24123   3.588  26.031   8.555
 7274POPC   D2A24124   3.574  25.999   8.255
 7274POPC   C3A24125   3.504  26.065   7.955
 7274POPC   C4A24126   3.507  26.003   7.655
 7274POPC   C1B24127   3.416  26.288   8.555
 7274POPC   C2B24128   3.426  26.270   8.255
 7274POPC   C3B24129   3.465  26.254   7.955
 7274POPC   C4B24130   3.500  26.250   7.655
 7275POPC   NC324131  35.348  28.351   9.455
 7275POPC   PO424132  35.355  28.388   9.155
 7275POPC   GL124133  35.360  28.332   8.855
 7275POPC   GL224134  35.245  28.382   8.855
 7275POPC   C1A24135  35.353  28.393   8.555
 7275POPC   D2A24136  35.359  28.403   8.255
 7275POPC   C3A24137  35.330  28.347   7.955
 7275POPC   C4A24138  35.343  28.364   7.655
 7275POPC   C1B24139  35.065  28.364   8.555
 7275POPC   C2B24140  35.131  28.355   8.255
 7275POPC   C3B24141  35.142  28.344   7.955
 7275POPC   C4B24142  35.104  28.325   7.655
 7276POPC   NC324143  35.370  13.597   9.455
 7276POPC   PO424144  35.332  13.594   9.155
 7276POPC   GL124145  35.353  13.675   8.855
 7276POPC   GL224146  35.364  13.472   8.855
 7276POPC   C1A24147  35.316  13.620   8.555
 7276POPC   D2A24148  35.386  13.672   8.255
 7276POPC   C3A24149  35.303  13.672   7.955
 7276POPC   C4A24150  35.307  13.662   7.655
 7276POPC   C1B24151  35.231  13.361   8.555
 7276POPC   C2B24152  35.252  13.405   8.255
 7276POPC   C3B24153  35.299  13.394   7.955
 7276POPC   C4B24154  35.325  13.340   7.655
 7277POPC   NC324155  41.576  24.518   9.455
 7277POPC   PO424156  41.582  24.463   9.155
 7277POPC   GL124157  41.512  24.504   8.855
 7277POPC   GL224158  41.423  24.439   8.855
 7277POPC   C1A24159  41.591  24.505   8.555
 7277POPC   D2A24160  41.519  24.441   8.255
 7277POPC   C3A24161  41.552  24.479   7.955
 7277POPC   C4A24162  41.591  24.475   7.655
 7277POPC   C1B24163  41.314  24.341   8.555
 7277POPC   C2B24164  41.409  24.347   8.255
 7277POPC   C3B24165  41.336  24.357   7.955
 7277POPC   C4B24166  41.383  24.368   7.655
 7278POPC   NC324167  41.528  34.606   9.455
 7278POPC   PO424168  41.531  34.603   9.155
 7278POPC   GL124169  41.566  34.544   8.855
 7278POPC   GL224170  41.649  34.555   8.855
 7278POPC   C1A24171  41.589  34.547   8.555
 7278POPC   D2A24172  41.547  34.616   8.255
 7278POPC   C3A24173  41.557  34.601   7.955
 7278POPC   C4A24174  41.513  34.533   7.655
 7278POPC   C1B24175  41.832  34.651   8.555
 7278POPC   C2B24176  41.845  34.602   8.255
 7278POPC   C3B24177  41.804  34.662   7.955
 7278POPC   C4B24178  41.781  34.643   7.655
 7279POPC   NC324179  40.734  29.913   9.455
 7279POPC   PO424180  40.807  29.880   9.155
 7279POPC   GL124181  40.809  29.895   8.855
 7279POPC   GL224182  40.883  29.769   8.855
 7279POPC   C1A24183  40.758  29.939   8.555
 7279POPC   D2A24184  40.775  29.956   8.255
 7279POPC   C3A24185  40.748  29.955   7.955
 7279POPC   C4A24186  40.741  29.894   7.655
 7279POPC   C1B24187  40.925  29.726   8.555
 7279POPC   C2B24188  40.945  29.678   8.255
 7279POPC   C3B24189  40.920  29.672   7.955
 7279POPC   C4B24190  40.939  29.658   7.655
 7280POPC   NC324191  40.770  40.054   9.455
 7280POPC   PO424192  40.809  39.986   9.155
 7280POPC   GL124193  40.804  40.026   8.855
 7280POPC   GL224194  40.665  39.915   8.855
 7280POPC   C1A24195  40.785  39.995   8.555
 7280POPC   D2A24196  40.819  39.995   8.255
 7280POPC   C3A24197  40.789  40.021   7.955
 7280POPC   C4A24198  40.754  39.989   7.655
 7280POPC   C1B24199  40.558  39.926   8.555
 7280POPC   C2B24200  40.586  39.877   8.255
 7280POPC   C3B24201  40.564  39.862   7.955
 7280POPC   C4B24202  40.512  39.939   7.655
 7281POPC   NC324203   7.398  20.606   9.455
 7281POPC   PO424204   7.411  20.590   9.155
 7281POPC   GL124205   7.465  20.626   8.855
 7281POPC   GL224206   7.411  20.748   8.855
 7281POPC   C1A24207   7.445  20.566   8.555
 7281POPC   D2A24208   7.406  20.615   8.255
 7281POPC   C3A24209   7.406  20.582   7.955
 7281POPC   C4A24210   7.423  20.563   7.655
 7281POPC   C1B24211   7.427  20.908   8.555
 7281POPC   C2B24212   7.468  20.821   8.255
 7281POPC   C3B24213   7.453  20.882   7.955
 7281POPC   C4B24214   7.404  20.877   7.655
 7282POPC   NC324215   4.307   5.917   9.455
 7282POPC   PO424216   4.364   5.845   9.155
 7282POPC   GL124217   4.286   5.892   8.855
 7282POPC   GL224218   4.223   5.847   8.855
 7282POPC   C1A24219   4.346   5.902   8.555
 7282POPC   D2A24220   4.269   5.910   8.255
 7282POPC   C3A24221   4.358   5.876   7.955
 7282POPC   C4A24222   4.346   5.845   7.655
 7282POPC   C1B24223   4.056   5.821   8.555
 7282POPC   C2B24224   4.047   5.741   8.255
 7282POPC   C3B24225   4.091   5.790   7.955
 7282POPC   C4B24226   4.058   5.776   7.655
 7283POPC   NC324227  21.402  22.212   9.455
 7283POPC   PO424228  21.343  22.208   9.155
 7283POPC   GL124229  21.379  22.210   8.855
 7283POPC   GL224230  21.374  22.075   8.855
 7283POPC   C1A24231  21.430  22.129   8.555
 7283POPC   D2A24232  21.352  22.195   8.255
 7283POPC   C3A24233  21.413  22.165   7.955
 7283POPC   C4A24234  21.356  22.168   7.655
 7283POPC   C1B24235  21.449  21.895   8.555
 7283POPC   C2B24236  21.438  21.950   8.255
 7283POPC   C3B24237  21.445  21.912   7.955
 7283POPC   C4B24238  21.390  21.922   7.655
 7284POPC   NC324239   8.957   4.360   9.455
 7284POPC   PO424240   8.976   4.317   9.155
 7284POPC   GL124241   8.953   4.296   8.855
 7284POPC   GL224242   8.968   4.237   8.855
 7284POPC   C1A24243   8.974   4.313   8.555
 7284POPC   D2A24244   8.965   4.340   8.255
 7284POPC   C3A24245   8.990   4.333   7.955
 7284POPC   C4A24246   9.015   4.279   7.655
 7284POPC   C1B24247   9.009   4.068   8.555
 7284POPC   C2B24248   9.032   4.076   8.255
 7284POPC   C3B24249   8.994   4.042   7.955
 7284POPC   C4B24250   8.986   4.099   7.655
 7285POPC   NC324251  11.296   7.401   9.455
 7285POPC   PO424252  11.291   7.394   9.155
 7285POPC   GL124253  11.281   7.390   8.855
 7285POPC   GL224254  11.392   7.509   8.855
 7285POPC   C1A24255  11.301   7.416   8.555
 7285POPC   D2A24256  11.287   7.428   8.255
 7285POPC   C3A24257  11.316   7.374   7.955
 7285POPC   C4A24258  11.271   7.415   7.655
 7285POPC   C1B24259  11.458   7.589   8.555
 7285POPC   C2B24260  11.511   7.549   8.255
 7285POPC   C3B24261  11.489   7.602   7.955
 7285POPC   C4B24262  11.521   7.579   7.655
 7286POPC   NC324263  16.712  20.638   9.455
 7286POPC   PO424264  16.729  20.651   9.155
 7286POPC   GL124265  16.778  20.565   8.855
 7286POPC   GL224266  16.830  20.714   8.855
 7286POPC   C1A24267  16.767  20.594   8.555
 7286POPC   D2A24268  16.710  20.610   8.255
 7286POPC   C3A24269  16.684  20.631   7.955
 7286POPC   C4A24270  16.761  20.582   7.655
 7286POPC   C1B24271  16.854  20.779   8.555
 7286POPC   C2B24272  16.902  20.853   8.255
 7286POPC   C3B24273  16.917  20.832   7.955
 7286POPC   C4B24274  16.850  20.810   7.655
 7287POPC   NC324275  29.924  35.395   9.455
 7287POPC   PO424276  29.882  35.303   9.155
 7287POPC   GL124277  29.898  35.307   8.855
 7287POPC   GL224278  29.775  35.378   8.855
 7287POPC   C1A24279  29.908  35.302   8.555
 7287POPC   D2A24280  29.917  35.381   8.255
 7287POPC   C3A24281  29.903  35.327   7.955
 7287POPC   C4A24282  29.964  35.336   7.655
 7287POPC   C1B24283  29.701  35.511   8.555
 7287POPC   C2B24284  29.677  35.515   8.255
 7287POPC   C3B24285  29.723  35.476   7.955
 7287POPC   C4B24286  29.751  35.517   7.655
 7288POPC   NC324287  31.508  39.997   9.455
 7288POPC   PO424288  31.472  39.984   9.155
 7288POPC   GL124289  31.509  40.008   8.855
 7288POPC   GL224290  31.639  39.951   8.855
 7288POPC   C1A24291  31.424  40.048   8.555
 7288POPC   D2A24292  31.436  40.031   8.255
 7288POPC   C3A24293  31.489  39.966   7.955
 7288POPC   C4A24294  31.467  40.022   7.655
 7288POPC   C1B24295  31.736  39.907   8.555
 7288POPC   C2B24296  31.742  39.963   8.255
 7288POPC   C3B24297  31.762  39.937   7.955
 7288POPC   C4B24298  31.690  39.981   7.655
 7289POPC   NC324299   6.688   1.236   9.455
 7289POPC   PO424300   6.677   1.203   9.155
 7289POPC   GL124301   6.600   1.164   8.855
 7289POPC   GL224302   6.566   1.226   8.855
 7289POPC   C1A24303   6.647   1.176   8.555
 7289POPC   D2A24304   6.665   1.259   8.255
 7289POPC   C3A24305   6.610   1.178   7.955
 7289POPC   C4A24306   6.695   1.190   7.655
 7289POPC   C1B24307   6.373   1.266   8.555
 7289POPC   C2B24308   6.357   1.180   8.255
 7289POPC   C3B24309   6.358   1.266   7.955
 7289POPC   C4B24310   6.405   1.242   7.655
 7290POPC   NC324311  10.492  26.002   9.455
 7290POPC   PO424312  10.492  26.033   9.155
 7290POPC   GL124313  10.516  26.054   8.855
 7290POPC   GL224314  10.467  26.129   8.855
 7290POPC   C1A24315  10.506  26.010   8.555
 7290POPC   D2A24316  10.574  26.014   8.255
 7290POPC   C3A24317  10.486  26.025   7.955
 7290POPC   C4A24318  10.546  26.046   7.655
 7290POPC   C1B24319  10.438  26.270   8.555
 7290POPC   C2B24320  10.433  26.264   8.255
 7290POPC   C3B24321  10.410  26.296   7.955
 7290POPC   C4B24322  10.397  26.298   7.655
 7291POPC   NC324323   2.737  13.636   9.455
 7291POPC   PO424324   2.731  13.605   9.155
 7291POPC   GL124325   2.814  13.603   8.855
 7291POPC   GL224326   2.732  13.723   8.855
 7291POPC   C1A24327   2.758  13.581   8.555
 7291POPC   D2A24328   2.724  13.599   8.255
 7291POPC   C3A24329   2.767  13.599   7.955
 7291POPC   C4A24330   2.763  13.635   7.655
 7291POPC   C1B24331   2.727  13.911   8.555
 7291POPC   C2B24332   2.665  13.908   8.255
 7291POPC   C3B24333   2.703  13.833   7.955
 7291POPC   C4B24334   2.730  13.828   7.655
 7292POPC   NC324335  26.010  19.013   9.455
 7292POPC   PO424336  26.019  19.046   9.155
 7292POPC   GL124337  26.001  19.046   8.855
 7292POPC   GL224338  26.127  19.107   8.855
 7292POPC   C1A24339  26.035  19.083   8.555
 7292POPC   D2A24340  25.999  19.069   8.255
 7292POPC   C3A24341  26.019  19.087   7.955
 7292POPC   C4A24342  25.994  19.091   7.655
 7292POPC   C1B24343  26.190  19.218   8.555
 7292POPC   C2B24344  26.193  19.292   8.255
 7292POPC   C3B24345  26.170  19.288   7.955
 7292POPC   C4B24346  26.243  19.261   7.655
 7293POPC   NC324347   5.127  40.025   9.455
 7293POPC   PO424348   5.067  39.986   9.155
 7293POPC   GL124349   5.051  39.985   8.855
 7293POPC   GL224350   5.224  40.068   8.855
 7293POPC   C1A24351   5.125  40.023   8.555
 7293POPC   D2A24352   5.088  40.015   8.255
 7293POPC   C3A24353   5.112  40.011   7.955
 7293POPC   C4A24354   5.112  40.009   7.655
 7293POPC   C1B24355   5.318  40.053   8.555
 7293POPC   C2B24356   5.367  40.082   8.255
 7293POPC   C3B24357   5.303  40.008   7.955
 7293POPC   C4B24358   5.338  40.004   7.655
 7294POPC   NC324359  28.400   5.115   9.455
 7294POPC   PO424360  28.362   5.143   9.155
 7294POPC   GL124361  28.354   5.112   8.855
 7294POPC   GL224362  28.257   5.177   8.855
 7294POPC   C1A24363  28.382   5.101   8.555
 7294POPC   D2A24364  28.373   5.122   8.255
 7294POPC   C3A24365  28.335   5.143   7.955
 7294POPC   C4A24366  28.388   5.060   7.655
 7294POPC   C1B24367  28.098   5.200   8.555
 7294POPC   C2B24368  28.143   5.208   8.255
 7294POPC   C3B24369  28.123   5.250   7.955
 7294POPC   C4B24370  28.098   5.232   7.655
 7295POPC   NC324371  27.572  12.039   9.455
 7295POPC   PO424372  27.584  12.053   9.155
 7295POPC   GL124373  27.562  12.030   8.855
 7295POPC   GL224374  27.481  12.141   8.855
 7295POPC   C1A24375  27.614  12.078   8.555
 7295POPC   D2A24376  27.583  12.105   8.255
 7295POPC   C3A24377  27.591  12.120   7.955
 7295POPC   C4A24378  27.608  12.116   7.655
 7295POPC   C1B24379  27.437  12.298   8.555
 7295POPC   C2B24380  27.404  12.256   8.255
 7295POPC   C3B24381  27.441  12.248   7.955
 7295POPC   C4B24382  27.412  12.288   7.655
 7296POPC   NC324383  41.520   1.961   9.455
 7296POPC   PO424384  41.557   1.961   9.155
 7296POPC   GL124385  41.607   2.012   8.855
 7296POPC   GL224386  41.537   1.858   8.855
 7296POPC   C1A24387  41.564   2.002   8.555
 7296POPC   D2A24388  41.552   1.954   8.255
 7296POPC   C3A24389  41.582   2.006   7.955
 7296POPC   C4A24390  41.568   1.957   7.655
 7296POPC   C1B24391  41.542   1.715   8.555
 7296POPC   C2B24392  41.575   1.779   8.255
 7296POPC   C3B24393  41.565   1.751   7.955
 7296POPC   C4B24394  41.507   1.694   7.655
 7297POPC   NC324395  34.549  32.296   9.455
 7297POPC   PO424396  34.555  32.278   9.155
 7297POPC   GL124397  34.567  32.290   8.855
 7297POPC   GL224398  34.703  32.236   8.855
 7297POPC   C1A24399  34.546  32.217   8.555
 7297POPC   D2A24400  34.573  32.214   8.255
 7297POPC   C3A24401  34.582  32.203   7.955
 7297POPC   C4A24402  34.599  32.246   7.655
 7297POPC   C1B24403  34.857  32.154   8.555
 7297POPC   C2B24404  34.796  32.176   8.255
 7297POPC   C3B24405  34.770  32.163   7.955
 7297POPC   C4B24406  34.842  32.154   7.655
 7298POPC   NC324407   5.090   1.991   9.455
 7298POPC   PO424408   5.082   2.010   9.155
 7298POPC   GL124409   5.128   2.004   8.855
 7298POPC   GL224410   5.015   2.000   8.855
 7298POPC   C1A24411   5.075   2.034   8.555
 7298POPC   D2A24412   5.059   1.947   8.255
 7298POPC   C3A24413   5.131   1.965   7.955
 7298POPC   C4A24414   5.106   2.000   7.655
 7298POPC   C1B24415   4.809   2.039   8.555
 7298POPC   C2B24416   4.891   2.006   8.255
 7298POPC   C3B24417   4.835   2.000   7.955
 7298POPC   C4B24418   4.847   2.051   7.655
 7299POPC   NC324419   2.012  22.927   9.455
 7299POPC   PO424420   2.003  22.906   9.155
 7299POPC   GL124421   1.941  22.980   8.855
 7299POPC   GL224422   2.156  22.995   8.855
 7299POPC   C1A24423   2.013  22.959   8.555
 7299POPC   D2A24424   1.979  22.896   8.255
 7299POPC   C3A24425   1.995  22.896   7.955
 7299POPC   C4A24426   2.032  22.923   7.655
 7299POPC   C1B24427   2.235  22.983   8.555
 7299POPC   C2B24428   2.282  23.010   8.255
 7299POPC   C3B24429   2.278  22.941   7.955
 7299POPC   C4B24430   2.240  22.915   7.655
 7300POPC   NC324431  31.485  22.192   9.455
 7300POPC   PO424432  31.484  22.154   9.155
 7300POPC   GL124433  31.463  22.197   8.855
 7300POPC   GL224434  31.364  22.134   8.855
 7300POPC   C1A24435  31.476  22.190   8.555
 7300POPC   D2A24436  31.465  22.187   8.255
 7300POPC   C3A24437  31.509  22.169   7.955
 7300POPC   C4A24438  31.505  22.191   7.655
 7300POPC   C1B24439  31.211  22.038   8.555
 7300POPC   C2B24440  31.256  22.055   8.255
 7300POPC   C3B24441  31.298  22.070   7.955
 7300POPC   C4B24442  31.260  22.030   7.655
 7301POPC   NC324443  21.358  42.384   9.455
 7301POPC   PO424444  21.403  42.346   9.155
 7301POPC   GL124445  21.363  42.340   8.855
 7301POPC   GL224446  21.268  42.319   8.855
 7301POPC   C1A24447  21.361  42.311   8.555
 7301POPC   D2A24448  21.429  42.352   8.255
 7301POPC   C3A24449  21.402  42.378   7.955
 7301POPC   C4A24450  21.399  42.345   7.655
 7301POPC   C1B24451  21.216  42.206   8.555
 7301POPC   C2B24452  21.157  42.187   8.255
 7301POPC   C3B24453  21.144  42.228   7.955
 7301POPC   C4B24454  21.173  42.197   7.655
 7302POPC   NC324455  23.736   9.022   9.455
 7302POPC   PO424456  23.742   8.948   9.155
 7302POPC   GL124457  23.717   9.012   8.855
 7302POPC   GL224458  23.791   9.135   8.855
 7302POPC   C1A24459  23.705   8.999   8.555
 7302POPC   D2A24460  23.673   8.927   8.255
 7302POPC   C3A24461  23.735   8.991   7.955
 7302POPC   C4A24462  23.755   8.967   7.655
 7302POPC   C1B24463  23.828   9.156   8.555
 7302POPC   C2B24464  23.858   9.232   8.255
 7302POPC   C3B24465  23.857   9.237   7.955
 7302POPC   C4B24466  23.782   9.210   7.655
 7303POPC   NC324467  12.859  25.255   9.455
 7303POPC   PO424468  12.806  25.264   9.155
 7303POPC   GL124469  12.851  25.219   8.855
 7303POPC   GL224470  12.759  25.155   8.855
 7303POPC   C1A24471  12.827  25.300   8.555
 7303POPC   D2A24472  12.811  25.295   8.255
 7303POPC   C3A24473  12.852  25.231   7.955
 7303POPC   C4A24474  12.854  25.260   7.655
 7303POPC   C1B24475  12.621  25.064   8.555
 7303POPC   C2B24476  12.659  25.129   8.255
 7303POPC   C3B24477  12.666  25.132   7.955
 7303POPC   C4B24478  12.632  25.115   7.655
 7304POPC   NC324479  41.607   1.262   9.455
 7304POPC   PO424480  41.569   1.198   9.155
 7304POPC   GL124481  41.578   1.181   8.855
 7304POPC   GL224482  41.527   1.058   8.855
 7304POPC   C1A24483  41.511   1.186   8.555
 7304POPC   D2A24484  41.549   1.260   8.255
 7304POPC   C3A24485  41.537   1.227   7.955
 7304POPC   C4A24486  41.606   1.200   7.655
 7304POPC   C1B24487  41.490   0.979   8.555
 7304POPC   C2B24488  41.448   0.954   8.255
 7304POPC   C3B24489  41.430   1.033   7.955
 7304POPC   C4B24490  41.410   0.946   7.655
 7305POPC   NC324491  29.153  33.777   9.455
 7305POPC   PO424492  29.191  33.752   9.155
 7305POPC   GL124493  29.183  33.782   8.855
 7305POPC   GL224494  29.241  33.743   8.855
 7305POPC   C1A24495  29.128  33.755   8.555
 7305POPC   D2A24496  29.151  33.790   8.255
 7305POPC   C3A24497  29.142  33.771   7.955
 7305POPC   C4A24498  29.167  33.775   7.655
 7305POPC   C1B24499  29.320  33.690   8.555
 7305POPC   C2B24500  29.372  33.698   8.255
 7305POPC   C3B24501  29.314  33.668   7.955
 7305POPC   C4B24502  29.314  33.666   7.655
 7306POPC   NC324503  29.107  21.389   9.455
 7306POPC   PO424504  29.189  21.397   9.155
 7306POPC   GL124505  29.193  21.368   8.855
 7306POPC   GL224506  29.239  21.460   8.855
 7306POPC   C1A24507  29.155  21.396   8.555
 7306POPC   D2A24508  29.114  21.402   8.255
 7306POPC   C3A24509  29.126  21.398   7.955
 7306POPC   C4A24510  29.124  21.429   7.655
 7306POPC   C1B24511  29.334  21.598   8.555
 7306POPC   C2B24512  29.363  21.556   8.255
 7306POPC   C3B24513  29.286  21.559   7.955
 7306POPC   C4B24514  29.319  21.557   7.655
 7307POPC   NC324515  44.710  23.684   9.455
 7307POPC   PO424516  44.667  23.757   9.155
 7307POPC   GL124517  44.635  23.719   8.855
 7307POPC   GL224518  44.733  23.847   8.855
 7307POPC   C1A24519  44.660  23.704   8.555
 7307POPC   D2A24520  44.683  23.746   8.255
 7307POPC   C3A24521  44.685  23.760   7.955
 7307POPC   C4A24522  44.621  23.689   7.655
 7307POPC   C1B24523  44.773  23.915   8.555
 7307POPC   C2B24524  44.783  23.918   8.255
 7307POPC   C3B24525  44.755  23.888   7.955
 7307POPC   C4B24526  44.836  23.946   7.655
 7308POPC   NC324527  33.845   0.415   9.455
 7308POPC   PO424528  33.779   0.431   9.155
 7308POPC   GL124529  33.830   0.478   8.855
 7308POPC   GL224530  33.786   0.345   8.855
 7308POPC   C1A24531  33.847   0.417   8.555
 7308POPC   D2A24532  33.765   0.480   8.255
 7308POPC   C3A24533  33.811   0.454   7.955
 7308POPC   C4A24534  33.766   0.413   7.655
 7308POPC   C1B24535  33.714   0.209   8.555
 7308POPC   C2B24536  33.775   0.221   8.255
 7308POPC   C3B24537  33.697   0.213   7.955
 7308POPC   C4B24538  33.761   0.175   7.655
 7309POPC   NC324539   9.798  21.410   9.455
 7309POPC   PO424540   9.798  21.429   9.155
 7309POPC   GL124541   9.793  21.424   8.855
 7309POPC   GL224542   9.866  21.413   8.855
 7309POPC   C1A24543   9.754  21.398   8.555
 7309POPC   D2A24544   9.765  21.353   8.255
 7309POPC   C3A24545   9.760  21.433   7.955
 7309POPC   C4A24546   9.780  21.348   7.655
 7309POPC   C1B24547   9.981  21.377   8.555
 7309POPC   C2B24548   9.983  21.380   8.255
 7309POPC   C3B24549  10.011  21.437   7.955
 7309POPC   C4B24550   9.957  21.367   7.655
 7310POPC   NC324551  15.204   5.140   9.455
 7310POPC   PO424552  15.147   5.104   9.155
 7310POPC   GL124553  15.216   5.129   8.855
 7310POPC   GL224554  15.158   4.942   8.855
 7310POPC   C1A24555  15.206   5.123   8.555
 7310POPC   D2A24556  15.169   5.111   8.255
 7310POPC   C3A24557  15.167   5.055   7.955
 7310POPC   C4A24558  15.144   5.082   7.655
 7310POPC   C1B24559  15.116   4.891   8.555
 7310POPC   C2B24560  15.063   4.890   8.255
 7310POPC   C3B24561  15.110   4.831   7.955
 7310POPC   C4B24562  15.057   4.817   7.655
 7311POPC   NC324563  29.896   1.984   9.455
 7311POPC   PO424564  29.916   2.039   9.155
 7311POPC   GL124565  29.931   1.981   8.855
 7311POPC   GL224566  30.028   2.098   8.855
 7311POPC   C1A24567  29.925   2.023   8.555
 7311POPC   D2A24568  29.956   1.969   8.255
 7311POPC   C3A24569  29.959   2.000   7.955
 7311POPC   C4A24570  29.921   1.958   7.655
 7311POPC   C1B24571  30.108   2.192   8.555
 7311POPC   C2B24572  30.110   2.137   8.255
 7311POPC   C3B24573  30.097   2.143   7.955
 7311POPC   C4B24574  30.104   2.135   7.655
 7312POPC   NC324575  29.101  38.478   9.455
 7312POPC   PO424576  29.161  38.491   9.155
 7312POPC   GL124577  29.101  38.486   8.855
 7312POPC   GL224578  29.159  38.569   8.855
 7312POPC   C1A24579  29.129  38.418   8.555
 7312POPC   D2A24580  29.113  38.486   8.255
 7312POPC   C3A24581  29.170  38.423   7.955
 7312POPC   C4A24582  29.163  38.481   7.655
 7312POPC   C1B24583  29.231  38.662   8.555
 7312POPC   C2B24584  29.237  38.692   8.255
 7312POPC   C3B24585  29.164  38.653   7.955
 7312POPC   C4B24586  29.193  38.674   7.655
 7313POPC   NC324587  32.231  11.308   9.455
 7313POPC   PO424588  32.286  11.293   9.155
 7313POPC   GL124589  32.280  11.306   8.855
 7313POPC   GL224590  32.148  11.243   8.855
 7313POPC   C1A24591  32.279  11.348   8.555
 7313POPC   D2A24592  32.221  11.267   8.255
 7313POPC   C3A24593  32.257  11.273   7.955
 7313POPC   C4A24594  32.221  11.305   7.655
 7313POPC   C1B24595  32.043  11.280   8.555
 7313POPC   C2B24596  31.981  11.194   8.255
 7313POPC   C3B24597  31.995  11.259   7.955
 7313POPC   C4B24598  31.997  11.259   7.655
 7314POPC   NC324599  22.965  27.587   9.455
 7314POPC   PO424600  22.980  27.573   9.155
 7314POPC   GL124601  22.942  27.605   8.855
 7314POPC   GL224602  23.057  27.630   8.855
 7314POPC   C1A24603  22.952  27.565   8.555
 7314POPC   D2A24604  22.959  27.544   8.255
 7314POPC   C3A24605  22.928  27.609   7.955
 7314POPC   C4A24606  22.922  27.552   7.655
 7314POPC   C1B24607  23.211  27.682   8.555
 7314POPC   C2B24608  23.184  27.681   8.255
 7314POPC   C3B24609  23.171  27.704   7.955
 7314POPC   C4B24610  23.199  27.648   7.655
 7315POPC   NC324611  36.164  42.361   9.455
 7315POPC   PO424612  36.158  42.316   9.155
 7315POPC   GL124613  36.161  42.366   8.855
 7315POPC   GL224614  36.224  42.312   8.855
 7315POPC   C1A24615  36.132  42.307   8.555
 7315POPC   D2A24616  36.121  42.292   8.255
 7315POPC   C3A24617  36.102  42.347   7.955
 7315POPC   C4A24618  36.089  42.377   7.655
 7315POPC   C1B24619  36.374  42.204   8.555
 7315POPC   C2B24620  36.352  42.259   8.255
 7315POPC   C3B24621  36.321  42.258   7.955
 7315POPC   C4B24622  36.316  42.237   7.655
 7316POPC   NC324623  18.314  40.823   9.455
 7316POPC   PO424624  18.326  40.829   9.155
 7316POPC   GL124625  18.271  40.824   8.855
 7316POPC   GL224626  18.365  40.694   8.855
 7316POPC   C1A24627  18.313  40.785   8.555
 7316POPC   D2A24628  18.315  40.831   8.255
 7316POPC   C3A24629  18.235  40.821   7.955
 7316POPC   C4A24630  18.279  40.752   7.655
 7316POPC   C1B24631  18.423  40.536   8.555
 7316POPC   C2B24632  18.389  40.517   8.255
 7316POPC   C3B24633  18.341  40.522   7.955
 7316POPC   C4B24634  18.417  40.507   7.655
 7317POPC   NC324635  15.201  18.310   9.455
 7317POPC   PO424636  15.183  18.292   9.155
 7317POPC   GL124637  15.202  18.234   8.855
 7317POPC   GL224638  15.147  18.391   8.855
 7317POPC   C1A24639  15.167  18.271   8.555
 7317POPC   D2A24640  15.201  18.297   8.255
 7317POPC   C3A24641  15.199  18.247   7.955
 7317POPC   C4A24642  15.175  18.277   7.655
 7317POPC   C1B24643  15.082  18.476   8.555
 7317POPC   C2B24644  15.075  18.500   8.255
 7317POPC   C3B24645  15.054  18.523   7.955
 7317POPC   C4B24646  15.061  18.467   7.655
 7318POPC   NC324647  22.117  27.544   9.455
 7318POPC   PO424648  22.112  27.631   9.155
 7318POPC   GL124649  22.195  27.569   8.855
 7318POPC   GL224650  22.085  27.603   8.855
 7318POPC   C1A24651  22.119  27.599   8.555
 7318POPC   D2A24652  22.146  27.618   8.255
 7318POPC   C3A24653  22.139  27.600   7.955
 7318POPC   C4A24654  22.200  27.605   7.655
 7318POPC   C1B24655  21.924  27.597   8.555
 7318POPC   C2B24656  21.959  27.539   8.255
 7318POPC   C3B24657  21.911  27.522   7.955
 7318POPC   C4B24658  21.888  27.603   7.655
 7319POPC   NC324659   9.732  38.428   9.455
 7319POPC   PO424660   9.778  38.505   9.155
 7319POPC   GL124661   9.758  38.466   8.855
 7319POPC   GL224662   9.717  38.368   8.855
 7319POPC   C1A24663   9.753  38.483   8.555
 7319POPC   D2A24664   9.753  38.489   8.255
 7319POPC   C3A24665   9.756  38.455   7.955
 7319POPC   C4A24666   9.719  38.490   7.655
 7319POPC   C1B24667   9.658  38.218   8.555
 7319POPC   C2B24668   9.649  38.251   8.255
 7319POPC   C3B24669   9.619  38.193   7.955
 7319POPC   C4B24670   9.593  38.232   7.655
 7320POPC   NC324671  26.042   6.604   9.455
 7320POPC   PO424672  26.074   6.607   9.155
 7320POPC   GL124673  26.018   6.644   8.855
 7320POPC   GL224674  25.989   6.608   8.855
 7320POPC   C1A24675  26.058   6.635   8.555
 7320POPC   D2A24676  26.010   6.620   8.255
 7320POPC   C3A24677  25.993   6.595   7.955
 7320POPC   C4A24678  26.035   6.604   7.655
 7320POPC   C1B24679  25.832   6.510   8.555
 7320POPC   C2B24680  25.870   6.527   8.255
 7320POPC   C3B24681  25.820   6.488   7.955
 7320POPC   C4B24682  25.817   6.529   7.655
 7321POPC   NC324683  18.251  12.861   9.455
 7321POPC   PO424684  18.258  12.853   9.155
 7321POPC   GL124685  18.274  12.851   8.855
 7321POPC   GL224686  18.309  12.968   8.855
 7321POPC   C1A24687  18.257  12.875   8.555
 7321POPC   D2A24688  18.252  12.864   8.255
 7321POPC   C3A24689  18.252  12.835   7.955
 7321POPC   C4A24690  18.327  12.864   7.655
 7321POPC   C1B24691  18.381  13.071   8.555
 7321POPC   C2B24692  18.303  13.059   8.255
 7321POPC   C3B24693  18.382  13.108   7.955
 7321POPC   C4B24694  18.354  13.068   7.655
 7322POPC   NC324695   8.996  33.029   9.455
 7322POPC   PO424696   9.008  33.016   9.155
 7322POPC   GL124697   9.007  32.977   8.855
 7322POPC   GL224698   9.076  33.052   8.855
 7322POPC   C1A24699   9.004  33.036   8.555
 7322POPC   D2A24700   8.998  33.057   8.255
 7322POPC   C3A24701   8.944  33.044   7.955
 7322POPC   C4A24702   8.998  33.026   7.655
 7322POPC   C1B24703   9.148  33.224   8.555
 7322POPC   C2B24704   9.210  33.163   8.255
 7322POPC   C3B24705   9.136  33.178   7.955
 7322POPC   C4B24706   9.220  33.164   7.655
 7323POPC   NC324707  39.274  17.474   9.455
 7323POPC   PO424708  39.219  17.518   9.155
 7323POPC   GL124709  39.233  17.473   8.855
 7323POPC   GL224710  39.066  17.502   8.855
 7323POPC   C1A24711  39.212  17.519   8.555
 7323POPC   D2A24712  39.250  17.494   8.255
 7323POPC   C3A24713  39.222  17.520   7.955
 7323POPC   C4A24714  39.240  17.478   7.655
 7323POPC   C1B24715  38.976  17.482   8.555
 7323POPC   C2B24716  38.942  17.435   8.255
 7323POPC   C3B24717  39.034  17.433   7.955
 7323POPC   C4B24718  38.957  17.450   7.655
 7324POPC   NC324719  43.843   2.726   9.455
 7324POPC   PO424720  43.923   2.721   9.155
 7324POPC   GL124721  43.930   2.734   8.855
 7324POPC   GL224722  43.784   2.855   8.855
 7324POPC   C1A24723  43.839   2.761   8.555
 7324POPC   D2A24724  43.894   2.722   8.255
 7324POPC   C3A24725  43.847   2.778   7.955
 7324POPC   C4A24726  43.853   2.787   7.655
 7324POPC   C1B24727  43.707   2.902   8.555
 7324POPC   C2B24728  43.632   2.926   8.255
 7324POPC   C3B24729  43.693   2.899   7.955
 7324POPC   C4B24730  43.651   2.893   7.655
 7325POPC   NC324731  16.000  40.799   9.455
 7325POPC   PO424732  15.966  40.758   9.155
 7325POPC   GL124733  16.001  40.738   8.855
 7325POPC   GL224734  16.004  40.641   8.855
 7325POPC   C1A24735  15.952  40.789   8.555
 7325POPC   D2A24736  15.940  40.767   8.255
 7325POPC   C3A24737  15.958  40.762   7.955
 7325POPC   C4A24738  15.954  40.757   7.655
 7325POPC   C1B24739  16.030  40.564   8.555
 7325POPC   C2B24740  15.995  40.515   8.255
 7325POPC   C3B24741  16.033  40.580   7.955
 7325POPC   C4B24742  16.049  40.545   7.655
 7326POPC   NC324743  35.319  36.948   9.455
 7326POPC   PO424744  35.308  36.904   9.155
 7326POPC   GL124745  35.359  36.948   8.855
 7326POPC   GL224746  35.310  37.046   8.855
 7326POPC   C1A24747  35.335  36.900   8.555
 7326POPC   D2A24748  35.357  36.922   8.255
 7326POPC   C3A24749  35.307  36.913   7.955
 7326POPC   C4A24750  35.379  36.883   7.655
 7326POPC   C1B24751  35.279  37.173   8.555
 7326POPC   C2B24752  35.305  37.135   8.255
 7326POPC   C3B24753  35.315  37.100   7.955
 7326POPC   C4B24754  35.267  37.120   7.655
 7327POPC   NC324755  22.155   6.636   9.455
 7327POPC   PO424756  22.133   6.649   9.155
 7327POPC   GL124757  22.199   6.605   8.855
 7327POPC   GL224758  22.216   6.734   8.855
 7327POPC   C1A24759  22.134   6.695   8.555
 7327POPC   D2A24760  22.151   6.669   8.255
 7327POPC   C3A24761  22.131   6.676   7.955
 7327POPC   C4A24762  22.177   6.644   7.655
 7327POPC   C1B24763  22.231   6.873   8.555
 7327POPC   C2B24764  22.305   6.924   8.255
 7327POPC   C3B24765  22.277   6.886   7.955
 7327POPC   C4B24766  22.226   6.901   7.655
 7328POPC   NC324767  37.729  44.651   9.455
 7328POPC   PO424768  37.638  44.702   9.155
 7328POPC   GL124769  37.727  44.618   8.855
 7328POPC   GL224770  37.775  44.658   8.855
 7328POPC   C1A24771  37.634  44.703   8.555
 7328POPC   D2A24772  37.680  44.656   8.255
 7328POPC   C3A24773  37.718  44.699   7.955
 7328POPC   C4A24774  37.678  44.686   7.655
 7328POPC   C1B24775  37.944  44.675   8.555
 7328POPC   C2B24776  37.929  44.644   8.255
 7328POPC   C3B24777  37.955  44.595   7.955
 7328POPC   C4B24778  37.923  44.602   7.655
 7329POPC   NC324779  17.550  32.264   9.455
 7329POPC   PO424780  17.542  32.215   9.155
 7329POPC   GL124781  17.527  32.273   8.855
 7329POPC   GL224782  17.432  32.213   8.855
 7329POPC   C1A24783  17.465  32.284   8.555
 7329POPC   D2A24784  17.535  32.273   8.255
 7329POPC   C3A24785  17.535  32.224   7.955
 7329POPC   C4A24786  17.527  32.253   7.655
 7329POPC   C1B24787  17.312  32.096   8.555
 7329POPC   C2B24788  17.278  32.080   8.255
 7329POPC   C3B24789  17.294  32.080   7.955
 7329POPC   C4B24790  17.319  32.104   7.655
 7330POPC   NC324791  26.776  26.853   9.455
 7330POPC   PO424792  26.801  26.798   9.155
 7330POPC   GL124793  26.849  26.778   8.855
 7330POPC   GL224794  26.744  26.753   8.855
 7330POPC   C1A24795  26.852  26.840   8.555
 7330POPC   D2A24796  26.799  26.844   8.255
 7330POPC   C3A24797  26.847  26.788   7.955
 7330POPC   C4A24798  26.826  26.775   7.655
 7330POPC   C1B24799  26.590  26.708   8.555
 7330POPC   C2B24800  26.646  26.671   8.255
 7330POPC   C3B24801  26.657  26.642   7.955
 7330POPC   C4B24802  26.595  26.641   7.655
 7331POPC   NC324803  17.502  31.478   9.455
 7331POPC   PO424804  17.463  31.461   9.155
 7331POPC   GL124805  17.553  31.477   8.855
 7331POPC   GL224806  17.649  31.501   8.855
 7331POPC   C1A24807  17.554  31.428   8.555
 7331POPC   D2A24808  17.530  31.462   8.255
 7331POPC   C3A24809  17.480  31.495   7.955
 7331POPC   C4A24810  17.461  31.430   7.655
 7331POPC   C1B24811  17.780  31.390   8.555
 7331POPC   C2B24812  17.775  31.461   8.255
 7331POPC   C3B24813  17.785  31.427   7.955
 7331POPC   C4B24814  17.723  31.457   7.655
 7332POPC   NC324815  28.375  33.754   9.455
 7332POPC   PO424816  28.414  33.814   9.155
 7332POPC   GL124817  28.325  33.849   8.855
 7332POPC   GL224818  28.489  33.880   8.855
 7332POPC   C1A24819  28.369  33.838   8.555
 7332POPC   D2A24820  28.399  33.790   8.255
 7332POPC   C3A24821  28.332  33.755   7.955
 7332POPC   C4A24822  28.374  33.789   7.655
 7332POPC   C1B24823  28.543  33.931   8.555
 7332POPC   C2B24824  28.565  33.897   8.255
 7332POPC   C3B24825  28.527  33.981   7.955
 7332POPC   C4B24826  28.582  33.936   7.655
 7333POPC   NC324827  15.944  21.423   9.455
 7333POPC   PO424828  15.935  21.341   9.155
 7333POPC   GL124829  15.978  21.412   8.855
 7333POPC   GL224830  16.068  21.248   8.855
 7333POPC   C1A24831  15.989  21.366   8.555
 7333POPC   D2A24832  15.907  21.387   8.255
 7333POPC   C3A24833  15.951  21.353   7.955
 7333POPC   C4A24834  15.906  21.416   7.655
 7333POPC   C1B24835  16.077  21.201   8.555
 7333POPC   C2B24836  16.104  21.147   8.255
 7333POPC   C3B24837  16.096  21.210   7.955
 7333POPC   C4B24838  16.051  21.203   7.655
 7334POPC   NC324839   2.032  25.292   9.455
 7334POPC   PO424840   1.970  25.298   9.155
 7334POPC   GL124841   1.984  25.293   8.855
 7334POPC   GL224842   2.115  25.350   8.855
 7334POPC   C1A24843   1.968  25.299   8.555
 7334POPC   D2A24844   1.970  25.296   8.255
 7334POPC   C3A24845   1.977  25.234   7.955
 7334POPC   C4A24846   1.969  25.242   7.655
 7334POPC   C1B24847   2.206  25.483   8.555
 7334POPC   C2B24848   2.159  25.428   8.255
 7334POPC   C3B24849   2.223  25.433   7.955
 7334POPC   C4B24850   2.213  25.473   7.655
 7335POPC   NC324851  14.375   0.425   9.455
 7335POPC   PO424852  14.435   0.389   9.155
 7335POPC   GL124853  14.383   0.416   8.855
 7335POPC   GL224854  14.577   0.398   8.855
 7335POPC   C1A24855  14.407   0.451   8.555
 7335POPC   D2A24856  14.389   0.389   8.255
 7335POPC   C3A24857  14.380   0.437   7.955
 7335POPC   C4A24858  14.452   0.400   7.655
 7335POPC   C1B24859  14.643   0.415   8.555
 7335POPC   C2B24860  14.702   0.399   8.255
 7335POPC   C3B24861  14.660   0.424   7.955
 7335POPC   C4B24862  14.681   0.460   7.655
 7336POPC   NC324863  27.584  23.707   9.455
 7336POPC   PO424864  27.616  23.738   9.155
 7336POPC   GL124865  27.546  23.752   8.855
 7336POPC   GL224866  27.686  23.802   8.855
 7336POPC   C1A24867  27.643  23.696   8.555
 7336POPC   D2A24868  27.553  23.674   8.255
 7336POPC   C3A24869  27.545  23.728   7.955
 7336POPC   C4A24870  27.578  23.682   7.655
 7336POPC   C1B24871  27.825  23.836   8.555
 7336POPC   C2B24872  27.775  23.842   8.255
 7336POPC   C3B24873  27.812  23.844   7.955
 7336POPC   C4B24874  27.799  23.832   7.655
 7337POPC   NC324875  38.468  31.464   9.455
 7337POPC   PO424876  38.485  31.477   9.155
 7337POPC   GL124877  38.411  31.456   8.855
 7337POPC   GL224878  38.450  31.361   8.855
 7337POPC   C1A24879  38.461  31.483   8.555
 7337POPC   D2A24880  38.479  31.496   8.255
 7337POPC   C3A24881  38.461  31.506   7.955
 7337POPC   C4A24882  38.470  31.464   7.655
 7337POPC   C1B24883  38.453  31.266   8.555
 7337POPC   C2B24884  38.469  31.187   8.255
 7337POPC   C3B24885  38.516  31.214   7.955
 7337POPC   C4B24886  38.441  31.177   7.655
 7338POPC   NC324887  38.405  18.248   9.455
 7338POPC   PO424888  38.428  18.237   9.155
 7338POPC   GL124889  38.424  18.276   8.855
 7338POPC   GL224890  38.373  18.364   8.855
 7338POPC   C1A24891  38.502  18.306   8.555
 7338POPC   D2A24892  38.418  18.309   8.255
 7338POPC   C3A24893  38.451  18.317   7.955
 7338POPC   C4A24894  38.494  18.277   7.655
 7338POPC   C1B24895  38.257  18.423   8.555
 7338POPC   C2B24896  38.234  18.391   8.255
 7338POPC   C3B24897  38.253  18.409   7.955
 7338POPC   C4B24898  38.262  18.375   7.655
 7339POPC   NC324899  39.963   8.944   9.455
 7339POPC   PO424900  40.015   8.950   9.155
 7339POPC   GL124901  40.013   8.939   8.855
 7339POPC   GL224902  40.090   9.014   8.855
 7339POPC   C1A24903  40.018   9.021   8.555
 7339POPC   D2A24904  39.982   8.931   8.255
 7339POPC   C3A24905  40.055   8.994   7.955
 7339POPC   C4A24906  39.972   8.966   7.655
 7339POPC   C1B24907  40.209   9.175   8.555
 7339POPC   C2B24908  40.224   9.117   8.255
 7339POPC   C3B24909  40.208   9.179   7.955
 7339POPC   C4B24910  40.212   9.130   7.655
 7340POPC   NC324911  40.024  36.148   9.455
 7340POPC   PO424912  39.989  36.125   9.155
 7340POPC   GL124913  40.002  36.137   8.855
 7340POPC   GL224914  40.099  36.248   8.855
 7340POPC   C1A24915  40.027  36.084   8.555
 7340POPC   D2A24916  39.990  36.100   8.255
 7340POPC   C3A24917  39.967  36.082   7.955
 7340POPC   C4A24918  40.019  36.137   7.655
 7340POPC   C1B24919  40.203  36.347   8.555
 7340POPC   C2B24920  40.121  36.339   8.255
 7340POPC   C3B24921  40.150  36.360   7.955
 7340POPC   C4B24922  40.205  36.306   7.655
 7341POPC   NC324923  35.312   5.121   9.455
 7341POPC   PO424924  35.373   5.143   9.155
 7341POPC   GL124925  35.374   5.139   8.855
 7341POPC   GL224926  35.303   5.226   8.855
 7341POPC   C1A24927  35.346   5.142   8.555
 7341POPC   D2A24928  35.317   5.138   8.255
 7341POPC   C3A24929  35.349   5.072   7.955
 7341POPC   C4A24930  35.375   5.124   7.655
 7341POPC   C1B24931  35.250   5.373   8.555
 7341POPC   C2B24932  35.319   5.320   8.255
 7341POPC   C3B24933  35.330   5.328   7.955
 7341POPC   C4B24934  35.284   5.301   7.655
 7342POPC   NC324935  27.638  19.080   9.455
 7342POPC   PO424936  27.571  19.096   9.155
 7342POPC   GL124937  27.626  19.072   8.855
 7342POPC   GL224938  27.521  18.984   8.855
 7342POPC   C1A24939  27.548  19.074   8.555
 7342POPC   D2A24940  27.598  19.063   8.255
 7342POPC   C3A24941  27.608  19.075   7.955
 7342POPC   C4A24942  27.556  19.108   7.655
 7342POPC   C1B24943  27.429  18.890   8.555
 7342POPC   C2B24944  27.378  18.841   8.255
 7342POPC   C3B24945  27.421  18.834   7.955
 7342POPC   C4B24946  27.456  18.837   7.655
 7343POPC   NC324947   1.241  42.379   9.455
 7343POPC   PO424948   1.239  42.286   9.155
 7343POPC   GL124949   1.247  42.291   8.855
 7343POPC   GL224950   1.300  42.404   8.855
 7343POPC   C1A24951   1.236  42.326   8.555
 7343POPC   D2A24952   1.229  42.331   8.255
 7343POPC   C3A24953   1.216  42.339   7.955
 7343POPC   C4A24954   1.214  42.286   7.655
 7343POPC   C1B24955   1.464  42.483   8.555
 7343POPC   C2B24956   1.444  42.500   8.255
 7343POPC   C3B24957   1.412  42.482   7.955
 7343POPC   C4B24958   1.435  42.505   7.655
 7344POPC   NC324959   4.318  12.082   9.455
 7344POPC   PO424960   4.307  12.122   9.155
 7344POPC   GL124961   4.302  12.072   8.855
 7344POPC   GL224962   4.435  11.966   8.855
 7344POPC   C1A24963   4.366  12.103   8.555
 7344POPC   D2A24964   4.312  12.045   8.255
 7344POPC   C3A24965   4.335  12.089   7.955
 7344POPC   C4A24966   4.279  12.063   7.655
 7344POPC   C1B24967   4.500  11.960   8.555
 7344POPC   C2B24968   4.536  11.899   8.255
 7344POPC   C3B24969   4.519  11.930   7.955
 7344POPC   C4B24970   4.555  11.933   7.655
 7345POPC   NC324971   4.276  33.041   9.455
 7345POPC   PO424972   4.315  32.992   9.155
 7345POPC   GL124973   4.341  32.984   8.855
 7345POPC   GL224974   4.438  33.040   8.855
 7345POPC   C1A24975   4.272  33.018   8.555
 7345POPC   D2A24976   4.356  33.046   8.255
 7345POPC   C3A24977   4.338  32.995   7.955
 7345POPC   C4A24978   4.347  33.040   7.655
 7345POPC   C1B24979   4.501  33.151   8.555
 7345POPC   C2B24980   4.569  33.191   8.255
 7345POPC   C3B24981   4.522  33.132   7.955
 7345POPC   C4B24982   4.582  33.130   7.655
 7346POPC   NC324983  19.066  43.157   9.455
 7346POPC   PO424984  19.066  43.088   9.155
 7346POPC   GL124985  19.058  43.133   8.855
 7346POPC   GL224986  19.031  43.034   8.855
 7346POPC   C1A24987  19.096  43.118   8.555
 7346POPC   D2A24988  19.075  43.132   8.255
 7346POPC   C3A24989  19.031  43.132   7.955
 7346POPC   C4A24990  19.017  43.118   7.655
 7346POPC   C1B24991  19.010  42.863   8.555
 7346POPC   C2B24992  19.048  42.893   8.255
 7346POPC   C3B24993  19.102  42.882   7.955
 7346POPC   C4B24994  19.082  42.873   7.655
 7347POPC   NC324995  44.677  26.770   9.455
 7347POPC   PO424996  44.624  26.799   9.155
 7347POPC   GL124997  44.629  26.823   8.855
 7347POPC   GL224998  44.664  26.732   8.855
 7347POPC   C1A24999  44.626  26.849   8.555
 7347POPC   D2A25000  44.674  26.827   8.255
 7347POPC   C3A25001  44.712  26.866   7.955
 7347POPC   C4A25002  44.635  26.805   7.655
 7347POPC   C1B25003  44.732  26.603   8.555
 7347POPC   C2B25004  44.785  26.630   8.255
 7347POPC   C3B25005  44.759  26.592   7.955
 7347POPC   C4B25006  44.735  26.607   7.655
 7348POPC   NC325007  19.093   7.441   9.455
 7348POPC   PO425008  19.065   7.428   9.155
 7348POPC   GL125009  19.079   7.435   8.855
 7348POPC   GL225010  19.007   7.544   8.855
 7348POPC   C1A25011  19.036   7.429   8.555
 7348POPC   D2A25012  19.055   7.390   8.255
 7348POPC   C3A25013  19.076   7.378   7.955
 7348POPC   C4A25014  19.084   7.440   7.655
 7348POPC   C1B25015  18.949   7.638   8.555
 7348POPC   C2B25016  18.904   7.662   8.255
 7348POPC   C3B25017  18.902   7.610   7.955
 7348POPC   C4B25018  18.924   7.642   7.655
 7349POPC   NC325019  41.541  36.147   9.455
 7349POPC   PO425020  41.555  36.080   9.155
 7349POPC   GL125021  41.578  36.105   8.855
 7349POPC   GL225022  41.646  36.228   8.855
 7349POPC   C1A25023  41.533  36.145   8.555
 7349POPC   D2A25024  41.558  36.169   8.255
 7349POPC   C3A25025  41.524  36.156   7.955
 7349POPC   C4A25026  41.541  36.157   7.655
 7349POPC   C1B25027  41.755  36.292   8.555
 7349POPC   C2B25028  41.735  36.300   8.255
 7349POPC   C3B25029  41.742  36.305   7.955
 7349POPC   C4B25030  41.760  36.271   7.655
 7350POPC   NC325031  32.264  39.264   9.455
 7350POPC   PO425032  32.218  39.223   9.155
 7350POPC   GL125033  32.215  39.228   8.855
 7350POPC   GL225034  32.145  39.155   8.855
 7350POPC   C1A25035  32.242  39.265   8.555
 7350POPC   D2A25036  32.242  39.263   8.255
 7350POPC   C3A25037  32.261  39.250   7.955
 7350POPC   C4A25038  32.206  39.274   7.655
 7350POPC   C1B25039  32.102  39.094   8.555
 7350POPC   C2B25040  32.071  39.080   8.255
 7350POPC   C3B25041  32.068  39.042   7.955
 7350POPC   C4B25042  32.052  39.043   7.655
 7351POPC   NC325043  19.058  24.517   9.455
 7351POPC   PO425044  19.074  24.470   9.155
 7351POPC   GL125045  19.014  24.445   8.855
 7351POPC   GL225046  19.018  24.420   8.855
 7351POPC   C1A25047  19.079  24.523   8.555
 7351POPC   D2A25048  19.088  24.515   8.255
 7351POPC   C3A25049  19.100  24.465   7.955
 7351POPC   C4A25050  19.041  24.466   7.655
 7351POPC   C1B25051  18.927  24.299   8.555
 7351POPC   C2B25052  18.861  24.280   8.255
 7351POPC   C3B25053  18.876  24.348   7.955
 7351POPC   C4B25054  18.908  24.353   7.655
 7352POPC   NC325055   5.859   7.380   9.455
 7352POPC   PO425056   5.851   7.453   9.155
 7352POPC   GL125057   5.848   7.459   8.855
 7352POPC   GL225058   5.866   7.287   8.855
 7352POPC   C1A25059   5.853   7.422   8.555
 7352POPC   D2A25060   5.842   7.450   8.255
 7352POPC   C3A25061   5.854   7.390   7.955
 7352POPC   C4A25062   5.855   7.418   7.655
 7352POPC   C1B25063   5.796   7.207   8.555
 7352POPC   C2B25064   5.816   7.226   8.255
 7352POPC   C3B25065   5.785   7.217   7.955
 7352POPC   C4B25066   5.805   7.183   7.655
 7353POPC   NC325067  32.208  14.450   9.455
 7353POPC   PO425068  32.226  14.445   9.155
 7353POPC   GL125069  32.254  14.422   8.855
 7353POPC   GL225070  32.082  14.365   8.855
 7353POPC   C1A25071  32.279  14.367   8.555
 7353POPC   D2A25072  32.213  14.379   8.255
 7353POPC   C3A25073  32.253  14.379   7.955
 7353POPC   C4A25074  32.286  14.445   7.655
 7353POPC   C1B25075  32.032  14.393   8.555
 7353POPC   C2B25076  31.951  14.393   8.255
 7353POPC   C3B25077  32.004  14.436   7.955
 7353POPC   C4B25078  31.958  14.390   7.655
 7354POPC   NC325079  26.067  43.153   9.455
 7354POPC   PO425080  26.072  43.109   9.155
 7354POPC   GL125081  26.018  43.116   8.855
 7354POPC   GL225082  25.895  43.173   8.855
 7354POPC   C1A25083  25.997  43.131   8.555
 7354POPC   D2A25084  26.090  43.151   8.255
 7354POPC   C3A25085  26.049  43.128   7.955
 7354POPC   C4A25086  26.075  43.153   7.655
 7354POPC   C1B25087  25.804  43.140   8.555
 7354POPC   C2B25088  25.757  43.176   8.255
 7354POPC   C3B25089  25.825  43.129   7.955
 7354POPC   C4B25090  25.839  43.134   7.655
 7355POPC   NC325091   0.479   9.001   9.455
 7355POPC   PO425092   0.390   8.973   9.155
 7355POPC   GL125093   0.481   9.014   8.855
 7355POPC   GL225094   0.276   8.956   8.855
 7355POPC   C1A25095   0.461   8.974   8.555
 7355POPC   D2A25096   0.409   8.925   8.255
 7355POPC   C3A25097   0.401   8.951   7.955
 7355POPC   C4A25098   0.443   8.942   7.655
 7355POPC   C1B25099   0.226   8.948   8.555
 7355POPC   C2B25100   0.190   8.916   8.255
 7355POPC   C3B25101   0.152   8.988   7.955
 7355POPC   C4B25102   0.234   8.952   7.655
 7356POPC   NC325103  19.074  11.253   9.455
 7356POPC   PO425104  19.047  11.264   9.155
 7356POPC   GL125105  19.099  11.330   8.855
 7356POPC   GL225106  19.018  11.457   8.855
 7356POPC   C1A25107  19.076  11.322   8.555
 7356POPC   D2A25108  19.100  11.285   8.255
 7356POPC   C3A25109  19.098  11.307   7.955
 7356POPC   C4A25110  19.070  11.291   7.655
 7356POPC   C1B25111  18.978  11.498   8.555
 7356POPC   C2B25112  19.049  11.593   8.255
 7356POPC   C3B25113  19.028  11.555   7.955
 7356POPC   C4B25114  19.056  11.546   7.655
 7357POPC   NC325115  41.591  36.933   9.455
 7357POPC   PO425116  41.572  36.922   9.155
 7357POPC   GL125117  41.571  36.916   8.855
 7357POPC   GL225118  41.553  37.028   8.855
 7357POPC   C1A25119  41.598  36.884   8.555
 7357POPC   D2A25120  41.560  36.926   8.255
 7357POPC   C3A25121  41.569  36.900   7.955
 7357POPC   C4A25122  41.546  36.937   7.655
 7357POPC   C1B25123  41.512  37.122   8.555
 7357POPC   C2B25124  41.536  37.166   8.255
 7357POPC   C3B25125  41.479  37.106   7.955
 7357POPC   C4B25126  41.559  37.196   7.655
 7358POPC   NC325127  12.078  22.154   9.455
 7358POPC   PO425128  12.089  22.207   9.155
 7358POPC   GL125129  12.087  22.142   8.855
 7358POPC   GL225130  12.053  22.324   8.855
 7358POPC   C1A25131  12.085  22.196   8.555
 7358POPC   D2A25132  12.036  22.183   8.255
 7358POPC   C3A25133  12.099  22.195   7.955
 7358POPC   C4A25134  12.050  22.126   7.655
 7358POPC   C1B25135  11.966  22.410   8.555
 7358POPC   C2B25136  11.983  22.348   8.255
 7358POPC   C3B25137  11.947  22.437   7.955
 7358POPC   C4B25138  12.017  22.404   7.655
 7359POPC   NC325139  35.386  25.241   9.455
 7359POPC   PO425140  35.317  25.238   9.155
 7359POPC   GL125141  35.342  25.268   8.855
 7359POPC   GL225142  35.355  25.185   8.855
 7359POPC   C1A25143  35.383  25.302   8.555
 7359POPC   D2A25144  35.398  25.284   8.255
 7359POPC   C3A25145  35.344  25.266   7.955
 7359POPC   C4A25146  35.384  25.239   7.655
 7359POPC   C1B25147  35.355  25.012   8.555
 7359POPC   C2B25148  35.394  25.039   8.255
 7359POPC   C3B25149  35.362  25.003   7.955
 7359POPC   C4B25150  35.392  25.058   7.655
 7360POPC   NC325151   7.470   4.294   9.455
 7360POPC   PO425152   7.426   4.321   9.155
 7360POPC   GL125153   7.435   4.291   8.855
 7360POPC   GL225154   7.558   4.278   8.855
 7360POPC   C1A25155   7.428   4.335   8.555
 7360POPC   D2A25156   7.396   4.307   8.255
 7360POPC   C3A25157   7.461   4.312   7.955
 7360POPC   C4A25158   7.391   4.339   7.655
 7360POPC   C1B25159   7.628   4.188   8.555
 7360POPC   C2B25160   7.586   4.135   8.255
 7360POPC   C3B25161   7.634   4.212   7.955
 7360POPC   C4B25162   7.571   4.149   7.655
 7361POPC   NC325163   2.740  24.449   9.455
 7361POPC   PO425164   2.748  24.537   9.155
 7361POPC   GL125165   2.719  24.521   8.855
 7361POPC   GL225166   2.910  24.400   8.855
 7361POPC   C1A25167   2.781  24.473   8.555
 7361POPC   D2A25168   2.807  24.489   8.255
 7361POPC   C3A25169   2.718  24.470   7.955
 7361POPC   C4A25170   2.772  24.464   7.655
 7361POPC   C1B25171   2.946  24.411   8.555
 7361POPC   C2B25172   3.008  24.363   8.255
 7361POPC   C3B25173   2.951  24.423   7.955
 7361POPC   C4B25174   2.949  24.413   7.655
 7362POPC   NC325175  30.737  38.429   9.455
 7362POPC   PO425176  30.665  38.406   9.155
 7362POPC   GL125177  30.722  38.422   8.855
 7362POPC   GL225178  30.528  38.522   8.855
 7362POPC   C1A25179  30.743  38.494   8.555
 7362POPC   D2A25180  30.707  38.441   8.255
 7362POPC   C3A25181  30.716  38.488   7.955
 7362POPC   C4A25182  30.669  38.432   7.655
 7362POPC   C1B25183  30.409  38.497   8.555
 7362POPC   C2B25184  30.420  38.531   8.255
 7362POPC   C3B25185  30.414  38.534   7.955
 7362POPC   C4B25186  30.435  38.493   7.655
 7363POPC   NC325187  15.158  43.927   9.455
 7363POPC   PO425188  15.146  43.881   9.155
 7363POPC   GL125189  15.203  43.878   8.855
 7363POPC   GL225190  15.181  43.963   8.855
 7363POPC   C1A25191  15.131  43.866   8.555
 7363POPC   D2A25192  15.141  43.907   8.255
 7363POPC   C3A25193  15.216  43.925   7.955
 7363POPC   C4A25194  15.216  43.887   7.655
 7363POPC   C1B25195  15.316  44.153   8.555
 7363POPC   C2B25196  15.226  44.148   8.255
 7363POPC   C3B25197  15.240  44.102   7.955
 7363POPC   C4B25198  15.312  44.145   7.655
 7364POPC   NC325199   7.432  19.098   9.455
 7364POPC   PO425200   7.383  19.041   9.155
 7364POPC   GL125201   7.449  19.098   8.855
 7364POPC   GL225202   7.331  18.979   8.855
 7364POPC   C1A25203   7.389  19.061   8.555
 7364POPC   D2A25204   7.426  19.077   8.255
 7364POPC   C3A25205   7.374  19.025   7.955
 7364POPC   C4A25206   7.409  19.076   7.655
 7364POPC   C1B25207   7.257  18.810   8.555
 7364POPC   C2B25208   7.313  18.830   8.255
 7364POPC   C3B25209   7.246  18.894   7.955
 7364POPC   C4B25210   7.251  18.816   7.655
 7365POPC   NC325211  41.520  43.099   9.455
 7365POPC   PO425212  41.527  43.146   9.155
 7365POPC   GL125213  41.595  43.148   8.855
 7365POPC   GL225214  41.594  43.248   8.855
 7365POPC   C1A25215  41.533  43.108   8.555
 7365POPC   D2A25216  41.603  43.079   8.255
 7365POPC   C3A25217  41.534  43.122   7.955
 7365POPC   C4A25218  41.584  43.093   7.655
 7365POPC   C1B25219  41.611  43.316   8.555
 7365POPC   C2B25220  41.581  43.350   8.255
 7365POPC   C3B25221  41.585  43.352   7.955
 7365POPC   C4B25222  41.631  43.373   7.655
 7366POPC   NC325223   9.723  40.785   9.455
 7366POPC   PO425224   9.779  40.810   9.155
 7366POPC   GL125225   9.766  40.817   8.855
 7366POPC   GL225226   9.817  40.889   8.855
 7366POPC   C1A25227   9.769  40.821   8.555
 7366POPC   D2A25228   9.751  40.825   8.255
 7366POPC   C3A25229   9.700  40.753   7.955
 7366POPC   C4A25230   9.789  40.757   7.655
 7366POPC   C1B25231   9.901  41.012   8.555
 7366POPC   C2B25232   9.883  40.960   8.255
 7366POPC   C3B25233   9.928  40.957   7.955
 7366POPC   C4B25234   9.936  40.941   7.655
 7367POPC   NC325235  29.164  36.125   9.455
 7367POPC   PO425236  29.108  36.172   9.155
 7367POPC   GL125237  29.164  36.098   8.855
 7367POPC   GL225238  29.217  36.092   8.855
 7367POPC   C1A25239  29.133  36.165   8.555
 7367POPC   D2A25240  29.173  36.128   8.255
 7367POPC   C3A25241  29.113  36.176   7.955
 7367POPC   C4A25242  29.144  36.087   7.655
 7367POPC   C1B25243  29.364  36.012   8.555
 7367POPC   C2B25244  29.303  36.029   8.255
 7367POPC   C3B25245  29.379  35.944   7.955
 7367POPC   C4B25246  29.356  35.943   7.655
 7368POPC   NC325247   2.029   1.256   9.455
 7368POPC   PO425248   2.010   1.166   9.155
 7368POPC   GL125249   1.989   1.194   8.855
 7368POPC   GL225250   2.113   1.205   8.855
 7368POPC   C1A25251   1.969   1.247   8.555
 7368POPC   D2A25252   1.952   1.191   8.255
 7368POPC   C3A25253   2.031   1.186   7.955
 7368POPC   C4A25254   1.950   1.242   7.655
 7368POPC   C1B25255   2.211   1.196   8.555
 7368POPC   C2B25256   2.196   1.211   8.255
 7368POPC   C3B25257   2.219   1.249   7.955
 7368POPC   C4B25258   2.287   1.178   7.655
 7369POPC   NC325259  34.593  40.047   9.455
 7369POPC   PO425260  34.557  40.029   9.155
 7369POPC   GL125261  34.600  40.055   8.855
 7369POPC   GL225262  34.718  40.037   8.855
 7369POPC   C1A25263  34.581  39.987   8.555
 7369POPC   D2A25264  34.593  40.005   8.255
 7369POPC   C3A25265  34.551  40.057   7.955
 7369POPC   C4A25266  34.614  39.973   7.655
 7369POPC   C1B25267  34.815  40.130   8.555
 7369POPC   C2B25268  34.772  40.208   8.255
 7369POPC   C3B25269  34.774  40.187   7.955
 7369POPC   C4B25270  34.768  40.140   7.655
 7370POPC   NC325271  11.284   4.267   9.455
 7370POPC   PO425272  11.265   4.289   9.155
 7370POPC   GL125273  11.253   4.290   8.855
 7370POPC   GL225274  11.177   4.413   8.855
 7370POPC   C1A25275  11.348   4.314   8.555
 7370POPC   D2A25276  11.273   4.354   8.255
 7370POPC   C3A25277  11.298   4.327   7.955
 7370POPC   C4A25278  11.254   4.320   7.655
 7370POPC   C1B25279  11.060   4.479   8.555
 7370POPC   C2B25280  11.090   4.480   8.255
 7370POPC   C3B25281  11.059   4.484   7.955
 7370POPC   C4B25282  11.068   4.430   7.655
 7371POPC   NC325283  41.557  31.511   9.455
 7371POPC   PO425284  41.512  31.465   9.155
 7371POPC   GL125285  41.517  31.506   8.855
 7371POPC   GL225286  41.633  31.364   8.855
 7371POPC   C1A25287  41.582  31.433   8.555
 7371POPC   D2A25288  41.554  31.516   8.255
 7371POPC   C3A25289  41.517  31.516   7.955
 7371POPC   C4A25290  41.570  31.436   7.655
 7371POPC   C1B25291  41.680  31.218   8.555
 7371POPC   C2B25292  41.696  31.197   8.255
 7371POPC   C3B25293  41.651  31.268   7.955
 7371POPC   C4B25294  41.614  31.283   7.655
 7372POPC   NC325295  41.528   7.403   9.455
 7372POPC   PO425296  41.591   7.410   9.155
 7372POPC   GL125297  41.534   7.390   8.855
 7372POPC   GL225298  41.487   7.384   8.855
 7372POPC   C1A25299  41.557   7.456   8.555
 7372POPC   D2A25300  41.512   7.372   8.255
 7372POPC   C3A25301  41.556   7.456   7.955
 7372POPC   C4A25302  41.532   7.399   7.655
 7372POPC   C1B25303  41.375   7.277   8.555
 7372POPC   C2B25304  41.331   7.317   8.255
 7372POPC   C3B25305  41.334   7.306   7.955
 7372POPC   C4B25306  41.308   7.332   7.655
 7373POPC   NC325307   3.562  14.394   9.455
 7373POPC   PO425308   3.504  14.420   9.155
 7373POPC   GL125309   3.575  14.435   8.855
 7373POPC   GL225310   3.638  14.476   8.855
 7373POPC   C1A25311   3.564  14.375   8.555
 7373POPC   D2A25312   3.500  14.401   8.255
 7373POPC   C3A25313   3.541  14.381   7.955
 7373POPC   C4A25314   3.522  14.421   7.655
 7373POPC   C1B25315   3.722  14.590   8.555
 7373POPC   C2B25316   3.737  14.542   8.255
 7373POPC   C3B25317   3.776  14.559   7.955
 7373POPC   C4B25318   3.755  14.579   7.655
 7374POPC   NC325319  37.639  13.581   9.455
 7374POPC   PO425320  37.728  13.608   9.155
 7374POPC   GL125321  37.651  13.676   8.855
 7374POPC   GL225322  37.612  13.561   8.855
 7374POPC   C1A25323  37.675  13.615   8.555
 7374POPC   D2A25324  37.643  13.621   8.255
 7374POPC   C3A25325  37.671  13.646   7.955
 7374POPC   C4A25326  37.687  13.588   7.655
 7374POPC   C1B25327  37.526  13.407   8.555
 7374POPC   C2B25328  37.524  13.418   8.255
 7374POPC   C3B25329  37.522  13.385   7.955
 7374POPC   C4B25330  37.514  13.383   7.655
 7375POPC   NC325331   5.085   8.189   9.455
 7375POPC   PO425332   5.108   8.191   9.155
 7375POPC   GL125333   5.060   8.222   8.855
 7375POPC   GL225334   4.986   8.083   8.855
 7375POPC   C1A25335   5.138   8.224   8.555
 7375POPC   D2A25336   5.078   8.238   8.255
 7375POPC   C3A25337   5.126   8.179   7.955
 7375POPC   C4A25338   5.113   8.242   7.655
 7375POPC   C1B25339   4.878   8.011   8.555
 7375POPC   C2B25340   4.923   8.056   8.255
 7375POPC   C3B25341   4.873   7.991   7.955
 7375POPC   C4B25342   4.911   8.016   7.655
 7376POPC   NC325343  21.337  38.474   9.455
 7376POPC   PO425344  21.422  38.412   9.155
 7376POPC   GL125345  21.424  38.486   8.855
 7376POPC   GL225346  21.476  38.548   8.855
 7376POPC   C1A25347  21.339  38.486   8.555
 7376POPC   D2A25348  21.384  38.422   8.255
 7376POPC   C3A25349  21.388  38.442   7.955
 7376POPC   C4A25350  21.361  38.421   7.655
 7376POPC   C1B25351  21.522  38.624   8.555
 7376POPC   C2B25352  21.538  38.664   8.255
 7376POPC   C3B25353  21.599  38.685   7.955
 7376POPC   C4B25354  21.569  38.652   7.655
 7377POPC   NC325355  31.466  11.272   9.455
 7377POPC   PO425356  31.443  11.262   9.155
 7377POPC   GL125357  31.431  11.323   8.855
 7377POPC   GL225358  31.615  11.377   8.855
 7377POPC   C1A25359  31.483  11.265   8.555
 7377POPC   D2A25360  31.424  11.302   8.255
 7377POPC   C3A25361  31.454  11.263   7.955
 7377POPC   C4A25362  31.468  11.307   7.655
 7377POPC   C1B25363  31.694  11.400   8.555
 7377POPC   C2B25364  31.660  11.444   8.255
 7377POPC   C3B25365  31.725  11.371   7.955
 7377POPC   C4B25366  31.686  11.392   7.655
 7378POPC   NC325367  18.260  43.839   9.455
 7378POPC   PO425368  18.315  43.842   9.155
 7378POPC   GL125369  18.278  43.882   8.855
 7378POPC   GL225370  18.358  43.823   8.855
 7378POPC   C1A25371  18.258  43.837   8.555
 7378POPC   D2A25372  18.333  43.854   8.255
 7378POPC   C3A25373  18.252  43.935   7.955
 7378POPC   C4A25374  18.243  43.935   7.655
 7378POPC   C1B25375  18.501  43.787   8.555
 7378POPC   C2B25376  18.496  43.715   8.255
 7378POPC   C3B25377  18.459  43.794   7.955
 7378POPC   C4B25378  18.480  43.802   7.655
 7379POPC   NC325379  10.480   9.792   9.455
 7379POPC   PO425380  10.571   9.750   9.155
 7379POPC   GL125381  10.509   9.752   8.855
 7379POPC   GL225382  10.422   9.643   8.855
 7379POPC   C1A25383  10.557   9.781   8.555
 7379POPC   D2A25384  10.504   9.792   8.255
 7379POPC   C3A25385  10.540   9.758   7.955
 7379POPC   C4A25386  10.525   9.740   7.655
 7379POPC   C1B25387  10.319   9.517   8.555
 7379POPC   C2B25388  10.358   9.585   8.255
 7379POPC   C3B25389  10.387   9.572   7.955
 7379POPC   C4B25390  10.341   9.577   7.655
 7380POPC   NC325391  42.292  12.853   9.455
 7380POPC   PO425392  42.350  12.841   9.155
 7380POPC   GL125393  42.344  12.844   8.855
 7380POPC   GL225394  42.209  12.863   8.855
 7380POPC   C1A25395  42.383  12.823   8.555
 7380POPC   D2A25396  42.307  12.822   8.255
 7380POPC   C3A25397  42.290  12.805   7.955
 7380POPC   C4A25398  42.324  12.882   7.655
 7380POPC   C1B25399  42.054  12.923   8.555
 7380POPC   C2B25400  42.091  12.883   8.255
 7380POPC   C3B25401  42.051  12.943   7.955
 7380POPC   C4B25402  42.141  12.957   7.655
 7381POPC   NC325403  21.405  20.585   9.455
 7381POPC   PO425404  21.345  20.584   9.155
 7381POPC   GL125405  21.342  20.632   8.855
 7381POPC   GL225406  21.362  20.775   8.855
 7381POPC   C1A25407  21.344  20.576   8.555
 7381POPC   D2A25408  21.375  20.651   8.255
 7381POPC   C3A25409  21.375  20.651   7.955
 7381POPC   C4A25410  21.400  20.586   7.655
 7381POPC   C1B25411  21.405  20.830   8.555
 7381POPC   C2B25412  21.419  20.872   8.255
 7381POPC   C3B25413  21.457  20.831   7.955
 7381POPC   C4B25414  21.481  20.899   7.655
 7382POPC   NC325415  29.132  40.785   9.455
 7382POPC   PO425416  29.186  40.804   9.155
 7382POPC   GL125417  29.097  40.805   8.855
 7382POPC   GL225418  29.232  40.732   8.855
 7382POPC   C1A25419  29.172  40.788   8.555
 7382POPC   D2A25420  29.175  40.737   8.255
 7382POPC   C3A25421  29.103  40.790   7.955
 7382POPC   C4A25422  29.180  40.822   7.655
 7382POPC   C1B25423  29.354  40.588   8.555
 7382POPC   C2B25424  29.296  40.620   8.255
 7382POPC   C3B25425  29.316  40.611   7.955
 7382POPC   C4B25426  29.271  40.599   7.655
 7383POPC   NC325427  38.418  33.778   9.455
 7383POPC   PO425428  38.444  33.767   9.155
 7383POPC   GL125429  38.439  33.792   8.855
 7383POPC   GL225430  38.291  33.820   8.855
 7383POPC   C1A25431  38.499  33.828   8.555
 7383POPC   D2A25432  38.481  33.850   8.255
 7383POPC   C3A25433  38.418  33.796   7.955
 7383POPC   C4A25434  38.484  33.781   7.655
 7383POPC   C1B25435  38.232  33.761   8.555
 7383POPC   C2B25436  38.178  33.791   8.255
 7383POPC   C3B25437  38.215  33.788   7.955
 7383POPC   C4B25438  38.171  33.707   7.655
 7384POPC   NC325439   6.680  18.249   9.455
 7384POPC   PO425440   6.653  18.280   9.155
 7384POPC   GL125441   6.688  18.325   8.855
 7384POPC   GL225442   6.529  18.316   8.855
 7384POPC   C1A25443   6.663  18.261   8.555
 7384POPC   D2A25444   6.672  18.259   8.255
 7384POPC   C3A25445   6.630  18.310   7.955
 7384POPC   C4A25446   6.671  18.314   7.655
 7384POPC   C1B25447   6.483  18.460   8.555
 7384POPC   C2B25448   6.416  18.453   8.255
 7384POPC   C3B25449   6.429  18.441   7.955
 7384POPC   C4B25450   6.466  18.401   7.655
 7385POPC   NC325451  22.987  22.913   9.455
 7385POPC   PO425452  22.894  22.960   9.155
 7385POPC   GL125453  22.893  22.974   8.855
 7385POPC   GL225454  22.923  23.099   8.855
 7385POPC   C1A25455  22.917  22.926   8.555
 7385POPC   D2A25456  22.957  22.933   8.255
 7385POPC   C3A25457  22.908  22.941   7.955
 7385POPC   C4A25458  22.967  22.901   7.655
 7385POPC   C1B25459  22.898  23.147   8.555
 7385POPC   C2B25460  22.880  23.146   8.255
 7385POPC   C3B25461  22.959  23.160   7.955
 7385POPC   C4B25462  22.916  23.211   7.655
 7386POPC   NC325463  24.470  39.976   9.455
 7386POPC   PO425464  24.508  40.026   9.155
 7386POPC   GL125465  24.490  40.029   8.855
 7386POPC   GL225466  24.552  39.935   8.855
 7386POPC   C1A25467  24.479  39.995   8.555
 7386POPC   D2A25468  24.532  40.013   8.255
 7386POPC   C3A25469  24.481  40.045   7.955
 7386POPC   C4A25470  24.478  39.986   7.655
 7386POPC   C1B25471  24.659  39.817   8.555
 7386POPC   C2B25472  24.675  39.888   8.255
 7386POPC   C3B25473  24.734  39.875   7.955
 7386POPC   C4B25474  24.641  39.873   7.655
 7387POPC   NC325475  43.084  34.609   9.455
 7387POPC   PO425476  43.138  34.599   9.155
 7387POPC   GL125477  43.125  34.529   8.855
 7387POPC   GL225478  43.059  34.726   8.855
 7387POPC   C1A25479  43.116  34.591   8.555
 7387POPC   D2A25480  43.107  34.621   8.255
 7387POPC   C3A25481  43.066  34.570   7.955
 7387POPC   C4A25482  43.154  34.622   7.655
 7387POPC   C1B25483  43.027  34.764   8.555
 7387POPC   C2B25484  43.013  34.807   8.255
 7387POPC   C3B25485  43.003  34.815   7.955
 7387POPC   C4B25486  42.972  34.784   7.655
 7388POPC   NC325487  26.063   9.020   9.455
 7388POPC   PO425488  26.019   8.991   9.155
 7388POPC   GL125489  26.011   8.987   8.855
 7388POPC   GL225490  25.884   9.016   8.855
 7388POPC   C1A25491  26.075   8.980   8.555
 7388POPC   D2A25492  26.032   8.968   8.255
 7388POPC   C3A25493  26.033   8.929   7.955
 7388POPC   C4A25494  26.086   9.021   7.655
 7388POPC   C1B25495  25.816   9.099   8.555
 7388POPC   C2B25496  25.861   9.123   8.255
 7388POPC   C3B25497  25.809   9.039   7.955
 7388POPC   C4B25498  25.822   9.040   7.655
 7389POPC   NC325499  14.426  13.591   9.455
 7389POPC   PO425500  14.451  13.602   9.155
 7389POPC   GL125501  14.428  13.660   8.855
 7389POPC   GL225502  14.506  13.669   8.855
 7389POPC   C1A25503  14.445  13.601   8.555
 7389POPC   D2A25504  14.355  13.602   8.255
 7389POPC   C3A25505  14.437  13.601   7.955
 7389POPC   C4A25506  14.434  13.633   7.655
 7389POPC   C1B25507  14.603  13.795   8.555
 7389POPC   C2B25508  14.607  13.782   8.255
 7389POPC   C3B25509  14.615  13.702   7.955
 7389POPC   C4B25510  14.610  13.716   7.655
 7390POPC   NC325511  43.855  10.549   9.455
 7390POPC   PO425512  43.926  10.508   9.155
 7390POPC   GL125513  43.850  10.532   8.855
 7390POPC   GL225514  43.811  10.637   8.855
 7390POPC   C1A25515  43.883  10.488   8.555
 7390POPC   D2A25516  43.898  10.546   8.255
 7390POPC   C3A25517  43.911  10.568   7.955
 7390POPC   C4A25518  43.891  10.566   7.655
 7390POPC   C1B25519  43.668  10.671   8.555
 7390POPC   C2B25520  43.621  10.690   8.255
 7390POPC   C3B25521  43.630  10.700   7.955
 7390POPC   C4B25522  43.692  10.692   7.655
 7391POPC   NC325523  29.186  13.594   9.455
 7391POPC   PO425524  29.150  13.578   9.155
 7391POPC   GL125525  29.162  13.581   8.855
 7391POPC   GL225526  29.210  13.545   8.855
 7391POPC   C1A25527  29.178  13.644   8.555
 7391POPC   D2A25528  29.187  13.639   8.255
 7391POPC   C3A25529  29.176  13.671   7.955
 7391POPC   C4A25530  29.105  13.588   7.655
 7391POPC   C1B25531  29.240  13.471   8.555
 7391POPC   C2B25532  29.296  13.466   8.255
 7391POPC   C3B25533  29.309  13.461   7.955
 7391POPC   C4B25534  29.279  13.449   7.655
 7392POPC   NC325535  16.688   5.129   9.455
 7392POPC   PO425536  16.775   5.051   9.155
 7392POPC   GL125537  16.744   5.064   8.855
 7392POPC   GL225538  16.744   4.963   8.855
 7392POPC   C1A25539  16.690   5.048   8.555
 7392POPC   D2A25540  16.769   5.061   8.255
 7392POPC   C3A25541  16.701   5.068   7.955
 7392POPC   C4A25542  16.775   5.070   7.655
 7392POPC   C1B25543  16.724   4.837   8.555
 7392POPC   C2B25544  16.725   4.811   8.255
 7392POPC   C3B25545  16.734   4.838   7.955
 7392POPC   C4B25546  16.664   4.870   7.655
 7393POPC   NC325547   2.018  11.296   9.455
 7393POPC   PO425548   1.993  11.318   9.155
 7393POPC   GL125549   1.990  11.296   8.855
 7393POPC   GL225550   2.051  11.407   8.855
 7393POPC   C1A25551   2.031  11.295   8.555
 7393POPC   D2A25552   1.944  11.342   8.255
 7393POPC   C3A25553   1.950  11.296   7.955
 7393POPC   C4A25554   1.951  11.345   7.655
 7393POPC   C1B25555   2.136  11.447   8.555
 7393POPC   C2B25556   2.196  11.431   8.255
 7393POPC   C3B25557   2.204  11.452   7.955
 7393POPC   C4B25558   2.209  11.495   7.655
 7394POPC   NC325559  39.237   9.788   9.455
 7394POPC   PO425560  39.270   9.766   9.155
 7394POPC   GL125561  39.269   9.752   8.855
 7394POPC   GL225562  39.398   9.738   8.855
 7394POPC   C1A25563  39.224   9.751   8.555
 7394POPC   D2A25564  39.248   9.699   8.255
 7394POPC   C3A25565  39.220   9.762   7.955
 7394POPC   C4A25566  39.185   9.785   7.655
 7394POPC   C1B25567  39.475   9.801   8.555
 7394POPC   C2B25568  39.475   9.781   8.255
 7394POPC   C3B25569  39.506   9.838   7.955
 7394POPC   C4B25570  39.468   9.792   7.655
 7395POPC   NC325571  43.156  12.891   9.455
 7395POPC   PO425572  43.125  12.885   9.155
 7395POPC   GL125573  43.076  12.806   8.855
 7395POPC   GL225574  42.988  12.927   8.855
 7395POPC   C1A25575  43.118  12.825   8.555
 7395POPC   D2A25576  43.076  12.835   8.255
 7395POPC   C3A25577  43.065  12.879   7.955
 7395POPC   C4A25578  43.110  12.898   7.655
 7395POPC   C1B25579  42.923  13.064   8.555
 7395POPC   C2B25580  42.941  13.019   8.255
 7395POPC   C3B25581  42.957  13.038   7.955
 7395POPC   C4B25582  42.911  12.992   7.655
 7396POPC   NC325583  42.314  15.998   9.455
 7396POPC   PO425584  42.303  15.916   9.155
 7396POPC   GL125585  42.293  15.936   8.855
 7396POPC   GL225586  42.333  15.838   8.855
 7396POPC   C1A25587  42.365  15.965   8.555
 7396POPC   D2A25588  42.360  15.951   8.255
 7396POPC   C3A25589  42.319  15.981   7.955
 7396POPC   C4A25590  42.301  15.958   7.655
 7396POPC   C1B25591  42.456  15.736   8.555
 7396POPC   C2B25592  42.437  15.737   8.255
 7396POPC   C3B25593  42.435  15.764   7.955
 7396POPC   C4B25594  42.408  15.748   7.655
 7397POPC   NC325595  15.926  30.727   9.455
 7397POPC   PO425596  15.992  30.711   9.155
 7397POPC   GL125597  16.003  30.655   8.855
 7397POPC   GL225598  15.978  30.564   8.855
 7397POPC   C1A25599  16.000  30.720   8.555
 7397POPC   D2A25600  15.963  30.684   8.255
 7397POPC   C3A25601  15.910  30.705   7.955
 7397POPC   C4A25602  15.956  30.718   7.655
 7397POPC   C1B25603  15.993  30.504   8.555
 7397POPC   C2B25604  16.037  30.419   8.255
 7397POPC   C3B25605  16.041  30.419   7.955
 7397POPC   C4B25606  16.007  30.460   7.655
 7398POPC   NC325607  15.920  22.137   9.455
 7398POPC   PO425608  15.917  22.212   9.155
 7398POPC   GL125609  15.935  22.119   8.855
 7398POPC   GL225610  15.928  22.245   8.855
 7398POPC   C1A25611  15.934  22.208   8.555
 7398POPC   D2A25612  15.915  22.210   8.255
 7398POPC   C3A25613  15.908  22.144   7.955
 7398POPC   C4A25614  15.934  22.159   7.655
 7398POPC   C1B25615  15.955  22.394   8.555
 7398POPC   C2B25616  15.962  22.457   8.255
 7398POPC   C3B25617  15.948  22.363   7.955
 7398POPC   C4B25618  15.919  22.380   7.655
 7399POPC   NC325619  19.803  43.148   9.455
 7399POPC   PO425620  19.848  43.160   9.155
 7399POPC   GL125621  19.878  43.135   8.855
 7399POPC   GL225622  19.936  43.107   8.855
 7399POPC   C1A25623  19.801  43.078   8.555
 7399POPC   D2A25624  19.802  43.069   8.255
 7399POPC   C3A25625  19.884  43.133   7.955
 7399POPC   C4A25626  19.843  43.135   7.655
 7399POPC   C1B25627  20.081  43.115   8.555
 7399POPC   C2B25628  20.119  43.104   8.255
 7399POPC   C3B25629  20.050  43.116   7.955
 7399POPC   C4B25630  20.079  43.101   7.655
 7400POPC   NC325631  22.165  36.142   9.455
 7400POPC   PO425632  22.173  36.102   9.155
 7400POPC   GL125633  22.112  36.161   8.855
 7400POPC   GL225634  22.325  36.099   8.855
 7400POPC   C1A25635  22.124  36.118   8.555
 7400POPC   D2A25636  22.197  36.129   8.255
 7400POPC   C3A25637  22.144  36.152   7.955
 7400POPC   C4A25638  22.149  36.102   7.655
 7400POPC   C1B25639  22.435  36.043   8.555
 7400POPC   C2B25640  22.381  36.065   8.255
 7400POPC   C3B25641  22.419  36.039   7.955
 7400POPC   C4B25642  22.363  36.111   7.655
 7401POPC   NC325643  23.741  26.824   9.455
 7401POPC   PO425644  23.718  26.819   9.155
 7401POPC   GL125645  23.688  26.863   8.855
 7401POPC   GL225646  23.789  26.788   8.855
 7401POPC   C1A25647  23.683  26.790   8.555
 7401POPC   D2A25648  23.665  26.819   8.255
 7401POPC   C3A25649  23.664  26.784   7.955
 7401POPC   C4A25650  23.705  26.783   7.655
 7401POPC   C1B25651  23.921  26.757   8.555
 7401POPC   C2B25652  23.923  26.739   8.255
 7401POPC   C3B25653  23.912  26.779   7.955
 7401POPC   C4B25654  23.961  26.784   7.655
 7402POPC   NC325655  43.838  23.704   9.455
 7402POPC   PO425656  43.836  23.752   9.155
 7402POPC   GL125657  43.858  23.706   8.855
 7402POPC   GL225658  43.834  23.886   8.855
 7402POPC   C1A25659  43.860  23.675   8.555
 7402POPC   D2A25660  43.873  23.700   8.255
 7402POPC   C3A25661  43.879  23.739   7.955
 7402POPC   C4A25662  43.900  23.674   7.655
 7402POPC   C1B25663  43.877  23.931   8.555
 7402POPC   C2B25664  43.877  23.995   8.255
 7402POPC   C3B25665  43.832  23.988   7.955
 7402POPC   C4B25666  43.859  23.955   7.655
 7403POPC   NC325667  12.806  22.947   9.455
 7403POPC   PO425668  12.898  22.925   9.155
 7403POPC   GL125669  12.837  22.970   8.855
 7403POPC   GL225670  12.763  22.890   8.855
 7403POPC   C1A25671  12.887  22.909   8.555
 7403POPC   D2A25672  12.812  22.929   8.255
 7403POPC   C3A25673  12.871  22.971   7.955
 7403POPC   C4A25674  12.893  22.987   7.655
 7403POPC   C1B25675  12.571  22.831   8.555
 7403POPC   C2B25676  12.573  22.860   8.255
 7403POPC   C3B25677  12.660  22.852   7.955
 7403POPC   C4B25678  12.591  22.838   7.655
 7404POPC   NC325679   6.638  31.518   9.455
 7404POPC   PO425680   6.630  31.462   9.155
 7404POPC   GL125681   6.624  31.467   8.855
 7404POPC   GL225682   6.531  31.485   8.855
 7404POPC   C1A25683   6.621  31.448   8.555
 7404POPC   D2A25684   6.622  31.513   8.255
 7404POPC   C3A25685   6.664  31.483   7.955
 7404POPC   C4A25686   6.626  31.467   7.655
 7404POPC   C1B25687   6.445  31.603   8.555
 7404POPC   C2B25688   6.387  31.548   8.255
 7404POPC   C3B25689   6.420  31.553   7.955
 7404POPC   C4B25690   6.374  31.585   7.655
 7405POPC   NC325691  15.175  23.719   9.455
 7405POPC   PO425692  15.216  23.757   9.155
 7405POPC   GL125693  15.198  23.751   8.855
 7405POPC   GL225694  15.158  23.571   8.855
 7405POPC   C1A25695  15.132  23.705   8.555
 7405POPC   D2A25696  15.208  23.741   8.255
 7405POPC   C3A25697  15.159  23.757   7.955
 7405POPC   C4A25698  15.166  23.701   7.655
 7405POPC   C1B25699  15.168  23.482   8.555
 7405POPC   C2B25700  15.165  23.449   8.255
 7405POPC   C3B25701  15.163  23.436   7.955
 7405POPC   C4B25702  15.209  23.461   7.655
 7406POPC   NC325703  25.996  22.940   9.455
 7406POPC   PO425704  26.039  22.910   9.155
 7406POPC   GL125705  26.013  22.906   8.855
 7406POPC   GL225706  26.019  23.092   8.855
 7406POPC   C1A25707  26.041  22.940   8.555
 7406POPC   D2A25708  26.049  22.954   8.255
 7406POPC   C3A25709  26.015  22.930   7.955
 7406POPC   C4A25710  26.010  22.935   7.655
 7406POPC   C1B25711  25.982  23.231   8.555
 7406POPC   C2B25712  25.969  23.151   8.255
 7406POPC   C3B25713  25.962  23.154   7.955
 7406POPC   C4B25714  25.998  23.173   7.655
 7407POPC   NC325715  41.592  38.407   9.455
 7407POPC   PO425716  41.515  38.438   9.155
 7407POPC   GL125717  41.544  38.408   8.855
 7407POPC   GL225718  41.484  38.582   8.855
 7407POPC   C1A25719  41.580  38.431   8.555
 7407POPC   D2A25720  41.560  38.495   8.255
 7407POPC   C3A25721  41.525  38.424   7.955
 7407POPC   C4A25722  41.591  38.493   7.655
 7407POPC   C1B25723  41.358  38.634   8.555
 7407POPC   C2B25724  41.413  38.662   8.255
 7407POPC   C3B25725  41.322  38.587   7.955
 7407POPC   C4B25726  41.324  38.667   7.655
 7408POPC   NC325727   8.162  33.014   9.455
 7408POPC   PO425728   8.245  33.026   9.155
 7408POPC   GL125729   8.162  33.016   8.855
 7408POPC   GL225730   8.077  33.014   8.855
 7408POPC   C1A25731   8.175  32.986   8.555
 7408POPC   D2A25732   8.228  33.063   8.255
 7408POPC   C3A25733   8.246  33.068   7.955
 7408POPC   C4A25734   8.180  32.982   7.655
 7408POPC   C1B25735   7.984  33.025   8.555
 7408POPC   C2B25736   7.919  32.989   8.255
 7408POPC   C3B25737   7.941  33.026   7.955
 7408POPC   C4B25738   7.988  33.000   7.655
 7409POPC   NC325739   7.465  12.881   9.455
 7409POPC   PO425740   7.466  12.888   9.155
 7409POPC   GL125741   7.424  12.861   8.855
 7409POPC   GL225742   7.421  12.710   8.855
 7409POPC   C1A25743   7.418  12.899   8.555
 7409POPC   D2A25744   7.401  12.836   8.255
 7409POPC   C3A25745   7.382  12.854   7.955
 7409POPC   C4A25746   7.452  12.886   7.655
 7409POPC   C1B25747   7.447  12.593   8.555
 7409POPC   C2B25748   7.396  12.596   8.255
 7409POPC   C3B25749   7.457  12.601   7.955
 7409POPC   C4B25750   7.466  12.559   7.655
 7410POPC   NC325751  12.893  31.485   9.455
 7410POPC   PO425752  12.894  31.472   9.155
 7410POPC   GL125753  12.862  31.503   8.855
 7410POPC   GL225754  12.703  31.456   8.855
 7410POPC   C1A25755  12.898  31.451   8.555
 7410POPC   D2A25756  12.823  31.438   8.255
 7410POPC   C3A25757  12.812  31.495   7.955
 7410POPC   C4A25758  12.856  31.476   7.655
 7410POPC   C1B25759  12.601  31.387   8.555
 7410POPC   C2B25760  12.625  31.388   8.255
 7410POPC   C3B25761  12.595  31.397   7.955
 7410POPC   C4B25762  12.606  31.405   7.655
 7411POPC   NC325763  36.888  15.162   9.455
 7411POPC   PO425764  36.946  15.203   9.155
 7411POPC   GL125765  36.906  15.208   8.855
 7411POPC   GL225766  36.961  15.097   8.855
 7411POPC   C1A25767  36.856  15.188   8.555
 7411POPC   D2A25768  36.865  15.177   8.255
 7411POPC   C3A25769  36.930  15.154   7.955
 7411POPC   C4A25770  36.934  15.192   7.655
 7411POPC   C1B25771  37.064  15.013   8.555
 7411POPC   C2B25772  37.060  14.962   8.255
 7411POPC   C3B25773  37.053  14.940   7.955
 7411POPC   C4B25774  37.007  15.008   7.655
 7412POPC   NC325775  10.546  19.816   9.455
 7412POPC   PO425776  10.530  19.817   9.155
 7412POPC   GL125777  10.499  19.796   8.855
 7412POPC   GL225778  10.672  19.942   8.855
 7412POPC   C1A25779  10.546  19.809   8.555
 7412POPC   D2A25780  10.513  19.821   8.255
 7412POPC   C3A25781  10.482  19.804   7.955
 7412POPC   C4A25782  10.524  19.828   7.655
 7412POPC   C1B25783  10.744  20.009   8.555
 7412POPC   C2B25784  10.733  19.962   8.255
 7412POPC   C3B25785  10.706  20.006   7.955
 7412POPC   C4B25786  10.766  19.964   7.655
 7413POPC   NC325787  41.564   3.492   9.455
 7413POPC   PO425788  41.577   3.556   9.155
 7413POPC   GL125789  41.537   3.538   8.855
 7413POPC   GL225790  41.422   3.514   8.855
 7413POPC   C1A25791  41.561   3.564   8.555
 7413POPC   D2A25792  41.600   3.551   8.255
 7413POPC   C3A25793  41.519   3.584   7.955
 7413POPC   C4A25794  41.599   3.535   7.655
 7413POPC   C1B25795  41.388   3.436   8.555
 7413POPC   C2B25796  41.300   3.381   8.255
 7413POPC   C3B25797  41.377   3.430   7.955
 7413POPC   C4B25798  41.371   3.447   7.655
 7414POPC   NC325799  39.999  10.557   9.455
 7414POPC   PO425800  40.018  10.549   9.155
 7414POPC   GL125801  39.985  10.485   8.855
 7414POPC   GL225802  39.949  10.564   8.855
 7414POPC   C1A25803  39.961  10.551   8.555
 7414POPC   D2A25804  40.047  10.489   8.255
 7414POPC   C3A25805  40.052  10.514   7.955
 7414POPC   C4A25806  40.041  10.534   7.655
 7414POPC   C1B25807  39.765  10.674   8.555
 7414POPC   C2B25808  39.811  10.619   8.255
 7414POPC   C3B25809  39.803  10.677   7.955
 7414POPC   C4B25810  39.847  10.685   7.655
 7415POPC   NC325811  35.319  15.969   9.455
 7415POPC   PO425812  35.364  16.004   9.155
 7415POPC   GL125813  35.327  15.923   8.855
 7415POPC   GL225814  35.455  16.015   8.855
 7415POPC   C1A25815  35.364  15.911   8.555
 7415POPC   D2A25816  35.327  15.958   8.255
 7415POPC   C3A25817  35.351  15.973   7.955
 7415POPC   C4A25818  35.304  15.957   7.655
 7415POPC   C1B25819  35.637  15.965   8.555
 7415POPC   C2B25820  35.556  15.962   8.255
 7415POPC   C3B25821  35.592  15.991   7.955
 7415POPC   C4B25822  35.639  16.009   7.655
 7416POPC   NC325823  14.431   4.274   9.455
 7416POPC   PO425824  14.363   4.354   9.155
 7416POPC   GL125825  14.395   4.311   8.855
 7416POPC   GL225826  14.249   4.388   8.855
 7416POPC   C1A25827  14.433   4.294   8.555
 7416POPC   D2A25828  14.414   4.299   8.255
 7416POPC   C3A25829  14.449   4.357   7.955
 7416POPC   C4A25830  14.357   4.347   7.655
 7416POPC   C1B25831  14.198   4.353   8.555
 7416POPC   C2B25832  14.186   4.361   8.255
 7416POPC   C3B25833  14.181   4.345   7.955
 7416POPC   C4B25834  14.142   4.394   7.655
 7417POPC   NC325835  41.573   5.128   9.455
 7417POPC   PO425836  41.516   5.122   9.155
 7417POPC   GL125837  41.537   5.050   8.855
 7417POPC   GL225838  41.732   5.158   8.855
 7417POPC   C1A25839  41.587   5.122   8.555
 7417POPC   D2A25840  41.580   5.066   8.255
 7417POPC   C3A25841  41.596   5.087   7.955
 7417POPC   C4A25842  41.560   5.106   7.655
 7417POPC   C1B25843  41.780   5.127   8.555
 7417POPC   C2B25844  41.817   5.163   8.255
 7417POPC   C3B25845  41.794   5.172   7.955
 7417POPC   C4B25846  41.799   5.123   7.655
 7418POPC   NC325847  26.820  34.572   9.455
 7418POPC   PO425848  26.826  34.586   9.155
 7418POPC   GL125849  26.820  34.565   8.855
 7418POPC   GL225850  26.874  34.735   8.855
 7418POPC   C1A25851  26.846  34.607   8.555
 7418POPC   D2A25852  26.786  34.545   8.255
 7418POPC   C3A25853  26.793  34.608   7.955
 7418POPC   C4A25854  26.813  34.603   7.655
 7418POPC   C1B25855  26.891  34.846   8.555
 7418POPC   C2B25856  26.803  34.865   8.255
 7418POPC   C3B25857  26.821  34.848   7.955
 7418POPC   C4B25858  26.814  34.781   7.655
 7419POPC   NC325859   6.694   2.002   9.455
 7419POPC   PO425860   6.691   2.037   9.155
 7419POPC   GL125861   6.597   2.011   8.855
 7419POPC   GL225862   6.636   1.885   8.855
 7419POPC   C1A25863   6.643   1.991   8.555
 7419POPC   D2A25864   6.610   1.947   8.255
 7419POPC   C3A25865   6.689   1.954   7.955
 7419POPC   C4A25866   6.636   2.020   7.655
 7419POPC   C1B25867   6.735   1.708   8.555
 7419POPC   C2B25868   6.684   1.763   8.255
 7419POPC   C3B25869   6.697   1.762   7.955
 7419POPC   C4B25870   6.719   1.742   7.655
 7420POPC   NC325871  18.313  42.313   9.455
 7420POPC   PO425872  18.264  42.302   9.155
 7420POPC   GL125873  18.303  42.364   8.855
 7420POPC   GL225874  18.180  42.311   8.855
 7420POPC   C1A25875  18.275  42.342   8.555
 7420POPC   D2A25876  18.318  42.344   8.255
 7420POPC   C3A25877  18.330  42.369   7.955
 7420POPC   C4A25878  18.288  42.336   7.655
 7420POPC   C1B25879  18.040  42.325   8.555
 7420POPC   C2B25880  18.064  42.287   8.255
 7420POPC   C3B25881  18.019  42.345   7.955
 7420POPC   C4B25882  18.034  42.277   7.655
 7421POPC   NC325883   2.004   5.081   9.455
 7421POPC   PO425884   1.955   5.124   9.155
 7421POPC   GL125885   1.965   5.068   8.855
 7421POPC   GL225886   2.062   5.032   8.855
 7421POPC   C1A25887   1.944   5.100   8.555
 7421POPC   D2A25888   2.031   5.124   8.255
 7421POPC   C3A25889   1.995   5.075   7.955
 7421POPC   C4A25890   2.031   5.049   7.655
 7421POPC   C1B25891   2.226   4.994   8.555
 7421POPC   C2B25892   2.222   5.033   8.255
 7421POPC   C3B25893   2.276   5.069   7.955
 7421POPC   C4B25894   2.267   5.042   7.655
 7422POPC   NC325895   8.219  11.262   9.455
 7422POPC   PO425896   8.190  11.343   9.155
 7422POPC   GL125897   8.235  11.331   8.855
 7422POPC   GL225898   8.310  11.302   8.855
 7422POPC   C1A25899   8.192  11.332   8.555
 7422POPC   D2A25900   8.160  11.320   8.255
 7422POPC   C3A25901   8.160  11.296   7.955
 7422POPC   C4A25902   8.187  11.254   7.655
 7422POPC   C1B25903   8.461  11.234   8.555
 7422POPC   C2B25904   8.475  11.164   8.255
 7422POPC   C3B25905   8.449  11.248   7.955
 7422POPC   C4B25906   8.435  11.237   7.655
 7423POPC   NC325907  12.888  20.654   9.455
 7423POPC   PO425908  12.900  20.581   9.155
 7423POPC   GL125909  12.901  20.589   8.855
 7423POPC   GL225910  12.700  20.673   8.855
 7423POPC   C1A25911  12.890  20.615   8.555
 7423POPC   D2A25912  12.880  20.591   8.255
 7423POPC   C3A25913  12.807  20.641   7.955
 7423POPC   C4A25914  12.822  20.624   7.655
 7423POPC   C1B25915  12.649  20.713   8.555
 7423POPC   C2B25916  12.637  20.761   8.255
 7423POPC   C3B25917  12.636  20.705   7.955
 7423POPC   C4B25918  12.637  20.745   7.655
 7424POPC   NC325919  43.901   0.448   9.455
 7424POPC   PO425920  43.935   0.456   9.155
 7424POPC   GL125921  43.890   0.421   8.855
 7424POPC   GL225922  43.853   0.355   8.855
 7424POPC   C1A25923  43.896   0.434   8.555
 7424POPC   D2A25924  43.850   0.416   8.255
 7424POPC   C3A25925  43.934   0.392   7.955
 7424POPC   C4A25926  43.886   0.480   7.655
 7424POPC   C1B25927  43.702   0.281   8.555
 7424POPC   C2B25928  43.760   0.251   8.255
 7424POPC   C3B25929  43.713   0.295   7.955
 7424POPC   C4B25930  43.726   0.251   7.655
 7425POPC   NC325931  23.745  25.274   9.455
 7425POPC   PO425932  23.686  25.219   9.155
 7425POPC   GL125933  23.670  25.256   8.855
 7425POPC   GL225934  23.662  25.177   8.855
 7425POPC   C1A25935  23.724  25.312   8.555
 7425POPC   D2A25936  23.704  25.221   8.255
 7425POPC   C3A25937  23.749  25.227   7.955
 7425POPC   C4A25938  23.667  25.279   7.655
 7425POPC   C1B25939  23.633  24.980   8.555
 7425POPC   C2B25940  23.616  25.019   8.255
 7425POPC   C3B25941  23.677  24.987   7.955
 7425POPC   C4B25942  23.656  25.048   7.655
 7426POPC   NC325943   8.188  22.134   9.455
 7426POPC   PO425944   8.160  22.145   9.155
 7426POPC   GL125945   8.160  22.149   8.855
 7426POPC   GL225946   8.165  22.067   8.855
 7426POPC   C1A25947   8.169  22.126   8.555
 7426POPC   D2A25948   8.163  22.120   8.255
 7426POPC   C3A25949   8.176  22.160   7.955
 7426POPC   C4A25950   8.199  22.193   7.655
 7426POPC   C1B25951   8.197  21.866   8.555
 7426POPC   C2B25952   8.206  21.915   8.255
 7426POPC   C3B25953   8.267  21.929   7.955
 7426POPC   C4B25954   8.208  21.945   7.655
 7427POPC   NC325955   4.293  22.188   9.455
 7427POPC   PO425956   4.289  22.142   9.155
 7427POPC   GL125957   4.337  22.135   8.855
 7427POPC   GL225958   4.242  22.302   8.855
 7427POPC   C1A25959   4.286  22.154   8.555
 7427POPC   D2A25960   4.329  22.126   8.255
 7427POPC   C3A25961   4.357  22.149   7.955
 7427POPC   C4A25962   4.308  22.156   7.655
 7427POPC   C1B25963   4.310  22.409   8.555
 7427POPC   C2B25964   4.256  22.362   8.255
 7427POPC   C3B25965   4.258  22.366   7.955
 7427POPC   C4B25966   4.273  22.411   7.655
 7428POPC   NC325967  18.325  18.286   9.455
 7428POPC   PO425968  18.280  18.317   9.155
 7428POPC   GL125969  18.264  18.256   8.855
 7428POPC   GL225970  18.377  18.346   8.855
 7428POPC   C1A25971  18.262  18.236   8.555
 7428POPC   D2A25972  18.275  18.265   8.255
 7428POPC   C3A25973  18.256  18.269   7.955
 7428POPC   C4A25974  18.270  18.250   7.655
 7428POPC   C1B25975  18.365  18.470   8.555
 7428POPC   C2B25976  18.446  18.504   8.255
 7428POPC   C3B25977  18.381  18.516   7.955
 7428POPC   C4B25978  18.418  18.517   7.655
 7429POPC   NC325979  34.571   5.099   9.455
 7429POPC   PO425980  34.586   5.138   9.155
 7429POPC   GL125981  34.574   5.053   8.855
 7429POPC   GL225982  34.532   5.165   8.855
 7429POPC   C1A25983  34.587   5.142   8.555
 7429POPC   D2A25984  34.553   5.103   8.255
 7429POPC   C3A25985  34.610   5.092   7.955
 7429POPC   C4A25986  34.553   5.126   7.655
 7429POPC   C1B25987  34.413   5.271   8.555
 7429POPC   C2B25988  34.376   5.280   8.255
 7429POPC   C3B25989  34.362   5.228   7.955
 7429POPC   C4B25990  34.359   5.298   7.655
 7430POPC   NC325991  22.977  19.848   9.455
 7430POPC   PO425992  22.918  19.845   9.155
 7430POPC   GL125993  22.906  19.835   8.855
 7430POPC   GL225994  23.019  19.834   8.855
 7430POPC   C1A25995  22.960  19.789   8.555
 7430POPC   D2A25996  22.900  19.860   8.255
 7430POPC   C3A25997  22.933  19.862   7.955
 7430POPC   C4A25998  22.958  19.844   7.655
 7430POPC   C1B25999  23.149  19.754   8.555
 7430POPC   C2B26000  23.144  19.699   8.255
 7430POPC   C3B26001  23.140  19.780   7.955
 7430POPC   C4B26002  23.168  19.772   7.655
 7431POPC   NC326003   0.453  22.914   9.455
 7431POPC   PO426004   0.467  22.929   9.155
 7431POPC   GL126005   0.476  22.924   8.855
 7431POPC   GL226006   0.266  22.878   8.855
 7431POPC   C1A26007   0.428  22.907   8.555
 7431POPC   D2A26008   0.409  22.919   8.255
 7431POPC   C3A26009   0.427  22.976   7.955
 7431POPC   C4A26010   0.424  22.913   7.655
 7431POPC   C1B26011   0.153  22.890   8.555
 7431POPC   C2B26012   0.224  22.946   8.255
 7431POPC   C3B26013   0.229  22.891   7.955
 7431POPC   C4B26014   0.194  22.911   7.655
 7432POPC   NC326015  22.969  34.534   9.455
 7432POPC   PO426016  22.950  34.564   9.155
 7432POPC   GL126017  22.920  34.602   8.855
 7432POPC   GL226018  22.810  34.642   8.855
 7432POPC   C1A26019  22.933  34.592   8.555
 7432POPC   D2A26020  22.980  34.615   8.255
 7432POPC   C3A26021  22.898  34.623   7.955
 7432POPC   C4A26022  22.908  34.593   7.655
 7432POPC   C1B26023  22.776  34.748   8.555
 7432POPC   C2B26024  22.746  34.785   8.255
 7432POPC   C3B26025  22.769  34.742   7.955
 7432POPC   C4B26026  22.791  34.774   7.655
 7433POPC   NC326027  40.760  16.699   9.455
 7433POPC   PO426028  40.762  16.768   9.155
 7433POPC   GL126029  40.813  16.763   8.855
 7433POPC   GL226030  40.684  16.604   8.855
 7433POPC   C1A26031  40.775  16.681   8.555
 7433POPC   D2A26032  40.767  16.771   8.255
 7433POPC   C3A26033  40.738  16.774   7.955
 7433POPC   C4A26034  40.813  16.746   7.655
 7433POPC   C1B26035  40.608  16.571   8.555
 7433POPC   C2B26036  40.634  16.520   8.255
 7433POPC   C3B26037  40.622  16.572   7.955
 7433POPC   C4B26038  40.634  16.545   7.655
 7434POPC   NC326039   7.393  42.294   9.455
 7434POPC   PO426040   7.418  42.356   9.155
 7434POPC   GL126041   7.418  42.290   8.855
 7434POPC   GL226042   7.517  42.418   8.855
 7434POPC   C1A26043   7.453  42.287   8.555
 7434POPC   D2A26044   7.431  42.302   8.255
 7434POPC   C3A26045   7.406  42.295   7.955
 7434POPC   C4A26046   7.455  42.309   7.655
 7434POPC   C1B26047   7.583  42.513   8.555
 7434POPC   C2B26048   7.667  42.519   8.255
 7434POPC   C3B26049   7.609  42.446   7.955
 7434POPC   C4B26050   7.661  42.495   7.655
 7435POPC   NC326051  41.548  41.554   9.455
 7435POPC   PO426052  41.528  41.512   9.155
 7435POPC   GL126053  41.554  41.553   8.855
 7435POPC   GL226054  41.493  41.697   8.855
 7435POPC   C1A26055  41.530  41.580   8.555
 7435POPC   D2A26056  41.564  41.519   8.255
 7435POPC   C3A26057  41.586  41.525   7.955
 7435POPC   C4A26058  41.568  41.605   7.655
 7435POPC   C1B26059  41.420  41.824   8.555
 7435POPC   C2B26060  41.407  41.821   8.255
 7435POPC   C3B26061  41.429  41.753   7.955
 7435POPC   C4B26062  41.436  41.808   7.655
 7436POPC   NC326063  29.937  36.163   9.455
 7436POPC   PO426064  29.907  36.151   9.155
 7436POPC   GL126065  29.940  36.162   8.855
 7436POPC   GL226066  30.043  36.082   8.855
 7436POPC   C1A26067  29.958  36.151   8.555
 7436POPC   D2A26068  29.896  36.080   8.255
 7436POPC   C3A26069  29.881  36.130   7.955
 7436POPC   C4A26070  29.885  36.104   7.655
 7436POPC   C1B26071  30.124  35.987   8.555
 7436POPC   C2B26072  30.117  35.961   8.255
 7436POPC   C3B26073  30.093  35.948   7.955
 7436POPC   C4B26074  30.116  35.949   7.655
 7437POPC   NC326075  30.714  36.869   9.455
 7437POPC   PO426076  30.696  36.950   9.155
 7437POPC   GL126077  30.654  36.889   8.855
 7437POPC   GL226078  30.772  36.936   8.855
 7437POPC   C1A26079  30.678  36.921   8.555
 7437POPC   D2A26080  30.670  36.857   8.255
 7437POPC   C3A26081  30.709  36.914   7.955
 7437POPC   C4A26082  30.659  36.857   7.655
 7437POPC   C1B26083  30.969  36.945   8.555
 7437POPC   C2B26084  30.980  36.974   8.255
 7437POPC   C3B26085  30.985  36.984   7.955
 7437POPC   C4B26086  30.941  36.896   7.655
 7438POPC   NC326087  24.519  29.113   9.455
 7438POPC   PO426088  24.480  29.101   9.155
 7438POPC   GL126089  24.469  29.100   8.855
 7438POPC   GL226090  24.565  29.179   8.855
 7438POPC   C1A26091  24.504  29.156   8.555
 7438POPC   D2A26092  24.518  29.164   8.255
 7438POPC   C3A26093  24.534  29.180   7.955
 7438POPC   C4A26094  24.517  29.106   7.655
 7438POPC   C1B26095  24.727  29.116   8.555
 7438POPC   C2B26096  24.701  29.087   8.255
 7438POPC   C3B26097  24.713  29.169   7.955
 7438POPC   C4B26098  24.746  29.086   7.655
 7439POPC   NC326099  12.825   1.240   9.455
 7439POPC   PO426100  12.847   1.226   9.155
 7439POPC   GL126101  12.804   1.230   8.855
 7439POPC   GL226102  12.894   1.311   8.855
 7439POPC   C1A26103  12.811   1.212   8.555
 7439POPC   D2A26104  12.835   1.169   8.255
 7439POPC   C3A26105  12.819   1.191   7.955
 7439POPC   C4A26106  12.875   1.213   7.655
 7439POPC   C1B26107  13.005   1.416   8.555
 7439POPC   C2B26108  12.918   1.419   8.255
 7439POPC   C3B26109  12.920   1.474   7.955
 7439POPC   C4B26110  12.922   1.467   7.655
 7440POPC   NC326111  21.339  26.086   9.455
 7440POPC   PO426112  21.429  26.047   9.155
 7440POPC   GL126113  21.362  26.091   8.855
 7440POPC   GL226114  21.352  25.878   8.855
 7440POPC   C1A26115  21.393  26.002   8.555
 7440POPC   D2A26116  21.416  26.033   8.255
 7440POPC   C3A26117  21.386  26.010   7.955
 7440POPC   C4A26118  21.426  26.034   7.655
 7440POPC   C1B26119  21.335  25.829   8.555
 7440POPC   C2B26120  21.371  25.806   8.255
 7440POPC   C3B26121  21.341  25.767   7.955
 7440POPC   C4B26122  21.361  25.751   7.655
 7441POPC   NC326123  26.793  38.416   9.455
 7441POPC   PO426124  26.789  38.505   9.155
 7441POPC   GL126125  26.780  38.408   8.855
 7441POPC   GL226126  26.807  38.577   8.855
 7441POPC   C1A26127  26.775  38.478   8.555
 7441POPC   D2A26128  26.844  38.426   8.255
 7441POPC   C3A26129  26.852  38.498   7.955
 7441POPC   C4A26130  26.851  38.426   7.655
 7441POPC   C1B26131  26.667  38.684   8.555
 7441POPC   C2B26132  26.671  38.659   8.255
 7441POPC   C3B26133  26.678  38.681   7.955
 7441POPC   C4B26134  26.725  38.629   7.655
 7442POPC   NC326135  44.673   1.210   9.455
 7442POPC   PO426136  44.706   1.228   9.155
 7442POPC   GL126137  44.663   1.182   8.855
 7442POPC   GL226138  44.682   1.352   8.855
 7442POPC   C1A26139  44.671   1.230   8.555
 7442POPC   D2A26140  44.623   1.178   8.255
 7442POPC   C3A26141  44.643   1.174   7.955
 7442POPC   C4A26142  44.639   1.202   7.655
 7442POPC   C1B26143  44.693   1.506   8.555
 7442POPC   C2B26144  44.632   1.417   8.255
 7442POPC   C3B26145  44.631   1.488   7.955
 7442POPC   C4B26146  44.671   1.453   7.655
 7443POPC   NC326147  27.629  18.320   9.455
 7443POPC   PO426148  27.572  18.245   9.155
 7443POPC   GL126149  27.634  18.293   8.855
 7443POPC   GL226150  27.666  18.292   8.855
 7443POPC   C1A26151  27.613  18.282   8.555
 7443POPC   D2A26152  27.630  18.279   8.255
 7443POPC   C3A26153  27.638  18.279   7.955
 7443POPC   C4A26154  27.552  18.234   7.655
 7443POPC   C1B26155  27.816  18.360   8.555
 7443POPC   C2B26156  27.799  18.381   8.255
 7443POPC   C3B26157  27.831  18.389   7.955
 7443POPC   C4B26158  27.867  18.293   7.655
 7444POPC   NC326159   9.740  23.730   9.455
 7444POPC   PO426160   9.735  23.725   9.155
 7444POPC   GL126161   9.732  23.758   8.855
 7444POPC   GL226162   9.840  23.760   8.855
 7444POPC   C1A26163   9.726  23.747   8.555
 7444POPC   D2A26164   9.713  23.687   8.255
 7444POPC   C3A26165   9.736  23.718   7.955
 7444POPC   C4A26166   9.725  23.683   7.655
 7444POPC   C1B26167  10.011  23.722   8.555
 7444POPC   C2B26168   9.953  23.676   8.255
 7444POPC   C3B26169  10.003  23.746   7.955
 7444POPC   C4B26170  10.009  23.681   7.655
 7445POPC   NC326171  26.856   2.811   9.455
 7445POPC   PO426172  26.809   2.795   9.155
 7445POPC   GL126173  26.807   2.815   8.855
 7445POPC   GL226174  26.727   2.893   8.855
 7445POPC   C1A26175  26.791   2.724   8.555
 7445POPC   D2A26176  26.835   2.739   8.255
 7445POPC   C3A26177  26.797   2.760   7.955
 7445POPC   C4A26178  26.772   2.778   7.655
 7445POPC   C1B26179  26.701   2.924   8.555
 7445POPC   C2B26180  26.688   2.907   8.255
 7445POPC   C3B26181  26.612   2.952   7.955
 7445POPC   C4B26182  26.630   2.957   7.655
 7446POPC   NC326183   4.289   8.172   9.455
 7446POPC   PO426184   4.286   8.246   9.155
 7446POPC   GL126185   4.302   8.219   8.855
 7446POPC   GL226186   4.237   8.106   8.855
 7446POPC   C1A26187   4.287   8.201   8.555
 7446POPC   D2A26188   4.274   8.184   8.255
 7446POPC   C3A26189   4.271   8.162   7.955
 7446POPC   C4A26190   4.340   8.163   7.655
 7446POPC   C1B26191   4.125   8.061   8.555
 7446POPC   C2B26192   4.148   8.076   8.255
 7446POPC   C3B26193   4.152   8.101   7.955
 7446POPC   C4B26194   4.130   8.085   7.655
 7447POPC   NC326195  33.061  15.166   9.455
 7447POPC   PO426196  32.995  15.153   9.155
 7447POPC   GL126197  33.019  15.186   8.855
 7447POPC   GL226198  33.181  15.265   8.855
 7447POPC   C1A26199  33.043  15.205   8.555
 7447POPC   D2A26200  33.047  15.159   8.255
 7447POPC   C3A26201  33.017  15.205   7.955
 7447POPC   C4A26202  33.035  15.163   7.655
 7447POPC   C1B26203  33.292  15.305   8.555
 7447POPC   C2B26204  33.238  15.242   8.255
 7447POPC   C3B26205  33.220  15.274   7.955
 7447POPC   C4B26206  33.274  15.302   7.655
 7448POPC   NC326207  18.327  29.935   9.455
 7448POPC   PO426208  18.248  29.964   9.155
 7448POPC   GL126209  18.295  29.881   8.855
 7448POPC   GL226210  18.329  29.843   8.855
 7448POPC   C1A26211  18.304  29.918   8.555
 7448POPC   D2A26212  18.276  29.904   8.255
 7448POPC   C3A26213  18.247  29.970   7.955
 7448POPC   C4A26214  18.261  29.886   7.655
 7448POPC   C1B26215  18.323  29.715   8.555
 7448POPC   C2B26216  18.295  29.681   8.255
 7448POPC   C3B26217  18.278  29.640   7.955
 7448POPC   C4B26218  18.243  29.702   7.655
 7449POPC   NC326219   1.192   3.590   9.455
 7449POPC   PO426220   1.235   3.516   9.155
 7449POPC   GL126221   1.264   3.517   8.855
 7449POPC   GL226222   1.282   3.629   8.855
 7449POPC   C1A26223   1.200   3.502   8.555
 7449POPC   D2A26224   1.210   3.539   8.255
 7449POPC   C3A26225   1.192   3.524   7.955
 7449POPC   C4A26226   1.194   3.583   7.655
 7449POPC   C1B26227   1.398   3.659   8.555
 7449POPC   C2B26228   1.422   3.638   8.255
 7449POPC   C3B26229   1.383   3.628   7.955
 7449POPC   C4B26230   1.379   3.721   7.655
 7450POPC   NC326231   9.706   7.437   9.455
 7450POPC   PO426232   9.731   7.411   9.155
 7450POPC   GL126233   9.759   7.377   8.855
 7450POPC   GL226234   9.831   7.481   8.855
 7450POPC   C1A26235   9.720   7.433   8.555
 7450POPC   D2A26236   9.768   7.444   8.255
 7450POPC   C3A26237   9.753   7.390   7.955
 7450POPC   C4A26238   9.699   7.414   7.655
 7450POPC   C1B26239   9.956   7.603   8.555
 7450POPC   C2B26240   9.953   7.540   8.255
 7450POPC   C3B26241   9.940   7.596   7.955
 7450POPC   C4B26242   9.965   7.553   7.655
 7451POPC   NC326243  16.003  23.731   9.455
 7451POPC   PO426244  15.984  23.746   9.155
 7451POPC   GL126245  15.949  23.672   8.855
 7451POPC   GL226246  15.921  23.568   8.855
 7451POPC   C1A26247  15.984  23.719   8.555
 7451POPC   D2A26248  15.936  23.675   8.255
 7451POPC   C3A26249  15.969  23.738   7.955
 7451POPC   C4A26250  15.938  23.730   7.655
 7451POPC   C1B26251  15.935  23.447   8.555
 7451POPC   C2B26252  15.980  23.515   8.255
 7451POPC   C3B26253  15.938  23.442   7.955
 7451POPC   C4B26254  16.026  23.508   7.655
 7452POPC   NC326255  16.716  12.034   9.455
 7452POPC   PO426256  16.743  12.120   9.155
 7452POPC   GL126257  16.749  12.052   8.855
 7452POPC   GL226258  16.709  12.010   8.855
 7452POPC   C1A26259  16.690  12.091   8.555
 7452POPC   D2A26260  16.774  12.052   8.255
 7452POPC   C3A26261  16.695  12.090   7.955
 7452POPC   C4A26262  16.748  12.100   7.655
 7452POPC   C1B26263  16.574  11.899   8.555
 7452POPC   C2B26264  16.625  11.888   8.255
 7452POPC   C3B26265  16.595  11.896   7.955
 7452POPC   C4B26266  16.641  11.828   7.655
 7453POPC   NC326267  27.636  42.295   9.455
 7453POPC   PO426268  27.635  42.335   9.155
 7453POPC   GL126269  27.580  42.318   8.855
 7453POPC   GL226270  27.756  42.391   8.855
 7453POPC   C1A26271  27.617  42.333   8.555
 7453POPC   D2A26272  27.588  42.362   8.255
 7453POPC   C3A26273  27.581  42.311   7.955
 7453POPC   C4A26274  27.633  42.332   7.655
 7453POPC   C1B26275  27.810  42.399   8.555
 7453POPC   C2B26276  27.865  42.413   8.255
 7453POPC   C3B26277  27.885  42.392   7.955
 7453POPC   C4B26278  27.852  42.325   7.655
 7454POPC   NC326279   0.441   6.687   9.455
 7454POPC   PO426280   0.400   6.631   9.155
 7454POPC   GL126281   0.430   6.635   8.855
 7454POPC   GL226282   0.309   6.562   8.855
 7454POPC   C1A26283   0.409   6.638   8.555
 7454POPC   D2A26284   0.461   6.657   8.255
 7454POPC   C3A26285   0.457   6.627   7.955
 7454POPC   C4A26286   0.423   6.622   7.655
 7454POPC   C1B26287   0.229   6.566   8.555
 7454POPC   C2B26288   0.232   6.587   8.255
 7454POPC   C3B26289   0.173   6.543   7.955
 7454POPC   C4B26290   0.240   6.581   7.655
 7455POPC   NC326291   3.539  43.901   9.455
 7455POPC   PO426292   3.576  43.847   9.155
 7455POPC   GL126293   3.587  43.856   8.855
 7455POPC   GL226294   3.545  43.811   8.855
 7455POPC   C1A26295   3.518  43.911   8.555
 7455POPC   D2A26296   3.581  43.883   8.255
 7455POPC   C3A26297   3.554  43.891   7.955
 7455POPC   C4A26298   3.538  43.843   7.655
 7455POPC   C1B26299   3.540  43.618   8.555
 7455POPC   C2B26300   3.492  43.647   8.255
 7455POPC   C3B26301   3.469  43.677   7.955
 7455POPC   C4B26302   3.529  43.646   7.655
 7456POPC   NC326303  12.863  28.325   9.455
 7456POPC   PO426304  12.866  28.405   9.155
 7456POPC   GL126305  12.888  28.364   8.855
 7456POPC   GL226306  12.930  28.295   8.855
 7456POPC   C1A26307  12.849  28.403   8.555
 7456POPC   D2A26308  12.849  28.349   8.255
 7456POPC   C3A26309  12.894  28.350   7.955
 7456POPC   C4A26310  12.819  28.357   7.655
 7456POPC   C1B26311  12.923  28.117   8.555
 7456POPC   C2B26312  12.936  28.134   8.255
 7456POPC   C3B26313  12.936  28.134   7.955
 7456POPC   C4B26314  12.951  28.139   7.655
 7457POPC   NC326315  24.520  38.442   9.455
 7457POPC   PO426316  24.521  38.418   9.155
 7457POPC   GL126317  24.453  38.410   8.855
 7457POPC   GL226318  24.585  38.487   8.855
 7457POPC   C1A26319  24.531  38.467   8.555
 7457POPC   D2A26320  24.448  38.478   8.255
 7457POPC   C3A26321  24.494  38.465   7.955
 7457POPC   C4A26322  24.508  38.410   7.655
 7457POPC   C1B26323  24.774  38.531   8.555
 7457POPC   C2B26324  24.703  38.462   8.255
 7457POPC   C3B26325  24.720  38.542   7.955
 7457POPC   C4B26326  24.689  38.544   7.655
 7458POPC   NC326327  11.331   1.940   9.455
 7458POPC   PO426328  11.328   1.963   9.155
 7458POPC   GL126329  11.347   2.027   8.855
 7458POPC   GL226330  11.292   2.143   8.855
 7458POPC   C1A26331  11.301   1.980   8.555
 7458POPC   D2A26332  11.349   2.016   8.255
 7458POPC   C3A26333  11.287   2.030   7.955
 7458POPC   C4A26334  11.293   1.960   7.655
 7458POPC   C1B26335  11.233   2.180   8.555
 7458POPC   C2B26336  11.182   2.230   8.255
 7458POPC   C3B26337  11.163   2.200   7.955
 7458POPC   C4B26338  11.171   2.242   7.655
 7459POPC   NC326339  40.789  11.348   9.455
 7459POPC   PO426340  40.809  11.348   9.155
 7459POPC   GL126341  40.744  11.295   8.855
 7459POPC   GL226342  40.703  11.171   8.855
 7459POPC   C1A26343  40.825  11.277   8.555
 7459POPC   D2A26344  40.820  11.317   8.255
 7459POPC   C3A26345  40.734  11.263   7.955
 7459POPC   C4A26346  40.759  11.310   7.655
 7459POPC   C1B26347  40.737  11.043   8.555
 7459POPC   C2B26348  40.765  11.099   8.255
 7459POPC   C3B26349  40.758  11.038   7.955
 7459POPC   C4B26350  40.725  11.011   7.655
 7460POPC   NC326351   6.683  32.983   9.455
 7460POPC   PO426352   6.687  33.043   9.155
 7460POPC   GL126353   6.657  33.068   8.855
 7460POPC   GL226354   6.560  32.912   8.855
 7460POPC   C1A26355   6.631  32.978   8.555
 7460POPC   D2A26356   6.632  33.070   8.255
 7460POPC   C3A26357   6.690  33.027   7.955
 7460POPC   C4A26358   6.603  32.978   7.655
 7460POPC   C1B26359   6.496  32.814   8.555
 7460POPC   C2B26360   6.526  32.792   8.255
 7460POPC   C3B26361   6.553  32.810   7.955
 7460POPC   C4B26362   6.471  32.843   7.655
 7461POPC   NC326363   7.455   9.714   9.455
 7461POPC   PO426364   7.379   9.707   9.155
 7461POPC   GL126365   7.437   9.780   8.855
 7461POPC   GL226366   7.286   9.791   8.855
 7461POPC   C1A26367   7.383   9.759   8.555
 7461POPC   D2A26368   7.429   9.717   8.255
 7461POPC   C3A26369   7.438   9.765   7.955
 7461POPC   C4A26370   7.457   9.754   7.655
 7461POPC   C1B26371   7.203   9.851   8.555
 7461POPC   C2B26372   7.207   9.929   8.255
 7461POPC   C3B26373   7.204   9.875   7.955
 7461POPC   C4B26374   7.205   9.867   7.655
 7462POPC   NC326375   0.463  15.197   9.455
 7462POPC   PO426376   0.472  15.198   9.155
 7462POPC   GL126377   0.388  15.168   8.855
 7462POPC   GL226378   0.302  15.293   8.855
 7462POPC   C1A26379   0.390  15.211   8.555
 7462POPC   D2A26380   0.449  15.182   8.255
 7462POPC   C3A26381   0.417  15.206   7.955
 7462POPC   C4A26382   0.466  15.228   7.655
 7462POPC   C1B26383   0.291  15.325   8.555
 7462POPC   C2B26384   0.249  15.377   8.255
 7462POPC   C3B26385   0.298  15.368   7.955
 7462POPC   C4B26386   0.224  15.345   7.655
 7463POPC   NC326387   5.090  44.696   9.455
 7463POPC   PO426388   5.047  44.670   9.155
 7463POPC   GL126389   5.099  44.617   8.855
 7463POPC   GL226390   5.148  44.585   8.855
 7463POPC   C1A26391   5.131  44.670   8.555
 7463POPC   D2A26392   5.077  44.642   8.255
 7463POPC   C3A26393   5.053  44.657   7.955
 7463POPC   C4A26394   5.060  44.636   7.655
 7463POPC   C1B26395   5.216  44.402   8.555
 7463POPC   C2B26396   5.226  44.433   8.255
 7463POPC   C3B26397   5.208  44.456   7.955
 7463POPC   C4B26398   5.219  44.481   7.655
 7464POPC   NC326399  17.478  24.443   9.455
 7464POPC   PO426400  17.530  24.470   9.155
 7464POPC   GL126401  17.537  24.484   8.855
 7464POPC   GL226402  17.623  24.550   8.855
 7464POPC   C1A26403  17.487  24.480   8.555
 7464POPC   D2A26404  17.467  24.440   8.255
 7464POPC   C3A26405  17.466  24.529   7.955
 7464POPC   C4A26406  17.465  24.523   7.655
 7464POPC   C1B26407  17.645  24.673   8.555
 7464POPC   C2B26408  17.655  24.646   8.255
 7464POPC   C3B26409  17.675  24.635   7.955
 7464POPC   C4B26410  17.672  24.636   7.655
 7465POPC   NC326411  40.020   8.154   9.455
 7465POPC   PO426412  40.028   8.241   9.155
 7465POPC   GL126413  40.018   8.245   8.855
 7465POPC   GL226414  39.923   8.204   8.855
 7465POPC   C1A26415  40.023   8.180   8.555
 7465POPC   D2A26416  40.013   8.215   8.255
 7465POPC   C3A26417  39.980   8.175   7.955
 7465POPC   C4A26418  40.028   8.230   7.655
 7465POPC   C1B26419  39.788   8.117   8.555
 7465POPC   C2B26420  39.793   8.151   8.255
 7465POPC   C3B26421  39.809   8.132   7.955
 7465POPC   C4B26422  39.793   8.110   7.655
 7466POPC   NC326423  15.942   2.807   9.455
 7466POPC   PO426424  15.923   2.801   9.155
 7466POPC   GL126425  15.906   2.740   8.855
 7466POPC   GL226426  15.829   2.891   8.855
 7466POPC   C1A26427  15.931   2.738   8.555
 7466POPC   D2A26428  15.934   2.737   8.255
 7466POPC   C3A26429  15.920   2.805   7.955
 7466POPC   C4A26430  15.975   2.790   7.655
 7466POPC   C1B26431  15.732   2.880   8.555
 7466POPC   C2B26432  15.802   2.945   8.255
 7466POPC   C3B26433  15.726   2.893   7.955
 7466POPC   C4B26434  15.757   2.927   7.655
 7467POPC   NC326435   4.287   6.632   9.455
 7467POPC   PO426436   4.277   6.604   9.155
 7467POPC   GL126437   4.341   6.640   8.855
 7467POPC   GL226438   4.369   6.541   8.855
 7467POPC   C1A26439   4.364   6.630   8.555
 7467POPC   D2A26440   4.279   6.620   8.255
 7467POPC   C3A26441   4.317   6.682   7.955
 7467POPC   C4A26442   4.294   6.683   7.655
 7467POPC   C1B26443   4.421   6.426   8.555
 7467POPC   C2B26444   4.438   6.421   8.255
 7467POPC   C3B26445   4.440   6.461   7.955
 7467POPC   C4B26446   4.418   6.446   7.655
 7468POPC   NC326447  18.277   8.963   9.455
 7468POPC   PO426448  18.324   8.999   9.155
 7468POPC   GL126449  18.240   8.964   8.855
 7468POPC   GL226450  18.153   8.930   8.855
 7468POPC   C1A26451  18.318   9.020   8.555
 7468POPC   D2A26452  18.290   8.978   8.255
 7468POPC   C3A26453  18.296   9.006   7.955
 7468POPC   C4A26454  18.293   8.986   7.655
 7468POPC   C1B26455  18.032   8.937   8.555
 7468POPC   C2B26456  18.000   8.982   8.255
 7468POPC   C3B26457  18.007   8.972   7.955
 7468POPC   C4B26458  18.008   8.950   7.655
 7469POPC   NC326459   6.632  44.628   9.455
 7469POPC   PO426460   6.597  44.709   9.155
 7469POPC   GL126461   6.648  44.704   8.855
 7469POPC   GL226462   6.587  44.786   8.855
 7469POPC   C1A26463   6.646  44.707   8.555
 7469POPC   D2A26464   6.643  44.633   8.255
 7469POPC   C3A26465   6.597  44.704   7.955
 7469POPC   C4A26466   6.666  44.657   7.655
 7469POPC   C1B26467   6.483  44.879   8.555
 7469POPC   C2B26468   6.488  44.850   8.255
 7469POPC   C3B26469   6.504  44.891   7.955
 7469POPC   C4B26470   6.517  44.866   7.655
 7470POPC   NC326471  43.923  11.276   9.455
 7470POPC   PO426472  43.886  11.271   9.155
 7470POPC   GL126473  43.893  11.279   8.855
 7470POPC   GL226474  43.814  11.200   8.855
 7470POPC   C1A26475  43.926  11.316   8.555
 7470POPC   D2A26476  43.918  11.330   8.255
 7470POPC   C3A26477  43.908  11.255   7.955
 7470POPC   C4A26478  43.870  11.342   7.655
 7470POPC   C1B26479  43.667  11.166   8.555
 7470POPC   C2B26480  43.677  11.224   8.255
 7470POPC   C3B26481  43.627  11.232   7.955
 7470POPC   C4B26482  43.662  11.204   7.655
 7471POPC   NC326483  34.605  10.526   9.455
 7471POPC   PO426484  34.535  10.532   9.155
 7471POPC   GL126485  34.568  10.511   8.855
 7471POPC   GL226486  34.570  10.649   8.855
 7471POPC   C1A26487  34.530  10.506   8.555
 7471POPC   D2A26488  34.579  10.503   8.255
 7471POPC   C3A26489  34.541  10.507   7.955
 7471POPC   C4A26490  34.581  10.560   7.655
 7471POPC   C1B26491  34.545  10.807   8.555
 7471POPC   C2B26492  34.604  10.770   8.255
 7471POPC   C3B26493  34.593  10.734   7.955
 7471POPC   C4B26494  34.565  10.795   7.655
 7472POPC   NC326495  12.059  12.866   9.455
 7472POPC   PO426496  12.046  12.811   9.155
 7472POPC   GL126497  12.062  12.816   8.855
 7472POPC   GL226498  11.948  12.818   8.855
 7472POPC   C1A26499  12.111  12.870   8.555
 7472POPC   D2A26500  12.046  12.866   8.255
 7472POPC   C3A26501  12.093  12.831   7.955
 7472POPC   C4A26502  12.044  12.832   7.655
 7472POPC   C1B26503  11.858  12.799   8.555
 7472POPC   C2B26504  11.854  12.781   8.255
 7472POPC   C3B26505  11.858  12.834   7.955
 7472POPC   C4B26506  11.843  12.794   7.655
 7473POPC   NC326507   3.575   2.737   9.455
 7473POPC   PO426508   3.566   2.794   9.155
 7473POPC   GL126509   3.579   2.743   8.855
 7473POPC   GL226510   3.646   2.784   8.855
 7473POPC   C1A26511   3.568   2.779   8.555
 7473POPC   D2A26512   3.549   2.751   8.255
 7473POPC   C3A26513   3.495   2.765   7.955
 7473POPC   C4A26514   3.546   2.731   7.655
 7473POPC   C1B26515   3.836   2.824   8.555
 7473POPC   C2B26516   3.826   2.806   8.255
 7473POPC   C3B26517   3.799   2.784   7.955
 7473POPC   C4B26518   3.827   2.829   7.655
 7474POPC   NC326519  10.535   3.541   9.455
 7474POPC   PO426520  10.528   3.574   9.155
 7474POPC   GL126521  10.566   3.510   8.855
 7474POPC   GL226522  10.637   3.552   8.855
 7474POPC   C1A26523  10.507   3.563   8.555
 7474POPC   D2A26524  10.486   3.566   8.255
 7474POPC   C3A26525  10.532   3.574   7.955
 7474POPC   C4A26526  10.534   3.582   7.655
 7474POPC   C1B26527  10.758   3.578   8.555
 7474POPC   C2B26528  10.794   3.581   8.255
 7474POPC   C3B26529  10.739   3.598   7.955
 7474POPC   C4B26530  10.776   3.614   7.655
 7475POPC   NC326531  33.067  26.060   9.455
 7475POPC   PO426532  32.985  26.000   9.155
 7475POPC   GL126533  32.990  26.071   8.855
 7475POPC   GL226534  32.914  26.084   8.855
 7475POPC   C1A26535  33.021  26.075   8.555
 7475POPC   D2A26536  33.056  26.032   8.255
 7475POPC   C3A26537  33.053  26.059   7.955
 7475POPC   C4A26538  33.049  26.045   7.655
 7475POPC   C1B26539  32.765  26.019   8.555
 7475POPC   C2B26540  32.737  26.028   8.255
 7475POPC   C3B26541  32.771  26.054   7.955
 7475POPC   C4B26542  32.824  26.073   7.655
 7476POPC   NC326543  19.108  16.690   9.455
 7476POPC   PO426544  19.089  16.690   9.155
 7476POPC   GL126545  19.045  16.743   8.855
 7476POPC   GL226546  19.075  16.899   8.855
 7476POPC   C1A26547  19.061  16.773   8.555
 7476POPC   D2A26548  19.051  16.690   8.255
 7476POPC   C3A26549  19.083  16.724   7.955
 7476POPC   C4A26550  19.041  16.699   7.655
 7476POPC   C1B26551  19.016  16.948   8.555
 7476POPC   C2B26552  19.095  17.011   8.255
 7476POPC   C3B26553  19.064  17.000   7.955
 7476POPC   C4B26554  19.045  16.967   7.655
 7477POPC   NC326555  39.243   8.987   9.455
 7477POPC   PO426556  39.254   8.995   9.155
 7477POPC   GL126557  39.253   8.988   8.855
 7477POPC   GL226558  39.152   8.881   8.855
 7477POPC   C1A26559  39.208   8.970   8.555
 7477POPC   D2A26560  39.195   8.926   8.255
 7477POPC   C3A26561  39.221   8.964   7.955
 7477POPC   C4A26562  39.260   9.013   7.655
 7477POPC   C1B26563  39.001   8.871   8.555
 7477POPC   C2B26564  39.037   8.864   8.255
 7477POPC   C3B26565  39.030   8.875   7.955
 7477POPC   C4B26566  39.002   8.812   7.655
 7478POPC   NC326567  38.417  37.630   9.455
 7478POPC   PO426568  38.493  37.727   9.155
 7478POPC   GL126569  38.474  37.728   8.855
 7478POPC   GL226570  38.375  37.824   8.855
 7478POPC   C1A26571  38.408  37.711   8.555
 7478POPC   D2A26572  38.410  37.726   8.255
 7478POPC   C3A26573  38.498  37.664   7.955
 7478POPC   C4A26574  38.463  37.670   7.655
 7478POPC   C1B26575  38.288  37.933   8.555
 7478POPC   C2B26576  38.373  37.947   8.255
 7478POPC   C3B26577  38.356  37.892   7.955
 7478POPC   C4B26578  38.350  37.945   7.655
 7479POPC   NC326579  16.751  15.944   9.455
 7479POPC   PO426580  16.681  15.973   9.155
 7479POPC   GL126581  16.715  15.990   8.855
 7479POPC   GL226582  16.655  15.910   8.855
 7479POPC   C1A26583  16.752  15.973   8.555
 7479POPC   D2A26584  16.704  15.985   8.255
 7479POPC   C3A26585  16.706  15.983   7.955
 7479POPC   C4A26586  16.762  15.978   7.655
 7479POPC   C1B26587  16.515  15.818   8.555
 7479POPC   C2B26588  16.513  15.817   8.255
 7479POPC   C3B26589  16.539  15.834   7.955
 7479POPC   C4B26590  16.504  15.835   7.655
 7480POPC   NC326591  33.018  44.706   9.455
 7480POPC   PO426592  32.987  44.614   9.155
 7480POPC   GL126593  33.034  44.703   8.855
 7480POPC   GL226594  33.099  44.585   8.855
 7480POPC   C1A26595  33.023  44.645   8.555
 7480POPC   D2A26596  32.983  44.665   8.255
 7480POPC   C3A26597  32.979  44.624   7.955
 7480POPC   C4A26598  33.074  44.634   7.655
 7480POPC   C1B26599  33.245  44.501   8.555
 7480POPC   C2B26600  33.234  44.506   8.255
 7480POPC   C3B26601  33.199  44.477   7.955
 7480POPC   C4B26602  33.188  44.502   7.655
 7481POPC   NC326603   8.213  28.352   9.455
 7481POPC   PO426604   8.238  28.396   9.155
 7481POPC   GL126605   8.154  28.402   8.855
 7481POPC   GL226606   8.135  28.242   8.855
 7481POPC   C1A26607   8.225  28.326   8.555
 7481POPC   D2A26608   8.207  28.353   8.255
 7481POPC   C3A26609   8.151  28.319   7.955
 7481POPC   C4A26610   8.218  28.326   7.655
 7481POPC   C1B26611   7.992  28.159   8.555
 7481POPC   C2B26612   8.037  28.139   8.255
 7481POPC   C3B26613   8.024  28.174   7.955
 7481POPC   C4B26614   8.007  28.130   7.655
 7482POPC   NC326615   0.435   5.833   9.455
 7482POPC   PO426616   0.397   5.887   9.155
 7482POPC   GL126617   0.464   5.911   8.855
 7482POPC   GL226618   0.301   5.826   8.855
 7482POPC   C1A26619   0.447   5.848   8.555
 7482POPC   D2A26620   0.430   5.876   8.255
 7482POPC   C3A26621   0.454   5.895   7.955
 7482POPC   C4A26622   0.482   5.864   7.655
 7482POPC   C1B26623   0.150   5.816   8.555
 7482POPC   C2B26624   0.208   5.793   8.255
 7482POPC   C3B26625   0.192   5.790   7.955
 7482POPC   C4B26626   0.153   5.802   7.655
 7483POPC   NC326627   6.685  26.817   9.455
 7483POPC   PO426628   6.635  26.788   9.155
 7483POPC   GL126629   6.677  26.815   8.855
 7483POPC   GL226630   6.520  26.855   8.855
 7483POPC   C1A26631   6.598  26.802   8.555
 7483POPC   D2A26632   6.692  26.789   8.255
 7483POPC   C3A26633   6.596  26.825   7.955
 7483POPC   C4A26634   6.636  26.841   7.655
 7483POPC   C1B26635   6.430  26.928   8.555
 7483POPC   C2B26636   6.366  26.956   8.255
 7483POPC   C3B26637   6.452  26.927   7.955
 7483POPC   C4B26638   6.447  26.960   7.655
 7484POPC   NC326639  35.324  42.370   9.455
 7484POPC   PO426640  35.368  42.381   9.155
 7484POPC   GL126641  35.398  42.300   8.855
 7484POPC   GL226642  35.365  42.177   8.855
 7484POPC   C1A26643  35.338  42.360   8.555
 7484POPC   D2A26644  35.344  42.362   8.255
 7484POPC   C3A26645  35.348  42.303   7.955
 7484POPC   C4A26646  35.373  42.336   7.655
 7484POPC   C1B26647  35.311  42.129   8.555
 7484POPC   C2B26648  35.338  42.100   8.255
 7484POPC   C3B26649  35.378  42.057   7.955
 7484POPC   C4B26650  35.361  42.091   7.655
 7485POPC   NC326651  13.586  29.922   9.455
 7485POPC   PO426652  13.595  29.881   9.155
 7485POPC   GL126653  13.593  29.912   8.855
 7485POPC   GL226654  13.512  29.894   8.855
 7485POPC   C1A26655  13.593  29.963   8.555
 7485POPC   D2A26656  13.646  29.957   8.255
 7485POPC   C3A26657  13.643  29.920   7.955
 7485POPC   C4A26658  13.668  29.895   7.655
 7485POPC   C1B26659  13.440  29.783   8.555
 7485POPC   C2B26660  13.366  29.745   8.255
 7485POPC   C3B26661  13.436  29.765   7.955
 7485POPC   C4B26662  13.434  29.817   7.655
 7486POPC   NC326663  17.518  15.909   9.455
 7486POPC   PO426664  17.533  15.930   9.155
 7486POPC   GL126665  17.464  15.943   8.855
 7486POPC   GL226666  17.480  15.838   8.855
 7486POPC   C1A26667  17.490  15.944   8.555
 7486POPC   D2A26668  17.463  15.962   8.255
 7486POPC   C3A26669  17.528  15.988   7.955
 7486POPC   C4A26670  17.546  15.963   7.655
 7486POPC   C1B26671  17.388  15.726   8.555
 7486POPC   C2B26672  17.420  15.756   8.255
 7486POPC   C3B26673  17.432  15.715   7.955
 7486POPC   C4B26674  17.395  15.723   7.655
 7487POPC   NC326675  28.374  18.299   9.455
 7487POPC   PO426676  28.325  18.259   9.155
 7487POPC   GL126677  28.333  18.241   8.855
 7487POPC   GL226678  28.333  18.375   8.855
 7487POPC   C1A26679  28.385  18.310   8.555
 7487POPC   D2A26680  28.399  18.307   8.255
 7487POPC   C3A26681  28.336  18.251   7.955
 7487POPC   C4A26682  28.337  18.242   7.655
 7487POPC   C1B26683  28.201  18.505   8.555
 7487POPC   C2B26684  28.187  18.526   8.255
 7487POPC   C3B26685  28.226  18.516   7.955
 7487POPC   C4B26686  28.168  18.443   7.655
 7488POPC   NC326687  16.696  18.277   9.455
 7488POPC   PO426688  16.700  18.255   9.155
 7488POPC   GL126689  16.700  18.283   8.855
 7488POPC   GL226690  16.830  18.196   8.855
 7488POPC   C1A26691  16.686  18.299   8.555
 7488POPC   D2A26692  16.766  18.326   8.255
 7488POPC   C3A26693  16.722  18.302   7.955
 7488POPC   C4A26694  16.776  18.328   7.655
 7488POPC   C1B26695  16.863  18.131   8.555
 7488POPC   C2B26696  16.870  18.061   8.255
 7488POPC   C3B26697  16.918  18.064   7.955
 7488POPC   C4B26698  16.908  18.112   7.655
 7489POPC   NC326699  38.411  41.580   9.455
 7489POPC   PO426700  38.434  41.567   9.155
 7489POPC   GL126701  38.484  41.516   8.855
 7489POPC   GL226702  38.493  41.475   8.855
 7489POPC   C1A26703  38.437  41.574   8.555
 7489POPC   D2A26704  38.505  41.532   8.255
 7489POPC   C3A26705  38.496  41.578   7.955
 7489POPC   C4A26706  38.489  41.559   7.655
 7489POPC   C1B26707  38.448  41.321   8.555
 7489POPC   C2B26708  38.480  41.262   8.255
 7489POPC   C3B26709  38.477  41.272   7.955
 7489POPC   C4B26710  38.429  41.345   7.655
 7490POPC   NC326711  37.729   0.459   9.455
 7490POPC   PO426712  37.693   0.465   9.155
 7490POPC   GL126713  37.675   0.441   8.855
 7490POPC   GL226714  37.722   0.536   8.855
 7490POPC   C1A26715  37.649   0.428   8.555
 7490POPC   D2A26716  37.718   0.409   8.255
 7490POPC   C3A26717  37.645   0.454   7.955
 7490POPC   C4A26718  37.700   0.426   7.655
 7490POPC   C1B26719  37.781   0.660   8.555
 7490POPC   C2B26720  37.692   0.635   8.255
 7490POPC   C3B26721  37.755   0.664   7.955
 7490POPC   C4B26722  37.753   0.633   7.655
 7491POPC   NC326723  24.465  20.657   9.455
 7491POPC   PO426724  24.485  20.574   9.155
 7491POPC   GL126725  24.441  20.609   8.855
 7491POPC   GL226726  24.619  20.563   8.855
 7491POPC   C1A26727  24.481  20.582   8.555
 7491POPC   D2A26728  24.446  20.592   8.255
 7491POPC   C3A26729  24.474  20.660   7.955
 7491POPC   C4A26730  24.527  20.571   7.655
 7491POPC   C1B26731  24.706  20.550   8.555
 7491POPC   C2B26732  24.715  20.532   8.255
 7491POPC   C3B26733  24.696  20.500   7.955
 7491POPC   C4B26734  24.676  20.491   7.655
 7492POPC   NC326735  18.290  15.173   9.455
 7492POPC   PO426736  18.284  15.220   9.155
 7492POPC   GL126737  18.299  15.159   8.855
 7492POPC   GL226738  18.428  15.193   8.855
 7492POPC   C1A26739  18.324  15.224   8.555
 7492POPC   D2A26740  18.268  15.220   8.255
 7492POPC   C3A26741  18.293  15.204   7.955
 7492POPC   C4A26742  18.258  15.131   7.655
 7492POPC   C1B26743  18.508  15.271   8.555
 7492POPC   C2B26744  18.519  15.279   8.255
 7492POPC   C3B26745  18.530  15.237   7.955
 7492POPC   C4B26746  18.565  15.264   7.655
 7493POPC   NC326747  11.260  15.139   9.455
 7493POPC   PO426748  11.348  15.181   9.155
 7493POPC   GL126749  11.320  15.214   8.855
 7493POPC   GL226750  11.435  15.147   8.855
 7493POPC   C1A26751  11.327  15.212   8.555
 7493POPC   D2A26752  11.309  15.229   8.255
 7493POPC   C3A26753  11.346  15.226   7.955
 7493POPC   C4A26754  11.266  15.207   7.655
 7493POPC   C1B26755  11.585  15.148   8.555
 7493POPC   C2B26756  11.511  15.090   8.255
 7493POPC   C3B26757  11.537  15.134   7.955
 7493POPC   C4B26758  11.506  15.103   7.655
 7494POPC   NC326759  31.447  36.102   9.455
 7494POPC   PO426760  31.472  36.123   9.155
 7494POPC   GL126761  31.440  36.134   8.855
 7494POPC   GL226762  31.370  36.038   8.855
 7494POPC   C1A26763  31.514  36.122   8.555
 7494POPC   D2A26764  31.487  36.098   8.255
 7494POPC   C3A26765  31.462  36.142   7.955
 7494POPC   C4A26766  31.439  36.153   7.655
 7494POPC   C1B26767  31.270  36.051   8.555
 7494POPC   C2B26768  31.282  35.989   8.255
 7494POPC   C3B26769  31.233  36.007   7.955
 7494POPC   C4B26770  31.232  35.980   7.655
 7495POPC   NC326771  22.940  16.715   9.455
 7495POPC   PO426772  22.978  16.739   9.155
 7495POPC   GL126773  22.987  16.707   8.855
 7495POPC   GL226774  23.079  16.804   8.855
 7495POPC   C1A26775  22.951  16.695   8.555
 7495POPC   D2A26776  22.892  16.710   8.255
 7495POPC   C3A26777  22.890  16.684   7.955
 7495POPC   C4A26778  22.889  16.756   7.655
 7495POPC   C1B26779  23.145  16.828   8.555
 7495POPC   C2B26780  23.160  16.897   8.255
 7495POPC   C3B26781  23.143  16.883   7.955
 7495POPC   C4B26782  23.155  16.908   7.655
 7496POPC   NC326783  40.031   7.389   9.455
 7496POPC   PO426784  40.057   7.403   9.155
 7496POPC   GL126785  40.003   7.466   8.855
 7496POPC   GL226786  39.835   7.493   8.855
 7496POPC   C1A26787  40.015   7.466   8.555
 7496POPC   D2A26788  40.002   7.404   8.255
 7496POPC   C3A26789  40.047   7.436   7.955
 7496POPC   C4A26790  39.990   7.468   7.655
 7496POPC   C1B26791  39.721   7.501   8.555
 7496POPC   C2B26792  39.806   7.424   8.255
 7496POPC   C3B26793  39.725   7.446   7.955
 7496POPC   C4B26794  39.807   7.479   7.655
 7497POPC   NC326795  25.312  43.867   9.455
 7497POPC   PO426796  25.284  43.920   9.155
 7497POPC   GL126797  25.219  43.909   8.855
 7497POPC   GL226798  25.130  43.837   8.855
 7497POPC   C1A26799  25.312  43.897   8.555
 7497POPC   D2A26800  25.224  43.876   8.255
 7497POPC   C3A26801  25.305  43.856   7.955
 7497POPC   C4A26802  25.248  43.909   7.655
 7497POPC   C1B26803  25.034  43.851   8.555
 7497POPC   C2B26804  25.042  43.850   8.255
 7497POPC   C3B26805  24.979  43.838   7.955
 7497POPC   C4B26806  24.976  43.879   7.655
 7498POPC   NC326807  19.057   2.745   9.455
 7498POPC   PO426808  19.107   2.733   9.155
 7498POPC   GL126809  19.080   2.780   8.855
 7498POPC   GL226810  19.018   2.821   8.855
 7498POPC   C1A26811  19.072   2.770   8.555
 7498POPC   D2A26812  19.012   2.749   8.255
 7498POPC   C3A26813  19.108   2.789   7.955
 7498POPC   C4A26814  19.079   2.751   7.655
 7498POPC   C1B26815  18.941   3.018   8.555
 7498POPC   C2B26816  18.944   2.991   8.255
 7498POPC   C3B26817  18.888   2.984   7.955
 7498POPC   C4B26818  18.939   2.976   7.655
 7499POPC   NC326819   7.396  44.657   9.455
 7499POPC   PO426820   7.398  44.638   9.155
 7499POPC   GL126821   7.451  44.688   8.855
 7499POPC   GL226822   7.420  44.777   8.855
 7499POPC   C1A26823   7.397  44.647   8.555
 7499POPC   D2A26824   7.386  44.703   8.255
 7499POPC   C3A26825   7.470  44.707   7.955
 7499POPC   C4A26826   7.464  44.709   7.655
 7499POPC   C1B26827   7.325  44.882   8.555
 7499POPC   C2B26828   7.335  44.913   8.255
 7499POPC   C3B26829   7.421  44.859   7.955
 7499POPC   C4B26830   7.380  44.907   7.655
 7500POPC   NC326831  44.674  19.107   9.455
 7500POPC   PO426832  44.626  19.030   9.155
 7500POPC   GL126833  44.621  19.009   8.855
 7500POPC   GL226834  44.626  19.164   8.855
 7500POPC   C1A26835  44.641  19.099   8.555
 7500POPC   D2A26836  44.643  19.025   8.255
 7500POPC   C3A26837  44.616  19.010   7.955
 7500POPC   C4A26838  44.630  19.092   7.655
 7500POPC   C1B26839  44.608  19.322   8.555
 7500POPC   C2B26840  44.609  19.269   8.255
 7500POPC   C3B26841  44.554  19.339   7.955
 7500POPC   C4B26842  44.565  19.303   7.655
 7501POPC   NC326843   1.976  43.910   9.455
 7501POPC   PO426844   1.967  43.845   9.155
 7501POPC   GL126845   2.012  43.866   8.855
 7501POPC   GL226846   1.920  43.741   8.855
 7501POPC   C1A26847   1.979  43.928   8.555
 7501POPC   D2A26848   1.951  43.922   8.255
 7501POPC   C3A26849   2.016  43.864   7.955
 7501POPC   C4A26850   1.967  43.892   7.655
 7501POPC   C1B26851   1.792  43.703   8.555
 7501POPC   C2B26852   1.849  43.707   8.255
 7501POPC   C3B26853   1.790  43.659   7.955
 7501POPC   C4B26854   1.851  43.700   7.655
 7502POPC   NC326855  35.354  24.504   9.455
 7502POPC   PO426856  35.383  24.531   9.155
 7502POPC   GL126857  35.322  24.454   8.855
 7502POPC   GL226858  35.485  24.516   8.855
 7502POPC   C1A26859  35.397  24.483   8.555
 7502POPC   D2A26860  35.396  24.468   8.255
 7502POPC   C3A26861  35.379  24.489   7.955
 7502POPC   C4A26862  35.387  24.532   7.655
 7502POPC   C1B26863  35.582  24.447   8.555
 7502POPC   C2B26864  35.570  24.458   8.255
 7502POPC   C3B26865  35.631  24.400   7.955
 7502POPC   C4B26866  35.647  24.402   7.655
 7503POPC   NC326867   3.497  26.774   9.455
 7503POPC   PO426868   3.523  26.853   9.155
 7503POPC   GL126869   3.527  26.822   8.855
 7503POPC   GL226870   3.534  26.941   8.855
 7503POPC   C1A26871   3.591  26.824   8.555
 7503POPC   D2A26872   3.527  26.819   8.255
 7503POPC   C3A26873   3.546  26.805   7.955
 7503POPC   C4A26874   3.529  26.815   7.655
 7503POPC   C1B26875   3.456  27.023   8.555
 7503POPC   C2B26876   3.528  27.096   8.255
 7503POPC   C3B26877   3.500  27.056   7.955
 7503POPC   C4B26878   3.522  27.110   7.655
 7504POPC   NC326879  38.497  29.130   9.455
 7504POPC   PO426880  38.459  29.142   9.155
 7504POPC   GL126881  38.437  29.158   8.855
 7504POPC   GL226882  38.494  29.016   8.855
 7504POPC   C1A26883  38.418  29.113   8.555
 7504POPC   D2A26884  38.418  29.163   8.255
 7504POPC   C3A26885  38.476  29.182   7.955
 7504POPC   C4A26886  38.452  29.163   7.655
 7504POPC   C1B26887  38.435  28.917   8.555
 7504POPC   C2B26888  38.517  28.869   8.255
 7504POPC   C3B26889  38.436  28.873   7.955
 7504POPC   C4B26890  38.509  28.928   7.655
 7505POPC   NC326891  22.135   7.400   9.455
 7505POPC   PO426892  22.161   7.451   9.155
 7505POPC   GL126893  22.184   7.435   8.855
 7505POPC   GL226894  22.047   7.441   8.855
 7505POPC   C1A26895  22.117   7.392   8.555
 7505POPC   D2A26896  22.198   7.449   8.255
 7505POPC   C3A26897  22.137   7.397   7.955
 7505POPC   C4A26898  22.176   7.415   7.655
 7505POPC   C1B26899  21.960   7.393   8.555
 7505POPC   C2B26900  21.866   7.362   8.255
 7505POPC   C3B26901  21.902   7.428   7.955
 7505POPC   C4B26902  21.863   7.436   7.655
 7506POPC   NC326903  25.259  19.088   9.455
 7506POPC   PO426904  25.274  19.076   9.155
 7506POPC   GL126905  25.224  19.101   8.855
 7506POPC   GL226906  25.409  19.047   8.855
 7506POPC   C1A26907  25.228  19.083   8.555
 7506POPC   D2A26908  25.230  19.107   8.255
 7506POPC   C3A26909  25.293  19.103   7.955
 7506POPC   C4A26910  25.298  19.105   7.655
 7506POPC   C1B26911  25.499  19.067   8.555
 7506POPC   C2B26912  25.547  19.098   8.255
 7506POPC   C3B26913  25.536  19.048   7.955
 7506POPC   C4B26914  25.561  19.030   7.655
 7507POPC   NC326915  29.889  34.603   9.455
 7507POPC   PO426916  29.886  34.572   9.155
 7507POPC   GL126917  29.939  34.535   8.855
 7507POPC   GL226918  29.966  34.493   8.855
 7507POPC   C1A26919  29.938  34.575   8.555
 7507POPC   D2A26920  29.947  34.551   8.255
 7507POPC   C3A26921  29.956  34.600   7.955
 7507POPC   C4A26922  29.904  34.596   7.655
 7507POPC   C1B26923  29.946  34.288   8.555
 7507POPC   C2B26924  29.951  34.289   8.255
 7507POPC   C3B26925  30.006  34.294   7.955
 7507POPC   C4B26926  29.994  34.323   7.655
 7508POPC   NC326927   2.771   6.649   9.455
 7508POPC   PO426928   2.803   6.656   9.155
 7508POPC   GL126929   2.723   6.604   8.855
 7508POPC   GL226930   2.831   6.737   8.855
 7508POPC   C1A26931   2.748   6.652   8.555
 7508POPC   D2A26932   2.718   6.622   8.255
 7508POPC   C3A26933   2.785   6.632   7.955
 7508POPC   C4A26934   2.748   6.658   7.655
 7508POPC   C1B26935   2.865   6.857   8.555
 7508POPC   C2B26936   2.871   6.859   8.255
 7508POPC   C3B26937   2.921   6.833   7.955
 7508POPC   C4B26938   2.901   6.838   7.655
 7509POPC   NC326939  40.030  12.055   9.455
 7509POPC   PO426940  40.034  12.090   9.155
 7509POPC   GL126941  39.963  12.067   8.855
 7509POPC   GL226942  39.960  12.227   8.855
 7509POPC   C1A26943  40.054  12.120   8.555
 7509POPC   D2A26944  40.023  12.062   8.255
 7509POPC   C3A26945  39.977  12.048   7.955
 7509POPC   C4A26946  40.031  12.102   7.655
 7509POPC   C1B26947  39.886  12.270   8.555
 7509POPC   C2B26948  39.938  12.359   8.255
 7509POPC   C3B26949  39.897  12.342   7.955
 7509POPC   C4B26950  39.935  12.325   7.655
 7510POPC   NC326951  40.816  19.078   9.455
 7510POPC   PO426952  40.797  19.045   9.155
 7510POPC   GL126953  40.736  19.052   8.855
 7510POPC   GL226954  40.699  19.029   8.855
 7510POPC   C1A26955  40.779  19.108   8.555
 7510POPC   D2A26956  40.818  19.077   8.255
 7510POPC   C3A26957  40.745  19.028   7.955
 7510POPC   C4A26958  40.760  19.067   7.655
 7510POPC   C1B26959  40.544  19.064   8.555
 7510POPC   C2B26960  40.557  19.033   8.255
 7510POPC   C3B26961  40.487  19.107   7.955
 7510POPC   C4B26962  40.564  19.090   7.655
 7511POPC   NC326963  36.928  18.295   9.455
 7511POPC   PO426964  36.900  18.261   9.155
 7511POPC   GL126965  36.910  18.322   8.855
 7511POPC   GL226966  37.007  18.196   8.855
 7511POPC   C1A26967  36.901  18.295   8.555
 7511POPC   D2A26968  36.916  18.298   8.255
 7511POPC   C3A26969  36.925  18.251   7.955
 7511POPC   C4A26970  36.903  18.241   7.655
 7511POPC   C1B26971  37.114  18.111   8.555
 7511POPC   C2B26972  37.163  18.113   8.255
 7511POPC   C3B26973  37.122  18.161   7.955
 7511POPC   C4B26974  37.113  18.103   7.655
 7512POPC   NC326975  34.529   1.218   9.455
 7512POPC   PO426976  34.579   1.245   9.155
 7512POPC   GL126977  34.609   1.183   8.855
 7512POPC   GL226978  34.535   1.146   8.855
 7512POPC   C1A26979  34.530   1.249   8.555
 7512POPC   D2A26980  34.566   1.193   8.255
 7512POPC   C3A26981  34.608   1.241   7.955
 7512POPC   C4A26982  34.605   1.236   7.655
 7512POPC   C1B26983  34.393   1.064   8.555
 7512POPC   C2B26984  34.404   1.018   8.255
 7512POPC   C3B26985  34.386   1.004   7.955
 7512POPC   C4B26986  34.389   1.066   7.655
 7513POPC   NC326987  13.651   5.867   9.455
 7513POPC   PO426988  13.673   5.847   9.155
 7513POPC   GL126989  13.599   5.885   8.855
 7513POPC   GL226990  13.767   5.827   8.855
 7513POPC   C1A26991  13.580   5.830   8.555
 7513POPC   D2A26992  13.609   5.855   8.255
 7513POPC   C3A26993  13.639   5.824   7.955
 7513POPC   C4A26994  13.582   5.859   7.655
 7513POPC   C1B26995  13.831   5.813   8.555
 7513POPC   C2B26996  13.863   5.778   8.255
 7513POPC   C3B26997  13.857   5.847   7.955
 7513POPC   C4B26998  13.895   5.777   7.655
 7514POPC   NC326999  28.357  40.027   9.455
 7514POPC   PO427000  28.342  40.041   9.155
 7514POPC   GL127001  28.369  40.034   8.855
 7514POPC   GL227002  28.288  39.883   8.855
 7514POPC   C1A27003  28.348  39.959   8.555
 7514POPC   D2A27004  28.359  39.960   8.255
 7514POPC   C3A27005  28.346  40.040   7.955
 7514POPC   C4A27006  28.373  39.998   7.655
 7514POPC   C1B27007  28.186  39.769   8.555
 7514POPC   C2B27008  28.268  39.846   8.255
 7514POPC   C3B27009  28.172  39.812   7.955
 7514POPC   C4B27010  28.201  39.849   7.655
 7515POPC   NC327011   8.223  39.274   9.455
 7515POPC   PO427012   8.231  39.248   9.155
 7515POPC   GL127013   8.181  39.245   8.855
 7515POPC   GL227014   8.291  39.130   8.855
 7515POPC   C1A27015   8.220  39.229   8.555
 7515POPC   D2A27016   8.209  39.265   8.255
 7515POPC   C3A27017   8.237  39.256   7.955
 7515POPC   C4A27018   8.212  39.231   7.655
 7515POPC   C1B27019   8.405  39.065   8.555
 7515POPC   C2B27020   8.344  39.069   8.255
 7515POPC   C3B27021   8.323  39.020   7.955
 7515POPC   C4B27022   8.323  39.053   7.655
 7516POPC   NC327023  15.929   7.372   9.455
 7516POPC   PO427024  15.942   7.426   9.155
 7516POPC   GL127025  15.908   7.419   8.855
 7516POPC   GL227026  15.801   7.511   8.855
 7516POPC   C1A27027  15.930   7.470   8.555
 7516POPC   D2A27028  15.915   7.450   8.255
 7516POPC   C3A27029  15.981   7.467   7.955
 7516POPC   C4A27030  15.974   7.423   7.655
 7516POPC   C1B27031  15.743   7.497   8.555
 7516POPC   C2B27032  15.684   7.556   8.255
 7516POPC   C3B27033  15.769   7.539   7.955
 7516POPC   C4B27034  15.762   7.521   7.655
 7517POPC   NC327035  15.213  12.809   9.455
 7517POPC   PO427036  15.217  12.893   9.155
 7517POPC   GL127037  15.154  12.851   8.855
 7517POPC   GL227038  15.255  12.769   8.855
 7517POPC   C1A27039  15.171  12.854   8.555
 7517POPC   D2A27040  15.195  12.861   8.255
 7517POPC   C3A27041  15.211  12.895   7.955
 7517POPC   C4A27042  15.180  12.875   7.655
 7517POPC   C1B27043  15.304  12.631   8.555
 7517POPC   C2B27044  15.324  12.584   8.255
 7517POPC   C3B27045  15.272  12.612   7.955
 7517POPC   C4B27046  15.274  12.626   7.655
 7518POPC   NC327047  22.135   8.210   9.455
 7518POPC   PO427048  22.208   8.165   9.155
 7518POPC   GL127049  22.125   8.198   8.855
 7518POPC   GL227050  22.306   8.247   8.855
 7518POPC   C1A27051  22.205   8.222   8.555
 7518POPC   D2A27052  22.173   8.221   8.255
 7518POPC   C3A27053  22.145   8.226   7.955
 7518POPC   C4A27054  22.172   8.150   7.655
 7518POPC   C1B27055  22.442   8.299   8.555
 7518POPC   C2B27056  22.370   8.218   8.255
 7518POPC   C3B27057  22.395   8.251   7.955
 7518POPC   C4B27058  22.397   8.258   7.655
 7519POPC   NC327059  20.585  26.813   9.455
 7519POPC   PO427060  20.632  26.769   9.155
 7519POPC   GL127061  20.563  26.817   8.855
 7519POPC   GL227062  20.490  26.857   8.855
 7519POPC   C1A27063  20.589  26.783   8.555
 7519POPC   D2A27064  20.659  26.826   8.255
 7519POPC   C3A27065  20.641  26.784   7.955
 7519POPC   C4A27066  20.645  26.813   7.655
 7519POPC   C1B27067  20.429  27.011   8.555
 7519POPC   C2B27068  20.441  27.016   8.255
 7519POPC   C3B27069  20.447  26.997   7.955
 7519POPC   C4B27070  20.473  27.040   7.655
 7520POPC   NC327071   5.903   1.197   9.455
 7520POPC   PO427072   5.895   1.253   9.155
 7520POPC   GL127073   5.871   1.244   8.855
 7520POPC   GL227074   5.760   1.157   8.855
 7520POPC   C1A27075   5.905   1.177   8.555
 7520POPC   D2A27076   5.858   1.256   8.255
 7520POPC   C3A27077   5.824   1.232   7.955
 7520POPC   C4A27078   5.889   1.215   7.655
 7520POPC   C1B27079   5.710   1.066   8.555
 7520POPC   C2B27080   5.737   1.019   8.255
 7520POPC   C3B27081   5.705   1.055   7.955
 7520POPC   C4B27082   5.680   1.009   7.655
 7521POPC   NC327083  13.664  26.021   9.455
 7521POPC   PO427084  13.593  26.083   9.155
 7521POPC   GL127085  13.625  26.083   8.855
 7521POPC   GL227086  13.557  25.931   8.855
 7521POPC   C1A27087  13.657  26.074   8.555
 7521POPC   D2A27088  13.603  26.036   8.255
 7521POPC   C3A27089  13.659  26.031   7.955
 7521POPC   C4A27090  13.609  26.013   7.655
 7521POPC   C1B27091  13.394  25.897   8.555
 7521POPC   C2B27092  13.406  25.932   8.255
 7521POPC   C3B27093  13.382  25.911   7.955
 7521POPC   C4B27094  13.447  25.881   7.655
 7522POPC   NC327095  40.809  26.049   9.455
 7522POPC   PO427096  40.827  26.091   9.155
 7522POPC   GL127097  40.815  26.075   8.855
 7522POPC   GL227098  40.948  25.983   8.855
 7522POPC   C1A27099  40.796  26.020   8.555
 7522POPC   D2A27100  40.787  26.049   8.255
 7522POPC   C3A27101  40.774  26.012   7.955
 7522POPC   C4A27102  40.818  26.029   7.655
 7522POPC   C1B27103  41.069  25.958   8.555
 7522POPC   C2B27104  41.040  25.924   8.255
 7522POPC   C3B27105  41.036  25.995   7.955
 7522POPC   C4B27106  41.021  26.016   7.655
 7523POPC   NC327107   7.414  31.469   9.455
 7523POPC   PO427108   7.379  31.490   9.155
 7523POPC   GL127109   7.403  31.446   8.855
 7523POPC   GL227110   7.309  31.409   8.855
 7523POPC   C1A27111   7.400  31.466   8.555
 7523POPC   D2A27112   7.428  31.458   8.255
 7523POPC   C3A27113   7.386  31.518   7.955
 7523POPC   C4A27114   7.382  31.469   7.655
 7523POPC   C1B27115   7.222  31.256   8.555
 7523POPC   C2B27116   7.271  31.317   8.255
 7523POPC   C3B27117   7.249  31.251   7.955
 7523POPC   C4B27118   7.304  31.229   7.655
 7524POPC   NC327119  14.384  22.938   9.455
 7524POPC   PO427120  14.437  22.937   9.155
 7524POPC   GL127121  14.357  22.960   8.855
 7524POPC   GL227122  14.565  22.978   8.855
 7524POPC   C1A27123  14.378  22.933   8.555
 7524POPC   D2A27124  14.428  22.920   8.255
 7524POPC   C3A27125  14.453  22.943   7.955
 7524POPC   C4A27126  14.363  22.899   7.655
 7524POPC   C1B27127  14.645  22.943   8.555
 7524POPC   C2B27128  14.620  22.900   8.255
 7524POPC   C3B27129  14.666  22.928   7.955
 7524POPC   C4B27130  14.654  22.886   7.655
 7525POPC   NC327131   4.308  13.598   9.455
 7525POPC   PO427132   4.311  13.631   9.155
 7525POPC   GL127133   4.331  13.652   8.855
 7525POPC   GL227134   4.409  13.626   8.855
 7525POPC   C1A27135   4.320  13.659   8.555
 7525POPC   D2A27136   4.281  13.645   8.255
 7525POPC   C3A27137   4.304  13.614   7.955
 7525POPC   C4A27138   4.268  13.609   7.655
 7525POPC   C1B27139   4.517  13.626   8.555
 7525POPC   C2B27140   4.608  13.588   8.255
 7525POPC   C3B27141   4.529  13.615   7.955
 7525POPC   C4B27142   4.517  13.586   7.655
 7526POPC   NC327143  23.731  12.072   9.455
 7526POPC   PO427144  23.704  12.041   9.155
 7526POPC   GL127145  23.760  12.060   8.855
 7526POPC   GL227146  23.615  12.067   8.855
 7526POPC   C1A27147  23.728  12.086   8.555
 7526POPC   D2A27148  23.757  12.118   8.255
 7526POPC   C3A27149  23.671  12.038   7.955
 7526POPC   C4A27150  23.695  12.064   7.655
 7526POPC   C1B27151  23.497  12.052   8.555
 7526POPC   C2B27152  23.491  12.082   8.255
 7526POPC   C3B27153  23.450  11.988   7.955
 7526POPC   C4B27154  23.473  12.028   7.655
 7527POPC   NC327155  43.910  42.288   9.455
 7527POPC   PO427156  43.893  42.324   9.155
 7527POPC   GL127157  43.872  42.332   8.855
 7527POPC   GL227158  43.991  42.402   8.855
 7527POPC   C1A27159  43.861  42.286   8.555
 7527POPC   D2A27160  43.907  42.286   8.255
 7527POPC   C3A27161  43.849  42.324   7.955
 7527POPC   C4A27162  43.857  42.351   7.655
 7527POPC   C1B27163  44.091  42.323   8.555
 7527POPC   C2B27164  44.087  42.415   8.255
 7527POPC   C3B27165  44.137  42.339   7.955
 7527POPC   C4B27166  44.143  42.339   7.655
 7528POPC   NC327167   0.408  12.075   9.455
 7528POPC   PO427168   0.474  12.030   9.155
 7528POPC   GL127169   0.459  12.065   8.855
 7528POPC   GL227170   0.435  12.148   8.855
 7528POPC   C1A27171   0.434  12.071   8.555
 7528POPC   D2A27172   0.449  12.107   8.255
 7528POPC   C3A27173   0.455  12.056   7.955
 7528POPC   C4A27174   0.451  12.108   7.655
 7528POPC   C1B27175   0.504  12.350   8.555
 7528POPC   C2B27176   0.514  12.307   8.255
 7528POPC   C3B27177   0.528  12.327   7.955
 7528POPC   C4B27178   0.566  12.291   7.655
 7529POPC   NC327179  38.432   1.222   9.455
 7529POPC   PO427180  38.437   1.248   9.155
 7529POPC   GL127181  38.502   1.181   8.855
 7529POPC   GL227182  38.509   1.144   8.855
 7529POPC   C1A27183  38.406   1.206   8.555
 7529POPC   D2A27184  38.453   1.263   8.255
 7529POPC   C3A27185  38.504   1.219   7.955
 7529POPC   C4A27186  38.428   1.204   7.655
 7529POPC   C1B27187  38.592   1.025   8.555
 7529POPC   C2B27188  38.595   1.056   8.255
 7529POPC   C3B27189  38.610   1.011   7.955
 7529POPC   C4B27190  38.661   1.004   7.655
 7530POPC   NC327191  27.615  16.773   9.455
 7530POPC   PO427192  27.629  16.724   9.155
 7530POPC   GL127193  27.591  16.682   8.855
 7530POPC   GL227194  27.611  16.627   8.855
 7530POPC   C1A27195  27.553  16.699   8.555
 7530POPC   D2A27196  27.554  16.726   8.255
 7530POPC   C3A27197  27.639  16.756   7.955
 7530POPC   C4A27198  27.624  16.764   7.655
 7530POPC   C1B27199  27.629  16.453   8.555
 7530POPC   C2B27200  27.655  16.525   8.255
 7530POPC   C3B27201  27.636  16.506   7.955
 7530POPC   C4B27202  27.654  16.462   7.655
 7531POPC   NC327203  41.592  23.671   9.455
 7531POPC   PO427204  41.538  23.760   9.155
 7531POPC   GL127205  41.514  23.686   8.855
 7531POPC   GL227206  41.430  23.758   8.855
 7531POPC   C1A27207  41.563  23.744   8.555
 7531POPC   D2A27208  41.606  23.749   8.255
 7531POPC   C3A27209  41.540  23.701   7.955
 7531POPC   C4A27210  41.555  23.704   7.655
 7531POPC   C1B27211  41.371  23.758   8.555
 7531POPC   C2B27212  41.303  23.756   8.255
 7531POPC   C3B27213  41.281  23.770   7.955
 7531POPC   C4B27214  41.339  23.793   7.655
 7532POPC   NC327215  12.121  31.462   9.455
 7532POPC   PO427216  12.108  31.510   9.155
 7532POPC   GL127217  12.097  31.425   8.855
 7532POPC   GL227218  12.165  31.495   8.855
 7532POPC   C1A27219  12.041  31.459   8.555
 7532POPC   D2A27220  12.031  31.515   8.255
 7532POPC   C3A27221  12.034  31.516   7.955
 7532POPC   C4A27222  12.027  31.518   7.655
 7532POPC   C1B27223  12.334  31.555   8.555
 7532POPC   C2B27224  12.270  31.589   8.255
 7532POPC   C3B27225  12.298  31.594   7.955
 7532POPC   C4B27226  12.291  31.592   7.655
 7533POPC   NC327227  29.964   9.778   9.455
 7533POPC   PO427228  29.923   9.731   9.155
 7533POPC   GL127229  29.947   9.737   8.855
 7533POPC   GL227230  29.966   9.609   8.855
 7533POPC   C1A27231  29.883   9.772   8.555
 7533POPC   D2A27232  29.896   9.754   8.255
 7533POPC   C3A27233  29.970   9.778   7.955
 7533POPC   C4A27234  29.929   9.788   7.655
 7533POPC   C1B27235  30.073   9.513   8.555
 7533POPC   C2B27236  30.006   9.490   8.255
 7533POPC   C3B27237  30.027   9.567   7.955
 7533POPC   C4B27238  29.992   9.497   7.655
 7534POPC   NC327239  35.344  40.762   9.455
 7534POPC   PO427240  35.322  40.750   9.155
 7534POPC   GL127241  35.346  40.796   8.855
 7534POPC   GL227242  35.314  40.671   8.855
 7534POPC   C1A27243  35.341  40.777   8.555
 7534POPC   D2A27244  35.311  40.771   8.255
 7534POPC   C3A27245  35.367  40.800   7.955
 7534POPC   C4A27246  35.379  40.763   7.655
 7534POPC   C1B27247  35.242  40.559   8.555
 7534POPC   C2B27248  35.235  40.539   8.255
 7534POPC   C3B27249  35.185  40.577   7.955
 7534POPC   C4B27250  35.162  40.620   7.655
 7535POPC   NC327251   3.501  12.897   9.455
 7535POPC   PO427252   3.586  12.849   9.155
 7535POPC   GL127253   3.568  12.809   8.855
 7535POPC   GL227254   3.474  12.788   8.855
 7535POPC   C1A27255   3.518  12.877   8.555
 7535POPC   D2A27256   3.512  12.874   8.255
 7535POPC   C3A27257   3.552  12.896   7.955
 7535POPC   C4A27258   3.567  12.897   7.655
 7535POPC   C1B27259   3.282  12.710   8.555
 7535POPC   C2B27260   3.342  12.720   8.255
 7535POPC   C3B27261   3.335  12.703   7.955
 7535POPC   C4B27262   3.321  12.762   7.655
 7536POPC   NC327263  12.826   3.518   9.455
 7536POPC   PO427264  12.802   3.510   9.155
 7536POPC   GL127265  12.878   3.557   8.855
 7536POPC   GL227266  12.695   3.599   8.855
 7536POPC   C1A27267  12.899   3.515   8.555
 7536POPC   D2A27268  12.832   3.550   8.255
 7536POPC   C3A27269  12.852   3.549   7.955
 7536POPC   C4A27270  12.808   3.498   7.655
 7536POPC   C1B27271  12.674   3.668   8.555
 7536POPC   C2B27272  12.619   3.637   8.255
 7536POPC   C3B27273  12.643   3.617   7.955
 7536POPC   C4B27274  12.597   3.691   7.655
 7537POPC   NC327275  38.408  21.399   9.455
 7537POPC   PO427276  38.459  21.421   9.155
 7537POPC   GL127277  38.484  21.407   8.855
 7537POPC   GL227278  38.380  21.264   8.855
 7537POPC   C1A27279  38.503  21.412   8.555
 7537POPC   D2A27280  38.489  21.435   8.255
 7537POPC   C3A27281  38.444  21.405   7.955
 7537POPC   C4A27282  38.458  21.420   7.655
 7537POPC   C1B27283  38.284  21.194   8.555
 7537POPC   C2B27284  38.298  21.232   8.255
 7537POPC   C3B27285  38.298  21.256   7.955
 7537POPC   C4B27286  38.294  21.212   7.655
 7538POPC   NC327287   2.798   9.713   9.455
 7538POPC   PO427288   2.780   9.703   9.155
 7538POPC   GL127289   2.751   9.757   8.855
 7538POPC   GL227290   2.887   9.650   8.855
 7538POPC   C1A27291   2.761   9.747   8.555
 7538POPC   D2A27292   2.798   9.728   8.255
 7538POPC   C3A27293   2.744   9.755   7.955
 7538POPC   C4A27294   2.764   9.709   7.655
 7538POPC   C1B27295   3.000   9.687   8.555
 7538POPC   C2B27296   2.990   9.639   8.255
 7538POPC   C3B27297   3.019   9.671   7.955
 7538POPC   C4B27298   3.037   9.698   7.655
 7539POPC   NC327299  36.904  22.927   9.455
 7539POPC   PO427300  36.906  22.986   9.155
 7539POPC   GL127301  36.952  22.915   8.855
 7539POPC   GL227302  37.019  22.848   8.855
 7539POPC   C1A27303  36.928  22.938   8.555
 7539POPC   D2A27304  36.872  22.985   8.255
 7539POPC   C3A27305  36.939  22.917   7.955
 7539POPC   C4A27306  36.878  22.900   7.655
 7539POPC   C1B27307  37.154  22.811   8.555
 7539POPC   C2B27308  37.155  22.833   8.255
 7539POPC   C3B27309  37.121  22.828   7.955
 7539POPC   C4B27310  37.093  22.868   7.655
 7540POPC   NC327311  37.667   9.734   9.455
 7540POPC   PO427312  37.707   9.701   9.155
 7540POPC   GL127313  37.677   9.732   8.855
 7540POPC   GL227314  37.687   9.617   8.855
 7540POPC   C1A27315  37.674   9.795   8.555
 7540POPC   D2A27316  37.670   9.784   8.255
 7540POPC   C3A27317  37.717   9.707   7.955
 7540POPC   C4A27318  37.645   9.743   7.655
 7540POPC   C1B27319  37.652   9.496   8.555
 7540POPC   C2B27320  37.628   9.462   8.255
 7540POPC   C3B27321  37.656   9.488   7.955
 7540POPC   C4B27322  37.658   9.558   7.655
 7541POPC   NC327323   8.167   0.419   9.455
 7541POPC   PO427324   8.208   0.397   9.155
 7541POPC   GL127325   8.211   0.416   8.855
 7541POPC   GL227326   8.225   0.582   8.855
 7541POPC   C1A27327   8.188   0.460   8.555
 7541POPC   D2A27328   8.199   0.415   8.255
 7541POPC   C3A27329   8.150   0.473   7.955
 7541POPC   C4A27330   8.210   0.486   7.655
 7541POPC   C1B27331   8.200   0.686   8.555
 7541POPC   C2B27332   8.201   0.737   8.255
 7541POPC   C3B27333   8.153   0.657   7.955
 7541POPC   C4B27334   8.235   0.677   7.655
 7542POPC   NC327335   7.453  39.277   9.455
 7542POPC   PO427336   7.394  39.266   9.155
 7542POPC   GL127337   7.438  39.182   8.855
 7542POPC   GL227338   7.386  39.086   8.855
 7542POPC   C1A27339   7.373  39.189   8.555
 7542POPC   D2A27340   7.382  39.253   8.255
 7542POPC   C3A27341   7.464  39.225   7.955
 7542POPC   C4A27342   7.412  39.194   7.655
 7542POPC   C1B27343   7.400  39.015   8.555
 7542POPC   C2B27344   7.451  38.973   8.255
 7542POPC   C3B27345   7.401  39.020   7.955
 7542POPC   C4B27346   7.415  38.946   7.655
 7543POPC   NC327347  26.071  43.843   9.455
 7543POPC   PO427348  26.025  43.924   9.155
 7543POPC   GL127349  26.014  43.905   8.855
 7543POPC   GL227350  26.033  43.787   8.855
 7543POPC   C1A27351  26.006  43.848   8.555
 7543POPC   D2A27352  26.039  43.860   8.255
 7543POPC   C3A27353  26.027  43.857   7.955
 7543POPC   C4A27354  25.994  43.916   7.655
 7543POPC   C1B27355  26.054  43.601   8.555
 7543POPC   C2B27356  26.070  43.658   8.255
 7543POPC   C3B27357  26.090  43.672   7.955
 7543POPC   C4B27358  26.138  43.673   7.655
 7544POPC   NC327359  39.217   5.096   9.455
 7544POPC   PO427360  39.217   5.090   9.155
 7544POPC   GL127361  39.277   5.136   8.855
 7544POPC   GL227362  39.290   5.030   8.855
 7544POPC   C1A27363  39.280   5.079   8.555
 7544POPC   D2A27364  39.226   5.088   8.255
 7544POPC   C3A27365  39.204   5.119   7.955
 7544POPC   C4A27366  39.259   5.085   7.655
 7544POPC   C1B27367  39.296   4.901   8.555
 7544POPC   C2B27368  39.346   4.869   8.255
 7544POPC   C3B27369  39.336   4.915   7.955
 7544POPC   C4B27370  39.360   4.887   7.655
 7545POPC   NC327371   3.510   9.749   9.455
 7545POPC   PO427372   3.496   9.735   9.155
 7545POPC   GL127373   3.555   9.767   8.855
 7545POPC   GL227374   3.521   9.825   8.855
 7545POPC   C1A27375   3.590   9.724   8.555
 7545POPC   D2A27376   3.515   9.726   8.255
 7545POPC   C3A27377   3.538   9.773   7.955
 7545POPC   C4A27378   3.560   9.707   7.655
 7545POPC   C1B27379   3.438  10.000   8.555
 7545POPC   C2B27380   3.445  10.000   8.255
 7545POPC   C3B27381   3.499  10.013   7.955
 7545POPC   C4B27382   3.455  10.018   7.655
 7546POPC   NC327383  21.352  26.788   9.455
 7546POPC   PO427384  21.365  26.838   9.155
 7546POPC   GL127385  21.359  26.855   8.855
 7546POPC   GL227386  21.425  26.733   8.855
 7546POPC   C1A27387  21.432  26.778   8.555
 7546POPC   D2A27388  21.378  26.840   8.255
 7546POPC   C3A27389  21.379  26.830   7.955
 7546POPC   C4A27390  21.377  26.833   7.655
 7546POPC   C1B27391  21.424  26.559   8.555
 7546POPC   C2B27392  21.384  26.533   8.255
 7546POPC   C3B27393  21.389  26.531   7.955
 7546POPC   C4B27394  21.421  26.538   7.655
 7547POPC   NC327395  39.248  29.906   9.455
 7547POPC   PO427396  39.280  29.902   9.155
 7547POPC   GL127397  39.280  29.888   8.855
 7547POPC   GL227398  39.392  29.943   8.855
 7547POPC   C1A27399  39.246  29.907   8.555
 7547POPC   D2A27400  39.258  29.874   8.255
 7547POPC   C3A27401  39.275  29.890   7.955
 7547POPC   C4A27402  39.203  29.931   7.655
 7547POPC   C1B27403  39.512  29.946   8.555
 7547POPC   C2B27404  39.457  29.946   8.255
 7547POPC   C3B27405  39.455  29.951   7.955
 7547POPC   C4B27406  39.459  29.985   7.655
 7548POPC   NC327407  36.171   9.000   9.455
 7548POPC   PO427408  36.172   9.015   9.155
 7548POPC   GL127409  36.163   8.935   8.855
 7548POPC   GL227410  36.068   8.907   8.855
 7548POPC   C1A27411  36.112   9.005   8.555
 7548POPC   D2A27412  36.090   8.927   8.255
 7548POPC   C3A27413  36.106   8.990   7.955
 7548POPC   C4A27414  36.078   8.943   7.655
 7548POPC   C1B27415  35.932   8.753   8.555
 7548POPC   C2B27416  35.981   8.813   8.255
 7548POPC   C3B27417  35.963   8.813   7.955
 7548POPC   C4B27418  35.990   8.753   7.655
 7549POPC   NC327419  40.770  15.995   9.455
 7549POPC   PO427420  40.781  15.992   9.155
 7549POPC   GL127421  40.785  15.957   8.855
 7549POPC   GL227422  40.859  16.069   8.855
 7549POPC   C1A27423  40.813  15.941   8.555
 7549POPC   D2A27424  40.774  15.988   8.255
 7549POPC   C3A27425  40.789  15.927   7.955
 7549POPC   C4A27426  40.743  15.940   7.655
 7549POPC   C1B27427  40.980  16.173   8.555
 7549POPC   C2B27428  40.918  16.107   8.255
 7549POPC   C3B27429  40.951  16.176   7.955
 7549POPC   C4B27430  40.943  16.157   7.655
 7550POPC   NC327431  38.425   9.717   9.455
 7550POPC   PO427432  38.478   9.726   9.155
 7550POPC   GL127433  38.473   9.797   8.855
 7550POPC   GL227434  38.527   9.646   8.855
 7550POPC   C1A27435  38.471   9.732   8.555
 7550POPC   D2A27436  38.465   9.793   8.255
 7550POPC   C3A27437  38.500   9.793   7.955
 7550POPC   C4A27438  38.425   9.752   7.655
 7550POPC   C1B27439  38.580   9.573   8.555
 7550POPC   C2B27440  38.556   9.542   8.255
 7550POPC   C3B27441  38.590   9.518   7.955
 7550POPC   C4B27442  38.639   9.530   7.655
 7551POPC   NC327443  11.278  10.488   9.455
 7551POPC   PO427444  11.311  10.520   9.155
 7551POPC   GL127445  11.256  10.554   8.855
 7551POPC   GL227446  11.339  10.585   8.855
 7551POPC   C1A27447  11.289  10.511   8.555
 7551POPC   D2A27448  11.344  10.522   8.255
 7551POPC   C3A27449  11.328  10.518   7.955
 7551POPC   C4A27450  11.270  10.538   7.655
 7551POPC   C1B27451  11.413  10.775   8.555
 7551POPC   C2B27452  11.381  10.739   8.255
 7551POPC   C3B27453  11.416  10.760   7.955
 7551POPC   C4B27454  11.439  10.769   7.655
 7552POPC   NC327455  25.994   7.419   9.455
 7552POPC   PO427456  26.055   7.374   9.155
 7552POPC   GL127457  26.032   7.452   8.855
 7552POPC   GL227458  25.976   7.449   8.855
 7552POPC   C1A27459  26.033   7.415   8.555
 7552POPC   D2A27460  26.052   7.420   8.255
 7552POPC   C3A27461  26.018   7.396   7.955
 7552POPC   C4A27462  26.030   7.373   7.655
 7552POPC   C1B27463  25.839   7.516   8.555
 7552POPC   C2B27464  25.827   7.550   8.255
 7552POPC   C3B27465  25.849   7.594   7.955
 7552POPC   C4B27466  25.796   7.599   7.655
 7553POPC   NC327467  39.276  35.321   9.455
 7553POPC   PO427468  39.245  35.350   9.155
 7553POPC   GL127469  39.238  35.321   8.855
 7553POPC   GL227470  39.255  35.462   8.855
 7553POPC   C1A27471  39.196  35.332   8.555
 7553POPC   D2A27472  39.238  35.363   8.255
 7553POPC   C3A27473  39.205  35.373   7.955
 7553POPC   C4A27474  39.209  35.340   7.655
 7553POPC   C1B27475  39.210  35.585   8.555
 7553POPC   C2B27476  39.221  35.554   8.255
 7553POPC   C3B27477  39.224  35.647   7.955
 7553POPC   C4B27478  39.230  35.557   7.655
 7554POPC   NC327479   9.014  12.059   9.455
 7554POPC   PO427480   8.979  12.050   9.155
 7554POPC   GL127481   8.968  12.125   8.855
 7554POPC   GL227482   9.086  11.952   8.855
 7554POPC   C1A27483   8.961  12.084   8.555
 7554POPC   D2A27484   8.994  12.066   8.255
 7554POPC   C3A27485   8.973  12.041   7.955
 7554POPC   C4A27486   8.938  12.071   7.655
 7554POPC   C1B27487   9.107  11.845   8.555
 7554POPC   C2B27488   9.092  11.913   8.255
 7554POPC   C3B27489   9.133  11.889   7.955
 7554POPC   C4B27490   9.165  11.839   7.655
 7555POPC   NC327491  25.268  36.171   9.455
 7555POPC   PO427492  25.301  36.141   9.155
 7555POPC   GL127493  25.238  36.114   8.855
 7555POPC   GL227494  25.312  36.003   8.855
 7555POPC   C1A27495  25.268  36.134   8.555
 7555POPC   D2A27496  25.290  36.122   8.255
 7555POPC   C3A27497  25.244  36.119   7.955
 7555POPC   C4A27498  25.287  36.115   7.655
 7555POPC   C1B27499  25.368  35.845   8.555
 7555POPC   C2B27500  25.354  35.856   8.255
 7555POPC   C3B27501  25.376  35.882   7.955
 7555POPC   C4B27502  25.316  35.886   7.655
 7556POPC   NC327503  15.181  22.195   9.455
 7556POPC   PO427504  15.146  22.179   9.155
 7556POPC   GL127505  15.136  22.176   8.855
 7556POPC   GL227506  15.093  22.222   8.855
 7556POPC   C1A27507  15.135  22.184   8.555
 7556POPC   D2A27508  15.185  22.193   8.255
 7556POPC   C3A27509  15.147  22.206   7.955
 7556POPC   C4A27510  15.165  22.151   7.655
 7556POPC   C1B27511  15.070  22.384   8.555
 7556POPC   C2B27512  14.988  22.377   8.255
 7556POPC   C3B27513  14.993  22.310   7.955
 7556POPC   C4B27514  14.979  22.372   7.655
 7557POPC   NC327515   5.061  43.910   9.455
 7557POPC   PO427516   5.115  43.893   9.155
 7557POPC   GL127517   5.111  43.882   8.855
 7557POPC   GL227518   5.254  43.863   8.855
 7557POPC   C1A27519   5.072  43.901   8.555
 7557POPC   D2A27520   5.094  43.852   8.255
 7557POPC   C3A27521   5.057  43.856   7.955
 7557POPC   C4A27522   5.138  43.880   7.655
 7557POPC   C1B27523   5.301  43.866   8.555
 7557POPC   C2B27524   5.320  43.804   8.255
 7557POPC   C3B27525   5.367  43.815   7.955
 7557POPC   C4B27526   5.346  43.874   7.655
 7558POPC   NC327527  43.848  25.234   9.455
 7558POPC   PO427528  43.925  25.314   9.155
 7558POPC   GL127529  43.922  25.304   8.855
 7558POPC   GL227530  43.934  25.353   8.855
 7558POPC   C1A27531  43.867  25.285   8.555
 7558POPC   D2A27532  43.914  25.262   8.255
 7558POPC   C3A27533  43.850  25.256   7.955
 7558POPC   C4A27534  43.844  25.315   7.655
 7558POPC   C1B27535  43.962  25.437   8.555
 7558POPC   C2B27536  43.985  25.461   8.255
 7558POPC   C3B27537  44.048  25.476   7.955
 7558POPC   C4B27538  44.032  25.531   7.655
 7559POPC   NC327539  21.387  35.367   9.455
 7559POPC   PO427540  21.347  35.306   9.155
 7559POPC   GL127541  21.414  35.340   8.855
 7559POPC   GL227542  21.546  35.445   8.855
 7559POPC   C1A27543  21.394  35.311   8.555
 7559POPC   D2A27544  21.355  35.349   8.255
 7559POPC   C3A27545  21.363  35.340   7.955
 7559POPC   C4A27546  21.357  35.343   7.655
 7559POPC   C1B27547  21.616  35.458   8.555
 7559POPC   C2B27548  21.636  35.468   8.255
 7559POPC   C3B27549  21.586  35.424   7.955
 7559POPC   C4B27550  21.595  35.453   7.655
 7560POPC   NC327551  41.560  30.680   9.455
 7560POPC   PO427552  41.578  30.683   9.155
 7560POPC   GL127553  41.551  30.651   8.855
 7560POPC   GL227554  41.411  30.607   8.855
 7560POPC   C1A27555  41.521  30.709   8.555
 7560POPC   D2A27556  41.511  30.718   8.255
 7560POPC   C3A27557  41.525  30.670   7.955
 7560POPC   C4A27558  41.514  30.665   7.655
 7560POPC   C1B27559  41.287  30.656   8.555
 7560POPC   C2B27560  41.317  30.664   8.255
 7560POPC   C3B27561  41.297  30.632   7.955
 7560POPC   C4B27562  41.283  30.647   7.655
 7561POPC   NC327563  12.830  10.503   9.455
 7561POPC   PO427564  12.867  10.551   9.155
 7561POPC   GL127565  12.830  10.475   8.855
 7561POPC   GL227566  12.927  10.464   8.855
 7561POPC   C1A27567  12.844  10.475   8.555
 7561POPC   D2A27568  12.843  10.509   8.255
 7561POPC   C3A27569  12.837  10.480   7.955
 7561POPC   C4A27570  12.843  10.483   7.655
 7561POPC   C1B27571  13.072  10.405   8.555
 7561POPC   C2B27572  13.050  10.408   8.255
 7561POPC   C3B27573  13.045  10.425   7.955
 7561POPC   C4B27574  13.103  10.405   7.655
 7562POPC   NC327575   3.514   7.402   9.455
 7562POPC   PO427576   3.523   7.438   9.155
 7562POPC   GL127577   3.516   7.437   8.855
 7562POPC   GL227578   3.585   7.284   8.855
 7562POPC   C1A27579   3.502   7.457   8.555
 7562POPC   D2A27580   3.550   7.438   8.255
 7562POPC   C3A27581   3.498   7.453   7.955
 7562POPC   C4A27582   3.582   7.455   7.655
 7562POPC   C1B27583   3.635   7.152   8.555
 7562POPC   C2B27584   3.639   7.233   8.255
 7562POPC   C3B27585   3.661   7.154   7.955
 7562POPC   C4B27586   3.649   7.179   7.655
 7563POPC   NC327587  19.836  24.451   9.455
 7563POPC   PO427588  19.857  24.538   9.155
 7563POPC   GL127589  19.823  24.495   8.855
 7563POPC   GL227590  19.827  24.654   8.855
 7563POPC   C1A27591  19.799  24.471   8.555
 7563POPC   D2A27592  19.814  24.498   8.255
 7563POPC   C3A27593  19.852  24.529   7.955
 7563POPC   C4A27594  19.853  24.440   7.655
 7563POPC   C1B27595  19.719  24.691   8.555
 7563POPC   C2B27596  19.707  24.722   8.255
 7563POPC   C3B27597  19.724  24.763   7.955
 7563POPC   C4B27598  19.782  24.697   7.655
 7564POPC   NC327599  34.612  38.407   9.455
 7564POPC   PO427600  34.600  38.462   9.155
 7564POPC   GL127601  34.610  38.496   8.855
 7564POPC   GL227602  34.582  38.331   8.855
 7564POPC   C1A27603  34.563  38.434   8.555
 7564POPC   D2A27604  34.557  38.445   8.255
 7564POPC   C3A27605  34.583  38.428   7.955
 7564POPC   C4A27606  34.551  38.460   7.655
 7564POPC   C1B27607  34.619  38.183   8.555
 7564POPC   C2B27608  34.673  38.243   8.255
 7564POPC   C3B27609  34.691  38.171   7.955
 7564POPC   C4B27610  34.605  38.256   7.655
 7565POPC   NC327611   0.477  43.879   9.455
 7565POPC   PO427612   0.443  43.882   9.155
 7565POPC   GL127613   0.435  43.892   8.855
 7565POPC   GL227614   0.376  43.962   8.855
 7565POPC   C1A27615   0.452  43.841   8.555
 7565POPC   D2A27616   0.392  43.915   8.255
 7565POPC   C3A27617   0.402  43.866   7.955
 7565POPC   C4A27618   0.475  43.907   7.655
 7565POPC   C1B27619   0.294  44.054   8.555
 7565POPC   C2B27620   0.257  44.111   8.255
 7565POPC   C3B27621   0.297  44.059   7.955
 7565POPC   C4B27622   0.245  44.116   7.655
 7566POPC   NC327623  31.496   0.442   9.455
 7566POPC   PO427624  31.492   0.416   9.155
 7566POPC   GL127625  31.511   0.411   8.855
 7566POPC   GL227626  31.450   0.528   8.855
 7566POPC   C1A27627  31.517   0.456   8.555
 7566POPC   D2A27628  31.464   0.460   8.255
 7566POPC   C3A27629  31.462   0.484   7.955
 7566POPC   C4A27630  31.431   0.402   7.655
 7566POPC   C1B27631  31.379   0.714   8.555
 7566POPC   C2B27632  31.420   0.645   8.255
 7566POPC   C3B27633  31.382   0.707   7.955
 7566POPC   C4B27634  31.413   0.663   7.655
 7567POPC   NC327635  19.049  36.927   9.455
 7567POPC   PO427636  19.059  36.930   9.155
 7567POPC   GL127637  19.093  36.946   8.855
 7567POPC   GL227638  19.157  36.812   8.855
 7567POPC   C1A27639  19.056  36.878   8.555
 7567POPC   D2A27640  19.093  36.886   8.255
 7567POPC   C3A27641  19.033  36.937   7.955
 7567POPC   C4A27642  19.058  36.906   7.655
 7567POPC   C1B27643  19.174  36.637   8.555
 7567POPC   C2B27644  19.131  36.722   8.255
 7567POPC   C3B27645  19.128  36.680   7.955
 7567POPC   C4B27646  19.164  36.681   7.655
 7568POPC   NC327647  29.943  22.203   9.455
 7568POPC   PO427648  29.896  22.192   9.155
 7568POPC   GL127649  29.957  22.136   8.855
 7568POPC   GL227650  29.974  22.304   8.855
 7568POPC   C1A27651  29.928  22.157   8.555
 7568POPC   D2A27652  29.887  22.164   8.255
 7568POPC   C3A27653  29.959  22.150   7.955
 7568POPC   C4A27654  29.914  22.141   7.655
 7568POPC   C1B27655  29.922  22.378   8.555
 7568POPC   C2B27656  29.996  22.362   8.255
 7568POPC   C3B27657  29.937  22.437   7.955
 7568POPC   C4B27658  29.959  22.386   7.655
 7569POPC   NC327659  25.993   2.733   9.455
 7569POPC   PO427660  25.999   2.775   9.155
 7569POPC   GL127661  26.062   2.804   8.855
 7569POPC   GL227662  25.917   2.636   8.855
 7569POPC   C1A27663  26.060   2.727   8.555
 7569POPC   D2A27664  26.077   2.739   8.255
 7569POPC   C3A27665  26.002   2.796   7.955
 7569POPC   C4A27666  26.003   2.804   7.655
 7569POPC   C1B27667  25.834   2.629   8.555
 7569POPC   C2B27668  25.820   2.618   8.255
 7569POPC   C3B27669  25.813   2.574   7.955
 7569POPC   C4B27670  25.871   2.589   7.655
 7570POPC   NC327671  28.368  41.525   9.455
 7570POPC   PO427672  28.404  41.603   9.155
 7570POPC   GL127673  28.388  41.527   8.855
 7570POPC   GL227674  28.455  41.501   8.855
 7570POPC   C1A27675  28.338  41.527   8.555
 7570POPC   D2A27676  28.340  41.606   8.255
 7570POPC   C3A27677  28.370  41.581   7.955
 7570POPC   C4A27678  28.363  41.511   7.655
 7570POPC   C1B27679  28.606  41.464   8.555
 7570POPC   C2B27680  28.617  41.545   8.255
 7570POPC   C3B27681  28.604  41.546   7.955
 7570POPC   C4B27682  28.571  41.467   7.655
 7571POPC   NC327683  29.961  15.160   9.455
 7571POPC   PO427684  29.942  15.150   9.155
 7571POPC   GL127685  29.959  15.158   8.855
 7571POPC   GL227686  29.951  15.101   8.855
 7571POPC   C1A27687  29.899  15.192   8.555
 7571POPC   D2A27688  29.954  15.229   8.255
 7571POPC   C3A27689  29.877  15.138   7.955
 7571POPC   C4A27690  29.938  15.141   7.655
 7571POPC   C1B27691  29.957  14.890   8.555
 7571POPC   C2B27692  29.930  14.945   8.255
 7571POPC   C3B27693  29.912  14.945   7.955
 7571POPC   C4B27694  29.961  14.935   7.655
 7572POPC   NC327695  32.254  41.549   9.455
 7572POPC   PO427696  32.230  41.538   9.155
 7572POPC   GL127697  32.283  41.560   8.855
 7572POPC   GL227698  32.416  41.505   8.855
 7572POPC   C1A27699  32.201  41.568   8.555
 7572POPC   D2A27700  32.268  41.515   8.255
 7572POPC   C3A27701  32.240  41.560   7.955
 7572POPC   C4A27702  32.252  41.554   7.655
 7572POPC   C1B27703  32.494  41.442   8.555
 7572POPC   C2B27704  32.531  41.493   8.255
 7572POPC   C3B27705  32.532  41.525   7.955
 7572POPC   C4B27706  32.526  41.479   7.655
 7573POPC   NC327707  11.268  11.318   9.455
 7573POPC   PO427708  11.296  11.313   9.155
 7573POPC   GL127709  11.260  11.290   8.855
 7573POPC   GL227710  11.346  11.174   8.855
 7573POPC   C1A27711  11.334  11.337   8.555
 7573POPC   D2A27712  11.281  11.252   8.255
 7573POPC   C3A27713  11.311  11.296   7.955
 7573POPC   C4A27714  11.267  11.345   7.655
 7573POPC   C1B27715  11.327  11.098   8.555
 7573POPC   C2B27716  11.317  11.091   8.255
 7573POPC   C3B27717  11.307  11.050   7.955
 7573POPC   C4B27718  11.333  11.035   7.655
 7574POPC   NC327719  10.497   2.807   9.455
 7574POPC   PO427720  10.511   2.760   9.155
 7574POPC   GL127721  10.555   2.799   8.855
 7574POPC   GL227722  10.388   2.729   8.855
 7574POPC   C1A27723  10.488   2.800   8.555
 7574POPC   D2A27724  10.482   2.777   8.255
 7574POPC   C3A27725  10.550   2.774   7.955
 7574POPC   C4A27726  10.504   2.811   7.655
 7574POPC   C1B27727  10.302   2.728   8.555
 7574POPC   C2B27728  10.316   2.744   8.255
 7574POPC   C3B27729  10.316   2.693   7.955
 7574POPC   C4B27730  10.253   2.703   7.655
 7575POPC   NC327731  27.592  15.970   9.455
 7575POPC   PO427732  27.576  15.992   9.155
 7575POPC   GL127733  27.550  15.914   8.855
 7575POPC   GL227734  27.455  15.960   8.855
 7575POPC   C1A27735  27.546  15.997   8.555
 7575POPC   D2A27736  27.611  15.942   8.255
 7575POPC   C3A27737  27.588  15.992   7.955
 7575POPC   C4A27738  27.557  15.976   7.655
 7575POPC   C1B27739  27.378  15.887   8.555
 7575POPC   C2B27740  27.300  15.874   8.255
 7575POPC   C3B27741  27.379  15.920   7.955
 7575POPC   C4B27742  27.303  15.966   7.655
 7576POPC   NC327743  36.132  30.734   9.455
 7576POPC   PO427744  36.114  30.661   9.155
 7576POPC   GL127745  36.175  30.724   8.855
 7576POPC   GL227746  36.251  30.839   8.855
 7576POPC   C1A27747  36.105  30.660   8.555
 7576POPC   D2A27748  36.141  30.717   8.255
 7576POPC   C3A27749  36.175  30.706   7.955
 7576POPC   C4A27750  36.105  30.707   7.655
 7576POPC   C1B27751  36.258  30.864   8.555
 7576POPC   C2B27752  36.283  30.923   8.255
 7576POPC   C3B27753  36.304  30.860   7.955
 7576POPC   C4B27754  36.281  30.898   7.655
 7577POPC   NC327755  12.816  40.789   9.455
 7577POPC   PO427756  12.894  40.802   9.155
 7577POPC   GL127757  12.832  40.793   8.855
 7577POPC   GL227758  12.948  40.803   8.855
 7577POPC   C1A27759  12.827  40.822   8.555
 7577POPC   D2A27760  12.832  40.812   8.255
 7577POPC   C3A27761  12.866  40.814   7.955
 7577POPC   C4A27762  12.872  40.830   7.655
 7577POPC   C1B27763  13.097  40.811   8.555
 7577POPC   C2B27764  13.125  40.731   8.255
 7577POPC   C3B27765  13.083  40.760   7.955
 7577POPC   C4B27766  13.113  40.814   7.655
 7578POPC   NC327767  19.099  35.328   9.455
 7578POPC   PO427768  19.017  35.342   9.155
 7578POPC   GL127769  19.032  35.326   8.855
 7578POPC   GL227770  19.221  35.309   8.855
 7578POPC   C1A27771  19.016  35.351   8.555
 7578POPC   D2A27772  19.054  35.400   8.255
 7578POPC   C3A27773  19.057  35.381   7.955
 7578POPC   C4A27774  19.036  35.366   7.655
 7578POPC   C1B27775  19.263  35.286   8.555
 7578POPC   C2B27776  19.254  35.280   8.255
 7578POPC   C3B27777  19.319  35.270   7.955
 7578POPC   C4B27778  19.293  35.301   7.655
 7579POPC   NC327779   2.732   7.435   9.455
 7579POPC   PO427780   2.799   7.462   9.155
 7579POPC   GL127781   2.811   7.467   8.855
 7579POPC   GL227782   2.646   7.430   8.855
 7579POPC   C1A27783   2.786   7.463   8.555
 7579POPC   D2A27784   2.735   7.429   8.255
 7579POPC   C3A27785   2.773   7.439   7.955
 7579POPC   C4A27786   2.769   7.416   7.655
 7579POPC   C1B27787   2.566   7.483   8.555
 7579POPC   C2B27788   2.480   7.442   8.255
 7579POPC   C3B27789   2.531   7.450   7.955
 7579POPC   C4B27790   2.569   7.526   7.655
 7580POPC   NC327791  30.732  25.253   9.455
 7580POPC   PO427792  30.659  25.278   9.155
 7580POPC   GL127793  30.676  25.310   8.855
 7580POPC   GL227794  30.764  25.381   8.855
 7580POPC   C1A27795  30.706  25.286   8.555
 7580POPC   D2A27796  30.744  25.220   8.255
 7580POPC   C3A27797  30.740  25.265   7.955
 7580POPC   C4A27798  30.712  25.229   7.655
 7580POPC   C1B27799  30.789  25.508   8.555
 7580POPC   C2B27800  30.821  25.527   8.255
 7580POPC   C3B27801  30.815  25.505   7.955
 7580POPC   C4B27802  30.811  25.541   7.655
 7581POPC   NC327803  21.361  19.053   9.455
 7581POPC   PO427804  21.406  19.060   9.155
 7581POPC   GL127805  21.433  19.090   8.855
 7581POPC   GL227806  21.280  19.194   8.855
 7581POPC   C1A27807  21.412  19.037   8.555
 7581POPC   D2A27808  21.393  19.040   8.255
 7581POPC   C3A27809  21.348  19.105   7.955
 7581POPC   C4A27810  21.393  19.014   7.655
 7581POPC   C1B27811  21.301  19.276   8.555
 7581POPC   C2B27812  21.227  19.267   8.255
 7581POPC   C3B27813  21.246  19.282   7.955
 7581POPC   C4B27814  21.267  19.266   7.655
 7582POPC   NC327815  38.419  25.995   9.455
 7582POPC   PO427816  38.434  26.063   9.155
 7582POPC   GL127817  38.410  26.047   8.855
 7582POPC   GL227818  38.554  26.061   8.855
 7582POPC   C1A27819  38.415  26.015   8.555
 7582POPC   D2A27820  38.504  26.012   8.255
 7582POPC   C3A27821  38.425  26.080   7.955
 7582POPC   C4A27822  38.443  26.068   7.655
 7582POPC   C1B27823  38.658  26.091   8.555
 7582POPC   C2B27824  38.696  26.180   8.255
 7582POPC   C3B27825  38.676  26.115   7.955
 7582POPC   C4B27826  38.700  26.163   7.655
 7583POPC   NC327827  37.678  40.752   9.455
 7583POPC   PO427828  37.650  40.760   9.155
 7583POPC   GL127829  37.699  40.810   8.855
 7583POPC   GL227830  37.735  40.667   8.855
 7583POPC   C1A27831  37.728  40.738   8.555
 7583POPC   D2A27832  37.698  40.774   8.255
 7583POPC   C3A27833  37.703  40.814   7.955
 7583POPC   C4A27834  37.686  40.776   7.655
 7583POPC   C1B27835  37.734  40.553   8.555
 7583POPC   C2B27836  37.744  40.538   8.255
 7583POPC   C3B27837  37.809  40.561   7.955
 7583POPC   C4B27838  37.819  40.561   7.655
 7584POPC   NC327839  25.221  28.376   9.455
 7584POPC   PO427840  25.265  28.328   9.155
 7584POPC   GL127841  25.285  28.349   8.855
 7584POPC   GL227842  25.436  28.364   8.855
 7584POPC   C1A27843  25.304  28.386   8.555
 7584POPC   D2A27844  25.235  28.393   8.255
 7584POPC   C3A27845  25.311  28.339   7.955
 7584POPC   C4A27846  25.313  28.366   7.655
 7584POPC   C1B27847  25.502  28.417   8.555
 7584POPC   C2B27848  25.529  28.461   8.255
 7584POPC   C3B27849  25.484  28.418   7.955
 7584POPC   C4B27850  25.547  28.431   7.655
 7585POPC   NC327851  26.016   2.028   9.455
 7585POPC   PO427852  26.057   1.995   9.155
 7585POPC   GL127853  26.042   1.983   8.855
 7585POPC   GL227854  25.963   2.072   8.855
 7585POPC   C1A27855  26.072   1.971   8.555
 7585POPC   D2A27856  26.062   1.997   8.255
 7585POPC   C3A27857  25.997   1.951   7.955
 7585POPC   C4A27858  26.053   2.005   7.655
 7585POPC   C1B27859  25.925   2.213   8.555
 7585POPC   C2B27860  25.919   2.172   8.255
 7585POPC   C3B27861  25.898   2.152   7.955
 7585POPC   C4B27862  25.914   2.231   7.655
 7586POPC   NC327863  15.154  22.936   9.455
 7586POPC   PO427864  15.132  22.951   9.155
 7586POPC   GL127865  15.208  22.957   8.855
 7586POPC   GL227866  15.072  23.033   8.855
 7586POPC   C1A27867  15.218  22.894   8.555
 7586POPC   D2A27868  15.159  22.908   8.255
 7586POPC   C3A27869  15.224  22.935   7.955
 7586POPC   C4A27870  15.180  22.968   7.655
 7586POPC   C1B27871  14.979  23.077   8.555
 7586POPC   C2B27872  14.993  23.063   8.255
 7586POPC   C3B27873  14.913  23.010   7.955
 7586POPC   C4B27874  14.978  23.009   7.655
 7587POPC   NC327875  14.417  24.478   9.455
 7587POPC   PO427876  14.397  24.490   9.155
 7587POPC   GL127877  14.425  24.454   8.855
 7587POPC   GL227878  14.452  24.608   8.855
 7587POPC   C1A27879  14.418  24.493   8.555
 7587POPC   D2A27880  14.370  24.486   8.255
 7587POPC   C3A27881  14.413  24.511   7.955
 7587POPC   C4A27882  14.391  24.501   7.655
 7587POPC   C1B27883  14.500  24.696   8.555
 7587POPC   C2B27884  14.514  24.759   8.255
 7587POPC   C3B27885  14.482  24.691   7.955
 7587POPC   C4B27886  14.457  24.690   7.655
 7588POPC   NC327887  37.702  19.857   9.455
 7588POPC   PO427888  37.697  19.801   9.155
 7588POPC   GL127889  37.676  19.867   8.855
 7588POPC   GL227890  37.781  19.881   8.855
 7588POPC   C1A27891  37.729  19.825   8.555
 7588POPC   D2A27892  37.724  19.880   8.255
 7588POPC   C3A27893  37.675  19.864   7.955
 7588POPC   C4A27894  37.688  19.799   7.655
 7588POPC   C1B27895  37.875  19.928   8.555
 7588POPC   C2B27896  37.890  19.917   8.255
 7588POPC   C3B27897  37.953  19.961   7.955
 7588POPC   C4B27898  37.872  19.950   7.655
 7589POPC   NC327899  10.476   5.866   9.455
 7589POPC   PO427900  10.542   5.880   9.155
 7589POPC   GL127901  10.550   5.887   8.855
 7589POPC   GL227902  10.461   5.776   8.855
 7589POPC   C1A27903  10.505   5.843   8.555
 7589POPC   D2A27904  10.539   5.880   8.255
 7589POPC   C3A27905  10.513   5.820   7.955
 7589POPC   C4A27906  10.487   5.858   7.655
 7589POPC   C1B27907  10.384   5.618   8.555
 7589POPC   C2B27908  10.469   5.670   8.255
 7589POPC   C3B27909  10.473   5.671   7.955
 7589POPC   C4B27910  10.420   5.679   7.655
 7590POPC   NC327911  15.151  39.206   9.455
 7590POPC   PO427912  15.179  39.205   9.155
 7590POPC   GL127913  15.136  39.268   8.855
 7590POPC   GL227914  15.210  39.090   8.855
 7590POPC   C1A27915  15.138  39.269   8.555
 7590POPC   D2A27916  15.211  39.206   8.255
 7590POPC   C3A27917  15.133  39.197   7.955
 7590POPC   C4A27918  15.140  39.215   7.655
 7590POPC   C1B27919  15.309  39.013   8.555
 7590POPC   C2B27920  15.316  39.050   8.255
 7590POPC   C3B27921  15.322  39.032   7.955
 7590POPC   C4B27922  15.328  39.034   7.655
 7591POPC   NC327923  26.852  44.661   9.455
 7591POPC   PO427924  26.854  44.621   9.155
 7591POPC   GL127925  26.845  44.622   8.855
 7591POPC   GL227926  26.936  44.727   8.855
 7591POPC   C1A27927  26.786  44.699   8.555
 7591POPC   D2A27928  26.866  44.702   8.255
 7591POPC   C3A27929  26.838  44.645   7.955
 7591POPC   C4A27930  26.856  44.672   7.655
 7591POPC   C1B27931  27.061  44.843   8.555
 7591POPC   C2B27932  27.055  44.764   8.255
 7591POPC   C3B27933  26.988  44.841   7.955
 7591POPC   C4B27934  27.021  44.842   7.655
 7592POPC   NC327935  31.443  38.462   9.455
 7592POPC   PO427936  31.459  38.466   9.155
 7592POPC   GL127937  31.479  38.503   8.855
 7592POPC   GL227938  31.519  38.508   8.855
 7592POPC   C1A27939  31.451  38.438   8.555
 7592POPC   D2A27940  31.436  38.483   8.255
 7592POPC   C3A27941  31.428  38.442   7.955
 7592POPC   C4A27942  31.502  38.456   7.655
 7592POPC   C1B27943  31.631  38.637   8.555
 7592POPC   C2B27944  31.680  38.591   8.255
 7592POPC   C3B27945  31.673  38.673   7.955
 7592POPC   C4B27946  31.620  38.594   7.655
 7593POPC   NC327947  16.745  25.998   9.455
 7593POPC   PO427948  16.702  26.040   9.155
 7593POPC   GL127949  16.741  26.067   8.855
 7593POPC   GL227950  16.819  26.075   8.855
 7593POPC   C1A27951  16.686  26.055   8.555
 7593POPC   D2A27952  16.741  26.088   8.255
 7593POPC   C3A27953  16.732  26.006   7.955
 7593POPC   C4A27954  16.755  26.037   7.655
 7593POPC   C1B27955  16.978  26.029   8.555
 7593POPC   C2B27956  16.962  26.096   8.255
 7593POPC   C3B27957  16.971  26.065   7.955
 7593POPC   C4B27958  16.977  26.085   7.655
 7594POPC   NC327959  23.729  22.153   9.455
 7594POPC   PO427960  23.749  22.135   9.155
 7594POPC   GL127961  23.674  22.116   8.855
 7594POPC   GL227962  23.831  22.104   8.855
 7594POPC   C1A27963  23.731  22.160   8.555
 7594POPC   D2A27964  23.675  22.182   8.255
 7594POPC   C3A27965  23.688  22.196   7.955
 7594POPC   C4A27966  23.695  22.116   7.655
 7594POPC   C1B27967  23.845  21.978   8.555
 7594POPC   C2B27968  23.860  21.977   8.255
 7594POPC   C3B27969  23.827  21.934   7.955
 7594POPC   C4B27970  23.910  22.000   7.655
 7595POPC   NC327971   6.659  38.483   9.455
 7595POPC   PO427972   6.604  38.488   9.155
 7595POPC   GL127973   6.620  38.428   8.855
 7595POPC   GL227974   6.650  38.313   8.855
 7595POPC   C1A27975   6.611  38.439   8.555
 7595POPC   D2A27976   6.652  38.458   8.255
 7595POPC   C3A27977   6.655  38.487   7.955
 7595POPC   C4A27978   6.692  38.505   7.655
 7595POPC   C1B27979   6.627  38.159   8.555
 7595POPC   C2B27980   6.653  38.198   8.255
 7595POPC   C3B27981   6.655  38.222   7.955
 7595POPC   C4B27982   6.670  38.179   7.655
 7596POPC   NC327983  43.079  42.331   9.455
 7596POPC   PO427984  43.067  42.333   9.155
 7596POPC   GL127985  43.071  42.344   8.855
 7596POPC   GL227986  43.204  42.416   8.855
 7596POPC   C1A27987  43.089  42.307   8.555
 7596POPC   D2A27988  43.154  42.363   8.255
 7596POPC   C3A27989  43.130  42.286   7.955
 7596POPC   C4A27990  43.092  42.313   7.655
 7596POPC   C1B27991  43.345  42.529   8.555
 7596POPC   C2B27992  43.330  42.449   8.255
 7596POPC   C3B27993  43.287  42.496   7.955
 7596POPC   C4B27994  43.314  42.468   7.655
 7597POPC   NC327995   6.616  25.993   9.455
 7597POPC   PO427996   6.684  26.003   9.155
 7597POPC   GL127997   6.597  26.063   8.855
 7597POPC   GL227998   6.529  26.106   8.855
 7597POPC   C1A27999   6.681  26.051   8.555
 7597POPC   D2A28000   6.677  26.029   8.255
 7597POPC   C3A28001   6.669  26.083   7.955
 7597POPC   C4A28002   6.660  26.041   7.655
 7597POPC   C1B28003   6.449  26.136   8.555
 7597POPC   C2B28004   6.411  26.164   8.255
 7597POPC   C3B28005   6.412  26.183   7.955
 7597POPC   C4B28006   6.399  26.167   7.655
 7598POPC   NC328007  37.717  14.445   9.455
 7598POPC   PO428008  37.712  14.413   9.155
 7598POPC   GL128009  37.690  14.434   8.855
 7598POPC   GL228010  37.741  14.529   8.855
 7598POPC   C1A28011  37.679  14.410   8.555
 7598POPC   D2A28012  37.720  14.426   8.255
 7598POPC   C3A28013  37.684  14.399   7.955
 7598POPC   C4A28014  37.713  14.404   7.655
 7598POPC   C1B28015  37.905  14.527   8.555
 7598POPC   C2B28016  37.849  14.565   8.255
 7598POPC   C3B28017  37.833  14.559   7.955
 7598POPC   C4B28018  37.834  14.587   7.655
 7599POPC   NC328019  20.576  32.296   9.455
 7599POPC   PO428020  20.639  32.258   9.155
 7599POPC   GL128021  20.583  32.243   8.855
 7599POPC   GL228022  20.673  32.145   8.855
 7599POPC   C1A28023  20.566  32.249   8.555
 7599POPC   D2A28024  20.571  32.210   8.255
 7599POPC   C3A28025  20.633  32.225   7.955
 7599POPC   C4A28026  20.581  32.257   7.655
 7599POPC   C1B28027  20.749  32.040   8.555
 7599POPC   C2B28028  20.696  31.989   8.255
 7599POPC   C3B28029  20.700  31.974   7.955
 7599POPC   C4B28030  20.666  32.025   7.655
 7600POPC   NC328031  33.791  12.043   9.455
 7600POPC   PO428032  33.787  12.117   9.155
 7600POPC   GL128033  33.761  12.047   8.855
 7600POPC   GL228034  33.969  12.130   8.855
 7600POPC   C1A28035  33.789  12.064   8.555
 7600POPC   D2A28036  33.753  12.080   8.255
 7600POPC   C3A28037  33.777  12.086   7.955
 7600POPC   C4A28038  33.838  12.067   7.655
 7600POPC   C1B28039  34.099  12.061   8.555
 7600POPC   C2B28040  34.001  12.072   8.255
 7600POPC   C3B28041  34.022  12.071   7.955
 7600POPC   C4B28042  34.014  12.135   7.655
 7601POPC   NC328043   9.732  29.909   9.455
 7601POPC   PO428044   9.766  29.890   9.155
 7601POPC   GL128045   9.750  29.937   8.855
 7601POPC   GL228046   9.721  29.831   8.855
 7601POPC   C1A28047   9.733  29.894   8.555
 7601POPC   D2A28048   9.781  29.913   8.255
 7601POPC   C3A28049   9.702  29.889   7.955
 7601POPC   C4A28050   9.781  29.947   7.655
 7601POPC   C1B28051   9.714  29.636   8.555
 7601POPC   C2B28052   9.769  29.688   8.255
 7601POPC   C3B28053   9.722  29.671   7.955
 7601POPC   C4B28054   9.785  29.685   7.655
 7602POPC   NC328055  10.524  27.613   9.455
 7602POPC   PO428056  10.490  27.584   9.155
 7602POPC   GL128057  10.476  27.564   8.855
 7602POPC   GL228058  10.474  27.754   8.855
 7602POPC   C1A28059  10.561  27.599   8.555
 7602POPC   D2A28060  10.533  27.589   8.255
 7602POPC   C3A28061  10.493  27.635   7.955
 7602POPC   C4A28062  10.478  27.629   7.655
 7602POPC   C1B28063  10.554  27.830   8.555
 7602POPC   C2B28064  10.529  27.829   8.255
 7602POPC   C3B28065  10.553  27.886   7.955
 7602POPC   C4B28066  10.543  27.878   7.655
 7603POPC   NC328067  43.894  33.026   9.455
 7603POPC   PO428068  43.892  33.033   9.155
 7603POPC   GL128069  43.883  33.010   8.855
 7603POPC   GL228070  43.814  33.097   8.855
 7603POPC   C1A28071  43.924  32.990   8.555
 7603POPC   D2A28072  43.928  33.032   8.255
 7603POPC   C3A28073  43.850  33.006   7.955
 7603POPC   C4A28074  43.909  33.042   7.655
 7603POPC   C1B28075  43.809  33.285   8.555
 7603POPC   C2B28076  43.832  33.257   8.255
 7603POPC   C3B28077  43.822  33.300   7.955
 7603POPC   C4B28078  43.786  33.245   7.655
 7604POPC   NC328079  20.605  25.277   9.455
 7604POPC   PO428080  20.610  25.315   9.155
 7604POPC   GL128081  20.639  25.237   8.855
 7604POPC   GL228082  20.654  25.158   8.855
 7604POPC   C1A28083  20.610  25.279   8.555
 7604POPC   D2A28084  20.647  25.247   8.255
 7604POPC   C3A28085  20.579  25.265   7.955
 7604POPC   C4A28086  20.572  25.280   7.655
 7604POPC   C1B28087  20.702  25.034   8.555
 7604POPC   C2B28088  20.695  25.060   8.255
 7604POPC   C3B28089  20.675  25.036   7.955
 7604POPC   C4B28090  20.652  25.033   7.655
 7605POPC   NC328091  40.824  15.141   9.455
 7605POPC   PO428092  40.744  15.185   9.155
 7605POPC   GL128093  40.778  15.199   8.855
 7605POPC   GL228094  40.692  15.293   8.855
 7605POPC   C1A28095  40.738  15.209   8.555
 7605POPC   D2A28096  40.770  15.152   8.255
 7605POPC   C3A28097  40.770  15.212   7.955
 7605POPC   C4A28098  40.741  15.141   7.655
 7605POPC   C1B28099  40.619  15.292   8.555
 7605POPC   C2B28100  40.567  15.328   8.255
 7605POPC   C3B28101  40.604  15.330   7.955
 7605POPC   C4B28102  40.529  15.287   7.655
 7606POPC   NC328103   4.296  29.926   9.455
 7606POPC   PO428104   4.290  29.882   9.155
 7606POPC   GL128105   4.307  29.873   8.855
 7606POPC   GL228106   4.214  29.914   8.855
 7606POPC   C1A28107   4.288  29.943   8.555
 7606POPC   D2A28108   4.354  29.922   8.255
 7606POPC   C3A28109   4.341  29.945   7.955
 7606POPC   C4A28110   4.335  29.912   7.655
 7606POPC   C1B28111   4.037  29.903   8.555
 7606POPC   C2B28112   4.054  29.911   8.255
 7606POPC   C3B28113   4.056  29.926   7.955
 7606POPC   C4B28114   4.104  29.906   7.655
 7607POPC   NC328115   4.293   5.058   9.455
 7607POPC   PO428116   4.332   5.130   9.155
 7607POPC   GL128117   4.302   5.064   8.855
 7607POPC   GL228118   4.187   5.010   8.855
 7607POPC   C1A28119   4.291   5.048   8.555
 7607POPC   D2A28120   4.306   5.083   8.255
 7607POPC   C3A28121   4.315   5.077   7.955
 7607POPC   C4A28122   4.348   5.061   7.655
 7607POPC   C1B28123   4.108   4.946   8.555
 7607POPC   C2B28124   4.106   4.957   8.255
 7607POPC   C3B28125   4.095   5.003   7.955
 7607POPC   C4B28126   4.129   4.989   7.655
 7608POPC   NC328127  42.293   7.382   9.455
 7608POPC   PO428128  42.335   7.431   9.155
 7608POPC   GL128129  42.383   7.388   8.855
 7608POPC   GL228130  42.308   7.305   8.855
 7608POPC   C1A28131  42.377   7.465   8.555
 7608POPC   D2A28132  42.362   7.461   8.255
 7608POPC   C3A28133  42.371   7.404   7.955
 7608POPC   C4A28134  42.295   7.383   7.655
 7608POPC   C1B28135  42.232   7.173   8.555
 7608POPC   C2B28136  42.278   7.220   8.255
 7608POPC   C3B28137  42.246   7.169   7.955
 7608POPC   C4B28138  42.255   7.193   7.655
 7609POPC   NC328139   5.124  29.889   9.455
 7609POPC   PO428140   5.106  29.917   9.155
 7609POPC   GL128141   5.107  29.905   8.855
 7609POPC   GL228142   5.017  29.844   8.855
 7609POPC   C1A28143   5.065  29.952   8.555
 7609POPC   D2A28144   5.058  29.940   8.255
 7609POPC   C3A28145   5.116  29.918   7.955
 7609POPC   C4A28146   5.140  29.909   7.655
 7609POPC   C1B28147   5.052  29.681   8.555
 7609POPC   C2B28148   4.997  29.634   8.255
 7609POPC   C3B28149   5.012  29.635   7.955
 7609POPC   C4B28150   4.982  29.633   7.655
 7610POPC   NC328151  40.805  32.297   9.455
 7610POPC   PO428152  40.808  32.269   9.155
 7610POPC   GL128153  40.776  32.203   8.855
 7610POPC   GL228154  40.700  32.324   8.855
 7610POPC   C1A28155  40.832  32.252   8.555
 7610POPC   D2A28156  40.824  32.214   8.255
 7610POPC   C3A28157  40.783  32.255   7.955
 7610POPC   C4A28158  40.827  32.261   7.655
 7610POPC   C1B28159  40.543  32.327   8.555
 7610POPC   C2B28160  40.514  32.340   8.255
 7610POPC   C3B28161  40.538  32.384   7.955
 7610POPC   C4B28162  40.531  32.337   7.655
 7611POPC   NC328163  25.242   5.131   9.455
 7611POPC   PO428164  25.254   5.080   9.155
 7611POPC   GL128165  25.228   5.141   8.855
 7611POPC   GL228166  25.281   4.925   8.855
 7611POPC   C1A28167  25.257   5.056   8.555
 7611POPC   D2A28168  25.219   5.142   8.255
 7611POPC   C3A28169  25.247   5.069   7.955
 7611POPC   C4A28170  25.283   5.088   7.655
 7611POPC   C1B28171  25.212   4.868   8.555
 7611POPC   C2B28172  25.246   4.818   8.255
 7611POPC   C3B28173  25.198   4.830   7.955
 7611POPC   C4B28174  25.248   4.861   7.655
 7612POPC   NC328175  18.247  13.613   9.455
 7612POPC   PO428176  18.267  13.622   9.155
 7612POPC   GL128177  18.256  13.633   8.855
 7612POPC   GL228178  18.224  13.555   8.855
 7612POPC   C1A28179  18.311  13.657   8.555
 7612POPC   D2A28180  18.292  13.631   8.255
 7612POPC   C3A28181  18.236  13.665   7.955
 7612POPC   C4A28182  18.295  13.617   7.655
 7612POPC   C1B28183  18.094  13.424   8.555
 7612POPC   C2B28184  18.085  13.446   8.255
 7612POPC   C3B28185  18.132  13.447   7.955
 7612POPC   C4B28186  18.143  13.410   7.655
 7613POPC   NC328187   6.636  43.101   9.455
 7613POPC   PO428188   6.597  43.156   9.155
 7613POPC   GL128189   6.694  43.115   8.855
 7613POPC   GL228190   6.718  43.009   8.855
 7613POPC   C1A28191   6.676  43.074   8.555
 7613POPC   D2A28192   6.651  43.082   8.255
 7613POPC   C3A28193   6.631  43.119   7.955
 7613POPC   C4A28194   6.616  43.137   7.655
 7613POPC   C1B28195   6.831  42.900   8.555
 7613POPC   C2B28196   6.771  42.922   8.255
 7613POPC   C3B28197   6.842  42.874   7.955
 7613POPC   C4B28198   6.788  42.870   7.655
 7614POPC   NC328199  15.917   5.899   9.455
 7614POPC   PO428200  15.970   5.870   9.155
 7614POPC   GL128201  15.905   5.885   8.855
 7614POPC   GL228202  15.844   5.791   8.855
 7614POPC   C1A28203  15.937   5.903   8.555
 7614POPC   D2A28204  15.968   5.900   8.255
 7614POPC   C3A28205  16.000   5.828   7.955
 7614POPC   C4A28206  15.977   5.841   7.655
 7614POPC   C1B28207  15.748   5.694   8.555
 7614POPC   C2B28208  15.727   5.734   8.255
 7614POPC   C3B28209  15.704   5.763   7.955
 7614POPC   C4B28210  15.754   5.699   7.655
 7615POPC   NC328211   4.361   9.752   9.455
 7615POPC   PO428212   4.361   9.794   9.155
 7615POPC   GL128213   4.281   9.719   8.855
 7615POPC   GL228214   4.297   9.662   8.855
 7615POPC   C1A28215   4.335   9.780   8.555
 7615POPC   D2A28216   4.318   9.784   8.255
 7615POPC   C3A28217   4.361   9.778   7.955
 7615POPC   C4A28218   4.333   9.730   7.655
 7615POPC   C1B28219   4.397   9.512   8.555
 7615POPC   C2B28220   4.396   9.543   8.255
 7615POPC   C3B28221   4.337   9.488   7.955
 7615POPC   C4B28222   4.372   9.530   7.655
 7616POPC   NC328223  26.818   7.378   9.455
 7616POPC   PO428224  26.833   7.397   9.155
 7616POPC   GL128225  26.773   7.395   8.855
 7616POPC   GL228226  26.739   7.474   8.855
 7616POPC   C1A28227  26.846   7.466   8.555
 7616POPC   D2A28228  26.831   7.441   8.255
 7616POPC   C3A28229  26.826   7.470   7.955
 7616POPC   C4A28230  26.816   7.403   7.655
 7616POPC   C1B28231  26.585   7.558   8.555
 7616POPC   C2B28232  26.642   7.629   8.255
 7616POPC   C3B28233  26.597   7.609   7.955
 7616POPC   C4B28234  26.641   7.573   7.655
 7617POPC   NC328235   5.858  20.607   9.455
 7617POPC   PO428236   5.881  20.611   9.155
 7617POPC   GL128237   5.846  20.607   8.855
 7617POPC   GL228238   5.904  20.458   8.855
 7617POPC   C1A28239   5.823  20.640   8.555
 7617POPC   D2A28240   5.915  20.635   8.255
 7617POPC   C3A28241   5.888  20.617   7.955
 7617POPC   C4A28242   5.849  20.638   7.655
 7617POPC   C1B28243   5.829  20.361   8.555
 7617POPC   C2B28244   5.811  20.343   8.255
 7617POPC   C3B28245   5.811  20.335   7.955
 7617POPC   C4B28246   5.831  20.410   7.655
 7618POPC   NC328247  13.654   0.484   9.455
 7618POPC   PO428248  13.643   0.451   9.155
 7618POPC   GL128249  13.642   0.398   8.855
 7618POPC   GL228250  13.715   0.510   8.855
 7618POPC   C1A28251  13.628   0.433   8.555
 7618POPC   D2A28252  13.665   0.426   8.255
 7618POPC   C3A28253  13.665   0.479   7.955
 7618POPC   C4A28254  13.622   0.454   7.655
 7618POPC   C1B28255  13.837   0.587   8.555
 7618POPC   C2B28256  13.813   0.562   8.255
 7618POPC   C3B28257  13.786   0.554   7.955
 7618POPC   C4B28258  13.828   0.611   7.655
 7619POPC   NC328259  17.492  43.927   9.455
 7619POPC   PO428260  17.484  43.916   9.155
 7619POPC   GL128261  17.512  43.885   8.855
 7619POPC   GL228262  17.538  43.958   8.855
 7619POPC   C1A28263  17.495  43.931   8.555
 7619POPC   D2A28264  17.513  43.924   8.255
 7619POPC   C3A28265  17.535  43.854   7.955
 7619POPC   C4A28266  17.465  43.857   7.655
 7619POPC   C1B28267  17.632  44.101   8.555
 7619POPC   C2B28268  17.571  44.134   8.255
 7619POPC   C3B28269  17.654  44.149   7.955
 7619POPC   C4B28270  17.609  44.118   7.655
 7620POPC   NC328271   2.769  40.743   9.455
 7620POPC   PO428272   2.733  40.742   9.155
 7620POPC   GL128273   2.760  40.793   8.855
 7620POPC   GL228274   2.758  40.684   8.855
 7620POPC   C1A28275   2.784  40.819   8.555
 7620POPC   D2A28276   2.808  40.823   8.255
 7620POPC   C3A28277   2.778  40.751   7.955
 7620POPC   C4A28278   2.762  40.734   7.655
 7620POPC   C1B28279   2.797  40.503   8.555
 7620POPC   C2B28280   2.824  40.579   8.255
 7620POPC   C3B28281   2.804  40.589   7.955
 7620POPC   C4B28282   2.794  40.562   7.655
 7621POPC   NC328283  11.306  19.072   9.455
 7621POPC   PO428284  11.285  19.102   9.155
 7621POPC   GL128285  11.338  19.086   8.855
 7621POPC   GL228286  11.435  19.083   8.855
 7621POPC   C1A28287  11.289  19.026   8.555
 7621POPC   D2A28288  11.325  19.061   8.255
 7621POPC   C3A28289  11.338  19.059   7.955
 7621POPC   C4A28290  11.331  19.105   7.655
 7621POPC   C1B28291  11.513  19.117   8.555
 7621POPC   C2B28292  11.510  19.174   8.255
 7621POPC   C3B28293  11.518  19.114   7.955
 7621POPC   C4B28294  11.574  19.130   7.655
 7622POPC   NC328295  12.884  16.721   9.455
 7622POPC   PO428296  12.876  16.712   9.155
 7622POPC   GL128297  12.900  16.694   8.855
 7622POPC   GL228298  13.017  16.755   8.855
 7622POPC   C1A28299  12.849  16.737   8.555
 7622POPC   D2A28300  12.853  16.764   8.255
 7622POPC   C3A28301  12.899  16.685   7.955
 7622POPC   C4A28302  12.848  16.748   7.655
 7622POPC   C1B28303  13.059  16.741   8.555
 7622POPC   C2B28304  13.095  16.699   8.255
 7622POPC   C3B28305  13.139  16.688   7.955
 7622POPC   C4B28306  13.137  16.680   7.655
 7623POPC   NC328307  36.136  40.803   9.455
 7623POPC   PO428308  36.157  40.823   9.155
 7623POPC   GL128309  36.142  40.798   8.855
 7623POPC   GL228310  36.080  40.930   8.855
 7623POPC   C1A28311  36.084  40.791   8.555
 7623POPC   D2A28312  36.085  40.776   8.255
 7623POPC   C3A28313  36.085  40.744   7.955
 7623POPC   C4A28314  36.124  40.801   7.655
 7623POPC   C1B28315  35.962  41.002   8.555
 7623POPC   C2B28316  36.048  41.007   8.255
 7623POPC   C3B28317  35.970  41.016   7.955
 7623POPC   C4B28318  36.004  41.021   7.655
 7624POPC   NC328319  40.823  40.757   9.455
 7624POPC   PO428320  40.823  40.804   9.155
 7624POPC   GL128321  40.803  40.770   8.855
 7624POPC   GL228322  40.824  40.704   8.855
 7624POPC   C1A28323  40.811  40.811   8.555
 7624POPC   D2A28324  40.765  40.755   8.255
 7624POPC   C3A28325  40.796  40.781   7.955
 7624POPC   C4A28326  40.822  40.741   7.655
 7624POPC   C1B28327  40.845  40.522   8.555
 7624POPC   C2B28328  40.899  40.538   8.255
 7624POPC   C3B28329  40.857  40.543   7.955
 7624POPC   C4B28330  40.850  40.551   7.655
 7625POPC   NC328331   6.633  41.597   9.455
 7625POPC   PO428332   6.628  41.566   9.155
 7625POPC   GL128333   6.683  41.555   8.855
 7625POPC   GL228334   6.540  41.586   8.855
 7625POPC   C1A28335   6.627  41.544   8.555
 7625POPC   D2A28336   6.627  41.560   8.255
 7625POPC   C3A28337   6.637  41.520   7.955
 7625POPC   C4A28338   6.603  41.555   7.655
 7625POPC   C1B28339   6.377  41.670   8.555
 7625POPC   C2B28340   6.447  41.661   8.255
 7625POPC   C3B28341   6.383  41.646   7.955
 7625POPC   C4B28342   6.395  41.660   7.655
 7626POPC   NC328343   5.050  14.399   9.455
 7626POPC   PO428344   5.101  14.437   9.155
 7626POPC   GL128345   5.127  14.409   8.855
 7626POPC   GL228346   5.003  14.353   8.855
 7626POPC   C1A28347   5.115  14.402   8.555
 7626POPC   D2A28348   5.058  14.420   8.255
 7626POPC   C3A28349   5.077  14.448   7.955
 7626POPC   C4A28350   5.066  14.376   7.655
 7626POPC   C1B28351   4.802  14.315   8.555
 7626POPC   C2B28352   4.836  14.347   8.255
 7626POPC   C3B28353   4.880  14.367   7.955
 7626POPC   C4B28354   4.824  14.352   7.655
 7627POPC   NC328355  29.103  15.923   9.455
 7627POPC   PO428356  29.176  15.913   9.155
 7627POPC   GL128357  29.147  15.948   8.855
 7627POPC   GL228358  29.194  16.066   8.855
 7627POPC   C1A28359  29.111  15.986   8.555
 7627POPC   D2A28360  29.170  15.947   8.255
 7627POPC   C3A28361  29.162  15.961   7.955
 7627POPC   C4A28362  29.144  15.914   7.655
 7627POPC   C1B28363  29.289  16.119   8.555
 7627POPC   C2B28364  29.299  16.150   8.255
 7627POPC   C3B28365  29.279  16.165   7.955
 7627POPC   C4B28366  29.287  16.123   7.655
 7628POPC   NC328367   8.975  25.288   9.455
 7628POPC   PO428368   8.965  25.229   9.155
 7628POPC   GL128369   8.998  25.272   8.855
 7628POPC   GL228370   8.948  25.381   8.855
 7628POPC   C1A28371   8.982  25.245   8.555
 7628POPC   D2A28372   8.988  25.245   8.255
 7628POPC   C3A28373   8.990  25.261   7.955
 7628POPC   C4A28374   8.945  25.243   7.655
 7628POPC   C1B28375   9.013  25.546   8.555
 7628POPC   C2B28376   8.999  25.520   8.255
 7628POPC   C3B28377   8.982  25.536   7.955
 7628POPC   C4B28378   9.021  25.475   7.655
 7629POPC   NC328379   5.907  24.485   9.455
 7629POPC   PO428380   5.856  24.448   9.155
 7629POPC   GL128381   5.861  24.536   8.855
 7629POPC   GL228382   5.732  24.356   8.855
 7629POPC   C1A28383   5.892  24.493   8.555
 7629POPC   D2A28384   5.829  24.518   8.255
 7629POPC   C3A28385   5.840  24.497   7.955
 7629POPC   C4A28386   5.840  24.473   7.655
 7629POPC   C1B28387   5.699  24.301   8.555
 7629POPC   C2B28388   5.717  24.354   8.255
 7629POPC   C3B28389   5.729  24.292   7.955
 7629POPC   C4B28390   5.674  24.300   7.655
 7630POPC   NC328391  11.307   6.614   9.455
 7630POPC   PO428392  11.333   6.642   9.155
 7630POPC   GL128393  11.323   6.616   8.855
 7630POPC   GL228394  11.400   6.622   8.855
 7630POPC   C1A28395  11.273   6.613   8.555
 7630POPC   D2A28396  11.317   6.654   8.255
 7630POPC   C3A28397  11.338   6.600   7.955
 7630POPC   C4A28398  11.260   6.687   7.655
 7630POPC   C1B28399  11.509   6.545   8.555
 7630POPC   C2B28400  11.573   6.555   8.255
 7630POPC   C3B28401  11.487   6.520   7.955
 7630POPC   C4B28402  11.550   6.526   7.655
 7631POPC   NC328403  15.949  31.510   9.455
 7631POPC   PO428404  15.907  31.515   9.155
 7631POPC   GL128405  15.924  31.519   8.855
 7631POPC   GL228406  15.923  31.309   8.855
 7631POPC   C1A28407  15.996  31.486   8.555
 7631POPC   D2A28408  15.985  31.475   8.255
 7631POPC   C3A28409  15.927  31.444   7.955
 7631POPC   C4A28410  15.987  31.431   7.655
 7631POPC   C1B28411  15.916  31.249   8.555
 7631POPC   C2B28412  15.903  31.246   8.255
 7631POPC   C3B28413  15.873  31.227   7.955
 7631POPC   C4B28414  15.850  31.228   7.655
 7632POPC   NC328415  31.492  25.285   9.455
 7632POPC   PO428416  31.430  25.253   9.155
 7632POPC   GL128417  31.508  25.310   8.855
 7632POPC   GL228418  31.638  25.286   8.855
 7632POPC   C1A28419  31.430  25.303   8.555
 7632POPC   D2A28420  31.450  25.240   8.255
 7632POPC   C3A28421  31.451  25.248   7.955
 7632POPC   C4A28422  31.455  25.258   7.655
 7632POPC   C1B28423  31.749  25.230   8.555
 7632POPC   C2B28424  31.735  25.250   8.255
 7632POPC   C3B28425  31.711  25.246   7.955
 7632POPC   C4B28426  31.686  25.179   7.655
 7633POPC   NC328427  40.023   6.675   9.455
 7633POPC   PO428428  39.985   6.617   9.155
 7633POPC   GL128429  40.014   6.656   8.855
 7633POPC   GL228430  40.151   6.711   8.855
 7633POPC   C1A28431  40.041   6.691   8.555
 7633POPC   D2A28432  40.051   6.656   8.255
 7633POPC   C3A28433  39.966   6.693   7.955
 7633POPC   C4A28434  40.029   6.615   7.655
 7633POPC   C1B28435  40.285   6.660   8.555
 7633POPC   C2B28436  40.284   6.705   8.255
 7633POPC   C3B28437  40.213   6.736   7.955
 7633POPC   C4B28438  40.245   6.740   7.655
 7634POPC   NC328439  15.998  22.965   9.455
 7634POPC   PO428440  16.005  22.979   9.155
 7634POPC   GL128441  15.917  22.912   8.855
 7634POPC   GL228442  15.796  22.932   8.855
 7634POPC   C1A28443  15.969  22.945   8.555
 7634POPC   D2A28444  15.939  22.925   8.255
 7634POPC   C3A28445  15.988  22.902   7.955
 7634POPC   C4A28446  15.934  22.977   7.655
 7634POPC   C1B28447  15.704  22.888   8.555
 7634POPC   C2B28448  15.659  22.879   8.255
 7634POPC   C3B28449  15.729  22.925   7.955
 7634POPC   C4B28450  15.726  22.902   7.655
 7635POPC   NC328451  24.475   9.764   9.455
 7635POPC   PO428452  24.536   9.795   9.155
 7635POPC   GL128453  24.529   9.768   8.855
 7635POPC   GL228454  24.573   9.644   8.855
 7635POPC   C1A28455  24.528   9.701   8.555
 7635POPC   D2A28456  24.525   9.748   8.255
 7635POPC   C3A28457  24.482   9.764   7.955
 7635POPC   C4A28458  24.446   9.791   7.655
 7635POPC   C1B28459  24.575   9.522   8.555
 7635POPC   C2B28460  24.665   9.517   8.255
 7635POPC   C3B28461  24.649   9.556   7.955
 7635POPC   C4B28462  24.608   9.512   7.655
 7636POPC   NC328463   5.097  43.069   9.455
 7636POPC   PO428464   5.063  43.078   9.155
 7636POPC   GL128465   5.114  43.062   8.855
 7636POPC   GL228466   5.241  43.155   8.855
 7636POPC   C1A28467   5.120  43.088   8.555
 7636POPC   D2A28468   5.130  43.104   8.255
 7636POPC   C3A28469   5.082  43.123   7.955
 7636POPC   C4A28470   5.061  43.091   7.655
 7636POPC   C1B28471   5.306  43.210   8.555
 7636POPC   C2B28472   5.311  43.235   8.255
 7636POPC   C3B28473   5.377  43.177   7.955
 7636POPC   C4B28474   5.301  43.157   7.655
 7637POPC   NC328475  12.098  32.209   9.455
 7637POPC   PO428476  12.042  32.213   9.155
 7637POPC   GL128477  12.064  32.283   8.855
 7637POPC   GL228478  11.966  32.254   8.855
 7637POPC   C1A28479  12.088  32.236   8.555
 7637POPC   D2A28480  12.123  32.242   8.255
 7637POPC   C3A28481  12.077  32.283   7.955
 7637POPC   C4A28482  12.033  32.235   7.655
 7637POPC   C1B28483  11.806  32.381   8.555
 7637POPC   C2B28484  11.799  32.334   8.255
 7637POPC   C3B28485  11.862  32.371   7.955
 7637POPC   C4B28486  11.797  32.298   7.655
 7638POPC   NC328487  29.898  40.033   9.455
 7638POPC   PO428488  29.904  40.039   9.155
 7638POPC   GL128489  29.892  39.982   8.855
 7638POPC   GL228490  29.830  40.048   8.855
 7638POPC   C1A28491  29.946  39.968   8.555
 7638POPC   D2A28492  29.879  39.990   8.255
 7638POPC   C3A28493  29.966  39.984   7.955
 7638POPC   C4A28494  29.953  40.033   7.655
 7638POPC   C1B28495  29.675  40.067   8.555
 7638POPC   C2B28496  29.700  40.028   8.255
 7638POPC   C3B28497  29.644  40.012   7.955
 7638POPC   C4B28498  29.687  39.997   7.655
 7639POPC   NC328499  12.893  29.969   9.455
 7639POPC   PO428500  12.900  29.917   9.155
 7639POPC   GL128501  12.873  29.956   8.855
 7639POPC   GL228502  12.933  29.945   8.855
 7639POPC   C1A28503  12.833  29.881   8.555
 7639POPC   D2A28504  12.845  29.917   8.255
 7639POPC   C3A28505  12.879  29.919   7.955
 7639POPC   C4A28506  12.837  29.882   7.655
 7639POPC   C1B28507  13.102  29.897   8.555
 7639POPC   C2B28508  13.054  29.949   8.255
 7639POPC   C3B28509  13.093  29.943   7.955
 7639POPC   C4B28510  13.052  29.973   7.655
 7640POPC   NC328511   9.704   8.172   9.455
 7640POPC   PO428512   9.794   8.210   9.155
 7640POPC   GL128513   9.785   8.168   8.855
 7640POPC   GL228514   9.596   8.202   8.855
 7640POPC   C1A28515   9.767   8.218   8.555
 7640POPC   D2A28516   9.722   8.246   8.255
 7640POPC   C3A28517   9.711   8.218   7.955
 7640POPC   C4A28518   9.786   8.165   7.655
 7640POPC   C1B28519   9.507   8.220   8.555
 7640POPC   C2B28520   9.456   8.202   8.255
 7640POPC   C3B28521   9.506   8.207   7.955
 7640POPC   C4B28522   9.449   8.159   7.655
 7641POPC   NC328523  19.086  17.548   9.455
 7641POPC   PO428524  19.043  17.506   9.155
 7641POPC   GL128525  19.075  17.524   8.855
 7641POPC   GL228526  19.054  17.617   8.855
 7641POPC   C1A28527  19.107  17.493   8.555
 7641POPC   D2A28528  19.026  17.523   8.255
 7641POPC   C3A28529  19.100  17.458   7.955
 7641POPC   C4A28530  19.102  17.553   7.655
 7641POPC   C1B28531  18.995  17.781   8.555
 7641POPC   C2B28532  19.004  17.748   8.255
 7641POPC   C3B28533  19.032  17.726   7.955
 7641POPC   C4B28534  18.986  17.740   7.655
 7642POPC   NC328535  18.252  27.569   9.455
 7642POPC   PO428536  18.296  27.578   9.155
 7642POPC   GL128537  18.259  27.606   8.855
 7642POPC   GL228538  18.306  27.695   8.855
 7642POPC   C1A28539  18.247  27.633   8.555
 7642POPC   D2A28540  18.319  27.616   8.255
 7642POPC   C3A28541  18.254  27.622   7.955
 7642POPC   C4A28542  18.251  27.586   7.655
 7642POPC   C1B28543  18.268  27.826   8.555
 7642POPC   C2B28544  18.271  27.820   8.255
 7642POPC   C3B28545  18.218  27.816   7.955
 7642POPC   C4B28546  18.270  27.835   7.655
 7643POPC   NC328547   3.568   3.569   9.455
 7643POPC   PO428548   3.557   3.575   9.155
 7643POPC   GL128549   3.539   3.513   8.855
 7643POPC   GL228550   3.421   3.636   8.855
 7643POPC   C1A28551   3.570   3.580   8.555
 7643POPC   D2A28552   3.554   3.497   8.255
 7643POPC   C3A28553   3.590   3.520   7.955
 7643POPC   C4A28554   3.541   3.568   7.655
 7643POPC   C1B28555   3.312   3.618   8.555
 7643POPC   C2B28556   3.343   3.660   8.255
 7643POPC   C3B28557   3.302   3.673   7.955
 7643POPC   C4B28558   3.297   3.677   7.655
 7644POPC   NC328559  12.874  13.650   9.455
 7644POPC   PO428560  12.866  13.675   9.155
 7644POPC   GL128561  12.862  13.674   8.855
 7644POPC   GL228562  12.808  13.708   8.855
 7644POPC   C1A28563  12.900  13.652   8.555
 7644POPC   D2A28564  12.805  13.656   8.255
 7644POPC   C3A28565  12.843  13.654   7.955
 7644POPC   C4A28566  12.896  13.647   7.655
 7644POPC   C1B28567  12.805  13.890   8.555
 7644POPC   C2B28568  12.793  13.907   8.255
 7644POPC   C3B28569  12.762  13.831   7.955
 7644POPC   C4B28570  12.834  13.916   7.655
 7645POPC   NC328571  12.807   2.794   9.455
 7645POPC   PO428572  12.857   2.791   9.155
 7645POPC   GL128573  12.894   2.786   8.855
 7645POPC   GL228574  13.010   2.704   8.855
 7645POPC   C1A28575  12.803   2.814   8.555
 7645POPC   D2A28576  12.803   2.813   8.255
 7645POPC   C3A28577  12.861   2.793   7.955
 7645POPC   C4A28578  12.850   2.740   7.655
 7645POPC   C1B28579  13.111   2.758   8.555
 7645POPC   C2B28580  13.136   2.770   8.255
 7645POPC   C3B28581  13.100   2.766   7.955
 7645POPC   C4B28582  13.075   2.716   7.655
 7646POPC   NC328583  29.885   8.940   9.455
 7646POPC   PO428584  29.907   9.021   9.155
 7646POPC   GL128585  29.933   8.936   8.855
 7646POPC   GL228586  30.036   8.993   8.855
 7646POPC   C1A28587  29.877   8.987   8.555
 7646POPC   D2A28588  29.905   8.996   8.255
 7646POPC   C3A28589  29.877   8.958   7.955
 7646POPC   C4A28590  29.932   8.924   7.655
 7646POPC   C1B28591  30.146   8.969   8.555
 7646POPC   C2B28592  30.183   8.964   8.255
 7646POPC   C3B28593  30.210   8.928   7.955
 7646POPC   C4B28594  30.195   8.991   7.655
 7647POPC   NC328595  26.857  11.313   9.455
 7647POPC   PO428596  26.830  11.256   9.155
 7647POPC   GL128597  26.863  11.347   8.855
 7647POPC   GL228598  26.894  11.241   8.855
 7647POPC   C1A28599  26.828  11.310   8.555
 7647POPC   D2A28600  26.852  11.304   8.255
 7647POPC   C3A28601  26.808  11.271   7.955
 7647POPC   C4A28602  26.811  11.300   7.655
 7647POPC   C1B28603  27.002  11.229   8.555
 7647POPC   C2B28604  27.021  11.212   8.255
 7647POPC   C3B28605  27.045  11.200   7.955
 7647POPC   C4B28606  27.063  11.210   7.655
 7648POPC   NC328607   1.940  34.557   9.455
 7648POPC   PO428608   1.981  34.566   9.155
 7648POPC   GL128609   1.992  34.615   8.855
 7648POPC   GL228610   1.860  34.525   8.855
 7648POPC   C1A28611   1.963  34.576   8.555
 7648POPC   D2A28612   1.954  34.564   8.255
 7648POPC   C3A28613   1.994  34.615   7.955
 7648POPC   C4A28614   1.967  34.610   7.655
 7648POPC   C1B28615   1.706  34.567   8.555
 7648POPC   C2B28616   1.787  34.543   8.255
 7648POPC   C3B28617   1.770  34.583   7.955
 7648POPC   C4B28618   1.731  34.550   7.655
 7649POPC   NC328619  42.298   8.147   9.455
 7649POPC   PO428620  42.356   8.172   9.155
 7649POPC   GL128621  42.340   8.205   8.855
 7649POPC   GL228622  42.239   8.200   8.855
 7649POPC   C1A28623  42.352   8.229   8.555
 7649POPC   D2A28624  42.355   8.170   8.255
 7649POPC   C3A28625  42.382   8.190   7.955
 7649POPC   C4A28626  42.343   8.204   7.655
 7649POPC   C1B28627  42.057   8.195   8.555
 7649POPC   C2B28628  42.093   8.209   8.255
 7649POPC   C3B28629  42.094   8.237   7.955
 7649POPC   C4B28630  42.127   8.147   7.655
 7650POPC   NC328631  36.900   6.623   9.455
 7650POPC   PO428632  36.902   6.643   9.155
 7650POPC   GL128633  36.871   6.681   8.855
 7650POPC   GL228634  36.992   6.630   8.855
 7650POPC   C1A28635  36.935   6.651   8.555
 7650POPC   D2A28636  36.866   6.622   8.255
 7650POPC   C3A28637  36.877   6.692   7.955
 7650POPC   C4A28638  36.905   6.659   7.655
 7650POPC   C1B28639  37.165   6.484   8.555
 7650POPC   C2B28640  37.101   6.517   8.255
 7650POPC   C3B28641  37.148   6.511   7.955
 7650POPC   C4B28642  37.070   6.473   7.655
 7651POPC   NC328643   8.239   2.732   9.455
 7651POPC   PO428644   8.236   2.746   9.155
 7651POPC   GL128645   8.240   2.805   8.855
 7651POPC   GL228646   8.346   2.683   8.855
 7651POPC   C1A28647   8.190   2.785   8.555
 7651POPC   D2A28648   8.167   2.775   8.255
 7651POPC   C3A28649   8.231   2.754   7.955
 7651POPC   C4A28650   8.154   2.811   7.655
 7651POPC   C1B28651   8.437   2.714   8.555
 7651POPC   C2B28652   8.401   2.710   8.255
 7651POPC   C3B28653   8.430   2.638   7.955
 7651POPC   C4B28654   8.458   2.650   7.655
 7652POPC   NC328655  22.210  22.167   9.455
 7652POPC   PO428656  22.158  22.211   9.155
 7652POPC   GL128657  22.116  22.173   8.855
 7652POPC   GL228658  22.095  22.061   8.855
 7652POPC   C1A28659  22.149  22.150   8.555
 7652POPC   D2A28660  22.206  22.190   8.255
 7652POPC   C3A28661  22.134  22.202   7.955
 7652POPC   C4A28662  22.139  22.201   7.655
 7652POPC   C1B28663  22.056  21.977   8.555
 7652POPC   C2B28664  21.970  21.963   8.255
 7652POPC   C3B28665  22.019  21.965   7.955
 7652POPC   C4B28666  21.990  22.007   7.655
 7653POPC   NC328667  29.114  12.113   9.455
 7653POPC   PO428668  29.142  12.027   9.155
 7653POPC   GL128669  29.137  12.119   8.855
 7653POPC   GL228670  29.158  11.993   8.855
 7653POPC   C1A28671  29.103  12.122   8.555
 7653POPC   D2A28672  29.154  12.029   8.255
 7653POPC   C3A28673  29.194  12.037   7.955
 7653POPC   C4A28674  29.191  12.114   7.655
 7653POPC   C1B28675  29.145  11.806   8.555
 7653POPC   C2B28676  29.066  11.862   8.255
 7653POPC   C3B28677  29.134  11.861   7.955
 7653POPC   C4B28678  29.152  11.790   7.655
 7654POPC   NC328679   5.139   5.863   9.455
 7654POPC   PO428680   5.046   5.871   9.155
 7654POPC   GL128681   5.111   5.875   8.855
 7654POPC   GL228682   5.117   5.750   8.855
 7654POPC   C1A28683   5.047   5.887   8.555
 7654POPC   D2A28684   5.109   5.873   8.255
 7654POPC   C3A28685   5.085   5.885   7.955
 7654POPC   C4A28686   5.055   5.841   7.655
 7654POPC   C1B28687   5.117   5.623   8.555
 7654POPC   C2B28688   5.155   5.615   8.255
 7654POPC   C3B28689   5.085   5.646   7.955
 7654POPC   C4B28690   5.095   5.578   7.655
 7655POPC   NC328691  10.570   7.423   9.455
 7655POPC   PO428692  10.569   7.409   9.155
 7655POPC   GL128693  10.501   7.410   8.855
 7655POPC   GL228694  10.677   7.480   8.855
 7655POPC   C1A28695  10.476   7.380   8.555
 7655POPC   D2A28696  10.506   7.428   8.255
 7655POPC   C3A28697  10.495   7.395   7.955
 7655POPC   C4A28698  10.573   7.414   7.655
 7655POPC   C1B28699  10.708   7.509   8.555
 7655POPC   C2B28700  10.775   7.565   8.255
 7655POPC   C3B28701  10.722   7.531   7.955
 7655POPC   C4B28702  10.788   7.562   7.655
 7656POPC   NC328703  15.176  40.832   9.455
 7656POPC   PO428704  15.160  40.832   9.155
 7656POPC   GL128705  15.219  40.739   8.855
 7656POPC   GL228706  15.267  40.780   8.855
 7656POPC   C1A28707  15.166  40.738   8.555
 7656POPC   D2A28708  15.140  40.739   8.255
 7656POPC   C3A28709  15.144  40.796   7.955
 7656POPC   C4A28710  15.186  40.795   7.655
 7656POPC   C1B28711  15.375  40.838   8.555
 7656POPC   C2B28712  15.437  40.819   8.255
 7656POPC   C3B28713  15.370  40.887   7.955
 7656POPC   C4B28714  15.428  40.900   7.655
 7657POPC   NC328715  17.468  17.490   9.455
 7657POPC   PO428716  17.510  17.463   9.155
 7657POPC   GL128717  17.505  17.515   8.855
 7657POPC   GL228718  17.344  17.548   8.855
 7657POPC   C1A28719  17.554  17.485   8.555
 7657POPC   D2A28720  17.556  17.486   8.255
 7657POPC   C3A28721  17.467  17.513   7.955
 7657POPC   C4A28722  17.528  17.475   7.655
 7657POPC   C1B28723  17.293  17.539   8.555
 7657POPC   C2B28724  17.269  17.530   8.255
 7657POPC   C3B28725  17.223  17.587   7.955
 7657POPC   C4B28726  17.254  17.509   7.655
 7658POPC   NC328727  15.981  14.382   9.455
 7658POPC   PO428728  15.951  14.433   9.155
 7658POPC   GL128729  15.933  14.406   8.855
 7658POPC   GL228730  16.116  14.362   8.855
 7658POPC   C1A28731  15.998  14.374   8.555
 7658POPC   D2A28732  15.931  14.437   8.255
 7658POPC   C3A28733  15.930  14.394   7.955
 7658POPC   C4A28734  15.954  14.417   7.655
 7658POPC   C1B28735  16.181  14.404   8.555
 7658POPC   C2B28736  16.231  14.424   8.255
 7658POPC   C3B28737  16.179  14.428   7.955
 7658POPC   C4B28738  16.192  14.363   7.655
 7659POPC   NC328739   6.656  39.232   9.455
 7659POPC   PO428740   6.627  39.208   9.155
 7659POPC   GL128741   6.615  39.240   8.855
 7659POPC   GL228742   6.489  39.220   8.855
 7659POPC   C1A28743   6.650  39.187   8.555
 7659POPC   D2A28744   6.674  39.268   8.255
 7659POPC   C3A28745   6.690  39.252   7.955
 7659POPC   C4A28746   6.689  39.197   7.655
 7659POPC   C1B28747   6.416  39.119   8.555
 7659POPC   C2B28748   6.465  39.116   8.255
 7659POPC   C3B28749   6.429  39.107   7.955
 7659POPC   C4B28750   6.433  39.136   7.655
 7660POPC   NC328751  16.736  14.367   9.455
 7660POPC   PO428752  16.718  14.390   9.155
 7660POPC   GL128753  16.778  14.450   8.855
 7660POPC   GL228754  16.708  14.528   8.855
 7660POPC   C1A28755  16.714  14.359   8.555
 7660POPC   D2A28756  16.702  14.416   8.255
 7660POPC   C3A28757  16.726  14.449   7.955
 7660POPC   C4A28758  16.768  14.366   7.655
 7660POPC   C1B28759  16.710  14.614   8.555
 7660POPC   C2B28760  16.715  14.699   8.255
 7660POPC   C3B28761  16.686  14.695   7.955
 7660POPC   C4B28762  16.662  14.620   7.655
 7661POPC   NC328763  42.374  15.177   9.455
 7661POPC   PO428764  42.340  15.182   9.155
 7661POPC   GL128765  42.357  15.177   8.855
 7661POPC   GL228766  42.408  15.077   8.855
 7661POPC   C1A28767  42.340  15.156   8.555
 7661POPC   D2A28768  42.290  15.228   8.255
 7661POPC   C3A28769  42.324  15.224   7.955
 7661POPC   C4A28770  42.356  15.217   7.655
 7661POPC   C1B28771  42.392  14.984   8.555
 7661POPC   C2B28772  42.418  14.917   8.255
 7661POPC   C3B28773  42.369  14.929   7.955
 7661POPC   C4B28774  42.440  14.901   7.655
 7662POPC   NC328775   2.025  43.064   9.455
 7662POPC   PO428776   2.000  43.111   9.155
 7662POPC   GL128777   1.950  43.122   8.855
 7662POPC   GL228778   1.868  43.105   8.855
 7662POPC   C1A28779   2.035  43.099   8.555
 7662POPC   D2A28780   1.943  43.081   8.255
 7662POPC   C3A28781   2.023  43.117   7.955
 7662POPC   C4A28782   2.040  43.159   7.655
 7662POPC   C1B28783   1.783  43.148   8.555
 7662POPC   C2B28784   1.761  43.113   8.255
 7662POPC   C3B28785   1.750  43.086   7.955
 7662POPC   C4B28786   1.737  43.156   7.655
 7663POPC   NC328787  43.079  12.061   9.455
 7663POPC   PO428788  43.159  12.045   9.155
 7663POPC   GL128789  43.142  12.125   8.855
 7663POPC   GL228790  43.220  12.193   8.855
 7663POPC   C1A28791  43.130  12.119   8.555
 7663POPC   D2A28792  43.108  12.101   8.255
 7663POPC   C3A28793  43.073  12.107   7.955
 7663POPC   C4A28794  43.115  12.102   7.655
 7663POPC   C1B28795  43.293  12.249   8.555
 7663POPC   C2B28796  43.314  12.218   8.255
 7663POPC   C3B28797  43.276  12.242   7.955
 7663POPC   C4B28798  43.288  12.291   7.655
 7664POPC   NC328799  17.537   1.995   9.455
 7664POPC   PO428800  17.496   1.973   9.155
 7664POPC   GL128801  17.474   1.953   8.855
 7664POPC   GL228802  17.577   2.109   8.855
 7664POPC   C1A28803  17.484   1.945   8.555
 7664POPC   D2A28804  17.491   2.015   8.255
 7664POPC   C3A28805  17.460   2.006   7.955
 7664POPC   C4A28806  17.511   1.987   7.655
 7664POPC   C1B28807  17.672   2.203   8.555
 7664POPC   C2B28808  17.668   2.177   8.255
 7664POPC   C3B28809  17.704   2.212   7.955
 7664POPC   C4B28810  17.688   2.205   7.655
 7665POPC   NC328811  19.882  19.839   9.455
 7665POPC   PO428812  19.788  19.811   9.155
 7665POPC   GL128813  19.816  19.814   8.855
 7665POPC   GL228814  19.703  19.779   8.855
 7665POPC   C1A28815  19.863  19.818   8.555
 7665POPC   D2A28816  19.851  19.795   8.255
 7665POPC   C3A28817  19.801  19.788   7.955
 7665POPC   C4A28818  19.796  19.828   7.655
 7665POPC   C1B28819  19.571  19.802   8.555
 7665POPC   C2B28820  19.589  19.762   8.255
 7665POPC   C3B28821  19.609  19.733   7.955
 7665POPC   C4B28822  19.646  19.747   7.655
 7666POPC   NC328823   9.749  18.290   9.455
 7666POPC   PO428824   9.776  18.331   9.155
 7666POPC   GL128825   9.716  18.250   8.855
 7666POPC   GL228826   9.835  18.307   8.855
 7666POPC   C1A28827   9.775  18.305   8.555
 7666POPC   D2A28828   9.746  18.283   8.255
 7666POPC   C3A28829   9.711  18.273   7.955
 7666POPC   C4A28830   9.737  18.320   7.655
 7666POPC   C1B28831   9.959  18.305   8.555
 7666POPC   C2B28832   9.989  18.255   8.255
 7666POPC   C3B28833   9.999  18.346   7.955
 7666POPC   C4B28834  10.039  18.262   7.655
 7667POPC   NC328835  35.393  37.658   9.455
 7667POPC   PO428836  35.353  37.700   9.155
 7667POPC   GL128837  35.333  37.700   8.855
 7667POPC   GL228838  35.476  37.686   8.855
 7667POPC   C1A28839  35.328  37.634   8.555
 7667POPC   D2A28840  35.388  37.655   8.255
 7667POPC   C3A28841  35.335  37.648   7.955
 7667POPC   C4A28842  35.400  37.668   7.655
 7667POPC   C1B28843  35.547  37.650   8.555
 7667POPC   C2B28844  35.573  37.634   8.255
 7667POPC   C3B28845  35.630  37.656   7.955
 7667POPC   C4B28846  35.589  37.627   7.655
 7668POPC   NC328847  28.345  11.338   9.455
 7668POPC   PO428848  28.329  11.336   9.155
 7668POPC   GL128849  28.394  11.326   8.855
 7668POPC   GL228850  28.254  11.247   8.855
 7668POPC   C1A28851  28.395  11.295   8.555
 7668POPC   D2A28852  28.330  11.294   8.255
 7668POPC   C3A28853  28.373  11.306   7.955
 7668POPC   C4A28854  28.415  11.329   7.655
 7668POPC   C1B28855  28.139  11.137   8.555
 7668POPC   C2B28856  28.198  11.199   8.255
 7668POPC   C3B28857  28.129  11.158   7.955
 7668POPC   C4B28858  28.134  11.204   7.655
 7669POPC   NC328859  25.263  36.855   9.455
 7669POPC   PO428860  25.287  36.946   9.155
 7669POPC   GL128861  25.263  36.882   8.855
 7669POPC   GL228862  25.356  36.906   8.855
 7669POPC   C1A28863  25.219  36.934   8.555
 7669POPC   D2A28864  25.244  36.947   8.255
 7669POPC   C3A28865  25.297  36.916   7.955
 7669POPC   C4A28866  25.219  36.886   7.655
 7669POPC   C1B28867  25.471  37.028   8.555
 7669POPC   C2B28868  25.476  37.041   8.255
 7669POPC   C3B28869  25.534  36.993   7.955
 7669POPC   C4B28870  25.543  37.011   7.655
 7670POPC   NC328871  29.912  41.566   9.455
 7670POPC   PO428872  29.912  41.573   9.155
 7670POPC   GL128873  29.873  41.539   8.855
 7670POPC   GL228874  29.887  41.500   8.855
 7670POPC   C1A28875  29.955  41.549   8.555
 7670POPC   D2A28876  29.963  41.576   8.255
 7670POPC   C3A28877  29.966  41.591   7.955
 7670POPC   C4A28878  29.885  41.555   7.655
 7670POPC   C1B28879  29.804  41.367   8.555
 7670POPC   C2B28880  29.778  41.355   8.255
 7670POPC   C3B28881  29.776  41.317   7.955
 7670POPC   C4B28882  29.795  41.376   7.655
 7671POPC   NC328883  21.375  27.583   9.455
 7671POPC   PO428884  21.390  27.566   9.155
 7671POPC   GL128885  21.435  27.636   8.855
 7671POPC   GL228886  21.503  27.644   8.855
 7671POPC   C1A28887  21.361  27.548   8.555
 7671POPC   D2A28888  21.430  27.592   8.255
 7671POPC   C3A28889  21.389  27.572   7.955
 7671POPC   C4A28890  21.415  27.568   7.655
 7671POPC   C1B28891  21.593  27.638   8.555
 7671POPC   C2B28892  21.599  27.690   8.255
 7671POPC   C3B28893  21.616  27.660   7.955
 7671POPC   C4B28894  21.655  27.649   7.655
 7672POPC   NC328895  29.103  10.559   9.455
 7672POPC   PO428896  29.121  10.533   9.155
 7672POPC   GL128897  29.194  10.561   8.855
 7672POPC   GL228898  29.135  10.358   8.855
 7672POPC   C1A28899  29.132  10.523   8.555
 7672POPC   D2A28900  29.180  10.487   8.255
 7672POPC   C3A28901  29.122  10.512   7.955
 7672POPC   C4A28902  29.147  10.556   7.655
 7672POPC   C1B28903  29.083  10.315   8.555
 7672POPC   C2B28904  29.083  10.243   8.255
 7672POPC   C3B28905  29.110  10.246   7.955
 7672POPC   C4B28906  29.155  10.311   7.655
 7673POPC   NC328907   6.683  36.171   9.455
 7673POPC   PO428908   6.666  36.175   9.155
 7673POPC   GL128909   6.595  36.095   8.855
 7673POPC   GL228910   6.721  36.151   8.855
 7673POPC   C1A28911   6.617  36.100   8.555
 7673POPC   D2A28912   6.692  36.102   8.255
 7673POPC   C3A28913   6.683  36.140   7.955
 7673POPC   C4A28914   6.625  36.162   7.655
 7673POPC   C1B28915   6.924  36.120   8.555
 7673POPC   C2B28916   6.925  36.163   8.255
 7673POPC   C3B28917   6.868  36.097   7.955
 7673POPC   C4B28918   6.868  36.134   7.655
 7674POPC   NC328919  11.288  39.983   9.455
 7674POPC   PO428920  11.304  40.019   9.155
 7674POPC   GL128921  11.328  40.047   8.855
 7674POPC   GL228922  11.238  39.937   8.855
 7674POPC   C1A28923  11.333  40.008   8.555
 7674POPC   D2A28924  11.337  39.965   8.255
 7674POPC   C3A28925  11.296  40.055   7.955
 7674POPC   C4A28926  11.273  40.026   7.655
 7674POPC   C1B28927  11.205  39.771   8.555
 7674POPC   C2B28928  11.170  39.849   8.255
 7674POPC   C3B28929  11.119  39.796   7.955
 7674POPC   C4B28930  11.160  39.815   7.655
 7675POPC   NC328931  35.351  12.080   9.455
 7675POPC   PO428932  35.305  12.089   9.155
 7675POPC   GL128933  35.388  12.123   8.855
 7675POPC   GL228934  35.205  12.020   8.855
 7675POPC   C1A28935  35.371  12.107   8.555
 7675POPC   D2A28936  35.324  12.120   8.255
 7675POPC   C3A28937  35.336  12.040   7.955
 7675POPC   C4A28938  35.332  12.030   7.655
 7675POPC   C1B28939  35.171  11.947   8.555
 7675POPC   C2B28940  35.139  11.926   8.255
 7675POPC   C3B28941  35.099  11.973   7.955
 7675POPC   C4B28942  35.083  12.004   7.655
 7676POPC   NC328943  14.389  40.823   9.455
 7676POPC   PO428944  14.356  40.808   9.155
 7676POPC   GL128945  14.370  40.821   8.855
 7676POPC   GL228946  14.427  40.896   8.855
 7676POPC   C1A28947  14.449  40.767   8.555
 7676POPC   D2A28948  14.427  40.785   8.255
 7676POPC   C3A28949  14.451  40.827   7.955
 7676POPC   C4A28950  14.385  40.759   7.655
 7676POPC   C1B28951  14.474  41.063   8.555
 7676POPC   C2B28952  14.418  41.034   8.255
 7676POPC   C3B28953  14.449  41.046   7.955
 7676POPC   C4B28954  14.487  41.009   7.655
 7677POPC   NC328955  37.707  31.484   9.455
 7677POPC   PO428956  37.664  31.505   9.155
 7677POPC   GL128957  37.701  31.450   8.855
 7677POPC   GL228958  37.523  31.437   8.855
 7677POPC   C1A28959  37.656  31.467   8.555
 7677POPC   D2A28960  37.725  31.487   8.255
 7677POPC   C3A28961  37.640  31.424   7.955
 7677POPC   C4A28962  37.707  31.512   7.655
 7677POPC   C1B28963  37.439  31.469   8.555
 7677POPC   C2B28964  37.441  31.467   8.255
 7677POPC   C3B28965  37.451  31.428   7.955
 7677POPC   C4B28966  37.458  31.420   7.655
 7678POPC   NC328967  43.081  19.010   9.455
 7678POPC   PO428968  43.082  19.043   9.155
 7678POPC   GL128969  43.084  19.049   8.855
 7678POPC   GL228970  43.167  19.214   8.855
 7678POPC   C1A28971  43.130  19.087   8.555
 7678POPC   D2A28972  43.079  19.038   8.255
 7678POPC   C3A28973  43.132  19.026   7.955
 7678POPC   C4A28974  43.159  19.057   7.655
 7678POPC   C1B28975  43.091  19.290   8.555
 7678POPC   C2B28976  43.083  19.354   8.255
 7678POPC   C3B28977  43.161  19.303   7.955
 7678POPC   C4B28978  43.095  19.349   7.655
 7679POPC   NC328979   3.587  11.268   9.455
 7679POPC   PO428980   3.589  11.317   9.155
 7679POPC   GL128981   3.556  11.328   8.855
 7679POPC   GL228982   3.414  11.378   8.855
 7679POPC   C1A28983   3.535  11.330   8.555
 7679POPC   D2A28984   3.534  11.290   8.255
 7679POPC   C3A28985   3.586  11.257   7.955
 7679POPC   C4A28986   3.564  11.333   7.655
 7679POPC   C1B28987   3.350  11.373   8.555
 7679POPC   C2B28988   3.281  11.327   8.255
 7679POPC   C3B28989   3.284  11.401   7.955
 7679POPC   C4B28990   3.351  11.333   7.655
 7680POPC   NC328991  31.448  12.806   9.455
 7680POPC   PO428992  31.468  12.813   9.155
 7680POPC   GL128993  31.475  12.859   8.855
 7680POPC   GL228994  31.378  12.920   8.855
 7680POPC   C1A28995  31.467  12.815   8.555
 7680POPC   D2A28996  31.510  12.857   8.255
 7680POPC   C3A28997  31.522  12.846   7.955
 7680POPC   C4A28998  31.466  12.844   7.655
 7680POPC   C1B28999  31.287  12.987   8.555
 7680POPC   C2B29000  31.285  12.926   8.255
 7680POPC   C3B29001  31.230  12.954   7.955
 7680POPC   C4B29002  31.234  12.935   7.655
 7681POPC   NC329003   6.639  32.216   9.455
 7681POPC   PO429004   6.646  32.233   9.155
 7681POPC   GL129005   6.674  32.286   8.855
 7681POPC   GL229006   6.787  32.272   8.855
 7681POPC   C1A29007   6.634  32.213   8.555
 7681POPC   D2A29008   6.610  32.292   8.255
 7681POPC   C3A29009   6.611  32.258   7.955
 7681POPC   C4A29010   6.639  32.285   7.655
 7681POPC   C1B29011   6.834  32.363   8.555
 7681POPC   C2B29012   6.822  32.385   8.255
 7681POPC   C3B29013   6.898  32.409   7.955
 7681POPC   C4B29014   6.899  32.419   7.655
 7682POPC   NC329015  33.058  37.659   9.455
 7682POPC   PO429016  33.027  37.659   9.155
 7682POPC   GL129017  32.983  37.681   8.855
 7682POPC   GL229018  33.082  37.641   8.855
 7682POPC   C1A29019  33.045  37.686   8.555
 7682POPC   D2A29020  33.040  37.690   8.255
 7682POPC   C3A29021  33.054  37.640   7.955
 7682POPC   C4A29022  33.008  37.679   7.655
 7682POPC   C1B29023  33.246  37.484   8.555
 7682POPC   C2B29024  33.194  37.547   8.255
 7682POPC   C3B29025  33.241  37.543   7.955
 7682POPC   C4B29026  33.205  37.485   7.655
 7683POPC   NC329027  39.235   4.307   9.455
 7683POPC   PO429028  39.262   4.289   9.155
 7683POPC   GL129029  39.203   4.275   8.855
 7683POPC   GL229030  39.319   4.299   8.855
 7683POPC   C1A29031  39.224   4.311   8.555
 7683POPC   D2A29032  39.274   4.331   8.255
 7683POPC   C3A29033  39.263   4.269   7.955
 7683POPC   C4A29034  39.191   4.314   7.655
 7683POPC   C1B29035  39.447   4.243   8.555
 7683POPC   C2B29036  39.433   4.270   8.255
 7683POPC   C3B29037  39.520   4.300   7.955
 7683POPC   C4B29038  39.523   4.308   7.655
 7684POPC   NC329039   8.969  19.845   9.455
 7684POPC   PO429040   8.956  19.826   9.155
 7684POPC   GL129041   9.008  19.820   8.855
 7684POPC   GL229042   8.891  19.759   8.855
 7684POPC   C1A29043   8.945  19.794   8.555
 7684POPC   D2A29044   8.952  19.832   8.255
 7684POPC   C3A29045   8.928  19.789   7.955
 7684POPC   C4A29046   8.965  19.843   7.655
 7684POPC   C1B29047   8.804  19.720   8.555
 7684POPC   C2B29048   8.797  19.699   8.255
 7684POPC   C3B29049   8.810  19.727   7.955
 7684POPC   C4B29050   8.724  19.710   7.655
 7685POPC   NC329051  16.769  32.252   9.455
 7685POPC   PO429052  16.732  32.291   9.155
 7685POPC   GL129053  16.733  32.259   8.855
 7685POPC   GL229054  16.780  32.119   8.855
 7685POPC   C1A29055  16.701  32.282   8.555
 7685POPC   D2A29056  16.739  32.210   8.255
 7685POPC   C3A29057  16.706  32.229   7.955
 7685POPC   C4A29058  16.714  32.248   7.655
 7685POPC   C1B29059  16.758  31.963   8.555
 7685POPC   C2B29060  16.800  31.958   8.255
 7685POPC   C3B29061  16.742  31.963   7.955
 7685POPC   C4B29062  16.812  31.967   7.655
 7686POPC   NC329063  28.339  38.443   9.455
 7686POPC   PO429064  28.414  38.440   9.155
 7686POPC   GL129065  28.337  38.477   8.855
 7686POPC   GL229066  28.207  38.481   8.855
 7686POPC   C1A29067  28.331  38.500   8.555
 7686POPC   D2A29068  28.398  38.491   8.255
 7686POPC   C3A29069  28.394  38.487   7.955
 7686POPC   C4A29070  28.392  38.498   7.655
 7686POPC   C1B29071  28.102  38.584   8.555
 7686POPC   C2B29072  28.133  38.498   8.255
 7686POPC   C3B29073  28.118  38.535   7.955
 7686POPC   C4B29074  28.108  38.545   7.655
 7687POPC   NC329075   1.165  10.547   9.455
 7687POPC   PO429076   1.199  10.552   9.155
 7687POPC   GL129077   1.244  10.520   8.855
 7687POPC   GL229078   1.346  10.559   8.855
 7687POPC   C1A29079   1.191  10.482   8.555
 7687POPC   D2A29080   1.230  10.534   8.255
 7687POPC   C3A29081   1.198  10.479   7.955
 7687POPC   C4A29082   1.230  10.521   7.655
 7687POPC   C1B29083   1.399  10.635   8.555
 7687POPC   C2B29084   1.450  10.641   8.255
 7687POPC   C3B29085   1.418  10.639   7.955
 7687POPC   C4B29086   1.438  10.683   7.655
 7688POPC   NC329087  21.392  11.254   9.455
 7688POPC   PO429088  21.372  11.340   9.155
 7688POPC   GL129089  21.419  11.285   8.855
 7688POPC   GL229090  21.373  11.211   8.855
 7688POPC   C1A29091  21.359  11.302   8.555
 7688POPC   D2A29092  21.347  11.301   8.255
 7688POPC   C3A29093  21.342  11.269   7.955
 7688POPC   C4A29094  21.435  11.322   7.655
 7688POPC   C1B29095  21.271  11.061   8.555
 7688POPC   C2B29096  21.281  11.028   8.255
 7688POPC   C3B29097  21.281  11.108   7.955
 7688POPC   C4B29098  21.308  11.030   7.655
 7689POPC   NC329099  33.037  36.889   9.455
 7689POPC   PO429100  33.042  36.857   9.155
 7689POPC   GL129101  32.995  36.866   8.855
 7689POPC   GL229102  33.161  36.930   8.855
 7689POPC   C1A29103  32.976  36.920   8.555
 7689POPC   D2A29104  33.044  36.900   8.255
 7689POPC   C3A29105  33.048  36.879   7.955
 7689POPC   C4A29106  33.039  36.886   7.655
 7689POPC   C1B29107  33.230  36.926   8.555
 7689POPC   C2B29108  33.240  36.986   8.255
 7689POPC   C3B29109  33.285  36.957   7.955
 7689POPC   C4B29110  33.253  37.016   7.655
 7690POPC   NC329111  27.627  13.676   9.455
 7690POPC   PO429112  27.604  13.647   9.155
 7690POPC   GL129113  27.556  13.631   8.855
 7690POPC   GL229114  27.714  13.701   8.855
 7690POPC   C1A29115  27.583  13.639   8.555
 7690POPC   D2A29116  27.609  13.635   8.255
 7690POPC   C3A29117  27.573  13.670   7.955
 7690POPC   C4A29118  27.561  13.651   7.655
 7690POPC   C1B29119  27.831  13.671   8.555
 7690POPC   C2B29120  27.886  13.674   8.255
 7690POPC   C3B29121  27.887  13.711   7.955
 7690POPC   C4B29122  27.854  13.656   7.655
 7691POPC   NC329123  44.696   5.111   9.455
 7691POPC   PO429124  44.664   5.111   9.155
 7691POPC   GL129125  44.706   5.076   8.855
 7691POPC   GL229126  44.675   4.967   8.855
 7691POPC   C1A29127  44.664   5.107   8.555
 7691POPC   D2A29128  44.640   5.043   8.255
 7691POPC   C3A29129  44.687   5.097   7.955
 7691POPC   C4A29130  44.700   5.134   7.655
 7691POPC   C1B29131  44.554   4.892   8.555
 7691POPC   C2B29132  44.565   4.885   8.255
 7691POPC   C3B29133  44.557   4.809   7.955
 7691POPC   C4B29134  44.633   4.847   7.655
 7692POPC   NC329135  39.202  40.007   9.455
 7692POPC   PO429136  39.264  39.969   9.155
 7692POPC   GL129137  39.223  40.054   8.855
 7692POPC   GL229138  39.180  40.064   8.855
 7692POPC   C1A29139  39.231  40.015   8.555
 7692POPC   D2A29140  39.247  40.002   8.255
 7692POPC   C3A29141  39.227  39.987   7.955
 7692POPC   C4A29142  39.214  39.963   7.655
 7692POPC   C1B29143  39.086  40.224   8.555
 7692POPC   C2B29144  39.100  40.151   8.255
 7692POPC   C3B29145  39.060  40.223   7.955
 7692POPC   C4B29146  39.046  40.232   7.655
 7693POPC   NC329147  25.247   5.820   9.455
 7693POPC   PO429148  25.220   5.846   9.155
 7693POPC   GL129149  25.306   5.908   8.855
 7693POPC   GL229150  25.161   5.838   8.855
 7693POPC   C1A29151  25.283   5.904   8.555
 7693POPC   D2A29152  25.275   5.840   8.255
 7693POPC   C3A29153  25.305   5.870   7.955
 7693POPC   C4A29154  25.253   5.826   7.655
 7693POPC   C1B29155  24.995   5.832   8.555
 7693POPC   C2B29156  25.002   5.769   8.255
 7693POPC   C3B29157  25.046   5.798   7.955
 7693POPC   C4B29158  24.985   5.774   7.655
 7694POPC   NC329159  34.569   3.586   9.455
 7694POPC   PO429160  34.555   3.579   9.155
 7694POPC   GL129161  34.608   3.567   8.855
 7694POPC   GL229162  34.630   3.432   8.855
 7694POPC   C1A29163  34.595   3.541   8.555
 7694POPC   D2A29164  34.564   3.534   8.255
 7694POPC   C3A29165  34.603   3.586   7.955
 7694POPC   C4A29166  34.548   3.581   7.655
 7694POPC   C1B29167  34.790   3.332   8.555
 7694POPC   C2B29168  34.749   3.376   8.255
 7694POPC   C3B29169  34.741   3.360   7.955
 7694POPC   C4B29170  34.780   3.400   7.655
 7695POPC   NC329171   5.848   0.487   9.455
 7695POPC   PO429172   5.910   0.448   9.155
 7695POPC   GL129173   5.819   0.432   8.855
 7695POPC   GL229174   5.708   0.542   8.855
 7695POPC   C1A29175   5.831   0.389   8.555
 7695POPC   D2A29176   5.860   0.389   8.255
 7695POPC   C3A29177   5.873   0.440   7.955
 7695POPC   C4A29178   5.829   0.397   7.655
 7695POPC   C1B29179   5.604   0.559   8.555
 7695POPC   C2B29180   5.642   0.516   8.255
 7695POPC   C3B29181   5.634   0.576   7.955
 7695POPC   C4B29182   5.612   0.504   7.655
 7696POPC   NC329183  19.869  28.330   9.455
 7696POPC   PO429184  19.883  28.319   9.155
 7696POPC   GL129185  19.785  28.320   8.855
 7696POPC   GL229186  19.782  28.485   8.855
 7696POPC   C1A29187  19.856  28.377   8.555
 7696POPC   D2A29188  19.874  28.319   8.255
 7696POPC   C3A29189  19.799  28.390   7.955
 7696POPC   C4A29190  19.874  28.351   7.655
 7696POPC   C1B29191  19.799  28.585   8.555
 7696POPC   C2B29192  19.777  28.621   8.255
 7696POPC   C3B29193  19.819  28.666   7.955
 7696POPC   C4B29194  19.839  28.630   7.655
 7697POPC   NC329195  13.633  29.143   9.455
 7697POPC   PO429196  13.674  29.125   9.155
 7697POPC   GL129197  13.663  29.194   8.855
 7697POPC   GL229198  13.678  29.205   8.855
 7697POPC   C1A29199  13.589  29.156   8.555
 7697POPC   D2A29200  13.612  29.096   8.255
 7697POPC   C3A29201  13.673  29.144   7.955
 7697POPC   C4A29202  13.667  29.143   7.655
 7697POPC   C1B29203  13.797  29.360   8.555
 7697POPC   C2B29204  13.735  29.388   8.255
 7697POPC   C3B29205  13.724  29.309   7.955
 7697POPC   C4B29206  13.726  29.338   7.655
 7698POPC   NC329207  26.011   3.512   9.455
 7698POPC   PO429208  26.049   3.555   9.155
 7698POPC   GL129209  26.035   3.534   8.855
 7698POPC   GL229210  25.980   3.647   8.855
 7698POPC   C1A29211  26.037   3.526   8.555
 7698POPC   D2A29212  26.088   3.562   8.255
 7698POPC   C3A29213  26.089   3.498   7.955
 7698POPC   C4A29214  26.065   3.574   7.655
 7698POPC   C1B29215  25.948   3.752   8.555
 7698POPC   C2B29216  25.940   3.793   8.255
 7698POPC   C3B29217  25.998   3.772   7.955
 7698POPC   C4B29218  25.946   3.747   7.655
 7699POPC   NC329219  27.642  21.380   9.455
 7699POPC   PO429220  27.555  21.435   9.155
 7699POPC   GL129221  27.625  21.429   8.855
 7699POPC   GL229222  27.708  21.258   8.855
 7699POPC   C1A29223  27.596  21.366   8.555
 7699POPC   D2A29224  27.578  21.435   8.255
 7699POPC   C3A29225  27.548  21.422   7.955
 7699POPC   C4A29226  27.547  21.401   7.655
 7699POPC   C1B29227  27.798  21.173   8.555
 7699POPC   C2B29228  27.777  21.225   8.255
 7699POPC   C3B29229  27.775  21.239   7.955
 7699POPC   C4B29230  27.751  21.161   7.655
 7700POPC   NC329231  38.421  35.375   9.455
 7700POPC   PO429232  38.491  35.339   9.155
 7700POPC   GL129233  38.428  35.326   8.855
 7700POPC   GL229234  38.599  35.282   8.855
 7700POPC   C1A29235  38.425  35.346   8.555
 7700POPC   D2A29236  38.422  35.380   8.255
 7700POPC   C3A29237  38.466  35.363   7.955
 7700POPC   C4A29238  38.500  35.387   7.655
 7700POPC   C1B29239  38.641  35.196   8.555
 7700POPC   C2B29240  38.710  35.231   8.255
 7700POPC   C3B29241  38.664  35.246   7.955
 7700POPC   C4B29242  38.699  35.195   7.655
 7701POPC   NC329243  23.734  36.163   9.455
 7701POPC   PO429244  23.752  36.136   9.155
 7701POPC   GL129245  23.758  36.162   8.855
 7701POPC   GL229246  23.664  36.009   8.855
 7701POPC   C1A29247  23.724  36.086   8.555
 7701POPC   D2A29248  23.745  36.142   8.255
 7701POPC   C3A29249  23.678  36.120   7.955
 7701POPC   C4A29250  23.674  36.166   7.655
 7701POPC   C1B29251  23.607  35.930   8.555
 7701POPC   C2B29252  23.550  35.896   8.255
 7701POPC   C3B29253  23.559  35.904   7.955
 7701POPC   C4B29254  23.549  35.911   7.655
 7702POPC   NC329255  33.817   2.031   9.455
 7702POPC   PO429256  33.824   1.986   9.155
 7702POPC   GL129257  33.826   1.987   8.855
 7702POPC   GL229258  33.890   1.919   8.855
 7702POPC   C1A29259  33.822   1.965   8.555
 7702POPC   D2A29260  33.836   1.972   8.255
 7702POPC   C3A29261  33.769   1.946   7.955
 7702POPC   C4A29262  33.832   2.030   7.655
 7702POPC   C1B29263  33.996   1.782   8.555
 7702POPC   C2B29264  33.911   1.823   8.255
 7702POPC   C3B29265  33.995   1.810   7.955
 7702POPC   C4B29266  33.973   1.824   7.655
 7703POPC   NC329267   9.793  34.579   9.455
 7703POPC   PO429268   9.727  34.574   9.155
 7703POPC   GL129269   9.769  34.592   8.855
 7703POPC   GL229270   9.640  34.553   8.855
 7703POPC   C1A29271   9.717  34.594   8.555
 7703POPC   D2A29272   9.728  34.545   8.255
 7703POPC   C3A29273   9.798  34.548   7.955
 7703POPC   C4A29274   9.768  34.531   7.655
 7703POPC   C1B29275   9.534  34.457   8.555
 7703POPC   C2B29276   9.569  34.384   8.255
 7703POPC   C3B29277   9.589  34.387   7.955
 7703POPC   C4B29278   9.568  34.413   7.655
 7704POPC   NC329279  43.113  26.029   9.455
 7704POPC   PO429280  43.094  26.011   9.155
 7704POPC   GL129281  43.129  26.050   8.855
 7704POPC   GL229282  42.997  26.026   8.855
 7704POPC   C1A29283  43.149  26.022   8.555
 7704POPC   D2A29284  43.105  26.041   8.255
 7704POPC   C3A29285  43.148  26.000   7.955
 7704POPC   C4A29286  43.111  26.008   7.655
 7704POPC   C1B29287  42.850  25.939   8.555
 7704POPC   C2B29288  42.839  25.947   8.255
 7704POPC   C3B29289  42.907  25.919   7.955
 7704POPC   C4B29290  42.849  25.886   7.655
 7705POPC   NC329291  29.120  12.828   9.455
 7705POPC   PO429292  29.192  12.893   9.155
 7705POPC   GL129293  29.126  12.850   8.855
 7705POPC   GL229294  29.261  12.855   8.855
 7705POPC   C1A29295  29.096  12.838   8.555
 7705POPC   D2A29296  29.159  12.824   8.255
 7705POPC   C3A29297  29.157  12.829   7.955
 7705POPC   C4A29298  29.126  12.818   7.655
 7705POPC   C1B29299  29.399  12.874   8.555
 7705POPC   C2B29300  29.427  12.829   8.255
 7705POPC   C3B29301  29.412  12.883   7.955
 7705POPC   C4B29302  29.398  12.850   7.655
 7706POPC   NC329303   5.895  34.607   9.455
 7706POPC   PO429304   5.889  34.623   9.155
 7706POPC   GL129305   5.895  34.536   8.855
 7706POPC   GL229306   5.944  34.612   8.855
 7706POPC   C1A29307   5.871  34.543   8.555
 7706POPC   D2A29308   5.892  34.575   8.255
 7706POPC   C3A29309   5.836  34.537   7.955
 7706POPC   C4A29310   5.911  34.616   7.655
 7706POPC   C1B29311   6.069  34.651   8.555
 7706POPC   C2B29312   6.117  34.586   8.255
 7706POPC   C3B29313   6.072  34.592   7.955
 7706POPC   C4B29314   6.121  34.584   7.655
 7707POPC   NC329315   5.067   9.797   9.455
 7707POPC   PO429316   5.141   9.760   9.155
 7707POPC   GL129317   5.080   9.754   8.855
 7707POPC   GL229318   4.929   9.708   8.855
 7707POPC   C1A29319   5.075   9.740   8.555
 7707POPC   D2A29320   5.068   9.737   8.255
 7707POPC   C3A29321   5.052   9.730   7.955
 7707POPC   C4A29322   5.125   9.727   7.655
 7707POPC   C1B29323   4.799   9.813   8.555
 7707POPC   C2B29324   4.876   9.737   8.255
 7707POPC   C3B29325   4.827   9.733   7.955
 7707POPC   C4B29326   4.876   9.799   7.655
 7708POPC   NC329327  12.089  16.734   9.455
 7708POPC   PO429328  12.085  16.704   9.155
 7708POPC   GL129329  12.044  16.774   8.855
 7708POPC   GL229330  12.089  16.585   8.855
 7708POPC   C1A29331  12.120  16.707   8.555
 7708POPC   D2A29332  12.049  16.717   8.255
 7708POPC   C3A29333  12.123  16.749   7.955
 7708POPC   C4A29334  12.061  16.699   7.655
 7708POPC   C1B29335  12.152  16.526   8.555
 7708POPC   C2B29336  12.168  16.515   8.255
 7708POPC   C3B29337  12.136  16.467   7.955
 7708POPC   C4B29338  12.117  16.446   7.655
 7709POPC   NC329339   0.414   8.214   9.455
 7709POPC   PO429340   0.422   8.245   9.155
 7709POPC   GL129341   0.473   8.191   8.855
 7709POPC   GL229342   0.326   8.276   8.855
 7709POPC   C1A29343   0.426   8.179   8.555
 7709POPC   D2A29344   0.468   8.212   8.255
 7709POPC   C3A29345   0.415   8.222   7.955
 7709POPC   C4A29346   0.457   8.219   7.655
 7709POPC   C1B29347   0.260   8.375   8.555
 7709POPC   C2B29348   0.293   8.425   8.255
 7709POPC   C3B29349   0.279   8.387   7.955
 7709POPC   C4B29350   0.223   8.428   7.655
 7710POPC   NC329351   5.848  18.269   9.455
 7710POPC   PO429352   5.910  18.311   9.155
 7710POPC   GL129353   5.907  18.264   8.855
 7710POPC   GL229354   5.752  18.277   8.855
 7710POPC   C1A29355   5.857  18.315   8.555
 7710POPC   D2A29356   5.880  18.269   8.255
 7710POPC   C3A29357   5.902  18.291   7.955
 7710POPC   C4A29358   5.863  18.237   7.655
 7710POPC   C1B29359   5.597  18.321   8.555
 7710POPC   C2B29360   5.650  18.325   8.255
 7710POPC   C3B29361   5.647  18.305   7.955
 7710POPC   C4B29362   5.595  18.371   7.655
 7711POPC   NC329363  33.830  33.826   9.455
 7711POPC   PO429364  33.803  33.775   9.155
 7711POPC   GL129365  33.754  33.810   8.855
 7711POPC   GL229366  33.746  33.873   8.855
 7711POPC   C1A29367  33.838  33.774   8.555
 7711POPC   D2A29368  33.843  33.835   8.255
 7711POPC   C3A29369  33.816  33.771   7.955
 7711POPC   C4A29370  33.802  33.762   7.655
 7711POPC   C1B29371  33.732  33.998   8.555
 7711POPC   C2B29372  33.664  33.984   8.255
 7711POPC   C3B29373  33.669  33.985   7.955
 7711POPC   C4B29374  33.721  33.998   7.655
 7712POPC   NC329375  42.345  23.721   9.455
 7712POPC   PO429376  42.294  23.705   9.155
 7712POPC   GL129377  42.349  23.729   8.855
 7712POPC   GL229378  42.351  23.860   8.855
 7712POPC   C1A29379  42.333  23.690   8.555
 7712POPC   D2A29380  42.316  23.739   8.255
 7712POPC   C3A29381  42.296  23.692   7.955
 7712POPC   C4A29382  42.370  23.749   7.655
 7712POPC   C1B29383  42.349  23.919   8.555
 7712POPC   C2B29384  42.369  23.962   8.255
 7712POPC   C3B29385  42.333  23.978   7.955
 7712POPC   C4B29386  42.361  24.006   7.655
 7713POPC   NC329387   1.198   8.926   9.455
 7713POPC   PO429388   1.173   8.998   9.155
 7713POPC   GL129389   1.207   8.934   8.855
 7713POPC   GL229390   1.335   9.034   8.855
 7713POPC   C1A29391   1.193   8.942   8.555
 7713POPC   D2A29392   1.256   8.991   8.255
 7713POPC   C3A29393   1.243   8.957   7.955
 7713POPC   C4A29394   1.194   8.958   7.655
 7713POPC   C1B29395   1.400   9.110   8.555
 7713POPC   C2B29396   1.409   9.135   8.255
 7713POPC   C3B29397   1.433   9.162   7.955
 7713POPC   C4B29398   1.434   9.121   7.655
 7714POPC   NC329399  24.523  26.790   9.455
 7714POPC   PO429400  24.518  26.802   9.155
 7714POPC   GL129401  24.528  26.806   8.855
 7714POPC   GL229402  24.447  26.905   8.855
 7714POPC   C1A29403  24.521  26.850   8.555
 7714POPC   D2A29404  24.499  26.833   8.255
 7714POPC   C3A29405  24.482  26.855   7.955
 7714POPC   C4A29406  24.498  26.848   7.655
 7714POPC   C1B29407  24.401  27.016   8.555
 7714POPC   C2B29408  24.439  27.084   8.255
 7714POPC   C3B29409  24.442  27.031   7.955
 7714POPC   C4B29410  24.381  27.046   7.655
 7715POPC   NC329411  11.292  13.590   9.455
 7715POPC   PO429412  11.277  13.657   9.155
 7715POPC   GL129413  11.301  13.643   8.855
 7715POPC   GL229414  11.398  13.635   8.855
 7715POPC   C1A29415  11.285  13.589   8.555
 7715POPC   D2A29416  11.263  13.643   8.255
 7715POPC   C3A29417  11.269  13.639   7.955
 7715POPC   C4A29418  11.270  13.671   7.655
 7715POPC   C1B29419  11.582  13.541   8.555
 7715POPC   C2B29420  11.559  13.534   8.255
 7715POPC   C3B29421  11.537  13.543   7.955
 7715POPC   C4B29422  11.505  13.508   7.655
 7716POPC   NC329423  36.142  15.919   9.455
 7716POPC   PO429424  36.091  15.959   9.155
 7716POPC   GL129425  36.159  15.920   8.855
 7716POPC   GL229426  36.151  16.078   8.855
 7716POPC   C1A29427  36.137  15.957   8.555
 7716POPC   D2A29428  36.103  15.952   8.255
 7716POPC   C3A29429  36.097  15.982   7.955
 7716POPC   C4A29430  36.126  15.940   7.655
 7716POPC   C1B29431  36.126  16.211   8.555
 7716POPC   C2B29432  36.130  16.168   8.255
 7716POPC   C3B29433  36.064  16.211   7.955
 7716POPC   C4B29434  36.074  16.237   7.655
 7717POPC   NC329435  19.848   5.838   9.455
 7717POPC   PO429436  19.796   5.919   9.155
 7717POPC   GL129437  19.827   5.849   8.855
 7717POPC   GL229438  19.721   5.965   8.855
 7717POPC   C1A29439  19.795   5.824   8.555
 7717POPC   D2A29440  19.877   5.844   8.255
 7717POPC   C3A29441  19.795   5.867   7.955
 7717POPC   C4A29442  19.865   5.917   7.655
 7717POPC   C1B29443  19.680   6.126   8.555
 7717POPC   C2B29444  19.746   6.065   8.255
 7717POPC   C3B29445  19.663   6.077   7.955
 7717POPC   C4B29446  19.670   6.048   7.655
 7718POPC   NC329447  16.756  41.582   9.455
 7718POPC   PO429448  16.734  41.573   9.155
 7718POPC   GL129449  16.699  41.517   8.855
 7718POPC   GL229450  16.841  41.599   8.855
 7718POPC   C1A29451  16.761  41.603   8.555
 7718POPC   D2A29452  16.759  41.594   8.255
 7718POPC   C3A29453  16.738  41.577   7.955
 7718POPC   C4A29454  16.704  41.607   7.655
 7718POPC   C1B29455  17.001  41.654   8.555
 7718POPC   C2B29456  16.909  41.678   8.255
 7718POPC   C3B29457  16.998  41.660   7.955
 7718POPC   C4B29458  16.962  41.666   7.655
 7719POPC   NC329459  36.879  36.915   9.455
 7719POPC   PO429460  36.927  36.874   9.155
 7719POPC   GL129461  36.868  36.929   8.855
 7719POPC   GL229462  36.821  37.029   8.855
 7719POPC   C1A29463  36.925  36.928   8.555
 7719POPC   D2A29464  36.923  36.886   8.255
 7719POPC   C3A29465  36.917  36.888   7.955
 7719POPC   C4A29466  36.860  36.938   7.655
 7719POPC   C1B29467  36.694  37.115   8.555
 7719POPC   C2B29468  36.728  37.108   8.255
 7719POPC   C3B29469  36.727  37.055   7.955
 7719POPC   C4B29470  36.734  37.081   7.655
 7720POPC   NC329471   5.913   8.150   9.455
 7720POPC   PO429472   5.867   8.232   9.155
 7720POPC   GL129473   5.848   8.243   8.855
 7720POPC   GL229474   5.988   8.148   8.855
 7720POPC   C1A29475   5.908   8.202   8.555
 7720POPC   D2A29476   5.910   8.169   8.255
 7720POPC   C3A29477   5.893   8.244   7.955
 7720POPC   C4A29478   5.871   8.168   7.655
 7720POPC   C1B29479   6.098   8.148   8.555
 7720POPC   C2B29480   6.166   8.176   8.255
 7720POPC   C3B29481   6.083   8.160   7.955
 7720POPC   C4B29482   6.083   8.210   7.655
 7721POPC   NC329483  26.044   4.309   9.455
 7721POPC   PO429484  26.062   4.321   9.155
 7721POPC   GL129485  25.993   4.315   8.855
 7721POPC   GL229486  26.138   4.358   8.855
 7721POPC   C1A29487  26.062   4.272   8.555
 7721POPC   D2A29488  26.043   4.300   8.255
 7721POPC   C3A29489  26.024   4.277   7.955
 7721POPC   C4A29490  26.014   4.268   7.655
 7721POPC   C1B29491  26.296   4.409   8.555
 7721POPC   C2B29492  26.272   4.452   8.255
 7721POPC   C3B29493  26.222   4.466   7.955
 7721POPC   C4B29494  26.266   4.457   7.655
 7722POPC   NC329495   2.018  23.725   9.455
 7722POPC   PO429496   2.012  23.684   9.155
 7722POPC   GL129497   1.954  23.707   8.855
 7722POPC   GL229498   2.054  23.633   8.855
 7722POPC   C1A29499   2.017  23.740   8.555
 7722POPC   D2A29500   1.976  23.715   8.255
 7722POPC   C3A29501   1.954  23.745   7.955
 7722POPC   C4A29502   1.984  23.713   7.655
 7722POPC   C1B29503   2.035  23.512   8.555
 7722POPC   C2B29504   2.034  23.454   8.255
 7722POPC   C3B29505   2.024  23.431   7.955
 7722POPC   C4B29506   2.040  23.516   7.655
 7723POPC   NC329507  23.739  23.734   9.455
 7723POPC   PO429508  23.712  23.680   9.155
 7723POPC   GL129509  23.669  23.700   8.855
 7723POPC   GL229510  23.788  23.788   8.855
 7723POPC   C1A29511  23.730  23.729   8.555
 7723POPC   D2A29512  23.750  23.689   8.255
 7723POPC   C3A29513  23.696  23.728   7.955
 7723POPC   C4A29514  23.755  23.763   7.655
 7723POPC   C1B29515  23.968  23.779   8.555
 7723POPC   C2B29516  23.899  23.777   8.255
 7723POPC   C3B29517  23.976  23.850   7.955
 7723POPC   C4B29518  23.900  23.780   7.655
 7724POPC   NC329519  26.009  38.477   9.455
 7724POPC   PO429520  26.086  38.436   9.155
 7724POPC   GL129521  26.074  38.456   8.855
 7724POPC   GL229522  25.947  38.598   8.855
 7724POPC   C1A29523  26.087  38.442   8.555
 7724POPC   D2A29524  26.010  38.417   8.255
 7724POPC   C3A29525  26.066  38.474   7.955
 7724POPC   C4A29526  26.067  38.435   7.655
 7724POPC   C1B29527  25.997  38.719   8.555
 7724POPC   C2B29528  25.974  38.717   8.255
 7724POPC   C3B29529  25.975  38.663   7.955
 7724POPC   C4B29530  25.989  38.685   7.655
 7725POPC   NC329531  42.314   2.023   9.455
 7725POPC   PO429532  42.370   1.945   9.155
 7725POPC   GL129533  42.330   1.946   8.855
 7725POPC   GL229534  42.239   1.902   8.855
 7725POPC   C1A29535  42.358   1.946   8.555
 7725POPC   D2A29536  42.325   1.948   8.255
 7725POPC   C3A29537  42.338   1.978   7.955
 7725POPC   C4A29538  42.323   1.942   7.655
 7725POPC   C1B29539  42.154   1.842   8.555
 7725POPC   C2B29540  42.194   1.823   8.255
 7725POPC   C3B29541  42.123   1.783   7.955
 7725POPC   C4B29542  42.138   1.851   7.655
 7726POPC   NC329543  41.566  40.054   9.455
 7726POPC   PO429544  41.560  40.039   9.155
 7726POPC   GL129545  41.593  40.034   8.855
 7726POPC   GL229546  41.462  40.106   8.855
 7726POPC   C1A29547  41.580  40.005   8.555
 7726POPC   D2A29548  41.572  39.992   8.255
 7726POPC   C3A29549  41.575  40.033   7.955
 7726POPC   C4A29550  41.590  40.000   7.655
 7726POPC   C1B29551  41.377  40.226   8.555
 7726POPC   C2B29552  41.409  40.222   8.255
 7726POPC   C3B29553  41.383  40.222   7.955
 7726POPC   C4B29554  41.364  40.176   7.655
 7727POPC   NC329555  32.994  42.314   9.455
 7727POPC   PO429556  33.051  42.370   9.155
 7727POPC   GL129557  33.033  42.333   8.855
 7727POPC   GL229558  32.974  42.418   8.855
 7727POPC   C1A29559  32.980  42.380   8.555
 7727POPC   D2A29560  33.051  42.362   8.255
 7727POPC   C3A29561  33.041  42.369   7.955
 7727POPC   C4A29562  32.981  42.352   7.655
 7727POPC   C1B29563  32.881  42.512   8.555
 7727POPC   C2B29564  32.905  42.605   8.255
 7727POPC   C3B29565  32.880  42.527   7.955
 7727POPC   C4B29566  32.881  42.607   7.655
 7728POPC   NC329567  36.894  21.427   9.455
 7728POPC   PO429568  36.908  21.388   9.155
 7728POPC   GL129569  36.861  21.360   8.855
 7728POPC   GL229570  36.796  21.448   8.855
 7728POPC   C1A29571  36.920  21.426   8.555
 7728POPC   D2A29572  36.859  21.398   8.255
 7728POPC   C3A29573  36.936  21.415   7.955
 7728POPC   C4A29574  36.899  21.393   7.655
 7728POPC   C1B29575  36.711  21.538   8.555
 7728POPC   C2B29576  36.689  21.516   8.255
 7728POPC   C3B29577  36.662  21.514   7.955
 7728POPC   C4B29578  36.732  21.549   7.655
 7729POPC   NC329579  27.564  10.573   9.455
 7729POPC   PO429580  27.582  10.486   9.155
 7729POPC   GL129581  27.547  10.526   8.855
 7729POPC   GL229582  27.542  10.654   8.855
 7729POPC   C1A29583  27.605  10.556   8.555
 7729POPC   D2A29584  27.555  10.516   8.255
 7729POPC   C3A29585  27.590  10.554   7.955
 7729POPC   C4A29586  27.549  10.487   7.655
 7729POPC   C1B29587  27.418  10.672   8.555
 7729POPC   C2B29588  27.450  10.709   8.255
 7729POPC   C3B29589  27.485  10.681   7.955
 7729POPC   C4B29590  27.395  10.728   7.655
 7730POPC   NC329591   0.405  42.300   9.455
 7730POPC   PO429592   0.407  42.295   9.155
 7730POPC   GL129593   0.456  42.321   8.855
 7730POPC   GL229594   0.316  42.297   8.855
 7730POPC   C1A29595   0.460  42.337   8.555
 7730POPC   D2A29596   0.405  42.315   8.255
 7730POPC   C3A29597   0.484  42.357   7.955
 7730POPC   C4A29598   0.481  42.330   7.655
 7730POPC   C1B29599   0.139  42.389   8.555
 7730POPC   C2B29600   0.183  42.383   8.255
 7730POPC   C3B29601   0.236  42.360   7.955
 7730POPC   C4B29602   0.156  42.356   7.655
 7731POPC   NC329603  31.472   8.932   9.455
 7731POPC   PO429604  31.461   8.953   9.155
 7731POPC   GL129605  31.479   8.942   8.855
 7731POPC   GL229606  31.464   8.896   8.855
 7731POPC   C1A29607  31.467   9.003   8.555
 7731POPC   D2A29608  31.474   8.942   8.255
 7731POPC   C3A29609  31.472   8.946   7.955
 7731POPC   C4A29610  31.476   8.927   7.655
 7731POPC   C1B29611  31.561   8.691   8.555
 7731POPC   C2B29612  31.516   8.716   8.255
 7731POPC   C3B29613  31.515   8.766   7.955
 7731POPC   C4B29614  31.564   8.724   7.655
 7732POPC   NC329615  40.746   4.288   9.455
 7732POPC   PO429616  40.762   4.293   9.155
 7732POPC   GL129617  40.783   4.297   8.855
 7732POPC   GL229618  40.818   4.236   8.855
 7732POPC   C1A29619  40.759   4.302   8.555
 7732POPC   D2A29620  40.819   4.293   8.255
 7732POPC   C3A29621  40.829   4.298   7.955
 7732POPC   C4A29622  40.765   4.306   7.655
 7732POPC   C1B29623  40.875   4.040   8.555
 7732POPC   C2B29624  40.797   4.060   8.255
 7732POPC   C3B29625  40.832   4.049   7.955
 7732POPC   C4B29626  40.873   4.121   7.655
 7733POPC   NC329627  10.546  14.421   9.455
 7733POPC   PO429628  10.475  14.410   9.155
 7733POPC   GL129629  10.490  14.402   8.855
 7733POPC   GL229630  10.596  14.544   8.855
 7733POPC   C1A29631  10.520  14.439   8.555
 7733POPC   D2A29632  10.549  14.425   8.255
 7733POPC   C3A29633  10.570  14.395   7.955
 7733POPC   C4A29634  10.562  14.414   7.655
 7733POPC   C1B29635  10.693  14.659   8.555
 7733POPC   C2B29636  10.658  14.580   8.255
 7733POPC   C3B29637  10.621  14.607   7.955
 7733POPC   C4B29638  10.665  14.574   7.655
 7734POPC   NC329639  17.556  25.249   9.455
 7734POPC   PO429640  17.481  25.240   9.155
 7734POPC   GL129641  17.474  25.290   8.855
 7734POPC   GL229642  17.580  25.404   8.855
 7734POPC   C1A29643  17.522  25.223   8.555
 7734POPC   D2A29644  17.461  25.284   8.255
 7734POPC   C3A29645  17.505  25.293   7.955
 7734POPC   C4A29646  17.475  25.237   7.655
 7734POPC   C1B29647  17.645  25.512   8.555
 7734POPC   C2B29648  17.688  25.423   8.255
 7734POPC   C3B29649  17.677  25.449   7.955
 7734POPC   C4B29650  17.627  25.446   7.655
 7735POPC   NC329651   8.237  27.597   9.455
 7735POPC   PO429652   8.230  27.563   9.155
 7735POPC   GL129653   8.163  27.604   8.855
 7735POPC   GL229654   8.155  27.512   8.855
 7735POPC   C1A29655   8.151  27.577   8.555
 7735POPC   D2A29656   8.232  27.595   8.255
 7735POPC   C3A29657   8.189  27.565   7.955
 7735POPC   C4A29658   8.220  27.597   7.655
 7735POPC   C1B29659   8.030  27.428   8.555
 7735POPC   C2B29660   8.037  27.394   8.255
 7735POPC   C3B29661   8.031  27.439   7.955
 7735POPC   C4B29662   8.032  27.360   7.655
 7736POPC   NC329663  37.709   4.347   9.455
 7736POPC   PO429664  37.711   4.304   9.155
 7736POPC   GL129665  37.716   4.348   8.855
 7736POPC   GL229666  37.747   4.263   8.855
 7736POPC   C1A29667  37.720   4.366   8.555
 7736POPC   D2A29668  37.666   4.319   8.255
 7736POPC   C3A29669  37.717   4.335   7.955
 7736POPC   C4A29670  37.691   4.323   7.655
 7736POPC   C1B29671  37.865   4.205   8.555
 7736POPC   C2B29672  37.937   4.168   8.255
 7736POPC   C3B29673  37.925   4.211   7.955
 7736POPC   C4B29674  37.952   4.205   7.655
 7737POPC   NC329675   7.374  35.385   9.455
 7737POPC   PO429676   7.417  35.386   9.155
 7737POPC   GL129677   7.377  35.349   8.855
 7737POPC   GL229678   7.407  35.505   8.855
 7737POPC   C1A29679   7.460  35.325   8.555
 7737POPC   D2A29680   7.437  35.347   8.255
 7737POPC   C3A29681   7.421  35.332   7.955
 7737POPC   C4A29682   7.430  35.362   7.655
 7737POPC   C1B29683   7.304  35.624   8.555
 7737POPC   C2B29684   7.322  35.558   8.255
 7737POPC   C3B29685   7.310  35.617   7.955
 7737POPC   C4B29686   7.333  35.577   7.655
 7738POPC   NC329687  27.594  24.490   9.455
 7738POPC   PO429688  27.580  24.452   9.155
 7738POPC   GL129689  27.557  24.525   8.855
 7738POPC   GL229690  27.511  24.594   8.855
 7738POPC   C1A29691  27.596  24.454   8.555
 7738POPC   D2A29692  27.612  24.496   8.255
 7738POPC   C3A29693  27.581  24.459   7.955
 7738POPC   C4A29694  27.606  24.478   7.655
 7738POPC   C1B29695  27.456  24.740   8.555
 7738POPC   C2B29696  27.486  24.742   8.255
 7738POPC   C3B29697  27.500  24.693   7.955
 7738POPC   C4B29698  27.530  24.672   7.655
 7739POPC   NC329699  43.115  43.109   9.455
 7739POPC   PO429700  43.137  43.095   9.155
 7739POPC   GL129701  43.157  43.137   8.855
 7739POPC   GL229702  43.093  42.950   8.855
 7739POPC   C1A29703  43.065  43.102   8.555
 7739POPC   D2A29704  43.125  43.113   8.255
 7739POPC   C3A29705  43.149  43.105   7.955
 7739POPC   C4A29706  43.063  43.156   7.655
 7739POPC   C1B29707  43.150  42.835   8.555
 7739POPC   C2B29708  43.147  42.848   8.255
 7739POPC   C3B29709  43.212  42.844   7.955
 7739POPC   C4B29710  43.185  42.844   7.655
 7740POPC   NC329711  19.033  26.774   9.455
 7740POPC   PO429712  19.025  26.851   9.155
 7740POPC   GL129713  19.017  26.841   8.855
 7740POPC   GL229714  19.212  26.712   8.855
 7740POPC   C1A29715  19.054  26.829   8.555
 7740POPC   D2A29716  19.045  26.855   8.255
 7740POPC   C3A29717  19.069  26.772   7.955
 7740POPC   C4A29718  19.075  26.789   7.655
 7740POPC   C1B29719  19.319  26.685   8.555
 7740POPC   C2B29720  19.280  26.666   8.255
 7740POPC   C3B29721  19.311  26.729   7.955
 7740POPC   C4B29722  19.322  26.686   7.655
 7741POPC   NC329723  21.353  24.472   9.455
 7741POPC   PO429724  21.381  24.525   9.155
 7741POPC   GL129725  21.434  24.528   8.855
 7741POPC   GL229726  21.416  24.317   8.855
 7741POPC   C1A29727  21.384  24.515   8.555
 7741POPC   D2A29728  21.371  24.472   8.255
 7741POPC   C3A29729  21.405  24.477   7.955
 7741POPC   C4A29730  21.367  24.459   7.655
 7741POPC   C1B29731  21.416  24.262   8.555
 7741POPC   C2B29732  21.371  24.257   8.255
 7741POPC   C3B29733  21.391  24.271   7.955
 7741POPC   C4B29734  21.407  24.193   7.655
 7742POPC   NC329735  13.675  27.641   9.455
 7742POPC   PO429736  13.618  27.602   9.155
 7742POPC   GL129737  13.594  27.631   8.855
 7742POPC   GL229738  13.552  27.523   8.855
 7742POPC   C1A29739  13.621  27.556   8.555
 7742POPC   D2A29740  13.611  27.568   8.255
 7742POPC   C3A29741  13.617  27.556   7.955
 7742POPC   C4A29742  13.581  27.624   7.655
 7742POPC   C1B29743  13.457  27.374   8.555
 7742POPC   C2B29744  13.436  27.408   8.255
 7742POPC   C3B29745  13.437  27.417   7.955
 7742POPC   C4B29746  13.496  27.351   7.655
 7743POPC   NC329747  15.987   0.486   9.455
 7743POPC   PO429748  15.938   0.438   9.155
 7743POPC   GL129749  15.933   0.459   8.855
 7743POPC   GL229750  15.867   0.431   8.855
 7743POPC   C1A29751  15.999   0.469   8.555
 7743POPC   D2A29752  15.950   0.438   8.255
 7743POPC   C3A29753  15.909   0.422   7.955
 7743POPC   C4A29754  15.979   0.396   7.655
 7743POPC   C1B29755  15.769   0.367   8.555
 7743POPC   C2B29756  15.696   0.386   8.255
 7743POPC   C3B29757  15.771   0.299   7.955
 7743POPC   C4B29758  15.744   0.299   7.655
 7744POPC   NC329759  36.875  26.844   9.455
 7744POPC   PO429760  36.867  26.835   9.155
 7744POPC   GL129761  36.906  26.867   8.855
 7744POPC   GL229762  37.018  26.857   8.855
 7744POPC   C1A29763  36.897  26.831   8.555
 7744POPC   D2A29764  36.942  26.849   8.255
 7744POPC   C3A29765  36.906  26.778   7.955
 7744POPC   C4A29766  36.877  26.777   7.655
 7744POPC   C1B29767  37.121  26.895   8.555
 7744POPC   C2B29768  37.154  26.947   8.255
 7744POPC   C3B29769  37.156  26.944   7.955
 7744POPC   C4B29770  37.123  26.898   7.655
 7745POPC   NC329771  43.914   6.599   9.455
 7745POPC   PO429772  43.915   6.646   9.155
 7745POPC   GL129773  43.928   6.684   8.855
 7745POPC   GL229774  43.878   6.506   8.855
 7745POPC   C1A29775  43.837   6.617   8.555
 7745POPC   D2A29776  43.865   6.626   8.255
 7745POPC   C3A29777  43.877   6.623   7.955
 7745POPC   C4A29778  43.910   6.601   7.655
 7745POPC   C1B29779  43.851   6.408   8.555
 7745POPC   C2B29780  43.821   6.388   8.255
 7745POPC   C3B29781  43.875   6.444   7.955
 7745POPC   C4B29782  43.783   6.409   7.655
 7746POPC   NC329783  42.365   0.407   9.455
 7746POPC   PO429784  42.320   0.464   9.155
 7746POPC   GL129785  42.319   0.482   8.855
 7746POPC   GL229786  42.450   0.375   8.855
 7746POPC   C1A29787  42.321   0.461   8.555
 7746POPC   D2A29788  42.315   0.456   8.255
 7746POPC   C3A29789  42.314   0.447   7.955
 7746POPC   C4A29790  42.375   0.430   7.655
 7746POPC   C1B29791  42.517   0.360   8.555
 7746POPC   C2B29792  42.550   0.290   8.255
 7746POPC   C3B29793  42.550   0.341   7.955
 7746POPC   C4B29794  42.565   0.318   7.655
 7747POPC   NC329795  22.900   8.163   9.455
 7747POPC   PO429796  22.905   8.184   9.155
 7747POPC   GL129797  22.940   8.208   8.855
 7747POPC   GL229798  23.011   8.265   8.855
 7747POPC   C1A29799  22.892   8.202   8.555
 7747POPC   D2A29800  22.916   8.203   8.255
 7747POPC   C3A29801  22.971   8.175   7.955
 7747POPC   C4A29802  22.953   8.241   7.655
 7747POPC   C1B29803  23.104   8.373   8.555
 7747POPC   C2B29804  23.152   8.337   8.255
 7747POPC   C3B29805  23.116   8.374   7.955
 7747POPC   C4B29806  23.197   8.326   7.655
 7748POPC   NC329807  35.310  12.855   9.455
 7748POPC   PO429808  35.392  12.844   9.155
 7748POPC   GL129809  35.379  12.840   8.855
 7748POPC   GL229810  35.231  12.906   8.855
 7748POPC   C1A29811  35.376  12.825   8.555
 7748POPC   D2A29812  35.373  12.805   8.255
 7748POPC   C3A29813  35.369  12.853   7.955
 7748POPC   C4A29814  35.343  12.812   7.655
 7748POPC   C1B29815  35.117  12.972   8.555
 7748POPC   C2B29816  35.206  13.028   8.255
 7748POPC   C3B29817  35.148  13.051   7.955
 7748POPC   C4B29818  35.150  13.055   7.655
 7749POPC   NC329819  44.626  33.031   9.455
 7749POPC   PO429820  44.613  33.035   9.155
 7749POPC   GL129821  44.690  33.053   8.855
 7749POPC   GL229822  44.795  32.938   8.855
 7749POPC   C1A29823  44.636  33.071   8.555
 7749POPC   D2A29824  44.646  33.047   8.255
 7749POPC   C3A29825  44.635  33.048   7.955
 7749POPC   C4A29826  44.685  33.071   7.655
 7749POPC   C1B29827  44.914  32.944   8.555
 7749POPC   C2B29828  44.865  32.862   8.255
 7749POPC   C3B29829  44.886  32.852   7.955
 7749POPC   C4B29830  44.909  32.891   7.655
 7750POPC   NC329831   8.959  11.277   9.455
 7750POPC   PO429832   8.956  11.266   9.155
 7750POPC   GL129833   8.970  11.292   8.855
 7750POPC   GL229834   8.883  11.413   8.855
 7750POPC   C1A29835   8.931  11.295   8.555
 7750POPC   D2A29836   8.990  11.282   8.255
 7750POPC   C3A29837   8.922  11.297   7.955
 7750POPC   C4A29838   8.981  11.296   7.655
 7750POPC   C1B29839   8.865  11.543   8.555
 7750POPC   C2B29840   8.866  11.541   8.255
 7750POPC   C3B29841   8.848  11.532   7.955
 7750POPC   C4B29842   8.783  11.479   7.655
 7751POPC   NC329843  40.815  10.563   9.455
 7751POPC   PO429844  40.800  10.537   9.155
 7751POPC   GL129845  40.812  10.494   8.855
 7751POPC   GL229846  40.902  10.581   8.855
 7751POPC   C1A29847  40.736  10.501   8.555
 7751POPC   D2A29848  40.734  10.492   8.255
 7751POPC   C3A29849  40.797  10.498   7.955
 7751POPC   C4A29850  40.735  10.502   7.655
 7751POPC   C1B29851  40.977  10.711   8.555
 7751POPC   C2B29852  40.972  10.675   8.255
 7751POPC   C3B29853  40.962  10.716   7.955
 7751POPC   C4B29854  40.966  10.662   7.655
 7752POPC   NC329855   8.240   3.590   9.455
 7752POPC   PO429856   8.212   3.581   9.155
 7752POPC   GL129857   8.158   3.550   8.855
 7752POPC   GL229858   8.356   3.533   8.855
 7752POPC   C1A29859   8.156   3.537   8.555
 7752POPC   D2A29860   8.174   3.493   8.255
 7752POPC   C3A29861   8.243   3.538   7.955
 7752POPC   C4A29862   8.155   3.584   7.655
 7752POPC   C1B29863   8.399   3.502   8.555
 7752POPC   C2B29864   8.442   3.483   8.255
 7752POPC   C3B29865   8.420   3.545   7.955
 7752POPC   C4B29866   8.475   3.513   7.655
 7753POPC   NC329867  18.250   5.829   9.455
 7753POPC   PO429868  18.279   5.910   9.155
 7753POPC   GL129869  18.310   5.855   8.855
 7753POPC   GL229870  18.136   5.791   8.855
 7753POPC   C1A29871  18.323   5.891   8.555
 7753POPC   D2A29872  18.318   5.884   8.255
 7753POPC   C3A29873  18.300   5.868   7.955
 7753POPC   C4A29874  18.290   5.849   7.655
 7753POPC   C1B29875  18.115   5.751   8.555
 7753POPC   C2B29876  18.067   5.734   8.255
 7753POPC   C3B29877  18.089   5.702   7.955
 7753POPC   C4B29878  18.065   5.698   7.655
 7754POPC   NC329879   1.976  32.999   9.455
 7754POPC   PO429880   2.022  32.976   9.155
 7754POPC   GL129881   1.976  32.977   8.855
 7754POPC   GL229882   2.023  32.868   8.855
 7754POPC   C1A29883   2.008  33.046   8.555
 7754POPC   D2A29884   1.951  33.001   8.255
 7754POPC   C3A29885   1.986  32.987   7.955
 7754POPC   C4A29886   1.951  33.041   7.655
 7754POPC   C1B29887   2.106  32.753   8.555
 7754POPC   C2B29888   2.082  32.765   8.255
 7754POPC   C3B29889   2.079  32.761   7.955
 7754POPC   C4B29890   2.108  32.844   7.655
 7755POPC   NC329891  40.762   5.090   9.455
 7755POPC   PO429892  40.756   5.128   9.155
 7755POPC   GL129893  40.824   5.102   8.855
 7755POPC   GL229894  40.748   5.221   8.855
 7755POPC   C1A29895  40.826   5.125   8.555
 7755POPC   D2A29896  40.793   5.138   8.255
 7755POPC   C3A29897  40.756   5.080   7.955
 7755POPC   C4A29898  40.741   5.054   7.655
 7755POPC   C1B29899  40.633   5.347   8.555
 7755POPC   C2B29900  40.671   5.351   8.255
 7755POPC   C3B29901  40.722   5.359   7.955
 7755POPC   C4B29902  40.680   5.326   7.655
 7756POPC   NC329903   5.822  33.765   9.455
 7756POPC   PO429904   5.877  33.807   9.155
 7756POPC   GL129905   5.865  33.806   8.855
 7756POPC   GL229906   5.899  33.722   8.855
 7756POPC   C1A29907   5.838  33.759   8.555
 7756POPC   D2A29908   5.884  33.764   8.255
 7756POPC   C3A29909   5.896  33.848   7.955
 7756POPC   C4A29910   5.918  33.829   7.655
 7756POPC   C1B29911   6.001  33.630   8.555
 7756POPC   C2B29912   6.000  33.574   8.255
 7756POPC   C3B29913   6.020  33.556   7.955
 7756POPC   C4B29914   5.985  33.621   7.655
 7757POPC   NC329915   4.340  33.825   9.455
 7757POPC   PO429916   4.307  33.848   9.155
 7757POPC   GL129917   4.339  33.795   8.855
 7757POPC   GL229918   4.195  33.917   8.855
 7757POPC   C1A29919   4.340  33.815   8.555
 7757POPC   D2A29920   4.329  33.781   8.255
 7757POPC   C3A29921   4.365  33.818   7.955
 7757POPC   C4A29922   4.274  33.797   7.655
 7757POPC   C1B29923   4.114  33.949   8.555
 7757POPC   C2B29924   4.146  33.961   8.255
 7757POPC   C3B29925   4.130  33.965   7.955
 7757POPC   C4B29926   4.173  34.004   7.655
 7758POPC   NC329927  20.580  27.556   9.455
 7758POPC   PO429928  20.597  27.546   9.155
 7758POPC   GL129929  20.626  27.639   8.855
 7758POPC   GL229930  20.488  27.642   8.855
 7758POPC   C1A29931  20.648  27.583   8.555
 7758POPC   D2A29932  20.614  27.582   8.255
 7758POPC   C3A29933  20.601  27.587   7.955
 7758POPC   C4A29934  20.636  27.625   7.655
 7758POPC   C1B29935  20.398  27.635   8.555
 7758POPC   C2B29936  20.384  27.669   8.255
 7758POPC   C3B29937  20.413  27.701   7.955
 7758POPC   C4B29938  20.400  27.623   7.655
 7759POPC   NC329939  27.604  26.815   9.455
 7759POPC   PO429940  27.619  26.830   9.155
 7759POPC   GL129941  27.622  26.837   8.855
 7759POPC   GL229942  27.757  26.889   8.855
 7759POPC   C1A29943  27.609  26.780   8.555
 7759POPC   D2A29944  27.618  26.776   8.255
 7759POPC   C3A29945  27.596  26.849   7.955
 7759POPC   C4A29946  27.595  26.852   7.655
 7759POPC   C1B29947  27.797  26.916   8.555
 7759POPC   C2B29948  27.798  26.880   8.255
 7759POPC   C3B29949  27.812  26.824   7.955
 7759POPC   C4B29950  27.846  26.849   7.655
 7760POPC   NC329951  12.870  22.208   9.455
 7760POPC   PO429952  12.893  22.118   9.155
 7760POPC   GL129953  12.886  22.167   8.855
 7760POPC   GL229954  12.860  21.992   8.855
 7760POPC   C1A29955  12.892  22.188   8.555
 7760POPC   D2A29956  12.852  22.196   8.255
 7760POPC   C3A29957  12.890  22.177   7.955
 7760POPC   C4A29958  12.834  22.148   7.655
 7760POPC   C1B29959  12.898  21.958   8.555
 7760POPC   C2B29960  12.875  21.927   8.255
 7760POPC   C3B29961  12.842  21.909   7.955
 7760POPC   C4B29962  12.919  21.898   7.655
 7761POPC   NC329963   9.743  43.860   9.455
 7761POPC   PO429964   9.772  43.896   9.155
 7761POPC   GL129965   9.716  43.868   8.855
 7761POPC   GL229966   9.700  43.755   8.855
 7761POPC   C1A29967   9.769  43.862   8.555
 7761POPC   D2A29968   9.726  43.842   8.255
 7761POPC   C3A29969   9.790  43.893   7.955
 7761POPC   C4A29970   9.796  43.845   7.655
 7761POPC   C1B29971   9.720  43.591   8.555
 7761POPC   C2B29972   9.718  43.588   8.255
 7761POPC   C3B29973   9.778  43.612   7.955
 7761POPC   C4B29974   9.757  43.591   7.655
 7762POPC   NC329975  41.554  16.773   9.455
 7762POPC   PO429976  41.573  16.691   9.155
 7762POPC   GL129977  41.532  16.771   8.855
 7762POPC   GL229978  41.559  16.828   8.855
 7762POPC   C1A29979  41.574  16.740   8.555
 7762POPC   D2A29980  41.593  16.693   8.255
 7762POPC   C3A29981  41.603  16.693   7.955
 7762POPC   C4A29982  41.580  16.741   7.655
 7762POPC   C1B29983  41.558  17.014   8.555
 7762POPC   C2B29984  41.567  17.016   8.255
 7762POPC   C3B29985  41.550  17.028   7.955
 7762POPC   C4B29986  41.511  16.959   7.655
 7763POPC   NC329987   5.112  12.066   9.455
 7763POPC   PO429988   5.096  12.088   9.155
 7763POPC   GL129989   5.055  12.100   8.855
 7763POPC   GL229990   5.232  12.069   8.855
 7763POPC   C1A29991   5.122  12.099   8.555
 7763POPC   D2A29992   5.104  12.126   8.255
 7763POPC   C3A29993   5.055  12.114   7.955
 7763POPC   C4A29994   5.136  12.094   7.655
 7763POPC   C1B29995   5.306  12.104   8.555
 7763POPC   C2B29996   5.338  12.024   8.255
 7763POPC   C3B29997   5.392  12.031   7.955
 7763POPC   C4B29998   5.334  12.008   7.655
 7764POPC   NC329999  15.989  44.711   9.455
 7764POPC   PO430000  15.972  44.691   9.155
 7764POPC   GL130001  15.948  44.634   8.855
 7764POPC   GL230002  15.924  44.742   8.855
 7764POPC   C1A30003  15.989  44.692   8.555
 7764POPC   D2A30004  15.935  44.700   8.255
 7764POPC   C3A30005  15.999  44.678   7.955
 7764POPC   C4A30006  15.987  44.645   7.655
 7764POPC   C1B30007  15.995  44.890   8.555
 7764POPC   C2B30008  16.017  44.903   8.255
 7764POPC   C3B30009  16.008  44.936   7.955
 7764POPC   C4B30010  15.971  44.861   7.655
 7765POPC   NC330011  26.847   3.588   9.455
 7765POPC   PO430012  26.865   3.549   9.155
 7765POPC   GL130013  26.816   3.552   8.855
 7765POPC   GL230014  26.701   3.611   8.855
 7765POPC   C1A30015  26.864   3.576   8.555
 7765POPC   D2A30016  26.826   3.584   8.255
 7765POPC   C3A30017  26.829   3.525   7.955
 7765POPC   C4A30018  26.836   3.560   7.655
 7765POPC   C1B30019  26.653   3.724   8.555
 7765POPC   C2B30020  26.650   3.645   8.255
 7765POPC   C3B30021  26.628   3.734   7.955
 7765POPC   C4B30022  26.630   3.705   7.655
 7766POPC   NC330023  10.529  33.023   9.455
 7766POPC   PO430024  10.481  32.977   9.155
 7766POPC   GL130025  10.543  33.056   8.855
 7766POPC   GL230026  10.477  33.094   8.855
 7766POPC   C1A30027  10.496  33.061   8.555
 7766POPC   D2A30028  10.494  33.009   8.255
 7766POPC   C3A30029  10.572  33.042   7.955
 7766POPC   C4A30030  10.568  33.073   7.655
 7766POPC   C1B30031  10.306  33.195   8.555
 7766POPC   C2B30032  10.300  33.221   8.255
 7766POPC   C3B30033  10.340  33.186   7.955
 7766POPC   C4B30034  10.394  33.197   7.655
 7767POPC   NC330035  40.802  43.839   9.455
 7767POPC   PO430036  40.814  43.873   9.155
 7767POPC   GL130037  40.817  43.871   8.855
 7767POPC   GL230038  40.835  44.025   8.855
 7767POPC   C1A30039  40.809  43.862   8.555
 7767POPC   D2A30040  40.793  43.931   8.255
 7767POPC   C3A30041  40.771  43.863   7.955
 7767POPC   C4A30042  40.742  43.894   7.655
 7767POPC   C1B30043  40.785  44.138   8.555
 7767POPC   C2B30044  40.846  44.104   8.255
 7767POPC   C3B30045  40.844  44.088   7.955
 7767POPC   C4B30046  40.769  44.102   7.655
 7768POPC   NC330047  25.255  17.481   9.455
 7768POPC   PO430048  25.274  17.464   9.155
 7768POPC   GL130049  25.294  17.513   8.855
 7768POPC   GL230050  25.265  17.404   8.855
 7768POPC   C1A30051  25.256  17.534   8.555
 7768POPC   D2A30052  25.291  17.514   8.255
 7768POPC   C3A30053  25.236  17.538   7.955
 7768POPC   C4A30054  25.253  17.519   7.655
 7768POPC   C1B30055  25.375  17.230   8.555
 7768POPC   C2B30056  25.303  17.293   8.255
 7768POPC   C3B30057  25.347  17.283   7.955
 7768POPC   C4B30058  25.392  17.224   7.655
 7769POPC   NC330059  37.676  29.908   9.455
 7769POPC   PO430060  37.676  29.921   9.155
 7769POPC   GL130061  37.717  29.965   8.855
 7769POPC   GL230062  37.769  30.009   8.855
 7769POPC   C1A30063  37.648  29.940   8.555
 7769POPC   D2A30064  37.638  29.953   8.255
 7769POPC   C3A30065  37.696  29.944   7.955
 7769POPC   C4A30066  37.717  29.878   7.655
 7769POPC   C1B30067  37.739  30.164   8.555
 7769POPC   C2B30068  37.753  30.163   8.255
 7769POPC   C3B30069  37.788  30.126   7.955
 7769POPC   C4B30070  37.748  30.155   7.655
 7770POPC   NC330071  15.958  19.056   9.455
 7770POPC   PO430072  15.994  19.070   9.155
 7770POPC   GL130073  15.977  19.039   8.855
 7770POPC   GL230074  16.005  19.096   8.855
 7770POPC   C1A30075  15.920  19.093   8.555
 7770POPC   D2A30076  15.920  19.064   8.255
 7770POPC   C3A30077  15.918  19.036   7.955
 7770POPC   C4A30078  15.928  19.084   7.655
 7770POPC   C1B30079  16.101  19.182   8.555
 7770POPC   C2B30080  16.168  19.176   8.255
 7770POPC   C3B30081  16.174  19.225   7.955
 7770POPC   C4B30082  16.103  19.209   7.655
 7771POPC   NC330083  18.312  44.676   9.455
 7771POPC   PO430084  18.269  44.682   9.155
 7771POPC   GL130085  18.244  44.699   8.855
 7771POPC   GL230086  18.411  44.605   8.855
 7771POPC   C1A30087  18.255  44.674   8.555
 7771POPC   D2A30088  18.278  44.708   8.255
 7771POPC   C3A30089  18.240  44.629   7.955
 7771POPC   C4A30090  18.255  44.683   7.655
 7771POPC   C1B30091  18.443  44.480   8.555
 7771POPC   C2B30092  18.502  44.481   8.255
 7771POPC   C3B30093  18.476  44.518   7.955
 7771POPC   C4B30094  18.477  44.544   7.655
 7772POPC   NC330095  38.465  28.382   9.455
 7772POPC   PO430096  38.496  28.379   9.155
 7772POPC   GL130097  38.478  28.370   8.855
 7772POPC   GL230098  38.355  28.379   8.855
 7772POPC   C1A30099  38.500  28.411   8.555
 7772POPC   D2A30100  38.486  28.395   8.255
 7772POPC   C3A30101  38.413  28.338   7.955
 7772POPC   C4A30102  38.469  28.385   7.655
 7772POPC   C1B30103  38.191  28.328   8.555
 7772POPC   C2B30104  38.205  28.381   8.255
 7772POPC   C3B30105  38.235  28.321   7.955
 7772POPC   C4B30106  38.163  28.354   7.655
 7773POPC   NC330107  36.857   8.165   9.455
 7773POPC   PO430108  36.930   8.202   9.155
 7773POPC   GL130109  36.927   8.215   8.855
 7773POPC   GL230110  36.800   8.293   8.855
 7773POPC   C1A30111  36.881   8.215   8.555
 7773POPC   D2A30112  36.947   8.197   8.255
 7773POPC   C3A30113  36.886   8.223   7.955
 7773POPC   C4A30114  36.886   8.153   7.655
 7773POPC   C1B30115  36.706   8.368   8.555
 7773POPC   C2B30116  36.704   8.387   8.255
 7773POPC   C3B30117  36.693   8.371   7.955
 7773POPC   C4B30118  36.735   8.359   7.655
 7774POPC   NC330119   4.282   7.453   9.455
 7774POPC   PO430120   4.358   7.420   9.155
 7774POPC   GL130121   4.367   7.466   8.855
 7774POPC   GL230122   4.474   7.442   8.855
 7774POPC   C1A30123   4.305   7.385   8.555
 7774POPC   D2A30124   4.270   7.403   8.255
 7774POPC   C3A30125   4.347   7.462   7.955
 7774POPC   C4A30126   4.295   7.405   7.655
 7774POPC   C1B30127   4.601   7.477   8.555
 7774POPC   C2B30128   4.534   7.524   8.255
 7774POPC   C3B30129   4.578   7.480   7.955
 7774POPC   C4B30130   4.518   7.500   7.655
 7775POPC   NC330131   5.859   8.929   9.455
 7775POPC   PO430132   5.825   8.990   9.155
 7775POPC   GL130133   5.859   8.995   8.855
 7775POPC   GL230134   5.962   8.989   8.855
 7775POPC   C1A30135   5.899   8.956   8.555
 7775POPC   D2A30136   5.822   8.968   8.255
 7775POPC   C3A30137   5.903   9.013   7.955
 7775POPC   C4A30138   5.850   8.923   7.655
 7775POPC   C1B30139   6.168   8.965   8.555
 7775POPC   C2B30140   6.145   8.974   8.255
 7775POPC   C3B30141   6.110   8.972   7.955
 7775POPC   C4B30142   6.099   8.940   7.655
 7776POPC   NC330143  16.761   4.331   9.455
 7776POPC   PO430144  16.758   4.351   9.155
 7776POPC   GL130145  16.716   4.355   8.855
 7776POPC   GL230146  16.834   4.424   8.855
 7776POPC   C1A30147  16.746   4.268   8.555
 7776POPC   D2A30148  16.729   4.366   8.255
 7776POPC   C3A30149  16.742   4.333   7.955
 7776POPC   C4A30150  16.781   4.335   7.655
 7776POPC   C1B30151  16.926   4.479   8.555
 7776POPC   C2B30152  16.907   4.498   8.255
 7776POPC   C3B30153  16.875   4.487   7.955
 7776POPC   C4B30154  16.936   4.516   7.655
 7777POPC   NC330155  33.002  17.549   9.455
 7777POPC   PO430156  32.988  17.478   9.155
 7777POPC   GL130157  32.985  17.542   8.855
 7777POPC   GL230158  32.869  17.555   8.855
 7777POPC   C1A30159  32.981  17.461   8.555
 7777POPC   D2A30160  32.998  17.491   8.255
 7777POPC   C3A30161  33.011  17.466   7.955
 7777POPC   C4A30162  33.025  17.533   7.655
 7777POPC   C1B30163  32.826  17.660   8.555
 7777POPC   C2B30164  32.854  17.610   8.255
 7777POPC   C3B30165  32.812  17.603   7.955
 7777POPC   C4B30166  32.772  17.643   7.655
 7778POPC   NC330167  33.042  13.644   9.455
 7778POPC   PO430168  33.032  13.660   9.155
 7778POPC   GL130169  33.061  13.619   8.855
 7778POPC   GL230170  33.025  13.518   8.855
 7778POPC   C1A30171  33.057  13.611   8.555
 7778POPC   D2A30172  32.996  13.607   8.255
 7778POPC   C3A30173  33.068  13.654   7.955
 7778POPC   C4A30174  33.050  13.668   7.655
 7778POPC   C1B30175  33.029  13.378   8.555
 7778POPC   C2B30176  33.066  13.420   8.255
 7778POPC   C3B30177  33.015  13.397   7.955
 7778POPC   C4B30178  33.019  13.371   7.655
 7779POPC   NC330179  43.081   7.376   9.455
 7779POPC   PO430180  43.082   7.463   9.155
 7779POPC   GL130181  43.147   7.391   8.855
 7779POPC   GL230182  43.246   7.492   8.855
 7779POPC   C1A30183  43.101   7.440   8.555
 7779POPC   D2A30184  43.095   7.438   8.255
 7779POPC   C3A30185  43.128   7.464   7.955
 7779POPC   C4A30186  43.073   7.449   7.655
 7779POPC   C1B30187  43.281   7.517   8.555
 7779POPC   C2B30188  43.292   7.514   8.255
 7779POPC   C3B30189  43.362   7.565   7.955
 7779POPC   C4B30190  43.284   7.556   7.655
 7780POPC   NC330191  19.883  15.217   9.455
 7780POPC   PO430192  19.824  15.213   9.155
 7780POPC   GL130193  19.880  15.207   8.855
 7780POPC   GL230194  19.900  15.309   8.855
 7780POPC   C1A30195  19.836  15.205   8.555
 7780POPC   D2A30196  19.797  15.213   8.255
 7780POPC   C3A30197  19.788  15.213   7.955
 7780POPC   C4A30198  19.800  15.171   7.655
 7780POPC   C1B30199  19.980  15.424   8.555
 7780POPC   C2B30200  19.997  15.450   8.255
 7780POPC   C3B30201  19.927  15.404   7.955
 7780POPC   C4B30202  19.995  15.444   7.655
 7781POPC   NC330203  33.814  14.373   9.455
 7781POPC   PO430204  33.839  14.446   9.155
 7781POPC   GL130205  33.765  14.380   8.855
 7781POPC   GL230206  33.766  14.502   8.855
 7781POPC   C1A30207  33.808  14.420   8.555
 7781POPC   D2A30208  33.758  14.433   8.255
 7781POPC   C3A30209  33.840  14.427   7.955
 7781POPC   C4A30210  33.799  14.362   7.655
 7781POPC   C1B30211  33.809  14.660   8.555
 7781POPC   C2B30212  33.799  14.666   8.255
 7781POPC   C3B30213  33.789  14.697   7.955
 7781POPC   C4B30214  33.785  14.619   7.655
 7782POPC   NC330215   9.009   8.154   9.455
 7782POPC   PO430216   8.925   8.202   9.155
 7782POPC   GL130217   8.987   8.242   8.855
 7782POPC   GL230218   8.910   8.285   8.855
 7782POPC   C1A30219   8.983   8.169   8.555
 7782POPC   D2A30220   8.928   8.214   8.255
 7782POPC   C3A30221   8.946   8.226   7.955
 7782POPC   C4A30222   8.989   8.155   7.655
 7782POPC   C1B30223   8.747   8.367   8.555
 7782POPC   C2B30224   8.803   8.307   8.255
 7782POPC   C3B30225   8.800   8.317   7.955
 7782POPC   C4B30226   8.804   8.345   7.655
 7783POPC   NC330227  28.403   2.740   9.455
 7783POPC   PO430228  28.348   2.759   9.155
 7783POPC   GL130229  28.327   2.788   8.855
 7783POPC   GL230230  28.359   2.914   8.855
 7783POPC   C1A30231  28.409   2.728   8.555
 7783POPC   D2A30232  28.360   2.751   8.255
 7783POPC   C3A30233  28.324   2.786   7.955
 7783POPC   C4A30234  28.371   2.797   7.655
 7783POPC   C1B30235  28.368   3.060   8.555
 7783POPC   C2B30236  28.326   2.981   8.255
 7783POPC   C3B30237  28.351   2.964   7.955
 7783POPC   C4B30238  28.360   2.977   7.655
 7784POPC   NC330239  43.900  15.214   9.455
 7784POPC   PO430240  43.868  15.189   9.155
 7784POPC   GL130241  43.932  15.228   8.855
 7784POPC   GL230242  43.792  15.291   8.855
 7784POPC   C1A30243  43.907  15.172   8.555
 7784POPC   D2A30244  43.929  15.222   8.255
 7784POPC   C3A30245  43.879  15.201   7.955
 7784POPC   C4A30246  43.935  15.148   7.655
 7784POPC   C1B30247  43.665  15.332   8.555
 7784POPC   C2B30248  43.726  15.321   8.255
 7784POPC   C3B30249  43.728  15.335   7.955
 7784POPC   C4B30250  43.669  15.375   7.655
 7785POPC   NC330251   8.999  15.224   9.455
 7785POPC   PO430252   8.975  15.136   9.155
 7785POPC   GL130253   8.990  15.214   8.855
 7785POPC   GL230254   9.056  15.154   8.855
 7785POPC   C1A30255   8.989  15.222   8.555
 7785POPC   D2A30256   8.964  15.141   8.255
 7785POPC   C3A30257   8.939  15.135   7.955
 7785POPC   C4A30258   8.960  15.133   7.655
 7785POPC   C1B30259   9.190  15.173   8.555
 7785POPC   C2B30260   9.206  15.178   8.255
 7785POPC   C3B30261   9.207  15.170   7.955
 7785POPC   C4B30262   9.180  15.171   7.655
 7786POPC   NC330263  15.174  26.832   9.455
 7786POPC   PO430264  15.195  26.858   9.155
 7786POPC   GL130265  15.161  26.836   8.855
 7786POPC   GL230266  15.266  26.772   8.855
 7786POPC   C1A30267  15.201  26.849   8.555
 7786POPC   D2A30268  15.153  26.821   8.255
 7786POPC   C3A30269  15.220  26.813   7.955
 7786POPC   C4A30270  15.182  26.833   7.655
 7786POPC   C1B30271  15.452  26.826   8.555
 7786POPC   C2B30272  15.383  26.845   8.255
 7786POPC   C3B30273  15.403  26.808   7.955
 7786POPC   C4B30274  15.456  26.795   7.655
 7787POPC   NC330275   9.755  28.347   9.455
 7787POPC   PO430276   9.734  28.320   9.155
 7787POPC   GL130277   9.775  28.357   8.855
 7787POPC   GL230278   9.708  28.219   8.855
 7787POPC   C1A30279   9.713  28.385   8.555
 7787POPC   D2A30280   9.740  28.416   8.255
 7787POPC   C3A30281   9.740  28.343   7.955
 7787POPC   C4A30282   9.726  28.365   7.655
 7787POPC   C1B30283   9.732  28.117   8.555
 7787POPC   C2B30284   9.788  28.081   8.255
 7787POPC   C3B30285   9.753  28.117   7.955
 7787POPC   C4B30286   9.800  28.127   7.655
 7788POPC   NC330287  43.097  11.290   9.455
 7788POPC   PO430288  43.146  11.304   9.155
 7788POPC   GL130289  43.145  11.271   8.855
 7788POPC   GL230290  43.161  11.393   8.855
 7788POPC   C1A30291  43.107  11.288   8.555
 7788POPC   D2A30292  43.093  11.258   8.255
 7788POPC   C3A30293  43.087  11.298   7.955
 7788POPC   C4A30294  43.087  11.308   7.655
 7788POPC   C1B30295  43.192  11.554   8.555
 7788POPC   C2B30296  43.191  11.527   8.255
 7788POPC   C3B30297  43.188  11.536   7.955
 7788POPC   C4B30298  43.149  11.505   7.655
 7789POPC   NC330299   2.763  34.623   9.455
 7789POPC   PO430300   2.748  34.547   9.155
 7789POPC   GL130301   2.754  34.616   8.855
 7789POPC   GL230302   2.693  34.517   8.855
 7789POPC   C1A30303   2.787  34.553   8.555
 7789POPC   D2A30304   2.771  34.621   8.255
 7789POPC   C3A30305   2.781  34.596   7.955
 7789POPC   C4A30306   2.808  34.529   7.655
 7789POPC   C1B30307   2.643  34.406   8.555
 7789POPC   C2B30308   2.619  34.417   8.255
 7789POPC   C3B30309   2.573  34.345   7.955
 7789POPC   C4B30310   2.626  34.342   7.655
 7790POPC   NC330311  17.525   7.392   9.455
 7790POPC   PO430312  17.509   7.404   9.155
 7790POPC   GL130313  17.502   7.450   8.855
 7790POPC   GL230314  17.430   7.475   8.855
 7790POPC   C1A30315  17.464   7.429   8.555
 7790POPC   D2A30316  17.534   7.388   8.255
 7790POPC   C3A30317  17.524   7.460   7.955
 7790POPC   C4A30318  17.510   7.409   7.655
 7790POPC   C1B30319  17.248   7.551   8.555
 7790POPC   C2B30320  17.284   7.500   8.255
 7790POPC   C3B30321  17.245   7.528   7.955
 7790POPC   C4B30322  17.243   7.495   7.655
 7791POPC   NC330323   4.297   1.255   9.455
 7791POPC   PO430324   4.278   1.212   9.155
 7791POPC   GL130325   4.311   1.236   8.855
 7791POPC   GL230326   4.322   1.298   8.855
 7791POPC   C1A30327   4.351   1.184   8.555
 7791POPC   D2A30328   4.317   1.243   8.255
 7791POPC   C3A30329   4.300   1.201   7.955
 7791POPC   C4A30330   4.297   1.256   7.655
 7791POPC   C1B30331   4.309   1.445   8.555
 7791POPC   C2B30332   4.308   1.485   8.255
 7791POPC   C3B30333   4.276   1.473   7.955
 7791POPC   C4B30334   4.250   1.434   7.655
 7792POPC   NC330335   9.780  15.213   9.455
 7792POPC   PO430336   9.728  15.158   9.155
 7792POPC   GL130337   9.735  15.216   8.855
 7792POPC   GL230338   9.675  15.105   8.855
 7792POPC   C1A30339   9.784  15.140   8.555
 7792POPC   D2A30340   9.784  15.220   8.255
 7792POPC   C3A30341   9.798  15.139   7.955
 7792POPC   C4A30342   9.739  15.182   7.655
 7792POPC   C1B30343   9.546  15.005   8.555
 7792POPC   C2B30344   9.596  14.991   8.255
 7792POPC   C3B30345   9.548  15.038   7.955
 7792POPC   C4B30346   9.550  15.047   7.655
 7793POPC   NC330347  35.390  41.575   9.455
 7793POPC   PO430348  35.346  41.604   9.155
 7793POPC   GL130349  35.377  41.594   8.855
 7793POPC   GL230350  35.215  41.520   8.855
 7793POPC   C1A30351  35.317  41.527   8.555
 7793POPC   D2A30352  35.349  41.537   8.255
 7793POPC   C3A30353  35.320  41.594   7.955
 7793POPC   C4A30354  35.320  41.559   7.655
 7793POPC   C1B30355  35.212  41.347   8.555
 7793POPC   C2B30356  35.130  41.355   8.255
 7793POPC   C3B30357  35.149  41.391   7.955
 7793POPC   C4B30358  35.153  41.413   7.655
 7794POPC   NC330359  30.679  16.699   9.455
 7794POPC   PO430360  30.663  16.737   9.155
 7794POPC   GL130361  30.674  16.730   8.855
 7794POPC   GL230362  30.635  16.618   8.855
 7794POPC   C1A30363  30.742  16.682   8.555
 7794POPC   D2A30364  30.659  16.692   8.255
 7794POPC   C3A30365  30.718  16.683   7.955
 7794POPC   C4A30366  30.671  16.722   7.655
 7794POPC   C1B30367  30.530  16.543   8.555
 7794POPC   C2B30368  30.569  16.513   8.255
 7794POPC   C3B30369  30.527  16.571   7.955
 7794POPC   C4B30370  30.570  16.508   7.655
 7795POPC   NC330371  29.897  37.716   9.455
 7795POPC   PO430372  29.964  37.674   9.155
 7795POPC   GL130373  29.885  37.630   8.855
 7795POPC   GL230374  29.916  37.548   8.855
 7795POPC   C1A30375  29.892  37.701   8.555
 7795POPC   D2A30376  29.919  37.671   8.255
 7795POPC   C3A30377  29.922  37.724   7.955
 7795POPC   C4A30378  29.919  37.650   7.655
 7795POPC   C1B30379  30.003  37.441   8.555
 7795POPC   C2B30380  29.949  37.480   8.255
 7795POPC   C3B30381  29.979  37.389   7.955
 7795POPC   C4B30382  29.929  37.457   7.655
 7796POPC   NC330383  38.438  42.358   9.455
 7796POPC   PO430384  38.476  42.339   9.155
 7796POPC   GL130385  38.436  42.302   8.855
 7796POPC   GL230386  38.446  42.470   8.855
 7796POPC   C1A30387  38.415  42.305   8.555
 7796POPC   D2A30388  38.429  42.323   8.255
 7796POPC   C3A30389  38.413  42.351   7.955
 7796POPC   C4A30390  38.433  42.286   7.655
 7796POPC   C1B30391  38.534  42.600   8.555
 7796POPC   C2B30392  38.517  42.546   8.255
 7796POPC   C3B30393  38.536  42.619   7.955
 7796POPC   C4B30394  38.548  42.561   7.655
 7797POPC   NC330395  15.180   8.239   9.455
 7797POPC   PO430396  15.216   8.213   9.155
 7797POPC   GL130397  15.170   8.236   8.855
 7797POPC   GL230398  15.262   8.263   8.855
 7797POPC   C1A30399  15.133   8.153   8.555
 7797POPC   D2A30400  15.134   8.189   8.255
 7797POPC   C3A30401  15.140   8.163   7.955
 7797POPC   C4A30402  15.225   8.206   7.655
 7797POPC   C1B30403  15.353   8.330   8.555
 7797POPC   C2B30404  15.407   8.375   8.255
 7797POPC   C3B30405  15.361   8.343   7.955
 7797POPC   C4B30406  15.326   8.384   7.655
 7798POPC   NC330407  32.200  25.273   9.455
 7798POPC   PO430408  32.285  25.232   9.155
 7798POPC   GL130409  32.261  25.288   8.855
 7798POPC   GL230410  32.393  25.315   8.855
 7798POPC   C1A30411  32.268  25.263   8.555
 7798POPC   D2A30412  32.243  25.229   8.255
 7798POPC   C3A30413  32.270  25.309   7.955
 7798POPC   C4A30414  32.280  25.247   7.655
 7798POPC   C1B30415  32.493  25.265   8.555
 7798POPC   C2B30416  32.452  25.260   8.255
 7798POPC   C3B30417  32.546  25.339   7.955
 7798POPC   C4B30418  32.463  25.340   7.655
 7799POPC   NC330419  13.663   8.947   9.455
 7799POPC   PO430420  13.651   8.925   9.155
 7799POPC   GL130421  13.624   9.021   8.855
 7799POPC   GL230422  13.667   8.861   8.855
 7799POPC   C1A30423  13.664   8.928   8.555
 7799POPC   D2A30424  13.647   8.926   8.255
 7799POPC   C3A30425  13.630   8.927   7.955
 7799POPC   C4A30426  13.645   8.951   7.655
 7799POPC   C1B30427  13.776   8.732   8.555
 7799POPC   C2B30428  13.720   8.804   8.255
 7799POPC   C3B30429  13.797   8.757   7.955
 7799POPC   C4B30430  13.820   8.757   7.655
 7800POPC   NC330431  43.898  41.527   9.455
 7800POPC   PO430432  43.880  41.519   9.155
 7800POPC   GL130433  43.843  41.555   8.855
 7800POPC   GL230434  43.837  41.602   8.855
 7800POPC   C1A30435  43.927  41.604   8.555
 7800POPC   D2A30436  43.900  41.605   8.255
 7800POPC   C3A30437  43.918  41.540   7.955
 7800POPC   C4A30438  43.857  41.579   7.655
 7800POPC   C1B30439  43.706  41.746   8.555
 7800POPC   C2B30440  43.704  41.679   8.255
 7800POPC   C3B30441  43.719  41.700   7.955
 7800POPC   C4B30442  43.669  41.678   7.655
 7801POPC   NC330443  41.541   5.882   9.455
 7801POPC   PO430444  41.528   5.845   9.155
 7801POPC   GL130445  41.586   5.823   8.855
 7801POPC   GL230446  41.635   5.864   8.855
 7801POPC   C1A30447  41.591   5.878   8.555
 7801POPC   D2A30448  41.549   5.894   8.255
 7801POPC   C3A30449  41.606   5.870   7.955
 7801POPC   C4A30450  41.518   5.915   7.655
 7801POPC   C1B30451  41.825   5.907   8.555
 7801POPC   C2B30452  41.820   5.834   8.255
 7801POPC   C3B30453  41.799   5.883   7.955
 7801POPC   C4B30454  41.813   5.892   7.655
 7802POPC   NC330455  28.415  29.930   9.455
 7802POPC   PO430456  28.370  29.896   9.155
 7802POPC   GL130457  28.360  29.933   8.855
 7802POPC   GL230458  28.251  29.935   8.855
 7802POPC   C1A30459  28.415  29.958   8.555
 7802POPC   D2A30460  28.338  29.907   8.255
 7802POPC   C3A30461  28.340  29.969   7.955
 7802POPC   C4A30462  28.413  29.890   7.655
 7802POPC   C1B30463  28.133  30.008   8.555
 7802POPC   C2B30464  28.170  29.997   8.255
 7802POPC   C3B30465  28.161  29.989   7.955
 7802POPC   C4B30466  28.121  30.050   7.655
 7803POPC   NC330467  39.964  26.780   9.455
 7803POPC   PO430468  40.015  26.777   9.155
 7803POPC   GL130469  40.042  26.777   8.855
 7803POPC   GL230470  40.062  26.922   8.855
 7803POPC   C1A30471  40.035  26.811   8.555
 7803POPC   D2A30472  40.046  26.848   8.255
 7803POPC   C3A30473  39.961  26.789   7.955
 7803POPC   C4A30474  39.975  26.852   7.655
 7803POPC   C1B30475  40.241  27.025   8.555
 7803POPC   C2B30476  40.232  27.025   8.255
 7803POPC   C3B30477  40.207  26.985   7.955
 7803POPC   C4B30478  40.194  26.965   7.655
 7804POPC   NC330479  13.654  19.044   9.455
 7804POPC   PO430480  13.628  19.052   9.155
 7804POPC   GL130481  13.600  19.028   8.855
 7804POPC   GL230482  13.575  19.215   8.855
 7804POPC   C1A30483  13.632  19.106   8.555
 7804POPC   D2A30484  13.583  19.096   8.255
 7804POPC   C3A30485  13.634  19.074   7.955
 7804POPC   C4A30486  13.677  19.031   7.655
 7804POPC   C1B30487  13.509  19.311   8.555
 7804POPC   C2B30488  13.477  19.243   8.255
 7804POPC   C3B30489  13.495  19.237   7.955
 7804POPC   C4B30490  13.504  19.309   7.655
 7805POPC   NC330491  18.293  22.183   9.455
 7805POPC   PO430492  18.308  22.156   9.155
 7805POPC   GL130493  18.324  22.193   8.855
 7805POPC   GL230494  18.424  22.094   8.855
 7805POPC   C1A30495  18.279  22.204   8.555
 7805POPC   D2A30496  18.299  22.175   8.255
 7805POPC   C3A30497  18.323  22.115   7.955
 7805POPC   C4A30498  18.258  22.168   7.655
 7805POPC   C1B30499  18.522  22.149   8.555
 7805POPC   C2B30500  18.577  22.156   8.255
 7805POPC   C3B30501  18.574  22.079   7.955
 7805POPC   C4B30502  18.499  22.125   7.655
 7806POPC   NC330503  18.238  21.402   9.455
 7806POPC   PO430504  18.273  21.433   9.155
 7806POPC   GL130505  18.246  21.401   8.855
 7806POPC   GL230506  18.438  21.462   8.855
 7806POPC   C1A30507  18.266  21.414   8.555
 7806POPC   D2A30508  18.293  21.349   8.255
 7806POPC   C3A30509  18.242  21.434   7.955
 7806POPC   C4A30510  18.260  21.411   7.655
 7806POPC   C1B30511  18.528  21.495   8.555
 7806POPC   C2B30512  18.472  21.448   8.255
 7806POPC   C3B30513  18.558  21.423   7.955
 7806POPC   C4B30514  18.472  21.464   7.655
 7807POPC   NC330515  15.160  19.083   9.455
 7807POPC   PO430516  15.132  19.066   9.155
 7807POPC   GL130517  15.155  19.102   8.855
 7807POPC   GL230518  15.111  19.012   8.855
 7807POPC   C1A30519  15.174  19.042   8.555
 7807POPC   D2A30520  15.222  19.053   8.255
 7807POPC   C3A30521  15.144  19.026   7.955
 7807POPC   C4A30522  15.139  19.027   7.655
 7807POPC   C1B30523  15.016  18.934   8.555
 7807POPC   C2B30524  14.960  18.884   8.255
 7807POPC   C3B30525  14.982  18.865   7.955
 7807POPC   C4B30526  14.965  18.942   7.655
 7808POPC   NC330527  23.758  27.591   9.455
 7808POPC   PO430528  23.718  27.634   9.155
 7808POPC   GL130529  23.694  27.567   8.855
 7808POPC   GL230530  23.576  27.631   8.855
 7808POPC   C1A30531  23.689  27.556   8.555
 7808POPC   D2A30532  23.702  27.606   8.255
 7808POPC   C3A30533  23.739  27.575   7.955
 7808POPC   C4A30534  23.691  27.584   7.655
 7808POPC   C1B30535  23.479  27.694   8.555
 7808POPC   C2B30536  23.444  27.729   8.255
 7808POPC   C3B30537  23.446  27.735   7.955
 7808POPC   C4B30538  23.523  27.752   7.655
 7809POPC   NC330539  40.031  11.271   9.455
 7809POPC   PO430540  39.986  11.258   9.155
 7809POPC   GL130541  40.014  11.328   8.855
 7809POPC   GL230542  39.992  11.179   8.855
 7809POPC   C1A30543  40.047  11.317   8.555
 7809POPC   D2A30544  39.964  11.272   8.255
 7809POPC   C3A30545  40.002  11.289   7.955
 7809POPC   C4A30546  40.005  11.288   7.655
 7809POPC   C1B30547  40.021  11.094   8.555
 7809POPC   C2B30548  40.054  11.023   8.255
 7809POPC   C3B30549  40.027  11.083   7.955
 7809POPC   C4B30550  40.006  11.040   7.655
 7810POPC   NC330551  22.923   4.281   9.455
 7810POPC   PO430552  22.917   4.357   9.155
 7810POPC   GL130553  22.904   4.332   8.855
 7810POPC   GL230554  22.871   4.446   8.855
 7810POPC   C1A30555  22.915   4.300   8.555
 7810POPC   D2A30556  22.974   4.356   8.255
 7810POPC   C3A30557  22.945   4.339   7.955
 7810POPC   C4A30558  22.984   4.321   7.655
 7810POPC   C1B30559  22.750   4.480   8.555
 7810POPC   C2B30560  22.726   4.530   8.255
 7810POPC   C3B30561  22.824   4.503   7.955
 7810POPC   C4B30562  22.727   4.540   7.655
 7811POPC   NC330563  26.043  23.712   9.455
 7811POPC   PO430564  26.050  23.755   9.155
 7811POPC   GL130565  26.082  23.677   8.855
 7811POPC   GL230566  26.192  23.728   8.855
 7811POPC   C1A30567  26.066  23.758   8.555
 7811POPC   D2A30568  26.013  23.751   8.255
 7811POPC   C3A30569  26.053  23.688   7.955
 7811POPC   C4A30570  26.048  23.711   7.655
 7811POPC   C1B30571  26.237  23.884   8.555
 7811POPC   C2B30572  26.215  23.832   8.255
 7811POPC   C3B30573  26.294  23.851   7.955
 7811POPC   C4B30574  26.238  23.829   7.655
 7812POPC   NC330575  39.192   8.242   9.455
 7812POPC   PO430576  39.256   8.156   9.155
 7812POPC   GL130577  39.248   8.177   8.855
 7812POPC   GL230578  39.312   8.121   8.855
 7812POPC   C1A30579  39.209   8.181   8.555
 7812POPC   D2A30580  39.273   8.216   8.255
 7812POPC   C3A30581  39.226   8.239   7.955
 7812POPC   C4A30582  39.260   8.205   7.655
 7812POPC   C1B30583  39.409   8.118   8.555
 7812POPC   C2B30584  39.426   8.035   8.255
 7812POPC   C3B30585  39.483   8.058   7.955
 7812POPC   C4B30586  39.447   8.075   7.655
 7813POPC   NC330587  36.891  14.399   9.455
 7813POPC   PO430588  36.890  14.369   9.155
 7813POPC   GL130589  36.930  14.368   8.855
 7813POPC   GL230590  36.973  14.271   8.855
 7813POPC   C1A30591  36.946  14.399   8.555
 7813POPC   D2A30592  36.936  14.396   8.255
 7813POPC   C3A30593  36.882  14.417   7.955
 7813POPC   C4A30594  36.909  14.407   7.655
 7813POPC   C1B30595  37.036  14.148   8.555
 7813POPC   C2B30596  36.948  14.189   8.255
 7813POPC   C3B30597  37.034  14.182   7.955
 7813POPC   C4B30598  36.995  14.217   7.655
 7814POPC   NC330599  43.140  26.814   9.455
 7814POPC   PO430600  43.120  26.834   9.155
 7814POPC   GL130601  43.089  26.840   8.855
 7814POPC   GL230602  43.019  26.819   8.855
 7814POPC   C1A30603  43.125  26.802   8.555
 7814POPC   D2A30604  43.153  26.779   8.255
 7814POPC   C3A30605  43.157  26.828   7.955
 7814POPC   C4A30606  43.109  26.800   7.655
 7814POPC   C1B30607  42.900  26.935   8.555
 7814POPC   C2B30608  42.891  26.948   8.255
 7814POPC   C3B30609  42.910  26.942   7.955
 7814POPC   C4B30610  42.835  26.935   7.655
 7815POPC   NC330611  26.771   6.642   9.455
 7815POPC   PO430612  26.825   6.640   9.155
 7815POPC   GL130613  26.779   6.669   8.855
 7815POPC   GL230614  26.662   6.583   8.855
 7815POPC   C1A30615  26.793   6.595   8.555
 7815POPC   D2A30616  26.829   6.602   8.255
 7815POPC   C3A30617  26.795   6.655   7.955
 7815POPC   C4A30618  26.856   6.608   7.655
 7815POPC   C1B30619  26.568   6.556   8.555
 7815POPC   C2B30620  26.629   6.499   8.255
 7815POPC   C3B30621  26.624   6.494   7.955
 7815POPC   C4B30622  26.566   6.541   7.655
 7816POPC   NC330623  19.875  33.759   9.455
 7816POPC   PO430624  19.800  33.765   9.155
 7816POPC   GL130625  19.847  33.817   8.855
 7816POPC   GL230626  19.875  33.647   8.855
 7816POPC   C1A30627  19.799  33.783   8.555
 7816POPC   D2A30628  19.803  33.807   8.255
 7816POPC   C3A30629  19.862  33.790   7.955
 7816POPC   C4A30630  19.863  33.781   7.655
 7816POPC   C1B30631  19.972  33.526   8.555
 7816POPC   C2B30632  19.902  33.540   8.255
 7816POPC   C3B30633  19.940  33.602   7.955
 7816POPC   C4B30634  19.954  33.528   7.655
 7817POPC   NC330635   2.727   2.737   9.455
 7817POPC   PO430636   2.777   2.790   9.155
 7817POPC   GL130637   2.731   2.804   8.855
 7817POPC   GL230638   2.773   2.845   8.855
 7817POPC   C1A30639   2.766   2.795   8.555
 7817POPC   D2A30640   2.782   2.748   8.255
 7817POPC   C3A30641   2.795   2.816   7.955
 7817POPC   C4A30642   2.749   2.768   7.655
 7817POPC   C1B30643   2.800   3.061   8.555
 7817POPC   C2B30644   2.838   2.977   8.255
 7817POPC   C3B30645   2.784   3.021   7.955
 7817POPC   C4B30646   2.837   3.049   7.655
 7818POPC   NC330647  21.434  22.986   9.455
 7818POPC   PO430648  21.396  22.917   9.155
 7818POPC   GL130649  21.368  22.938   8.855
 7818POPC   GL230650  21.289  23.062   8.855
 7818POPC   C1A30651  21.375  22.944   8.555
 7818POPC   D2A30652  21.435  22.943   8.255
 7818POPC   C3A30653  21.432  22.946   7.955
 7818POPC   C4A30654  21.428  22.914   7.655
 7818POPC   C1B30655  21.226  23.120   8.555
 7818POPC   C2B30656  21.235  23.178   8.255
 7818POPC   C3B30657  21.294  23.163   7.955
 7818POPC   C4B30658  21.236  23.184   7.655
 7819POPC   NC330659   8.214  31.469   9.455
 7819POPC   PO430660   8.159  31.513   9.155
 7819POPC   GL130661   8.194  31.514   8.855
 7819POPC   GL230662   8.170  31.580   8.855
 7819POPC   C1A30663   8.224  31.437   8.555
 7819POPC   D2A30664   8.205  31.475   8.255
 7819POPC   C3A30665   8.164  31.446   7.955
 7819POPC   C4A30666   8.186  31.430   7.655
 7819POPC   C1B30667   8.014  31.704   8.555
 7819POPC   C2B30668   8.017  31.622   8.255
 7819POPC   C3B30669   8.043  31.639   7.955
 7819POPC   C4B30670   7.999  31.682   7.655
 7820POPC   NC330671  41.567   6.617   9.455
 7820POPC   PO430672  41.545   6.612   9.155
 7820POPC   GL130673  41.525   6.643   8.855
 7820POPC   GL230674  41.527   6.754   8.855
 7820POPC   C1A30675  41.561   6.598   8.555
 7820POPC   D2A30676  41.549   6.635   8.255
 7820POPC   C3A30677  41.604   6.648   7.955
 7820POPC   C4A30678  41.564   6.648   7.655
 7820POPC   C1B30679  41.475   6.910   8.555
 7820POPC   C2B30680  41.564   6.907   8.255
 7820POPC   C3B30681  41.497   6.922   7.955
 7820POPC   C4B30682  41.525   6.939   7.655
 7821POPC   NC330683  29.095  22.955   9.455
 7821POPC   PO430684  29.117  22.926   9.155
 7821POPC   GL130685  29.185  22.946   8.855
 7821POPC   GL230686  29.039  22.853   8.855
 7821POPC   C1A30687  29.108  22.987   8.555
 7821POPC   D2A30688  29.120  22.896   8.255
 7821POPC   C3A30689  29.189  22.912   7.955
 7821POPC   C4A30690  29.104  22.890   7.655
 7821POPC   C1B30691  29.005  22.772   8.555
 7821POPC   C2B30692  28.990  22.716   8.255
 7821POPC   C3B30693  29.060  22.724   7.955
 7821POPC   C4B30694  29.055  22.756   7.655
 7822POPC   NC330695  43.116  20.630   9.455
 7822POPC   PO430696  43.109  20.587   9.155
 7822POPC   GL130697  43.104  20.575   8.855
 7822POPC   GL230698  43.253  20.661   8.855
 7822POPC   C1A30699  43.087  20.577   8.555
 7822POPC   D2A30700  43.076  20.580   8.255
 7822POPC   C3A30701  43.116  20.647   7.955
 7822POPC   C4A30702  43.109  20.572   7.655
 7822POPC   C1B30703  43.303  20.704   8.555
 7822POPC   C2B30704  43.370  20.730   8.255
 7822POPC   C3B30705  43.314  20.737   7.955
 7822POPC   C4B30706  43.299  20.717   7.655
 7823POPC   NC330707  19.810  36.140   9.455
 7823POPC   PO430708  19.860  36.160   9.155
 7823POPC   GL130709  19.814  36.151   8.855
 7823POPC   GL230710  19.841  36.270   8.855
 7823POPC   C1A30711  19.821  36.137   8.555
 7823POPC   D2A30712  19.808  36.112   8.255
 7823POPC   C3A30713  19.845  36.129   7.955
 7823POPC   C4A30714  19.817  36.091   7.655
 7823POPC   C1B30715  19.769  36.381   8.555
 7823POPC   C2B30716  19.815  36.345   8.255
 7823POPC   C3B30717  19.739  36.376   7.955
 7823POPC   C4B30718  19.776  36.336   7.655
 7824POPC   NC330719  15.934   4.297   9.455
 7824POPC   PO430720  15.984   4.303   9.155
 7824POPC   GL130721  15.994   4.271   8.855
 7824POPC   GL230722  16.045   4.265   8.855
 7824POPC   C1A30723  16.000   4.341   8.555
 7824POPC   D2A30724  15.922   4.277   8.255
 7824POPC   C3A30725  15.961   4.361   7.955
 7824POPC   C4A30726  15.998   4.308   7.655
 7824POPC   C1B30727  16.231   4.203   8.555
 7824POPC   C2B30728  16.135   4.256   8.255
 7824POPC   C3B30729  16.184   4.163   7.955
 7824POPC   C4B30730  16.176   4.211   7.655
 7825POPC   NC330731  20.656   8.944   9.455
 7825POPC   PO430732  20.604   8.944   9.155
 7825POPC   GL130733  20.656   8.942   8.855
 7825POPC   GL230734  20.474   8.886   8.855
 7825POPC   C1A30735  20.647   9.021   8.555
 7825POPC   D2A30736  20.602   8.997   8.255
 7825POPC   C3A30737  20.628   8.928   7.955
 7825POPC   C4A30738  20.621   8.990   7.655
 7825POPC   C1B30739  20.388   8.761   8.555
 7825POPC   C2B30740  20.469   8.759   8.255
 7825POPC   C3B30741  20.409   8.797   7.955
 7825POPC   C4B30742  20.443   8.765   7.655
 7826POPC   NC330743   0.405   4.308   9.455
 7826POPC   PO430744   0.412   4.271   9.155
 7826POPC   GL130745   0.476   4.287   8.855
 7826POPC   GL230746   0.387   4.461   8.855
 7826POPC   C1A30747   0.422   4.295   8.555
 7826POPC   D2A30748   0.436   4.331   8.255
 7826POPC   C3A30749   0.435   4.358   7.955
 7826POPC   C4A30750   0.454   4.330   7.655
 7826POPC   C1B30751   0.386   4.591   8.555
 7826POPC   C2B30752   0.409   4.565   8.255
 7826POPC   C3B30753   0.437   4.533   7.955
 7826POPC   C4B30754   0.421   4.615   7.655
 7827POPC   NC330755   9.022  38.451   9.455
 7827POPC   PO430756   8.967  38.452   9.155
 7827POPC   GL130757   9.005  38.427   8.855
 7827POPC   GL230758   9.012  38.557   8.855
 7827POPC   C1A30759   9.022  38.455   8.555
 7827POPC   D2A30760   8.935  38.492   8.255
 7827POPC   C3A30761   8.933  38.440   7.955
 7827POPC   C4A30762   8.998  38.418   7.655
 7827POPC   C1B30763   9.108  38.669   8.555
 7827POPC   C2B30764   9.161  38.641   8.255
 7827POPC   C3B30765   9.152  38.683   7.955
 7827POPC   C4B30766   9.183  38.675   7.655
 7828POPC   NC330767   8.936   1.968   9.455
 7828POPC   PO430768   8.932   1.970   9.155
 7828POPC   GL130769   8.994   1.956   8.855
 7828POPC   GL230770   8.852   1.976   8.855
 7828POPC   C1A30771   8.929   1.943   8.555
 7828POPC   D2A30772   8.948   1.992   8.255
 7828POPC   C3A30773   8.947   1.973   7.955
 7828POPC   C4A30774   8.986   2.008   7.655
 7828POPC   C1B30775   8.753   1.856   8.555
 7828POPC   C2B30776   8.795   1.849   8.255
 7828POPC   C3B30777   8.787   1.827   7.955
 7828POPC   C4B30778   8.779   1.848   7.655
 7829POPC   NC330779  18.328  35.352   9.455
 7829POPC   PO430780  18.251  35.368   9.155
 7829POPC   GL130781  18.257  35.347   8.855
 7829POPC   GL230782  18.213  35.422   8.855
 7829POPC   C1A30783  18.259  35.357   8.555
 7829POPC   D2A30784  18.284  35.337   8.255
 7829POPC   C3A30785  18.251  35.401   7.955
 7829POPC   C4A30786  18.233  35.374   7.655
 7829POPC   C1B30787  18.061  35.501   8.555
 7829POPC   C2B30788  18.133  35.565   8.255
 7829POPC   C3B30789  18.047  35.536   7.955
 7829POPC   C4B30790  18.050  35.523   7.655
 7830POPC   NC330791  34.585  42.319   9.455
 7830POPC   PO430792  34.526  42.374   9.155
 7830POPC   GL130793  34.532  42.384   8.855
 7830POPC   GL230794  34.579  42.466   8.855
 7830POPC   C1A30795  34.597  42.314   8.555
 7830POPC   D2A30796  34.564  42.332   8.255
 7830POPC   C3A30797  34.611  42.349   7.955
 7830POPC   C4A30798  34.563  42.331   7.655
 7830POPC   C1B30799  34.522  42.612   8.555
 7830POPC   C2B30800  34.491  42.558   8.255
 7830POPC   C3B30801  34.477  42.544   7.955
 7830POPC   C4B30802  34.523  42.616   7.655
 7831POPC   NC330803  44.672   8.189   9.455
 7831POPC   PO430804  44.653   8.232   9.155
 7831POPC   GL130805  44.695   8.200   8.855
 7831POPC   GL230806  44.524   8.177   8.855
 7831POPC   C1A30807  44.631   8.179   8.555
 7831POPC   D2A30808  44.613   8.228   8.255
 7831POPC   C3A30809  44.650   8.180   7.955
 7831POPC   C4A30810  44.672   8.171   7.655
 7831POPC   C1B30811  44.466   8.080   8.555
 7831POPC   C2B30812  44.462   8.076   8.255
 7831POPC   C3B30813  44.475   8.072   7.955
 7831POPC   C4B30814  44.431   8.046   7.655
 7832POPC   NC330815  42.307  36.937   9.455
 7832POPC   PO430816  42.290  36.870   9.155
 7832POPC   GL130817  42.345  36.903   8.855
 7832POPC   GL230818  42.399  37.004   8.855
 7832POPC   C1A30819  42.357  36.953   8.555
 7832POPC   D2A30820  42.322  36.903   8.255
 7832POPC   C3A30821  42.381  36.914   7.955
 7832POPC   C4A30822  42.359  36.896   7.655
 7832POPC   C1B30823  42.496  37.031   8.555
 7832POPC   C2B30824  42.498  37.024   8.255
 7832POPC   C3B30825  42.575  37.040   7.955
 7832POPC   C4B30826  42.500  37.095   7.655
 7833POPC   NC330827  32.203  26.044   9.455
 7833POPC   PO430828  32.202  26.039   9.155
 7833POPC   GL130829  32.292  25.994   8.855
 7833POPC   GL230830  32.324  25.968   8.855
 7833POPC   C1A30831  32.257  26.033   8.555
 7833POPC   D2A30832  32.199  26.071   8.255
 7833POPC   C3A30833  32.222  26.069   7.955
 7833POPC   C4A30834  32.210  26.087   7.655
 7833POPC   C1B30835  32.510  25.947   8.555
 7833POPC   C2B30836  32.508  25.903   8.255
 7833POPC   C3B30837  32.489  25.965   7.955
 7833POPC   C4B30838  32.487  25.904   7.655
 7834POPC   NC330839  38.462   2.770   9.455
 7834POPC   PO430840  38.467   2.742   9.155
 7834POPC   GL130841  38.490   2.748   8.855
 7834POPC   GL230842  38.466   2.692   8.855
 7834POPC   C1A30843  38.443   2.790   8.555
 7834POPC   D2A30844  38.443   2.759   8.255
 7834POPC   C3A30845  38.493   2.745   7.955
 7834POPC   C4A30846  38.480   2.775   7.655
 7834POPC   C1B30847  38.485   2.477   8.555
 7834POPC   C2B30848  38.506   2.534   8.255
 7834POPC   C3B30849  38.550   2.477   7.955
 7834POPC   C4B30850  38.505   2.519   7.655
 7835POPC   NC330851  10.525  31.475   9.455
 7835POPC   PO430852  10.484  31.487   9.155
 7835POPC   GL130853  10.535  31.468   8.855
 7835POPC   GL230854  10.387  31.414   8.855
 7835POPC   C1A30855  10.492  31.459   8.555
 7835POPC   D2A30856  10.501  31.466   8.255
 7835POPC   C3A30857  10.553  31.482   7.955
 7835POPC   C4A30858  10.493  31.471   7.655
 7835POPC   C1B30859  10.256  31.375   8.555
 7835POPC   C2B30860  10.266  31.445   8.255
 7835POPC   C3B30861  10.310  31.423   7.955
 7835POPC   C4B30862  10.284  31.444   7.655
 7836POPC   NC330863   0.414  25.311   9.455
 7836POPC   PO430864   0.449  25.261   9.155
 7836POPC   GL130865   0.468  25.296   8.855
 7836POPC   GL230866   0.495  25.312   8.855
 7836POPC   C1A30867   0.438  25.308   8.555
 7836POPC   D2A30868   0.479  25.285   8.255
 7836POPC   C3A30869   0.422  25.310   7.955
 7836POPC   C4A30870   0.393  25.275   7.655
 7836POPC   C1B30871   0.632  25.405   8.555
 7836POPC   C2B30872   0.665  25.363   8.255
 7836POPC   C3B30873   0.685  25.363   7.955
 7836POPC   C4B30874   0.697  25.442   7.655
 7837POPC   NC330875  24.503  39.241   9.455
 7837POPC   PO430876  24.487  39.245   9.155
 7837POPC   GL130877  24.480  39.254   8.855
 7837POPC   GL230878  24.457  39.150   8.855
 7837POPC   C1A30879  24.480  39.266   8.555
 7837POPC   D2A30880  24.449  39.253   8.255
 7837POPC   C3A30881  24.488  39.280   7.955
 7837POPC   C4A30882  24.513  39.221   7.655
 7837POPC   C1B30883  24.479  39.011   8.555
 7837POPC   C2B30884  24.461  38.946   8.255
 7837POPC   C3B30885  24.426  39.019   7.955
 7837POPC   C4B30886  24.480  39.010   7.655
 7838POPC   NC330887   5.835   4.276   9.455
 7838POPC   PO430888   5.846   4.353   9.155
 7838POPC   GL130889   5.841   4.348   8.855
 7838POPC   GL230890   5.832   4.206   8.855
 7838POPC   C1A30891   5.893   4.290   8.555
 7838POPC   D2A30892   5.910   4.270   8.255
 7838POPC   C3A30893   5.878   4.341   7.955
 7838POPC   C4A30894   5.884   4.315   7.655
 7838POPC   C1B30895   5.814   4.040   8.555
 7838POPC   C2B30896   5.803   4.056   8.255
 7838POPC   C3B30897   5.849   4.067   7.955
 7838POPC   C4B30898   5.776   4.093   7.655
 7839POPC   NC330899  12.840   4.273   9.455
 7839POPC   PO430900  12.859   4.353   9.155
 7839POPC   GL130901  12.850   4.360   8.855
 7839POPC   GL230902  12.831   4.470   8.855
 7839POPC   C1A30903  12.870   4.329   8.555
 7839POPC   D2A30904  12.818   4.344   8.255
 7839POPC   C3A30905  12.885   4.276   7.955
 7839POPC   C4A30906  12.837   4.361   7.655
 7839POPC   C1B30907  12.790   4.563   8.555
 7839POPC   C2B30908  12.808   4.563   8.255
 7839POPC   C3B30909  12.803   4.546   7.955
 7839POPC   C4B30910  12.761   4.528   7.655
 7840POPC   NC330911   1.942   2.779   9.455
 7840POPC   PO430912   1.942   2.771   9.155
 7840POPC   GL130913   2.013   2.723   8.855
 7840POPC   GL230914   1.958   2.860   8.855
 7840POPC   C1A30915   1.959   2.767   8.555
 7840POPC   D2A30916   1.961   2.725   8.255
 7840POPC   C3A30917   1.965   2.755   7.955
 7840POPC   C4A30918   1.993   2.732   7.655
 7840POPC   C1B30919   1.954   3.016   8.555
 7840POPC   C2B30920   2.007   3.004   8.255
 7840POPC   C3B30921   1.982   3.033   7.955
 7840POPC   C4B30922   2.022   3.020   7.655
 7841POPC   NC330923   1.991   9.727   9.455
 7841POPC   PO430924   1.975   9.769   9.155
 7841POPC   GL130925   2.001   9.728   8.855
 7841POPC   GL230926   1.978   9.905   8.855
 7841POPC   C1A30927   1.972   9.706   8.555
 7841POPC   D2A30928   1.950   9.731   8.255
 7841POPC   C3A30929   1.942   9.715   7.955
 7841POPC   C4A30930   2.035   9.732   7.655
 7841POPC   C1B30931   1.972  10.047   8.555
 7841POPC   C2B30932   1.987   9.981   8.255
 7841POPC   C3B30933   1.962  10.004   7.955
 7841POPC   C4B30934   2.004   9.984   7.655
 7842POPC   NC330935  26.054  24.483   9.455
 7842POPC   PO430936  26.016  24.529   9.155
 7842POPC   GL130937  26.037  24.469   8.855
 7842POPC   GL230938  26.044  24.362   8.855
 7842POPC   C1A30939  26.084  24.442   8.555
 7842POPC   D2A30940  26.057  24.458   8.255
 7842POPC   C3A30941  26.039  24.492   7.955
 7842POPC   C4A30942  26.051  24.537   7.655
 7842POPC   C1B30943  26.026  24.258   8.555
 7842POPC   C2B30944  26.012  24.195   8.255
 7842POPC   C3B30945  26.011  24.289   7.955
 7842POPC   C4B30946  26.012  24.274   7.655
 7843POPC   NC330947   5.886   5.129   9.455
 7843POPC   PO430948   5.903   5.082   9.155
 7843POPC   GL130949   5.879   5.099   8.855
 7843POPC   GL230950   5.740   5.140   8.855
 7843POPC   C1A30951   5.851   5.080   8.555
 7843POPC   D2A30952   5.835   5.080   8.255
 7843POPC   C3A30953   5.824   5.135   7.955
 7843POPC   C4A30954   5.889   5.048   7.655
 7843POPC   C1B30955   5.618   5.091   8.555
 7843POPC   C2B30956   5.654   5.108   8.255
 7843POPC   C3B30957   5.625   5.098   7.955
 7843POPC   C4B30958   5.659   5.161   7.655
 7844POPC   NC330959  33.056  12.064   9.455
 7844POPC   PO430960  32.982  12.087   9.155
 7844POPC   GL130961  33.012  12.084   8.855
 7844POPC   GL230962  32.947  12.191   8.855
 7844POPC   C1A30963  33.062  12.058   8.555
 7844POPC   D2A30964  33.053  12.068   8.255
 7844POPC   C3A30965  33.041  12.065   7.955
 7844POPC   C4A30966  33.066  12.087   7.655
 7844POPC   C1B30967  32.957  12.287   8.555
 7844POPC   C2B30968  32.975  12.315   8.255
 7844POPC   C3B30969  32.926  12.320   7.955
 7844POPC   C4B30970  32.965  12.304   7.655
 7845POPC   NC330971  40.760  12.071   9.455
 7845POPC   PO430972  40.755  12.100   9.155
 7845POPC   GL130973  40.805  12.045   8.855
 7845POPC   GL230974  40.837  12.143   8.855
 7845POPC   C1A30975  40.756  12.109   8.555
 7845POPC   D2A30976  40.826  12.049   8.255
 7845POPC   C3A30977  40.829  12.122   7.955
 7845POPC   C4A30978  40.772  12.069   7.655
 7845POPC   C1B30979  40.948  12.278   8.555
 7845POPC   C2B30980  40.945  12.303   8.255
 7845POPC   C3B30981  40.944  12.232   7.955
 7845POPC   C4B30982  40.930  12.259   7.655
 7846POPC   NC330983  37.663  26.801   9.455
 7846POPC   PO430984  37.659  26.810   9.155
 7846POPC   GL130985  37.686  26.851   8.855
 7846POPC   GL230986  37.548  26.864   8.855
 7846POPC   C1A30987  37.637  26.771   8.555
 7846POPC   D2A30988  37.653  26.814   8.255
 7846POPC   C3A30989  37.638  26.788   7.955
 7846POPC   C4A30990  37.672  26.768   7.655
 7846POPC   C1B30991  37.403  26.861   8.555
 7846POPC   C2B30992  37.393  26.795   8.255
 7846POPC   C3B30993  37.394  26.821   7.955
 7846POPC   C4B30994  37.409  26.866   7.655
 7847POPC   NC330995  36.870  19.103   9.455
 7847POPC   PO430996  36.917  19.012   9.155
 7847POPC   GL130997  36.914  19.032   8.855
 7847POPC   GL230998  36.905  18.945   8.855
 7847POPC   C1A30999  36.919  19.085   8.555
 7847POPC   D2A31000  36.929  19.074   8.255
 7847POPC   C3A31001  36.944  19.066   7.955
 7847POPC   C4A31002  36.872  19.099   7.655
 7847POPC   C1B31003  36.961  18.786   8.555
 7847POPC   C2B31004  36.898  18.846   8.255
 7847POPC   C3B31005  36.971  18.775   7.955
 7847POPC   C4B31006  36.975  18.836   7.655
 7848POPC   NC331007  36.172  29.932   9.455
 7848POPC   PO431008  36.079  29.930   9.155
 7848POPC   GL131009  36.131  29.916   8.855
 7848POPC   GL231010  35.973  29.839   8.855
 7848POPC   C1A31011  36.090  29.914   8.555
 7848POPC   D2A31012  36.135  29.949   8.255
 7848POPC   C3A31013  36.089  29.953   7.955
 7848POPC   C4A31014  36.128  29.919   7.655
 7848POPC   C1B31015  35.880  29.757   8.555
 7848POPC   C2B31016  35.900  29.845   8.255
 7848POPC   C3B31017  35.930  29.788   7.955
 7848POPC   C4B31018  35.892  29.746   7.655
 7849POPC   NC331019   8.987  10.573   9.455
 7849POPC   PO431020   8.961  10.499   9.155
 7849POPC   GL131021   8.965  10.534   8.855
 7849POPC   GL231022   8.897  10.457   8.855
 7849POPC   C1A31023   8.942  10.479   8.555
 7849POPC   D2A31024   8.960  10.488   8.255
 7849POPC   C3A31025   9.018  10.483   7.955
 7849POPC   C4A31026   8.955  10.574   7.655
 7849POPC   C1B31027   8.748  10.433   8.555
 7849POPC   C2B31028   8.723  10.438   8.255
 7849POPC   C3B31029   8.723  10.456   7.955
 7849POPC   C4B31030   8.741  10.431   7.655
 7850POPC   NC331031   2.765  14.378   9.455
 7850POPC   PO431032   2.777  14.400   9.155
 7850POPC   GL131033   2.758  14.400   8.855
 7850POPC   GL231034   2.729  14.503   8.855
 7850POPC   C1A31035   2.793  14.453   8.555
 7850POPC   D2A31036   2.800  14.393   8.255
 7850POPC   C3A31037   2.729  14.423   7.955
 7850POPC   C4A31038   2.760  14.373   7.655
 7850POPC   C1B31039   2.684  14.648   8.555
 7850POPC   C2B31040   2.729  14.689   8.255
 7850POPC   C3B31041   2.694  14.629   7.955
 7850POPC   C4B31042   2.721  14.676   7.655
 7851POPC   NC331043  19.018  34.556   9.455
 7851POPC   PO431044  19.038  34.550   9.155
 7851POPC   GL131045  19.092  34.599   8.855
 7851POPC   GL231046  19.008  34.459   8.855
 7851POPC   C1A31047  19.103  34.565   8.555
 7851POPC   D2A31048  19.021  34.568   8.255
 7851POPC   C3A31049  19.031  34.561   7.955
 7851POPC   C4A31050  19.028  34.528   7.655
 7851POPC   C1B31051  18.950  34.341   8.555
 7851POPC   C2B31052  19.032  34.291   8.255
 7851POPC   C3B31053  19.028  34.309   7.955
 7851POPC   C4B31054  19.036  34.294   7.655
 7852POPC   NC331055  18.260  36.167   9.455
 7852POPC   PO431056  18.240  36.094   9.155
 7852POPC   GL131057  18.278  36.127   8.855
 7852POPC   GL231058  18.204  36.204   8.855
 7852POPC   C1A31059  18.281  36.121   8.555
 7852POPC   D2A31060  18.241  36.174   8.255
 7852POPC   C3A31061  18.272  36.144   7.955
 7852POPC   C4A31062  18.323  36.127   7.655
 7852POPC   C1B31063  18.165  36.314   8.555
 7852POPC   C2B31064  18.190  36.332   8.255
 7852POPC   C3B31065  18.217  36.348   7.955
 7852POPC   C4B31066  18.141  36.356   7.655
 7853POPC   NC331067  33.768  36.866   9.455
 7853POPC   PO431068  33.840  36.919   9.155
 7853POPC   GL131069  33.837  36.927   8.855
 7853POPC   GL231070  33.657  36.888   8.855
 7853POPC   C1A31071  33.843  36.854   8.555
 7853POPC   D2A31072  33.843  36.931   8.255
 7853POPC   C3A31073  33.842  36.923   7.955
 7853POPC   C4A31074  33.790  36.910   7.655
 7853POPC   C1B31075  33.612  36.787   8.555
 7853POPC   C2B31076  33.603  36.791   8.255
 7853POPC   C3B31077  33.543  36.815   7.955
 7853POPC   C4B31078  33.564  36.798   7.655
 7854POPC   NC331079  35.331  19.105   9.455
 7854POPC   PO431080  35.399  19.059   9.155
 7854POPC   GL131081  35.325  19.072   8.855
 7854POPC   GL231082  35.443  19.170   8.855
 7854POPC   C1A31083  35.366  19.058   8.555
 7854POPC   D2A31084  35.396  19.030   8.255
 7854POPC   C3A31085  35.308  19.029   7.955
 7854POPC   C4A31086  35.384  19.083   7.655
 7854POPC   C1B31087  35.493  19.299   8.555
 7854POPC   C2B31088  35.440  19.322   8.255
 7854POPC   C3B31089  35.439  19.324   7.955
 7854POPC   C4B31090  35.440  19.307   7.655
 7855POPC   NC331091  29.901  32.278   9.455
 7855POPC   PO431092  29.913  32.256   9.155
 7855POPC   GL131093  29.970  32.264   8.855
 7855POPC   GL231094  29.925  32.130   8.855
 7855POPC   C1A31095  29.886  32.208   8.555
 7855POPC   D2A31096  29.961  32.238   8.255
 7855POPC   C3A31097  29.929  32.228   7.955
 7855POPC   C4A31098  29.911  32.227   7.655
 7855POPC   C1B31099  30.036  32.035   8.555
 7855POPC   C2B31100  29.949  32.006   8.255
 7855POPC   C3B31101  29.964  32.025   7.955
 7855POPC   C4B31102  30.009  31.975   7.655
 7856POPC   NC331103  14.432  21.359   9.455
 7856POPC   PO431104  14.365  21.391   9.155
 7856POPC   GL131105  14.385  21.393   8.855
 7856POPC   GL231106  14.523  21.469   8.855
 7856POPC   C1A31107  14.365  21.340   8.555
 7856POPC   D2A31108  14.434  21.418   8.255
 7856POPC   C3A31109  14.426  21.353   7.955
 7856POPC   C4A31110  14.426  21.346   7.655
 7856POPC   C1B31111  14.567  21.566   8.555
 7856POPC   C2B31112  14.531  21.609   8.255
 7856POPC   C3B31113  14.552  21.636   7.955
 7856POPC   C4B31114  14.529  21.588   7.655
 7857POPC   NC331115   8.147   4.310   9.455
 7857POPC   PO431116   8.165   4.358   9.155
 7857POPC   GL131117   8.209   4.341   8.855
 7857POPC   GL231118   8.229   4.426   8.855
 7857POPC   C1A31119   8.200   4.329   8.555
 7857POPC   D2A31120   8.161   4.342   8.255
 7857POPC   C3A31121   8.175   4.320   7.955
 7857POPC   C4A31122   8.191   4.311   7.655
 7857POPC   C1B31123   8.258   4.558   8.555
 7857POPC   C2B31124   8.321   4.554   8.255
 7857POPC   C3B31125   8.232   4.527   7.955
 7857POPC   C4B31126   8.251   4.595   7.655
 7858POPC   NC331127   5.063   1.174   9.455
 7858POPC   PO431128   5.077   1.234   9.155
 7858POPC   GL131129   5.141   1.235   8.855
 7858POPC   GL231130   5.154   1.151   8.855
 7858POPC   C1A31131   5.110   1.212   8.555
 7858POPC   D2A31132   5.097   1.256   8.255
 7858POPC   C3A31133   5.082   1.250   7.955
 7858POPC   C4A31134   5.066   1.263   7.655
 7858POPC   C1B31135   5.170   1.000   8.555
 7858POPC   C2B31136   5.243   0.949   8.255
 7858POPC   C3B31137   5.250   0.992   7.955
 7858POPC   C4B31138   5.231   1.032   7.655
 7859POPC   NC331139  14.437  10.476   9.455
 7859POPC   PO431140  14.393  10.573   9.155
 7859POPC   GL131141  14.383  10.565   8.855
 7859POPC   GL231142  14.375  10.660   8.855
 7859POPC   C1A31143  14.384  10.542   8.555
 7859POPC   D2A31144  14.433  10.488   8.255
 7859POPC   C3A31145  14.406  10.519   7.955
 7859POPC   C4A31146  14.403  10.547   7.655
 7859POPC   C1B31147  14.339  10.732   8.555
 7859POPC   C2B31148  14.320  10.772   8.255
 7859POPC   C3B31149  14.254  10.722   7.955
 7859POPC   C4B31150  14.306  10.779   7.655
 7860POPC   NC331151  35.307  44.698   9.455
 7860POPC   PO431152  35.392  44.705   9.155
 7860POPC   GL131153  35.368  44.663   8.855
 7860POPC   GL231154  35.234  44.707   8.855
 7860POPC   C1A31155  35.328  44.709   8.555
 7860POPC   D2A31156  35.375  44.645   8.255
 7860POPC   C3A31157  35.355  44.617   7.955
 7860POPC   C4A31158  35.345  44.642   7.655
 7860POPC   C1B31159  35.094  44.742   8.555
 7860POPC   C2B31160  35.124  44.794   8.255
 7860POPC   C3B31161  35.167  44.801   7.955
 7860POPC   C4B31162  35.133  44.766   7.655
 7861POPC   NC331163  25.218  41.608   9.455
 7861POPC   PO431164  25.246  41.518   9.155
 7861POPC   GL131165  25.279  41.544   8.855
 7861POPC   GL231166  25.284  41.454   8.855
 7861POPC   C1A31167  25.232  41.541   8.555
 7861POPC   D2A31168  25.228  41.604   8.255
 7861POPC   C3A31169  25.265  41.591   7.955
 7861POPC   C4A31170  25.254  41.543   7.655
 7861POPC   C1B31171  25.218  41.337   8.555
 7861POPC   C2B31172  25.214  41.271   8.255
 7861POPC   C3B31173  25.223  41.267   7.955
 7861POPC   C4B31174  25.271  41.322   7.655
 7862POPC   NC331175  16.719  11.298   9.455
 7862POPC   PO431176  16.739  11.285   9.155
 7862POPC   GL131177  16.726  11.314   8.855
 7862POPC   GL231178  16.799  11.434   8.855
 7862POPC   C1A31179  16.772  11.271   8.555
 7862POPC   D2A31180  16.770  11.273   8.255
 7862POPC   C3A31181  16.760  11.302   7.955
 7862POPC   C4A31182  16.733  11.318   7.655
 7862POPC   C1B31183  16.844  11.469   8.555
 7862POPC   C2B31184  16.853  11.467   8.255
 7862POPC   C3B31185  16.860  11.519   7.955
 7862POPC   C4B31186  16.895  11.498   7.655
 7863POPC   NC331187  27.549  20.652   9.455
 7863POPC   PO431188  27.638  20.640   9.155
 7863POPC   GL131189  27.578  20.648   8.855
 7863POPC   GL231190  27.693  20.696   8.855
 7863POPC   C1A31191  27.628  20.649   8.555
 7863POPC   D2A31192  27.586  20.643   8.255
 7863POPC   C3A31193  27.586  20.647   7.955
 7863POPC   C4A31194  27.567  20.584   7.655
 7863POPC   C1B31195  27.862  20.731   8.555
 7863POPC   C2B31196  27.799  20.662   8.255
 7863POPC   C3B31197  27.784  20.717   7.955
 7863POPC   C4B31198  27.811  20.674   7.655
 7864POPC   NC331199  36.906  33.020   9.455
 7864POPC   PO431200  36.930  33.025   9.155
 7864POPC   GL131201  36.886  33.000   8.855
 7864POPC   GL231202  36.916  32.940   8.855
 7864POPC   C1A31203  36.870  32.999   8.555
 7864POPC   D2A31204  36.942  33.015   8.255
 7864POPC   C3A31205  36.864  33.039   7.955
 7864POPC   C4A31206  36.920  33.010   7.655
 7864POPC   C1B31207  36.809  32.813   8.555
 7864POPC   C2B31208  36.863  32.776   8.255
 7864POPC   C3B31209  36.869  32.821   7.955
 7864POPC   C4B31210  36.898  32.827   7.655
 7865POPC   NC331211  43.120  33.839   9.455
 7865POPC   PO431212  43.154  33.759   9.155
 7865POPC   GL131213  43.157  33.848   8.855
 7865POPC   GL231214  43.113  33.688   8.855
 7865POPC   C1A31215  43.108  33.759   8.555
 7865POPC   D2A31216  43.078  33.759   8.255
 7865POPC   C3A31217  43.116  33.784   7.955
 7865POPC   C4A31218  43.109  33.804   7.655
 7865POPC   C1B31219  43.082  33.567   8.555
 7865POPC   C2B31220  43.048  33.565   8.255
 7865POPC   C3B31221  43.040  33.511   7.955
 7865POPC   C4B31222  43.072  33.581   7.655
 7866POPC   NC331223  16.726  10.523   9.455
 7866POPC   PO431224  16.720  10.551   9.155
 7866POPC   GL131225  16.726  10.478   8.855
 7866POPC   GL231226  16.709  10.447   8.855
 7866POPC   C1A31227  16.698  10.558   8.555
 7866POPC   D2A31228  16.709  10.544   8.255
 7866POPC   C3A31229  16.704  10.532   7.955
 7866POPC   C4A31230  16.705  10.550   7.655
 7866POPC   C1B31231  16.624  10.280   8.555
 7866POPC   C2B31232  16.630  10.305   8.255
 7866POPC   C3B31233  16.669  10.246   7.955
 7866POPC   C4B31234  16.642  10.244   7.655
 7867POPC   NC331235  20.611  41.523   9.455
 7867POPC   PO431236  20.572  41.605   9.155
 7867POPC   GL131237  20.644  41.528   8.855
 7867POPC   GL231238  20.580  41.717   8.855
 7867POPC   C1A31239  20.583  41.534   8.555
 7867POPC   D2A31240  20.604  41.560   8.255
 7867POPC   C3A31241  20.599  41.514   7.955
 7867POPC   C4A31242  20.635  41.582   7.655
 7867POPC   C1B31243  20.649  41.767   8.555
 7867POPC   C2B31244  20.661  41.764   8.255
 7867POPC   C3B31245  20.608  41.841   7.955
 7867POPC   C4B31246  20.602  41.857   7.655
 7868POPC   NC331247  23.747  42.374   9.455
 7868POPC   PO431248  23.681  42.290   9.155
 7868POPC   GL131249  23.694  42.319   8.855
 7868POPC   GL231250  23.660  42.402   8.855
 7868POPC   C1A31251  23.669  42.373   8.555
 7868POPC   D2A31252  23.715  42.339   8.255
 7868POPC   C3A31253  23.701  42.323   7.955
 7868POPC   C4A31254  23.719  42.340   7.655
 7868POPC   C1B31255  23.575  42.507   8.555
 7868POPC   C2B31256  23.535  42.537   8.255
 7868POPC   C3B31257  23.506  42.498   7.955
 7868POPC   C4B31258  23.574  42.538   7.655
 7869POPC   NC331259  44.625   3.534   9.455
 7869POPC   PO431260  44.672   3.520   9.155
 7869POPC   GL131261  44.694   3.561   8.855
 7869POPC   GL231262  44.605   3.485   8.855
 7869POPC   C1A31263  44.705   3.548   8.555
 7869POPC   D2A31264  44.681   3.550   8.255
 7869POPC   C3A31265  44.659   3.510   7.955
 7869POPC   C4A31266  44.613   3.537   7.655
 7869POPC   C1B31267  44.460   3.370   8.555
 7869POPC   C2B31268  44.446   3.378   8.255
 7869POPC   C3B31269  44.445   3.402   7.955
 7869POPC   C4B31270  44.499   3.412   7.655
 7870POPC   NC331271  37.729  37.655   9.455
 7870POPC   PO431272  37.692  37.636   9.155
 7870POPC   GL131273  37.645  37.670   8.855
 7870POPC   GL231274  37.537  37.639   8.855
 7870POPC   C1A31275  37.676  37.643   8.555
 7870POPC   D2A31276  37.672  37.639   8.255
 7870POPC   C3A31277  37.709  37.639   7.955
 7870POPC   C4A31278  37.637  37.702   7.655
 7870POPC   C1B31279  37.453  37.523   8.555
 7870POPC   C2B31280  37.496  37.572   8.255
 7870POPC   C3B31281  37.434  37.548   7.955
 7870POPC   C4B31282  37.431  37.568   7.655
 7871POPC   NC331283  22.909  43.106   9.455
 7871POPC   PO431284  22.964  43.107   9.155
 7871POPC   GL131285  22.967  43.083   8.855
 7871POPC   GL231286  22.765  43.161   8.855
 7871POPC   C1A31287  22.964  43.105   8.555
 7871POPC   D2A31288  22.926  43.123   8.255
 7871POPC   C3A31289  22.933  43.116   7.955
 7871POPC   C4A31290  22.932  43.109   7.655
 7871POPC   C1B31291  22.639  43.143   8.555
 7871POPC   C2B31292  22.721  43.133   8.255
 7871POPC   C3B31293  22.693  43.087   7.955
 7871POPC   C4B31294  22.656  43.154   7.655
 7872POPC   NC331295   8.180  12.088   9.455
 7872POPC   PO431296   8.153  12.076   9.155
 7872POPC   GL131297   8.244  12.071   8.855
 7872POPC   GL231298   8.245  12.220   8.855
 7872POPC   C1A31299   8.171  12.056   8.555
 7872POPC   D2A31300   8.202  12.117   8.255
 7872POPC   C3A31301   8.240  12.035   7.955
 7872POPC   C4A31302   8.244  12.107   7.655
 7872POPC   C1B31303   8.340  12.250   8.555
 7872POPC   C2B31304   8.300  12.300   8.255
 7872POPC   C3B31305   8.289  12.243   7.955
 7872POPC   C4B31306   8.306  12.316   7.655
 7873POPC   NC331307  19.049  37.679   9.455
 7873POPC   PO431308  19.099  37.647   9.155
 7873POPC   GL131309  19.061  37.662   8.855
 7873POPC   GL231310  19.101  37.576   8.855
 7873POPC   C1A31311  19.014  37.633   8.555
 7873POPC   D2A31312  19.104  37.705   8.255
 7873POPC   C3A31313  19.055  37.671   7.955
 7873POPC   C4A31314  19.021  37.691   7.655
 7873POPC   C1B31315  19.043  37.413   8.555
 7873POPC   C2B31316  19.068  37.395   8.255
 7873POPC   C3B31317  19.086  37.430   7.955
 7873POPC   C4B31318  19.089  37.388   7.655
 7874POPC   NC331319  39.249  29.189   9.455
 7874POPC   PO431320  39.265  29.155   9.155
 7874POPC   GL131321  39.230  29.155   8.855
 7874POPC   GL231322  39.106  29.015   8.855
 7874POPC   C1A31323  39.245  29.107   8.555
 7874POPC   D2A31324  39.250  29.169   8.255
 7874POPC   C3A31325  39.240  29.171   7.955
 7874POPC   C4A31326  39.235  29.131   7.655
 7874POPC   C1B31327  39.047  28.928   8.555
 7874POPC   C2B31328  39.087  28.962   8.255
 7874POPC   C3B31329  39.086  28.901   7.955
 7874POPC   C4B31330  39.092  28.936   7.655
 7875POPC   NC331331  15.961  10.477   9.455
 7875POPC   PO431332  15.912  10.482   9.155
 7875POPC   GL131333  15.913  10.568   8.855
 7875POPC   GL231334  15.934  10.605   8.855
 7875POPC   C1A31335  15.954  10.535   8.555
 7875POPC   D2A31336  15.986  10.558   8.255
 7875POPC   C3A31337  15.942  10.556   7.955
 7875POPC   C4A31338  15.978  10.503   7.655
 7875POPC   C1B31339  16.017  10.737   8.555
 7875POPC   C2B31340  15.961  10.777   8.255
 7875POPC   C3B31341  16.017  10.730   7.955
 7875POPC   C4B31342  16.002  10.773   7.655
 7876POPC   NC331343  36.160  22.154   9.455
 7876POPC   PO431344  36.113  22.115   9.155
 7876POPC   GL131345  36.087  22.209   8.855
 7876POPC   GL231346  36.278  22.064   8.855
 7876POPC   C1A31347  36.114  22.177   8.555
 7876POPC   D2A31348  36.092  22.203   8.255
 7876POPC   C3A31349  36.135  22.135   7.955
 7876POPC   C4A31350  36.145  22.141   7.655
 7876POPC   C1B31351  36.309  22.050   8.555
 7876POPC   C2B31352  36.312  21.995   8.255
 7876POPC   C3B31353  36.325  22.032   7.955
 7876POPC   C4B31354  36.298  22.009   7.655
 7877POPC   NC331355  42.344  31.449   9.455
 7877POPC   PO431356  42.361  31.495   9.155
 7877POPC   GL131357  42.374  31.453   8.855
 7877POPC   GL231358  42.391  31.538   8.855
 7877POPC   C1A31359  42.332  31.436   8.555
 7877POPC   D2A31360  42.308  31.430   8.255
 7877POPC   C3A31361  42.355  31.493   7.955
 7877POPC   C4A31362  42.354  31.447   7.655
 7877POPC   C1B31363  42.470  31.669   8.555
 7877POPC   C2B31364  42.521  31.695   8.255
 7877POPC   C3B31365  42.539  31.627   7.955
 7877POPC   C4B31366  42.503  31.658   7.655
 7878POPC   NC331367  22.112  24.500   9.455
 7878POPC   PO431368  22.210  24.488   9.155
 7878POPC   GL131369  22.115  24.484   8.855
 7878POPC   GL231370  22.295  24.542   8.855
 7878POPC   C1A31371  22.207  24.526   8.555
 7878POPC   D2A31372  22.202  24.530   8.255
 7878POPC   C3A31373  22.187  24.486   7.955
 7878POPC   C4A31374  22.130  24.469   7.655
 7878POPC   C1B31375  22.442  24.509   8.555
 7878POPC   C2B31376  22.359  24.564   8.255
 7878POPC   C3B31377  22.423  24.603   7.955
 7878POPC   C4B31378  22.419  24.523   7.655
 7879POPC   NC331379  13.671   9.770   9.455
 7879POPC   PO431380  13.664   9.720   9.155
 7879POPC   GL131381  13.634   9.777   8.855
 7879POPC   GL231382  13.770   9.666   8.855
 7879POPC   C1A31383  13.579   9.716   8.555
 7879POPC   D2A31384  13.657   9.774   8.255
 7879POPC   C3A31385  13.641   9.762   7.955
 7879POPC   C4A31386  13.589   9.734   7.655
 7879POPC   C1B31387  13.870   9.619   8.555
 7879POPC   C2B31388  13.816   9.613   8.255
 7879POPC   C3B31389  13.887   9.595   7.955
 7879POPC   C4B31390  13.849   9.652   7.655
 7880POPC   NC331391  39.216   0.436   9.455
 7880POPC   PO431392  39.260   0.437   9.155
 7880POPC   GL131393  39.194   0.455   8.855
 7880POPC   GL231394  39.292   0.363   8.855
 7880POPC   C1A31395  39.224   0.406   8.555
 7880POPC   D2A31396  39.206   0.434   8.255
 7880POPC   C3A31397  39.189   0.443   7.955
 7880POPC   C4A31398  39.252   0.485   7.655
 7880POPC   C1B31399  39.371   0.255   8.555
 7880POPC   C2B31400  39.438   0.229   8.255
 7880POPC   C3B31401  39.390   0.319   7.955
 7880POPC   C4B31402  39.419   0.301   7.655
 7881POPC   NC331403  18.281  11.341   9.455
 7881POPC   PO431404  18.276  11.336   9.155
 7881POPC   GL131405  18.314  11.319   8.855
 7881POPC   GL231406  18.312  11.176   8.855
 7881POPC   C1A31407  18.261  11.280   8.555
 7881POPC   D2A31408  18.299  11.270   8.255
 7881POPC   C3A31409  18.296  11.345   7.955
 7881POPC   C4A31410  18.236  11.310   7.655
 7881POPC   C1B31411  18.404  11.051   8.555
 7881POPC   C2B31412  18.414  11.077   8.255
 7881POPC   C3B31413  18.328  11.089   7.955
 7881POPC   C4B31414  18.386  11.090   7.655
 7882POPC   NC331415  40.040  33.764   9.455
 7882POPC   PO431416  40.031  33.818   9.155
 7882POPC   GL131417  40.043  33.822   8.855
 7882POPC   GL231418  39.889  33.763   8.855
 7882POPC   C1A31419  39.995  33.782   8.555
 7882POPC   D2A31420  39.963  33.825   8.255
 7882POPC   C3A31421  40.007  33.839   7.955
 7882POPC   C4A31422  39.977  33.846   7.655
 7882POPC   C1B31423  39.749  33.801   8.555
 7882POPC   C2B31424  39.791  33.822   8.255
 7882POPC   C3B31425  39.772  33.833   7.955
 7882POPC   C4B31426  39.781  33.758   7.655
 7883POPC   NC331427   3.580  44.682   9.455
 7883POPC   PO431428   3.531  44.697   9.155
 7883POPC   GL131429   3.550  44.646   8.855
 7883POPC   GL231430   3.513  44.799   8.855
 7883POPC   C1A31431   3.568  44.684   8.555
 7883POPC   D2A31432   3.524  44.632   8.255
 7883POPC   C3A31433   3.567  44.686   7.955
 7883POPC   C4A31434   3.496  44.645   7.655
 7883POPC   C1B31435   3.540  44.895   8.555
 7883POPC   C2B31436   3.486  44.905   8.255
 7883POPC   C3B31437   3.497  44.953   7.955
 7883POPC   C4B31438   3.461  44.893   7.655
 7884POPC   NC331439  12.041   9.774   9.455
 7884POPC   PO431440  12.092   9.769   9.155
 7884POPC   GL131441  12.036   9.730   8.855
 7884POPC   GL231442  11.988   9.627   8.855
 7884POPC   C1A31443  12.096   9.780   8.555
 7884POPC   D2A31444  12.082   9.768   8.255
 7884POPC   C3A31445  12.067   9.794   7.955
 7884POPC   C4A31446  12.106   9.781   7.655
 7884POPC   C1B31447  11.858   9.644   8.555
 7884POPC   C2B31448  11.915   9.628   8.255
 7884POPC   C3B31449  11.825   9.562   7.955
 7884POPC   C4B31450  11.856   9.559   7.655
 7885POPC   NC331451  28.364  23.688   9.455
 7885POPC   PO431452  28.362  23.731   9.155
 7885POPC   GL131453  28.412  23.735   8.855
 7885POPC   GL231454  28.270  23.797   8.855
 7885POPC   C1A31455  28.391  23.731   8.555
 7885POPC   D2A31456  28.341  23.742   8.255
 7885POPC   C3A31457  28.374  23.691   7.955
 7885POPC   C4A31458  28.384  23.679   7.655
 7885POPC   C1B31459  28.173  23.805   8.555
 7885POPC   C2B31460  28.129  23.751   8.255
 7885POPC   C3B31461  28.160  23.754   7.955
 7885POPC   C4B31462  28.123  23.780   7.655
 7886POPC   NC331463  42.340   6.651   9.455
 7886POPC   PO431464  42.337   6.603   9.155
 7886POPC   GL131465  42.327   6.625   8.855
 7886POPC   GL231466  42.279   6.538   8.855
 7886POPC   C1A31467  42.302   6.642   8.555
 7886POPC   D2A31468  42.286   6.635   8.255
 7886POPC   C3A31469  42.286   6.658   7.955
 7886POPC   C4A31470  42.370   6.673   7.655
 7886POPC   C1B31471  42.123   6.471   8.555
 7886POPC   C2B31472  42.159   6.455   8.255
 7886POPC   C3B31473  42.169   6.491   7.955
 7886POPC   C4B31474  42.195   6.503   7.655
 7887POPC   NC331475  12.037  26.826   9.455
 7887POPC   PO431476  12.097  26.855   9.155
 7887POPC   GL131477  12.037  26.814   8.855
 7887POPC   GL231478  12.022  26.980   8.855
 7887POPC   C1A31479  12.030  26.863   8.555
 7887POPC   D2A31480  12.076  26.770   8.255
 7887POPC   C3A31481  12.078  26.804   7.955
 7887POPC   C4A31482  12.048  26.800   7.655
 7887POPC   C1B31483  12.044  27.071   8.555
 7887POPC   C2B31484  11.999  27.043   8.255
 7887POPC   C3B31485  12.005  27.033   7.955
 7887POPC   C4B31486  11.992  27.104   7.655
 7888POPC   NC331487  12.895  43.853   9.455
 7888POPC   PO431488  12.884  43.852   9.155
 7888POPC   GL131489  12.874  43.909   8.855
 7888POPC   GL231490  12.908  43.827   8.855
 7888POPC   C1A31491  12.802  43.892   8.555
 7888POPC   D2A31492  12.860  43.869   8.255
 7888POPC   C3A31493  12.807  43.870   7.955
 7888POPC   C4A31494  12.828  43.910   7.655
 7888POPC   C1B31495  13.078  43.682   8.555
 7888POPC   C2B31496  13.026  43.726   8.255
 7888POPC   C3B31497  13.029  43.756   7.955
 7888POPC   C4B31498  12.989  43.724   7.655
 7889POPC   NC331499   2.803  10.526   9.455
 7889POPC   PO431500   2.811  10.569   9.155
 7889POPC   GL131501   2.788  10.572   8.855
 7889POPC   GL231502   2.906  10.542   8.855
 7889POPC   C1A31503   2.781  10.568   8.555
 7889POPC   D2A31504   2.813  10.555   8.255
 7889POPC   C3A31505   2.730  10.555   7.955
 7889POPC   C4A31506   2.746  10.522   7.655
 7889POPC   C1B31507   3.005  10.567   8.555
 7889POPC   C2B31508   3.008  10.580   8.255
 7889POPC   C3B31509   2.979  10.623   7.955
 7889POPC   C4B31510   2.985  10.603   7.655
 7890POPC   NC331511  19.059  28.348   9.455
 7890POPC   PO431512  19.042  28.383   9.155
 7890POPC   GL131513  19.076  28.357   8.855
 7890POPC   GL231514  18.979  28.406   8.855
 7890POPC   C1A31515  19.088  28.364   8.555
 7890POPC   D2A31516  19.060  28.375   8.255
 7890POPC   C3A31517  19.040  28.405   7.955
 7890POPC   C4A31518  19.019  28.391   7.655
 7890POPC   C1B31519  18.916  28.563   8.555
 7890POPC   C2B31520  18.911  28.510   8.255
 7890POPC   C3B31521  18.913  28.485   7.955
 7890POPC   C4B31522  18.842  28.514   7.655
 7891POPC   NC331523  10.549  30.737   9.455
 7891POPC   PO431524  10.569  30.662   9.155
 7891POPC   GL131525  10.491  30.744   8.855
 7891POPC   GL231526  10.616  30.784   8.855
 7891POPC   C1A31527  10.545  30.672   8.555
 7891POPC   D2A31528  10.537  30.666   8.255
 7891POPC   C3A31529  10.531  30.678   7.955
 7891POPC   C4A31530  10.482  30.674   7.655
 7891POPC   C1B31531  10.763  30.792   8.555
 7891POPC   C2B31532  10.774  30.814   8.255
 7891POPC   C3B31533  10.734  30.789   7.955
 7891POPC   C4B31534  10.736  30.783   7.655
 7892POPC   NC331535   5.882  41.588   9.455
 7892POPC   PO431536   5.845  41.566   9.155
 7892POPC   GL131537   5.909  41.595   8.855
 7892POPC   GL231538   5.794  41.440   8.855
 7892POPC   C1A31539   5.899  41.565   8.555
 7892POPC   D2A31540   5.899  41.547   8.255
 7892POPC   C3A31541   5.868  41.544   7.955
 7892POPC   C4A31542   5.836  41.574   7.655
 7892POPC   C1B31543   5.772  41.379   8.555
 7892POPC   C2B31544   5.755  41.322   8.255
 7892POPC   C3B31545   5.691  41.361   7.955
 7892POPC   C4B31546   5.754  41.328   7.655
 7893POPC   NC331547  15.971   8.965   9.455
 7893POPC   PO431548  15.989   9.003   9.155
 7893POPC   GL131549  15.926   8.925   8.855
 7893POPC   GL231550  16.088   8.916   8.855
 7893POPC   C1A31551  15.972   8.973   8.555
 7893POPC   D2A31552  15.925   8.923   8.255
 7893POPC   C3A31553  15.945   8.964   7.955
 7893POPC   C4A31554  16.003   8.958   7.655
 7893POPC   C1B31555  16.175   8.887   8.555
 7893POPC   C2B31556  16.172   8.897   8.255
 7893POPC   C3B31557  16.145   8.870   7.955
 7893POPC   C4B31558  16.178   8.891   7.655
 7894POPC   NC331559  17.519   2.750   9.455
 7894POPC   PO431560  17.511   2.796   9.155
 7894POPC   GL131561  17.534   2.724   8.855
 7894POPC   GL231562  17.446   2.871   8.855
 7894POPC   C1A31563  17.552   2.758   8.555
 7894POPC   D2A31564  17.501   2.735   8.255
 7894POPC   C3A31565  17.466   2.756   7.955
 7894POPC   C4A31566  17.517   2.735   7.655
 7894POPC   C1B31567  17.297   2.976   8.555
 7894POPC   C2B31568  17.373   2.895   8.255
 7894POPC   C3B31569  17.310   2.972   7.955
 7894POPC   C4B31570  17.358   2.968   7.655
 7895POPC   NC331571   4.328   4.280   9.455
 7895POPC   PO431572   4.366   4.294   9.155
 7895POPC   GL131573   4.297   4.290   8.855
 7895POPC   GL231574   4.355   4.259   8.855
 7895POPC   C1A31575   4.338   4.313   8.555
 7895POPC   D2A31576   4.275   4.362   8.255
 7895POPC   C3A31577   4.307   4.280   7.955
 7895POPC   C4A31578   4.308   4.273   7.655
 7895POPC   C1B31579   4.460   4.117   8.555
 7895POPC   C2B31580   4.489   4.088   8.255
 7895POPC   C3B31581   4.464   4.098   7.955
 7895POPC   C4B31582   4.484   4.061   7.655
 7896POPC   NC331583   9.777  16.711   9.455
 7896POPC   PO431584   9.720  16.747   9.155
 7896POPC   GL131585   9.782  16.748   8.855
 7896POPC   GL231586   9.587  16.694   8.855
 7896POPC   C1A31587   9.738  16.742   8.555
 7896POPC   D2A31588   9.750  16.721   8.255
 7896POPC   C3A31589   9.792  16.753   7.955
 7896POPC   C4A31590   9.770  16.697   7.655
 7896POPC   C1B31591   9.520  16.700   8.555
 7896POPC   C2B31592   9.461  16.668   8.255
 7896POPC   C3B31593   9.466  16.692   7.955
 7896POPC   C4B31594   9.554  16.620   7.655
 7897POPC   NC331595   5.820  40.007   9.455
 7897POPC   PO431596   5.828  40.026   9.155
 7897POPC   GL131597   5.876  40.025   8.855
 7897POPC   GL231598   5.986  39.923   8.855
 7897POPC   C1A31599   5.918  39.963   8.555
 7897POPC   D2A31600   5.835  39.991   8.255
 7897POPC   C3A31601   5.911  40.051   7.955
 7897POPC   C4A31602   5.858  40.018   7.655
 7897POPC   C1B31603   6.011  39.844   8.555
 7897POPC   C2B31604   6.027  39.850   8.255
 7897POPC   C3B31605   6.054  39.854   7.955
 7897POPC   C4B31606   6.049  39.827   7.655
 7898POPC   NC331607  20.613  19.070   9.455
 7898POPC   PO431608  20.596  19.088   9.155
 7898POPC   GL131609  20.608  19.045   8.855
 7898POPC   GL231610  20.636  18.978   8.855
 7898POPC   C1A31611  20.569  19.062   8.555
 7898POPC   D2A31612  20.613  19.090   8.255
 7898POPC   C3A31613  20.571  19.086   7.955
 7898POPC   C4A31614  20.633  19.016   7.655
 7898POPC   C1B31615  20.694  18.850   8.555
 7898POPC   C2B31616  20.680  18.814   8.255
 7898POPC   C3B31617  20.680  18.767   7.955
 7898POPC   C4B31618  20.677  18.829   7.655
 7899POPC   NC331619  21.360  32.218   9.455
 7899POPC   PO431620  21.421  32.218   9.155
 7899POPC   GL131621  21.425  32.213   8.855
 7899POPC   GL231622  21.558  32.210   8.855
 7899POPC   C1A31623  21.422  32.254   8.555
 7899POPC   D2A31624  21.382  32.242   8.255
 7899POPC   C3A31625  21.387  32.204   7.955
 7899POPC   C4A31626  21.357  32.264   7.655
 7899POPC   C1B31627  21.592  32.313   8.555
 7899POPC   C2B31628  21.616  32.266   8.255
 7899POPC   C3B31629  21.612  32.313   7.955
 7899POPC   C4B31630  21.608  32.260   7.655
 7900POPC   NC331631  14.362  29.914   9.455
 7900POPC   PO431632  14.407  29.924   9.155
 7900POPC   GL131633  14.380  29.959   8.855
 7900POPC   GL231634  14.490  29.918   8.855
 7900POPC   C1A31635  14.359  29.880   8.555
 7900POPC   D2A31636  14.440  29.929   8.255
 7900POPC   C3A31637  14.355  29.891   7.955
 7900POPC   C4A31638  14.415  29.968   7.655
 7900POPC   C1B31639  14.601  29.861   8.555
 7900POPC   C2B31640  14.651  29.849   8.255
 7900POPC   C3B31641  14.667  29.815   7.955
 7900POPC   C4B31642  14.625  29.873   7.655
 7901POPC   NC331643   1.949   0.418   9.455
 7901POPC   PO431644   2.028   0.398   9.155
 7901POPC   GL131645   2.031   0.400   8.855
 7901POPC   GL231646   1.883   0.374   8.855
 7901POPC   C1A31647   1.966   0.413   8.555
 7901POPC   D2A31648   1.974   0.443   8.255
 7901POPC   C3A31649   1.955   0.442   7.955
 7901POPC   C4A31650   1.980   0.421   7.655
 7901POPC   C1B31651   1.732   0.277   8.555
 7901POPC   C2B31652   1.732   0.273   8.255
 7901POPC   C3B31653   1.728   0.328   7.955
 7901POPC   C4B31654   1.731   0.343   7.655
 7902POPC   NC331655   8.924  26.079   9.455
 7902POPC   PO431656   8.940  26.044   9.155
 7902POPC   GL131657   8.967  26.076   8.855
 7902POPC   GL231658   9.001  26.166   8.855
 7902POPC   C1A31659   8.973  26.077   8.555
 7902POPC   D2A31660   8.983  26.019   8.255
 7902POPC   C3A31661   8.949  26.079   7.955
 7902POPC   C4A31662   8.984  26.057   7.655
 7902POPC   C1B31663   9.088  26.281   8.555
 7902POPC   C2B31664   9.088  26.235   8.255
 7902POPC   C3B31665   9.025  26.294   7.955
 7902POPC   C4B31666   9.077  26.303   7.655
 7903POPC   NC331667  43.061   1.219   9.455
 7903POPC   PO431668  43.149   1.202   9.155
 7903POPC   GL131669  43.138   1.179   8.855
 7903POPC   GL231670  43.041   1.314   8.855
 7903POPC   C1A31671  43.092   1.251   8.555
 7903POPC   D2A31672  43.143   1.167   8.255
 7903POPC   C3A31673  43.079   1.229   7.955
 7903POPC   C4A31674  43.154   1.232   7.655
 7903POPC   C1B31675  43.035   1.478   8.555
 7903POPC   C2B31676  43.011   1.459   8.255
 7903POPC   C3B31677  43.045   1.491   7.955
 7903POPC   C4B31678  43.032   1.414   7.655
 7904POPC   NC331679  15.133   0.398   9.455
 7904POPC   PO431680  15.181   0.411   9.155
 7904POPC   GL131681  15.183   0.394   8.855
 7904POPC   GL231682  15.315   0.385   8.855
 7904POPC   C1A31683  15.197   0.475   8.555
 7904POPC   D2A31684  15.164   0.469   8.255
 7904POPC   C3A31685  15.199   0.466   7.955
 7904POPC   C4A31686  15.229   0.401   7.655
 7904POPC   C1B31687  15.463   0.398   8.555
 7904POPC   C2B31688  15.456   0.381   8.255
 7904POPC   C3B31689  15.413   0.409   7.955
 7904POPC   C4B31690  15.423   0.418   7.655
 7905POPC   NC331691  12.802  11.266   9.455
 7905POPC   PO431692  12.815  11.333   9.155
 7905POPC   GL131693  12.877  11.261   8.855
 7905POPC   GL231694  13.023  11.356   8.855
 7905POPC   C1A31695  12.900  11.282   8.555
 7905POPC   D2A31696  12.851  11.282   8.255
 7905POPC   C3A31697  12.862  11.326   7.955
 7905POPC   C4A31698  12.830  11.312   7.655
 7905POPC   C1B31699  13.133  11.323   8.555
 7905POPC   C2B31700  13.135  11.366   8.255
 7905POPC   C3B31701  13.052  11.301   7.955
 7905POPC   C4B31702  13.097  11.289   7.655
 7906POPC   NC331703  20.604  22.212   9.455
 7906POPC   PO431704  20.631  22.187   9.155
 7906POPC   GL131705  20.651  22.201   8.855
 7906POPC   GL231706  20.667  22.044   8.855
 7906POPC   C1A31707  20.616  22.113   8.555
 7906POPC   D2A31708  20.640  22.170   8.255
 7906POPC   C3A31709  20.608  22.147   7.955
 7906POPC   C4A31710  20.586  22.112   7.655
 7906POPC   C1B31711  20.704  21.956   8.555
 7906POPC   C2B31712  20.721  21.911   8.255
 7906POPC   C3B31713  20.758  21.943   7.955
 7906POPC   C4B31714  20.729  21.991   7.655
 7907POPC   NC331715  15.152  28.332   9.455
 7907POPC   PO431716  15.162  28.329   9.155
 7907POPC   GL131717  15.187  28.404   8.855
 7907POPC   GL231718  15.127  28.491   8.855
 7907POPC   C1A31719  15.200  28.349   8.555
 7907POPC   D2A31720  15.207  28.413   8.255
 7907POPC   C3A31721  15.210  28.395   7.955
 7907POPC   C4A31722  15.151  28.345   7.655
 7907POPC   C1B31723  15.066  28.535   8.555
 7907POPC   C2B31724  15.043  28.600   8.255
 7907POPC   C3B31725  15.026  28.543   7.955
 7907POPC   C4B31726  15.065  28.561   7.655
 7908POPC   NC331727  19.828  26.080   9.455
 7908POPC   PO431728  19.868  26.054   9.155
 7908POPC   GL131729  19.845  26.062   8.855
 7908POPC   GL231730  19.814  25.955   8.855
 7908POPC   C1A31731  19.813  26.006   8.555
 7908POPC   D2A31732  19.816  26.070   8.255
 7908POPC   C3A31733  19.873  26.039   7.955
 7908POPC   C4A31734  19.850  26.009   7.655
 7908POPC   C1B31735  19.746  25.853   8.555
 7908POPC   C2B31736  19.738  25.802   8.255
 7908POPC   C3B31737  19.724  25.865   7.955
 7908POPC   C4B31738  19.747  25.834   7.655
 7909POPC   NC331739  33.058   2.010   9.455
 7909POPC   PO431740  33.074   1.970   9.155
 7909POPC   GL131741  32.990   2.024   8.855
 7909POPC   GL231742  33.064   1.921   8.855
 7909POPC   C1A31743  33.055   1.971   8.555
 7909POPC   D2A31744  33.073   2.032   8.255
 7909POPC   C3A31745  33.032   2.012   7.955
 7909POPC   C4A31746  32.990   2.026   7.655
 7909POPC   C1B31747  33.188   1.781   8.555
 7909POPC   C2B31748  33.242   1.794   8.255
 7909POPC   C3B31749  33.248   1.768   7.955
 7909POPC   C4B31750  33.250   1.786   7.655
 7910POPC   NC331751  20.589  43.132   9.455
 7910POPC   PO431752  20.633  43.131   9.155
 7910POPC   GL131753  20.633  43.133   8.855
 7910POPC   GL231754  20.667  42.951   8.855
 7910POPC   C1A31755  20.626  43.156   8.555
 7910POPC   D2A31756  20.610  43.157   8.255
 7910POPC   C3A31757  20.623  43.100   7.955
 7910POPC   C4A31758  20.600  43.143   7.655
 7910POPC   C1B31759  20.686  42.876   8.555
 7910POPC   C2B31760  20.705  42.907   8.255
 7910POPC   C3B31761  20.713  42.913   7.955
 7910POPC   C4B31762  20.763  42.846   7.655
 7911POPC   NC331763  16.767  13.674   9.455
 7911POPC   PO431764  16.729  13.630   9.155
 7911POPC   GL131765  16.750  13.659   8.855
 7911POPC   GL231766  16.700  13.508   8.855
 7911POPC   C1A31767  16.721  13.646   8.555
 7911POPC   D2A31768  16.769  13.669   8.255
 7911POPC   C3A31769  16.689  13.642   7.955
 7911POPC   C4A31770  16.737  13.592   7.655
 7911POPC   C1B31771  16.628  13.411   8.555
 7911POPC   C2B31772  16.660  13.404   8.255
 7911POPC   C3B31773  16.702  13.400   7.955
 7911POPC   C4B31774  16.677  13.429   7.655
 7912POPC   NC331775   5.110  25.276   9.455
 7912POPC   PO431776   5.136  25.285   9.155
 7912POPC   GL131777   5.137  25.267   8.855
 7912POPC   GL231778   4.951  25.229   8.855
 7912POPC   C1A31779   5.095  25.223   8.555
 7912POPC   D2A31780   5.114  25.241   8.255
 7912POPC   C3A31781   5.126  25.269   7.955
 7912POPC   C4A31782   5.065  25.226   7.655
 7912POPC   C1B31783   4.918  25.126   8.555
 7912POPC   C2B31784   4.925  25.152   8.255
 7912POPC   C3B31785   4.909  25.173   7.955
 7912POPC   C4B31786   4.908  25.099   7.655
 7913POPC   NC331787   5.831  36.880   9.455
 7913POPC   PO431788   5.913  36.869   9.155
 7913POPC   GL131789   5.913  36.856   8.855
 7913POPC   GL231790   5.766  37.034   8.855
 7913POPC   C1A31791   5.879  36.882   8.555
 7913POPC   D2A31792   5.826  36.861   8.255
 7913POPC   C3A31793   5.848  36.903   7.955
 7913POPC   C4A31794   5.876  36.902   7.655
 7913POPC   C1B31795   5.760  37.142   8.555
 7913POPC   C2B31796   5.727  37.138   8.255
 7913POPC   C3B31797   5.713  37.148   7.955
 7913POPC   C4B31798   5.745  37.129   7.655
 7914POPC   NC331799  37.675  20.626   9.455
 7914POPC   PO431800  37.681  20.593   9.155
 7914POPC   GL131801  37.728  20.599   8.855
 7914POPC   GL231802  37.757  20.750   8.855
 7914POPC   C1A31803  37.699  20.612   8.555
 7914POPC   D2A31804  37.670  20.627   8.255
 7914POPC   C3A31805  37.718  20.631   7.955
 7914POPC   C4A31806  37.682  20.564   7.655
 7914POPC   C1B31807  37.817  20.801   8.555
 7914POPC   C2B31808  37.870  20.769   8.255
 7914POPC   C3B31809  37.795  20.839   7.955
 7914POPC   C4B31810  37.847  20.848   7.655
 7915POPC   NC331811   4.306  34.618   9.455
 7915POPC   PO431812   4.269  34.555   9.155
 7915POPC   GL131813   4.357  34.541   8.855
 7915POPC   GL231814   4.459  34.675   8.855
 7915POPC   C1A31815   4.345  34.584   8.555
 7915POPC   D2A31816   4.354  34.621   8.255
 7915POPC   C3A31817   4.324  34.542   7.955
 7915POPC   C4A31818   4.324  34.614   7.655
 7915POPC   C1B31819   4.556  34.737   8.555
 7915POPC   C2B31820   4.559  34.660   8.255
 7915POPC   C3B31821   4.553  34.696   7.955
 7915POPC   C4B31822   4.483  34.675   7.655
 7916POPC   NC331823  25.245   8.166   9.455
 7916POPC   PO431824  25.300   8.157   9.155
 7916POPC   GL131825  25.255   8.180   8.855
 7916POPC   GL231826  25.350   8.314   8.855
 7916POPC   C1A31827  25.228   8.241   8.555
 7916POPC   D2A31828  25.250   8.237   8.255
 7916POPC   C3A31829  25.291   8.207   7.955
 7916POPC   C4A31830  25.218   8.186   7.655
 7916POPC   C1B31831  25.443   8.330   8.555
 7916POPC   C2B31832  25.428   8.383   8.255
 7916POPC   C3B31833  25.483   8.365   7.955
 7916POPC   C4B31834  25.469   8.316   7.655
 7917POPC   NC331835  36.170  36.084   9.455
 7917POPC   PO431836  36.114  36.119   9.155
 7917POPC   GL131837  36.167  36.083   8.855
 7917POPC   GL231838  35.985  36.178   8.855
 7917POPC   C1A31839  36.120  36.167   8.555
 7917POPC   D2A31840  36.134  36.159   8.255
 7917POPC   C3A31841  36.157  36.155   7.955
 7917POPC   C4A31842  36.149  36.083   7.655
 7917POPC   C1B31843  35.857  36.191   8.555
 7917POPC   C2B31844  35.901  36.197   8.255
 7917POPC   C3B31845  35.896  36.129   7.955
 7917POPC   C4B31846  35.872  36.149   7.655
 7918POPC   NC331847  40.758   6.628   9.455
 7918POPC   PO431848  40.733   6.616   9.155
 7918POPC   GL131849  40.788   6.665   8.855
 7918POPC   GL231850  40.693   6.528   8.855
 7918POPC   C1A31851  40.807   6.686   8.555
 7918POPC   D2A31852  40.739   6.681   8.255
 7918POPC   C3A31853  40.816   6.666   7.955
 7918POPC   C4A31854  40.748   6.693   7.655
 7918POPC   C1B31855  40.607   6.522   8.555
 7918POPC   C2B31856  40.620   6.466   8.255
 7918POPC   C3B31857  40.547   6.513   7.955
 7918POPC   C4B31858  40.561   6.537   7.655
 7919POPC   NC331859  26.867  39.228   9.455
 7919POPC   PO431860  26.863  39.183   9.155
 7919POPC   GL131861  26.866  39.247   8.855
 7919POPC   GL231862  26.795  39.305   8.855
 7919POPC   C1A31863  26.834  39.235   8.555
 7919POPC   D2A31864  26.817  39.243   8.255
 7919POPC   C3A31865  26.795  39.211   7.955
 7919POPC   C4A31866  26.768  39.237   7.655
 7919POPC   C1B31867  26.835  39.465   8.555
 7919POPC   C2B31868  26.910  39.487   8.255
 7919POPC   C3B31869  26.836  39.502   7.955
 7919POPC   C4B31870  26.906  39.434   7.655
 7920POPC   NC331871  14.450  19.876   9.455
 7920POPC   PO431872  14.443  19.811   9.155
 7920POPC   GL131873  14.377  19.836   8.855
 7920POPC   GL231874  14.469  19.979   8.855
 7920POPC   C1A31875  14.383  19.849   8.555
 7920POPC   D2A31876  14.381  19.849   8.255
 7920POPC   C3A31877  14.393  19.817   7.955
 7920POPC   C4A31878  14.374  19.854   7.655
 7920POPC   C1B31879  14.538  19.976   8.555
 7920POPC   C2B31880  14.615  19.979   8.255
 7920POPC   C3B31881  14.581  20.037   7.955
 7920POPC   C4B31882  14.596  20.051   7.655
 7921POPC   NC331883  15.163  30.653   9.455
 7921POPC   PO431884  15.195  30.654   9.155
 7921POPC   GL131885  15.202  30.727   8.855
 7921POPC   GL231886  15.066  30.627   8.855
 7921POPC   C1A31887  15.212  30.674   8.555
 7921POPC   D2A31888  15.226  30.714   8.255
 7921POPC   C3A31889  15.147  30.661   7.955
 7921POPC   C4A31890  15.146  30.712   7.655
 7921POPC   C1B31891  15.021  30.532   8.555
 7921POPC   C2B31892  15.028  30.521   8.255
 7921POPC   C3B31893  14.964  30.543   7.955
 7921POPC   C4B31894  15.045  30.476   7.655
 7922POPC   NC331895  15.159  12.046   9.455
 7922POPC   PO431896  15.215  12.123   9.155
 7922POPC   GL131897  15.205  12.071   8.855
 7922POPC   GL231898  15.238  12.155   8.855
 7922POPC   C1A31899  15.214  12.048   8.555
 7922POPC   D2A31900  15.158  12.049   8.255
 7922POPC   C3A31901  15.131  12.033   7.955
 7922POPC   C4A31902  15.201  12.056   7.655
 7922POPC   C1B31903  15.347  12.301   8.555
 7922POPC   C2B31904  15.291  12.302   8.255
 7922POPC   C3B31905  15.300  12.251   7.955
 7922POPC   C4B31906  15.291  12.243   7.655
 7923POPC   NC331907  29.100  23.731   9.455
 7923POPC   PO431908  29.166  23.746   9.155
 7923POPC   GL131909  29.123  23.675   8.855
 7923POPC   GL231910  29.272  23.618   8.855
 7923POPC   C1A31911  29.117  23.747   8.555
 7923POPC   D2A31912  29.111  23.735   8.255
 7923POPC   C3A31913  29.140  23.756   7.955
 7923POPC   C4A31914  29.098  23.758   7.655
 7923POPC   C1B31915  29.336  23.597   8.555
 7923POPC   C2B31916  29.389  23.604   8.255
 7923POPC   C3B31917  29.383  23.599   7.955
 7923POPC   C4B31918  29.333  23.642   7.655
 7924POPC   NC331919   2.757  26.065   9.455
 7924POPC   PO431920   2.723  26.032   9.155
 7924POPC   GL131921   2.789  26.051   8.855
 7924POPC   GL231922   2.824  26.125   8.855
 7924POPC   C1A31923   2.734  26.034   8.555
 7924POPC   D2A31924   2.722  26.085   8.255
 7924POPC   C3A31925   2.735  26.088   7.955
 7924POPC   C4A31926   2.789  26.091   7.655
 7924POPC   C1B31927   2.942  26.244   8.555
 7924POPC   C2B31928   2.909  26.187   8.255
 7924POPC   C3B31929   2.971  26.279   7.955
 7924POPC   C4B31930   2.881  26.264   7.655
 7925POPC   NC331931  43.934  22.945   9.455
 7925POPC   PO431932  43.891  22.978   9.155
 7925POPC   GL131933  43.868  22.905   8.855
 7925POPC   GL231934  43.964  22.985   8.855
 7925POPC   C1A31935  43.839  22.920   8.555
 7925POPC   D2A31936  43.854  22.966   8.255
 7925POPC   C3A31937  43.842  22.986   7.955
 7925POPC   C4A31938  43.860  22.927   7.655
 7925POPC   C1B31939  44.091  23.011   8.555
 7925POPC   C2B31940  44.099  23.033   8.255
 7925POPC   C3B31941  44.097  23.034   7.955
 7925POPC   C4B31942  44.109  22.971   7.655
 7926POPC   NC331943  42.369  44.683   9.455
 7926POPC   PO431944  42.364  44.704   9.155
 7926POPC   GL131945  42.341  44.673   8.855
 7926POPC   GL231946  42.187  44.617   8.855
 7926POPC   C1A31947  42.371  44.692   8.555
 7926POPC   D2A31948  42.383  44.650   8.255
 7926POPC   C3A31949  42.310  44.637   7.955
 7926POPC   C4A31950  42.310  44.623   7.655
 7926POPC   C1B31951  42.141  44.558   8.555
 7926POPC   C2B31952  42.064  44.554   8.255
 7926POPC   C3B31953  42.101  44.601   7.955
 7926POPC   C4B31954  42.126  44.604   7.655
 7927POPC   NC331955  13.606  41.602   9.455
 7927POPC   PO431956  13.654  41.526   9.155
 7927POPC   GL131957  13.638  41.528   8.855
 7927POPC   GL231958  13.749  41.501   8.855
 7927POPC   C1A31959  13.626  41.517   8.555
 7927POPC   D2A31960  13.638  41.531   8.255
 7927POPC   C3A31961  13.597  41.542   7.955
 7927POPC   C4A31962  13.638  41.510   7.655
 7927POPC   C1B31963  13.887  41.559   8.555
 7927POPC   C2B31964  13.909  41.502   8.255
 7927POPC   C3B31965  13.883  41.528   7.955
 7927POPC   C4B31966  13.863  41.563   7.655
 7928POPC   NC331967   8.186  26.784   9.455
 7928POPC   PO431968   8.242  26.863   9.155
 7928POPC   GL131969   8.237  26.851   8.855
 7928POPC   GL231970   8.271  26.736   8.855
 7928POPC   C1A31971   8.222  26.795   8.555
 7928POPC   D2A31972   8.228  26.835   8.255
 7928POPC   C3A31973   8.176  26.852   7.955
 7928POPC   C4A31974   8.211  26.857   7.655
 7928POPC   C1B31975   8.322  26.589   8.555
 7928POPC   C2B31976   8.255  26.628   8.255
 7928POPC   C3B31977   8.328  26.588   7.955
 7928POPC   C4B31978   8.252  26.602   7.655
 7929POPC   NC331979  43.083   5.877   9.455
 7929POPC   PO431980  43.109   5.868   9.155
 7929POPC   GL131981  43.149   5.820   8.855
 7929POPC   GL231982  43.132   5.948   8.855
 7929POPC   C1A31983  43.140   5.876   8.555
 7929POPC   D2A31984  43.142   5.865   8.255
 7929POPC   C3A31985  43.083   5.857   7.955
 7929POPC   C4A31986  43.066   5.872   7.655
 7929POPC   C1B31987  43.205   6.063   8.555
 7929POPC   C2B31988  43.251   6.103   8.255
 7929POPC   C3B31989  43.261   6.127   7.955
 7929POPC   C4B31990  43.276   6.072   7.655
 7930POPC   NC331991  40.832  44.689   9.455
 7930POPC   PO431992  40.733  44.681   9.155
 7930POPC   GL131993  40.779  44.661   8.855
 7930POPC   GL231994  40.855  44.740   8.855
 7930POPC   C1A31995  40.760  44.645   8.555
 7930POPC   D2A31996  40.745  44.627   8.255
 7930POPC   C3A31997  40.750  44.688   7.955
 7930POPC   C4A31998  40.743  44.689   7.655
 7930POPC   C1B31999  41.022  44.794   8.555
 7930POPC   C2B32000  40.991  44.764   8.255
 7930POPC   C3B32001  41.023  44.843   7.955
 7930POPC   C4B32002  41.031  44.817   7.655
 7931POPC   NC332003  26.865  21.433   9.455
 7931POPC   PO432004  26.854  21.402   9.155
 7931POPC   GL132005  26.768  21.401   8.855
 7931POPC   GL232006  26.804  21.228   8.855
 7931POPC   C1A32007  26.780  21.373   8.555
 7931POPC   D2A32008  26.858  21.394   8.255
 7931POPC   C3A32009  26.777  21.395   7.955
 7931POPC   C4A32010  26.866  21.393   7.655
 7931POPC   C1B32011  26.754  21.136   8.555
 7931POPC   C2B32012  26.773  21.190   8.255
 7931POPC   C3B32013  26.756  21.154   7.955
 7931POPC   C4B32014  26.759  21.184   7.655
 7932POPC   NC332015   8.156   1.946   9.455
 7932POPC   PO432016   8.178   1.954   9.155
 7932POPC   GL132017   8.246   1.970   8.855
 7932POPC   GL232018   8.298   1.952   8.855
 7932POPC   C1A32019   8.183   1.945   8.555
 7932POPC   D2A32020   8.233   2.034   8.255
 7932POPC   C3A32021   8.211   1.996   7.955
 7932POPC   C4A32022   8.215   1.998   7.655
 7932POPC   C1B32023   8.492   1.966   8.555
 7932POPC   C2B32024   8.416   1.963   8.255
 7932POPC   C3B32025   8.425   1.961   7.955
 7932POPC   C4B32026   8.402   2.039   7.655
 7933POPC   NC332027  27.551   5.916   9.455
 7933POPC   PO432028  27.576   5.851   9.155
 7933POPC   GL132029  27.622   5.837   8.855
 7933POPC   GL232030  27.673   5.936   8.855
 7933POPC   C1A32031  27.596   5.876   8.555
 7933POPC   D2A32032  27.640   5.832   8.255
 7933POPC   C3A32033  27.623   5.832   7.955
 7933POPC   C4A32034  27.596   5.894   7.655
 7933POPC   C1B32035  27.783   5.985   8.555
 7933POPC   C2B32036  27.839   6.055   8.255
 7933POPC   C3B32037  27.812   6.011   7.955
 7933POPC   C4B32038  27.828   5.993   7.655
 7934POPC   NC332039  32.993  29.106   9.455
 7934POPC   PO432040  32.982  29.164   9.155
 7934POPC   GL132041  33.023  29.116   8.855
 7934POPC   GL232042  33.171  29.203   8.855
 7934POPC   C1A32043  33.062  29.194   8.555
 7934POPC   D2A32044  32.993  29.143   8.255
 7934POPC   C3A32045  32.989  29.137   7.955
 7934POPC   C4A32046  33.011  29.170   7.655
 7934POPC   C1B32047  33.247  29.231   8.555
 7934POPC   C2B32048  33.214  29.231   8.255
 7934POPC   C3B32049  33.219  29.302   7.955
 7934POPC   C4B32050  33.283  29.235   7.655
 7935POPC   NC332051  26.032  22.212   9.455
 7935POPC   PO432052  26.068  22.206   9.155
 7935POPC   GL132053  26.085  22.166   8.855
 7935POPC   GL232054  26.173  22.187   8.855
 7935POPC   C1A32055  26.027  22.161   8.555
 7935POPC   D2A32056  26.065  22.190   8.255
 7935POPC   C3A32057  26.051  22.134   7.955
 7935POPC   C4A32058  26.032  22.140   7.655
 7935POPC   C1B32059  26.278  22.277   8.555
 7935POPC   C2B32060  26.282  22.212   8.255
 7935POPC   C3B32061  26.306  22.254   7.955
 7935POPC   C4B32062  26.257  22.229   7.655
 7936POPC   NC332063  26.029  18.252   9.455
 7936POPC   PO432064  26.061  18.249   9.155
 7936POPC   GL132065  26.040  18.251   8.855
 7936POPC   GL232066  25.970  18.117   8.855
 7936POPC   C1A32067  26.047  18.268   8.555
 7936POPC   D2A32068  26.085  18.332   8.255
 7936POPC   C3A32069  26.079  18.236   7.955
 7936POPC   C4A32070  26.044  18.306   7.655
 7936POPC   C1B32071  25.940  18.022   8.555
 7936POPC   C2B32072  25.945  18.056   8.255
 7936POPC   C3B32073  25.933  18.022   7.955
 7936POPC   C4B32074  25.968  18.052   7.655
 7937POPC   NC332075  12.067  20.610   9.455
 7937POPC   PO432076  12.105  20.573   9.155
 7937POPC   GL132077  12.092  20.637   8.855
 7937POPC   GL232078  11.992  20.612   8.855
 7937POPC   C1A32079  12.036  20.649   8.555
 7937POPC   D2A32080  12.035  20.640   8.255
 7937POPC   C3A32081  12.034  20.624   7.955
 7937POPC   C4A32082  12.067  20.580   7.655
 7937POPC   C1B32083  11.836  20.693   8.555
 7937POPC   C2B32084  11.808  20.698   8.255
 7937POPC   C3B32085  11.855  20.713   7.955
 7937POPC   C4B32086  11.855  20.664   7.655
 7938POPC   NC332087   5.082  41.573   9.455
 7938POPC   PO432088   5.088  41.520   9.155
 7938POPC   GL132089   5.122  41.608   8.855
 7938POPC   GL232090   5.011  41.581   8.855
 7938POPC   C1A32091   5.128  41.549   8.555
 7938POPC   D2A32092   5.062  41.555   8.255
 7938POPC   C3A32093   5.102  41.578   7.955
 7938POPC   C4A32094   5.053  41.543   7.655
 7938POPC   C1B32095   4.827  41.686   8.555
 7938POPC   C2B32096   4.847  41.655   8.255
 7938POPC   C3B32097   4.831  41.642   7.955
 7938POPC   C4B32098   4.820  41.660   7.655
 7939POPC   NC332099  22.969   5.124   9.455
 7939POPC   PO432100  22.943   5.065   9.155
 7939POPC   GL132101  22.974   5.140   8.855
 7939POPC   GL232102  23.073   5.024   8.855
 7939POPC   C1A32103  22.969   5.143   8.555
 7939POPC   D2A32104  22.916   5.120   8.255
 7939POPC   C3A32105  22.986   5.106   7.955
 7939POPC   C4A32106  22.979   5.138   7.655
 7939POPC   C1B32107  23.129   4.993   8.555
 7939POPC   C2B32108  23.125   4.983   8.255
 7939POPC   C3B32109  23.114   4.993   7.955
 7939POPC   C4B32110  23.124   4.958   7.655
 7940POPC   NC332111  36.094   0.409   9.455
 7940POPC   PO432112  36.105   0.416   9.155
 7940POPC   GL132113  36.166   0.462   8.855
 7940POPC   GL232114  36.053   0.319   8.855
 7940POPC   C1A32115  36.154   0.424   8.555
 7940POPC   D2A32116  36.118   0.431   8.255
 7940POPC   C3A32117  36.159   0.400   7.955
 7940POPC   C4A32118  36.110   0.438   7.655
 7940POPC   C1B32119  36.075   0.237   8.555
 7940POPC   C2B32120  36.099   0.164   8.255
 7940POPC   C3B32121  36.014   0.195   7.955
 7940POPC   C4B32122  36.075   0.209   7.655
 7941POPC   NC332123  17.556  39.983   9.455
 7941POPC   PO432124  17.469  39.988   9.155
 7941POPC   GL132125  17.467  40.011   8.855
 7941POPC   GL232126  17.592  40.101   8.855
 7941POPC   C1A32127  17.530  39.974   8.555
 7941POPC   D2A32128  17.520  40.010   8.255
 7941POPC   C3A32129  17.544  39.980   7.955
 7941POPC   C4A32130  17.476  39.973   7.655
 7941POPC   C1B32131  17.589  40.221   8.555
 7941POPC   C2B32132  17.620  40.209   8.255
 7941POPC   C3B32133  17.605  40.194   7.955
 7941POPC   C4B32134  17.582  40.263   7.655
 7942POPC   NC332135  32.229  15.154   9.455
 7942POPC   PO432136  32.200  15.164   9.155
 7942POPC   GL132137  32.248  15.141   8.855
 7942POPC   GL232138  32.421  15.196   8.855
 7942POPC   C1A32139  32.232  15.159   8.555
 7942POPC   D2A32140  32.211  15.185   8.255
 7942POPC   C3A32141  32.203  15.155   7.955
 7942POPC   C4A32142  32.200  15.136   7.655
 7942POPC   C1B32143  32.491  15.274   8.555
 7942POPC   C2B32144  32.445  15.215   8.255
 7942POPC   C3B32145  32.456  15.236   7.955
 7942POPC   C4B32146  32.451  15.265   7.655
 7943POPC   NC332147  36.112  12.042   9.455
 7943POPC   PO432148  36.086  12.102   9.155
 7943POPC   GL132149  36.144  12.032   8.855
 7943POPC   GL232150  36.106  12.000   8.855
 7943POPC   C1A32151  36.107  12.101   8.555
 7943POPC   D2A32152  36.168  12.093   8.255
 7943POPC   C3A32153  36.101  12.049   7.955
 7943POPC   C4A32154  36.172  12.091   7.655
 7943POPC   C1B32155  36.119  11.857   8.555
 7943POPC   C2B32156  36.070  11.852   8.255
 7943POPC   C3B32157  36.126  11.789   7.955
 7943POPC   C4B32158  36.073  11.816   7.655
 7944POPC   NC332159  25.275  39.221   9.455
 7944POPC   PO432160  25.255  39.203   9.155
 7944POPC   GL132161  25.257  39.194   8.855
 7944POPC   GL232162  25.148  39.159   8.855
 7944POPC   C1A32163  25.289  39.194   8.555
 7944POPC   D2A32164  25.243  39.255   8.255
 7944POPC   C3A32165  25.302  39.223   7.955
 7944POPC   C4A32166  25.256  39.267   7.655
 7944POPC   C1B32167  25.053  39.087   8.555
 7944POPC   C2B32168  25.080  39.160   8.255
 7944POPC   C3B32169  25.068  39.102   7.955
 7944POPC   C4B32170  24.996  39.137   7.655
 7945POPC   NC332171   8.203  30.689   9.455
 7945POPC   PO432172   8.216  30.725   9.155
 7945POPC   GL132173   8.152  30.654   8.855
 7945POPC   GL232174   8.291  30.675   8.855
 7945POPC   C1A32175   8.235  30.666   8.555
 7945POPC   D2A32176   8.236  30.701   8.255
 7945POPC   C3A32177   8.171  30.718   7.955
 7945POPC   C4A32178   8.149  30.704   7.655
 7945POPC   C1B32179   8.419  30.761   8.555
 7945POPC   C2B32180   8.391  30.740   8.255
 7945POPC   C3B32181   8.438  30.747   7.955
 7945POPC   C4B32182   8.415  30.770   7.655
 7946POPC   NC332183  37.722  22.942   9.455
 7946POPC   PO432184  37.712  22.967   9.155
 7946POPC   GL132185  37.662  22.920   8.855
 7946POPC   GL232186  37.570  22.922   8.855
 7946POPC   C1A32187  37.674  22.890   8.555
 7946POPC   D2A32188  37.631  22.963   8.255
 7946POPC   C3A32189  37.695  22.895   7.955
 7946POPC   C4A32190  37.656  22.938   7.655
 7946POPC   C1B32191  37.383  22.947   8.555
 7946POPC   C2B32192  37.472  22.941   8.255
 7946POPC   C3B32193  37.447  22.927   7.955
 7946POPC   C4B32194  37.464  22.917   7.655
 7947POPC   NC332195   5.883  43.897   9.455
 7947POPC   PO432196   5.829  43.848   9.155
 7947POPC   GL132197   5.906  43.932   8.855
 7947POPC   GL232198   5.823  43.732   8.855
 7947POPC   C1A32199   5.854  43.888   8.555
 7947POPC   D2A32200   5.845  43.862   8.255
 7947POPC   C3A32201   5.918  43.870   7.955
 7947POPC   C4A32202   5.846  43.865   7.655
 7947POPC   C1B32203   5.743  43.687   8.555
 7947POPC   C2B32204   5.783  43.637   8.255
 7947POPC   C3B32205   5.785  43.690   7.955
 7947POPC   C4B32206   5.742  43.682   7.655
 7948POPC   NC332207  24.505   8.201   9.455
 7948POPC   PO432208  24.460   8.188   9.155
 7948POPC   GL132209  24.508   8.174   8.855
 7948POPC   GL232210  24.605   8.136   8.855
 7948POPC   C1A32211  24.521   8.200   8.555
 7948POPC   D2A32212  24.443   8.227   8.255
 7948POPC   C3A32213  24.516   8.166   7.955
 7948POPC   C4A32214  24.483   8.226   7.655
 7948POPC   C1B32215  24.695   8.014   8.555
 7948POPC   C2B32216  24.659   8.052   8.255
 7948POPC   C3B32217  24.664   8.037   7.955
 7948POPC   C4B32218  24.653   8.051   7.655
 7949POPC   NC332219  13.648  26.778   9.455
 7949POPC   PO432220  13.605  26.822   9.155
 7949POPC   GL132221  13.610  26.846   8.855
 7949POPC   GL232222  13.483  26.708   8.855
 7949POPC   C1A32223  13.614  26.841   8.555
 7949POPC   D2A32224  13.578  26.867   8.255
 7949POPC   C3A32225  13.579  26.824   7.955
 7949POPC   C4A32226  13.638  26.799   7.655
 7949POPC   C1B32227  13.429  26.696   8.555
 7949POPC   C2B32228  13.474  26.653   8.255
 7949POPC   C3B32229  13.413  26.640   7.955
 7949POPC   C4B32230  13.424  26.685   7.655
 7950POPC   NC332231  17.518  44.704   9.455
 7950POPC   PO432232  17.547  44.636   9.155
 7950POPC   GL132233  17.497  44.701   8.855
 7950POPC   GL232234  17.385  44.686   8.855
 7950POPC   C1A32235  17.527  44.625   8.555
 7950POPC   D2A32236  17.542  44.624   8.255
 7950POPC   C3A32237  17.480  44.687   7.955
 7950POPC   C4A32238  17.458  44.612   7.655
 7950POPC   C1B32239  17.262  44.787   8.555
 7950POPC   C2B32240  17.266  44.751   8.255
 7950POPC   C3B32241  17.334  44.751   7.955
 7950POPC   C4B32242  17.337  44.737   7.655
 7951POPC   NC332243  18.319   5.054   9.455
 7951POPC   PO432244  18.250   5.080   9.155
 7951POPC   GL132245  18.325   5.047   8.855
 7951POPC   GL232246  18.176   5.172   8.855
 7951POPC   C1A32247  18.313   5.080   8.555
 7951POPC   D2A32248  18.307   5.061   8.255
 7951POPC   C3A32249  18.265   5.100   7.955
 7951POPC   C4A32250  18.317   5.051   7.655
 7951POPC   C1B32251  18.123   5.268   8.555
 7951POPC   C2B32252  18.145   5.228   8.255
 7951POPC   C3B32253  18.153   5.265   7.955
 7951POPC   C4B32254  18.084   5.242   7.655
 7952POPC   NC332255  22.154  25.235   9.455
 7952POPC   PO432256  22.151  25.220   9.155
 7952POPC   GL132257  22.151  25.222   8.855
 7952POPC   GL232258  22.070  25.269   8.855
 7952POPC   C1A32259  22.171  25.252   8.555
 7952POPC   D2A32260  22.211  25.279   8.255
 7952POPC   C3A32261  22.206  25.251   7.955
 7952POPC   C4A32262  22.127  25.249   7.655
 7952POPC   C1B32263  21.929  25.253   8.555
 7952POPC   C2B32264  21.877  25.229   8.255
 7952POPC   C3B32265  21.926  25.284   7.955
 7952POPC   C4B32266  21.914  25.313   7.655
 7953POPC   NC332267   7.469  39.964   9.455
 7953POPC   PO432268   7.434  39.980   9.155
 7953POPC   GL132269   7.418  40.019   8.855
 7953POPC   GL232270   7.396  39.862   8.855
 7953POPC   C1A32271   7.407  40.042   8.555
 7953POPC   D2A32272   7.432  39.986   8.255
 7953POPC   C3A32273   7.423  40.004   7.955
 7953POPC   C4A32274   7.389  39.986   7.655
 7953POPC   C1B32275   7.422  39.770   8.555
 7953POPC   C2B32276   7.470  39.743   8.255
 7953POPC   C3B32277   7.436  39.772   7.955
 7953POPC   C4B32278   7.504  39.796   7.655
 7954POPC   NC332279  37.649  28.383   9.455
 7954POPC   PO432280  37.713  28.382   9.155
 7954POPC   GL132281  37.695  28.389   8.855
 7954POPC   GL232282  37.791  28.266   8.855
 7954POPC   C1A32283  37.669  28.371   8.555
 7954POPC   D2A32284  37.670  28.398   8.255
 7954POPC   C3A32285  37.671  28.386   7.955
 7954POPC   C4A32286  37.678  28.376   7.655
 7954POPC   C1B32287  37.877  28.239   8.555
 7954POPC   C2B32288  37.900  28.206   8.255
 7954POPC   C3B32289  37.897  28.208   7.955
 7954POPC   C4B32290  37.923  28.199   7.655
 7955POPC   NC332291  43.092  44.618   9.455
 7955POPC   PO432292  43.136  44.630   9.155
 7955POPC   GL132293  43.066  44.652   8.855
 7955POPC   GL232294  43.219  44.720   8.855
 7955POPC   C1A32295  43.098  44.621   8.555
 7955POPC   D2A32296  43.115  44.619   8.255
 7955POPC   C3A32297  43.147  44.647   7.955
 7955POPC   C4A32298  43.094  44.657   7.655
 7955POPC   C1B32299  43.376  44.793   8.555
 7955POPC   C2B32300  43.350  44.723   8.255
 7955POPC   C3B32301  43.368  44.778   7.955
 7955POPC   C4B32302  43.351  44.768   7.655
 7956POPC   NC332303  17.507   0.476   9.455
 7956POPC   PO432304  17.514   0.404   9.155
 7956POPC   GL132305  17.532   0.445   8.855
 7956POPC   GL232306  17.470   0.285   8.855
 7956POPC   C1A32307  17.506   0.423   8.555
 7956POPC   D2A32308  17.548   0.477   8.255
 7956POPC   C3A32309  17.543   0.429   7.955
 7956POPC   C4A32310  17.462   0.471   7.655
 7956POPC   C1B32311  17.443   0.235   8.555
 7956POPC   C2B32312  17.502   0.225   8.255
 7956POPC   C3B32313  17.421   0.235   7.955
 7956POPC   C4B32314  17.434   0.171   7.655
 7957POPC   NC332315   9.016   7.377   9.455
 7957POPC   PO432316   8.986   7.407   9.155
 7957POPC   GL132317   9.005   7.424   8.855
 7957POPC   GL232318   8.958   7.584   8.855
 7957POPC   C1A32319   9.010   7.453   8.555
 7957POPC   D2A32320   8.998   7.424   8.255
 7957POPC   C3A32321   8.929   7.380   7.955
 7957POPC   C4A32322   8.976   7.393   7.655
 7957POPC   C1B32323   8.916   7.640   8.555
 7957POPC   C2B32324   8.944   7.693   8.255
 7957POPC   C3B32325   8.929   7.623   7.955
 7957POPC   C4B32326   8.908   7.622   7.655
 7958POPC   NC332327  37.653  41.589   9.455
 7958POPC   PO432328  37.674  41.515   9.155
 7958POPC   GL132329  37.708  41.521   8.855
 7958POPC   GL232330  37.714  41.695   8.855
 7958POPC   C1A32331  37.641  41.525   8.555
 7958POPC   D2A32332  37.640  41.579   8.255
 7958POPC   C3A32333  37.714  41.541   7.955
 7958POPC   C4A32334  37.727  41.512   7.655
 7958POPC   C1B32335  37.635  41.767   8.555
 7958POPC   C2B32336  37.618  41.819   8.255
 7958POPC   C3B32337  37.685  41.770   7.955
 7958POPC   C4B32338  37.683  41.855   7.655
 7959POPC   NC332339  15.973  15.140   9.455
 7959POPC   PO432340  15.908  15.228   9.155
 7959POPC   GL132341  15.951  15.223   8.855
 7959POPC   GL232342  16.064  15.276   8.855
 7959POPC   C1A32343  15.953  15.180   8.555
 7959POPC   D2A32344  15.920  15.196   8.255
 7959POPC   C3A32345  15.996  15.218   7.955
 7959POPC   C4A32346  16.004  15.146   7.655
 7959POPC   C1B32347  16.229  15.248   8.555
 7959POPC   C2B32348  16.217  15.319   8.255
 7959POPC   C3B32349  16.169  15.259   7.955
 7959POPC   C4B32350  16.170  15.313   7.655
 7960POPC   NC332351  29.890  43.848   9.455
 7960POPC   PO432352  29.873  43.916   9.155
 7960POPC   GL132353  29.938  43.849   8.855
 7960POPC   GL232354  29.884  43.998   8.855
 7960POPC   C1A32355  29.956  43.839   8.555
 7960POPC   D2A32356  29.935  43.873   8.255
 7960POPC   C3A32357  29.939  43.920   7.955
 7960POPC   C4A32358  29.930  43.890   7.655
 7960POPC   C1B32359  29.765  44.075   8.555
 7960POPC   C2B32360  29.780  44.153   8.255
 7960POPC   C3B32361  29.775  44.122   7.955
 7960POPC   C4B32362  29.783  44.064   7.655
 7961POPC   NC332363  18.242  26.021   9.455
 7961POPC   PO432364  18.249  26.075   9.155
 7961POPC   GL132365  18.249  26.046   8.855
 7961POPC   GL232366  18.403  26.006   8.855
 7961POPC   C1A32367  18.254  26.035   8.555
 7961POPC   D2A32368  18.292  26.064   8.255
 7961POPC   C3A32369  18.308  26.029   7.955
 7961POPC   C4A32370  18.319  26.010   7.655
 7961POPC   C1B32371  18.464  25.827   8.555
 7961POPC   C2B32372  18.437  25.856   8.255
 7961POPC   C3B32373  18.506  25.862   7.955
 7961POPC   C4B32374  18.433  25.840   7.655
 7962POPC   NC332375   5.112  21.429   9.455
 7962POPC   PO432376   5.071  21.396   9.155
 7962POPC   GL132377   5.089  21.393   8.855
 7962POPC   GL232378   5.050  21.312   8.855
 7962POPC   C1A32379   5.136  21.433   8.555
 7962POPC   D2A32380   5.138  21.405   8.255
 7962POPC   C3A32381   5.121  21.374   7.955
 7962POPC   C4A32382   5.074  21.414   7.655
 7962POPC   C1B32383   5.025  21.097   8.555
 7962POPC   C2B32384   5.024  21.149   8.255
 7962POPC   C3B32385   5.078  21.152   7.955
 7962POPC   C4B32386   5.032  21.146   7.655
 7963POPC   NC332387  34.584  23.674   9.455
 7963POPC   PO432388  34.609  23.684   9.155
 7963POPC   GL132389  34.543  23.719   8.855
 7963POPC   GL232390  34.662  23.763   8.855
 7963POPC   C1A32391  34.615  23.697   8.555
 7963POPC   D2A32392  34.615  23.719   8.255
 7963POPC   C3A32393  34.543  23.755   7.955
 7963POPC   C4A32394  34.556  23.718   7.655
 7963POPC   C1B32395  34.824  23.854   8.555
 7963POPC   C2B32396  34.763  23.809   8.255
 7963POPC   C3B32397  34.777  23.898   7.955
 7963POPC   C4B32398  34.831  23.854   7.655
 7964POPC   NC332399  28.350  35.398   9.455
 7964POPC   PO432400  28.331  35.357   9.155
 7964POPC   GL132401  28.322  35.309   8.855
 7964POPC   GL232402  28.220  35.273   8.855
 7964POPC   C1A32403  28.403  35.322   8.555
 7964POPC   D2A32404  28.335  35.379   8.255
 7964POPC   C3A32405  28.375  35.343   7.955
 7964POPC   C4A32406  28.349  35.304   7.655
 7964POPC   C1B32407  28.187  35.202   8.555
 7964POPC   C2B32408  28.156  35.231   8.255
 7964POPC   C3B32409  28.164  35.199   7.955
 7964POPC   C4B32410  28.177  35.219   7.655
 7965POPC   NC332411  33.759  36.079   9.455
 7965POPC   PO432412  33.784  36.087   9.155
 7965POPC   GL132413  33.833  36.127   8.855
 7965POPC   GL232414  33.844  35.970   8.855
 7965POPC   C1A32415  33.796  36.081   8.555
 7965POPC   D2A32416  33.797  36.124   8.255
 7965POPC   C3A32417  33.820  36.177   7.955
 7965POPC   C4A32418  33.750  36.155   7.655
 7965POPC   C1B32419  33.860  35.858   8.555
 7965POPC   C2B32420  33.863  35.921   8.255
 7965POPC   C3B32421  33.909  35.883   7.955
 7965POPC   C4B32422  33.853  35.921   7.655
 7966POPC   NC332423  24.504  44.639   9.455
 7966POPC   PO432424  24.446  44.665   9.155
 7966POPC   GL132425  24.521  44.696   8.855
 7966POPC   GL232426  24.453  44.511   8.855
 7966POPC   C1A32427  24.446  44.635   8.555
 7966POPC   D2A32428  24.445  44.636   8.255
 7966POPC   C3A32429  24.486  44.710   7.955
 7966POPC   C4A32430  24.454  44.680   7.655
 7966POPC   C1B32431  24.398  44.408   8.555
 7966POPC   C2B32432  24.445  44.465   8.255
 7966POPC   C3B32433  24.377  44.393   7.955
 7966POPC   C4B32434  24.410  44.469   7.655
 7967POPC   NC332435   8.966  15.931   9.455
 7967POPC   PO432436   8.934  15.906   9.155
 7967POPC   GL132437   8.952  15.948   8.855
 7967POPC   GL232438   9.122  15.908   8.855
 7967POPC   C1A32439   8.994  15.964   8.555
 7967POPC   D2A32440   9.000  15.939   8.255
 7967POPC   C3A32441   8.946  15.979   7.955
 7967POPC   C4A32442   9.017  15.935   7.655
 7967POPC   C1B32443   9.237  15.853   8.555
 7967POPC   C2B32444   9.163  15.820   8.255
 7967POPC   C3B32445   9.190  15.820   7.955
 7967POPC   C4B32446   9.216  15.863   7.655
 7968POPC   NC332447  11.289  23.725   9.455
 7968POPC   PO432448  11.258  23.722   9.155
 7968POPC   GL132449  11.294  23.698   8.855
 7968POPC   GL232450  11.185  23.757   8.855
 7968POPC   C1A32451  11.299  23.681   8.555
 7968POPC   D2A32452  11.284  23.724   8.255
 7968POPC   C3A32453  11.297  23.730   7.955
 7968POPC   C4A32454  11.322  23.735   7.655
 7968POPC   C1B32455  11.028  23.686   8.555
 7968POPC   C2B32456  11.047  23.749   8.255
 7968POPC   C3B32457  11.098  23.739   7.955
 7968POPC   C4B32458  11.030  23.699   7.655
 7969POPC   NC332459  39.243  14.362   9.455
 7969POPC   PO432460  39.191  14.366   9.155
 7969POPC   GL132461  39.211  14.407   8.855
 7969POPC   GL232462  39.191  14.244   8.855
 7969POPC   C1A32463  39.250  14.445   8.555
 7969POPC   D2A32464  39.218  14.427   8.255
 7969POPC   C3A32465  39.241  14.451   7.955
 7969POPC   C4A32466  39.210  14.380   7.655
 7969POPC   C1B32467  39.213  14.198   8.555
 7969POPC   C2B32468  39.158  14.187   8.255
 7969POPC   C3B32469  39.176  14.156   7.955
 7969POPC   C4B32470  39.237  14.129   7.655
 7970POPC   NC332471   1.225   1.981   9.455
 7970POPC   PO432472   1.201   2.006   9.155
 7970POPC   GL132473   1.166   1.979   8.855
 7970POPC   GL232474   1.109   2.043   8.855
 7970POPC   C1A32475   1.201   1.953   8.555
 7970POPC   D2A32476   1.177   1.973   8.255
 7970POPC   C3A32477   1.178   1.941   7.955
 7970POPC   C4A32478   1.260   1.978   7.655
 7970POPC   C1B32479   1.049   2.193   8.555
 7970POPC   C2B32480   1.028   2.186   8.255
 7970POPC   C3B32481   1.090   2.203   7.955
 7970POPC   C4B32482   1.057   2.164   7.655
 7971POPC   NC332483   5.903  13.578   9.455
 7971POPC   PO432484   5.904  13.653   9.155
 7971POPC   GL132485   5.875  13.627   8.855
 7971POPC   GL232486   5.714  13.696   8.855
 7971POPC   C1A32487   5.885  13.613   8.555
 7971POPC   D2A32488   5.840  13.582   8.255
 7971POPC   C3A32489   5.899  13.590   7.955
 7971POPC   C4A32490   5.876  13.589   7.655
 7971POPC   C1B32491   5.677  13.753   8.555
 7971POPC   C2B32492   5.605  13.706   8.255
 7971POPC   C3B32493   5.665  13.725   7.955
 7971POPC   C4B32494   5.602  13.676   7.655
 7972POPC   NC332495  27.614  33.792   9.455
 7972POPC   PO432496  27.617  33.830   9.155
 7972POPC   GL132497  27.545  33.821   8.855
 7972POPC   GL232498  27.760  33.762   8.855
 7972POPC   C1A32499  27.565  33.760   8.555
 7972POPC   D2A32500  27.565  33.825   8.255
 7972POPC   C3A32501  27.560  33.841   7.955
 7972POPC   C4A32502  27.639  33.763   7.655
 7972POPC   C1B32503  27.796  33.686   8.555
 7972POPC   C2B32504  27.862  33.712   8.255
 7972POPC   C3B32505  27.865  33.761   7.955
 7972POPC   C4B32506  27.785  33.674   7.655
 7973POPC   NC332507   9.784  22.175   9.455
 7973POPC   PO432508   9.776  22.161   9.155
 7973POPC   GL132509   9.745  22.172   8.855
 7973POPC   GL232510   9.856  22.249   8.855
 7973POPC   C1A32511   9.761  22.196   8.555
 7973POPC   D2A32512   9.704  22.159   8.255
 7973POPC   C3A32513   9.717  22.146   7.955
 7973POPC   C4A32514   9.753  22.150   7.655
 7973POPC   C1B32515   9.877  22.410   8.555
 7973POPC   C2B32516   9.861  22.402   8.255
 7973POPC   C3B32517   9.869  22.430   7.955
 7973POPC   C4B32518   9.823  22.344   7.655
 7974POPC   NC332519  40.818  21.359   9.455
 7974POPC   PO432520  40.779  21.395   9.155
 7974POPC   GL132521  40.762  21.362   8.855
 7974POPC   GL232522  40.705  21.303   8.855
 7974POPC   C1A32523  40.797  21.424   8.555
 7974POPC   D2A32524  40.746  21.407   8.255
 7974POPC   C3A32525  40.752  21.387   7.955
 7974POPC   C4A32526  40.759  21.357   7.655
 7974POPC   C1B32527  40.611  21.260   8.555
 7974POPC   C2B32528  40.560  21.232   8.255
 7974POPC   C3B32529  40.587  21.268   7.955
 7974POPC   C4B32530  40.602  21.288   7.655
 7975POPC   NC332531  40.785  14.363   9.455
 7975POPC   PO432532  40.822  14.441   9.155
 7975POPC   GL132533  40.827  14.365   8.855
 7975POPC   GL232534  40.899  14.332   8.855
 7975POPC   C1A32535  40.792  14.385   8.555
 7975POPC   D2A32536  40.739  14.452   8.255
 7975POPC   C3A32537  40.781  14.420   7.955
 7975POPC   C4A32538  40.817  14.430   7.655
 7975POPC   C1B32539  41.012  14.246   8.555
 7975POPC   C2B32540  40.997  14.256   8.255
 7975POPC   C3B32541  40.977  14.274   7.955
 7975POPC   C4B32542  41.014  14.290   7.655
 7976POPC   NC332543  10.511  40.795   9.455
 7976POPC   PO432544  10.489  40.735   9.155
 7976POPC   GL132545  10.521  40.773   8.855
 7976POPC   GL232546  10.586  40.867   8.855
 7976POPC   C1A32547  10.513  40.829   8.555
 7976POPC   D2A32548  10.485  40.742   8.255
 7976POPC   C3A32549  10.541  40.768   7.955
 7976POPC   C4A32550  10.535  40.733   7.655
 7976POPC   C1B32551  10.665  41.042   8.555
 7976POPC   C2B32552  10.584  41.020   8.255
 7976POPC   C3B32553  10.649  41.027   7.955
 7976POPC   C4B32554  10.660  41.015   7.655
 7977POPC   NC332555  10.564  22.892   9.455
 7977POPC   PO432556  10.527  22.948   9.155
 7977POPC   GL132557  10.573  22.924   8.855
 7977POPC   GL232558  10.555  23.103   8.855
 7977POPC   C1A32559  10.493  22.930   8.555
 7977POPC   D2A32560  10.554  22.895   8.255
 7977POPC   C3A32561  10.513  22.978   7.955
 7977POPC   C4A32562  10.520  22.985   7.655
 7977POPC   C1B32563  10.530  23.155   8.555
 7977POPC   C2B32564  10.539  23.188   8.255
 7977POPC   C3B32565  10.540  23.224   7.955
 7977POPC   C4B32566  10.501  23.195   7.655
 7978POPC   NC332567  36.888  37.630   9.455
 7978POPC   PO432568  36.953  37.660   9.155
 7978POPC   GL132569  36.936  37.681   8.855
 7978POPC   GL232570  36.833  37.648   8.855
 7978POPC   C1A32571  36.924  37.698   8.555
 7978POPC   D2A32572  36.919  37.645   8.255
 7978POPC   C3A32573  36.869  37.684   7.955
 7978POPC   C4A32574  36.906  37.693   7.655
 7978POPC   C1B32575  36.693  37.544   8.555
 7978POPC   C2B32576  36.691  37.559   8.255
 7978POPC   C3B32577  36.679  37.546   7.955
 7978POPC   C4B32578  36.642  37.549   7.655
 7979POPC   NC332579  18.269  24.515   9.455
 7979POPC   PO432580  18.285  24.453   9.155
 7979POPC   GL132581  18.255  24.493   8.855
 7979POPC   GL232582  18.450  24.538   8.855
 7979POPC   C1A32583  18.293  24.501   8.555
 7979POPC   D2A32584  18.319  24.535   8.255
 7979POPC   C3A32585  18.294  24.534   7.955
 7979POPC   C4A32586  18.329  24.455   7.655
 7979POPC   C1B32587  18.518  24.499   8.555
 7979POPC   C2B32588  18.561  24.561   8.255
 7979POPC   C3B32589  18.508  24.542   7.955
 7979POPC   C4B32590  18.496  24.503   7.655
 7980POPC   NC332591  19.801  19.040   9.455
 7980POPC   PO432592  19.819  19.053   9.155
 7980POPC   GL132593  19.821  19.054   8.855
 7980POPC   GL232594  19.860  18.973   8.855
 7980POPC   C1A32595  19.825  19.062   8.555
 7980POPC   D2A32596  19.822  19.085   8.255
 7980POPC   C3A32597  19.813  19.101   7.955
 7980POPC   C4A32598  19.866  19.079   7.655
 7980POPC   C1B32599  19.901  18.799   8.555
 7980POPC   C2B32600  19.900  18.855   8.255
 7980POPC   C3B32601  19.900  18.818   7.955
 7980POPC   C4B32602  19.964  18.842   7.655
 7981POPC   NC332603  38.446  19.082   9.455
 7981POPC   PO432604  38.450  19.062   9.155
 7981POPC   GL132605  38.476  19.108   8.855
 7981POPC   GL232606  38.451  18.980   8.855
 7981POPC   C1A32607  38.428  19.014   8.555
 7981POPC   D2A32608  38.415  19.035   8.255
 7981POPC   C3A32609  38.416  19.088   7.955
 7981POPC   C4A32610  38.491  19.052   7.655
 7981POPC   C1B32611  38.580  18.805   8.555
 7981POPC   C2B32612  38.590  18.871   8.255
 7981POPC   C3B32613  38.582  18.787   7.955
 7981POPC   C4B32614  38.527  18.864   7.655
 7982POPC   NC332615  36.159  37.653   9.455
 7982POPC   PO432616  36.125  37.681   9.155
 7982POPC   GL132617  36.118  37.674   8.855
 7982POPC   GL232618  36.218  37.629   8.855
 7982POPC   C1A32619  36.100  37.686   8.555
 7982POPC   D2A32620  36.079  37.653   8.255
 7982POPC   C3A32621  36.111  37.727   7.955
 7982POPC   C4A32622  36.145  37.683   7.655
 7982POPC   C1B32623  36.401  37.603   8.555
 7982POPC   C2B32624  36.403  37.585   8.255
 7982POPC   C3B32625  36.386  37.612   7.955
 7982POPC   C4B32626  36.333  37.603   7.655
 7983POPC   NC332627   2.761  11.327   9.455
 7983POPC   PO432628   2.810  11.282   9.155
 7983POPC   GL132629   2.779  11.307   8.855
 7983POPC   GL232630   2.866  11.395   8.855
 7983POPC   C1A32631   2.718  11.315   8.555
 7983POPC   D2A32632   2.795  11.301   8.255
 7983POPC   C3A32633   2.795  11.333   7.955
 7983POPC   C4A32634   2.764  11.337   7.655
 7983POPC   C1B32635   2.912  11.469   8.555
 7983POPC   C2B32636   2.879  11.507   8.255
 7983POPC   C3B32637   2.910  11.493   7.955
 7983POPC   C4B32638   2.893  11.493   7.655
 7984POPC   NC332639  43.154  16.718   9.455
 7984POPC   PO432640  43.153  16.697   9.155
 7984POPC   GL132641  43.150  16.778   8.855
 7984POPC   GL232642  43.020  16.744   8.855
 7984POPC   C1A32643  43.073  16.732   8.555
 7984POPC   D2A32644  43.111  16.741   8.255
 7984POPC   C3A32645  43.102  16.776   7.955
 7984POPC   C4A32646  43.067  16.772   7.655
 7984POPC   C1B32647  42.897  16.770   8.555
 7984POPC   C2B32648  42.903  16.770   8.255
 7984POPC   C3B32649  42.889  16.711   7.955
 7984POPC   C4B32650  42.897  16.744   7.655
 7985POPC   NC332651  32.219  13.658   9.455
 7985POPC   PO432652  32.220  13.662   9.155
 7985POPC   GL132653  32.283  13.586   8.855
 7985POPC   GL232654  32.210  13.527   8.855
 7985POPC   C1A32655  32.212  13.584   8.555
 7985POPC   D2A32656  32.234  13.600   8.255
 7985POPC   C3A32657  32.247  13.621   7.955
 7985POPC   C4A32658  32.250  13.611   7.655
 7985POPC   C1B32659  32.132  13.449   8.555
 7985POPC   C2B32660  32.161  13.454   8.255
 7985POPC   C3B32661  32.161  13.401   7.955
 7985POPC   C4B32662  32.101  13.404   7.655
 7986POPC   NC332663  10.547  10.511   9.455
 7986POPC   PO432664  10.550  10.551   9.155
 7986POPC   GL132665  10.573  10.568   8.855
 7986POPC   GL232666  10.541  10.449   8.855
 7986POPC   C1A32667  10.552  10.488   8.555
 7986POPC   D2A32668  10.487  10.514   8.255
 7986POPC   C3A32669  10.512  10.523   7.955
 7986POPC   C4A32670  10.535  10.496   7.655
 7986POPC   C1B32671  10.553  10.281   8.555
 7986POPC   C2B32672  10.571  10.243   8.255
 7986POPC   C3B32673  10.538  10.311   7.955
 7986POPC   C4B32674  10.533  10.292   7.655
 7987POPC   NC332675   8.977  29.953   9.455
 7987POPC   PO432676   8.931  29.930   9.155
 7987POPC   GL132677   8.950  29.959   8.855
 7987POPC   GL232678   9.096  29.984   8.855
 7987POPC   C1A32679   8.986  29.938   8.555
 7987POPC   D2A32680   8.978  29.902   8.255
 7987POPC   C3A32681   8.993  29.956   7.955
 7987POPC   C4A32682   8.984  29.919   7.655
 7987POPC   C1B32683   9.201  29.945   8.555
 7987POPC   C2B32684   9.232  29.959   8.255
 7987POPC   C3B32685   9.230  29.940   7.955
 7987POPC   C4B32686   9.207  30.008   7.655
 7988POPC   NC332687  34.594  31.461   9.455
 7988POPC   PO432688  34.566  31.520   9.155
 7988POPC   GL132689  34.544  31.469   8.855
 7988POPC   GL232690  34.452  31.506   8.855
 7988POPC   C1A32691  34.536  31.482   8.555
 7988POPC   D2A32692  34.530  31.519   8.255
 7988POPC   C3A32693  34.624  31.509   7.955
 7988POPC   C4A32694  34.619  31.440   7.655
 7988POPC   C1B32695  34.433  31.651   8.555
 7988POPC   C2B32696  34.358  31.630   8.255
 7988POPC   C3B32697  34.362  31.653   7.955
 7988POPC   C4B32698  34.430  31.615   7.655
 7989POPC   NC332699  29.914  11.292   9.455
 7989POPC   PO432700  29.962  11.279   9.155
 7989POPC   GL132701  29.872  11.268   8.855
 7989POPC   GL232702  29.815  11.244   8.855
 7989POPC   C1A32703  29.882  11.312   8.555
 7989POPC   D2A32704  29.946  11.312   8.255
 7989POPC   C3A32705  29.926  11.268   7.955
 7989POPC   C4A32706  29.879  11.302   7.655
 7989POPC   C1B32707  29.751  11.150   8.555
 7989POPC   C2B32708  29.762  11.093   8.255
 7989POPC   C3B32709  29.784  11.091   7.955
 7989POPC   C4B32710  29.764  11.167   7.655
 7990POPC   NC332711  34.626  15.134   9.455
 7990POPC   PO432712  34.607  15.204   9.155
 7990POPC   GL132713  34.530  15.216   8.855
 7990POPC   GL232714  34.489  15.295   8.855
 7990POPC   C1A32715  34.527  15.191   8.555
 7990POPC   D2A32716  34.584  15.173   8.255
 7990POPC   C3A32717  34.561  15.201   7.955
 7990POPC   C4A32718  34.548  15.182   7.655
 7990POPC   C1B32719  34.412  15.359   8.555
 7990POPC   C2B32720  34.411  15.328   8.255
 7990POPC   C3B32721  34.366  15.287   7.955
 7990POPC   C4B32722  34.412  15.358   7.655
 7991POPC   NC332723   8.991  43.907   9.455
 7991POPC   PO432724   8.952  43.903   9.155
 7991POPC   GL132725   8.933  43.900   8.855
 7991POPC   GL232726   8.879  43.854   8.855
 7991POPC   C1A32727   8.985  43.862   8.555
 7991POPC   D2A32728   8.974  43.876   8.255
 7991POPC   C3A32729   8.946  43.911   7.955
 7991POPC   C4A32730   8.994  43.897   7.655
 7991POPC   C1B32731   8.730  43.822   8.555
 7991POPC   C2B32732   8.760  43.772   8.255
 7991POPC   C3B32733   8.740  43.814   7.955
 7991POPC   C4B32734   8.713  43.768   7.655
 7992POPC   NC332735  34.529  41.597   9.455
 7992POPC   PO432736  34.565  41.595   9.155
 7992POPC   GL132737  34.551  41.575   8.855
 7992POPC   GL232738  34.430  41.451   8.855
 7992POPC   C1A32739  34.564  41.562   8.555
 7992POPC   D2A32740  34.573  41.519   8.255
 7992POPC   C3A32741  34.531  41.516   7.955
 7992POPC   C4A32742  34.589  41.589   7.655
 7992POPC   C1B32743  34.362  41.384   8.555
 7992POPC   C2B32744  34.331  41.466   8.255
 7992POPC   C3B32745  34.316  41.466   7.955
 7992POPC   C4B32746  34.385  41.379   7.655
 7993POPC   NC332747  23.715  20.635   9.455
 7993POPC   PO432748  23.758  20.596   9.155
 7993POPC   GL132749  23.751  20.571   8.855
 7993POPC   GL232750  23.777  20.737   8.855
 7993POPC   C1A32751  23.711  20.611   8.555
 7993POPC   D2A32752  23.675  20.580   8.255
 7993POPC   C3A32753  23.727  20.649   7.955
 7993POPC   C4A32754  23.683  20.594   7.655
 7993POPC   C1B32755  23.760  20.835   8.555
 7993POPC   C2B32756  23.803  20.802   8.255
 7993POPC   C3B32757  23.819  20.841   7.955
 7993POPC   C4B32758  23.766  20.804   7.655
 7994POPC   NC332759  22.971  23.741   9.455
 7994POPC   PO432760  22.939  23.688   9.155
 7994POPC   GL132761  22.892  23.749   8.855
 7994POPC   GL232762  23.077  23.789   8.855
 7994POPC   C1A32763  22.979  23.757   8.555
 7994POPC   D2A32764  22.925  23.728   8.255
 7994POPC   C3A32765  22.972  23.763   7.955
 7994POPC   C4A32766  22.957  23.758   7.655
 7994POPC   C1B32767  23.122  23.832   8.555
 7994POPC   C2B32768  23.128  23.859   8.255
 7994POPC   C3B32769  23.176  23.910   7.955
 7994POPC   C4B32770  23.182  23.882   7.655
 7995POPC   NC332771  12.027  19.814   9.455
 7995POPC   PO432772  12.069  19.868   9.155
 7995POPC   GL132773  12.124  19.802   8.855
 7995POPC   GL232774  12.006  19.706   8.855
 7995POPC   C1A32775  12.049  19.860   8.555
 7995POPC   D2A32776  12.087  19.830   8.255
 7995POPC   C3A32777  12.102  19.785   7.955
 7995POPC   C4A32778  12.105  19.792   7.655
 7995POPC   C1B32779  11.952  19.635   8.555
 7995POPC   C2B32780  12.003  19.567   8.255
 7995POPC   C3B32781  11.978  19.646   7.955
 7995POPC   C4B32782  11.996  19.580   7.655
 7996POPC   NC332783  33.755  38.415   9.455
 7996POPC   PO432784  33.794  38.410   9.155
 7996POPC   GL132785  33.818  38.440   8.855
 7996POPC   GL232786  33.849  38.358   8.855
 7996POPC   C1A32787  33.800  38.445   8.555
 7996POPC   D2A32788  33.755  38.442   8.255
 7996POPC   C3A32789  33.829  38.420   7.955
 7996POPC   C4A32790  33.834  38.490   7.655
 7996POPC   C1B32791  33.882  38.229   8.555
 7996POPC   C2B32792  33.818  38.180   8.255
 7996POPC   C3B32793  33.878  38.248   7.955
 7996POPC   C4B32794  33.847  38.213   7.655
 7997POPC   NC332795   6.656  22.902   9.455
 7997POPC   PO432796   6.680  22.902   9.155
 7997POPC   GL132797   6.666  22.893   8.855
 7997POPC   GL232798   6.562  23.035   8.855
 7997POPC   C1A32799   6.602  22.956   8.555
 7997POPC   D2A32800   6.602  22.943   8.255
 7997POPC   C3A32801   6.634  22.902   7.955
 7997POPC   C4A32802   6.642  22.979   7.655
 7997POPC   C1B32803   6.543  23.190   8.555
 7997POPC   C2B32804   6.571  23.213   8.255
 7997POPC   C3B32805   6.501  23.121   7.955
 7997POPC   C4B32806   6.550  23.201   7.655
 7998POPC   NC332807   3.530  43.108   9.455
 7998POPC   PO432808   3.503  43.110   9.155
 7998POPC   GL132809   3.528  43.106   8.855
 7998POPC   GL232810   3.543  42.972   8.855
 7998POPC   C1A32811   3.513  43.070   8.555
 7998POPC   D2A32812   3.532  43.071   8.255
 7998POPC   C3A32813   3.511  43.098   7.955
 7998POPC   C4A32814   3.589  43.062   7.655
 7998POPC   C1B32815   3.550  42.851   8.555
 7998POPC   C2B32816   3.542  42.843   8.255
 7998POPC   C3B32817   3.582  42.825   7.955
 7998POPC   C4B32818   3.567  42.871   7.655
 7999POPC   NC332819  14.413  30.728   9.455
 7999POPC   PO432820  14.387  30.694   9.155
 7999POPC   GL132821  14.435  30.710   8.855
 7999POPC   GL232822  14.482  30.615   8.855
 7999POPC   C1A32823  14.390  30.673   8.555
 7999POPC   D2A32824  14.417  30.729   8.255
 7999POPC   C3A32825  14.435  30.710   7.955
 7999POPC   C4A32826  14.391  30.722   7.655
 7999POPC   C1B32827  14.459  30.467   8.555
 7999POPC   C2B32828  14.474  30.489   8.255
 7999POPC   C3B32829  14.507  30.434   7.955
 7999POPC   C4B32830  14.465  30.405   7.655
 8000POPC   NC332831  40.053  28.365   9.455
 8000POPC   PO432832  39.988  28.359   9.155
 8000POPC   GL132833  39.979  28.340   8.855
 8000POPC   GL232834  40.083  28.525   8.855
 8000POPC   C1A32835  40.009  28.321   8.555
 8000POPC   D2A32836  40.000  28.342   8.255
 8000POPC   C3A32837  40.043  28.344   7.955
 8000POPC   C4A32838  40.052  28.380   7.655
 8000POPC   C1B32839  40.130  28.625   8.555
 8000POPC   C2B32840  40.152  28.537   8.255
 8000POPC   C3B32841  40.170  28.558   7.955
 8000POPC   C4B32842  40.087  28.601   7.655
 8001POPC   NC332843  12.117  18.236   9.455
 8001POPC   PO432844  12.117  18.243   9.155
 8001POPC   GL132845  12.029  18.304   8.855
 8001POPC   GL232846  12.181  18.374   8.855
 8001POPC   C1A32847  12.069  18.269   8.555
 8001POPC   D2A32848  12.096  18.273   8.255
 8001POPC   C3A32849  12.097  18.270   7.955
 8001POPC   C4A32850  12.121  18.295   7.655
 8001POPC   C1B32851  12.313  18.376   8.555
 8001POPC   C2B32852  12.298  18.432   8.255
 8001POPC   C3B32853  12.309  18.380   7.955
 8001POPC   C4B32854  12.277  18.411   7.655
 8002POPC   NC332855  20.588  40.825   9.455
 8002POPC   PO432856  20.610  40.779   9.155
 8002POPC   GL132857  20.619  40.748   8.855
 8002POPC   GL232858  20.686  40.842   8.855
 8002POPC   C1A32859  20.598  40.760   8.555
 8002POPC   D2A32860  20.568  40.822   8.255
 8002POPC   C3A32861  20.658  40.801   7.955
 8002POPC   C4A32862  20.567  40.787   7.655
 8002POPC   C1B32863  20.760  40.961   8.555
 8002POPC   C2B32864  20.740  40.993   8.255
 8002POPC   C3B32865  20.748  40.969   7.955
 8002POPC   C4B32866  20.743  41.046   7.655
 8003POPC   NC332867  11.347   5.045   9.455
 8003POPC   PO432868  11.263   5.097   9.155
 8003POPC   GL132869  11.294   5.092   8.855
 8003POPC   GL232870  11.176   5.122   8.855
 8003POPC   C1A32871  11.282   5.060   8.555
 8003POPC   D2A32872  11.343   5.065   8.255
 8003POPC   C3A32873  11.295   5.116   7.955
 8003POPC   C4A32874  11.342   5.111   7.655
 8003POPC   C1B32875  11.104   5.169   8.555
 8003POPC   C2B32876  11.021   5.105   8.255
 8003POPC   C3B32877  11.023   5.166   7.955
 8003POPC   C4B32878  11.093   5.112   7.655
 8004POPC   NC332879  43.867  35.352   9.455
 8004POPC   PO432880  43.928  35.378   9.155
 8004POPC   GL132881  43.843  35.380   8.855
 8004POPC   GL232882  43.796  35.332   8.855
 8004POPC   C1A32883  43.860  35.338   8.555
 8004POPC   D2A32884  43.927  35.383   8.255
 8004POPC   C3A32885  43.837  35.376   7.955
 8004POPC   C4A32886  43.898  35.364   7.655
 8004POPC   C1B32887  43.613  35.337   8.555
 8004POPC   C2B32888  43.650  35.351   8.255
 8004POPC   C3B32889  43.633  35.320   7.955
 8004POPC   C4B32890  43.651  35.309   7.655
 8005POPC   NC332891  41.515  12.847   9.455
 8005POPC   PO432892  41.513  12.897   9.155
 8005POPC   GL132893  41.571  12.872   8.855
 8005POPC   GL232894  41.497  12.792   8.855
 8005POPC   C1A32895  41.564  12.890   8.555
 8005POPC   D2A32896  41.574  12.883   8.255
 8005POPC   C3A32897  41.539  12.825   7.955
 8005POPC   C4A32898  41.531  12.875   7.655
 8005POPC   C1B32899  41.345  12.723   8.555
 8005POPC   C2B32900  41.420  12.687   8.255
 8005POPC   C3B32901  41.329  12.644   7.955
 8005POPC   C4B32902  41.385  12.721   7.655
 8006POPC   NC332903  27.613  25.216   9.455
 8006POPC   PO432904  27.624  25.234   9.155
 8006POPC   GL132905  27.550  25.259   8.855
 8006POPC   GL232906  27.459  25.244   8.855
 8006POPC   C1A32907  27.625  25.237   8.555
 8006POPC   D2A32908  27.602  25.244   8.255
 8006POPC   C3A32909  27.639  25.274   7.955
 8006POPC   C4A32910  27.558  25.232   7.655
 8006POPC   C1B32911  27.392  25.296   8.555
 8006POPC   C2B32912  27.309  25.350   8.255
 8006POPC   C3B32913  27.314  25.365   7.955
 8006POPC   C4B32914  27.368  25.311   7.655
 8007POPC   NC332915   6.595  29.137   9.455
 8007POPC   PO432916   6.604  29.142   9.155
 8007POPC   GL132917   6.630  29.158   8.855
 8007POPC   GL232918   6.508  29.216   8.855
 8007POPC   C1A32919   6.665  29.123   8.555
 8007POPC   D2A32920   6.597  29.141   8.255
 8007POPC   C3A32921   6.639  29.123   7.955
 8007POPC   C4A32922   6.601  29.117   7.655
 8007POPC   C1B32923   6.371  29.179   8.555
 8007POPC   C2B32924   6.425  29.172   8.255
 8007POPC   C3B32925   6.430  29.180   7.955
 8007POPC   C4B32926   6.387  29.225   7.655
 8008POPC   NC332927   8.180  24.500   9.455
 8008POPC   PO432928   8.158  24.517   9.155
 8008POPC   GL132929   8.243  24.525   8.855
 8008POPC   GL232930   8.275  24.483   8.855
 8008POPC   C1A32931   8.171  24.466   8.555
 8008POPC   D2A32932   8.234  24.444   8.255
 8008POPC   C3A32933   8.171  24.519   7.955
 8008POPC   C4A32934   8.232  24.490   7.655
 8008POPC   C1B32935   8.410  24.532   8.555
 8008POPC   C2B32936   8.399  24.537   8.255
 8008POPC   C3B32937   8.403  24.494   7.955
 8008POPC   C4B32938   8.491  24.515   7.655
 8009POPC   NC332939  25.223  21.354   9.455
 8009POPC   PO432940  25.219  21.391   9.155
 8009POPC   GL132941  25.239  21.354   8.855
 8009POPC   GL232942  25.350  21.320   8.855
 8009POPC   C1A32943  25.262  21.390   8.555
 8009POPC   D2A32944  25.313  21.419   8.255
 8009POPC   C3A32945  25.276  21.350   7.955
 8009POPC   C4A32946  25.295  21.364   7.655
 8009POPC   C1B32947  25.457  21.323   8.555
 8009POPC   C2B32948  25.535  21.280   8.255
 8009POPC   C3B32949  25.464  21.250   7.955
 8009POPC   C4B32950  25.521  21.271   7.655
 8010POPC   NC332951  38.430  43.086   9.455
 8010POPC   PO432952  38.414  43.155   9.155
 8010POPC   GL132953  38.462  43.131   8.855
 8010POPC   GL232954  38.623  43.147   8.855
 8010POPC   C1A32955  38.455  43.139   8.555
 8010POPC   D2A32956  38.437  43.061   8.255
 8010POPC   C3A32957  38.492  43.135   7.955
 8010POPC   C4A32958  38.474  43.121   7.655
 8010POPC   C1B32959  38.652  43.159   8.555
 8010POPC   C2B32960  38.735  43.130   8.255
 8010POPC   C3B32961  38.657  43.152   7.955
 8010POPC   C4B32962  38.663  43.227   7.655
 8011POPC   NC332963  39.190  36.881   9.455
 8011POPC   PO432964  39.279  36.935   9.155
 8011POPC   GL132965  39.210  36.902   8.855
 8011POPC   GL232966  39.216  36.761   8.855
 8011POPC   C1A32967  39.247  36.913   8.555
 8011POPC   D2A32968  39.270  36.942   8.255
 8011POPC   C3A32969  39.199  36.877   7.955
 8011POPC   C4A32970  39.259  36.918   7.655
 8011POPC   C1B32971  39.199  36.665   8.555
 8011POPC   C2B32972  39.140  36.638   8.255
 8011POPC   C3B32973  39.195  36.654   7.955
 8011POPC   C4B32974  39.182  36.627   7.655
 8012POPC   NC332975  16.727  44.681   9.455
 8012POPC   PO432976  16.717  44.680   9.155
 8012POPC   GL132977  16.746  44.633   8.855
 8012POPC   GL232978  16.670  44.575   8.855
 8012POPC   C1A32979  16.732  44.653   8.555
 8012POPC   D2A32980  16.752  44.637   8.255
 8012POPC   C3A32981  16.690  44.658   7.955
 8012POPC   C4A32982  16.766  44.650   7.655
 8012POPC   C1B32983  16.606  44.437   8.555
 8012POPC   C2B32984  16.595  44.456   8.255
 8012POPC   C3B32985  16.559  44.505   7.955
 8012POPC   C4B32986  16.603  44.504   7.655
 8013POPC   NC332987  38.504  15.129   9.455
 8013POPC   PO432988  38.472  15.194   9.155
 8013POPC   GL132989  38.429  15.156   8.855
 8013POPC   GL232990  38.368  15.066   8.855
 8013POPC   C1A32991  38.426  15.205   8.555
 8013POPC   D2A32992  38.422  15.189   8.255
 8013POPC   C3A32993  38.476  15.186   7.955
 8013POPC   C4A32994  38.443  15.168   7.655
 8013POPC   C1B32995  38.241  15.094   8.555
 8013POPC   C2B32996  38.243  15.055   8.255
 8013POPC   C3B32997  38.197  15.004   7.955
 8013POPC   C4B32998  38.230  15.084   7.655
 8014POPC   NC332999  34.534   0.474   9.455
 8014POPC   PO433000  34.615   0.481   9.155
 8014POPC   GL133001  34.588   0.431   8.855
 8014POPC   GL233002  34.594   0.322   8.855
 8014POPC   C1A33003  34.592   0.395   8.555
 8014POPC   D2A33004  34.618   0.390   8.255
 8014POPC   C3A33005  34.597   0.485   7.955
 8014POPC   C4A33006  34.624   0.483   7.655
 8014POPC   C1B33007  34.627   0.175   8.555
 8014POPC   C2B33008  34.673   0.180   8.255
 8014POPC   C3B33009  34.679   0.182   7.955
 8014POPC   C4B33010  34.643   0.211   7.655
 8015POPC   NC333011  41.541  18.238   9.455
 8015POPC   PO433012  41.511  18.276   9.155
 8015POPC   GL133013  41.555  18.314   8.855
 8015POPC   GL233014  41.481  18.176   8.855
 8015POPC   C1A33015  41.522  18.242   8.555
 8015POPC   D2A33016  41.538  18.313   8.255
 8015POPC   C3A33017  41.569  18.272   7.955
 8015POPC   C4A33018  41.572  18.304   7.655
 8015POPC   C1B33019  41.471  18.035   8.555
 8015POPC   C2B33020  41.404  18.045   8.255
 8015POPC   C3B33021  41.399  18.061   7.955
 8015POPC   C4B33022  41.424  18.088   7.655
 8016POPC   NC333023   8.167  25.263   9.455
 8016POPC   PO433024   8.202  25.299   9.155
 8016POPC   GL133025   8.207  25.283   8.855
 8016POPC   GL233026   8.160  25.204   8.855
 8016POPC   C1A33027   8.155  25.228   8.555
 8016POPC   D2A33028   8.162  25.232   8.255
 8016POPC   C3A33029   8.230  25.244   7.955
 8016POPC   C4A33030   8.148  25.237   7.655
 8016POPC   C1B33031   8.046  25.045   8.555
 8016POPC   C2B33032   8.065  25.004   8.255
 8016POPC   C3B33033   8.052  25.091   7.955
 8016POPC   C4B33034   8.119  25.088   7.655
 8017POPC   NC333035   7.454  13.645   9.455
 8017POPC   PO433036   7.402  13.595   9.155
 8017POPC   GL133037   7.440  13.618   8.855
 8017POPC   GL233038   7.272  13.739   8.855
 8017POPC   C1A33039   7.424  13.625   8.555
 8017POPC   D2A33040   7.437  13.609   8.255
 8017POPC   C3A33041   7.373  13.656   7.955
 8017POPC   C4A33042   7.409  13.590   7.655
 8017POPC   C1B33043   7.218  13.819   8.555
 8017POPC   C2B33044   7.179  13.740   8.255
 8017POPC   C3B33045   7.171  13.815   7.955
 8017POPC   C4B33046   7.225  13.726   7.655
 8018POPC   NC333047  18.289  39.958   9.455
 8018POPC   PO433048  18.246  39.984   9.155
 8018POPC   GL133049  18.308  40.030   8.855
 8018POPC   GL233050  18.298  40.145   8.855
 8018POPC   C1A33051  18.244  40.028   8.555
 8018POPC   D2A33052  18.325  40.056   8.255
 8018POPC   C3A33053  18.251  39.962   7.955
 8018POPC   C4A33054  18.296  39.964   7.655
 8018POPC   C1B33055  18.354  40.267   8.555
 8018POPC   C2B33056  18.299  40.215   8.255
 8018POPC   C3B33057  18.296  40.271   7.955
 8018POPC   C4B33058  18.263  40.282   7.655
 8019POPC   NC333059   7.419  29.111   9.455
 8019POPC   PO433060   7.408  29.154   9.155
 8019POPC   GL133061   7.376  29.157   8.855
 8019POPC   GL233062   7.460  29.084   8.855
 8019POPC   C1A33063   7.394  29.170   8.555
 8019POPC   D2A33064   7.453  29.176   8.255
 8019POPC   C3A33065   7.396  29.160   7.955
 8019POPC   C4A33066   7.457  29.183   7.655
 8019POPC   C1B33067   7.531  28.947   8.555
 8019POPC   C2B33068   7.563  28.981   8.255
 8019POPC   C3B33069   7.589  28.949   7.955
 8019POPC   C4B33070   7.559  28.903   7.655
 8020POPC   NC333071  29.881  22.980   9.455
 8020POPC   PO433072  29.924  22.979   9.155
 8020POPC   GL133073  29.894  22.921   8.855
 8020POPC   GL233074  29.908  23.060   8.855
 8020POPC   C1A33075  29.917  22.927   8.555
 8020POPC   D2A33076  29.931  22.973   8.255
 8020POPC   C3A33077  29.883  22.892   7.955
 8020POPC   C4A33078  29.967  22.890   7.655
 8020POPC   C1B33079  29.847  23.124   8.555
 8020POPC   C2B33080  29.762  23.168   8.255
 8020POPC   C3B33081  29.832  23.158   7.955
 8020POPC   C4B33082  29.820  23.171   7.655
 8021POPC   NC333083  17.489  19.025   9.455
 8021POPC   PO433084  17.529  19.079   9.155
 8021POPC   GL133085  17.556  19.035   8.855
 8021POPC   GL233086  17.528  18.981   8.855
 8021POPC   C1A33087  17.535  19.015   8.555
 8021POPC   D2A33088  17.481  19.014   8.255
 8021POPC   C3A33089  17.489  19.095   7.955
 8021POPC   C4A33090  17.463  19.061   7.655
 8021POPC   C1B33091  17.604  18.849   8.555
 8021POPC   C2B33092  17.573  18.870   8.255
 8021POPC   C3B33093  17.604  18.805   7.955
 8021POPC   C4B33094  17.567  18.792   7.655
 8022POPC   NC333095  10.498  42.313   9.455
 8022POPC   PO433096  10.524  42.365   9.155
 8022POPC   GL133097  10.543  42.362   8.855
 8022POPC   GL233098  10.601  42.242   8.855
 8022POPC   C1A33099  10.501  42.287   8.555
 8022POPC   D2A33100  10.488  42.324   8.255
 8022POPC   C3A33101  10.493  42.355   7.955
 8022POPC   C4A33102  10.509  42.307   7.655
 8022POPC   C1B33103  10.564  42.097   8.555
 8022POPC   C2B33104  10.629  42.115   8.255
 8022POPC   C3B33105  10.588  42.068   7.955
 8022POPC   C4B33106  10.608  42.124   7.655
 8023POPC   NC333107  44.706  33.830   9.455
 8023POPC   PO433108  44.658  33.812   9.155
 8023POPC   GL133109  44.670  33.814   8.855
 8023POPC   GL233110  44.752  33.696   8.855
 8023POPC   C1A33111  44.706  33.784   8.555
 8023POPC   D2A33112  44.628  33.799   8.255
 8023POPC   C3A33113  44.658  33.846   7.955
 8023POPC   C4A33114  44.656  33.831   7.655
 8023POPC   C1B33115  44.788  33.586   8.555
 8023POPC   C2B33116  44.812  33.594   8.255
 8023POPC   C3B33117  44.853  33.562   7.955
 8023POPC   C4B33118  44.847  33.574   7.655
 8024POPC   NC333119   9.741  14.389   9.455
 8024POPC   PO433120   9.703  14.401   9.155
 8024POPC   GL133121   9.728  14.453   8.855
 8024POPC   GL233122   9.692  14.556   8.855
 8024POPC   C1A33123   9.764  14.426   8.555
 8024POPC   D2A33124   9.725  14.420   8.255
 8024POPC   C3A33125   9.762  14.444   7.955
 8024POPC   C4A33126   9.756  14.437   7.655
 8024POPC   C1B33127   9.754  14.652   8.555
 8024POPC   C2B33128   9.706  14.675   8.255
 8024POPC   C3B33129   9.726  14.680   7.955
 8024POPC   C4B33130   9.688  14.632   7.655
 8025POPC   NC333131  33.056  12.809   9.455
 8025POPC   PO433132  32.999  12.890   9.155
 8025POPC   GL133133  33.018  12.834   8.855
 8025POPC   GL233134  32.915  12.873   8.855
 8025POPC   C1A33135  32.982  12.839   8.555
 8025POPC   D2A33136  33.020  12.863   8.255
 8025POPC   C3A33137  32.975  12.810   7.955
 8025POPC   C4A33138  33.071  12.824   7.655
 8025POPC   C1B33139  32.755  12.904   8.555
 8025POPC   C2B33140  32.813  12.920   8.255
 8025POPC   C3B33141  32.758  12.886   7.955
 8025POPC   C4B33142  32.736  12.886   7.655
 8026POPC   NC333143  31.478  23.685   9.455
 8026POPC   PO433144  31.520  23.713   9.155
 8026POPC   GL133145  31.457  23.714   8.855
 8026POPC   GL233146  31.415  23.838   8.855
 8026POPC   C1A33147  31.459  23.719   8.555
 8026POPC   D2A33148  31.483  23.710   8.255
 8026POPC   C3A33149  31.439  23.757   7.955
 8026POPC   C4A33150  31.494  23.715   7.655
 8026POPC   C1B33151  31.349  23.892   8.555
 8026POPC   C2B33152  31.303  23.935   8.255
 8026POPC   C3B33153  31.371  23.918   7.955
 8026POPC   C4B33154  31.304  23.923   7.655
 8027POPC   NC333155  37.667  21.339   9.455
 8027POPC   PO433156  37.649  21.343   9.155
 8027POPC   GL133157  37.630  21.392   8.855
 8027POPC   GL233158  37.749  21.438   8.855
 8027POPC   C1A33159  37.694  21.370   8.555
 8027POPC   D2A33160  37.643  21.360   8.255
 8027POPC   C3A33161  37.725  21.348   7.955
 8027POPC   C4A33162  37.646  21.372   7.655
 8027POPC   C1B33163  37.864  21.564   8.555
 8027POPC   C2B33164  37.869  21.499   8.255
 8027POPC   C3B33165  37.936  21.502   7.955
 8027POPC   C4B33166  37.919  21.485   7.655
 8028POPC   NC333167  16.740  43.061   9.455
 8028POPC   PO433168  16.768  43.082   9.155
 8028POPC   GL133169  16.702  43.077   8.855
 8028POPC   GL233170  16.830  43.166   8.855
 8028POPC   C1A33171  16.734  43.096   8.555
 8028POPC   D2A33172  16.706  43.137   8.255
 8028POPC   C3A33173  16.747  43.128   7.955
 8028POPC   C4A33174  16.768  43.126   7.655
 8028POPC   C1B33175  16.897  43.292   8.555
 8028POPC   C2B33176  16.861  43.293   8.255
 8028POPC   C3B33177  16.889  43.237   7.955
 8028POPC   C4B33178  16.932  43.297   7.655
 8029POPC   NC333179   5.881  15.921   9.455
 8029POPC   PO433180   5.896  15.910   9.155
 8029POPC   GL133181   5.907  15.923   8.855
 8029POPC   GL233182   5.936  15.797   8.855
 8029POPC   C1A33183   5.847  15.991   8.555
 8029POPC   D2A33184   5.894  15.976   8.255
 8029POPC   C3A33185   5.859  15.988   7.955
 8029POPC   C4A33186   5.906  15.992   7.655
 8029POPC   C1B33187   5.968  15.698   8.555
 8029POPC   C2B33188   6.001  15.726   8.255
 8029POPC   C3B33189   5.985  15.748   7.955
 8029POPC   C4B33190   5.940  15.735   7.655
 8030POPC   NC333191  22.952  19.037   9.455
 8030POPC   PO433192  22.922  19.072   9.155
 8030POPC   GL133193  22.928  19.108   8.855
 8030POPC   GL233194  22.875  18.944   8.855
 8030POPC   C1A33195  22.905  19.066   8.555
 8030POPC   D2A33196  22.920  19.059   8.255
 8030POPC   C3A33197  22.890  19.063   7.955
 8030POPC   C4A33198  22.914  19.070   7.655
 8030POPC   C1B33199  22.935  18.811   8.555
 8030POPC   C2B33200  22.918  18.807   8.255
 8030POPC   C3B33201  22.934  18.783   7.955
 8030POPC   C4B33202  22.852  18.808   7.655
 8031POPC   NC333203  39.278   7.379   9.455
 8031POPC   PO433204  39.242   7.396   9.155
 8031POPC   GL133205  39.224   7.401   8.855
 8031POPC   GL233206  39.226   7.585   8.855
 8031POPC   C1A33207  39.229   7.386   8.555
 8031POPC   D2A33208  39.236   7.412   8.255
 8031POPC   C3A33209  39.263   7.406   7.955
 8031POPC   C4A33210  39.194   7.420   7.655
 8031POPC   C1B33211  39.291   7.680   8.555
 8031POPC   C2B33212  39.293   7.687   8.255
 8031POPC   C3B33213  39.282   7.671   7.955
 8031POPC   C4B33214  39.315   7.708   7.655
 8032POPC   NC333215  42.366  39.259   9.455
 8032POPC   PO433216  42.292  39.260   9.155
 8032POPC   GL133217  42.383  39.195   8.855
 8032POPC   GL233218  42.430  39.339   8.855
 8032POPC   C1A33219  42.375  39.269   8.555
 8032POPC   D2A33220  42.381  39.201   8.255
 8032POPC   C3A33221  42.333  39.259   7.955
 8032POPC   C4A33222  42.295  39.233   7.655
 8032POPC   C1B33223  42.501  39.345   8.555
 8032POPC   C2B33224  42.570  39.407   8.255
 8032POPC   C3B33225  42.556  39.403   7.955
 8032POPC   C4B33226  42.530  39.390   7.655
 8033POPC   NC333227  40.821   8.208   9.455
 8033POPC   PO433228  40.791   8.223   9.155
 8033POPC   GL133229  40.795   8.167   8.855
 8033POPC   GL233230  40.895   8.124   8.855
 8033POPC   C1A33231  40.813   8.236   8.555
 8033POPC   D2A33232  40.747   8.240   8.255
 8033POPC   C3A33233  40.769   8.188   7.955
 8033POPC   C4A33234  40.753   8.149   7.655
 8033POPC   C1B33235  40.981   8.036   8.555
 8033POPC   C2B33236  40.939   8.030   8.255
 8033POPC   C3B33237  40.945   7.958   7.955
 8033POPC   C4B33238  40.980   7.956   7.655
 8034POPC   NC333239  29.099  26.024   9.455
 8034POPC   PO433240  29.169  26.005   9.155
 8034POPC   GL133241  29.161  26.071   8.855
 8034POPC   GL233242  29.159  26.149   8.855
 8034POPC   C1A33243  29.166  26.005   8.555
 8034POPC   D2A33244  29.129  26.086   8.255
 8034POPC   C3A33245  29.131  26.053   7.955
 8034POPC   C4A33246  29.163  26.037   7.655
 8034POPC   C1B33247  29.216  26.246   8.555
 8034POPC   C2B33248  29.169  26.295   8.255
 8034POPC   C3B33249  29.217  26.328   7.955
 8034POPC   C4B33250  29.226  26.314   7.655
 8035POPC   NC333251   5.873  15.183   9.455
 8035POPC   PO433252   5.858  15.178   9.155
 8035POPC   GL133253   5.873  15.152   8.855
 8035POPC   GL233254   5.807  15.087   8.855
 8035POPC   C1A33255   5.917  15.216   8.555
 8035POPC   D2A33256   5.829  15.131   8.255
 8035POPC   C3A33257   5.834  15.133   7.955
 8035POPC   C4A33258   5.862  15.139   7.655
 8035POPC   C1B33259   5.724  14.949   8.555
 8035POPC   C2B33260   5.703  15.034   8.255
 8035POPC   C3B33261   5.659  15.005   7.955
 8035POPC   C4B33262   5.731  15.009   7.655
 8036POPC   NC333263   5.046  22.980   9.455
 8036POPC   PO433264   5.058  22.979   9.155
 8036POPC   GL133265   5.045  22.978   8.855
 8036POPC   GL233266   5.022  23.047   8.855
 8036POPC   C1A33267   5.047  22.906   8.555
 8036POPC   D2A33268   5.055  22.936   8.255
 8036POPC   C3A33269   5.104  22.911   7.955
 8036POPC   C4A33270   5.112  22.927   7.655
 8036POPC   C1B33271   4.993  23.180   8.555
 8036POPC   C2B33272   5.031  23.218   8.255
 8036POPC   C3B33273   5.056  23.130   7.955
 8036POPC   C4B33274   4.986  23.155   7.655
 8037POPC   NC333275  32.984  11.334   9.455
 8037POPC   PO433276  33.036  11.337   9.155
 8037POPC   GL133277  32.991  11.307   8.855
 8037POPC   GL233278  33.084  11.319   8.855
 8037POPC   C1A33279  33.010  11.262   8.555
 8037POPC   D2A33280  33.057  11.320   8.255
 8037POPC   C3A33281  32.974  11.275   7.955
 8037POPC   C4A33282  32.993  11.253   7.655
 8037POPC   C1B33283  33.217  11.475   8.555
 8037POPC   C2B33284  33.256  11.439   8.255
 8037POPC   C3B33285  33.213  11.454   7.955
 8037POPC   C4B33286  33.271  11.460   7.655
 8038POPC   NC333287  27.565  43.152   9.455
 8038POPC   PO433288  27.628  43.126   9.155
 8038POPC   GL133289  27.582  43.115   8.855
 8038POPC   GL233290  27.682  43.131   8.855
 8038POPC   C1A33291  27.593  43.084   8.555
 8038POPC   D2A33292  27.639  43.127   8.255
 8038POPC   C3A33293  27.634  43.081   7.955
 8038POPC   C4A33294  27.641  43.086   7.655
 8038POPC   C1B33295  27.880  43.221   8.555
 8038POPC   C2B33296  27.830  43.189   8.255
 8038POPC   C3B33297  27.801  43.192   7.955
 8038POPC   C4B33298  27.845  43.190   7.655
 8039POPC   NC333299   6.693   5.859   9.455
 8039POPC   PO433300   6.691   5.883   9.155
 8039POPC   GL133301   6.612   5.846   8.855
 8039POPC   GL233302   6.582   6.013   8.855
 8039POPC   C1A33303   6.615   5.862   8.555
 8039POPC   D2A33304   6.653   5.834   8.255
 8039POPC   C3A33305   6.680   5.840   7.955
 8039POPC   C4A33306   6.684   5.899   7.655
 8039POPC   C1B33307   6.595   6.140   8.555
 8039POPC   C2B33308   6.614   6.120   8.255
 8039POPC   C3B33309   6.590   6.091   7.955
 8039POPC   C4B33310   6.615   6.106   7.655
 8040POPC   NC333311  28.378   8.978   9.455
 8040POPC   PO433312  28.370   8.982   9.155
 8040POPC   GL133313  28.346   8.942   8.855
 8040POPC   GL233314  28.447   8.927   8.855
 8040POPC   C1A33315  28.413   8.976   8.555
 8040POPC   D2A33316  28.408   8.962   8.255
 8040POPC   C3A33317  28.348   9.013   7.955
 8040POPC   C4A33318  28.374   9.020   7.655
 8040POPC   C1B33319  28.662   8.997   8.555
 8040POPC   C2B33320  28.633   8.985   8.255
 8040POPC   C3B33321  28.584   8.951   7.955
 8040POPC   C4B33322  28.630   8.936   7.655
 8041POPC   NC333323  33.803  40.747   9.455
 8041POPC   PO433324  33.823  40.753   9.155
 8041POPC   GL133325  33.848  40.821   8.855
 8041POPC   GL233326  33.691  40.739   8.855
 8041POPC   C1A33327  33.794  40.786   8.555
 8041POPC   D2A33328  33.827  40.800   8.255
 8041POPC   C3A33329  33.809  40.772   7.955
 8041POPC   C4A33330  33.801  40.789   7.655
 8041POPC   C1B33331  33.607  40.629   8.555
 8041POPC   C2B33332  33.590  40.701   8.255
 8041POPC   C3B33333  33.536  40.660   7.955
 8041POPC   C4B33334  33.541  40.701   7.655
 8042POPC   NC333335   9.792   1.165   9.455
 8042POPC   PO433336   9.768   1.254   9.155
 8042POPC   GL133337   9.759   1.225   8.855
 8042POPC   GL233338   9.817   1.307   8.855
 8042POPC   C1A33339   9.741   1.179   8.555
 8042POPC   D2A33340   9.743   1.187   8.255
 8042POPC   C3A33341   9.708   1.256   7.955
 8042POPC   C4A33342   9.735   1.184   7.655
 8042POPC   C1B33343  10.001   1.379   8.555
 8042POPC   C2B33344   9.964   1.288   8.255
 8042POPC   C3B33345   9.936   1.322   7.955
 8042POPC   C4B33346   9.959   1.305   7.655
 8043POPC   NC333347  33.820  26.060   9.455
 8043POPC   PO433348  33.808  26.050   9.155
 8043POPC   GL133349  33.822  26.065   8.855
 8043POPC   GL233350  33.756  25.914   8.855
 8043POPC   C1A33351  33.801  26.051   8.555
 8043POPC   D2A33352  33.784  26.073   8.255
 8043POPC   C3A33353  33.764  26.016   7.955
 8043POPC   C4A33354  33.769  26.079   7.655
 8043POPC   C1B33355  33.768  25.823   8.555
 8043POPC   C2B33356  33.763  25.782   8.255
 8043POPC   C3B33357  33.796  25.841   7.955
 8043POPC   C4B33358  33.771  25.774   7.655
 8044POPC   NC333359  38.417  40.746   9.455
 8044POPC   PO433360  38.502  40.741   9.155
 8044POPC   GL133361  38.489  40.775   8.855
 8044POPC   GL233362  38.301  40.724   8.855
 8044POPC   C1A33363  38.425  40.744   8.555
 8044POPC   D2A33364  38.479  40.825   8.255
 8044POPC   C3A33365  38.436  40.764   7.955
 8044POPC   C4A33366  38.442  40.832   7.655
 8044POPC   C1B33367  38.277  40.695   8.555
 8044POPC   C2B33368  38.188  40.675   8.255
 8044POPC   C3B33369  38.204  40.624   7.955
 8044POPC   C4B33370  38.224  40.698   7.655
 8045POPC   NC333371  10.517  37.727   9.455
 8045POPC   PO433372  10.516  37.674   9.155
 8045POPC   GL133373  10.480  37.675   8.855
 8045POPC   GL233374  10.376  37.655   8.855
 8045POPC   C1A33375  10.526  37.705   8.555
 8045POPC   D2A33376  10.562  37.728   8.255
 8045POPC   C3A33377  10.509  37.709   7.955
 8045POPC   C4A33378  10.531  37.629   7.655
 8045POPC   C1B33379  10.281  37.594   8.555
 8045POPC   C2B33380  10.292  37.577   8.255
 8045POPC   C3B33381  10.252  37.591   7.955
 8045POPC   C4B33382  10.276  37.572   7.655
 8046POPC   NC333383  17.506  19.824   9.455
 8046POPC   PO433384  17.527  19.883   9.155
 8046POPC   GL133385  17.538  19.813   8.855
 8046POPC   GL233386  17.525  19.676   8.855
 8046POPC   C1A33387  17.486  19.792   8.555
 8046POPC   D2A33388  17.528  19.876   8.255
 8046POPC   C3A33389  17.546  19.787   7.955
 8046POPC   C4A33390  17.508  19.881   7.655
 8046POPC   C1B33391  17.512  19.536   8.555
 8046POPC   C2B33392  17.547  19.624   8.255
 8046POPC   C3B33393  17.526  19.547   7.955
 8046POPC   C4B33394  17.559  19.629   7.655
 8047POPC   NC333395  31.466  10.516   9.455
 8047POPC   PO433396  31.477  10.516   9.155
 8047POPC   GL133397  31.449  10.502   8.855
 8047POPC   GL233398  31.316  10.500   8.855
 8047POPC   C1A33399  31.427  10.532   8.555
 8047POPC   D2A33400  31.516  10.489   8.255
 8047POPC   C3A33401  31.499  10.476   7.955
 8047POPC   C4A33402  31.477  10.540   7.655
 8047POPC   C1B33403  31.236  10.550   8.555
 8047POPC   C2B33404  31.178  10.524   8.255
 8047POPC   C3B33405  31.229  10.538   7.955
 8047POPC   C4B33406  31.244  10.530   7.655
 8048POPC   NC333407  11.253  39.205   9.455
 8048POPC   PO433408  11.301  39.219   9.155
 8048POPC   GL133409  11.304  39.255   8.855
 8048POPC   GL233410  11.354  39.368   8.855
 8048POPC   C1A33411  11.282  39.200   8.555
 8048POPC   D2A33412  11.349  39.236   8.255
 8048POPC   C3A33413  11.337  39.280   7.955
 8048POPC   C4A33414  11.332  39.183   7.655
 8048POPC   C1B33415  11.395  39.469   8.555
 8048POPC   C2B33416  11.483  39.408   8.255
 8048POPC   C3B33417  11.445  39.446   7.955
 8048POPC   C4B33418  11.422  39.408   7.655
 8049POPC   NC333419  40.791  39.248   9.455
 8049POPC   PO433420  40.791  39.203   9.155
 8049POPC   GL133421  40.777  39.258   8.855
 8049POPC   GL233422  40.813  39.065   8.855
 8049POPC   C1A33423  40.777  39.259   8.555
 8049POPC   D2A33424  40.747  39.205   8.255
 8049POPC   C3A33425  40.746  39.206   7.955
 8049POPC   C4A33426  40.814  39.247   7.655
 8049POPC   C1B33427  40.763  39.028   8.555
 8049POPC   C2B33428  40.741  39.025   8.255
 8049POPC   C3B33429  40.738  39.016   7.955
 8049POPC   C4B33430  40.759  38.935   7.655
 8050POPC   NC333431  40.017  22.974   9.455
 8050POPC   PO433432  40.003  22.963   9.155
 8050POPC   GL133433  40.055  22.952   8.855
 8050POPC   GL233434  39.945  22.878   8.855
 8050POPC   C1A33435  40.038  22.970   8.555
 8050POPC   D2A33436  39.978  22.910   8.255
 8050POPC   C3A33437  39.983  22.982   7.955
 8050POPC   C4A33438  39.988  22.907   7.655
 8050POPC   C1B33439  39.898  22.699   8.555
 8050POPC   C2B33440  39.836  22.709   8.255
 8050POPC   C3B33441  39.888  22.759   7.955
 8050POPC   C4B33442  39.920  22.725   7.655
 8051POPC   NC333443  15.987  28.418   9.455
 8051POPC   PO433444  15.945  28.397   9.155
 8051POPC   GL133445  16.002  28.380   8.855
 8051POPC   GL233446  16.007  28.227   8.855
 8051POPC   C1A33447  15.929  28.404   8.555
 8051POPC   D2A33448  15.966  28.404   8.255
 8051POPC   C3A33449  15.926  28.329   7.955
 8051POPC   C4A33450  15.959  28.411   7.655
 8051POPC   C1B33451  16.109  28.172   8.555
 8051POPC   C2B33452  16.071  28.139   8.255
 8051POPC   C3B33453  16.089  28.127   7.955
 8051POPC   C4B33454  16.099  28.118   7.655
 8052POPC   NC333455   9.011  36.108   9.455
 8052POPC   PO433456   8.951  36.125   9.155
 8052POPC   GL133457   8.928  36.089   8.855
 8052POPC   GL233458   8.997  36.235   8.855
 8052POPC   C1A33459   8.978  36.096   8.555
 8052POPC   D2A33460   8.955  36.139   8.255
 8052POPC   C3A33461   8.936  36.098   7.955
 8052POPC   C4A33462   8.940  36.151   7.655
 8052POPC   C1B33463   9.099  36.360   8.555
 8052POPC   C2B33464   9.102  36.352   8.255
 8052POPC   C3B33465   9.123  36.393   7.955
 8052POPC   C4B33466   9.061  36.373   7.655
 8053POPC   NC333467  29.133   9.791   9.455
 8053POPC   PO433468  29.194   9.788   9.155
 8053POPC   GL133469  29.118   9.759   8.855
 8053POPC   GL233470  29.196   9.681   8.855
 8053POPC   C1A33471  29.125   9.739   8.555
 8053POPC   D2A33472  29.159   9.795   8.255
 8053POPC   C3A33473  29.175   9.721   7.955
 8053POPC   C4A33474  29.146   9.779   7.655
 8053POPC   C1B33475  29.294   9.594   8.555
 8053POPC   C2B33476  29.325   9.581   8.255
 8053POPC   C3B33477  29.309   9.596   7.955
 8053POPC   C4B33478  29.310   9.614   7.655
 8054POPC   NC333479  37.686   8.935   9.455
 8054POPC   PO433480  37.657   8.976   9.155
 8054POPC   GL133481  37.729   8.959   8.855
 8054POPC   GL233482  37.784   8.949   8.855
 8054POPC   C1A33483  37.650   8.968   8.555
 8054POPC   D2A33484  37.657   8.973   8.255
 8054POPC   C3A33485  37.650   8.951   7.955
 8054POPC   C4A33486  37.704   8.952   7.655
 8054POPC   C1B33487  37.925   8.821   8.555
 8054POPC   C2B33488  37.911   8.862   8.255
 8054POPC   C3B33489  37.861   8.794   7.955
 8054POPC   C4B33490  37.859   8.837   7.655
 8055POPC   NC333491  42.287  24.533   9.455
 8055POPC   PO433492  42.302  24.446   9.155
 8055POPC   GL133493  42.363  24.453   8.855
 8055POPC   GL233494  42.220  24.487   8.855
 8055POPC   C1A33495  42.359  24.501   8.555
 8055POPC   D2A33496  42.331  24.489   8.255
 8055POPC   C3A33497  42.320  24.495   7.955
 8055POPC   C4A33498  42.300  24.486   7.655
 8055POPC   C1B33499  42.097  24.435   8.555
 8055POPC   C2B33500  42.100  24.466   8.255
 8055POPC   C3B33501  42.060  24.414   7.955
 8055POPC   C4B33502  42.087  24.410   7.655
 8056POPC   NC333503  28.329  26.082   9.455
 8056POPC   PO433504  28.379  26.086   9.155
 8056POPC   GL133505  28.369  26.079   8.855
 8056POPC   GL233506  28.314  26.159   8.855
 8056POPC   C1A33507  28.381  26.008   8.555
 8056POPC   D2A33508  28.374  26.025   8.255
 8056POPC   C3A33509  28.416  26.031   7.955
 8056POPC   C4A33510  28.389  26.001   7.655
 8056POPC   C1B33511  28.289  26.244   8.555
 8056POPC   C2B33512  28.352  26.251   8.255
 8056POPC   C3B33513  28.324  26.302   7.955
 8056POPC   C4B33514  28.346  26.277   7.655
 8057POPC   NC333515  44.630  14.372   9.455
 8057POPC   PO433516  44.616  14.401   9.155
 8057POPC   GL133517  44.644  14.416   8.855
 8057POPC   GL233518  44.754  14.521   8.855
 8057POPC   C1A33519  44.639  14.362   8.555
 8057POPC   D2A33520  44.621  14.404   8.255
 8057POPC   C3A33521  44.688  14.382   7.955
 8057POPC   C4A33522  44.613  14.383   7.655
 8057POPC   C1B33523  44.864  14.585   8.555
 8057POPC   C2B33524  44.834  14.599   8.255
 8057POPC   C3B33525  44.816  14.598   7.955
 8057POPC   C4B33526  44.827  14.566   7.655
 8058POPC   NC333527  21.340  40.768   9.455
 8058POPC   PO433528  21.404  40.760   9.155
 8058POPC   GL133529  21.389  40.762   8.855
 8058POPC   GL233530  21.490  40.702   8.855
 8058POPC   C1A33531  21.431  40.810   8.555
 8058POPC   D2A33532  21.352  40.772   8.255
 8058POPC   C3A33533  21.347  40.814   7.955
 8058POPC   C4A33534  21.425  40.814   7.655
 8058POPC   C1B33535  21.511  40.620   8.555
 8058POPC   C2B33536  21.520  40.563   8.255
 8058POPC   C3B33537  21.541  40.602   7.955
 8058POPC   C4B33538  21.568  40.606   7.655
 8059POPC   NC333539  43.878  26.850   9.455
 8059POPC   PO433540  43.903  26.815   9.155
 8059POPC   GL133541  43.912  26.823   8.855
 8059POPC   GL233542  43.898  26.906   8.855
 8059POPC   C1A33543  43.862  26.859   8.555
 8059POPC   D2A33544  43.930  26.843   8.255
 8059POPC   C3A33545  43.920  26.849   7.955
 8059POPC   C4A33546  43.847  26.803   7.655
 8059POPC   C1B33547  43.874  27.114   8.555
 8059POPC   C2B33548  43.833  27.100   8.255
 8059POPC   C3B33549  43.876  27.100   7.955
 8059POPC   C4B33550  43.855  27.071   7.655
 8060POPC   NC333551  13.624   8.191   9.455
 8060POPC   PO433552  13.585   8.243   9.155
 8060POPC   GL133553  13.609   8.238   8.855
 8060POPC   GL233554  13.717   8.200   8.855
 8060POPC   C1A33555  13.583   8.204   8.555
 8060POPC   D2A33556  13.584   8.223   8.255
 8060POPC   C3A33557  13.602   8.206   7.955
 8060POPC   C4A33558  13.580   8.155   7.655
 8060POPC   C1B33559  13.885   8.153   8.555
 8060POPC   C2B33560  13.906   8.114   8.255
 8060POPC   C3B33561  13.891   8.171   7.955
 8060POPC   C4B33562  13.861   8.109   7.655
 8061POPC   NC333563  43.854  40.761   9.455
 8061POPC   PO433564  43.896  40.800   9.155
 8061POPC   GL133565  43.905  40.788   8.855
 8061POPC   GL233566  43.934  40.865   8.855
 8061POPC   C1A33567  43.875  40.822   8.555
 8061POPC   D2A33568  43.875  40.774   8.255
 8061POPC   C3A33569  43.838  40.734   7.955
 8061POPC   C4A33570  43.905  40.784   7.655
 8061POPC   C1B33571  44.074  40.969   8.555
 8061POPC   C2B33572  44.011  40.961   8.255
 8061POPC   C3B33573  44.095  40.961   7.955
 8061POPC   C4B33574  44.074  41.002   7.655
 8062POPC   NC333575  38.471  25.246   9.455
 8062POPC   PO433576  38.437  25.278   9.155
 8062POPC   GL133577  38.476  25.265   8.855
 8062POPC   GL233578  38.516  25.227   8.855
 8062POPC   C1A33579  38.482  25.293   8.555
 8062POPC   D2A33580  38.419  25.279   8.255
 8062POPC   C3A33581  38.442  25.239   7.955
 8062POPC   C4A33582  38.494  25.243   7.655
 8062POPC   C1B33583  38.635  25.171   8.555
 8062POPC   C2B33584  38.626  25.098   8.255
 8062POPC   C3B33585  38.621  25.163   7.955
 8062POPC   C4B33586  38.626  25.155   7.655
 8063POPC   NC333587  19.867  30.665   9.455
 8063POPC   PO433588  19.808  30.649   9.155
 8063POPC   GL133589  19.854  30.667   8.855
 8063POPC   GL233590  19.927  30.653   8.855
 8063POPC   C1A33591  19.870  30.740   8.555
 8063POPC   D2A33592  19.811  30.743   8.255
 8063POPC   C3A33593  19.801  30.723   7.955
 8063POPC   C4A33594  19.861  30.661   7.655
 8063POPC   C1B33595  19.986  30.542   8.555
 8063POPC   C2B33596  19.983  30.562   8.255
 8063POPC   C3B33597  20.009  30.493   7.955
 8063POPC   C4B33598  20.016  30.503   7.655
 8064POPC   NC333599  25.233  22.980   9.455
 8064POPC   PO433600  25.271  22.973   9.155
 8064POPC   GL133601  25.297  22.946   8.855
 8064POPC   GL233602  25.125  22.861   8.855
 8064POPC   C1A33603  25.250  22.973   8.555
 8064POPC   D2A33604  25.290  22.923   8.255
 8064POPC   C3A33605  25.298  22.937   7.955
 8064POPC   C4A33606  25.238  22.928   7.655
 8064POPC   C1B33607  25.046  22.819   8.555
 8064POPC   C2B33608  25.075  22.775   8.255
 8064POPC   C3B33609  25.061  22.787   7.955
 8064POPC   C4B33610  25.037  22.778   7.655
 8065POPC   NC333611  41.511  40.789   9.455
 8065POPC   PO433612  41.591  40.814   9.155
 8065POPC   GL133613  41.571  40.739   8.855
 8065POPC   GL233614  41.460  40.832   8.855
 8065POPC   C1A33615  41.563  40.741   8.555
 8065POPC   D2A33616  41.583  40.815   8.255
 8065POPC   C3A33617  41.528  40.773   7.955
 8065POPC   C4A33618  41.590  40.814   7.655
 8065POPC   C1B33619  41.323  40.891   8.555
 8065POPC   C2B33620  41.359  40.901   8.255
 8065POPC   C3B33621  41.364  40.865   7.955
 8065POPC   C4B33622  41.306  40.886   7.655
 8066POPC   NC333623   6.650  16.776   9.455
 8066POPC   PO433624   6.679  16.693   9.155
 8066POPC   GL133625   6.652  16.707   8.855
 8066POPC   GL233626   6.763  16.620   8.855
 8066POPC   C1A33627   6.658  16.714   8.555
 8066POPC   D2A33628   6.661  16.692   8.255
 8066POPC   C3A33629   6.641  16.716   7.955
 8066POPC   C4A33630   6.619  16.775   7.655
 8066POPC   C1B33631   6.809  16.540   8.555
 8066POPC   C2B33632   6.813  16.520   8.255
 8066POPC   C3B33633   6.827  16.581   7.955
 8066POPC   C4B33634   6.799  16.513   7.655
 8067POPC   NC333635  39.259  10.522   9.455
 8067POPC   PO433636  39.230  10.519   9.155
 8067POPC   GL133637  39.276  10.484   8.855
 8067POPC   GL233638  39.143  10.449   8.855
 8067POPC   C1A33639  39.239  10.494   8.555
 8067POPC   D2A33640  39.194  10.474   8.255
 8067POPC   C3A33641  39.240  10.550   7.955
 8067POPC   C4A33642  39.183  10.549   7.655
 8067POPC   C1B33643  38.975  10.398   8.555
 8067POPC   C2B33644  38.958  10.437   8.255
 8067POPC   C3B33645  39.015  10.375   7.955
 8067POPC   C4B33646  39.028  10.434   7.655
 8068POPC   NC333647  39.226  16.747   9.455
 8068POPC   PO433648  39.266  16.741   9.155
 8068POPC   GL133649  39.230  16.695   8.855
 8068POPC   GL233650  39.201  16.817   8.855
 8068POPC   C1A33651  39.221  16.689   8.555
 8068POPC   D2A33652  39.182  16.717   8.255
 8068POPC   C3A33653  39.250  16.701   7.955
 8068POPC   C4A33654  39.212  16.696   7.655
 8068POPC   C1B33655  39.109  16.930   8.555
 8068POPC   C2B33656  39.109  16.946   8.255
 8068POPC   C3B33657  39.139  16.986   7.955
 8068POPC   C4B33658  39.133  17.000   7.655
 8069POPC   NC333659   7.467   5.073   9.455
 8069POPC   PO433660   7.427   5.067   9.155
 8069POPC   GL133661   7.374   5.121   8.855
 8069POPC   GL233662   7.291   5.111   8.855
 8069POPC   C1A33663   7.393   5.105   8.555
 8069POPC   D2A33664   7.402   5.125   8.255
 8069POPC   C3A33665   7.390   5.121   7.955
 8069POPC   C4A33666   7.432   5.092   7.655
 8069POPC   C1B33667   7.141   5.099   8.555
 8069POPC   C2B33668   7.213   5.093   8.255
 8069POPC   C3B33669   7.156   5.007   7.955
 8069POPC   C4B33670   7.147   5.064   7.655
 8070POPC   NC333671  20.644  22.947   9.455
 8070POPC   PO433672  20.629  22.951   9.155
 8070POPC   GL133673  20.576  22.985   8.855
 8070POPC   GL233674  20.685  22.992   8.855
 8070POPC   C1A33675  20.615  22.890   8.555
 8070POPC   D2A33676  20.649  22.943   8.255
 8070POPC   C3A33677  20.633  22.970   7.955
 8070POPC   C4A33678  20.566  22.985   7.655
 8070POPC   C1B33679  20.772  23.130   8.555
 8070POPC   C2B33680  20.737  23.091   8.255
 8070POPC   C3B33681  20.786  23.079   7.955
 8070POPC   C4B33682  20.832  23.119   7.655
 8071POPC   NC333683  40.015  43.104   9.455
 8071POPC   PO433684  39.993  43.131   9.155
 8071POPC   GL133685  40.011  43.108   8.855
 8071POPC   GL233686  39.962  43.217   8.855
 8071POPC   C1A33687  39.988  43.132   8.555
 8071POPC   D2A33688  39.978  43.150   8.255
 8071POPC   C3A33689  39.998  43.113   7.955
 8071POPC   C4A33690  39.987  43.138   7.655
 8071POPC   C1B33691  39.823  43.358   8.555
 8071POPC   C2B33692  39.896  43.306   8.255
 8071POPC   C3B33693  39.818  43.283   7.955
 8071POPC   C4B33694  39.879  43.347   7.655
 8072POPC   NC333695   3.570  25.298   9.455
 8072POPC   PO433696   3.565  25.276   9.155
 8072POPC   GL133697   3.573  25.222   8.855
 8072POPC   GL233698   3.564  25.129   8.855
 8072POPC   C1A33699   3.507  25.310   8.555
 8072POPC   D2A33700   3.556  25.283   8.255
 8072POPC   C3A33701   3.565  25.227   7.955
 8072POPC   C4A33702   3.529  25.286   7.655
 8072POPC   C1B33703   3.707  25.095   8.555
 8072POPC   C2B33704   3.719  25.088   8.255
 8072POPC   C3B33705   3.680  25.097   7.955
 8072POPC   C4B33706   3.690  25.076   7.655
 8073POPC   NC333707  13.640  18.328   9.455
 8073POPC   PO433708  13.654  18.301   9.155
 8073POPC   GL133709  13.652  18.235   8.855
 8073POPC   GL233710  13.743  18.354   8.855
 8073POPC   C1A33711  13.644  18.289   8.555
 8073POPC   D2A33712  13.593  18.296   8.255
 8073POPC   C3A33713  13.590  18.259   7.955
 8073POPC   C4A33714  13.606  18.312   7.655
 8073POPC   C1B33715  13.900  18.389   8.555
 8073POPC   C2B33716  13.871  18.394   8.255
 8073POPC   C3B33717  13.877  18.334   7.955
 8073POPC   C4B33718  13.870  18.361   7.655
 8074POPC   NC333719  13.604  13.655   9.455
 8074POPC   PO433720  13.648  13.622   9.155
 8074POPC   GL133721  13.597  13.626   8.855
 8074POPC   GL233722  13.545  13.735   8.855
 8074POPC   C1A33723  13.647  13.640   8.555
 8074POPC   D2A33724  13.676  13.658   8.255
 8074POPC   C3A33725  13.605  13.605   7.955
 8074POPC   C4A33726  13.649  13.583   7.655
 8074POPC   C1B33727  13.543  13.844   8.555
 8074POPC   C2B33728  13.573  13.870   8.255
 8074POPC   C3B33729  13.493  13.875   7.955
 8074POPC   C4B33730  13.490  13.895   7.655
 8075POPC   NC333731  22.959  24.459   9.455
 8075POPC   PO433732  22.913  24.448   9.155
 8075POPC   GL133733  22.924  24.527   8.855
 8075POPC   GL233734  22.779  24.485   8.855
 8075POPC   C1A33735  22.931  24.480   8.555
 8075POPC   D2A33736  22.973  24.484   8.255
 8075POPC   C3A33737  22.978  24.441   7.955
 8075POPC   C4A33738  22.890  24.458   7.655
 8075POPC   C1B33739  22.754  24.411   8.555
 8075POPC   C2B33740  22.698  24.408   8.255
 8075POPC   C3B33741  22.668  24.406   7.955
 8075POPC   C4B33742  22.712  24.396   7.655
 8076POPC   NC333743  26.069  36.171   9.455
 8076POPC   PO433744  26.048  36.128   9.155
 8076POPC   GL133745  26.018  36.130   8.855
 8076POPC   GL233746  26.015  36.270   8.855
 8076POPC   C1A33747  26.076  36.139   8.555
 8076POPC   D2A33748  26.067  36.118   8.255
 8076POPC   C3A33749  26.027  36.175   7.955
 8076POPC   C4A33750  26.016  36.084   7.655
 8076POPC   C1B33751  25.953  36.388   8.555
 8076POPC   C2B33752  25.950  36.296   8.255
 8076POPC   C3B33753  25.957  36.361   7.955
 8076POPC   C4B33754  25.880  36.386   7.655
 8077POPC   NC333755  38.411   6.663   9.455
 8077POPC   PO433756  38.474   6.607   9.155
 8077POPC   GL133757  38.469   6.667   8.855
 8077POPC   GL233758  38.469   6.808   8.855
 8077POPC   C1A33759  38.453   6.633   8.555
 8077POPC   D2A33760  38.459   6.639   8.255
 8077POPC   C3A33761  38.407   6.624   7.955
 8077POPC   C4A33762  38.494   6.662   7.655
 8077POPC   C1B33763  38.507   6.844   8.555
 8077POPC   C2B33764  38.481   6.898   8.255
 8077POPC   C3B33765  38.491   6.932   7.955
 8077POPC   C4B33766  38.459   6.935   7.655
 8078POPC   NC333767  24.476  19.796   9.455
 8078POPC   PO433768  24.477  19.866   9.155
 8078POPC   GL133769  24.502  19.865   8.855
 8078POPC   GL233770  24.349  19.825   8.855
 8078POPC   C1A33771  24.464  19.867   8.555
 8078POPC   D2A33772  24.524  19.876   8.255
 8078POPC   C3A33773  24.505  19.816   7.955
 8078POPC   C4A33774  24.464  19.801   7.655
 8078POPC   C1B33775  24.252  19.854   8.555
 8078POPC   C2B33776  24.198  19.857   8.255
 8078POPC   C3B33777  24.207  19.867   7.955
 8078POPC   C4B33778  24.244  19.861   7.655
 8079POPC   NC333779  32.203  43.066   9.455
 8079POPC   PO433780  32.264  43.153   9.155
 8079POPC   GL133781  32.283  43.123   8.855
 8079POPC   GL233782  32.115  43.023   8.855
 8079POPC   C1A33783  32.271  43.099   8.555
 8079POPC   D2A33784  32.242  43.101   8.255
 8079POPC   C3A33785  32.269  43.094   7.955
 8079POPC   C4A33786  32.266  43.078   7.655
 8079POPC   C1B33787  32.057  42.960   8.555
 8079POPC   C2B33788  32.075  42.988   8.255
 8079POPC   C3B33789  32.050  42.912   7.955
 8079POPC   C4B33790  32.091  42.922   7.655
 8080POPC   NC333791   6.604  28.369   9.455
 8080POPC   PO433792   6.624  28.350   9.155
 8080POPC   GL133793   6.685  28.350   8.855
 8080POPC   GL233794   6.491  28.275   8.855
 8080POPC   C1A33795   6.607  28.389   8.555
 8080POPC   D2A33796   6.627  28.373   8.255
 8080POPC   C3A33797   6.608  28.347   7.955
 8080POPC   C4A33798   6.606  28.359   7.655
 8080POPC   C1B33799   6.405  28.218   8.555
 8080POPC   C2B33800   6.436  28.231   8.255
 8080POPC   C3B33801   6.387  28.292   7.955
 8080POPC   C4B33802   6.436  28.287   7.655
 8081POPC   NC333803  35.349   2.810   9.455
 8081POPC   PO433804  35.344   2.755   9.155
 8081POPC   GL133805  35.317   2.721   8.855
 8081POPC   GL233806  35.407   2.640   8.855
 8081POPC   C1A33807  35.355   2.764   8.555
 8081POPC   D2A33808  35.339   2.798   8.255
 8081POPC   C3A33809  35.313   2.754   7.955
 8081POPC   C4A33810  35.393   2.750   7.655
 8081POPC   C1B33811  35.354   2.520   8.555
 8081POPC   C2B33812  35.425   2.487   8.255
 8081POPC   C3B33813  35.441   2.478   7.955
 8081POPC   C4B33814  35.362   2.514   7.655
 8082POPC   NC333815  39.255   2.769   9.455
 8082POPC   PO433816  39.191   2.779   9.155
 8082POPC   GL133817  39.253   2.722   8.855
 8082POPC   GL233818  39.323   2.682   8.855
 8082POPC   C1A33819  39.265   2.763   8.555
 8082POPC   D2A33820  39.242   2.802   8.255
 8082POPC   C3A33821  39.264   2.810   7.955
 8082POPC   C4A33822  39.213   2.763   7.655
 8082POPC   C1B33823  39.349   2.521   8.555
 8082POPC   C2B33824  39.371   2.569   8.255
 8082POPC   C3B33825  39.359   2.554   7.955
 8082POPC   C4B33826  39.342   2.520   7.655
 8083POPC   NC333827  22.891   7.395   9.455
 8083POPC   PO433828  22.924   7.443   9.155
 8083POPC   GL133829  22.900   7.429   8.855
 8083POPC   GL233830  23.088   7.442   8.855
 8083POPC   C1A33831  22.914   7.431   8.555
 8083POPC   D2A33832  22.951   7.457   8.255
 8083POPC   C3A33833  22.894   7.396   7.955
 8083POPC   C4A33834  22.940   7.398   7.655
 8083POPC   C1B33835  23.166   7.477   8.555
 8083POPC   C2B33836  23.131   7.524   8.255
 8083POPC   C3B33837  23.206   7.543   7.955
 8083POPC   C4B33838  23.129   7.497   7.655
 8084POPC   NC333839  21.413  12.108   9.455
 8084POPC   PO433840  21.363  12.061   9.155
 8084POPC   GL133841  21.418  12.081   8.855
 8084POPC   GL233842  21.481  12.162   8.855
 8084POPC   C1A33843  21.381  12.037   8.555
 8084POPC   D2A33844  21.415  12.055   8.255
 8084POPC   C3A33845  21.432  12.063   7.955
 8084POPC   C4A33846  21.361  12.069   7.655
 8084POPC   C1B33847  21.552  12.271   8.555
 8084POPC   C2B33848  21.532  12.189   8.255
 8084POPC   C3B33849  21.600  12.210   7.955
 8084POPC   C4B33850  21.576  12.213   7.655
 8085POPC   NC333851  24.530   5.832   9.455
 8085POPC   PO433852  24.512   5.918   9.155
 8085POPC   GL133853  24.508   5.870   8.855
 8085POPC   GL233854  24.361   5.918   8.855
 8085POPC   C1A33855  24.510   5.912   8.555
 8085POPC   D2A33856  24.488   5.857   8.255
 8085POPC   C3A33857  24.502   5.897   7.955
 8085POPC   C4A33858  24.448   5.915   7.655
 8085POPC   C1B33859  24.231   5.855   8.555
 8085POPC   C2B33860  24.285   5.897   8.255
 8085POPC   C3B33861  24.231   5.831   7.955
 8085POPC   C4B33862  24.273   5.835   7.655
 8086POPC   NC333863  35.359   6.635   9.455
 8086POPC   PO433864  35.338   6.629   9.155
 8086POPC   GL133865  35.317   6.647   8.855
 8086POPC   GL233866  35.462   6.683   8.855
 8086POPC   C1A33867  35.310   6.638   8.555
 8086POPC   D2A33868  35.391   6.689   8.255
 8086POPC   C3A33869  35.386   6.622   7.955
 8086POPC   C4A33870  35.398   6.690   7.655
 8086POPC   C1B33871  35.567   6.810   8.555
 8086POPC   C2B33872  35.592   6.797   8.255
 8086POPC   C3B33873  35.537   6.819   7.955
 8086POPC   C4B33874  35.554   6.786   7.655
 8087POPC   NC333875  22.159   9.761   9.455
 8087POPC   PO433876  22.205   9.744   9.155
 8087POPC   GL133877  22.122   9.786   8.855
 8087POPC   GL233878  22.047   9.728   8.855
 8087POPC   C1A33879  22.162   9.734   8.555
 8087POPC   D2A33880  22.150   9.721   8.255
 8087POPC   C3A33881  22.173   9.771   7.955
 8087POPC   C4A33882  22.162   9.711   7.655
 8087POPC   C1B33883  21.923   9.831   8.555
 8087POPC   C2B33884  21.930   9.819   8.255
 8087POPC   C3B33885  21.893   9.824   7.955
 8087POPC   C4B33886  21.900   9.785   7.655
 8088POPC   NC333887  28.387  19.025   9.455
 8088POPC   PO433888  28.354  19.030   9.155
 8088POPC   GL133889  28.387  19.070   8.855
 8088POPC   GL233890  28.505  19.016   8.855
 8088POPC   C1A33891  28.322  19.058   8.555
 8088POPC   D2A33892  28.354  19.087   8.255
 8088POPC   C3A33893  28.367  19.088   7.955
 8088POPC   C4A33894  28.361  19.063   7.655
 8088POPC   C1B33895  28.563  18.952   8.555
 8088POPC   C2B33896  28.619  19.002   8.255
 8088POPC   C3B33897  28.589  18.978   7.955
 8088POPC   C4B33898  28.603  18.941   7.655
 8089POPC   NC333899   5.126  36.120   9.455
 8089POPC   PO433900   5.127  36.164   9.155
 8089POPC   GL133901   5.068  36.131   8.855
 8089POPC   GL233902   5.037  36.198   8.855
 8089POPC   C1A33903   5.106  36.136   8.555
 8089POPC   D2A33904   5.105  36.082   8.255
 8089POPC   C3A33905   5.129  36.084   7.955
 8089POPC   C4A33906   5.072  36.130   7.655
 8089POPC   C1B33907   4.876  36.314   8.555
 8089POPC   C2B33908   4.857  36.271   8.255
 8089POPC   C3B33909   4.914  36.252   7.955
 8089POPC   C4B33910   4.848  36.301   7.655
 8090POPC   NC333911  16.702  31.472   9.455
 8090POPC   PO433912  16.738  31.505   9.155
 8090POPC   GL133913  16.744  31.508   8.855
 8090POPC   GL233914  16.829  31.542   8.855
 8090POPC   C1A33915  16.718  31.430   8.555
 8090POPC   D2A33916  16.759  31.500   8.255
 8090POPC   C3A33917  16.688  31.491   7.955
 8090POPC   C4A33918  16.712  31.480   7.655
 8090POPC   C1B33919  16.882  31.681   8.555
 8090POPC   C2B33920  16.918  31.649   8.255
 8090POPC   C3B33921  16.901  31.635   7.955
 8090POPC   C4B33922  16.942  31.643   7.655
 8091POPC   NC333923  18.265  38.480   9.455
 8091POPC   PO433924  18.246  38.407   9.155
 8091POPC   GL133925  18.255  38.466   8.855
 8091POPC   GL233926  18.327  38.290   8.855
 8091POPC   C1A33927  18.302  38.489   8.555
 8091POPC   D2A33928  18.286  38.464   8.255
 8091POPC   C3A33929  18.260  38.449   7.955
 8091POPC   C4A33930  18.246  38.418   7.655
 8091POPC   C1B33931  18.259  38.163   8.555
 8091POPC   C2B33932  18.350  38.254   8.255
 8091POPC   C3B33933  18.298  38.247   7.955
 8091POPC   C4B33934  18.278  38.158   7.655
 8092POPC   NC333935  19.795  44.655   9.455
 8092POPC   PO433936  19.855  44.634   9.155
 8092POPC   GL133937  19.810  44.699   8.855
 8092POPC   GL233938  19.694  44.550   8.855
 8092POPC   C1A33939  19.802  44.647   8.555
 8092POPC   D2A33940  19.812  44.695   8.255
 8092POPC   C3A33941  19.868  44.642   7.955
 8092POPC   C4A33942  19.808  44.648   7.655
 8092POPC   C1B33943  19.675  44.452   8.555
 8092POPC   C2B33944  19.616  44.539   8.255
 8092POPC   C3B33945  19.659  44.462   7.955
 8092POPC   C4B33946  19.613  44.524   7.655
 8093POPC   NC333947  36.121  44.709   9.455
 8093POPC   PO433948  36.151  44.632   9.155
 8093POPC   GL133949  36.094  44.653   8.855
 8093POPC   GL233950  36.202  44.534   8.855
 8093POPC   C1A33951  36.120  44.625   8.555
 8093POPC   D2A33952  36.078  44.645   8.255
 8093POPC   C3A33953  36.151  44.660   7.955
 8093POPC   C4A33954  36.147  44.689   7.655
 8093POPC   C1B33955  36.232  44.405   8.555
 8093POPC   C2B33956  36.270  44.454   8.255
 8093POPC   C3B33957  36.243  44.424   7.955
 8093POPC   C4B33958  36.214  44.467   7.655
 8094POPC   NC333959  16.763  17.496   9.455
 8094POPC   PO433960  16.766  17.554   9.155
 8094POPC   GL133961  16.770  17.514   8.855
 8094POPC   GL233962  16.614  17.585   8.855
 8094POPC   C1A33963  16.730  17.550   8.555
 8094POPC   D2A33964  16.731  17.542   8.255
 8094POPC   C3A33965  16.769  17.477   7.955
 8094POPC   C4A33966  16.718  17.466   7.655
 8094POPC   C1B33967  16.587  17.677   8.555
 8094POPC   C2B33968  16.578  17.701   8.255
 8094POPC   C3B33969  16.539  17.727   7.955
 8094POPC   C4B33970  16.576  17.741   7.655
 8095POPC   NC333971  23.723   5.860   9.455
 8095POPC   PO433972  23.697   5.834   9.155
 8095POPC   GL133973  23.676   5.857   8.855
 8095POPC   GL233974  23.589   5.749   8.855
 8095POPC   C1A33975  23.722   5.829   8.555
 8095POPC   D2A33976  23.732   5.862   8.255
 8095POPC   C3A33977  23.733   5.843   7.955
 8095POPC   C4A33978  23.705   5.820   7.655
 8095POPC   C1B33979  23.534   5.696   8.555
 8095POPC   C2B33980  23.564   5.749   8.255
 8095POPC   C3B33981  23.470   5.743   7.955
 8095POPC   C4B33982  23.564   5.715   7.655
 8096POPC   NC333983  29.162   8.942   9.455
 8096POPC   PO433984  29.155   8.997   9.155
 8096POPC   GL133985  29.146   8.995   8.855
 8096POPC   GL233986  29.066   9.112   8.855
 8096POPC   C1A33987  29.097   8.996   8.555
 8096POPC   D2A33988  29.129   8.923   8.255
 8096POPC   C3A33989  29.150   8.927   7.955
 8096POPC   C4A33990  29.101   8.991   7.655
 8096POPC   C1B33991  28.972   9.143   8.555
 8096POPC   C2B33992  29.035   9.169   8.255
 8096POPC   C3B33993  28.975   9.178   7.955
 8096POPC   C4B33994  28.953   9.189   7.655
 8097POPC   NC333995  34.559  33.054   9.455
 8097POPC   PO433996  34.616  33.050   9.155
 8097POPC   GL133997  34.559  32.991   8.855
 8097POPC   GL233998  34.513  32.962   8.855
 8097POPC   C1A33999  34.589  33.038   8.555
 8097POPC   D2A34000  34.592  33.062   8.255
 8097POPC   C3A34001  34.611  33.025   7.955
 8097POPC   C4A34002  34.556  33.071   7.655
 8097POPC   C1B34003  34.452  32.776   8.555
 8097POPC   C2B34004  34.470  32.863   8.255
 8097POPC   C3B34005  34.450  32.820   7.955
 8097POPC   C4B34006  34.417  32.835   7.655
 8098POPC   NC334007  28.374  37.724   9.455
 8098POPC   PO434008  28.346  37.662   9.155
 8098POPC   GL134009  28.394  37.707   8.855
 8098POPC   GL234010  28.488  37.637   8.855
 8098POPC   C1A34011  28.333  37.651   8.555
 8098POPC   D2A34012  28.379  37.660   8.255
 8098POPC   C3A34013  28.419  37.638   7.955
 8098POPC   C4A34014  28.321  37.655   7.655
 8098POPC   C1B34015  28.598  37.598   8.555
 8098POPC   C2B34016  28.568  37.667   8.255
 8098POPC   C3B34017  28.606  37.646   7.955
 8098POPC   C4B34018  28.632  37.625   7.655
 8099POPC   NC334019  20.639  21.373   9.455
 8099POPC   PO434020  20.585  21.399   9.155
 8099POPC   GL134021  20.566  21.345   8.855
 8099POPC   GL234022  20.655  21.221   8.855
 8099POPC   C1A34023  20.584  21.401   8.555
 8099POPC   D2A34024  20.572  21.359   8.255
 8099POPC   C3A34025  20.657  21.421   7.955
 8099POPC   C4A34026  20.628  21.367   7.655
 8099POPC   C1B34027  20.593  21.136   8.555
 8099POPC   C2B34028  20.641  21.179   8.255
 8099POPC   C3B34029  20.618  21.125   7.955
 8099POPC   C4B34030  20.596  21.115   7.655
 8100POPC   NC334031  36.175   5.110   9.455
 8100POPC   PO434032  36.170   5.064   9.155
 8100POPC   GL134033  36.147   5.122   8.855
 8100POPC   GL234034  36.279   5.083   8.855
 8100POPC   C1A34035  36.177   5.066   8.555
 8100POPC   D2A34036  36.134   5.087   8.255
 8100POPC   C3A34037  36.171   5.104   7.955
 8100POPC   C4A34038  36.149   5.072   7.655
 8100POPC   C1B34039  36.370   5.093   8.555
 8100POPC   C2B34040  36.335   5.127   8.255
 8100POPC   C3B34041  36.372   5.107   7.955
 8100POPC   C4B34042  36.365   5.085   7.655
 8101POPC   NC334043   5.827  12.899   9.455
 8101POPC   PO434044   5.902  12.807   9.155
 8101POPC   GL134045   5.842  12.898   8.855
 8101POPC   GL234046   5.939  12.724   8.855
 8101POPC   C1A34047   5.841  12.868   8.555
 8101POPC   D2A34048   5.879  12.837   8.255
 8101POPC   C3A34049   5.886  12.839   7.955
 8101POPC   C4A34050   5.892  12.812   7.655
 8101POPC   C1B34051   5.928  12.656   8.555
 8101POPC   C2B34052   5.937  12.664   8.255
 8101POPC   C3B34053   5.973  12.627   7.955
 8101POPC   C4B34054   5.986  12.646   7.655
 8102POPC   NC334055   5.846  38.481   9.455
 8102POPC   PO434056   5.820  38.466   9.155
 8102POPC   GL134057   5.822  38.497   8.855
 8102POPC   GL234058   5.977  38.551   8.855
 8102POPC   C1A34059   5.847  38.502   8.555
 8102POPC   D2A34060   5.914  38.446   8.255
 8102POPC   C3A34061   5.839  38.422   7.955
 8102POPC   C4A34062   5.918  38.467   7.655
 8102POPC   C1B34063   6.002  38.631   8.555
 8102POPC   C2B34064   6.022  38.613   8.255
 8102POPC   C3B34065   6.072  38.601   7.955
 8102POPC   C4B34066   6.011  38.647   7.655
 8103POPC   NC334067  37.659  32.219   9.455
 8103POPC   PO434068  37.648  32.290   9.155
 8103POPC   GL134069  37.658  32.206   8.855
 8103POPC   GL234070  37.754  32.321   8.855
 8103POPC   C1A34071  37.697  32.253   8.555
 8103POPC   D2A34072  37.719  32.271   8.255
 8103POPC   C3A34073  37.635  32.268   7.955
 8103POPC   C4A34074  37.675  32.285   7.655
 8103POPC   C1B34075  37.845  32.433   8.555
 8103POPC   C2B34076  37.837  32.434   8.255
 8103POPC   C3B34077  37.845  32.488   7.955
 8103POPC   C4B34078  37.871  32.412   7.655
 8104POPC   NC334079   5.907  43.149   9.455
 8104POPC   PO434080   5.916  43.072   9.155
 8104POPC   GL134081   5.881  43.154   8.855
 8104POPC   GL234082   5.967  43.161   8.855
 8104POPC   C1A34083   5.827  43.094   8.555
 8104POPC   D2A34084   5.868  43.151   8.255
 8104POPC   C3A34085   5.843  43.116   7.955
 8104POPC   C4A34086   5.869  43.143   7.655
 8104POPC   C1B34087   6.091  43.200   8.555
 8104POPC   C2B34088   6.076  43.199   8.255
 8104POPC   C3B34089   6.122  43.283   7.955
 8104POPC   C4B34090   6.042  43.237   7.655
 8105POPC   NC334091  28.411  22.973   9.455
 8105POPC   PO434092  28.351  22.931   9.155
 8105POPC   GL134093  28.319  22.965   8.855
 8105POPC   GL234094  28.389  22.830   8.855
 8105POPC   C1A34095  28.390  22.969   8.555
 8105POPC   D2A34096  28.392  22.888   8.255
 8105POPC   C3A34097  28.354  22.896   7.955
 8105POPC   C4A34098  28.321  22.987   7.655
 8105POPC   C1B34099  28.313  22.638   8.555
 8105POPC   C2B34100  28.363  22.723   8.255
 8105POPC   C3B34101  28.408  22.645   7.955
 8105POPC   C4B34102  28.372  22.708   7.655
 8106POPC   NC334103   5.865  44.654   9.455
 8106POPC   PO434104   5.839  44.686   9.155
 8106POPC   GL134105   5.827  44.685   8.855
 8106POPC   GL234106   5.722  44.744   8.855
 8106POPC   C1A34107   5.847  44.657   8.555
 8106POPC   D2A34108   5.911  44.674   8.255
 8106POPC   C3A34109   5.901  44.677   7.955
 8106POPC   C4A34110   5.867  44.660   7.655
 8106POPC   C1B34111   5.655  44.866   8.555
 8106POPC   C2B34112   5.702  44.818   8.255
 8106POPC   C3B34113   5.696  44.858   7.955
 8106POPC   C4B34114   5.686  44.779   7.655
 8107POPC   NC334115  26.784  26.087   9.455
 8107POPC   PO434116  26.792  26.024   9.155
 8107POPC   GL134117  26.775  26.072   8.855
 8107POPC   GL234118  26.855  25.933   8.855
 8107POPC   C1A34119  26.777  26.078   8.555
 8107POPC   D2A34120  26.850  26.085   8.255
 8107POPC   C3A34121  26.793  26.087   7.955
 8107POPC   C4A34122  26.842  26.059   7.655
 8107POPC   C1B34123  27.023  25.832   8.555
 8107POPC   C2B34124  26.972  25.822   8.255
 8107POPC   C3B34125  26.986  25.828   7.955
 8107POPC   C4B34126  26.950  25.866   7.655
 8108POPC   NC334127  40.031   1.996   9.455
 8108POPC   PO434128  39.969   1.984   9.155
 8108POPC   GL134129  39.994   1.956   8.855
 8108POPC   GL234130  39.951   1.857   8.855
 8108POPC   C1A34131  39.999   1.941   8.555
 8108POPC   D2A34132  39.982   2.035   8.255
 8108POPC   C3A34133  39.973   1.999   7.955
 8108POPC   C4A34134  40.003   1.942   7.655
 8108POPC   C1B34135  39.839   1.847   8.555
 8108POPC   C2B34136  39.877   1.834   8.255
 8108POPC   C3B34137  39.820   1.831   7.955
 8108POPC   C4B34138  39.823   1.754   7.655
 8109POPC   NC334139  19.841  39.223   9.455
 8109POPC   PO434140  19.848  39.190   9.155
 8109POPC   GL134141  19.856  39.240   8.855
 8109POPC   GL234142  19.774  39.391   8.855
 8109POPC   C1A34143  19.830  39.184   8.555
 8109POPC   D2A34144  19.786  39.226   8.255
 8109POPC   C3A34145  19.822  39.228   7.955
 8109POPC   C4A34146  19.880  39.186   7.655
 8109POPC   C1B34147  19.826  39.431   8.555
 8109POPC   C2B34148  19.823  39.495   8.255
 8109POPC   C3B34149  19.796  39.428   7.955
 8109POPC   C4B34150  19.739  39.525   7.655
 8110POPC   NC334151   6.625  17.481   9.455
 8110POPC   PO434152   6.601  17.523   9.155
 8110POPC   GL134153   6.600  17.527   8.855
 8110POPC   GL234154   6.570  17.557   8.855
 8110POPC   C1A34155   6.614  17.473   8.555
 8110POPC   D2A34156   6.695  17.552   8.255
 8110POPC   C3A34157   6.692  17.543   7.955
 8110POPC   C4A34158   6.643  17.459   7.655
 8110POPC   C1B34159   6.400  17.636   8.555
 8110POPC   C2B34160   6.487  17.649   8.255
 8110POPC   C3B34161   6.457  17.668   7.955
 8110POPC   C4B34162   6.454  17.704   7.655
 8111POPC   NC334163  29.909  14.375   9.455
 8111POPC   PO434164  29.957  14.444   9.155
 8111POPC   GL134165  29.929  14.423   8.855
 8111POPC   GL234166  29.996  14.480   8.855
 8111POPC   C1A34167  29.893  14.414   8.555
 8111POPC   D2A34168  29.919  14.403   8.255
 8111POPC   C3A34169  29.884  14.372   7.955
 8111POPC   C4A34170  29.940  14.354   7.655
 8111POPC   C1B34171  30.085  14.587   8.555
 8111POPC   C2B34172  30.034  14.655   8.255
 8111POPC   C3B34173  30.005  14.571   7.955
 8111POPC   C4B34174  30.025  14.654   7.655
 8112POPC   NC334175  33.789  26.791   9.455
 8112POPC   PO434176  33.785  26.777   9.155
 8112POPC   GL134177  33.759  26.826   8.855
 8112POPC   GL234178  33.758  26.930   8.855
 8112POPC   C1A34179  33.776  26.807   8.555
 8112POPC   D2A34180  33.786  26.778   8.255
 8112POPC   C3A34181  33.825  26.829   7.955
 8112POPC   C4A34182  33.796  26.819   7.655
 8112POPC   C1B34183  33.658  26.996   8.555
 8112POPC   C2B34184  33.701  27.081   8.255
 8112POPC   C3B34185  33.653  27.024   7.955
 8112POPC   C4B34186  33.727  27.080   7.655
 8113POPC   NC334187   8.959   8.950   9.455
 8113POPC   PO434188   8.943   8.940   9.155
 8113POPC   GL134189   9.021   8.977   8.855
 8113POPC   GL234190   9.115   8.938   8.855
 8113POPC   C1A34191   8.930   9.009   8.555
 8113POPC   D2A34192   8.981   8.954   8.255
 8113POPC   C3A34193   8.928   8.950   7.955
 8113POPC   C4A34194   8.970   8.927   7.655
 8113POPC   C1B34195   9.246   8.907   8.555
 8113POPC   C2B34196   9.188   8.939   8.255
 8113POPC   C3B34197   9.190   8.908   7.955
 8113POPC   C4B34198   9.266   8.944   7.655
 8114POPC   NC334199  26.824  20.563   9.455
 8114POPC   PO434200  26.840  20.637   9.155
 8114POPC   GL134201  26.853  20.627   8.855
 8114POPC   GL234202  26.859  20.451   8.855
 8114POPC   C1A34203  26.793  20.654   8.555
 8114POPC   D2A34204  26.855  20.610   8.255
 8114POPC   C3A34205  26.833  20.583   7.955
 8114POPC   C4A34206  26.824  20.573   7.655
 8114POPC   C1B34207  26.908  20.371   8.555
 8114POPC   C2B34208  26.974  20.360   8.255
 8114POPC   C3B34209  26.878  20.426   7.955
 8114POPC   C4B34210  26.969  20.360   7.655
 8115POPC   NC334211  33.822  23.669   9.455
 8115POPC   PO434212  33.779  23.669   9.155
 8115POPC   GL134213  33.777  23.721   8.855
 8115POPC   GL234214  33.715  23.556   8.855
 8115POPC   C1A34215  33.795  23.708   8.555
 8115POPC   D2A34216  33.830  23.715   8.255
 8115POPC   C3A34217  33.771  23.713   7.955
 8115POPC   C4A34218  33.799  23.761   7.655
 8115POPC   C1B34219  33.672  23.476   8.555
 8115POPC   C2B34220  33.655  23.476   8.255
 8115POPC   C3B34221  33.723  23.503   7.955
 8115POPC   C4B34222  33.658  23.501   7.655
 8116POPC   NC334223  36.950  41.565   9.455
 8116POPC   PO434224  36.945  41.510   9.155
 8116POPC   GL134225  36.937  41.524   8.855
 8116POPC   GL234226  36.773  41.634   8.855
 8116POPC   C1A34227  36.859  41.586   8.555
 8116POPC   D2A34228  36.910  41.563   8.255
 8116POPC   C3A34229  36.911  41.551   7.955
 8116POPC   C4A34230  36.922  41.603   7.655
 8116POPC   C1B34231  36.717  41.638   8.555
 8116POPC   C2B34232  36.663  41.701   8.255
 8116POPC   C3B34233  36.716  41.663   7.955
 8116POPC   C4B34234  36.652  41.685   7.655
 8117POPC   NC334235  36.160  33.775   9.455
 8117POPC   PO434236  36.151  33.767   9.155
 8117POPC   GL134237  36.148  33.771   8.855
 8117POPC   GL234238  36.054  33.772   8.855
 8117POPC   C1A34239  36.099  33.793   8.555
 8117POPC   D2A34240  36.107  33.842   8.255
 8117POPC   C3A34241  36.126  33.840   7.955
 8117POPC   C4A34242  36.102  33.800   7.655
 8117POPC   C1B34243  35.925  33.753   8.555
 8117POPC   C2B34244  35.871  33.719   8.255
 8117POPC   C3B34245  35.909  33.724   7.955
 8117POPC   C4B34246  35.882  33.689   7.655
 8118POPC   NC334247  19.059  19.098   9.455
 8118POPC   PO434248  19.082  19.084   9.155
 8118POPC   GL134249  19.107  19.100   8.855
 8118POPC   GL234250  19.064  18.939   8.855
 8118POPC   C1A34251  19.067  19.100   8.555
 8118POPC   D2A34252  19.067  19.070   8.255
 8118POPC   C3A34253  19.035  19.042   7.955
 8118POPC   C4A34254  19.017  19.030   7.655
 8118POPC   C1B34255  19.040  18.807   8.555
 8118POPC   C2B34256  19.015  18.823   8.255
 8118POPC   C3B34257  19.013  18.791   7.955
 8118POPC   C4B34258  19.074  18.787   7.655
 8119POPC   NC334259   3.544  33.016   9.455
 8119POPC   PO434260   3.548  32.979   9.155
 8119POPC   GL134261   3.569  33.065   8.855
 8119POPC   GL234262   3.531  32.929   8.855
 8119POPC   C1A34263   3.501  33.052   8.555
 8119POPC   D2A34264   3.542  33.055   8.255
 8119POPC   C3A34265   3.550  33.072   7.955
 8119POPC   C4A34266   3.574  33.034   7.655
 8119POPC   C1B34267   3.521  32.726   8.555
 8119POPC   C2B34268   3.539  32.784   8.255
 8119POPC   C3B34269   3.479  32.752   7.955
 8119POPC   C4B34270   3.543  32.775   7.655
 8120POPC   NC334271  40.803  33.802   9.455
 8120POPC   PO434272  40.822  33.788   9.155
 8120POPC   GL134273  40.788  33.767   8.855
 8120POPC   GL234274  40.610  33.747   8.855
 8120POPC   C1A34275  40.821  33.830   8.555
 8120POPC   D2A34276  40.788  33.784   8.255
 8120POPC   C3A34277  40.808  33.784   7.955
 8120POPC   C4A34278  40.734  33.805   7.655
 8120POPC   C1B34279  40.550  33.712   8.555
 8120POPC   C2B34280  40.577  33.775   8.255
 8120POPC   C3B34281  40.504  33.735   7.955
 8120POPC   C4B34282  40.586  33.794   7.655
 8121POPC   NC334283   3.545   5.122   9.455
 8121POPC   PO434284   3.511   5.053   9.155
 8121POPC   GL134285   3.546   5.127   8.855
 8121POPC   GL234286   3.625   4.990   8.855
 8121POPC   C1A34287   3.498   5.127   8.555
 8121POPC   D2A34288   3.549   5.070   8.255
 8121POPC   C3A34289   3.564   5.108   7.955
 8121POPC   C4A34290   3.504   5.132   7.655
 8121POPC   C1B34291   3.691   4.945   8.555
 8121POPC   C2B34292   3.699   4.978   8.255
 8121POPC   C3B34293   3.719   4.902   7.955
 8121POPC   C4B34294   3.726   4.936   7.655
 8122POPC   NC334295  12.876   5.093   9.455
 8122POPC   PO434296  12.807   5.081   9.155
 8122POPC   GL134297  12.900   5.045   8.855
 8122POPC   GL234298  12.860   5.000   8.855
 8122POPC   C1A34299  12.893   5.048   8.555
 8122POPC   D2A34300  12.813   5.075   8.255
 8122POPC   C3A34301  12.810   5.086   7.955
 8122POPC   C4A34302  12.895   5.075   7.655
 8122POPC   C1B34303  12.931   4.846   8.555
 8122POPC   C2B34304  12.905   4.826   8.255
 8122POPC   C3B34305  12.865   4.878   7.955
 8122POPC   C4B34306  12.896   4.827   7.655
 8123POPC   NC334307  39.961   5.871   9.455
 8123POPC   PO434308  40.004   5.871   9.155
 8123POPC   GL134309  39.970   5.834   8.855
 8123POPC   GL234310  39.956   5.743   8.855
 8123POPC   C1A34311  40.007   5.875   8.555
 8123POPC   D2A34312  40.031   5.884   8.255
 8123POPC   C3A34313  40.025   5.908   7.955
 8123POPC   C4A34314  39.976   5.851   7.655
 8123POPC   C1B34315  39.940   5.637   8.555
 8123POPC   C2B34316  39.920   5.673   8.255
 8123POPC   C3B34317  39.955   5.592   7.955
 8123POPC   C4B34318  39.926   5.619   7.655
 8124POPC   NC334319  22.170  17.516   9.455
 8124POPC   PO434320  22.191  17.459   9.155
 8124POPC   GL134321  22.117  17.516   8.855
 8124POPC   GL234322  22.316  17.586   8.855
 8124POPC   C1A34323  22.151  17.525   8.555
 8124POPC   D2A34324  22.190  17.555   8.255
 8124POPC   C3A34325  22.124  17.468   7.955
 8124POPC   C4A34326  22.144  17.549   7.655
 8124POPC   C1B34327  22.363  17.604   8.555
 8124POPC   C2B34328  22.415  17.625   8.255
 8124POPC   C3B34329  22.432  17.587   7.955
 8124POPC   C4B34330  22.408  17.547   7.655
 8125POPC   NC334331   5.840   5.872   9.455
 8125POPC   PO434332   5.854   5.854   9.155
 8125POPC   GL134333   5.905   5.827   8.855
 8125POPC   GL234334   5.821   5.993   8.855
 8125POPC   C1A34335   5.832   5.839   8.555
 8125POPC   D2A34336   5.873   5.877   8.255
 8125POPC   C3A34337   5.840   5.865   7.955
 8125POPC   C4A34338   5.866   5.864   7.655
 8125POPC   C1B34339   5.853   6.081   8.555
 8125POPC   C2B34340   5.799   6.097   8.255
 8125POPC   C3B34341   5.825   6.104   7.955
 8125POPC   C4B34342   5.837   6.120   7.655
 8126POPC   NC334343   5.861   6.617   9.455
 8126POPC   PO434344   5.888   6.635   9.155
 8126POPC   GL134345   5.857   6.595   8.855
 8126POPC   GL234346   5.865   6.507   8.855
 8126POPC   C1A34347   5.894   6.617   8.555
 8126POPC   D2A34348   5.914   6.621   8.255
 8126POPC   C3A34349   5.868   6.596   7.955
 8126POPC   C4A34350   5.832   6.616   7.655
 8126POPC   C1B34351   5.853   6.439   8.555
 8126POPC   C2B34352   5.831   6.431   8.255
 8126POPC   C3B34353   5.795   6.390   7.955
 8126POPC   C4B34354   5.864   6.371   7.655
 8127POPC   NC334355  43.083  40.793   9.455
 8127POPC   PO434356  43.141  40.739   9.155
 8127POPC   GL134357  43.087  40.777   8.855
 8127POPC   GL234358  43.189  40.651   8.855
 8127POPC   C1A34359  43.084  40.824   8.555
 8127POPC   D2A34360  43.081  40.770   8.255
 8127POPC   C3A34361  43.064  40.826   7.955
 8127POPC   C4A34362  43.100  40.758   7.655
 8127POPC   C1B34363  43.172  40.547   8.555
 8127POPC   C2B34364  43.209  40.527   8.255
 8127POPC   C3B34365  43.218  40.552   7.955
 8127POPC   C4B34366  43.200  40.511   7.655
 8128POPC   NC334367   6.632  35.339   9.455
 8128POPC   PO434368   6.678  35.350   9.155
 8128POPC   GL134369   6.661  35.368   8.855
 8128POPC   GL234370   6.760  35.422   8.855
 8128POPC   C1A34371   6.602  35.307   8.555
 8128POPC   D2A34372   6.679  35.400   8.255
 8128POPC   C3A34373   6.676  35.382   7.955
 8128POPC   C4A34374   6.641  35.334   7.655
 8128POPC   C1B34375   6.910  35.483   8.555
 8128POPC   C2B34376   6.878  35.469   8.255
 8128POPC   C3B34377   6.883  35.495   7.955
 8128POPC   C4B34378   6.880  35.431   7.655
 8129POPC   NC334379  38.493  34.541   9.455
 8129POPC   PO434380  38.463  34.594   9.155
 8129POPC   GL134381  38.475  34.596   8.855
 8129POPC   GL234382  38.333  34.562   8.855
 8129POPC   C1A34383  38.431  34.547   8.555
 8129POPC   D2A34384  38.442  34.575   8.255
 8129POPC   C3A34385  38.454  34.599   7.955
 8129POPC   C4A34386  38.440  34.586   7.655
 8129POPC   C1B34387  38.240  34.578   8.555
 8129POPC   C2B34388  38.156  34.575   8.255
 8129POPC   C3B34389  38.171  34.553   7.955
 8129POPC   C4B34390  38.168  34.582   7.655
 8130POPC   NC334391  12.101  43.095   9.455
 8130POPC   PO434392  12.070  43.097   9.155
 8130POPC   GL134393  12.053  43.064   8.855
 8130POPC   GL234394  12.153  43.201   8.855
 8130POPC   C1A34395  12.040  43.063   8.555
 8130POPC   D2A34396  12.095  43.145   8.255
 8130POPC   C3A34397  12.045  43.122   7.955
 8130POPC   C4A34398  12.105  43.138   7.655
 8130POPC   C1B34399  12.231  43.333   8.555
 8130POPC   C2B34400  12.191  43.323   8.255
 8130POPC   C3B34401  12.193  43.297   7.955
 8130POPC   C4B34402  12.188  43.281   7.655
 8131POPC   NC334403  44.653  11.282   9.455
 8131POPC   PO434404  44.695  11.298   9.155
 8131POPC   GL134405  44.672  11.265   8.855
 8131POPC   GL234406  44.638  11.404   8.855
 8131POPC   C1A34407  44.656  11.273   8.555
 8131POPC   D2A34408  44.662  11.286   8.255
 8131POPC   C3A34409  44.689  11.251   7.955
 8131POPC   C4A34410  44.691  11.282   7.655
 8131POPC   C1B34411  44.510  11.494   8.555
 8131POPC   C2B34412  44.525  11.523   8.255
 8131POPC   C3B34413  44.508  11.507   7.955
 8131POPC   C4B34414  44.481  11.509   7.655
 8132POPC   NC334415  41.526  29.146   9.455
 8132POPC   PO434416  41.550  29.106   9.155
 8132POPC   GL134417  41.593  29.113   8.855
 8132POPC   GL234418  41.528  29.275   8.855
 8132POPC   C1A34419  41.512  29.188   8.555
 8132POPC   D2A34420  41.547  29.170   8.255
 8132POPC   C3A34421  41.537  29.127   7.955
 8132POPC   C4A34422  41.530  29.113   7.655
 8132POPC   C1B34423  41.539  29.362   8.555
 8132POPC   C2B34424  41.598  29.350   8.255
 8132POPC   C3B34425  41.594  29.414   7.955
 8132POPC   C4B34426  41.574  29.426   7.655
 8133POPC   NC334427   8.163  32.282   9.455
 8133POPC   PO434428   8.151  32.254   9.155
 8133POPC   GL134429   8.158  32.264   8.855
 8133POPC   GL234430   8.294  32.106   8.855
 8133POPC   C1A34431   8.203  32.213   8.555
 8133POPC   D2A34432   8.148  32.275   8.255
 8133POPC   C3A34433   8.220  32.281   7.955
 8133POPC   C4A34434   8.201  32.223   7.655
 8133POPC   C1B34435   8.306  32.057   8.555
 8133POPC   C2B34436   8.288  32.013   8.255
 8133POPC   C3B34437   8.326  32.038   7.955
 8133POPC   C4B34438   8.281  32.048   7.655
 8134POPC   NC334439   6.612  40.027   9.455
 8134POPC   PO434440   6.655  40.024   9.155
 8134POPC   GL134441   6.601  39.983   8.855
 8134POPC   GL234442   6.598  39.926   8.855
 8134POPC   C1A34443   6.669  39.960   8.555
 8134POPC   D2A34444   6.653  40.015   8.255
 8134POPC   C3A34445   6.643  39.992   7.955
 8134POPC   C4A34446   6.616  39.994   7.655
 8134POPC   C1B34447   6.570  39.761   8.555
 8134POPC   C2B34448   6.561  39.791   8.255
 8134POPC   C3B34449   6.497  39.778   7.955
 8134POPC   C4B34450   6.483  39.812   7.655
 8135POPC   NC334451  25.255  18.312   9.455
 8135POPC   PO434452  25.230  18.238   9.155
 8135POPC   GL134453  25.313  18.261   8.855
 8135POPC   GL234454  25.146  18.351   8.855
 8135POPC   C1A34455  25.311  18.322   8.555
 8135POPC   D2A34456  25.281  18.281   8.255
 8135POPC   C3A34457  25.248  18.333   7.955
 8135POPC   C4A34458  25.299  18.245   7.655
 8135POPC   C1B34459  25.064  18.435   8.555
 8135POPC   C2B34460  25.083  18.389   8.255
 8135POPC   C3B34461  25.045  18.401   7.955
 8135POPC   C4B34462  25.071  18.417   7.655
 8136POPC   NC334463  32.200  42.330   9.455
 8136POPC   PO434464  32.262  42.378   9.155
 8136POPC   GL134465  32.225  42.365   8.855
 8136POPC   GL234466  32.236  42.441   8.855
 8136POPC   C1A34467  32.239  42.288   8.555
 8136POPC   D2A34468  32.252  42.380   8.255
 8136POPC   C3A34469  32.264  42.317   7.955
 8136POPC   C4A34470  32.228  42.318   7.655
 8136POPC   C1B34471  32.245  42.564   8.555
 8136POPC   C2B34472  32.185  42.610   8.255
 8136POPC   C3B34473  32.199  42.536   7.955
 8136POPC   C4B34474  32.193  42.604   7.655
 8137POPC   NC334475  12.902  15.907   9.455
 8137POPC   PO434476  12.872  15.956   9.155
 8137POPC   GL134477  12.856  15.909   8.855
 8137POPC   GL234478  12.949  15.852   8.855
 8137POPC   C1A34479  12.807  15.909   8.555
 8137POPC   D2A34480  12.875  15.983   8.255
 8137POPC   C3A34481  12.897  15.921   7.955
 8137POPC   C4A34482  12.855  15.982   7.655
 8137POPC   C1B34483  13.036  15.823   8.555
 8137POPC   C2B34484  13.019  15.753   8.255
 8137POPC   C3B34485  13.054  15.769   7.955
 8137POPC   C4B34486  13.059  15.802   7.655
 8138POPC   NC334487  19.017   9.786   9.455
 8138POPC   PO434488  19.010   9.788   9.155
 8138POPC   GL134489  19.059   9.777   8.855
 8138POPC   GL234490  19.153   9.762   8.855
 8138POPC   C1A34491  19.045   9.722   8.555
 8138POPC   D2A34492  19.045   9.725   8.255
 8138POPC   C3A34493  19.084   9.749   7.955
 8138POPC   C4A34494  19.019   9.753   7.655
 8138POPC   C1B34495  19.263   9.734   8.555
 8138POPC   C2B34496  19.311   9.779   8.255
 8138POPC   C3B34497  19.303   9.780   7.955
 8138POPC   C4B34498  19.269   9.731   7.655
 8139POPC   NC334499  43.097  37.680   9.455
 8139POPC   PO434500  43.130  37.718   9.155
 8139POPC   GL134501  43.077  37.712   8.855
 8139POPC   GL234502  43.230  37.660   8.855
 8139POPC   C1A34503  43.108  37.659   8.555
 8139POPC   D2A34504  43.091  37.728   8.255
 8139POPC   C3A34505  43.108  37.715   7.955
 8139POPC   C4A34506  43.148  37.670   7.655
 8139POPC   C1B34507  43.355  37.671   8.555
 8139POPC   C2B34508  43.329  37.672   8.255
 8139POPC   C3B34509  43.360  37.623   7.955
 8139POPC   C4B34510  43.319  37.612   7.655
 8140POPC   NC334511  14.435  12.883   9.455
 8140POPC   PO434512  14.436  12.845   9.155
 8140POPC   GL134513  14.444  12.838   8.855
 8140POPC   GL234514  14.496  12.889   8.855
 8140POPC   C1A34515  14.414  12.851   8.555
 8140POPC   D2A34516  14.374  12.809   8.255
 8140POPC   C3A34517  14.398  12.891   7.955
 8140POPC   C4A34518  14.372  12.837   7.655
 8140POPC   C1B34519  14.636  12.937   8.555
 8140POPC   C2B34520  14.633  12.948   8.255
 8140POPC   C3B34521  14.651  12.963   7.955
 8140POPC   C4B34522  14.600  12.979   7.655
 8141POPC   NC334523  32.247   0.447   9.455
 8141POPC   PO434524  32.259   0.398   9.155
 8141POPC   GL134525  32.257   0.471   8.855
 8141POPC   GL234526  32.417   0.414   8.855
 8141POPC   C1A34527  32.210   0.431   8.555
 8141POPC   D2A34528  32.294   0.415   8.255
 8141POPC   C3A34529  32.199   0.442   7.955
 8141POPC   C4A34530  32.212   0.433   7.655
 8141POPC   C1B34531  32.487   0.501   8.555
 8141POPC   C2B34532  32.453   0.450   8.255
 8141POPC   C3B34533  32.494   0.492   7.955
 8141POPC   C4B34534  32.486   0.489   7.655
 8142POPC   NC334535  42.346  20.599   9.455
 8142POPC   PO434536  42.326  20.598   9.155
 8142POPC   GL134537  42.365  20.610   8.855
 8142POPC   GL234538  42.235  20.664   8.855
 8142POPC   C1A34539  42.325  20.601   8.555
 8142POPC   D2A34540  42.307  20.591   8.255
 8142POPC   C3A34541  42.351  20.616   7.955
 8142POPC   C4A34542  42.377  20.607   7.655
 8142POPC   C1B34543  42.055  20.587   8.555
 8142POPC   C2B34544  42.116  20.618   8.255
 8142POPC   C3B34545  42.105  20.602   7.955
 8142POPC   C4B34546  42.060  20.600   7.655
 8143POPC   NC334547  21.399  43.927   9.455
 8143POPC   PO434548  21.336  43.926   9.155
 8143POPC   GL134549  21.340  43.849   8.855
 8143POPC   GL234550  21.214  43.856   8.855
 8143POPC   C1A34551  21.425  43.921   8.555
 8143POPC   D2A34552  21.398  43.861   8.255
 8143POPC   C3A34553  21.406  43.902   7.955
 8143POPC   C4A34554  21.414  43.848   7.655
 8143POPC   C1B34555  21.093  43.929   8.555
 8143POPC   C2B34556  21.119  43.857   8.255
 8143POPC   C3B34557  21.173  43.924   7.955
 8143POPC   C4B34558  21.184  43.898   7.655
 8144POPC   NC334559  12.105   2.750   9.455
 8144POPC   PO434560  12.062   2.772   9.155
 8144POPC   GL134561  12.119   2.779   8.855
 8144POPC   GL234562  11.949   2.750   8.855
 8144POPC   C1A34563  12.035   2.755   8.555
 8144POPC   D2A34564  12.107   2.716   8.255
 8144POPC   C3A34565  12.107   2.805   7.955
 8144POPC   C4A34566  12.119   2.802   7.655
 8144POPC   C1B34567  11.858   2.651   8.555
 8144POPC   C2B34568  11.894   2.680   8.255
 8144POPC   C3B34569  11.809   2.629   7.955
 8144POPC   C4B34570  11.894   2.691   7.655
 8145POPC   NC334571   3.584  24.506   9.455
 8145POPC   PO434572   3.517  24.532   9.155
 8145POPC   GL134573   3.494  24.528   8.855
 8145POPC   GL234574   3.633  24.573   8.855
 8145POPC   C1A34575   3.497  24.472   8.555
 8145POPC   D2A34576   3.492  24.451   8.255
 8145POPC   C3A34577   3.500  24.478   7.955
 8145POPC   C4A34578   3.551  24.509   7.655
 8145POPC   C1B34579   3.737  24.640   8.555
 8145POPC   C2B34580   3.721  24.682   8.255
 8145POPC   C3B34581   3.749  24.680   7.955
 8145POPC   C4B34582   3.700  24.597   7.655
 8146POPC   NC334583   5.096  18.279   9.455
 8146POPC   PO434584   5.072  18.314   9.155
 8146POPC   GL134585   5.106  18.277   8.855
 8146POPC   GL234586   5.239  18.268   8.855
 8146POPC   C1A34587   5.081  18.298   8.555
 8146POPC   D2A34588   5.125  18.242   8.255
 8146POPC   C3A34589   5.066  18.305   7.955
 8146POPC   C4A34590   5.073  18.314   7.655
 8146POPC   C1B34591   5.299  18.249   8.555
 8146POPC   C2B34592   5.326  18.314   8.255
 8146POPC   C3B34593   5.333  18.259   7.955
 8146POPC   C4B34594   5.358  18.239   7.655
 8147POPC   NC334595  17.543  29.873   9.455
 8147POPC   PO434596  17.489  29.954   9.155
 8147POPC   GL134597  17.489  29.888   8.855
 8147POPC   GL234598  17.436  29.990   8.855
 8147POPC   C1A34599  17.534  29.913   8.555
 8147POPC   D2A34600  17.523  29.956   8.255
 8147POPC   C3A34601  17.524  29.956   7.955
 8147POPC   C4A34602  17.481  29.957   7.655
 8147POPC   C1B34603  17.455  30.112   8.555
 8147POPC   C2B34604  17.437  30.184   8.255
 8147POPC   C3B34605  17.390  30.130   7.955
 8147POPC   C4B34606  17.406  30.116   7.655
 8148POPC   NC334607  40.036  31.517   9.455
 8148POPC   PO434608  40.008  31.435   9.155
 8148POPC   GL134609  40.033  31.473   8.855
 8148POPC   GL234610  40.088  31.367   8.855
 8148POPC   C1A34611  40.003  31.454   8.555
 8148POPC   D2A34612  39.978  31.522   8.255
 8148POPC   C3A34613  40.049  31.470   7.955
 8148POPC   C4A34614  39.989  31.474   7.655
 8148POPC   C1B34615  40.218  31.255   8.555
 8148POPC   C2B34616  40.147  31.309   8.255
 8148POPC   C3B34617  40.163  31.352   7.955
 8148POPC   C4B34618  40.177  31.307   7.655
 8149POPC   NC334619  39.246  31.522   9.455
 8149POPC   PO434620  39.210  31.423   9.155
 8149POPC   GL134621  39.187  31.477   8.855
 8149POPC   GL234622  39.273  31.588   8.855
 8149POPC   C1A34623  39.242  31.479   8.555
 8149POPC   D2A34624  39.182  31.453   8.255
 8149POPC   C3A34625  39.214  31.456   7.955
 8149POPC   C4A34626  39.238  31.426   7.655
 8149POPC   C1B34627  39.326  31.721   8.555
 8149POPC   C2B34628  39.320  31.723   8.255
 8149POPC   C3B34629  39.288  31.754   7.955
 8149POPC   C4B34630  39.305  31.733   7.655
 8150POPC   NC334631  17.484  43.135   9.455
 8150POPC   PO434632  17.484  43.100   9.155
 8150POPC   GL134633  17.534  43.079   8.855
 8150POPC   GL234634  17.627  43.157   8.855
 8150POPC   C1A34635  17.481  43.138   8.555
 8150POPC   D2A34636  17.555  43.112   8.255
 8150POPC   C3A34637  17.501  43.061   7.955
 8150POPC   C4A34638  17.471  43.095   7.655
 8150POPC   C1B34639  17.757  43.082   8.555
 8150POPC   C2B34640  17.754  43.109   8.255
 8150POPC   C3B34641  17.793  43.072   7.955
 8150POPC   C4B34642  17.805  43.107   7.655
 8151POPC   NC334643   1.197  23.724   9.455
 8151POPC   PO434644   1.219  23.752   9.155
 8151POPC   GL134645   1.176  23.720   8.855
 8151POPC   GL234646   1.281  23.671   8.855
 8151POPC   C1A34647   1.231  23.733   8.555
 8151POPC   D2A34648   1.185  23.739   8.255
 8151POPC   C3A34649   1.179  23.690   7.955
 8151POPC   C4A34650   1.227  23.706   7.655
 8151POPC   C1B34651   1.393  23.560   8.555
 8151POPC   C2B34652   1.477  23.602   8.255
 8151POPC   C3B34653   1.409  23.582   7.955
 8151POPC   C4B34654   1.427  23.568   7.655
 8152POPC   NC334655  43.159  24.490   9.455
 8152POPC   PO434656  43.159  24.449   9.155
 8152POPC   GL134657  43.074  24.486   8.855
 8152POPC   GL234658  42.968  24.472   8.855
 8152POPC   C1A34659  43.135  24.440   8.555
 8152POPC   D2A34660  43.150  24.468   8.255
 8152POPC   C3A34661  43.097  24.517   7.955
 8152POPC   C4A34662  43.090  24.498   7.655
 8152POPC   C1B34663  42.878  24.416   8.555
 8152POPC   C2B34664  42.883  24.382   8.255
 8152POPC   C3B34665  42.913  24.363   7.955
 8152POPC   C4B34666  42.876  24.457   7.655
 8153POPC   NC334667  44.665  42.332   9.455
 8153POPC   PO434668  44.652  42.308   9.155
 8153POPC   GL134669  44.711  42.377   8.855
 8153POPC   GL234670  44.580  42.404   8.855
 8153POPC   C1A34671  44.616  42.338   8.555
 8153POPC   D2A34672  44.634  42.351   8.255
 8153POPC   C3A34673  44.686  42.285   7.955
 8153POPC   C4A34674  44.621  42.351   7.655
 8153POPC   C1B34675  44.582  42.598   8.555
 8153POPC   C2B34676  44.538  42.579   8.255
 8153POPC   C3B34677  44.536  42.522   7.955
 8153POPC   C4B34678  44.569  42.597   7.655
 8154POPC   NC334679  39.251  41.515   9.455
 8154POPC   PO434680  39.241  41.561   9.155
 8154POPC   GL134681  39.230  41.531   8.855
 8154POPC   GL234682  39.105  41.622   8.855
 8154POPC   C1A34683  39.207  41.535   8.555
 8154POPC   D2A34684  39.219  41.577   8.255
 8154POPC   C3A34685  39.278  41.586   7.955
 8154POPC   C4A34686  39.280  41.554   7.655
 8154POPC   C1B34687  39.050  41.748   8.555
 8154POPC   C2B34688  39.020  41.715   8.255
 8154POPC   C3B34689  39.032  41.705   7.955
 8154POPC   C4B34690  39.075  41.697   7.655
 8155POPC   NC334691  24.520  37.669   9.455
 8155POPC   PO434692  24.488  37.643   9.155
 8155POPC   GL134693  24.459  37.719   8.855
 8155POPC   GL234694  24.421  37.767   8.855
 8155POPC   C1A34695  24.460  37.647   8.555
 8155POPC   D2A34696  24.464  37.680   8.255
 8155POPC   C3A34697  24.485  37.654   7.955
 8155POPC   C4A34698  24.451  37.662   7.655
 8155POPC   C1B34699  24.285  37.847   8.555
 8155POPC   C2B34700  24.292  37.826   8.255
 8155POPC   C3B34701  24.246  37.781   7.955
 8155POPC   C4B34702  24.286  37.782   7.655
 8156POPC   NC334703  30.657  24.495   9.455
 8156POPC   PO434704  30.650  24.456   9.155
 8156POPC   GL134705  30.662  24.471   8.855
 8156POPC   GL234706  30.800  24.518   8.855
 8156POPC   C1A34707  30.732  24.537   8.555
 8156POPC   D2A34708  30.694  24.472   8.255
 8156POPC   C3A34709  30.687  24.441   7.955
 8156POPC   C4A34710  30.734  24.510   7.655
 8156POPC   C1B34711  30.909  24.549   8.555
 8156POPC   C2B34712  30.899  24.505   8.255
 8156POPC   C3B34713  30.985  24.586   7.955
 8156POPC   C4B34714  30.943  24.572   7.655
 8157POPC   NC334715   3.540   5.918   9.455
 8157POPC   PO434716   3.583   5.868   9.155
 8157POPC   GL134717   3.573   5.860   8.855
 8157POPC   GL234718   3.502   5.793   8.855
 8157POPC   C1A34719   3.589   5.873   8.555
 8157POPC   D2A34720   3.577   5.828   8.255
 8157POPC   C3A34721   3.502   5.851   7.955
 8157POPC   C4A34722   3.550   5.913   7.655
 8157POPC   C1B34723   3.474   5.645   8.555
 8157POPC   C2B34724   3.490   5.628   8.255
 8157POPC   C3B34725   3.461   5.590   7.955
 8157POPC   C4B34726   3.442   5.648   7.655
 8158POPC   NC334727  40.788  41.520   9.455
 8158POPC   PO434728  40.752  41.566   9.155
 8158POPC   GL134729  40.776  41.533   8.855
 8158POPC   GL234730  40.726  41.617   8.855
 8158POPC   C1A34731  40.733  41.533   8.555
 8158POPC   D2A34732  40.752  41.548   8.255
 8158POPC   C3A34733  40.738  41.516   7.955
 8158POPC   C4A34734  40.738  41.519   7.655
 8158POPC   C1B34735  40.673  41.808   8.555
 8158POPC   C2B34736  40.648  41.734   8.255
 8158POPC   C3B34737  40.617  41.747   7.955
 8158POPC   C4B34738  40.702  41.762   7.655
 8159POPC   NC334739  43.144   0.395   9.455
 8159POPC   PO434740  43.090   0.448   9.155
 8159POPC   GL134741  43.123   0.466   8.855
 8159POPC   GL234742  43.198   0.463   8.855
 8159POPC   C1A34743  43.126   0.391   8.555
 8159POPC   D2A34744  43.097   0.439   8.255
 8159POPC   C3A34745  43.148   0.437   7.955
 8159POPC   C4A34746  43.133   0.395   7.655
 8159POPC   C1B34747  43.368   0.556   8.555
 8159POPC   C2B34748  43.313   0.477   8.255
 8159POPC   C3B34749  43.318   0.539   7.955
 8159POPC   C4B34750  43.370   0.484   7.655
 8160POPC   NC334751   8.988  33.815   9.455
 8160POPC   PO434752   9.015  33.806   9.155
 8160POPC   GL134753   8.943  33.816   8.855
 8160POPC   GL234754   8.889  33.842   8.855
 8160POPC   C1A34755   9.012  33.836   8.555
 8160POPC   D2A34756   8.947  33.839   8.255
 8160POPC   C3A34757   8.962  33.842   7.955
 8160POPC   C4A34758   8.945  33.811   7.655
 8160POPC   C1B34759   8.699  33.902   8.555
 8160POPC   C2B34760   8.737  33.941   8.255
 8160POPC   C3B34761   8.751  33.948   7.955
 8160POPC   C4B34762   8.790  33.921   7.655
 8161POPC   NC334763  26.858  35.396   9.455
 8161POPC   PO434764  26.783  35.387   9.155
 8161POPC   GL134765  26.804  35.320   8.855
 8161POPC   GL234766  26.736  35.401   8.855
 8161POPC   C1A34767  26.836  35.372   8.555
 8161POPC   D2A34768  26.824  35.344   8.255
 8161POPC   C3A34769  26.830  35.380   7.955
 8161POPC   C4A34770  26.780  35.355   7.655
 8161POPC   C1B34771  26.622  35.394   8.555
 8161POPC   C2B34772  26.586  35.379   8.255
 8161POPC   C3B34773  26.592  35.400   7.955
 8161POPC   C4B34774  26.594  35.439   7.655
 8162POPC   NC334775   4.322  22.955   9.455
 8162POPC   PO434776   4.270  22.956   9.155
 8162POPC   GL134777   4.298  22.900   8.855
 8162POPC   GL234778   4.449  22.953   8.855
 8162POPC   C1A34779   4.353  22.920   8.555
 8162POPC   D2A34780   4.273  22.912   8.255
 8162POPC   C3A34781   4.321  22.975   7.955
 8162POPC   C4A34782   4.356  22.899   7.655
 8162POPC   C1B34783   4.506  22.987   8.555
 8162POPC   C2B34784   4.544  23.075   8.255
 8162POPC   C3B34785   4.516  23.036   7.955
 8162POPC   C4B34786   4.592  23.016   7.655
 8163POPC   NC334787   5.820  29.179   9.455
 8163POPC   PO434788   5.863  29.124   9.155
 8163POPC   GL134789   5.910  29.134   8.855
 8163POPC   GL234790   5.799  29.050   8.855
 8163POPC   C1A34791   5.913  29.168   8.555
 8163POPC   D2A34792   5.839  29.126   8.255
 8163POPC   C3A34793   5.836  29.097   7.955
 8163POPC   C4A34794   5.882  29.134   7.655
 8163POPC   C1B34795   5.747  28.887   8.555
 8163POPC   C2B34796   5.721  28.884   8.255
 8163POPC   C3B34797   5.739  28.950   7.955
 8163POPC   C4B34798   5.706  28.918   7.655
 8164POPC   NC334799  37.633  35.369   9.455
 8164POPC   PO434800  37.670  35.401   9.155
 8164POPC   GL134801  37.709  35.387   8.855
 8164POPC   GL234802  37.696  35.237   8.855
 8164POPC   C1A34803  37.666  35.314   8.555
 8164POPC   D2A34804  37.714  35.359   8.255
 8164POPC   C3A34805  37.691  35.347   7.955
 8164POPC   C4A34806  37.726  35.333   7.655
 8164POPC   C1B34807  37.694  35.091   8.555
 8164POPC   C2B34808  37.673  35.060   8.255
 8164POPC   C3B34809  37.726  35.124   7.955
 8164POPC   C4B34810  37.661  35.145   7.655
 8165POPC   NC334811  32.246  35.345   9.455
 8165POPC   PO434812  32.216  35.393   9.155
 8165POPC   GL134813  32.274  35.396   8.855
 8165POPC   GL234814  32.281  35.496   8.855
 8165POPC   C1A34815  32.201  35.380   8.555
 8165POPC   D2A34816  32.250  35.304   8.255
 8165POPC   C3A34817  32.273  35.385   7.955
 8165POPC   C4A34818  32.277  35.331   7.655
 8165POPC   C1B34819  32.327  35.609   8.555
 8165POPC   C2B34820  32.337  35.622   8.255
 8165POPC   C3B34821  32.340  35.558   7.955
 8165POPC   C4B34822  32.321  35.578   7.655
 8166POPC   NC334823   6.664  11.301   9.455
 8166POPC   PO434824   6.691  11.281   9.155
 8166POPC   GL134825   6.664  11.274   8.855
 8166POPC   GL234826   6.613  11.390   8.855
 8166POPC   C1A34827   6.683  11.302   8.555
 8166POPC   D2A34828   6.638  11.323   8.255
 8166POPC   C3A34829   6.667  11.285   7.955
 8166POPC   C4A34830   6.650  11.342   7.655
 8166POPC   C1B34831   6.660  11.565   8.555
 8166POPC   C2B34832   6.658  11.550   8.255
 8166POPC   C3B34833   6.630  11.533   7.955
 8166POPC   C4B34834   6.600  11.506   7.655
 8167POPC   NC334835   5.127   5.091   9.455
 8167POPC   PO434836   5.111   5.087   9.155
 8167POPC   GL134837   5.054   5.107   8.855
 8167POPC   GL234838   5.176   5.101   8.855
 8167POPC   C1A34839   5.061   5.083   8.555
 8167POPC   D2A34840   5.088   5.097   8.255
 8167POPC   C3A34841   5.064   5.140   7.955
 8167POPC   C4A34842   5.103   5.084   7.655
 8167POPC   C1B34843   5.336   5.097   8.555
 8167POPC   C2B34844   5.316   5.119   8.255
 8167POPC   C3B34845   5.325   5.080   7.955
 8167POPC   C4B34846   5.325   5.085   7.655
 8168POPC   NC334847  36.089  26.069   9.455
 8168POPC   PO434848  36.156  26.003   9.155
 8168POPC   GL134849  36.107  26.012   8.855
 8168POPC   GL234850  36.234  26.012   8.855
 8168POPC   C1A34851  36.135  25.997   8.555
 8168POPC   D2A34852  36.166  25.998   8.255
 8168POPC   C3A34853  36.081  26.001   7.955
 8168POPC   C4A34854  36.163  26.022   7.655
 8168POPC   C1B34855  36.322  25.899   8.555
 8168POPC   C2B34856  36.321  25.860   8.255
 8168POPC   C3B34857  36.381  25.879   7.955
 8168POPC   C4B34858  36.317  25.910   7.655
 8169POPC   NC334859  15.202  19.803   9.455
 8169POPC   PO434860  15.175  19.860   9.155
 8169POPC   GL134861  15.146  19.838   8.855
 8169POPC   GL234862  15.330  19.826   8.855
 8169POPC   C1A34863  15.196  19.816   8.555
 8169POPC   D2A34864  15.186  19.830   8.255
 8169POPC   C3A34865  15.201  19.795   7.955
 8169POPC   C4A34866  15.164  19.828   7.655
 8169POPC   C1B34867  15.402  19.892   8.555
 8169POPC   C2B34868  15.474  19.802   8.255
 8169POPC   C3B34869  15.476  19.843   7.955
 8169POPC   C4B34870  15.381  19.883   7.655
 8170POPC   NC334871  19.071  21.388   9.455
 8170POPC   PO434872  19.060  21.393   9.155
 8170POPC   GL134873  19.096  21.389   8.855
 8170POPC   GL234874  19.091  21.472   8.855
 8170POPC   C1A34875  19.056  21.365   8.555
 8170POPC   D2A34876  19.085  21.344   8.255
 8170POPC   C3A34877  19.025  21.382   7.955
 8170POPC   C4A34878  19.102  21.415   7.655
 8170POPC   C1B34879  19.218  21.588   8.555
 8170POPC   C2B34880  19.184  21.585   8.255
 8170POPC   C3B34881  19.178  21.606   7.955
 8170POPC   C4B34882  19.130  21.594   7.655
 8171POPC   NC334883  26.835  36.146   9.455
 8171POPC   PO434884  26.867  36.089   9.155
 8171POPC   GL134885  26.832  36.105   8.855
 8171POPC   GL234886  26.792  36.230   8.855
 8171POPC   C1A34887  26.783  36.078   8.555
 8171POPC   D2A34888  26.865  36.129   8.255
 8171POPC   C3A34889  26.774  36.149   7.955
 8171POPC   C4A34890  26.812  36.167   7.655
 8171POPC   C1B34891  26.783  36.337   8.555
 8171POPC   C2B34892  26.865  36.348   8.255
 8171POPC   C3B34893  26.866  36.346   7.955
 8171POPC   C4B34894  26.815  36.348   7.655
 8172POPC   NC334895  27.589   2.729   9.455
 8172POPC   PO434896  27.550   2.758   9.155
 8172POPC   GL134897  27.591   2.744   8.855
 8172POPC   GL234898  27.711   2.737   8.855
 8172POPC   C1A34899  27.566   2.721   8.555
 8172POPC   D2A34900  27.573   2.766   8.255
 8172POPC   C3A34901  27.638   2.755   7.955
 8172POPC   C4A34902  27.606   2.725   7.655
 8172POPC   C1B34903  27.832   2.670   8.555
 8172POPC   C2B34904  27.878   2.712   8.255
 8172POPC   C3B34905  27.875   2.694   7.955
 8172POPC   C4B34906  27.782   2.674   7.655
 8173POPC   NC334907  29.139  37.673   9.455
 8173POPC   PO434908  29.124  37.668   9.155
 8173POPC   GL134909  29.153  37.641   8.855
 8173POPC   GL234910  29.202  37.575   8.855
 8173POPC   C1A34911  29.106  37.639   8.555
 8173POPC   D2A34912  29.111  37.641   8.255
 8173POPC   C3A34913  29.144  37.721   7.955
 8173POPC   C4A34914  29.182  37.630   7.655
 8173POPC   C1B34915  29.221  37.402   8.555
 8173POPC   C2B34916  29.216  37.397   8.255
 8173POPC   C3B34917  29.218  37.454   7.955
 8173POPC   C4B34918  29.217  37.481   7.655
 8174POPC   NC334919  11.347  29.119   9.455
 8174POPC   PO434920  11.338  29.189   9.155
 8174POPC   GL134921  11.260  29.122   8.855
 8174POPC   GL234922  11.159  29.075   8.855
 8174POPC   C1A34923  11.326  29.122   8.555
 8174POPC   D2A34924  11.322  29.174   8.255
 8174POPC   C3A34925  11.347  29.170   7.955
 8174POPC   C4A34926  11.331  29.105   7.655
 8174POPC   C1B34927  11.042  29.004   8.555
 8174POPC   C2B34928  11.078  29.005   8.255
 8174POPC   C3B34929  11.030  29.016   7.955
 8174POPC   C4B34930  11.114  29.089   7.655
 8175POPC   NC334931  36.117  24.486   9.455
 8175POPC   PO434932  36.134  24.489   9.155
 8175POPC   GL134933  36.089  24.496   8.855
 8175POPC   GL234934  36.205  24.428   8.855
 8175POPC   C1A34935  36.157  24.533   8.555
 8175POPC   D2A34936  36.117  24.443   8.255
 8175POPC   C3A34937  36.095  24.539   7.955
 8175POPC   C4A34938  36.144  24.456   7.655
 8175POPC   C1B34939  36.302  24.370   8.555
 8175POPC   C2B34940  36.320  24.349   8.255
 8175POPC   C3B34941  36.303  24.357   7.955
 8175POPC   C4B34942  36.362  24.302   7.655
 8176POPC   NC334943  31.464  40.796   9.455
 8176POPC   PO434944  31.484  40.749   9.155
 8176POPC   GL134945  31.465  40.802   8.855
 8176POPC   GL234946  31.450  40.894   8.855
 8176POPC   C1A34947  31.516  40.812   8.555
 8176POPC   D2A34948  31.459  40.809   8.255
 8176POPC   C3A34949  31.497  40.744   7.955
 8176POPC   C4A34950  31.464  40.831   7.655
 8176POPC   C1B34951  31.363  41.037   8.555
 8176POPC   C2B34952  31.427  40.984   8.255
 8176POPC   C3B34953  31.431  41.003   7.955
 8176POPC   C4B34954  31.368  41.055   7.655
 8177POPC   NC334955  26.023  40.035   9.455
 8177POPC   PO434956  26.090  39.960   9.155
 8177POPC   GL134957  26.060  39.991   8.855
 8177POPC   GL234958  25.950  40.094   8.855
 8177POPC   C1A34959  26.048  40.055   8.555
 8177POPC   D2A34960  25.992  40.027   8.255
 8177POPC   C3A34961  26.080  39.987   7.955
 8177POPC   C4A34962  26.019  40.055   7.655
 8177POPC   C1B34963  25.850  40.068   8.555
 8177POPC   C2B34964  25.771  40.073   8.255
 8177POPC   C3B34965  25.856  40.074   7.955
 8177POPC   C4B34966  25.781  40.149   7.655
 8178POPC   NC334967  15.132  11.276   9.455
 8178POPC   PO434968  15.206  11.291   9.155
 8178POPC   GL134969  15.170  11.341   8.855
 8178POPC   GL234970  15.090  11.409   8.855
 8178POPC   C1A34971  15.163  11.303   8.555
 8178POPC   D2A34972  15.224  11.315   8.255
 8178POPC   C3A34973  15.160  11.321   7.955
 8178POPC   C4A34974  15.200  11.254   7.655
 8178POPC   C1B34975  15.035  11.543   8.555
 8178POPC   C2B34976  14.996  11.519   8.255
 8178POPC   C3B34977  15.077  11.485   7.955
 8178POPC   C4B34978  15.020  11.539   7.655
 8179POPC   NC334979   5.135  39.214   9.455
 8179POPC   PO434980   5.095  39.233   9.155
 8179POPC   GL134981   5.100  39.264   8.855
 8179POPC   GL234982   5.030  39.099   8.855
 8179POPC   C1A34983   5.138  39.186   8.555
 8179POPC   D2A34984   5.069  39.232   8.255
 8179POPC   C3A34985   5.085  39.244   7.955
 8179POPC   C4A34986   5.089  39.265   7.655
 8179POPC   C1B34987   4.962  39.034   8.555
 8179POPC   C2B34988   5.014  38.961   8.255
 8179POPC   C3B34989   5.016  39.014   7.955
 8179POPC   C4B34990   4.956  39.047   7.655
 8180POPC   NC334991  13.660   3.502   9.455
 8180POPC   PO434992  13.606   3.530   9.155
 8180POPC   GL134993  13.634   3.568   8.855
 8180POPC   GL234994  13.496   3.545   8.855
 8180POPC   C1A34995  13.642   3.553   8.555
 8180POPC   D2A34996  13.607   3.530   8.255
 8180POPC   C3A34997  13.623   3.531   7.955
 8180POPC   C4A34998  13.620   3.517   7.655
 8180POPC   C1B34999  13.359   3.469   8.555
 8180POPC   C2B35000  13.386   3.459   8.255
 8180POPC   C3B35001  13.410   3.438   7.955
 8180POPC   C4B35002  13.418   3.435   7.655
 8181POPC   NC335003   0.431   2.019   9.455
 8181POPC   PO435004   0.473   1.980   9.155
 8181POPC   GL135005   0.402   2.034   8.855
 8181POPC   GL235006   0.354   2.050   8.855
 8181POPC   C1A35007   0.430   1.965   8.555
 8181POPC   D2A35008   0.416   2.019   8.255
 8181POPC   C3A35009   0.480   2.013   7.955
 8181POPC   C4A35010   0.448   2.027   7.655
 8181POPC   C1B35011   0.232   2.107   8.555
 8181POPC   C2B35012   0.188   2.020   8.255
 8181POPC   C3B35013   0.190   2.104   7.955
 8181POPC   C4B35014   0.220   2.095   7.655
 8182POPC   NC335015  40.740  32.991   9.455
 8182POPC   PO435016  40.826  33.061   9.155
 8182POPC   GL135017  40.804  33.004   8.855
 8182POPC   GL235018  40.819  33.095   8.855
 8182POPC   C1A35019  40.773  33.055   8.555
 8182POPC   D2A35020  40.756  33.051   8.255
 8182POPC   C3A35021  40.748  33.036   7.955
 8182POPC   C4A35022  40.798  32.998   7.655
 8182POPC   C1B35023  40.823  33.302   8.555
 8182POPC   C2B35024  40.879  33.241   8.255
 8182POPC   C3B35025  40.913  33.293   7.955
 8182POPC   C4B35026  40.871  33.287   7.655
 8183POPC   NC335027   3.499   8.923   9.455
 8183POPC   PO435028   3.534   8.946   9.155
 8183POPC   GL135029   3.494   8.970   8.855
 8183POPC   GL235030   3.614   9.097   8.855
 8183POPC   C1A35031   3.555   8.930   8.555
 8183POPC   D2A35032   3.590   8.971   8.255
 8183POPC   C3A35033   3.560   9.002   7.955
 8183POPC   C4A35034   3.527   8.958   7.655
 8183POPC   C1B35035   3.588   9.255   8.555
 8183POPC   C2B35036   3.592   9.219   8.255
 8183POPC   C3B35037   3.621   9.259   7.955
 8183POPC   C4B35038   3.656   9.217   7.655
 8184POPC   NC335039  36.087  16.738   9.455
 8184POPC   PO435040  36.170  16.755   9.155
 8184POPC   GL135041  36.095  16.692   8.855
 8184POPC   GL235042  36.005  16.849   8.855
 8184POPC   C1A35043  36.081  16.754   8.555
 8184POPC   D2A35044  36.150  16.705   8.255
 8184POPC   C3A35045  36.152  16.717   7.955
 8184POPC   C4A35046  36.131  16.755   7.655
 8184POPC   C1B35047  35.921  16.886   8.555
 8184POPC   C2B35048  35.896  16.920   8.255
 8184POPC   C3B35049  35.929  16.900   7.955
 8184POPC   C4B35050  35.886  16.851   7.655
 8185POPC   NC335051  13.629   6.687   9.455
 8185POPC   PO435052  13.640   6.625   9.155
 8185POPC   GL135053  13.616   6.610   8.855
 8185POPC   GL235054  13.632   6.781   8.855
 8185POPC   C1A35055  13.614   6.660   8.555
 8185POPC   D2A35056  13.594   6.597   8.255
 8185POPC   C3A35057  13.669   6.603   7.955
 8185POPC   C4A35058  13.647   6.664   7.655
 8185POPC   C1B35059  13.652   6.881   8.555
 8185POPC   C2B35060  13.558   6.930   8.255
 8185POPC   C3B35061  13.622   6.941   7.955
 8185POPC   C4B35062  13.615   6.894   7.655
 8186POPC   NC335063  33.756  15.981   9.455
 8186POPC   PO435064  33.803  16.003   9.155
 8186POPC   GL135065  33.792  15.938   8.855
 8186POPC   GL235066  33.683  15.869   8.855
 8186POPC   C1A35067  33.775  16.001   8.555
 8186POPC   D2A35068  33.783  15.946   8.255
 8186POPC   C3A35069  33.783  15.982   7.955
 8186POPC   C4A35070  33.848  15.956   7.655
 8186POPC   C1B35071  33.692  15.795   8.555
 8186POPC   C2B35072  33.693  15.786   8.255
 8186POPC   C3B35073  33.664  15.799   7.955
 8186POPC   C4B35074  33.672  15.775   7.655
 8187POPC   NC335075  40.823   7.453   9.455
 8187POPC   PO435076  40.786   7.407   9.155
 8187POPC   GL135077  40.830   7.412   8.855
 8187POPC   GL235078  40.764   7.257   8.855
 8187POPC   C1A35079  40.829   7.439   8.555
 8187POPC   D2A35080  40.811   7.395   8.255
 8187POPC   C3A35081  40.802   7.389   7.955
 8187POPC   C4A35082  40.788   7.451   7.655
 8187POPC   C1B35083  40.698   7.162   8.555
 8187POPC   C2B35084  40.719   7.164   8.255
 8187POPC   C3B35085  40.728   7.149   7.955
 8187POPC   C4B35086  40.631   7.198   7.655
 8188POPC   NC335087  38.499  24.450   9.455
 8188POPC   PO435088  38.486  24.539   9.155
 8188POPC   GL135089  38.421  24.518   8.855
 8188POPC   GL235090  38.376  24.391   8.855
 8188POPC   C1A35091  38.464  24.442   8.555
 8188POPC   D2A35092  38.430  24.448   8.255
 8188POPC   C3A35093  38.480  24.462   7.955
 8188POPC   C4A35094  38.434  24.470   7.655
 8188POPC   C1B35095  38.320  24.288   8.555
 8188POPC   C2B35096  38.325  24.232   8.255
 8188POPC   C3B35097  38.335  24.282   7.955
 8188POPC   C4B35098  38.321  24.282   7.655
 8189POPC   NC335099  44.685   9.734   9.455
 8189POPC   PO435100  44.617   9.733   9.155
 8189POPC   GL135101  44.639   9.721   8.855
 8189POPC   GL235102  44.775   9.872   8.855
 8189POPC   C1A35103  44.690   9.786   8.555
 8189POPC   D2A35104  44.680   9.792   8.255
 8189POPC   C3A35105  44.649   9.724   7.955
 8189POPC   C4A35106  44.661   9.717   7.655
 8189POPC   C1B35107  44.821   9.916   8.555
 8189POPC   C2B35108  44.844   9.939   8.255
 8189POPC   C3B35109  44.800   9.926   7.955
 8189POPC   C4B35110  44.826   9.914   7.655
 8190POPC   NC335111  41.529   2.798   9.455
 8190POPC   PO435112  41.533   2.741   9.155
 8190POPC   GL135113  41.521   2.775   8.855
 8190POPC   GL235114  41.617   2.669   8.855
 8190POPC   C1A35115  41.548   2.742   8.555
 8190POPC   D2A35116  41.590   2.762   8.255
 8190POPC   C3A35117  41.602   2.746   7.955
 8190POPC   C4A35118  41.551   2.789   7.655
 8190POPC   C1B35119  41.708   2.533   8.555
 8190POPC   C2B35120  41.639   2.530   8.255
 8190POPC   C3B35121  41.687   2.514   7.955
 8190POPC   C4B35122  41.634   2.567   7.655
 8191POPC   NC335123  11.324   2.781   9.455
 8191POPC   PO435124  11.268   2.732   9.155
 8191POPC   GL135125  11.347   2.776   8.855
 8191POPC   GL235126  11.426   2.737   8.855
 8191POPC   C1A35127  11.297   2.745   8.555
 8191POPC   D2A35128  11.309   2.765   8.255
 8191POPC   C3A35129  11.302   2.783   7.955
 8191POPC   C4A35130  11.346   2.743   7.655
 8191POPC   C1B35131  11.595   2.732   8.555
 8191POPC   C2B35132  11.546   2.784   8.255
 8191POPC   C3B35133  11.547   2.760   7.955
 8191POPC   C4B35134  11.506   2.702   7.655
 8192POPC   NC335135   4.358  32.274   9.455
 8192POPC   PO435136   4.333  32.211   9.155
 8192POPC   GL135137   4.356  32.216   8.855
 8192POPC   GL235138   4.211  32.133   8.855
 8192POPC   C1A35139   4.283  32.223   8.555
 8192POPC   D2A35140   4.339  32.223   8.255
 8192POPC   C3A35141   4.323  32.260   7.955
 8192POPC   C4A35142   4.307  32.200   7.655
 8192POPC   C1B35143   4.205  32.019   8.555
 8192POPC   C2B35144   4.224  32.044   8.255
 8192POPC   C3B35145   4.178  32.022   7.955
 8192POPC   C4B35146   4.221  32.001   7.655
 8193POPC   NC335147  26.840  29.130   9.455
 8193POPC   PO435148  26.863  29.179   9.155
 8193POPC   GL135149  26.853  29.129   8.855
 8193POPC   GL235150  26.982  29.149   8.855
 8193POPC   C1A35151  26.796  29.125   8.555
 8193POPC   D2A35152  26.858  29.160   8.255
 8193POPC   C3A35153  26.809  29.170   7.955
 8193POPC   C4A35154  26.805  29.123   7.655
 8193POPC   C1B35155  27.071  29.173   8.555
 8193POPC   C2B35156  27.109  29.171   8.255
 8193POPC   C3B35157  27.052  29.158   7.955
 8193POPC   C4B35158  27.031  29.209   7.655
 8194POPC   NC335159   1.245   6.597   9.455
 8194POPC   PO435160   1.213   6.608   9.155
 8194POPC   GL135161   1.262   6.618   8.855
 8194POPC   GL235162   1.320   6.580   8.855
 8194POPC   C1A35163   1.261   6.622   8.555
 8194POPC   D2A35164   1.209   6.665   8.255
 8194POPC   C3A35165   1.248   6.663   7.955
 8194POPC   C4A35166   1.243   6.648   7.655
 8194POPC   C1B35167   1.473   6.483   8.555
 8194POPC   C2B35168   1.474   6.542   8.255
 8194POPC   C3B35169   1.457   6.493   7.955
 8194POPC   C4B35170   1.416   6.484   7.655
 8195POPC   NC335171  29.898   1.239   9.455
 8195POPC   PO435172  29.919   1.262   9.155
 8195POPC   GL135173  29.890   1.236   8.855
 8195POPC   GL235174  29.954   1.078   8.855
 8195POPC   C1A35175  29.904   1.259   8.555
 8195POPC   D2A35176  29.970   1.252   8.255
 8195POPC   C3A35177  29.913   1.242   7.955
 8195POPC   C4A35178  29.895   1.210   7.655
 8195POPC   C1B35179  30.028   1.050   8.555
 8195POPC   C2B35180  30.094   1.040   8.255
 8195POPC   C3B35181  30.090   1.047   7.955
 8195POPC   C4B35182  30.090   1.032   7.655
 8196POPC   NC335183  19.869  34.529   9.455
 8196POPC   PO435184  19.843  34.572   9.155
 8196POPC   GL135185  19.801  34.614   8.855
 8196POPC   GL235186  19.704  34.572   8.855
 8196POPC   C1A35187  19.863  34.556   8.555
 8196POPC   D2A35188  19.823  34.600   8.255
 8196POPC   C3A35189  19.830  34.570   7.955
 8196POPC   C4A35190  19.869  34.610   7.655
 8196POPC   C1B35191  19.578  34.461   8.555
 8196POPC   C2B35192  19.615  34.500   8.255
 8196POPC   C3B35193  19.594  34.492   7.955
 8196POPC   C4B35194  19.626  34.534   7.655
 8197POPC   NC335195  26.787   1.214   9.455
 8197POPC   PO435196  26.814   1.225   9.155
 8197POPC   GL135197  26.772   1.185   8.855
 8197POPC   GL235198  26.682   1.105   8.855
 8197POPC   C1A35199  26.863   1.170   8.555
 8197POPC   D2A35200  26.855   1.185   8.255
 8197POPC   C3A35201  26.809   1.228   7.955
 8197POPC   C4A35202  26.788   1.250   7.655
 8197POPC   C1B35203  26.668   1.072   8.555
 8197POPC   C2B35204  26.573   1.014   8.255
 8197POPC   C3B35205  26.620   1.046   7.955
 8197POPC   C4B35206  26.603   1.010   7.655
 8198POPC   NC335207  26.077  36.900   9.455
 8198POPC   PO435208  26.063  36.885   9.155
 8198POPC   GL135209  26.079  36.867   8.855
 8198POPC   GL235210  25.909  36.948   8.855
 8198POPC   C1A35211  26.074  36.906   8.555
 8198POPC   D2A35212  26.077  36.881   8.255
 8198POPC   C3A35213  26.086  36.874   7.955
 8198POPC   C4A35214  26.069  36.909   7.655
 8198POPC   C1B35215  25.762  36.994   8.555
 8198POPC   C2B35216  25.772  36.965   8.255
 8198POPC   C3B35217  25.830  36.988   7.955
 8198POPC   C4B35218  25.839  37.023   7.655
 8199POPC   NC335219   9.783  24.465   9.455
 8199POPC   PO435220   9.783  24.526   9.155
 8199POPC   GL135221   9.738  24.452   8.855
 8199POPC   GL235222   9.865  24.506   8.855
 8199POPC   C1A35223   9.729  24.495   8.555
 8199POPC   D2A35224   9.785  24.481   8.255
 8199POPC   C3A35225   9.794  24.515   7.955
 8199POPC   C4A35226   9.748  24.469   7.655
 8199POPC   C1B35227  10.025  24.449   8.555
 8199POPC   C2B35228   9.984  24.500   8.255
 8199POPC   C3B35229   9.954  24.448   7.955
 8199POPC   C4B35230  10.037  24.432   7.655
 8200POPC   NC335231  22.953  40.743   9.455
 8200POPC   PO435232  22.972  40.744   9.155
 8200POPC   GL135233  22.985  40.752   8.855
 8200POPC   GL235234  23.037  40.867   8.855
 8200POPC   C1A35235  22.942  40.735   8.555
 8200POPC   D2A35236  22.924  40.738   8.255
 8200POPC   C3A35237  22.892  40.781   7.955
 8200POPC   C4A35238  22.937  40.770   7.655
 8200POPC   C1B35239  23.054  40.960   8.555
 8200POPC   C2B35240  23.124  41.017   8.255
 8200POPC   C3B35241  23.073  41.001   7.955
 8200POPC   C4B35242  23.059  40.978   7.655
 8201POPC   NC335243  17.541  26.823   9.455
 8201POPC   PO435244  17.552  26.776   9.155
 8201POPC   GL135245  17.524  26.815   8.855
 8201POPC   GL235246  17.407  26.776   8.855
 8201POPC   C1A35247  17.468  26.833   8.555
 8201POPC   D2A35248  17.503  26.817   8.255
 8201POPC   C3A35249  17.464  26.809   7.955
 8201POPC   C4A35250  17.556  26.858   7.655
 8201POPC   C1B35251  17.263  26.763   8.555
 8201POPC   C2B35252  17.290  26.801   8.255
 8201POPC   C3B35253  17.272  26.748   7.955
 8201POPC   C4B35254  17.310  26.711   7.655
 8202POPC   NC335255   4.281  24.502   9.455
 8202POPC   PO435256   4.288  24.440   9.155
 8202POPC   GL135257   4.335  24.514   8.855
 8202POPC   GL235258   4.302  24.554   8.855
 8202POPC   C1A35259   4.270  24.440   8.555
 8202POPC   D2A35260   4.286  24.502   8.255
 8202POPC   C3A35261   4.362  24.520   7.955
 8202POPC   C4A35262   4.311  24.500   7.655
 8202POPC   C1B35263   4.166  24.751   8.555
 8202POPC   C2B35264   4.182  24.703   8.255
 8202POPC   C3B35265   4.224  24.743   7.955
 8202POPC   C4B35266   4.179  24.663   7.655
 8203POPC   NC335267  32.222  44.621   9.455
 8203POPC   PO435268  32.221  44.676   9.155
 8203POPC   GL135269  32.228  44.699   8.855
 8203POPC   GL235270  32.214  44.758   8.855
 8203POPC   C1A35271  32.223  44.674   8.555
 8203POPC   D2A35272  32.228  44.649   8.255
 8203POPC   C3A35273  32.219  44.638   7.955
 8203POPC   C4A35274  32.288  44.690   7.655
 8203POPC   C1B35275  32.189  44.897   8.555
 8203POPC   C2B35276  32.220  44.932   8.255
 8203POPC   C3B35277  32.267  44.865   7.955
 8203POPC   C4B35278  32.203  44.936   7.655
 8204POPC   NC335279   8.963  14.426   9.455
 8204POPC   PO435280   8.994  14.375   9.155
 8204POPC   GL135281   8.953  14.375   8.855
 8204POPC   GL235282   8.939  14.507   8.855
 8204POPC   C1A35283   8.926  14.440   8.555
 8204POPC   D2A35284   8.968  14.408   8.255
 8204POPC   C3A35285   9.020  14.433   7.955
 8204POPC   C4A35286   8.962  14.381   7.655
 8204POPC   C1B35287   8.980  14.683   8.555
 8204POPC   C2B35288   8.958  14.641   8.255
 8204POPC   C3B35289   8.929  14.666   7.955
 8204POPC   C4B35290   8.990  14.687   7.655
 8205POPC   NC335291  13.619  14.440   9.455
 8205POPC   PO435292  13.620  14.368   9.155
 8205POPC   GL135293  13.602  14.388   8.855
 8205POPC   GL235294  13.716  14.406   8.855
 8205POPC   C1A35295  13.673  14.438   8.555
 8205POPC   D2A35296  13.592  14.362   8.255
 8205POPC   C3A35297  13.601  14.360   7.955
 8205POPC   C4A35298  13.630  14.360   7.655
 8205POPC   C1B35299  13.833  14.504   8.555
 8205POPC   C2B35300  13.878  14.485   8.255
 8205POPC   C3B35301  13.872  14.492   7.955
 8205POPC   C4B35302  13.903  14.501   7.655
 8206POPC   NC335303   6.690  13.646   9.455
 8206POPC   PO435304   6.599  13.607   9.155
 8206POPC   GL135305   6.676  13.581   8.855
 8206POPC   GL235306   6.739  13.771   8.855
 8206POPC   C1A35307   6.612  13.636   8.555
 8206POPC   D2A35308   6.602  13.622   8.255
 8206POPC   C3A35309   6.628  13.613   7.955
 8206POPC   C4A35310   6.595  13.591   7.655
 8206POPC   C1B35311   6.749  13.884   8.555
 8206POPC   C2B35312   6.816  13.846   8.255
 8206POPC   C3B35313   6.773  13.885   7.955
 8206POPC   C4B35314   6.739  13.873   7.655
 8207POPC   NC335315  26.841  22.154   9.455
 8207POPC   PO435316  26.816  22.207   9.155
 8207POPC   GL135317  26.768  22.185   8.855
 8207POPC   GL235318  26.871  22.309   8.855
 8207POPC   C1A35319  26.854  22.152   8.555
 8207POPC   D2A35320  26.774  22.175   8.255
 8207POPC   C3A35321  26.817  22.154   7.955
 8207POPC   C4A35322  26.839  22.147   7.655
 8207POPC   C1B35323  26.929  22.382   8.555
 8207POPC   C2B35324  26.931  22.402   8.255
 8207POPC   C3B35325  26.920  22.406   7.955
 8207POPC   C4B35326  26.889  22.351   7.655
 8208POPC   NC335327  26.044   5.081   9.455
 8208POPC   PO435328  26.036   5.070   9.155
 8208POPC   GL135329  26.065   5.135   8.855
 8208POPC   GL235330  26.107   4.934   8.855
 8208POPC   C1A35331  26.015   5.072   8.555
 8208POPC   D2A35332  26.018   5.140   8.255
 8208POPC   C3A35333  26.085   5.073   7.955
 8208POPC   C4A35334  26.051   5.099   7.655
 8208POPC   C1B35335  26.178   4.865   8.555
 8208POPC   C2B35336  26.146   4.879   8.255
 8208POPC   C3B35337  26.124   4.838   7.955
 8208POPC   C4B35338  26.151   4.851   7.655
 8209POPC   NC335339  30.663  10.556   9.455
 8209POPC   PO435340  30.715  10.560   9.155
 8209POPC   GL135341  30.667  10.509   8.855
 8209POPC   GL235342  30.618  10.594   8.855
 8209POPC   C1A35343  30.662  10.567   8.555
 8209POPC   D2A35344  30.682  10.560   8.255
 8209POPC   C3A35345  30.661  10.490   7.955
 8209POPC   C4A35346  30.651  10.554   7.655
 8209POPC   C1B35347  30.475  10.618   8.555
 8209POPC   C2B35348  30.467  10.579   8.255
 8209POPC   C3B35349  30.451  10.615   7.955
 8209POPC   C4B35350  30.491  10.572   7.655
 8210POPC   NC335351  12.056   6.620   9.455
 8210POPC   PO435352  12.080   6.655   9.155
 8210POPC   GL135353  12.083   6.623   8.855
 8210POPC   GL235354  11.975   6.697   8.855
 8210POPC   C1A35355  12.118   6.599   8.555
 8210POPC   D2A35356  12.099   6.684   8.255
 8210POPC   C3A35357  12.106   6.667   7.955
 8210POPC   C4A35358  12.069   6.619   7.655
 8210POPC   C1B35359  11.979   6.835   8.555
 8210POPC   C2B35360  11.931   6.842   8.255
 8210POPC   C3B35361  11.968   6.832   7.955
 8210POPC   C4B35362  11.943   6.885   7.655
 8211POPC   NC335363  38.452  20.586   9.455
 8211POPC   PO435364  38.442  20.576   9.155
 8211POPC   GL135365  38.485  20.660   8.855
 8211POPC   GL235366  38.302  20.619   8.855
 8211POPC   C1A35367  38.418  20.592   8.555
 8211POPC   D2A35368  38.427  20.572   8.255
 8211POPC   C3A35369  38.421  20.627   7.955
 8211POPC   C4A35370  38.472  20.634   7.655
 8211POPC   C1B35371  38.247  20.548   8.555
 8211POPC   C2B35372  38.234  20.505   8.255
 8211POPC   C3B35373  38.257  20.511   7.955
 8211POPC   C4B35374  38.245  20.527   7.655
 8212POPC   NC335375  19.082   5.826   9.455
 8212POPC   PO435376  19.083   5.852   9.155
 8212POPC   GL135377  19.100   5.860   8.855
 8212POPC   GL235378  19.060   5.732   8.855
 8212POPC   C1A35379  19.088   5.889   8.555
 8212POPC   D2A35380  19.071   5.915   8.255
 8212POPC   C3A35381  19.033   5.877   7.955
 8212POPC   C4A35382  19.049   5.868   7.655
 8212POPC   C1B35383  19.047   5.576   8.555
 8212POPC   C2B35384  18.979   5.601   8.255
 8212POPC   C3B35385  19.018   5.666   7.955
 8212POPC   C4B35386  19.031   5.591   7.655
 8213POPC   NC335387  25.251  11.327   9.455
 8213POPC   PO435388  25.234  11.274   9.155
 8213POPC   GL135389  25.301  11.274   8.855
 8213POPC   GL235390  25.098  11.270   8.855
 8213POPC   C1A35391  25.239  11.270   8.555
 8213POPC   D2A35392  25.296  11.290   8.255
 8213POPC   C3A35393  25.242  11.331   7.955
 8213POPC   C4A35394  25.313  11.308   7.655
 8213POPC   C1B35395  24.967  11.322   8.555
 8213POPC   C2B35396  25.027  11.297   8.255
 8213POPC   C3B35397  24.967  11.333   7.955
 8213POPC   C4B35398  24.988  11.278   7.655
 8214POPC   NC335399  42.364  28.400   9.455
 8214POPC   PO435400  42.358  28.322   9.155
 8214POPC   GL135401  42.342  28.382   8.855
 8214POPC   GL235402  42.382  28.230   8.855
 8214POPC   C1A35403  42.342  28.349   8.555
 8214POPC   D2A35404  42.314  28.359   8.255
 8214POPC   C3A35405  42.383  28.404   7.955
 8214POPC   C4A35406  42.306  28.353   7.655
 8214POPC   C1B35407  42.362  28.080   8.555
 8214POPC   C2B35408  42.362  28.149   8.255
 8214POPC   C3B35409  42.427  28.085   7.955
 8214POPC   C4B35410  42.404  28.088   7.655
 8215POPC   NC335411  16.713  28.361   9.455
 8215POPC   PO435412  16.689  28.381   9.155
 8215POPC   GL135413  16.727  28.391   8.855
 8215POPC   GL235414  16.698  28.207   8.855
 8215POPC   C1A35415  16.755  28.340   8.555
 8215POPC   D2A35416  16.726  28.335   8.255
 8215POPC   C3A35417  16.745  28.400   7.955
 8215POPC   C4A35418  16.739  28.410   7.655
 8215POPC   C1B35419  16.773  28.076   8.555
 8215POPC   C2B35420  16.701  28.081   8.255
 8215POPC   C3B35421  16.773  28.145   7.955
 8215POPC   C4B35422  16.740  28.072   7.655
 8216POPC   NC335423  23.717   6.601   9.455
 8216POPC   PO435424  23.747   6.691   9.155
 8216POPC   GL135425  23.758   6.671   8.855
 8216POPC   GL235426  23.690   6.727   8.855
 8216POPC   C1A35427  23.688   6.625   8.555
 8216POPC   D2A35428  23.672   6.648   8.255
 8216POPC   C3A35429  23.674   6.622   7.955
 8216POPC   C4A35430  23.666   6.628   7.655
 8216POPC   C1B35431  23.591   6.890   8.555
 8216POPC   C2B35432  23.606   6.829   8.255
 8216POPC   C3B35433  23.655   6.905   7.955
 8216POPC   C4B35434  23.566   6.911   7.655
 8217POPC   NC335435  37.711  23.674   9.455
 8217POPC   PO435436  37.719  23.737   9.155
 8217POPC   GL135437  37.671  23.729   8.855
 8217POPC   GL235438  37.570  23.634   8.855
 8217POPC   C1A35439  37.645  23.744   8.555
 8217POPC   D2A35440  37.710  23.756   8.255
 8217POPC   C3A35441  37.681  23.700   7.955
 8217POPC   C4A35442  37.689  23.673   7.655
 8217POPC   C1B35443  37.474  23.540   8.555
 8217POPC   C2B35444  37.443  23.547   8.255
 8217POPC   C3B35445  37.485  23.581   7.955
 8217POPC   C4B35446  37.424  23.554   7.655
 8218POPC   NC335447  12.041  36.173   9.455
 8218POPC   PO435448  12.062  36.079   9.155
 8218POPC   GL135449  12.102  36.127   8.855
 8218POPC   GL235450  12.024  35.956   8.855
 8218POPC   C1A35451  12.111  36.092   8.555
 8218POPC   D2A35452  12.028  36.101   8.255
 8218POPC   C3A35453  12.108  36.100   7.955
 8218POPC   C4A35454  12.037  36.132   7.655
 8218POPC   C1B35455  12.058  35.860   8.555
 8218POPC   C2B35456  12.055  35.860   8.255
 8218POPC   C3B35457  12.025  35.896   7.955
 8218POPC   C4B35458  12.074  35.839   7.655
 8219POPC   NC335459  39.246  12.815   9.455
 8219POPC   PO435460  39.212  12.828   9.155
 8219POPC   GL135461  39.189  12.875   8.855
 8219POPC   GL235462  39.190  12.985   8.855
 8219POPC   C1A35463  39.217  12.806   8.555
 8219POPC   D2A35464  39.192  12.836   8.255
 8219POPC   C3A35465  39.201  12.848   7.955
 8219POPC   C4A35466  39.203  12.898   7.655
 8219POPC   C1B35467  39.271  13.084   8.555
 8219POPC   C2B35468  39.294  13.119   8.255
 8219POPC   C3B35469  39.289  13.079   7.955
 8219POPC   C4B35470  39.235  13.137   7.655
 8220POPC   NC335471  19.085  23.692   9.455
 8220POPC   PO435472  19.033  23.761   9.155
 8220POPC   GL135473  19.024  23.672   8.855
 8220POPC   GL235474  19.179  23.781   8.855
 8220POPC   C1A35475  19.037  23.699   8.555
 8220POPC   D2A35476  19.094  23.750   8.255
 8220POPC   C3A35477  19.014  23.719   7.955
 8220POPC   C4A35478  19.022  23.732   7.655
 8220POPC   C1B35479  19.282  23.840   8.555
 8220POPC   C2B35480  19.298  23.846   8.255
 8220POPC   C3B35481  19.226  23.826   7.955
 8220POPC   C4B35482  19.224  23.882   7.655
 8221POPC   NC335483  12.106  25.291   9.455
 8221POPC   PO435484  12.112  25.270   9.155
 8221POPC   GL135485  12.074  25.239   8.855
 8221POPC   GL235486  11.925  25.338   8.855
 8221POPC   C1A35487  12.121  25.226   8.555
 8221POPC   D2A35488  12.037  25.293   8.255
 8221POPC   C3A35489  12.060  25.273   7.955
 8221POPC   C4A35490  12.092  25.253   7.655
 8221POPC   C1B35491  11.891  25.357   8.555
 8221POPC   C2B35492  11.873  25.342   8.255
 8221POPC   C3B35493  11.850  25.359   7.955
 8221POPC   C4B35494  11.901  25.378   7.655
 8222POPC   NC335495  16.710  40.003   9.455
 8222POPC   PO435496  16.773  40.010   9.155
 8222POPC   GL135497  16.720  40.049   8.855
 8222POPC   GL235498  16.895  40.023   8.855
 8222POPC   C1A35499  16.689  40.014   8.555
 8222POPC   D2A35500  16.725  39.965   8.255
 8222POPC   C3A35501  16.683  40.017   7.955
 8222POPC   C4A35502  16.712  39.976   7.655
 8222POPC   C1B35503  16.961  39.924   8.555
 8222POPC   C2B35504  17.012  39.925   8.255
 8222POPC   C3B35505  17.010  39.980   7.955
 8222POPC   C4B35506  17.014  39.968   7.655
 8223POPC   NC335507  39.241  42.295   9.455
 8223POPC   PO435508  39.269  42.362   9.155
 8223POPC   GL135509  39.226  42.296   8.855
 8223POPC   GL235510  39.328  42.349   8.855
 8223POPC   C1A35511  39.189  42.361   8.555
 8223POPC   D2A35512  39.235  42.350   8.255
 8223POPC   C3A35513  39.250  42.363   7.955
 8223POPC   C4A35514  39.208  42.300   7.655
 8223POPC   C1B35515  39.429  42.424   8.555
 8223POPC   C2B35516  39.431  42.478   8.255
 8223POPC   C3B35517  39.458  42.482   7.955
 8223POPC   C4B35518  39.425  42.428   7.655
 8224POPC   NC335519  26.066   1.177   9.455
 8224POPC   PO435520  26.082   1.261   9.155
 8224POPC   GL135521  26.030   1.234   8.855
 8224POPC   GL235522  26.131   1.262   8.855
 8224POPC   C1A35523  25.997   1.242   8.555
 8224POPC   D2A35524  26.086   1.206   8.255
 8224POPC   C3A35525  26.015   1.227   7.955
 8224POPC   C4A35526  26.069   1.195   7.655
 8224POPC   C1B35527  26.280   1.255   8.555
 8224POPC   C2B35528  26.275   1.196   8.255
 8224POPC   C3B35529  26.285   1.181   7.955
 8224POPC   C4B35530  26.319   1.200   7.655
 8225POPC   NC335531  29.178  39.981   9.455
 8225POPC   PO435532  29.151  40.028   9.155
 8225POPC   GL135533  29.121  40.053   8.855
 8225POPC   GL235534  29.109  40.161   8.855
 8225POPC   C1A35535  29.114  40.046   8.555
 8225POPC   D2A35536  29.155  39.987   8.255
 8225POPC   C3A35537  29.107  39.966   7.955
 8225POPC   C4A35538  29.120  39.981   7.655
 8225POPC   C1B35539  29.194  40.231   8.555
 8225POPC   C2B35540  29.210  40.208   8.255
 8225POPC   C3B35541  29.137  40.274   7.955
 8225POPC   C4B35542  29.140  40.278   7.655
 8226POPC   NC335543  22.946  35.379   9.455
 8226POPC   PO435544  22.937  35.392   9.155
 8226POPC   GL135545  22.940  35.308   8.855
 8226POPC   GL235546  22.910  35.485   8.855
 8226POPC   C1A35547  22.899  35.342   8.555
 8226POPC   D2A35548  22.953  35.331   8.255
 8226POPC   C3A35549  22.966  35.346   7.955
 8226POPC   C4A35550  22.973  35.399   7.655
 8226POPC   C1B35551  22.862  35.602   8.555
 8226POPC   C2B35552  22.877  35.627   8.255
 8226POPC   C3B35553  22.875  35.630   7.955
 8226POPC   C4B35554  22.844  35.549   7.655
 8227POPC   NC335555  21.395  21.408   9.455
 8227POPC   PO435556  21.352  21.396   9.155
 8227POPC   GL135557  21.379  21.390   8.855
 8227POPC   GL235558  21.251  21.390   8.855
 8227POPC   C1A35559  21.379  21.435   8.555
 8227POPC   D2A35560  21.345  21.393   8.255
 8227POPC   C3A35561  21.355  21.401   7.955
 8227POPC   C4A35562  21.409  21.342   7.655
 8227POPC   C1B35563  21.144  21.307   8.555
 8227POPC   C2B35564  21.189  21.362   8.255
 8227POPC   C3B35565  21.169  21.322   7.955
 8227POPC   C4B35566  21.138  21.332   7.655
 8228POPC   NC335567  19.857  29.146   9.455
 8228POPC   PO435568  19.876  29.099   9.155
 8228POPC   GL135569  19.858  29.173   8.855
 8228POPC   GL235570  19.895  29.267   8.855
 8228POPC   C1A35571  19.866  29.101   8.555
 8228POPC   D2A35572  19.809  29.182   8.255
 8228POPC   C3A35573  19.873  29.120   7.955
 8228POPC   C4A35574  19.842  29.116   7.655
 8228POPC   C1B35575  19.924  29.422   8.555
 8228POPC   C2B35576  19.900  29.420   8.255
 8228POPC   C3B35577  19.882  29.381   7.955
 8228POPC   C4B35578  19.943  29.361   7.655
 8229POPC   NC335579  33.775  16.763   9.455
 8229POPC   PO435580  33.764  16.689   9.155
 8229POPC   GL135581  33.814  16.687   8.855
 8229POPC   GL235582  33.628  16.732   8.855
 8229POPC   C1A35583  33.771  16.757   8.555
 8229POPC   D2A35584  33.763  16.725   8.255
 8229POPC   C3A35585  33.809  16.754   7.955
 8229POPC   C4A35586  33.773  16.755   7.655
 8229POPC   C1B35587  33.552  16.769   8.555
 8229POPC   C2B35588  33.512  16.766   8.255
 8229POPC   C3B35589  33.561  16.676   7.955
 8229POPC   C4B35590  33.544  16.745   7.655
 8230POPC   NC335591  36.936  31.449   9.455
 8230POPC   PO435592  36.936  31.446   9.155
 8230POPC   GL135593  36.908  31.443   8.855
 8230POPC   GL235594  36.791  31.541   8.855
 8230POPC   C1A35595  36.859  31.446   8.555
 8230POPC   D2A35596  36.854  31.499   8.255
 8230POPC   C3A35597  36.939  31.490   7.955
 8230POPC   C4A35598  36.935  31.502   7.655
 8230POPC   C1B35599  36.658  31.568   8.555
 8230POPC   C2B35600  36.667  31.516   8.255
 8230POPC   C3B35601  36.708  31.499   7.955
 8230POPC   C4B35602  36.679  31.542   7.655
 8231POPC   NC335603   2.776  43.104   9.455
 8231POPC   PO435604   2.769  43.156   9.155
 8231POPC   GL135605   2.807  43.150   8.855
 8231POPC   GL235606   2.686  43.138   8.855
 8231POPC   C1A35607   2.767  43.092   8.555
 8231POPC   D2A35608   2.794  43.065   8.255
 8231POPC   C3A35609   2.761  43.142   7.955
 8231POPC   C4A35610   2.766  43.101   7.655
 8231POPC   C1B35611   2.565  43.176   8.555
 8231POPC   C2B35612   2.564  43.180   8.255
 8231POPC   C3B35613   2.567  43.200   7.955
 8231POPC   C4B35614   2.553  43.184   7.655
 8232POPC   NC335615  28.320  36.917   9.455
 8232POPC   PO435616  28.365  36.869   9.155
 8232POPC   GL135617  28.368  36.933   8.855
 8232POPC   GL235618  28.491  37.015   8.855
 8232POPC   C1A35619  28.348  36.949   8.555
 8232POPC   D2A35620  28.363  36.895   8.255
 8232POPC   C3A35621  28.320  36.857   7.955
 8232POPC   C4A35622  28.405  36.934   7.655
 8232POPC   C1B35623  28.555  37.030   8.555
 8232POPC   C2B35624  28.613  36.989   8.255
 8232POPC   C3B35625  28.622  37.026   7.955
 8232POPC   C4B35626  28.614  36.989   7.655
 8233POPC   NC335627  34.540  12.050   9.455
 8233POPC   PO435628  34.573  12.064   9.155
 8233POPC   GL135629  34.579  12.028   8.855
 8233POPC   GL235630  34.668  12.098   8.855
 8233POPC   C1A35631  34.527  12.104   8.555
 8233POPC   D2A35632  34.600  12.047   8.255
 8233POPC   C3A35633  34.579  12.109   7.955
 8233POPC   C4A35634  34.529  12.063   7.655
 8233POPC   C1B35635  34.804  12.075   8.555
 8233POPC   C2B35636  34.779  12.048   8.255
 8233POPC   C3B35637  34.863  12.052   7.955
 8233POPC   C4B35638  34.787  12.028   7.655
 8234POPC   NC335639  35.324  32.203   9.455
 8234POPC   PO435640  35.354  32.277   9.155
 8234POPC   GL135641  35.371  32.207   8.855
 8234POPC   GL235642  35.244  32.165   8.855
 8234POPC   C1A35643  35.367  32.296   8.555
 8234POPC   D2A35644  35.361  32.219   8.255
 8234POPC   C3A35645  35.394  32.231   7.955
 8234POPC   C4A35646  35.363  32.272   7.655
 8234POPC   C1B35647  35.128  32.177   8.555
 8234POPC   C2B35648  35.077  32.230   8.255
 8234POPC   C3B35649  35.110  32.214   7.955
 8234POPC   C4B35650  35.081  32.157   7.655
 8235POPC   NC335651  25.999  10.486   9.455
 8235POPC   PO435652  26.059  10.533   9.155
 8235POPC   GL135653  26.088  10.566   8.855
 8235POPC   GL235654  26.071  10.408   8.855
 8235POPC   C1A35655  26.080  10.481   8.555
 8235POPC   D2A35656  25.996  10.518   8.255
 8235POPC   C3A35657  26.001  10.490   7.955
 8235POPC   C4A35658  26.048  10.555   7.655
 8235POPC   C1B35659  26.117  10.233   8.555
 8235POPC   C2B35660  26.103  10.262   8.255
 8235POPC   C3B35661  26.093  10.293   7.955
 8235POPC   C4B35662  26.068  10.304   7.655
 8236POPC   NC335663   5.098  37.651   9.455
 8236POPC   PO435664   5.098  37.671   9.155
 8236POPC   GL135665   5.085  37.726   8.855
 8236POPC   GL235666   5.017  37.616   8.855
 8236POPC   C1A35667   5.044  37.703   8.555
 8236POPC   D2A35668   5.135  37.672   8.255
 8236POPC   C3A35669   5.108  37.677   7.955
 8236POPC   C4A35670   5.115  37.723   7.655
 8236POPC   C1B35671   4.913  37.505   8.555
 8236POPC   C2B35672   4.949  37.469   8.255
 8236POPC   C3B35673   4.974  37.464   7.955
 8236POPC   C4B35674   4.919  37.483   7.655
 8237POPC   NC335675  38.504  43.906   9.455
 8237POPC   PO435676  38.500  43.928   9.155
 8237POPC   GL135677  38.494  43.908   8.855
 8237POPC   GL235678  38.523  43.754   8.855
 8237POPC   C1A35679  38.461  43.863   8.555
 8237POPC   D2A35680  38.483  43.842   8.255
 8237POPC   C3A35681  38.419  43.902   7.955
 8237POPC   C4A35682  38.466  43.849   7.655
 8237POPC   C1B35683  38.537  43.642   8.555
 8237POPC   C2B35684  38.460  43.648   8.255
 8237POPC   C3B35685  38.492  43.613   7.955
 8237POPC   C4B35686  38.489  43.643   7.655
 8238POPC   NC335687  15.957  35.390   9.455
 8238POPC   PO435688  15.974  35.395   9.155
 8238POPC   GL135689  15.989  35.328   8.855
 8238POPC   GL235690  15.878  35.302   8.855
 8238POPC   C1A35691  15.983  35.315   8.555
 8238POPC   D2A35692  15.971  35.394   8.255
 8238POPC   C3A35693  15.981  35.320   7.955
 8238POPC   C4A35694  15.962  35.401   7.655
 8238POPC   C1B35695  15.703  35.202   8.555
 8238POPC   C2B35696  15.748  35.190   8.255
 8238POPC   C3B35697  15.760  35.191   7.955
 8238POPC   C4B35698  15.719  35.212   7.655
 8239POPC   NC335699  42.368  11.291   9.455
 8239POPC   PO435700  42.293  11.310   9.155
 8239POPC   GL135701  42.381  11.337   8.855
 8239POPC   GL235702  42.465  11.309   8.855
 8239POPC   C1A35703  42.351  11.336   8.555
 8239POPC   D2A35704  42.353  11.310   8.255
 8239POPC   C3A35705  42.327  11.334   7.955
 8239POPC   C4A35706  42.314  11.251   7.655
 8239POPC   C1B35707  42.600  11.289   8.555
 8239POPC   C2B35708  42.538  11.324   8.255
 8239POPC   C3B35709  42.536  11.330   7.955
 8239POPC   C4B35710  42.610  11.262   7.655
 8240POPC   NC335711  12.052  10.479   9.455
 8240POPC   PO435712  12.033  10.528   9.155
 8240POPC   GL135713  12.059  10.474   8.855
 8240POPC   GL235714  11.999  10.442   8.855
 8240POPC   C1A35715  12.040  10.496   8.555
 8240POPC   D2A35716  12.086  10.521   8.255
 8240POPC   C3A35717  12.118  10.487   7.955
 8240POPC   C4A35718  12.078  10.556   7.655
 8240POPC   C1B35719  11.992  10.324   8.555
 8240POPC   C2B35720  12.007  10.284   8.255
 8240POPC   C3B35721  12.035  10.260   7.955
 8240POPC   C4B35722  11.959  10.290   7.655
 8241POPC   NC335723   1.219  22.175   9.455
 8241POPC   PO435724   1.205  22.169   9.155
 8241POPC   GL135725   1.233  22.209   8.855
 8241POPC   GL235726   1.217  22.007   8.855
 8241POPC   C1A35727   1.261  22.121   8.555
 8241POPC   D2A35728   1.229  22.186   8.255
 8241POPC   C3A35729   1.209  22.141   7.955
 8241POPC   C4A35730   1.185  22.211   7.655
 8241POPC   C1B35731   1.125  21.968   8.555
 8241POPC   C2B35732   1.176  21.873   8.255
 8241POPC   C3B35733   1.133  21.923   7.955
 8241POPC   C4B35734   1.145  21.948   7.655
 8242POPC   NC335735   6.617  36.929   9.455
 8242POPC   PO435736   6.638  36.925   9.155
 8242POPC   GL135737   6.603  36.913   8.855
 8242POPC   GL235738   6.689  37.027   8.855
 8242POPC   C1A35739   6.600  36.883   8.555
 8242POPC   D2A35740   6.647  36.886   8.255
 8242POPC   C3A35741   6.676  36.858   7.955
 8242POPC   C4A35742   6.684  36.876   7.655
 8242POPC   C1B35743   6.606  37.119   8.555
 8242POPC   C2B35744   6.613  37.128   8.255
 8242POPC   C3B35745   6.650  37.202   7.955
 8242POPC   C4B35746   6.672  37.109   7.655
 8243POPC   NC335747  36.162  23.696   9.455
 8243POPC   PO435748  36.126  23.678   9.155
 8243POPC   GL135749  36.147  23.749   8.855
 8243POPC   GL235750  36.051  23.781   8.855
 8243POPC   C1A35751  36.159  23.688   8.555
 8243POPC   D2A35752  36.122  23.761   8.255
 8243POPC   C3A35753  36.097  23.711   7.955
 8243POPC   C4A35754  36.151  23.680   7.655
 8243POPC   C1B35755  35.851  23.736   8.555
 8243POPC   C2B35756  35.850  23.771   8.255
 8243POPC   C3B35757  35.845  23.804   7.955
 8243POPC   C4B35758  35.862  23.802   7.655
 8244POPC   NC335759  23.701  19.836   9.455
 8244POPC   PO435760  23.757  19.810   9.155
 8244POPC   GL135761  23.744  19.839   8.855
 8244POPC   GL235762  23.847  19.916   8.855
 8244POPC   C1A35763  23.731  19.871   8.555
 8244POPC   D2A35764  23.681  19.869   8.255
 8244POPC   C3A35765  23.686  19.803   7.955
 8244POPC   C4A35766  23.677  19.876   7.655
 8244POPC   C1B35767  23.896  19.973   8.555
 8244POPC   C2B35768  23.983  19.905   8.255
 8244POPC   C3B35769  23.946  19.887   7.955
 8244POPC   C4B35770  23.987  19.905   7.655
 8245POPC   NC335771  14.363  22.132   9.455
 8245POPC   PO435772  14.402  22.181   9.155
 8245POPC   GL135773  14.366  22.163   8.855
 8245POPC   GL235774  14.534  22.151   8.855
 8245POPC   C1A35775  14.406  22.126   8.555
 8245POPC   D2A35776  14.370  22.179   8.255
 8245POPC   C3A35777  14.371  22.178   7.955
 8245POPC   C4A35778  14.413  22.136   7.655
 8245POPC   C1B35779  14.683  22.066   8.555
 8245POPC   C2B35780  14.659  22.059   8.255
 8245POPC   C3B35781  14.646  22.095   7.955
 8245POPC   C4B35782  14.684  22.113   7.655
 8246POPC   NC335783  32.273  31.510   9.455
 8246POPC   PO435784  32.231  31.470   9.155
 8246POPC   GL135785  32.263  31.499   8.855
 8246POPC   GL235786  32.340  31.509   8.855
 8246POPC   C1A35787  32.285  31.514   8.555
 8246POPC   D2A35788  32.204  31.456   8.255
 8246POPC   C3A35789  32.266  31.444   7.955
 8246POPC   C4A35790  32.273  31.484   7.655
 8246POPC   C1B35791  32.461  31.472   8.555
 8246POPC   C2B35792  32.477  31.444   8.255
 8246POPC   C3B35793  32.522  31.507   7.955
 8246POPC   C4B35794  32.449  31.461   7.655
 8247POPC   NC335795   8.939  16.763   9.455
 8247POPC   PO435796   8.998  16.781   9.155
 8247POPC   GL135797   9.009  16.751   8.855
 8247POPC   GL235798   9.090  16.774   8.855
 8247POPC   C1A35799   8.940  16.724   8.555
 8247POPC   D2A35800   8.952  16.694   8.255
 8247POPC   C3A35801   8.960  16.694   7.955
 8247POPC   C4A35802   8.923  16.729   7.655
 8247POPC   C1B35803   9.186  16.901   8.555
 8247POPC   C2B35804   9.141  16.901   8.255
 8247POPC   C3B35805   9.201  16.880   7.955
 8247POPC   C4B35806   9.215  16.897   7.655
 8248POPC   NC335807  22.183  43.848   9.455
 8248POPC   PO435808  22.135  43.868   9.155
 8248POPC   GL135809  22.143  43.887   8.855
 8248POPC   GL235810  22.337  43.926   8.855
 8248POPC   C1A35811  22.114  43.850   8.555
 8248POPC   D2A35812  22.182  43.923   8.255
 8248POPC   C3A35813  22.116  43.866   7.955
 8248POPC   C4A35814  22.127  43.887   7.655
 8248POPC   C1B35815  22.440  43.862   8.555
 8248POPC   C2B35816  22.421  43.862   8.255
 8248POPC   C3B35817  22.396  43.875   7.955
 8248POPC   C4B35818  22.423  43.837   7.655
 8249POPC   NC335819   5.095  32.266   9.455
 8249POPC   PO435820   5.086  32.290   9.155
 8249POPC   GL135821   5.061  32.272   8.855
 8249POPC   GL235822   5.228  32.147   8.855
 8249POPC   C1A35823   5.045  32.244   8.555
 8249POPC   D2A35824   5.071  32.245   8.255
 8249POPC   C3A35825   5.095  32.247   7.955
 8249POPC   C4A35826   5.138  32.271   7.655
 8249POPC   C1B35827   5.347  32.169   8.555
 8249POPC   C2B35828   5.323  32.172   8.255
 8249POPC   C3B35829   5.324  32.175   7.955
 8249POPC   C4B35830   5.369  32.148   7.655
 8250POPC   NC335831  34.536  33.842   9.455
 8250POPC   PO435832  34.532  33.841   9.155
 8250POPC   GL135833  34.568  33.772   8.855
 8250POPC   GL235834  34.711  33.895   8.855
 8250POPC   C1A35835  34.620  33.802   8.555
 8250POPC   D2A35836  34.624  33.847   8.255
 8250POPC   C3A35837  34.601  33.805   7.955
 8250POPC   C4A35838  34.618  33.849   7.655
 8250POPC   C1B35839  34.745  34.003   8.555
 8250POPC   C2B35840  34.752  34.003   8.255
 8250POPC   C3B35841  34.788  33.965   7.955
 8250POPC   C4B35842  34.798  33.930   7.655
 8251POPC   NC335843   8.178  17.528   9.455
 8251POPC   PO435844   8.180  17.530   9.155
 8251POPC   GL135845   8.215  17.460   8.855
 8251POPC   GL235846   8.115  17.571   8.855
 8251POPC   C1A35847   8.201  17.468   8.555
 8251POPC   D2A35848   8.174  17.547   8.255
 8251POPC   C3A35849   8.157  17.470   7.955
 8251POPC   C4A35850   8.185  17.514   7.655
 8251POPC   C1B35851   8.055  17.699   8.555
 8251POPC   C2B35852   8.079  17.709   8.255
 8251POPC   C3B35853   8.101  17.728   7.955
 8251POPC   C4B35854   8.068  17.769   7.655
 8252POPC   NC335855  44.659  12.087   9.455
 8252POPC   PO435856  44.646  12.087   9.155
 8252POPC   GL135857  44.627  12.123   8.855
 8252POPC   GL235858  44.606  11.922   8.855
 8252POPC   C1A35859  44.704  12.112   8.555
 8252POPC   D2A35860  44.683  12.087   8.255
 8252POPC   C3A35861  44.614  12.120   7.955
 8252POPC   C4A35862  44.636  12.098   7.655
 8252POPC   C1B35863  44.576  11.866   8.555
 8252POPC   C2B35864  44.639  11.810   8.255
 8252POPC   C3B35865  44.592  11.847   7.955
 8252POPC   C4B35866  44.586  11.866   7.655
 8253POPC   NC335867   0.486  13.641   9.455
 8253POPC   PO435868   0.416  13.625   9.155
 8253POPC   GL135869   0.459  13.639   8.855
 8253POPC   GL235870   0.457  13.741   8.855
 8253POPC   C1A35871   0.406  13.625   8.555
 8253POPC   D2A35872   0.397  13.595   8.255
 8253POPC   C3A35873   0.432  13.657   7.955
 8253POPC   C4A35874   0.484  13.677   7.655
 8253POPC   C1B35875   0.604  13.817   8.555
 8253POPC   C2B35876   0.539  13.824   8.255
 8253POPC   C3B35877   0.582  13.796   7.955
 8253POPC   C4B35878   0.570  13.851   7.655
 8254POPC   NC335879  39.999  12.807   9.455
 8254POPC   PO435880  39.965  12.805   9.155
 8254POPC   GL135881  40.037  12.876   8.855
 8254POPC   GL235882  40.085  12.954   8.855
 8254POPC   C1A35883  40.006  12.809   8.555
 8254POPC   D2A35884  40.033  12.826   8.255
 8254POPC   C3A35885  40.004  12.849   7.955
 8254POPC   C4A35886  39.980  12.878   7.655
 8254POPC   C1B35887  40.146  13.048   8.555
 8254POPC   C2B35888  40.176  13.023   8.255
 8254POPC   C3B35889  40.210  12.997   7.955
 8254POPC   C4B35890  40.148  13.069   7.655
 8255POPC   NC335891  26.012  39.273   9.455
 8255POPC   PO435892  26.037  39.279   9.155
 8255POPC   GL135893  26.070  39.214   8.855
 8255POPC   GL235894  25.974  39.124   8.855
 8255POPC   C1A35895  26.058  39.234   8.555
 8255POPC   D2A35896  26.030  39.231   8.255
 8255POPC   C3A35897  26.027  39.218   7.955
 8255POPC   C4A35898  25.992  39.251   7.655
 8255POPC   C1B35899  25.858  39.026   8.555
 8255POPC   C2B35900  25.853  39.049   8.255
 8255POPC   C3B35901  25.880  39.051   7.955
 8255POPC   C4B35902  25.856  38.992   7.655
 8256POPC   NC335903  36.139  27.610   9.455
 8256POPC   PO435904  36.093  27.629   9.155
 8256POPC   GL135905  36.140  27.565   8.855
 8256POPC   GL235906  36.087  27.718   8.855
 8256POPC   C1A35907  36.166  27.638   8.555
 8256POPC   D2A35908  36.112  27.581   8.255
 8256POPC   C3A35909  36.121  27.638   7.955
 8256POPC   C4A35910  36.167  27.564   7.655
 8256POPC   C1B35911  36.027  27.777   8.555
 8256POPC   C2B35912  35.992  27.806   8.255
 8256POPC   C3B35913  36.029  27.804   7.955
 8256POPC   C4B35914  36.011  27.802   7.655
 8257POPC   NC335915  19.872   8.237   9.455
 8257POPC   PO435916  19.841   8.163   9.155
 8257POPC   GL135917  19.871   8.165   8.855
 8257POPC   GL235918  19.689   8.270   8.855
 8257POPC   C1A35919  19.857   8.234   8.555
 8257POPC   D2A35920  19.798   8.233   8.255
 8257POPC   C3A35921  19.872   8.229   7.955
 8257POPC   C4A35922  19.875   8.167   7.655
 8257POPC   C1B35923  19.624   8.290   8.555
 8257POPC   C2B35924  19.590   8.271   8.255
 8257POPC   C3B35925  19.578   8.240   7.955
 8257POPC   C4B35926  19.548   8.256   7.655
 8258POPC   NC335927  26.091  25.314   9.455
 8258POPC   PO435928  25.992  25.291   9.155
 8258POPC   GL135929  26.039  25.221   8.855
 8258POPC   GL235930  26.022  25.350   8.855
 8258POPC   C1A35931  26.060  25.309   8.555
 8258POPC   D2A35932  26.024  25.261   8.255
 8258POPC   C3A35933  26.089  25.306   7.955
 8258POPC   C4A35934  26.058  25.280   7.655
 8258POPC   C1B35935  26.039  25.512   8.555
 8258POPC   C2B35936  25.975  25.501   8.255
 8258POPC   C3B35937  26.025  25.508   7.955
 8258POPC   C4B35938  26.038  25.463   7.655
 8259POPC   NC335939   5.081  35.384   9.455
 8259POPC   PO435940   5.064  35.312   9.155
 8259POPC   GL135941   5.067  35.319   8.855
 8259POPC   GL235942   5.119  35.456   8.855
 8259POPC   C1A35943   5.072  35.328   8.555
 8259POPC   D2A35944   5.126  35.370   8.255
 8259POPC   C3A35945   5.092  35.374   7.955
 8259POPC   C4A35946   5.078  35.330   7.655
 8259POPC   C1B35947   5.184  35.617   8.555
 8259POPC   C2B35948   5.126  35.633   8.255
 8259POPC   C3B35949   5.190  35.565   7.955
 8259POPC   C4B35950   5.107  35.629   7.655
 8260POPC   NC335951  15.968  29.950   9.455
 8260POPC   PO435952  15.914  29.930   9.155
 8260POPC   GL135953  15.997  29.928   8.855
 8260POPC   GL235954  15.868  29.759   8.855
 8260POPC   C1A35955  15.983  29.943   8.555
 8260POPC   D2A35956  15.987  29.910   8.255
 8260POPC   C3A35957  15.932  29.912   7.955
 8260POPC   C4A35958  15.992  29.953   7.655
 8260POPC   C1B35959  15.840  29.668   8.555
 8260POPC   C2B35960  15.908  29.672   8.255
 8260POPC   C3B35961  15.910  29.672   7.955
 8260POPC   C4B35962  15.821  29.670   7.655
 8261POPC   NC335963  19.843   6.666   9.455
 8261POPC   PO435964  19.804   6.681   9.155
 8261POPC   GL135965  19.843   6.666   8.855
 8261POPC   GL235966  19.807   6.547   8.855
 8261POPC   C1A35967  19.834   6.648   8.555
 8261POPC   D2A35968  19.794   6.680   8.255
 8261POPC   C3A35969  19.819   6.623   7.955
 8261POPC   C4A35970  19.819   6.602   7.655
 8261POPC   C1B35971  19.856   6.353   8.555
 8261POPC   C2B35972  19.860   6.371   8.255
 8261POPC   C3B35973  19.826   6.438   7.955
 8261POPC   C4B35974  19.800   6.385   7.655
 8262POPC   NC335975  15.202   4.270   9.455
 8262POPC   PO435976  15.210   4.284   9.155
 8262POPC   GL135977  15.211   4.269   8.855
 8262POPC   GL235978  15.286   4.404   8.855
 8262POPC   C1A35979  15.129   4.325   8.555
 8262POPC   D2A35980  15.130   4.355   8.255
 8262POPC   C3A35981  15.182   4.312   7.955
 8262POPC   C4A35982  15.171   4.359   7.655
 8262POPC   C1B35983  15.404   4.426   8.555
 8262POPC   C2B35984  15.414   4.427   8.255
 8262POPC   C3B35985  15.360   4.491   7.955
 8262POPC   C4B35986  15.440   4.421   7.655
 8263POPC   NC335987   8.194  19.818   9.455
 8263POPC   PO435988   8.199  19.860   9.155
 8263POPC   GL135989   8.161  19.849   8.855
 8263POPC   GL235990   8.282  19.758   8.855
 8263POPC   C1A35991   8.190  19.880   8.555
 8263POPC   D2A35992   8.183  19.841   8.255
 8263POPC   C3A35993   8.241  19.880   7.955
 8263POPC   C4A35994   8.202  19.815   7.655
 8263POPC   C1B35995   8.373  19.701   8.555
 8263POPC   C2B35996   8.351  19.666   8.255
 8263POPC   C3B35997   8.419  19.636   7.955
 8263POPC   C4B35998   8.397  19.659   7.655
 8264POPC   NC335999  26.797   4.269   9.455
 8264POPC   PO436000  26.784   4.366   9.155
 8264POPC   GL136001  26.836   4.355   8.855
 8264POPC   GL236002  26.693   4.286   8.855
 8264POPC   C1A36003  26.844   4.353   8.555
 8264POPC   D2A36004  26.823   4.315   8.255
 8264POPC   C3A36005  26.827   4.354   7.955
 8264POPC   C4A36006  26.793   4.325   7.655
 8264POPC   C1B36007  26.614   4.247   8.555
 8264POPC   C2B36008  26.521   4.265   8.255
 8264POPC   C3B36009  26.568   4.231   7.955
 8264POPC   C4B36010  26.537   4.266   7.655
 8265POPC   NC336011  36.933  42.313   9.455
 8265POPC   PO436012  36.941  42.317   9.155
 8265POPC   GL136013  36.950  42.375   8.855
 8265POPC   GL236014  36.743  42.349   8.855
 8265POPC   C1A36015  36.923  42.312   8.555
 8265POPC   D2A36016  36.895  42.307   8.255
 8265POPC   C3A36017  36.925  42.328   7.955
 8265POPC   C4A36018  36.918  42.325   7.655
 8265POPC   C1B36019  36.703  42.272   8.555
 8265POPC   C2B36020  36.626  42.304   8.255
 8265POPC   C3B36021  36.609  42.276   7.955
 8265POPC   C4B36022  36.635  42.317   7.655
 8266POPC   NC336023  13.580  15.979   9.455
 8266POPC   PO436024  13.644  15.965   9.155
 8266POPC   GL136025  13.590  15.968   8.855
 8266POPC   GL236026  13.607  16.059   8.855
 8266POPC   C1A36027  13.643  15.947   8.555
 8266POPC   D2A36028  13.660  15.979   8.255
 8266POPC   C3A36029  13.597  15.952   7.955
 8266POPC   C4A36030  13.656  15.928   7.655
 8266POPC   C1B36031  13.663  16.166   8.555
 8266POPC   C2B36032  13.649  16.157   8.255
 8266POPC   C3B36033  13.660  16.160   7.955
 8266POPC   C4B36034  13.690  16.160   7.655
 8267POPC   NC336035  29.194  44.614   9.455
 8267POPC   PO436036  29.112  44.683   9.155
 8267POPC   GL136037  29.099  44.635   8.855
 8267POPC   GL236038  29.159  44.756   8.855
 8267POPC   C1A36039  29.104  44.668   8.555
 8267POPC   D2A36040  29.133  44.692   8.255
 8267POPC   C3A36041  29.138  44.690   7.955
 8267POPC   C4A36042  29.177  44.640   7.655
 8267POPC   C1B36043  29.248  44.890   8.555
 8267POPC   C2B36044  29.283  44.905   8.255
 8267POPC   C3B36045  29.292  44.896   7.955
 8267POPC   C4B36046  29.217  44.879   7.655
 8268POPC   NC336047  42.288  32.205   9.455
 8268POPC   PO436048  42.363  32.241   9.155
 8268POPC   GL136049  42.380  32.284   8.855
 8268POPC   GL236050  42.475  32.206   8.855
 8268POPC   C1A36051  42.375  32.241   8.555
 8268POPC   D2A36052  42.371  32.275   8.255
 8268POPC   C3A36053  42.345  32.297   7.955
 8268POPC   C4A36054  42.354  32.280   7.655
 8268POPC   C1B36055  42.563  32.131   8.555
 8268POPC   C2B36056  42.515  32.133   8.255
 8268POPC   C3B36057  42.553  32.156   7.955
 8268POPC   C4B36058  42.535  32.145   7.655
 8269POPC   NC336059  14.361   1.181   9.455
 8269POPC   PO436060  14.374   1.201   9.155
 8269POPC   GL136061  14.451   1.178   8.855
 8269POPC   GL236062  14.293   1.145   8.855
 8269POPC   C1A36063  14.375   1.207   8.555
 8269POPC   D2A36064  14.355   1.180   8.255
 8269POPC   C3A36065  14.377   1.241   7.955
 8269POPC   C4A36066  14.426   1.167   7.655
 8269POPC   C1B36067  14.201   1.088   8.555
 8269POPC   C2B36068  14.199   1.034   8.255
 8269POPC   C3B36069  14.191   1.048   7.955
 8269POPC   C4B36070  14.186   1.074   7.655
 8270POPC   NC336071  41.579  28.357   9.455
 8270POPC   PO436072  41.586  28.344   9.155
 8270POPC   GL136073  41.568  28.376   8.855
 8270POPC   GL236074  41.673  28.250   8.855
 8270POPC   C1A36075  41.597  28.339   8.555
 8270POPC   D2A36076  41.533  28.378   8.255
 8270POPC   C3A36077  41.551  28.417   7.955
 8270POPC   C4A36078  41.534  28.327   7.655
 8270POPC   C1B36079  41.688  28.185   8.555
 8270POPC   C2B36080  41.736  28.163   8.255
 8270POPC   C3B36081  41.704  28.240   7.955
 8270POPC   C4B36082  41.706  28.163   7.655
 8271POPC   NC336083   1.175   9.767   9.455
 8271POPC   PO436084   1.213   9.791   9.155
 8271POPC   GL136085   1.178   9.726   8.855
 8271POPC   GL236086   1.079   9.646   8.855
 8271POPC   C1A36087   1.239   9.787   8.555
 8271POPC   D2A36088   1.217   9.770   8.255
 8271POPC   C3A36089   1.218   9.770   7.955
 8271POPC   C4A36090   1.241   9.796   7.655
 8271POPC   C1B36091   1.012   9.570   8.555
 8271POPC   C2B36092   1.032   9.572   8.255
 8271POPC   C3B36093   1.067   9.572   7.955
 8271POPC   C4B36094   1.007   9.545   7.655
 8272POPC   NC336095   8.975  32.289   9.455
 8272POPC   PO436096   8.987  32.276   9.155
 8272POPC   GL136097   8.926  32.256   8.855
 8272POPC   GL236098   8.985  32.377   8.855
 8272POPC   C1A36099   8.963  32.277   8.555
 8272POPC   D2A36100   9.001  32.215   8.255
 8272POPC   C3A36101   8.944  32.224   7.955
 8272POPC   C4A36102   9.022  32.262   7.655
 8272POPC   C1B36103   9.067  32.495   8.555
 8272POPC   C2B36104   9.063  32.453   8.255
 8272POPC   C3B36105   9.093  32.491   7.955
 8272POPC   C4B36106   9.109  32.456   7.655
 8273POPC   NC336107  34.600  26.036   9.455
 8273POPC   PO436108  34.542  26.082   9.155
 8273POPC   GL136109  34.555  26.060   8.855
 8273POPC   GL236110  34.512  26.067   8.855
 8273POPC   C1A36111  34.619  26.018   8.555
 8273POPC   D2A36112  34.547  25.993   8.255
 8273POPC   C3A36113  34.613  26.087   7.955
 8273POPC   C4A36114  34.582  26.081   7.655
 8273POPC   C1B36115  34.324  26.139   8.555
 8273POPC   C2B36116  34.394  26.211   8.255
 8273POPC   C3B36117  34.351  26.181   7.955
 8273POPC   C4B36118  34.323  26.185   7.655
 8274POPC   NC336119  23.677  10.560   9.455
 8274POPC   PO436120  23.708  10.567   9.155
 8274POPC   GL136121  23.733  10.538   8.855
 8274POPC   GL236122  23.828  10.485   8.855
 8274POPC   C1A36123  23.748  10.476   8.555
 8274POPC   D2A36124  23.745  10.478   8.255
 8274POPC   C3A36125  23.695  10.553   7.955
 8274POPC   C4A36126  23.763  10.481   7.655
 8274POPC   C1B36127  24.007  10.466   8.555
 8274POPC   C2B36128  23.986  10.506   8.255
 8274POPC   C3B36129  23.982  10.505   7.955
 8274POPC   C4B36130  23.932  10.471   7.655
 8275POPC   NC336131  39.266  39.253   9.455
 8275POPC   PO436132  39.182  39.189   9.155
 8275POPC   GL136133  39.219  39.218   8.855
 8275POPC   GL236134  39.261  39.164   8.855
 8275POPC   C1A36135  39.216  39.245   8.555
 8275POPC   D2A36136  39.264  39.184   8.255
 8275POPC   C3A36137  39.229  39.201   7.955
 8275POPC   C4A36138  39.188  39.182   7.655
 8275POPC   C1B36139  39.329  38.965   8.555
 8275POPC   C2B36140  39.348  38.974   8.255
 8275POPC   C3B36141  39.288  39.003   7.955
 8275POPC   C4B36142  39.311  39.047   7.655
 8276POPC   NC336143  26.039  14.367   9.455
 8276POPC   PO436144  26.054  14.401   9.155
 8276POPC   GL136145  26.030  14.425   8.855
 8276POPC   GL236146  26.057  14.283   8.855
 8276POPC   C1A36147  26.083  14.377   8.555
 8276POPC   D2A36148  26.043  14.359   8.255
 8276POPC   C3A36149  26.004  14.449   7.955
 8276POPC   C4A36150  26.067  14.426   7.655
 8276POPC   C1B36151  26.067  14.149   8.555
 8276POPC   C2B36152  26.068  14.110   8.255
 8276POPC   C3B36153  26.055  14.167   7.955
 8276POPC   C4B36154  26.037  14.136   7.655
 8277POPC   NC336155  16.685  27.601   9.455
 8277POPC   PO436156  16.765  27.624   9.155
 8277POPC   GL136157  16.691  27.606   8.855
 8277POPC   GL236158  16.657  27.489   8.855
 8277POPC   C1A36159  16.728  27.609   8.555
 8277POPC   D2A36160  16.701  27.597   8.255
 8277POPC   C3A36161  16.705  27.620   7.955
 8277POPC   C4A36162  16.709  27.599   7.655
 8277POPC   C1B36163  16.646  27.356   8.555
 8277POPC   C2B36164  16.597  27.407   8.255
 8277POPC   C3B36165  16.617  27.330   7.955
 8277POPC   C4B36166  16.567  27.397   7.655
 8278POPC   NC336167   5.832  35.362   9.455
 8278POPC   PO436168   5.842  35.349   9.155
 8278POPC   GL136169   5.858  35.393   8.855
 8278POPC   GL236170   5.915  35.306   8.855
 8278POPC   C1A36171   5.886  35.351   8.555
 8278POPC   D2A36172   5.870  35.372   8.255
 8278POPC   C3A36173   5.887  35.363   7.955
 8278POPC   C4A36174   5.892  35.367   7.655
 8278POPC   C1B36175   6.084  35.117   8.555
 8278POPC   C2B36176   6.009  35.156   8.255
 8278POPC   C3B36177   6.023  35.200   7.955
 8278POPC   C4B36178   6.072  35.181   7.655
 8279POPC   NC336179   9.724  43.122   9.455
 8279POPC   PO436180   9.719  43.159   9.155
 8279POPC   GL136181   9.780  43.069   8.855
 8279POPC   GL236182   9.804  43.269   8.855
 8279POPC   C1A36183   9.786  43.066   8.555
 8279POPC   D2A36184   9.769  43.135   8.255
 8279POPC   C3A36185   9.729  43.074   7.955
 8279POPC   C4A36186   9.749  43.112   7.655
 8279POPC   C1B36187   9.838  43.362   8.555
 8279POPC   C2B36188   9.828  43.364   8.255
 8279POPC   C3B36189   9.867  43.375   7.955
 8279POPC   C4B36190   9.828  43.305   7.655
 8280POPC   NC336191  11.330  29.916   9.455
 8280POPC   PO436192  11.334  29.927   9.155
 8280POPC   GL136193  11.318  29.968   8.855
 8280POPC   GL236194  11.396  29.987   8.855
 8280POPC   C1A36195  11.272  29.957   8.555
 8280POPC   D2A36196  11.324  29.888   8.255
 8280POPC   C3A36197  11.268  29.912   7.955
 8280POPC   C4A36198  11.276  29.871   7.655
 8280POPC   C1B36199  11.485  30.070   8.555
 8280POPC   C2B36200  11.508  30.057   8.255
 8280POPC   C3B36201  11.471  30.130   7.955
 8280POPC   C4B36202  11.489  30.063   7.655
 8281POPC   NC336203  16.772  40.798   9.455
 8281POPC   PO436204  16.747  40.824   9.155
 8281POPC   GL136205  16.739  40.828   8.855
 8281POPC   GL236206  16.647  40.665   8.855
 8281POPC   C1A36207  16.684  40.829   8.555
 8281POPC   D2A36208  16.763  40.794   8.255
 8281POPC   C3A36209  16.743  40.784   7.955
 8281POPC   C4A36210  16.744  40.830   7.655
 8281POPC   C1B36211  16.547  40.600   8.555
 8281POPC   C2B36212  16.595  40.631   8.255
 8281POPC   C3B36213  16.537  40.614   7.955
 8281POPC   C4B36214  16.506  40.651   7.655
 8282POPC   NC336215   7.444  33.782   9.455
 8282POPC   PO436216   7.385  33.831   9.155
 8282POPC   GL136217   7.453  33.783   8.855
 8282POPC   GL236218   7.457  33.650   8.855
 8282POPC   C1A36219   7.447  33.829   8.555
 8282POPC   D2A36220   7.382  33.828   8.255
 8282POPC   C3A36221   7.414  33.808   7.955
 8282POPC   C4A36222   7.461  33.753   7.655
 8282POPC   C1B36223   7.367  33.583   8.555
 8282POPC   C2B36224   7.463  33.528   8.255
 8282POPC   C3B36225   7.430  33.574   7.955
 8282POPC   C4B36226   7.383  33.571   7.655
 8283POPC   NC336227   4.339  14.387   9.455
 8283POPC   PO436228   4.349  14.445   9.155
 8283POPC   GL136229   4.283  14.413   8.855
 8283POPC   GL236230   4.406  14.425   8.855
 8283POPC   C1A36231   4.355  14.452   8.555
 8283POPC   D2A36232   4.348  14.435   8.255
 8283POPC   C3A36233   4.317  14.394   7.955
 8283POPC   C4A36234   4.348  14.436   7.655
 8283POPC   C1B36235   4.556  14.387   8.555
 8283POPC   C2B36236   4.556  14.387   8.255
 8283POPC   C3B36237   4.517  14.371   7.955
 8283POPC   C4B36238   4.513  14.333   7.655
 8284POPC   NC336239  39.196  40.752   9.455
 8284POPC   PO436240  39.186  40.808   9.155
 8284POPC   GL136241  39.263  40.769   8.855
 8284POPC   GL236242  39.108  40.745   8.855
 8284POPC   C1A36243  39.232  40.801   8.555
 8284POPC   D2A36244  39.187  40.768   8.255
 8284POPC   C3A36245  39.233  40.770   7.955
 8284POPC   C4A36246  39.251  40.808   7.655
 8284POPC   C1B36247  39.003  40.635   8.555
 8284POPC   C2B36248  39.074  40.675   8.255
 8284POPC   C3B36249  38.982  40.646   7.955
 8284POPC   C4B36250  39.035  40.659   7.655
 8285POPC   NC336251   9.791  42.297   9.455
 8285POPC   PO436252   9.734  42.338   9.155
 8285POPC   GL136253   9.739  42.288   8.855
 8285POPC   GL236254   9.813  42.274   8.855
 8285POPC   C1A36255   9.767  42.325   8.555
 8285POPC   D2A36256   9.733  42.322   8.255
 8285POPC   C3A36257   9.742  42.356   7.955
 8285POPC   C4A36258   9.761  42.296   7.655
 8285POPC   C1B36259   9.993  42.245   8.555
 8285POPC   C2B36260   9.935  42.259   8.255
 8285POPC   C3B36261   9.938  42.205   7.955
 8285POPC   C4B36262   9.969  42.208   7.655
 8286POPC   NC336263  44.648   2.787   9.455
 8286POPC   PO436264  44.679   2.773   9.155
 8286POPC   GL136265  44.654   2.738   8.855
 8286POPC   GL236266  44.658   2.936   8.855
 8286POPC   C1A36267  44.689   2.725   8.555
 8286POPC   D2A36268  44.668   2.754   8.255
 8286POPC   C3A36269  44.702   2.786   7.955
 8286POPC   C4A36270  44.645   2.716   7.655
 8286POPC   C1B36271  44.671   3.032   8.555
 8286POPC   C2B36272  44.705   3.016   8.255
 8286POPC   C3B36273  44.667   3.011   7.955
 8286POPC   C4B36274  44.733   3.045   7.655
 8287POPC   NC336275   5.823  30.738   9.455
 8287POPC   PO436276   5.829  30.732   9.155
 8287POPC   GL136277   5.900  30.723   8.855
 8287POPC   GL236278   5.893  30.542   8.855
 8287POPC   C1A36279   5.836  30.699   8.555
 8287POPC   D2A36280   5.857  30.666   8.255
 8287POPC   C3A36281   5.904  30.667   7.955
 8287POPC   C4A36282   5.890  30.658   7.655
 8287POPC   C1B36283   5.840  30.435   8.555
 8287POPC   C2B36284   5.906  30.431   8.255
 8287POPC   C3B36285   5.839  30.406   7.955
 8287POPC   C4B36286   5.905  30.424   7.655
 8288POPC   NC336287  24.521  19.069   9.455
 8288POPC   PO436288  24.535  19.073   9.155
 8288POPC   GL136289  24.452  19.107   8.855
 8288POPC   GL236290  24.486  19.167   8.855
 8288POPC   C1A36291  24.447  19.104   8.555
 8288POPC   D2A36292  24.496  19.024   8.255
 8288POPC   C3A36293  24.507  19.023   7.955
 8288POPC   C4A36294  24.524  19.098   7.655
 8288POPC   C1B36295  24.537  19.339   8.555
 8288POPC   C2B36296  24.519  19.274   8.255
 8288POPC   C3B36297  24.511  19.297   7.955
 8288POPC   C4B36298  24.499  19.304   7.655
 8289POPC   NC336299  25.267  44.702   9.455
 8289POPC   PO436300  25.236  44.677   9.155
 8289POPC   GL136301  25.264  44.680   8.855
 8289POPC   GL236302  25.430  44.691   8.855
 8289POPC   C1A36303  25.284  44.644   8.555
 8289POPC   D2A36304  25.315  44.637   8.255
 8289POPC   C3A36305  25.238  44.660   7.955
 8289POPC   C4A36306  25.314  44.679   7.655
 8289POPC   C1B36307  25.500  44.675   8.555
 8289POPC   C2B36308  25.527  44.699   8.255
 8289POPC   C3B36309  25.508  44.687   7.955
 8289POPC   C4B36310  25.495  44.709   7.655
 8290POPC   NC336311  36.943  33.834   9.455
 8290POPC   PO436312  36.916  33.846   9.155
 8290POPC   GL136313  36.920  33.818   8.855
 8290POPC   GL236314  36.816  33.741   8.855
 8290POPC   C1A36315  36.859  33.843   8.555
 8290POPC   D2A36316  36.871  33.781   8.255
 8290POPC   C3A36317  36.889  33.809   7.955
 8290POPC   C4A36318  36.893  33.750   7.655
 8290POPC   C1B36319  36.704  33.558   8.555
 8290POPC   C2B36320  36.750  33.561   8.255
 8290POPC   C3B36321  36.794  33.585   7.955
 8290POPC   C4B36322  36.712  33.591   7.655
 8291POPC   NC336323  40.737  18.253   9.455
 8291POPC   PO436324  40.770  18.300   9.155
 8291POPC   GL136325  40.810  18.280   8.855
 8291POPC   GL236326  40.683  18.389   8.855
 8291POPC   C1A36327  40.744  18.233   8.555
 8291POPC   D2A36328  40.741  18.279   8.255
 8291POPC   C3A36329  40.799  18.307   7.955
 8291POPC   C4A36330  40.759  18.291   7.655
 8291POPC   C1B36331  40.602  18.540   8.555
 8291POPC   C2B36332  40.615  18.469   8.255
 8291POPC   C3B36333  40.648  18.456   7.955
 8291POPC   C4B36334  40.650  18.541   7.655
 8292POPC   NC336335  21.399  37.681   9.455
 8292POPC   PO436336  21.400  37.672   9.155
 8292POPC   GL136337  21.416  37.652   8.855
 8292POPC   GL236338  21.491  37.729   8.855
 8292POPC   C1A36339  21.340  37.729   8.555
 8292POPC   D2A36340  21.426  37.691   8.255
 8292POPC   C3A36341  21.410  37.661   7.955
 8292POPC   C4A36342  21.343  37.693   7.655
 8292POPC   C1B36343  21.625  37.760   8.555
 8292POPC   C2B36344  21.647  37.743   8.255
 8292POPC   C3B36345  21.655  37.748   7.955
 8292POPC   C4B36346  21.681  37.716   7.655
 8293POPC   NC336347   2.728  12.047   9.455
 8293POPC   PO436348   2.765  12.081   9.155
 8293POPC   GL136349   2.753  12.061   8.855
 8293POPC   GL236350   2.840  12.164   8.855
 8293POPC   C1A36351   2.776  12.079   8.555
 8293POPC   D2A36352   2.749  12.057   8.255
 8293POPC   C3A36353   2.770  12.069   7.955
 8293POPC   C4A36354   2.724  12.102   7.655
 8293POPC   C1B36355   3.021  12.154   8.555
 8293POPC   C2B36356   2.997  12.166   8.255
 8293POPC   C3B36357   3.032  12.240   7.955
 8293POPC   C4B36358   3.002  12.243   7.655
 8294POPC   NC336359  32.981   9.722   9.455
 8294POPC   PO436360  33.053   9.741   9.155
 8294POPC   GL136361  32.985   9.753   8.855
 8294POPC   GL236362  33.064   9.830   8.855
 8294POPC   C1A36363  33.070   9.735   8.555
 8294POPC   D2A36364  33.056   9.775   8.255
 8294POPC   C3A36365  32.994   9.779   7.955
 8294POPC   C4A36366  33.021   9.766   7.655
 8294POPC   C1B36367  33.121   9.933   8.555
 8294POPC   C2B36368  33.131   9.920   8.255
 8294POPC   C3B36369  33.136   9.925   7.955
 8294POPC   C4B36370  33.180   9.921   7.655
 8295POPC   NC336371  22.134  19.024   9.455
 8295POPC   PO436372  22.150  19.049   9.155
 8295POPC   GL136373  22.207  19.018   8.855
 8295POPC   GL236374  22.191  19.163   8.855
 8295POPC   C1A36375  22.191  19.086   8.555
 8295POPC   D2A36376  22.129  19.013   8.255
 8295POPC   C3A36377  22.166  19.027   7.955
 8295POPC   C4A36378  22.209  19.054   7.655
 8295POPC   C1B36379  22.194  19.272   8.555
 8295POPC   C2B36380  22.233  19.328   8.255
 8295POPC   C3B36381  22.200  19.294   7.955
 8295POPC   C4B36382  22.214  19.284   7.655
 8296POPC   NC336383   5.834  39.206   9.455
 8296POPC   PO436384   5.916  39.273   9.155
 8296POPC   GL136385   5.831  39.226   8.855
 8296POPC   GL236386   5.997  39.110   8.855
 8296POPC   C1A36387   5.865  39.220   8.555
 8296POPC   D2A36388   5.894  39.214   8.255
 8296POPC   C3A36389   5.837  39.252   7.955
 8296POPC   C4A36390   5.905  39.250   7.655
 8296POPC   C1B36391   6.095  39.065   8.555
 8296POPC   C2B36392   6.116  39.101   8.255
 8296POPC   C3B36393   6.057  39.118   7.955
 8296POPC   C4B36394   6.093  39.097   7.655
 8297POPC   NC336395  10.495  40.045   9.455
 8297POPC   PO436396  10.531  39.967   9.155
 8297POPC   GL136397  10.559  40.019   8.855
 8297POPC   GL236398  10.527  40.146   8.855
 8297POPC   C1A36399  10.516  40.006   8.555
 8297POPC   D2A36400  10.533  40.018   8.255
 8297POPC   C3A36401  10.482  39.963   7.955
 8297POPC   C4A36402  10.479  40.028   7.655
 8297POPC   C1B36403  10.478  40.306   8.555
 8297POPC   C2B36404  10.491  40.212   8.255
 8297POPC   C3B36405  10.482  40.266   7.955
 8297POPC   C4B36406  10.557  40.251   7.655
 8298POPC   NC336407   2.000  10.486   9.455
 8298POPC   PO436408   2.021  10.508   9.155
 8298POPC   GL136409   1.948  10.570   8.855
 8298POPC   GL236410   2.060  10.605   8.855
 8298POPC   C1A36411   2.029  10.544   8.555
 8298POPC   D2A36412   1.963  10.549   8.255
 8298POPC   C3A36413   1.990  10.501   7.955
 8298POPC   C4A36414   2.027  10.510   7.655
 8298POPC   C1B36415   2.110  10.722   8.555
 8298POPC   C2B36416   2.147  10.709   8.255
 8298POPC   C3B36417   2.059  10.734   7.955
 8298POPC   C4B36418   2.103  10.748   7.655
 8299POPC   NC336419   7.461   8.927   9.455
 8299POPC   PO436420   7.395   8.989   9.155
 8299POPC   GL136421   7.464   8.953   8.855
 8299POPC   GL236422   7.356   8.815   8.855
 8299POPC   C1A36423   7.407   9.002   8.555
 8299POPC   D2A36424   7.460   9.005   8.255
 8299POPC   C3A36425   7.386   9.001   7.955
 8299POPC   C4A36426   7.372   8.974   7.655
 8299POPC   C1B36427   7.379   8.702   8.555
 8299POPC   C2B36428   7.373   8.733   8.255
 8299POPC   C3B36429   7.340   8.690   7.955
 8299POPC   C4B36430   7.427   8.774   7.655
 8300POPC   NC336431   8.947  18.318   9.455
 8300POPC   PO436432   8.930  18.252   9.155
 8300POPC   GL136433   9.011  18.257   8.855
 8300POPC   GL236434   8.973  18.211   8.855
 8300POPC   C1A36435   8.953  18.294   8.555
 8300POPC   D2A36436   8.986  18.308   8.255
 8300POPC   C3A36437   8.994  18.276   7.955
 8300POPC   C4A36438   8.944  18.288   7.655
 8300POPC   C1B36439   9.042  17.993   8.555
 8300POPC   C2B36440   8.994  18.013   8.255
 8300POPC   C3B36441   9.029  18.044   7.955
 8300POPC   C4B36442   9.069  18.078   7.655
 8301POPC   NC336443   9.725  25.301   9.455
 8301POPC   PO436444   9.788  25.253   9.155
 8301POPC   GL136445   9.752  25.311   8.855
 8301POPC   GL236446   9.685  25.367   8.855
 8301POPC   C1A36447   9.737  25.300   8.555
 8301POPC   D2A36448   9.785  25.255   8.255
 8301POPC   C3A36449   9.722  25.261   7.955
 8301POPC   C4A36450   9.730  25.315   7.655
 8301POPC   C1B36451   9.728  25.535   8.555
 8301POPC   C2B36452   9.661  25.526   8.255
 8301POPC   C3B36453   9.700  25.488   7.955
 8301POPC   C4B36454   9.650  25.469   7.655
 8302POPC   NC336455   5.055  22.115   9.455
 8302POPC   PO436456   5.137  22.179   9.155
 8302POPC   GL136457   5.135  22.180   8.855
 8302POPC   GL236458   5.035  22.291   8.855
 8302POPC   C1A36459   5.045  22.165   8.555
 8302POPC   D2A36460   5.110  22.143   8.255
 8302POPC   C3A36461   5.108  22.187   7.955
 8302POPC   C4A36462   5.130  22.170   7.655
 8302POPC   C1B36463   5.016  22.452   8.555
 8302POPC   C2B36464   4.999  22.402   8.255
 8302POPC   C3B36465   5.044  22.447   7.955
 8302POPC   C4B36466   5.000  22.369   7.655
 8303POPC   NC336467  36.945  40.044   9.455
 8303POPC   PO436468  36.868  40.004   9.155
 8303POPC   GL136469  36.874  39.962   8.855
 8303POPC   GL236470  36.806  39.918   8.855
 8303POPC   C1A36471  36.924  40.008   8.555
 8303POPC   D2A36472  36.950  40.042   8.255
 8303POPC   C3A36473  36.914  40.017   7.955
 8303POPC   C4A36474  36.912  39.975   7.655
 8303POPC   C1B36475  36.778  39.789   8.555
 8303POPC   C2B36476  36.806  39.755   8.255
 8303POPC   C3B36477  36.753  39.832   7.955
 8303POPC   C4B36478  36.768  39.831   7.655
 8304POPC   NC336479  40.777  25.242   9.455
 8304POPC   PO436480  40.764  25.249   9.155
 8304POPC   GL136481  40.736  25.277   8.855
 8304POPC   GL236482  40.849  25.147   8.855
 8304POPC   C1A36483  40.744  25.224   8.555
 8304POPC   D2A36484  40.753  25.264   8.255
 8304POPC   C3A36485  40.808  25.312   7.955
 8304POPC   C4A36486  40.813  25.269   7.655
 8304POPC   C1B36487  40.930  25.138   8.555
 8304POPC   C2B36488  40.991  25.094   8.255
 8304POPC   C3B36489  40.965  25.083   7.955
 8304POPC   C4B36490  40.984  25.147   7.655
 8305POPC   NC336491  10.537  41.526   9.455
 8305POPC   PO436492  10.542  41.520   9.155
 8305POPC   GL136493  10.565  41.585   8.855
 8305POPC   GL236494  10.689  41.541   8.855
 8305POPC   C1A36495  10.530  41.515   8.555
 8305POPC   D2A36496  10.480  41.553   8.255
 8305POPC   C3A36497  10.573  41.607   7.955
 8305POPC   C4A36498  10.556  41.563   7.655
 8305POPC   C1B36499  10.796  41.512   8.555
 8305POPC   C2B36500  10.785  41.540   8.255
 8305POPC   C3B36501  10.816  41.486   7.955
 8305POPC   C4B36502  10.763  41.559   7.655
 8306POPC   NC336503   5.843  37.674   9.455
 8306POPC   PO436504   5.836  37.662   9.155
 8306POPC   GL136505   5.842  37.635   8.855
 8306POPC   GL236506   5.972  37.598   8.855
 8306POPC   C1A36507   5.840  37.638   8.555
 8306POPC   D2A36508   5.870  37.635   8.255
 8306POPC   C3A36509   5.905  37.707   7.955
 8306POPC   C4A36510   5.871  37.708   7.655
 8306POPC   C1B36511   6.068  37.587   8.555
 8306POPC   C2B36512   6.058  37.638   8.255
 8306POPC   C3B36513   6.084  37.568   7.955
 8306POPC   C4B36514   6.089  37.637   7.655
 8307POPC   NC336515  40.021  17.520   9.455
 8307POPC   PO436516  39.969  17.507   9.155
 8307POPC   GL136517  40.003  17.515   8.855
 8307POPC   GL236518  39.891  17.596   8.855
 8307POPC   C1A36519  40.041  17.536   8.555
 8307POPC   D2A36520  40.024  17.508   8.255
 8307POPC   C3A36521  40.030  17.491   7.955
 8307POPC   C4A36522  40.022  17.536   7.655
 8307POPC   C1B36523  39.770  17.646   8.555
 8307POPC   C2B36524  39.774  17.603   8.255
 8307POPC   C3B36525  39.810  17.666   7.955
 8307POPC   C4B36526  39.791  17.664   7.655
 8308POPC   NC336527  24.494  43.131   9.455
 8308POPC   PO436528  24.452  43.087   9.155
 8308POPC   GL136529  24.449  43.061   8.855
 8308POPC   GL236530  24.506  43.272   8.855
 8308POPC   C1A36531  24.485  43.125   8.555
 8308POPC   D2A36532  24.492  43.062   8.255
 8308POPC   C3A36533  24.449  43.159   7.955
 8308POPC   C4A36534  24.458  43.104   7.655
 8308POPC   C1B36535  24.475  43.391   8.555
 8308POPC   C2B36536  24.435  43.374   8.255
 8308POPC   C3B36537  24.430  43.358   7.955
 8308POPC   C4B36538  24.467  43.372   7.655
 8309POPC   NC336539  42.290  40.772   9.455
 8309POPC   PO436540  42.307  40.790   9.155
 8309POPC   GL136541  42.288  40.792   8.855
 8309POPC   GL236542  42.260  40.884   8.855
 8309POPC   C1A36543  42.355  40.828   8.555
 8309POPC   D2A36544  42.334  40.819   8.255
 8309POPC   C3A36545  42.335  40.805   7.955
 8309POPC   C4A36546  42.295  40.814   7.655
 8309POPC   C1B36547  42.077  40.910   8.555
 8309POPC   C2B36548  42.105  40.882   8.255
 8309POPC   C3B36549  42.115  40.882   7.955
 8309POPC   C4B36550  42.106  40.914   7.655
 8310POPC   NC336551  33.032  43.119   9.455
 8310POPC   PO436552  33.057  43.144   9.155
 8310POPC   GL136553  33.057  43.139   8.855
 8310POPC   GL236554  33.190  43.048   8.855
 8310POPC   C1A36555  33.067  43.080   8.555
 8310POPC   D2A36556  33.052  43.099   8.255
 8310POPC   C3A36557  32.985  43.074   7.955
 8310POPC   C4A36558  33.028  43.131   7.655
 8310POPC   C1B36559  33.269  43.076   8.555
 8310POPC   C2B36560  33.231  43.009   8.255
 8310POPC   C3B36561  33.278  43.060   7.955
 8310POPC   C4B36562  33.288  43.079   7.655
 8311POPC   NC336563  22.201  18.288   9.455
 8311POPC   PO436564  22.150  18.236   9.155
 8311POPC   GL136565  22.195  18.323   8.855
 8311POPC   GL236566  22.032  18.226   8.855
 8311POPC   C1A36567  22.175  18.244   8.555
 8311POPC   D2A36568  22.189  18.315   8.255
 8311POPC   C3A36569  22.189  18.258   7.955
 8311POPC   C4A36570  22.120  18.294   7.655
 8311POPC   C1B36571  21.922  18.188   8.555
 8311POPC   C2B36572  21.963  18.194   8.255
 8311POPC   C3B36573  21.915  18.163   7.955
 8311POPC   C4B36574  21.946  18.226   7.655
 8312POPC   NC336575  41.592  21.401   9.455
 8312POPC   PO436576  41.596  21.418   9.155
 8312POPC   GL136577  41.537  21.373   8.855
 8312POPC   GL236578  41.480  21.259   8.855
 8312POPC   C1A36579  41.583  21.430   8.555
 8312POPC   D2A36580  41.520  21.415   8.255
 8312POPC   C3A36581  41.599  21.343   7.955
 8312POPC   C4A36582  41.533  21.355   7.655
 8312POPC   C1B36583  41.458  21.184   8.555
 8312POPC   C2B36584  41.397  21.128   8.255
 8312POPC   C3B36585  41.431  21.181   7.955
 8312POPC   C4B36586  41.451  21.133   7.655
 8313POPC   NC336587  13.641  15.228   9.455
 8313POPC   PO436588  13.641  15.226   9.155
 8313POPC   GL136589  13.669  15.169   8.855
 8313POPC   GL236590  13.692  15.024   8.855
 8313POPC   C1A36591  13.674  15.178   8.555
 8313POPC   D2A36592  13.604  15.130   8.255
 8313POPC   C3A36593  13.645  15.221   7.955
 8313POPC   C4A36594  13.584  15.212   7.655
 8313POPC   C1B36595  13.667  14.913   8.555
 8313POPC   C2B36596  13.735  14.929   8.255
 8313POPC   C3B36597  13.704  14.900   7.955
 8313POPC   C4B36598  13.738  14.967   7.655
 8314POPC   NC336599   7.393   1.948   9.455
 8314POPC   PO436600   7.441   1.981   9.155
 8314POPC   GL136601   7.451   2.035   8.855
 8314POPC   GL236602   7.461   1.834   8.855
 8314POPC   C1A36603   7.435   1.972   8.555
 8314POPC   D2A36604   7.385   2.027   8.255
 8314POPC   C3A36605   7.412   1.998   7.955
 8314POPC   C4A36606   7.394   1.970   7.655
 8314POPC   C1B36607   7.531   1.737   8.555
 8314POPC   C2B36608   7.530   1.734   8.255
 8314POPC   C3B36609   7.511   1.803   7.955
 8314POPC   C4B36610   7.570   1.764   7.655
 8315POPC   NC336611  21.393  39.225   9.455
 8315POPC   PO436612  21.346  39.255   9.155
 8315POPC   GL136613  21.417  39.182   8.855
 8315POPC   GL236614  21.362  39.397   8.855
 8315POPC   C1A36615  21.375  39.238   8.555
 8315POPC   D2A36616  21.395  39.228   8.255
 8315POPC   C3A36617  21.422  39.270   7.955
 8315POPC   C4A36618  21.435  39.280   7.655
 8315POPC   C1B36619  21.359  39.515   8.555
 8315POPC   C2B36620  21.382  39.447   8.255
 8315POPC   C3B36621  21.386  39.452   7.955
 8315POPC   C4B36622  21.377  39.445   7.655
 8316POPC   NC336623   5.859  29.908   9.455
 8316POPC   PO436624   5.856  29.958   9.155
 8316POPC   GL136625   5.833  29.922   8.855
 8316POPC   GL236626   5.822  29.803   8.855
 8316POPC   C1A36627   5.892  29.908   8.555
 8316POPC   D2A36628   5.909  29.883   8.255
 8316POPC   C3A36629   5.837  29.906   7.955
 8316POPC   C4A36630   5.916  29.933   7.655
 8316POPC   C1B36631   5.778  29.683   8.555
 8316POPC   C2B36632   5.818  29.708   8.255
 8316POPC   C3B36633   5.811  29.722   7.955
 8316POPC   C4B36634   5.771  29.700   7.655
 8317POPC   NC336635  35.387  11.330   9.455
 8317POPC   PO436636  35.344  11.262   9.155
 8317POPC   GL136637  35.310  11.323   8.855
 8317POPC   GL236638  35.431  11.185   8.855
 8317POPC   C1A36639  35.369  11.323   8.555
 8317POPC   D2A36640  35.399  11.263   8.255
 8317POPC   C3A36641  35.365  11.255   7.955
 8317POPC   C4A36642  35.354  11.321   7.655
 8317POPC   C1B36643  35.532  11.104   8.555
 8317POPC   C2B36644  35.452  11.131   8.255
 8317POPC   C3B36645  35.451  11.051   7.955
 8317POPC   C4B36646  35.501  11.047   7.655
 8318POPC   NC336647   7.384  32.265   9.455
 8318POPC   PO436648   7.412  32.254   9.155
 8318POPC   GL136649   7.412  32.205   8.855
 8318POPC   GL236650   7.557  32.200   8.855
 8318POPC   C1A36651   7.433  32.206   8.555
 8318POPC   D2A36652   7.441  32.211   8.255
 8318POPC   C3A36653   7.409  32.274   7.955
 8318POPC   C4A36654   7.436  32.229   7.655
 8318POPC   C1B36655   7.635  32.041   8.555
 8318POPC   C2B36656   7.628  32.039   8.255
 8318POPC   C3B36657   7.576  32.112   7.955
 8318POPC   C4B36658   7.587  32.029   7.655
 8319POPC   NC336659  43.108  33.068   9.455
 8319POPC   PO436660  43.074  33.064   9.155
 8319POPC   GL136661  43.068  32.984   8.855
 8319POPC   GL236662  42.952  32.962   8.855
 8319POPC   C1A36663  43.090  33.065   8.555
 8319POPC   D2A36664  43.143  32.979   8.255
 8319POPC   C3A36665  43.064  33.022   7.955
 8319POPC   C4A36666  43.123  33.028   7.655
 8319POPC   C1B36667  42.870  32.965   8.555
 8319POPC   C2B36668  42.876  32.925   8.255
 8319POPC   C3B36669  42.894  32.919   7.955
 8319POPC   C4B36670  42.884  32.945   7.655
 8320POPC   NC336671   5.080  12.886   9.455
 8320POPC   PO436672   5.076  12.849   9.155
 8320POPC   GL136673   5.131  12.838   8.855
 8320POPC   GL236674   5.210  12.871   8.855
 8320POPC   C1A36675   5.099  12.890   8.555
 8320POPC   D2A36676   5.138  12.841   8.255
 8320POPC   C3A36677   5.081  12.841   7.955
 8320POPC   C4A36678   5.114  12.900   7.655
 8320POPC   C1B36679   5.304  12.918   8.555
 8320POPC   C2B36680   5.281  12.933   8.255
 8320POPC   C3B36681   5.304  12.909   7.955
 8320POPC   C4B36682   5.368  12.984   7.655
 8321POPC   NC336683  35.313  29.894   9.455
 8321POPC   PO436684  35.387  29.934   9.155
 8321POPC   GL136685  35.336  29.933   8.855
 8321POPC   GL236686  35.279  29.790   8.855
 8321POPC   C1A36687  35.320  29.943   8.555
 8321POPC   D2A36688  35.318  29.907   8.255
 8321POPC   C3A36689  35.397  29.874   7.955
 8321POPC   C4A36690  35.380  29.968   7.655
 8321POPC   C1B36691  35.197  29.712   8.555
 8321POPC   C2B36692  35.253  29.667   8.255
 8321POPC   C3B36693  35.267  29.715   7.955
 8321POPC   C4B36694  35.188  29.727   7.655
 8322POPC   NC336695  43.088  25.279   9.455
 8322POPC   PO436696  43.149  25.281   9.155
 8322POPC   GL136697  43.077  25.293   8.855
 8322POPC   GL236698  43.181  25.356   8.855
 8322POPC   C1A36699  43.073  25.221   8.555
 8322POPC   D2A36700  43.120  25.265   8.255
 8322POPC   C3A36701  43.149  25.232   7.955
 8322POPC   C4A36702  43.073  25.246   7.655
 8322POPC   C1B36703  43.331  25.389   8.555
 8322POPC   C2B36704  43.340  25.355   8.255
 8322POPC   C3B36705  43.277  25.416   7.955
 8322POPC   C4B36706  43.326  25.438   7.655
 8323POPC   NC336707  30.657  35.380   9.455
 8323POPC   PO436708  30.671  35.359   9.155
 8323POPC   GL136709  30.700  35.367   8.855
 8323POPC   GL236710  30.579  35.381   8.855
 8323POPC   C1A36711  30.657  35.307   8.555
 8323POPC   D2A36712  30.697  35.393   8.255
 8323POPC   C3A36713  30.713  35.382   7.955
 8323POPC   C4A36714  30.672  35.338   7.655
 8323POPC   C1B36715  30.524  35.505   8.555
 8323POPC   C2B36716  30.511  35.502   8.255
 8323POPC   C3B36717  30.464  35.483   7.955
 8323POPC   C4B36718  30.446  35.449   7.655
 8324POPC   NC336719  36.146  43.113   9.455
 8324POPC   PO436720  36.144  43.159   9.155
 8324POPC   GL136721  36.106  43.077   8.855
 8324POPC   GL236722  36.248  43.239   8.855
 8324POPC   C1A36723  36.132  43.110   8.555
 8324POPC   D2A36724  36.083  43.096   8.255
 8324POPC   C3A36725  36.146  43.101   7.955
 8324POPC   C4A36726  36.176  43.092   7.655
 8324POPC   C1B36727  36.272  43.277   8.555
 8324POPC   C2B36728  36.265  43.306   8.255
 8324POPC   C3B36729  36.292  43.351   7.955
 8324POPC   C4B36730  36.313  43.285   7.655
 8325POPC   NC336731  40.051  19.821   9.455
 8325POPC   PO436732  40.019  19.826   9.155
 8325POPC   GL136733  40.021  19.803   8.855
 8325POPC   GL236734  39.927  19.855   8.855
 8325POPC   C1A36735  40.028  19.834   8.555
 8325POPC   D2A36736  39.988  19.822   8.255
 8325POPC   C3A36737  40.022  19.804   7.955
 8325POPC   C4A36738  39.980  19.823   7.655
 8325POPC   C1B36739  39.710  19.892   8.555
 8325POPC   C2B36740  39.777  19.883   8.255
 8325POPC   C3B36741  39.785  19.863   7.955
 8325POPC   C4B36742  39.734  19.834   7.655
 8326POPC   NC336743  35.370   3.499   9.455
 8326POPC   PO436744  35.357   3.534   9.155
 8326POPC   GL136745  35.344   3.500   8.855
 8326POPC   GL236746  35.456   3.576   8.855
 8326POPC   C1A36747  35.351   3.590   8.555
 8326POPC   D2A36748  35.371   3.529   8.255
 8326POPC   C3A36749  35.324   3.559   7.955
 8326POPC   C4A36750  35.374   3.552   7.655
 8326POPC   C1B36751  35.617   3.642   8.555
 8326POPC   C2B36752  35.574   3.625   8.255
 8326POPC   C3B36753  35.556   3.605   7.955
 8326POPC   C4B36754  35.607   3.657   7.655
 8327POPC   NC336755   0.470   7.425   9.455
 8327POPC   PO436756   0.390   7.388   9.155
 8327POPC   GL136757   0.482   7.378   8.855
 8327POPC   GL236758   0.492   7.453   8.855
 8327POPC   C1A36759   0.456   7.414   8.555
 8327POPC   D2A36760   0.444   7.463   8.255
 8327POPC   C3A36761   0.443   7.436   7.955
 8327POPC   C4A36762   0.395   7.408   7.655
 8327POPC   C1B36763   0.596   7.603   8.555
 8327POPC   C2B36764   0.585   7.599   8.255
 8327POPC   C3B36765   0.643   7.564   7.955
 8327POPC   C4B36766   0.633   7.579   7.655
 8328POPC   NC336767  24.481  22.133   9.455
 8328POPC   PO436768  24.465  22.135   9.155
 8328POPC   GL136769  24.503  22.149   8.855
 8328POPC   GL236770  24.612  22.143   8.855
 8328POPC   C1A36771  24.472  22.177   8.555
 8328POPC   D2A36772  24.461  22.198   8.255
 8328POPC   C3A36773  24.511  22.180   7.955
 8328POPC   C4A36774  24.495  22.135   7.655
 8328POPC   C1B36775  24.735  22.053   8.555
 8328POPC   C2B36776  24.755  22.051   8.255
 8328POPC   C3B36777  24.764  22.052   7.955
 8328POPC   C4B36778  24.701  22.091   7.655
 8329POPC   NC336779  20.604  19.828   9.455
 8329POPC   PO436780  20.605  19.819   9.155
 8329POPC   GL136781  20.635  19.803   8.855
 8329POPC   GL236782  20.508  19.948   8.855
 8329POPC   C1A36783  20.623  19.847   8.555
 8329POPC   D2A36784  20.651  19.823   8.255
 8329POPC   C3A36785  20.646  19.846   7.955
 8329POPC   C4A36786  20.596  19.796   7.655
 8329POPC   C1B36787  20.457  19.965   8.555
 8329POPC   C2B36788  20.470  20.035   8.255
 8329POPC   C3B36789  20.414  19.964   7.955
 8329POPC   C4B36790  20.419  20.030   7.655
 8330POPC   NC336791  17.555  21.345   9.455
 8330POPC   PO436792  17.525  21.377   9.155
 8330POPC   GL136793  17.505  21.398   8.855
 8330POPC   GL236794  17.620  21.390   8.855
 8330POPC   C1A36795  17.496  21.415   8.555
 8330POPC   D2A36796  17.544  21.341   8.255
 8330POPC   C3A36797  17.487  21.429   7.955
 8330POPC   C4A36798  17.548  21.364   7.655
 8330POPC   C1B36799  17.795  21.308   8.555
 8330POPC   C2B36800  17.783  21.383   8.255
 8330POPC   C3B36801  17.794  21.361   7.955
 8330POPC   C4B36802  17.731  21.307   7.655
 8331POPC   NC336803   8.962  24.538   9.455
 8331POPC   PO436804   8.946  24.514   9.155
 8331POPC   GL136805   8.978  24.500   8.855
 8331POPC   GL236806   8.942  24.321   8.855
 8331POPC   C1A36807   8.955  24.507   8.555
 8331POPC   D2A36808   8.997  24.481   8.255
 8331POPC   C3A36809   8.978  24.472   7.955
 8331POPC   C4A36810   9.010  24.476   7.655
 8331POPC   C1B36811   8.920  24.285   8.555
 8331POPC   C2B36812   8.988  24.288   8.255
 8331POPC   C3B36813   8.952  24.246   7.955
 8331POPC   C4B36814   8.951  24.232   7.655
 8332POPC   NC336815  32.993  10.538   9.455
 8332POPC   PO436816  32.985  10.563   9.155
 8332POPC   GL136817  32.994  10.569   8.855
 8332POPC   GL236818  32.958  10.674   8.855
 8332POPC   C1A36819  32.991  10.510   8.555
 8332POPC   D2A36820  33.010  10.507   8.255
 8332POPC   C3A36821  33.060  10.558   7.955
 8332POPC   C4A36822  33.048  10.475   7.655
 8332POPC   C1B36823  32.947  10.786   8.555
 8332POPC   C2B36824  32.910  10.727   8.255
 8332POPC   C3B36825  32.896  10.754   7.955
 8332POPC   C4B36826  32.880  10.696   7.655
 8333POPC   NC336827  33.823  32.999   9.455
 8333POPC   PO436828  33.811  33.016   9.155
 8333POPC   GL136829  33.774  32.979   8.855
 8333POPC   GL236830  33.700  33.037   8.855
 8333POPC   C1A36831  33.762  33.004   8.555
 8333POPC   D2A36832  33.795  32.992   8.255
 8333POPC   C3A36833  33.810  33.025   7.955
 8333POPC   C4A36834  33.764  32.990   7.655
 8333POPC   C1B36835  33.518  33.012   8.555
 8333POPC   C2B36836  33.563  32.977   8.255
 8333POPC   C3B36837  33.530  33.010   7.955
 8333POPC   C4B36838  33.550  33.016   7.655
 8334POPC   NC336839  35.331   9.737   9.455
 8334POPC   PO436840  35.352   9.782   9.155
 8334POPC   GL136841  35.380   9.741   8.855
 8334POPC   GL236842  35.436   9.829   8.855
 8334POPC   C1A36843  35.325   9.774   8.555
 8334POPC   D2A36844  35.349   9.749   8.255
 8334POPC   C3A36845  35.378   9.699   7.955
 8334POPC   C4A36846  35.348   9.742   7.655
 8334POPC   C1B36847  35.546   9.839   8.555
 8334POPC   C2B36848  35.634   9.828   8.255
 8334POPC   C3B36849  35.618   9.766   7.955
 8334POPC   C4B36850  35.627   9.779   7.655
 8335POPC   NC336851  28.384  34.561   9.455
 8335POPC   PO436852  28.376  34.564   9.155
 8335POPC   GL136853  28.330  34.585   8.855
 8335POPC   GL236854  28.425  34.449   8.855
 8335POPC   C1A36855  28.387  34.550   8.555
 8335POPC   D2A36856  28.340  34.549   8.255
 8335POPC   C3A36857  28.358  34.602   7.955
 8335POPC   C4A36858  28.328  34.565   7.655
 8335POPC   C1B36859  28.425  34.342   8.555
 8335POPC   C2B36860  28.390  34.303   8.255
 8335POPC   C3B36861  28.426  34.312   7.955
 8335POPC   C4B36862  28.364  34.371   7.655
 8336POPC   NC336863  29.954  40.799   9.455
 8336POPC   PO436864  29.893  40.786   9.155
 8336POPC   GL136865  29.873  40.789   8.855
 8336POPC   GL236866  29.901  40.642   8.855
 8336POPC   C1A36867  29.880  40.796   8.555
 8336POPC   D2A36868  29.928  40.768   8.255
 8336POPC   C3A36869  29.905  40.753   7.955
 8336POPC   C4A36870  29.950  40.830   7.655
 8336POPC   C1B36871  29.976  40.489   8.555
 8336POPC   C2B36872  29.943  40.507   8.255
 8336POPC   C3B36873  29.898  40.562   7.955
 8336POPC   C4B36874  29.922  40.492   7.655
 8337POPC   NC336875   9.713  20.561   9.455
 8337POPC   PO436876   9.797  20.638   9.155
 8337POPC   GL136877   9.775  20.607   8.855
 8337POPC   GL236878   9.648  20.708   8.855
 8337POPC   C1A36879   9.769  20.573   8.555
 8337POPC   D2A36880   9.797  20.629   8.255
 8337POPC   C3A36881   9.791  20.612   7.955
 8337POPC   C4A36882   9.767  20.660   7.655
 8337POPC   C1B36883   9.563  20.812   8.555
 8337POPC   C2B36884   9.602  20.830   8.255
 8337POPC   C3B36885   9.553  20.794   7.955
 8337POPC   C4B36886   9.570  20.802   7.655
 8338POPC   NC336887  16.758  24.465   9.455
 8338POPC   PO436888  16.763  24.446   9.155
 8338POPC   GL136889  16.709  24.514   8.855
 8338POPC   GL236890  16.829  24.584   8.855
 8338POPC   C1A36891  16.719  24.444   8.555
 8338POPC   D2A36892  16.739  24.462   8.255
 8338POPC   C3A36893  16.759  24.539   7.955
 8338POPC   C4A36894  16.713  24.502   7.655
 8338POPC   C1B36895  16.867  24.687   8.555
 8338POPC   C2B36896  16.915  24.689   8.255
 8338POPC   C3B36897  16.875  24.727   7.955
 8338POPC   C4B36898  16.895  24.667   7.655
 8339POPC   NC336899  15.220   2.791   9.455
 8339POPC   PO436900  15.178   2.755   9.155
 8339POPC   GL136901  15.139   2.772   8.855
 8339POPC   GL236902  15.265   2.814   8.855
 8339POPC   C1A36903  15.182   2.780   8.555
 8339POPC   D2A36904  15.222   2.782   8.255
 8339POPC   C3A36905  15.187   2.782   7.955
 8339POPC   C4A36906  15.166   2.717   7.655
 8339POPC   C1B36907  15.378   2.784   8.555
 8339POPC   C2B36908  15.429   2.793   8.255
 8339POPC   C3B36909  15.466   2.824   7.955
 8339POPC   C4B36910  15.463   2.836   7.655
 8340POPC   NC336911  43.078   2.750   9.455
 8340POPC   PO436912  43.113   2.750   9.155
 8340POPC   GL136913  43.089   2.721   8.855
 8340POPC   GL236914  43.014   2.710   8.855
 8340POPC   C1A36915  43.160   2.779   8.555
 8340POPC   D2A36916  43.151   2.768   8.255
 8340POPC   C3A36917  43.065   2.762   7.955
 8340POPC   C4A36918  43.158   2.718   7.655
 8340POPC   C1B36919  42.907   2.559   8.555
 8340POPC   C2B36920  42.885   2.642   8.255
 8340POPC   C3B36921  42.968   2.621   7.955
 8340POPC   C4B36922  42.898   2.600   7.655
 8341POPC   NC336923  43.143  38.485   9.455
 8341POPC   PO436924  43.145  38.421   9.155
 8341POPC   GL136925  43.135  38.498   8.855
 8341POPC   GL236926  43.067  38.355   8.855
 8341POPC   C1A36927  43.151  38.457   8.555
 8341POPC   D2A36928  43.141  38.466   8.255
 8341POPC   C3A36929  43.081  38.406   7.955
 8341POPC   C4A36930  43.116  38.452   7.655
 8341POPC   C1B36931  43.131  38.197   8.555
 8341POPC   C2B36932  43.135  38.204   8.255
 8341POPC   C3B36933  43.101  38.162   7.955
 8341POPC   C4B36934  43.087  38.197   7.655
 8342POPC   NC336935  11.268  30.709   9.455
 8342POPC   PO436936  11.350  30.667   9.155
 8342POPC   GL136937  11.332  30.683   8.855
 8342POPC   GL236938  11.353  30.550   8.855
 8342POPC   C1A36939  11.272  30.719   8.555
 8342POPC   D2A36940  11.277  30.693   8.255
 8342POPC   C3A36941  11.275  30.683   7.955
 8342POPC   C4A36942  11.322  30.717   7.655
 8342POPC   C1B36943  11.434  30.462   8.555
 8342POPC   C2B36944  11.405  30.473   8.255
 8342POPC   C3B36945  11.359  30.444   7.955
 8342POPC   C4B36946  11.369  30.514   7.655
 8343POPC   NC336947  20.633   5.845   9.455
 8343POPC   PO436948  20.622   5.862   9.155
 8343POPC   GL136949  20.622   5.854   8.855
 8343POPC   GL236950  20.557   5.721   8.855
 8343POPC   C1A36951  20.589   5.835   8.555
 8343POPC   D2A36952  20.583   5.895   8.255
 8343POPC   C3A36953  20.566   5.873   7.955
 8343POPC   C4A36954  20.603   5.844   7.655
 8343POPC   C1B36955  20.520   5.642   8.555
 8343POPC   C2B36956  20.559   5.620   8.255
 8343POPC   C3B36957  20.480   5.623   7.955
 8343POPC   C4B36958  20.558   5.613   7.655
 8344POPC   NC336959   8.231  26.047   9.455
 8344POPC   PO436960   8.209  26.013   9.155
 8344POPC   GL136961   8.152  25.997   8.855
 8344POPC   GL236962   8.273  26.086   8.855
 8344POPC   C1A36963   8.198  26.004   8.555
 8344POPC   D2A36964   8.239  26.026   8.255
 8344POPC   C3A36965   8.153  26.064   7.955
 8344POPC   C4A36966   8.243  26.064   7.655
 8344POPC   C1B36967   8.487  26.071   8.555
 8344POPC   C2B36968   8.401  26.090   8.255
 8344POPC   C3B36969   8.467  26.054   7.955
 8344POPC   C4B36970   8.467  26.097   7.655
 8345POPC   NC336971  15.228  16.743   9.455
 8345POPC   PO436972  15.169  16.693   9.155
 8345POPC   GL136973  15.170  16.724   8.855
 8345POPC   GL236974  15.319  16.800   8.855
 8345POPC   C1A36975  15.175  16.690   8.555
 8345POPC   D2A36976  15.195  16.746   8.255
 8345POPC   C3A36977  15.135  16.733   7.955
 8345POPC   C4A36978  15.132  16.736   7.655
 8345POPC   C1B36979  15.436  16.827   8.555
 8345POPC   C2B36980  15.431  16.807   8.255
 8345POPC   C3B36981  15.378  16.830   7.955
 8345POPC   C4B36982  15.378  16.804   7.655
 8346POPC   NC336983  13.674  22.117   9.455
 8346POPC   PO436984  13.579  22.131   9.155
 8346POPC   GL136985  13.654  22.151   8.855
 8346POPC   GL236986  13.606  22.067   8.855
 8346POPC   C1A36987  13.669  22.199   8.555
 8346POPC   D2A36988  13.654  22.115   8.255
 8346POPC   C3A36989  13.658  22.197   7.955
 8346POPC   C4A36990  13.660  22.161   7.655
 8346POPC   C1B36991  13.630  21.949   8.555
 8346POPC   C2B36992  13.656  21.934   8.255
 8346POPC   C3B36993  13.565  21.871   7.955
 8346POPC   C4B36994  13.611  21.920   7.655
 8347POPC   NC336995  15.976  13.605   9.455
 8347POPC   PO436996  15.978  13.641   9.155
 8347POPC   GL136997  15.914  13.622   8.855
 8347POPC   GL236998  15.877  13.544   8.855
 8347POPC   C1A36999  15.977  13.640   8.555
 8347POPC   D2A37000  15.913  13.606   8.255
 8347POPC   C3A37001  15.947  13.662   7.955
 8347POPC   C4A37002  15.947  13.649   7.655
 8347POPC   C1B37003  15.754  13.489   8.555
 8347POPC   C2B37004  15.781  13.472   8.255
 8347POPC   C3B37005  15.697  13.535   7.955
 8347POPC   C4B37006  15.767  13.549   7.655
 8348POPC   NC337007   2.724  33.829   9.455
 8348POPC   PO437008   2.809  33.780   9.155
 8348POPC   GL137009   2.815  33.815   8.855
 8348POPC   GL237010   2.812  33.903   8.855
 8348POPC   C1A37011   2.724  33.761   8.555
 8348POPC   D2A37012   2.753  33.790   8.255
 8348POPC   C3A37013   2.745  33.781   7.955
 8348POPC   C4A37014   2.790  33.814   7.655
 8348POPC   C1B37015   2.795  34.026   8.555
 8348POPC   C2B37016   2.771  34.041   8.255
 8348POPC   C3B37017   2.837  34.017   7.955
 8348POPC   C4B37018   2.805  34.005   7.655
 8349POPC   NC337019  27.590  34.549   9.455
 8349POPC   PO437020  27.547  34.601   9.155
 8349POPC   GL137021  27.584  34.609   8.855
 8349POPC   GL237022  27.620  34.471   8.855
 8349POPC   C1A37023  27.632  34.600   8.555
 8349POPC   D2A37024  27.611  34.619   8.255
 8349POPC   C3A37025  27.573  34.596   7.955
 8349POPC   C4A37026  27.608  34.553   7.655
 8349POPC   C1B37027  27.670  34.311   8.555
 8349POPC   C2B37028  27.643  34.326   8.255
 8349POPC   C3B37029  27.699  34.301   7.955
 8349POPC   C4B37030  27.656  34.317   7.655
 8350POPC   NC337031  29.177  34.613   9.455
 8350POPC   PO437032  29.103  34.558   9.155
 8350POPC   GL137033  29.099  34.553   8.855
 8350POPC   GL237034  29.167  34.704   8.855
 8350POPC   C1A37035  29.097  34.587   8.555
 8350POPC   D2A37036  29.167  34.624   8.255
 8350POPC   C3A37037  29.130  34.569   7.955
 8350POPC   C4A37038  29.172  34.620   7.655
 8350POPC   C1B37039  29.159  34.862   8.555
 8350POPC   C2B37040  29.178  34.825   8.255
 8350POPC   C3B37041  29.170  34.802   7.955
 8350POPC   C4B37042  29.244  34.804   7.655
 8351POPC   NC337043  42.310   4.329   9.455
 8351POPC   PO437044  42.308   4.299   9.155
 8351POPC   GL137045  42.286   4.332   8.855
 8351POPC   GL237046  42.351   4.167   8.855
 8351POPC   C1A37047  42.370   4.298   8.555
 8351POPC   D2A37048  42.347   4.327   8.255
 8351POPC   C3A37049  42.289   4.268   7.955
 8351POPC   C4A37050  42.344   4.342   7.655
 8351POPC   C1B37051  42.364   4.067   8.555
 8351POPC   C2B37052  42.329   4.083   8.255
 8351POPC   C3B37053  42.376   4.027   7.955
 8351POPC   C4B37054  42.340   4.039   7.655
 8352POPC   NC337055  16.716  22.178   9.455
 8352POPC   PO437056  16.695  22.188   9.155
 8352POPC   GL137057  16.748  22.161   8.855
 8352POPC   GL237058  16.825  22.309   8.855
 8352POPC   C1A37059  16.778  22.153   8.555
 8352POPC   D2A37060  16.764  22.178   8.255
 8352POPC   C3A37061  16.709  22.146   7.955
 8352POPC   C4A37062  16.716  22.193   7.655
 8352POPC   C1B37063  16.902  22.389   8.555
 8352POPC   C2B37064  16.897  22.347   8.255
 8352POPC   C3B37065  16.867  22.323   7.955
 8352POPC   C4B37066  16.925  22.386   7.655
 8353POPC   NC337067  40.812  20.617   9.455
 8353POPC   PO437068  40.805  20.581   9.155
 8353POPC   GL137069  40.795  20.631   8.855
 8353POPC   GL237070  40.914  20.625   8.855
 8353POPC   C1A37071  40.743  20.561   8.555
 8353POPC   D2A37072  40.792  20.644   8.255
 8353POPC   C3A37073  40.791  20.592   7.955
 8353POPC   C4A37074  40.788  20.585   7.655
 8353POPC   C1B37075  40.994  20.600   8.555
 8353POPC   C2B37076  41.055  20.594   8.255
 8353POPC   C3B37077  41.071  20.612   7.955
 8353POPC   C4B37078  41.022  20.656   7.655
 8354POPC   NC337079  43.117   2.037   9.455
 8354POPC   PO437080  43.117   1.957   9.155
 8354POPC   GL137081  43.148   1.993   8.855
 8354POPC   GL237082  43.240   1.910   8.855
 8354POPC   C1A37083  43.083   2.007   8.555
 8354POPC   D2A37084  43.098   1.988   8.255
 8354POPC   C3A37085  43.076   1.961   7.955
 8354POPC   C4A37086  43.087   1.996   7.655
 8354POPC   C1B37087  43.375   1.888   8.555
 8354POPC   C2B37088  43.360   1.878   8.255
 8354POPC   C3B37089  43.375   1.894   7.955
 8354POPC   C4B37090  43.321   1.872   7.655
 8355POPC   NC337091  11.277  18.302   9.455
 8355POPC   PO437092  11.264  18.250   9.155
 8355POPC   GL137093  11.285  18.315   8.855
 8355POPC   GL237094  11.332  18.139   8.855
 8355POPC   C1A37095  11.289  18.328   8.555
 8355POPC   D2A37096  11.256  18.244   8.255
 8355POPC   C3A37097  11.253  18.326   7.955
 8355POPC   C4A37098  11.333  18.263   7.655
 8355POPC   C1B37099  11.318  18.033   8.555
 8355POPC   C2B37100  11.315  18.066   8.255
 8355POPC   C3B37101  11.293  18.060   7.955
 8355POPC   C4B37102  11.286  18.067   7.655
 8356POPC   NC337103   0.421  40.768   9.455
 8356POPC   PO437104   0.394  40.810   9.155
 8356POPC   GL137105   0.475  40.816   8.855
 8356POPC   GL237106   0.501  40.880   8.855
 8356POPC   C1A37107   0.435  40.757   8.555
 8356POPC   D2A37108   0.464  40.795   8.255
 8356POPC   C3A37109   0.458  40.800   7.955
 8356POPC   C4A37110   0.403  40.816   7.655
 8356POPC   C1B37111   0.442  40.978   8.555
 8356POPC   C2B37112   0.508  41.068   8.255
 8356POPC   C3B37113   0.468  41.069   7.955
 8356POPC   C4B37114   0.464  41.004   7.655
 8357POPC   NC337115  41.526  26.001   9.455
 8357POPC   PO437116  41.553  26.064   9.155
 8357POPC   GL137117  41.539  25.993   8.855
 8357POPC   GL237118  41.656  26.123   8.855
 8357POPC   C1A37119  41.564  25.995   8.555
 8357POPC   D2A37120  41.524  26.084   8.255
 8357POPC   C3A37121  41.557  26.041   7.955
 8357POPC   C4A37122  41.588  26.042   7.655
 8357POPC   C1B37123  41.776  26.214   8.555
 8357POPC   C2B37124  41.787  26.204   8.255
 8357POPC   C3B37125  41.728  26.190   7.955
 8357POPC   C4B37126  41.769  26.139   7.655
 8358POPC   NC337127   1.189  24.494   9.455
 8358POPC   PO437128   1.224  24.518   9.155
 8358POPC   GL137129   1.222  24.520   8.855
 8358POPC   GL237130   1.103  24.504   8.855
 8358POPC   C1A37131   1.220  24.460   8.555
 8358POPC   D2A37132   1.209  24.505   8.255
 8358POPC   C3A37133   1.233  24.475   7.955
 8358POPC   C4A37134   1.193  24.454   7.655
 8358POPC   C1B37135   0.991  24.491   8.555
 8358POPC   C2B37136   0.965  24.473   8.255
 8358POPC   C3B37137   0.992  24.562   7.955
 8358POPC   C4B37138   0.931  24.485   7.655
 8359POPC   NC337139  16.691  23.761   9.455
 8359POPC   PO437140  16.760  23.681   9.155
 8359POPC   GL137141  16.751  23.759   8.855
 8359POPC   GL237142  16.680  23.566   8.855
 8359POPC   C1A37143  16.741  23.692   8.555
 8359POPC   D2A37144  16.766  23.716   8.255
 8359POPC   C3A37145  16.746  23.763   7.955
 8359POPC   C4A37146  16.682  23.756   7.655
 8359POPC   C1B37147  16.591  23.522   8.555
 8359POPC   C2B37148  16.571  23.464   8.255
 8359POPC   C3B37149  16.597  23.541   7.955
 8359POPC   C4B37150  16.628  23.542   7.655
 8360POPC   NC337151  28.405  12.075   9.455
 8360POPC   PO437152  28.402  12.085   9.155
 8360POPC   GL137153  28.376  12.119   8.855
 8360POPC   GL237154  28.315  12.002   8.855
 8360POPC   C1A37155  28.362  12.109   8.555
 8360POPC   D2A37156  28.396  12.096   8.255
 8360POPC   C3A37157  28.413  12.051   7.955
 8360POPC   C4A37158  28.389  12.106   7.655
 8360POPC   C1B37159  28.355  11.813   8.555
 8360POPC   C2B37160  28.280  11.852   8.255
 8360POPC   C3B37161  28.293  11.829   7.955
 8360POPC   C4B37162  28.286  11.796   7.655
 8361POPC   NC337163  37.667  43.070   9.455
 8361POPC   PO437164  37.717  43.134   9.155
 8361POPC   GL137165  37.669  43.097   8.855
 8361POPC   GL237166  37.547  43.013   8.855
 8361POPC   C1A37167  37.689  43.128   8.555
 8361POPC   D2A37168  37.687  43.126   8.255
 8361POPC   C3A37169  37.634  43.073   7.955
 8361POPC   C4A37170  37.682  43.078   7.655
 8361POPC   C1B37171  37.475  42.983   8.555
 8361POPC   C2B37172  37.530  42.998   8.255
 8361POPC   C3B37173  37.525  42.929   7.955
 8361POPC   C4B37174  37.495  42.954   7.655
 8362POPC   NC337175  35.304  15.217   9.455
 8362POPC   PO437176  35.325  15.159   9.155
 8362POPC   GL137177  35.360  15.144   8.855
 8362POPC   GL237178  35.307  15.057   8.855
 8362POPC   C1A37179  35.397  15.162   8.555
 8362POPC   D2A37180  35.321  15.165   8.255
 8362POPC   C3A37181  35.330  15.147   7.955
 8362POPC   C4A37182  35.314  15.147   7.655
 8362POPC   C1B37183  35.309  14.981   8.555
 8362POPC   C2B37184  35.248  14.906   8.255
 8362POPC   C3B37185  35.307  14.915   7.955
 8362POPC   C4B37186  35.278  14.918   7.655
 8363POPC   NC337187  41.584  13.583   9.455
 8363POPC   PO437188  41.524  13.603   9.155
 8363POPC   GL137189  41.523  13.677   8.855
 8363POPC   GL237190  41.590  13.525   8.855
 8363POPC   C1A37191  41.536  13.662   8.555
 8363POPC   D2A37192  41.575  13.597   8.255
 8363POPC   C3A37193  41.519  13.595   7.955
 8363POPC   C4A37194  41.599  13.663   7.655
 8363POPC   C1B37195  41.594  13.426   8.555
 8363POPC   C2B37196  41.630  13.387   8.255
 8363POPC   C3B37197  41.611  13.393   7.955
 8363POPC   C4B37198  41.543  13.338   7.655
 8364POPC   NC337199  23.700  43.072   9.455
 8364POPC   PO437200  23.759  43.070   9.155
 8364POPC   GL137201  23.684  43.081   8.855
 8364POPC   GL237202  23.822  43.057   8.855
 8364POPC   C1A37203  23.691  43.079   8.555
 8364POPC   D2A37204  23.757  43.144   8.255
 8364POPC   C3A37205  23.714  43.132   7.955
 8364POPC   C4A37206  23.706  43.122   7.655
 8364POPC   C1B37207  23.924  42.963   8.555
 8364POPC   C2B37208  23.946  42.957   8.255
 8364POPC   C3B37209  23.905  42.975   7.955
 8364POPC   C4B37210  23.852  42.925   7.655
 8365POPC   NC337211  36.147  31.502   9.455
 8365POPC   PO437212  36.078  31.456   9.155
 8365POPC   GL137213  36.133  31.484   8.855
 8365POPC   GL237214  36.166  31.552   8.855
 8365POPC   C1A37215  36.136  31.463   8.555
 8365POPC   D2A37216  36.167  31.434   8.255
 8365POPC   C3A37217  36.175  31.512   7.955
 8365POPC   C4A37218  36.124  31.426   7.655
 8365POPC   C1B37219  36.243  31.729   8.555
 8365POPC   C2B37220  36.219  31.665   8.255
 8365POPC   C3B37221  36.214  31.738   7.955
 8365POPC   C4B37222  36.234  31.666   7.655
 8366POPC   NC337223  41.593  22.148   9.455
 8366POPC   PO437224  41.559  22.154   9.155
 8366POPC   GL137225  41.512  22.130   8.855
 8366POPC   GL237226  41.455  22.103   8.855
 8366POPC   C1A37227  41.540  22.160   8.555
 8366POPC   D2A37228  41.586  22.143   8.255
 8366POPC   C3A37229  41.562  22.210   7.955
 8366POPC   C4A37230  41.576  22.152   7.655
 8366POPC   C1B37231  41.315  22.043   8.555
 8366POPC   C2B37232  41.332  21.993   8.255
 8366POPC   C3B37233  41.389  22.012   7.955
 8366POPC   C4B37234  41.397  21.982   7.655
 8367POPC   NC337235  22.124  42.307   9.455
 8367POPC   PO437236  22.136  42.356   9.155
 8367POPC   GL137237  22.208  42.362   8.855
 8367POPC   GL237238  22.328  42.366   8.855
 8367POPC   C1A37239  22.197  42.328   8.555
 8367POPC   D2A37240  22.114  42.365   8.255
 8367POPC   C3A37241  22.127  42.340   7.955
 8367POPC   C4A37242  22.127  42.299   7.655
 8367POPC   C1B37243  22.454  42.334   8.555
 8367POPC   C2B37244  22.381  42.313   8.255
 8367POPC   C3B37245  22.390  42.379   7.955
 8367POPC   C4B37246  22.452  42.365   7.655
 8368POPC   NC337247  22.901  36.912   9.455
 8368POPC   PO437248  22.933  36.936   9.155
 8368POPC   GL137249  22.917  36.858   8.855
 8368POPC   GL237250  22.869  37.047   8.855
 8368POPC   C1A37251  22.913  36.951   8.555
 8368POPC   D2A37252  22.925  36.867   8.255
 8368POPC   C3A37253  22.957  36.908   7.955
 8368POPC   C4A37254  22.938  36.883   7.655
 8368POPC   C1B37255  22.904  37.190   8.555
 8368POPC   C2B37256  22.908  37.167   8.255
 8368POPC   C3B37257  22.890  37.126   7.955
 8368POPC   C4B37258  22.884  37.129   7.655
 8369POPC   NC337259  14.369   2.772   9.455
 8369POPC   PO437260  14.433   2.757   9.155
 8369POPC   GL137261  14.355   2.742   8.855
 8369POPC   GL237262  14.380   2.901   8.855
 8369POPC   C1A37263  14.361   2.743   8.555
 8369POPC   D2A37264  14.377   2.716   8.255
 8369POPC   C3A37265  14.417   2.792   7.955
 8369POPC   C4A37266  14.424   2.735   7.655
 8369POPC   C1B37267  14.279   3.031   8.555
 8369POPC   C2B37268  14.317   2.962   8.255
 8369POPC   C3B37269  14.229   3.005   7.955
 8369POPC   C4B37270  14.316   2.989   7.655
 8370POPC   NC337271  39.264  13.651   9.455
 8370POPC   PO437272  39.237  13.674   9.155
 8370POPC   GL137273  39.215  13.594   8.855
 8370POPC   GL237274  39.117  13.707   8.855
 8370POPC   C1A37275  39.191  13.611   8.555
 8370POPC   D2A37276  39.246  13.647   8.255
 8370POPC   C3A37277  39.238  13.585   7.955
 8370POPC   C4A37278  39.273  13.632   7.655
 8370POPC   C1B37279  39.041  13.775   8.555
 8370POPC   C2B37280  38.983  13.743   8.255
 8370POPC   C3B37281  39.018  13.772   7.955
 8370POPC   C4B37282  39.050  13.693   7.655
 8371POPC   NC337283  29.170  11.281   9.455
 8371POPC   PO437284  29.115  11.334   9.155
 8371POPC   GL137285  29.147  11.275   8.855
 8371POPC   GL237286  29.081  11.157   8.855
 8371POPC   C1A37287  29.099  11.317   8.555
 8371POPC   D2A37288  29.189  11.326   8.255
 8371POPC   C3A37289  29.118  11.295   7.955
 8371POPC   C4A37290  29.101  11.306   7.655
 8371POPC   C1B37291  29.059  11.064   8.555
 8371POPC   C2B37292  29.027  11.055   8.255
 8371POPC   C3B37293  29.043  11.018   7.955
 8371POPC   C4B37294  29.015  11.106   7.655
 8372POPC   NC337295  36.894  12.830   9.455
 8372POPC   PO437296  36.905  12.814   9.155
 8372POPC   GL137297  36.950  12.822   8.855
 8372POPC   GL237298  36.941  12.928   8.855
 8372POPC   C1A37299  36.859  12.835   8.555
 8372POPC   D2A37300  36.861  12.823   8.255
 8372POPC   C3A37301  36.947  12.817   7.955
 8372POPC   C4A37302  36.931  12.827   7.655
 8372POPC   C1B37303  36.872  13.139   8.555
 8372POPC   C2B37304  36.873  13.072   8.255
 8372POPC   C3B37305  36.946  13.068   7.955
 8372POPC   C4B37306  36.871  13.130   7.655
 8373POPC   NC337307  25.273  23.727   9.455
 8373POPC   PO437308  25.274  23.757   9.155
 8373POPC   GL137309  25.274  23.687   8.855
 8373POPC   GL237310  25.375  23.765   8.855
 8373POPC   C1A37311  25.250  23.703   8.555
 8373POPC   D2A37312  25.281  23.758   8.255
 8373POPC   C3A37313  25.299  23.695   7.955
 8373POPC   C4A37314  25.253  23.671   7.655
 8373POPC   C1B37315  25.453  23.748   8.555
 8373POPC   C2B37316  25.522  23.764   8.255
 8373POPC   C3B37317  25.471  23.768   7.955
 8373POPC   C4B37318  25.484  23.818   7.655
 8374POPC   NC337319   8.214  12.883   9.455
 8374POPC   PO437320   8.181  12.870   9.155
 8374POPC   GL137321   8.245  12.850   8.855
 8374POPC   GL237322   8.158  12.755   8.855
 8374POPC   C1A37323   8.208  12.867   8.555
 8374POPC   D2A37324   8.165  12.845   8.255
 8374POPC   C3A37325   8.171  12.860   7.955
 8374POPC   C4A37326   8.159  12.824   7.655
 8374POPC   C1B37327   8.092  12.592   8.555
 8374POPC   C2B37328   8.103  12.659   8.255
 8374POPC   C3B37329   8.126  12.596   7.955
 8374POPC   C4B37330   8.134  12.618   7.655
 8375POPC   NC337331   6.669   4.343   9.455
 8375POPC   PO437332   6.649   4.289   9.155
 8375POPC   GL137333   6.648   4.366   8.855
 8375POPC   GL237334   6.554   4.320   8.855
 8375POPC   C1A37335   6.615   4.361   8.555
 8375POPC   D2A37336   6.597   4.271   8.255
 8375POPC   C3A37337   6.641   4.336   7.955
 8375POPC   C4A37338   6.668   4.310   7.655
 8375POPC   C1B37339   6.394   4.252   8.555
 8375POPC   C2B37340   6.408   4.318   8.255
 8375POPC   C3B37341   6.357   4.267   7.955
 8375POPC   C4B37342   6.384   4.330   7.655
 8376POPC   NC337343  40.043  26.007   9.455
 8376POPC   PO437344  40.022  26.067   9.155
 8376POPC   GL137345  40.017  26.008   8.855
 8376POPC   GL237346  39.934  25.954   8.855
 8376POPC   C1A37347  40.043  26.054   8.555
 8376POPC   D2A37348  39.975  26.083   8.255
 8376POPC   C3A37349  39.997  26.005   7.955
 8376POPC   C4A37350  40.023  26.048   7.655
 8376POPC   C1B37351  39.973  25.845   8.555
 8376POPC   C2B37352  39.970  25.797   8.255
 8376POPC   C3B37353  39.897  25.818   7.955
 8376POPC   C4B37354  39.959  25.811   7.655
 8377POPC   NC337355   6.652   9.018   9.455
 8377POPC   PO437356   6.640   8.991   9.155
 8377POPC   GL137357   6.651   8.935   8.855
 8377POPC   GL237358   6.741   8.916   8.855
 8377POPC   C1A37359   6.649   8.975   8.555
 8377POPC   D2A37360   6.599   8.941   8.255
 8377POPC   C3A37361   6.658   8.979   7.955
 8377POPC   C4A37362   6.643   8.972   7.655
 8377POPC   C1B37363   6.805   8.816   8.555
 8377POPC   C2B37364   6.796   8.818   8.255
 8377POPC   C3B37365   6.777   8.771   7.955
 8377POPC   C4B37366   6.843   8.750   7.655
 8378POPC   NC337367  12.837  43.064   9.455
 8378POPC   PO437368  12.870  43.143   9.155
 8378POPC   GL137369  12.882  43.095   8.855
 8378POPC   GL237370  12.751  43.053   8.855
 8378POPC   C1A37371  12.886  43.153   8.555
 8378POPC   D2A37372  12.883  43.106   8.255
 8378POPC   C3A37373  12.842  43.104   7.955
 8378POPC   C4A37374  12.848  43.094   7.655
 8378POPC   C1B37375  12.647  42.982   8.555
 8378POPC   C2B37376  12.646  43.002   8.255
 8378POPC   C3B37377  12.631  42.962   7.955
 8378POPC   C4B37378  12.619  42.985   7.655
 8379POPC   NC337379  33.028  40.766   9.455
 8379POPC   PO437380  33.021  40.792   9.155
 8379POPC   GL137381  33.005  40.751   8.855
 8379POPC   GL237382  32.991  40.643   8.855
 8379POPC   C1A37383  33.049  40.825   8.555
 8379POPC   D2A37384  32.995  40.789   8.255
 8379POPC   C3A37385  32.994  40.787   7.955
 8379POPC   C4A37386  33.032  40.797   7.655
 8379POPC   C1B37387  33.002  40.540   8.555
 8379POPC   C2B37388  33.001  40.493   8.255
 8379POPC   C3B37389  33.042  40.566   7.955
 8379POPC   C4B37390  32.977  40.507   7.655
 8380POPC   NC337391   9.739  13.658   9.455
 8380POPC   PO437392   9.725  13.597   9.155
 8380POPC   GL137393   9.706  13.584   8.855
 8380POPC   GL237394   9.855  13.745   8.855
 8380POPC   C1A37395   9.793  13.610   8.555
 8380POPC   D2A37396   9.794  13.627   8.255
 8380POPC   C3A37397   9.765  13.647   7.955
 8380POPC   C4A37398   9.769  13.658   7.655
 8380POPC   C1B37399   9.861  13.839   8.555
 8380POPC   C2B37400   9.898  13.788   8.255
 8380POPC   C3B37401   9.899  13.820   7.955
 8380POPC   C4B37402   9.896  13.862   7.655
 8381POPC   NC337403   2.023   3.569   9.455
 8381POPC   PO437404   2.034   3.577   9.155
 8381POPC   GL137405   2.010   3.574   8.855
 8381POPC   GL237406   2.059   3.472   8.855
 8381POPC   C1A37407   2.036   3.547   8.555
 8381POPC   D2A37408   2.023   3.522   8.255
 8381POPC   C3A37409   2.030   3.504   7.955
 8381POPC   C4A37410   1.971   3.532   7.655
 8381POPC   C1B37411   2.154   3.442   8.555
 8381POPC   C2B37412   2.185   3.419   8.255
 8381POPC   C3B37413   2.223   3.384   7.955
 8381POPC   C4B37414   2.150   3.393   7.655
 8382POPC   NC337415   5.114   4.351   9.455
 8382POPC   PO437416   5.050   4.284   9.155
 8382POPC   GL137417   5.080   4.274   8.855
 8382POPC   GL237418   5.096   4.416   8.855
 8382POPC   C1A37419   5.103   4.292   8.555
 8382POPC   D2A37420   5.058   4.351   8.255
 8382POPC   C3A37421   5.138   4.299   7.955
 8382POPC   C4A37422   5.084   4.268   7.655
 8382POPC   C1B37423   5.206   4.565   8.555
 8382POPC   C2B37424   5.166   4.570   8.255
 8382POPC   C3B37425   5.168   4.539   7.955
 8382POPC   C4B37426   5.155   4.603   7.655
 8383POPC   NC337427   5.065  30.690   9.455
 8383POPC   PO437428   5.075  30.672   9.155
 8383POPC   GL137429   5.051  30.676   8.855
 8383POPC   GL237430   5.266  30.688   8.855
 8383POPC   C1A37431   5.094  30.738   8.555
 8383POPC   D2A37432   5.089  30.732   8.255
 8383POPC   C3A37433   5.060  30.660   7.955
 8383POPC   C4A37434   5.073  30.708   7.655
 8383POPC   C1B37435   5.329  30.744   8.555
 8383POPC   C2B37436   5.375  30.760   8.255
 8383POPC   C3B37437   5.332  30.723   7.955
 8383POPC   C4B37438   5.368  30.728   7.655
 8384POPC   NC337439  15.998   6.662   9.455
 8384POPC   PO437440  15.930   6.618   9.155
 8384POPC   GL137441  15.957   6.622   8.855
 8384POPC   GL237442  16.005   6.599   8.855
 8384POPC   C1A37443  15.988   6.680   8.555
 8384POPC   D2A37444  15.908   6.683   8.255
 8384POPC   C3A37445  15.926   6.670   7.955
 8384POPC   C4A37446  15.934   6.684   7.655
 8384POPC   C1B37447  16.106   6.432   8.555
 8384POPC   C2B37448  16.176   6.495   8.255
 8384POPC   C3B37449  16.150   6.481   7.955
 8384POPC   C4B37450  16.179   6.525   7.655
 8385POPC   NC337451  42.375  38.485   9.455
 8385POPC   PO437452  42.345  38.425   9.155
 8385POPC   GL137453  42.319  38.409   8.855
 8385POPC   GL237454  42.362  38.553   8.855
 8385POPC   C1A37455  42.332  38.432   8.555
 8385POPC   D2A37456  42.341  38.492   8.255
 8385POPC   C3A37457  42.382  38.440   7.955
 8385POPC   C4A37458  42.325  38.430   7.655
 8385POPC   C1B37459  42.433  38.710   8.555
 8385POPC   C2B37460  42.438  38.687   8.255
 8385POPC   C3B37461  42.488  38.620   7.955
 8385POPC   C4B37462  42.475  38.672   7.655
 8386POPC   NC337463   8.968  31.463   9.455
 8386POPC   PO437464   8.948  31.473   9.155
 8386POPC   GL137465   8.956  31.473   8.855
 8386POPC   GL237466   8.900  31.414   8.855
 8386POPC   C1A37467   8.931  31.519   8.555
 8386POPC   D2A37468   8.940  31.482   8.255
 8386POPC   C3A37469   8.994  31.514   7.955
 8386POPC   C4A37470   8.953  31.432   7.655
 8386POPC   C1B37471   8.786  31.268   8.555
 8386POPC   C2B37472   8.784  31.339   8.255
 8386POPC   C3B37473   8.789  31.336   7.955
 8386POPC   C4B37474   8.746  31.326   7.655
 8387POPC   NC337475   6.659  29.913   9.455
 8387POPC   PO437476   6.688  29.890   9.155
 8387POPC   GL137477   6.644  29.882   8.855
 8387POPC   GL237478   6.765  29.906   8.855
 8387POPC   C1A37479   6.614  29.877   8.555
 8387POPC   D2A37480   6.627  29.949   8.255
 8387POPC   C3A37481   6.599  29.904   7.955
 8387POPC   C4A37482   6.646  29.934   7.655
 8387POPC   C1B37483   6.885  29.838   8.555
 8387POPC   C2B37484   6.890  29.815   8.255
 8387POPC   C3B37485   6.900  29.862   7.955
 8387POPC   C4B37486   6.890  29.798   7.655
 8388POPC   NC337487  29.949  10.550   9.455
 8388POPC   PO437488  29.880  10.558   9.155
 8388POPC   GL137489  29.918  10.524   8.855
 8388POPC   GL237490  29.950  10.680   8.855
 8388POPC   C1A37491  29.920  10.524   8.555
 8388POPC   D2A37492  29.945  10.544   8.255
 8388POPC   C3A37493  29.937  10.507   7.955
 8388POPC   C4A37494  29.901  10.485   7.655
 8388POPC   C1B37495  29.998  10.780   8.555
 8388POPC   C2B37496  29.946  10.743   8.255
 8388POPC   C3B37497  30.000  10.816   7.955
 8388POPC   C4B37498  29.980  10.732   7.655
 8389POPC   NC337499  10.525   8.181   9.455
 8389POPC   PO437500  10.507   8.230   9.155
 8389POPC   GL137501  10.572   8.185   8.855
 8389POPC   GL237502  10.628   8.176   8.855
 8389POPC   C1A37503  10.503   8.181   8.555
 8389POPC   D2A37504  10.480   8.159   8.255
 8389POPC   C3A37505  10.550   8.222   7.955
 8389POPC   C4A37506  10.478   8.225   7.655
 8389POPC   C1B37507  10.762   8.158   8.555
 8389POPC   C2B37508  10.813   8.169   8.255
 8389POPC   C3B37509  10.778   8.188   7.955
 8389POPC   C4B37510  10.743   8.240   7.655
 8390POPC   NC337511  32.254  34.562   9.455
 8390POPC   PO437512  32.279  34.598   9.155
 8390POPC   GL137513  32.277  34.600   8.855
 8390POPC   GL237514  32.117  34.509   8.855
 8390POPC   C1A37515  32.260  34.567   8.555
 8390POPC   D2A37516  32.222  34.527   8.255
 8390POPC   C3A37517  32.240  34.571   7.955
 8390POPC   C4A37518  32.241  34.585   7.655
 8390POPC   C1B37519  31.993  34.466   8.555
 8390POPC   C2B37520  32.004  34.444   8.255
 8390POPC   C3B37521  31.965  34.522   7.955
 8390POPC   C4B37522  32.025  34.508   7.655
 8391POPC   NC337523  22.981   9.764   9.455
 8391POPC   PO437524  22.943   9.791   9.155
 8391POPC   GL137525  22.912   9.724   8.855
 8391POPC   GL237526  23.045   9.681   8.855
 8391POPC   C1A37527  22.921   9.734   8.555
 8391POPC   D2A37528  22.894   9.742   8.255
 8391POPC   C3A37529  22.928   9.727   7.955
 8391POPC   C4A37530  22.889   9.784   7.655
 8391POPC   C1B37531  23.093   9.515   8.555
 8391POPC   C2B37532  23.037   9.519   8.255
 8391POPC   C3B37533  23.036   9.590   7.955
 8391POPC   C4B37534  23.118   9.576   7.655
 8392POPC   NC337535   8.934   9.796   9.455
 8392POPC   PO437536   8.986   9.779   9.155
 8392POPC   GL137537   8.962   9.741   8.855
 8392POPC   GL237538   9.003   9.594   8.855
 8392POPC   C1A37539   8.951   9.731   8.555
 8392POPC   D2A37540   8.935   9.735   8.255
 8392POPC   C3A37541   8.931   9.741   7.955
 8392POPC   C4A37542   8.963   9.713   7.655
 8392POPC   C1B37543   9.022   9.497   8.555
 8392POPC   C2B37544   9.010   9.549   8.255
 8392POPC   C3B37545   9.028   9.544   7.955
 8392POPC   C4B37546   9.026   9.535   7.655
 8393POPC   NC337547  34.556  39.237   9.455
 8393POPC   PO437548  34.526  39.189   9.155
 8393POPC   GL137549  34.611  39.221   8.855
 8393POPC   GL237550  34.724  39.149   8.855
 8393POPC   C1A37551  34.560  39.209   8.555
 8393POPC   D2A37552  34.594  39.217   8.255
 8393POPC   C3A37553  34.532  39.268   7.955
 8393POPC   C4A37554  34.544  39.274   7.655
 8393POPC   C1B37555  34.782  39.102   8.555
 8393POPC   C2B37556  34.790  39.140   8.255
 8393POPC   C3B37557  34.842  39.120   7.955
 8393POPC   C4B37558  34.795  39.111   7.655
 8394POPC   NC337559  36.170   5.847   9.455
 8394POPC   PO437560  36.152   5.874   9.155
 8394POPC   GL137561  36.166   5.901   8.855
 8394POPC   GL237562  36.154   6.017   8.855
 8394POPC   C1A37563  36.160   5.918   8.555
 8394POPC   D2A37564  36.090   5.839   8.255
 8394POPC   C3A37565  36.161   5.859   7.955
 8394POPC   C4A37566  36.093   5.880   7.655
 8394POPC   C1B37567  36.204   6.153   8.555
 8394POPC   C2B37568  36.140   6.078   8.255
 8394POPC   C3B37569  36.203   6.082   7.955
 8394POPC   C4B37570  36.162   6.069   7.655
 8395POPC   NC337571   7.449  37.677   9.455
 8395POPC   PO437572   7.425  37.645   9.155
 8395POPC   GL137573   7.372  37.634   8.855
 8395POPC   GL237574   7.303  37.722   8.855
 8395POPC   C1A37575   7.405  37.724   8.555
 8395POPC   D2A37576   7.430  37.710   8.255
 8395POPC   C3A37577   7.372  37.709   7.955
 8395POPC   C4A37578   7.433  37.643   7.655
 8395POPC   C1B37579   7.179  37.787   8.555
 8395POPC   C2B37580   7.186  37.852   8.255
 8395POPC   C3B37581   7.218  37.840   7.955
 8395POPC   C4B37582   7.200  37.773   7.655
 8396POPC   NC337583  36.902   1.243   9.455
 8396POPC   PO437584  36.927   1.193   9.155
 8396POPC   GL137585  36.933   1.175   8.855
 8396POPC   GL237586  36.997   1.137   8.855
 8396POPC   C1A37587  36.862   1.188   8.555
 8396POPC   D2A37588  36.934   1.216   8.255
 8396POPC   C3A37589  36.862   1.196   7.955
 8396POPC   C4A37590  36.877   1.242   7.655
 8396POPC   C1B37591  37.104   1.160   8.555
 8396POPC   C2B37592  37.114   1.187   8.255
 8396POPC   C3B37593  37.132   1.102   7.955
 8396POPC   C4B37594  37.164   1.106   7.655
 8397POPC   NC337595  26.801  23.666   9.455
 8397POPC   PO437596  26.772  23.730   9.155
 8397POPC   GL137597  26.777  23.760   8.855
 8397POPC   GL237598  26.773  23.851   8.855
 8397POPC   C1A37599  26.821  23.756   8.555
 8397POPC   D2A37600  26.789  23.750   8.255
 8397POPC   C3A37601  26.832  23.752   7.955
 8397POPC   C4A37602  26.824  23.748   7.655
 8397POPC   C1B37603  26.773  23.933   8.555
 8397POPC   C2B37604  26.726  24.008   8.255
 8397POPC   C3B37605  26.757  23.943   7.955
 8397POPC   C4B37606  26.718  23.981   7.655
 8398POPC   NC337607  42.288  37.661   9.455
 8398POPC   PO437608  42.361  37.680   9.155
 8398POPC   GL137609  42.316  37.702   8.855
 8398POPC   GL237610  42.295  37.765   8.855
 8398POPC   C1A37611  42.290  37.636   8.555
 8398POPC   D2A37612  42.326  37.637   8.255
 8398POPC   C3A37613  42.317  37.666   7.955
 8398POPC   C4A37614  42.378  37.679   7.655
 8398POPC   C1B37615  42.213  37.864   8.555
 8398POPC   C2B37616  42.211  37.914   8.255
 8398POPC   C3B37617  42.173  37.862   7.955
 8398POPC   C4B37618  42.180  37.827   7.655
 8399POPC   NC337619   2.738  33.016   9.455
 8399POPC   PO437620   2.767  33.023   9.155
 8399POPC   GL137621   2.811  33.025   8.855
 8399POPC   GL237622   2.737  33.109   8.855
 8399POPC   C1A37623   2.754  32.979   8.555
 8399POPC   D2A37624   2.794  33.071   8.255
 8399POPC   C3A37625   2.731  32.994   7.955
 8399POPC   C4A37626   2.776  33.008   7.655
 8399POPC   C1B37627   2.677  33.252   8.555
 8399POPC   C2B37628   2.655  33.233   8.255
 8399POPC   C3B37629   2.679  33.272   7.955
 8399POPC   C4B37630   2.710  33.202   7.655
 8400POPC   NC337631  19.808  23.672   9.455
 8400POPC   PO437632  19.788  23.682   9.155
 8400POPC   GL137633  19.810  23.694   8.855
 8400POPC   GL237634  19.900  23.569   8.855
 8400POPC   C1A37635  19.880  23.671   8.555
 8400POPC   D2A37636  19.793  23.744   8.255
 8400POPC   C3A37637  19.857  23.690   7.955
 8400POPC   C4A37638  19.797  23.728   7.655
 8400POPC   C1B37639  19.983  23.556   8.555
 8400POPC   C2B37640  19.942  23.493   8.255
 8400POPC   C3B37641  20.036  23.496   7.955
 8400POPC   C4B37642  19.994  23.519   7.655
 8401POPC   NC337643  39.237  15.141   9.455
 8401POPC   PO437644  39.219  15.208   9.155
 8401POPC   GL137645  39.267  15.224   8.855
 8401POPC   GL237646  39.168  15.114   8.855
 8401POPC   C1A37647  39.216  15.158   8.555
 8401POPC   D2A37648  39.215  15.207   8.255
 8401POPC   C3A37649  39.213  15.215   7.955
 8401POPC   C4A37650  39.209  15.164   7.655
 8401POPC   C1B37651  38.980  15.058   8.555
 8401POPC   C2B37652  39.034  15.014   8.255
 8401POPC   C3B37653  39.058  15.047   7.955
 8401POPC   C4B37654  39.060  15.090   7.655
 8402POPC   NC337655   6.683  10.530   9.455
 8402POPC   PO437656   6.666  10.548   9.155
 8402POPC   GL137657   6.657  10.497   8.855
 8402POPC   GL237658   6.669  10.392   8.855
 8402POPC   C1A37659   6.664  10.564   8.555
 8402POPC   D2A37660   6.694  10.563   8.255
 8402POPC   C3A37661   6.633  10.540   7.955
 8402POPC   C4A37662   6.680  10.548   7.655
 8402POPC   C1B37663   6.605  10.226   8.555
 8402POPC   C2B37664   6.609  10.269   8.255
 8402POPC   C3B37665   6.619  10.315   7.955
 8402POPC   C4B37666   6.653  10.286   7.655
 8403POPC   NC337667   5.117   0.454   9.455
 8403POPC   PO437668   5.120   0.474   9.155
 8403POPC   GL137669   5.104   0.472   8.855
 8403POPC   GL237670   5.010   0.499   8.855
 8403POPC   C1A37671   5.052   0.441   8.555
 8403POPC   D2A37672   5.096   0.438   8.255
 8403POPC   C3A37673   5.046   0.415   7.955
 8403POPC   C4A37674   5.078   0.424   7.655
 8403POPC   C1B37675   4.896   0.582   8.555
 8403POPC   C2B37676   4.899   0.663   8.255
 8403POPC   C3B37677   4.977   0.638   7.955
 8403POPC   C4B37678   4.899   0.598   7.655
 8404POPC   NC337679  19.845  35.328   9.455
 8404POPC   PO437680  19.855  35.340   9.155
 8404POPC   GL137681  19.859  35.304   8.855
 8404POPC   GL237682  19.773  35.427   8.855
 8404POPC   C1A37683  19.876  35.333   8.555
 8404POPC   D2A37684  19.850  35.315   8.255
 8404POPC   C3A37685  19.830  35.309   7.955
 8404POPC   C4A37686  19.826  35.335   7.655
 8404POPC   C1B37687  19.710  35.596   8.555
 8404POPC   C2B37688  19.704  35.506   8.255
 8404POPC   C3B37689  19.666  35.558   7.955
 8404POPC   C4B37690  19.694  35.559   7.655
 8405POPC   NC337691   8.214  22.925   9.455
 8405POPC   PO437692   8.178  22.949   9.155
 8405POPC   GL137693   8.157  22.955   8.855
 8405POPC   GL237694   8.125  22.812   8.855
 8405POPC   C1A37695   8.215  22.957   8.555
 8405POPC   D2A37696   8.157  22.986   8.255
 8405POPC   C3A37697   8.205  22.963   7.955
 8405POPC   C4A37698   8.219  22.988   7.655
 8405POPC   C1B37699   7.990  22.792   8.555
 8405POPC   C2B37700   8.023  22.718   8.255
 8405POPC   C3B37701   7.982  22.784   7.955
 8405POPC   C4B37702   8.011  22.741   7.655
 8406POPC   NC337703  17.487  12.885   9.455
 8406POPC   PO437704  17.529  12.888   9.155
 8406POPC   GL137705  17.525  12.869   8.855
 8406POPC   GL237706  17.663  12.775   8.855
 8406POPC   C1A37707  17.530  12.823   8.555
 8406POPC   D2A37708  17.517  12.882   8.255
 8406POPC   C3A37709  17.482  12.805   7.955
 8406POPC   C4A37710  17.555  12.864   7.655
 8406POPC   C1B37711  17.753  12.813   8.555
 8406POPC   C2B37712  17.742  12.817   8.255
 8406POPC   C3B37713  17.704  12.834   7.955
 8406POPC   C4B37714  17.788  12.792   7.655
 8407POPC   NC337715  39.270  30.712   9.455
 8407POPC   PO437716  39.265  30.721   9.155
 8407POPC   GL137717  39.206  30.737   8.855
 8407POPC   GL237718  39.309  30.771   8.855
 8407POPC   C1A37719  39.182  30.668   8.555
 8407POPC   D2A37720  39.245  30.728   8.255
 8407POPC   C3A37721  39.234  30.740   7.955
 8407POPC   C4A37722  39.229  30.681   7.655
 8407POPC   C1B37723  39.399  30.817   8.555
 8407POPC   C2B37724  39.384  30.817   8.255
 8407POPC   C3B37725  39.446  30.851   7.955
 8407POPC   C4B37726  39.425  30.851   7.655
 8408POPC   NC337727   7.420  26.065   9.455
 8408POPC   PO437728   7.468  26.088   9.155
 8408POPC   GL137729   7.420  26.007   8.855
 8408POPC   GL237730   7.456  26.180   8.855
 8408POPC   C1A37731   7.373  26.036   8.555
 8408POPC   D2A37732   7.388  26.056   8.255
 8408POPC   C3A37733   7.432  26.053   7.955
 8408POPC   C4A37734   7.449  26.047   7.655
 8408POPC   C1B37735   7.540  26.229   8.555
 8408POPC   C2B37736   7.553  26.281   8.255
 8408POPC   C3B37737   7.585  26.242   7.955
 8408POPC   C4B37738   7.541  26.279   7.655
 8409POPC   NC337739  18.299  39.182   9.455
 8409POPC   PO437740  18.238  39.186   9.155
 8409POPC   GL137741  18.270  39.218   8.855
 8409POPC   GL237742  18.336  39.265   8.855
 8409POPC   C1A37743  18.304  39.221   8.555
 8409POPC   D2A37744  18.299  39.247   8.255
 8409POPC   C3A37745  18.273  39.219   7.955
 8409POPC   C4A37746  18.305  39.277   7.655
 8409POPC   C1B37747  18.503  39.374   8.555
 8409POPC   C2B37748  18.497  39.428   8.255
 8409POPC   C3B37749  18.489  39.374   7.955
 8409POPC   C4B37750  18.460  39.348   7.655
 8410POPC   NC337751  17.500  18.291   9.455
 8410POPC   PO437752  17.512  18.273   9.155
 8410POPC   GL137753  17.555  18.315   8.855
 8410POPC   GL237754  17.419  18.384   8.855
 8410POPC   C1A37755  17.492  18.289   8.555
 8410POPC   D2A37756  17.485  18.264   8.255
 8410POPC   C3A37757  17.484  18.282   7.955
 8410POPC   C4A37758  17.543  18.317   7.655
 8410POPC   C1B37759  17.309  18.518   8.555
 8410POPC   C2B37760  17.368  18.439   8.255
 8410POPC   C3B37761  17.401  18.522   7.955
 8410POPC   C4B37762  17.340  18.452   7.655
 8411POPC   NC337763  28.357  17.533   9.455
 8411POPC   PO437764  28.384  17.509   9.155
 8411POPC   GL137765  28.328  17.461   8.855
 8411POPC   GL237766  28.225  17.423   8.855
 8411POPC   C1A37767  28.403  17.463   8.555
 8411POPC   D2A37768  28.388  17.469   8.255
 8411POPC   C3A37769  28.343  17.556   7.955
 8411POPC   C4A37770  28.346  17.459   7.655
 8411POPC   C1B37771  28.104  17.424   8.555
 8411POPC   C2B37772  28.123  17.422   8.255
 8411POPC   C3B37773  28.118  17.388   7.955
 8411POPC   C4B37774  28.140  17.392   7.655
 8412POPC   NC337775   5.882  26.040   9.455
 8412POPC   PO437776   5.864  26.032   9.155
 8412POPC   GL137777   5.864  25.996   8.855
 8412POPC   GL237778   5.973  26.039   8.855
 8412POPC   C1A37779   5.908  26.090   8.555
 8412POPC   D2A37780   5.895  26.008   8.255
 8412POPC   C3A37781   5.908  26.009   7.955
 8412POPC   C4A37782   5.893  26.054   7.655
 8412POPC   C1B37783   6.138  26.108   8.555
 8412POPC   C2B37784   6.106  26.178   8.255
 8412POPC   C3B37785   6.070  26.162   7.955
 8412POPC   C4B37786   6.133  26.151   7.655
 8413POPC   NC337787   0.449  22.208   9.455
 8413POPC   PO437788   0.418  22.186   9.155
 8413POPC   GL137789   0.424  22.120   8.855
 8413POPC   GL237790   0.540  22.221   8.855
 8413POPC   C1A37791   0.488  22.175   8.555
 8413POPC   D2A37792   0.460  22.154   8.255
 8413POPC   C3A37793   0.468  22.165   7.955
 8413POPC   C4A37794   0.477  22.172   7.655
 8413POPC   C1B37795   0.611  22.416   8.555
 8413POPC   C2B37796   0.549  22.347   8.255
 8413POPC   C3B37797   0.574  22.330   7.955
 8413POPC   C4B37798   0.556  22.335   7.655
 8414POPC   NC337799  36.104  26.849   9.455
 8414POPC   PO437800  36.097  26.792   9.155
 8414POPC   GL137801  36.170  26.824   8.855
 8414POPC   GL237802  36.100  26.892   8.855
 8414POPC   C1A37803  36.155  26.825   8.555
 8414POPC   D2A37804  36.163  26.829   8.255
 8414POPC   C3A37805  36.129  26.769   7.955
 8414POPC   C4A37806  36.095  26.805   7.655
 8414POPC   C1B37807  35.988  27.006   8.555
 8414POPC   C2B37808  36.045  27.035   8.255
 8414POPC   C3B37809  36.016  27.031   7.955
 8414POPC   C4B37810  36.001  27.066   7.655
 8415POPC   NC337811  40.016   5.069   9.455
 8415POPC   PO437812  40.048   5.130   9.155
 8415POPC   GL137813  40.022   5.106   8.855
 8415POPC   GL237814  40.028   5.213   8.855
 8415POPC   C1A37815  40.014   5.043   8.555
 8415POPC   D2A37816  40.046   5.050   8.255
 8415POPC   C3A37817  40.023   5.075   7.955
 8415POPC   C4A37818  39.971   5.079   7.655
 8415POPC   C1B37819  40.090   5.324   8.555
 8415POPC   C2B37820  40.095   5.369   8.255
 8415POPC   C3B37821  40.067   5.281   7.955
 8415POPC   C4B37822  40.087   5.359   7.655
 8416POPC   NC337823  40.804   5.905   9.455
 8416POPC   PO437824  40.784   5.875   9.155
 8416POPC   GL137825  40.781   5.889   8.855
 8416POPC   GL237826  40.913   5.896   8.855
 8416POPC   C1A37827  40.754   5.896   8.555
 8416POPC   D2A37828  40.800   5.869   8.255
 8416POPC   C3A37829  40.774   5.909   7.955
 8416POPC   C4A37830  40.773   5.889   7.655
 8416POPC   C1B37831  41.044   5.919   8.555
 8416POPC   C2B37832  41.057   5.878   8.255
 8416POPC   C3B37833  41.032   5.909   7.955
 8416POPC   C4B37834  41.034   5.881   7.655
 8417POPC   NC337835  18.329  32.280   9.455
 8417POPC   PO437836  18.324  32.253   9.155
 8417POPC   GL137837  18.275  32.268   8.855
 8417POPC   GL237838  18.246  32.109   8.855
 8417POPC   C1A37839  18.246  32.227   8.555
 8417POPC   D2A37840  18.234  32.245   8.255
 8417POPC   C3A37841  18.315  32.248   7.955
 8417POPC   C4A37842  18.273  32.262   7.655
 8417POPC   C1B37843  18.130  32.024   8.555
 8417POPC   C2B37844  18.154  32.046   8.255
 8417POPC   C3B37845  18.113  31.987   7.955
 8417POPC   C4B37846  18.117  32.046   7.655
 8418POPC   NC337847   9.784  39.197   9.455
 8418POPC   PO437848   9.777  39.258   9.155
 8418POPC   GL137849   9.715  39.189   8.855
 8418POPC   GL237850   9.901  39.219   8.855
 8418POPC   C1A37851   9.758  39.276   8.555
 8418POPC   D2A37852   9.755  39.267   8.255
 8418POPC   C3A37853   9.723  39.215   7.955
 8418POPC   C4A37854   9.725  39.220   7.655
 8418POPC   C1B37855   9.997  39.298   8.555
 8418POPC   C2B37856  10.040  39.291   8.255
 8418POPC   C3B37857  10.045  39.225   7.955
 8418POPC   C4B37858   9.965  39.271   7.655
 8419POPC   NC337859  44.647   7.419   9.455
 8419POPC   PO437860  44.634   7.441   9.155
 8419POPC   GL137861  44.631   7.461   8.855
 8419POPC   GL237862  44.599   7.488   8.855
 8419POPC   C1A37863  44.653   7.395   8.555
 8419POPC   D2A37864  44.615   7.395   8.255
 8419POPC   C3A37865  44.624   7.440   7.955
 8419POPC   C4A37866  44.628   7.397   7.655
 8419POPC   C1B37867  44.499   7.582   8.555
 8419POPC   C2B37868  44.449   7.600   8.255
 8419POPC   C3B37869  44.459   7.573   7.955
 8419POPC   C4B37870  44.469   7.545   7.655
 8420POPC   NC337871  37.643  38.433   9.455
 8420POPC   PO437872  37.671  38.486   9.155
 8420POPC   GL137873  37.670  38.417   8.855
 8420POPC   GL237874  37.598  38.369   8.855
 8420POPC   C1A37875  37.692  38.482   8.555
 8420POPC   D2A37876  37.705  38.477   8.255
 8420POPC   C3A37877  37.675  38.471   7.955
 8420POPC   C4A37878  37.702  38.406   7.655
 8420POPC   C1B37879  37.446  38.333   8.555
 8420POPC   C2B37880  37.490  38.328   8.255
 8420POPC   C3B37881  37.474  38.343   7.955
 8420POPC   C4B37882  37.470  38.357   7.655
 8421POPC   NC337883   1.259   8.173   9.455
 8421POPC   PO437884   1.237   8.214   9.155
 8421POPC   GL137885   1.258   8.149   8.855
 8421POPC   GL237886   1.164   8.041   8.855
 8421POPC   C1A37887   1.226   8.174   8.555
 8421POPC   D2A37888   1.253   8.149   8.255
 8421POPC   C3A37889   1.221   8.230   7.955
 8421POPC   C4A37890   1.178   8.177   7.655
 8421POPC   C1B37891   1.113   7.934   8.555
 8421POPC   C2B37892   1.141   7.908   8.255
 8421POPC   C3B37893   1.189   7.954   7.955
 8421POPC   C4B37894   1.149   7.990   7.655
 8422POPC   NC337895  38.433   1.948   9.455
 8422POPC   PO437896  38.446   1.957   9.155
 8422POPC   GL137897  38.445   1.942   8.855
 8422POPC   GL237898  38.537   2.088   8.855
 8422POPC   C1A37899  38.487   1.942   8.555
 8422POPC   D2A37900  38.490   2.020   8.255
 8422POPC   C3A37901  38.409   2.037   7.955
 8422POPC   C4A37902  38.490   1.970   7.655
 8422POPC   C1B37903  38.595   2.144   8.555
 8422POPC   C2B37904  38.609   2.157   8.255
 8422POPC   C3B37905  38.618   2.114   7.955
 8422POPC   C4B37906  38.645   2.121   7.655
 8423POPC   NC337907  16.750   9.789   9.455
 8423POPC   PO437908  16.705   9.700   9.155
 8423POPC   GL137909  16.763   9.795   8.855
 8423POPC   GL237910  16.880   9.734   8.855
 8423POPC   C1A37911  16.776   9.776   8.555
 8423POPC   D2A37912  16.697   9.711   8.255
 8423POPC   C3A37913  16.698   9.715   7.955
 8423POPC   C4A37914  16.744   9.715   7.655
 8423POPC   C1B37915  16.939   9.865   8.555
 8423POPC   C2B37916  16.972   9.795   8.255
 8423POPC   C3B37917  16.941   9.853   7.955
 8423POPC   C4B37918  16.926   9.771   7.655
 8424POPC   NC337919  12.057  39.195   9.455
 8424POPC   PO437920  12.109  39.190   9.155
 8424POPC   GL137921  12.080  39.209   8.855
 8424POPC   GL237922  12.026  39.300   8.855
 8424POPC   C1A37923  12.112  39.252   8.555
 8424POPC   D2A37924  12.100  39.263   8.255
 8424POPC   C3A37925  12.123  39.277   7.955
 8424POPC   C4A37926  12.069  39.211   7.655
 8424POPC   C1B37927  11.908  39.460   8.555
 8424POPC   C2B37928  11.892  39.423   8.255
 8424POPC   C3B37929  11.943  39.455   7.955
 8424POPC   C4B37930  11.866  39.430   7.655
 8425POPC   NC337931  10.478  19.048   5.555
 8425POPC   PO437932  10.550  19.090   5.855
 8425POPC   GL137933  10.541  19.105   6.155
 8425POPC   GL237934  10.401  19.001   6.155
 8425POPC   C1A37935  10.551  19.074   6.455
 8425POPC   D2A37936  10.504  19.063   6.755
 8425POPC   C3A37937  10.482  19.034   7.055
 8425POPC   C4A37938  10.564  19.022   7.355
 8425POPC   C1B37939  10.311  18.923   6.455
 8425POPC   C2B37940  10.326  18.919   6.755
 8425POPC   C3B37941  10.310  18.954   7.055
 8425POPC   C4B37942  10.265  18.985   7.355
 8426POPC   NC337943   8.989   8.940   5.555
 8426POPC   PO437944   8.947   8.985   5.855
 8426POPC   GL137945   9.014   8.982   6.155
 8426POPC   GL237946   8.938   9.111   6.155
 8426POPC   C1A37947   8.959   8.974   6.455
 8426POPC   D2A37948   8.923   8.988   6.755
 8426POPC   C3A37949   8.925   8.978   7.055
 8426POPC   C4A37950   8.959   8.999   7.355
 8426POPC   C1B37951   8.879   9.237   6.455
 8426POPC   C2B37952   8.929   9.239   6.755
 8426POPC   C3B37953   8.946   9.186   7.055
 8426POPC   C4B37954   8.877   9.211   7.355
 8427POPC   NC337955  16.698   9.727   5.555
 8427POPC   PO437956  16.781   9.790   5.855
 8427POPC   GL137957  16.778   9.785   6.155
 8427POPC   GL237958  16.814   9.832   6.155
 8427POPC   C1A37959  16.721   9.734   6.455
 8427POPC   D2A37960  16.717   9.706   6.755
 8427POPC   C3A37961  16.735   9.699   7.055
 8427POPC   C4A37962  16.695   9.759   7.355
 8427POPC   C1B37963  16.950   9.866   6.455
 8427POPC   C2B37964  16.910   9.898   6.755
 8427POPC   C3B37965  16.950   9.875   7.055
 8427POPC   C4B37966  16.934   9.839   7.355
 8428POPC   NC337967   3.582   5.079   5.555
 8428POPC   PO437968   3.543   5.089   5.855
 8428POPC   GL137969   3.533   5.116   6.155
 8428POPC   GL237970   3.416   5.115   6.155
 8428POPC   C1A37971   3.590   5.086   6.455
 8428POPC   D2A37972   3.591   5.093   6.755
 8428POPC   C3A37973   3.522   5.071   7.055
 8428POPC   C4A37974   3.556   5.117   7.355
 8428POPC   C1B37975   3.266   5.042   6.455
 8428POPC   C2B37976   3.332   4.995   6.755
 8428POPC   C3B37977   3.320   5.010   7.055
 8428POPC   C4B37978   3.314   4.996   7.355
 8429POPC   NC337979  15.162  43.848   5.555
 8429POPC   PO437980  15.197  43.933   5.855
 8429POPC   GL137981  15.179  43.930   6.155
 8429POPC   GL237982  15.228  43.988   6.155
 8429POPC   C1A37983  15.194  43.875   6.455
 8429POPC   D2A37984  15.226  43.863   6.755
 8429POPC   C3A37985  15.137  43.849   7.055
 8429POPC   C4A37986  15.144  43.882   7.355
 8429POPC   C1B37987  15.283  44.088   6.455
 8429POPC   C2B37988  15.223  44.077   6.755
 8429POPC   C3B37989  15.283  44.095   7.055
 8429POPC   C4B37990  15.227  44.156   7.355
 8430POPC   NC337991  32.258  33.822   5.555
 8430POPC   PO437992  32.230  33.811   5.855
 8430POPC   GL137993  32.237  33.773   6.155
 8430POPC   GL237994  32.145  33.842   6.155
 8430POPC   C1A37995  32.288  33.756   6.455
 8430POPC   D2A37996  32.274  33.839   6.755
 8430POPC   C3A37997  32.228  33.829   7.055
 8430POPC   C4A37998  32.242  33.797   7.355
 8430POPC   C1B37999  32.008  33.922   6.455
 8430POPC   C2B38000  32.035  33.974   6.755
 8430POPC   C3B38001  32.070  33.942   7.055
 8430POPC   C4B38002  32.072  33.976   7.355
 8431POPC   NC338003   0.436  25.276   5.555
 8431POPC   PO438004   0.452  25.269   5.855
 8431POPC   GL138005   0.460  25.265   6.155
 8431POPC   GL238006   0.489  25.418   6.155
 8431POPC   C1A38007   0.479  25.271   6.455
 8431POPC   D2A38008   0.466  25.268   6.755
 8431POPC   C3A38009   0.464  25.263   7.055
 8431POPC   C4A38010   0.485  25.252   7.355
 8431POPC   C1B38011   0.525  25.549   6.455
 8431POPC   C2B38012   0.532  25.541   6.755
 8431POPC   C3B38013   0.482  25.548   7.055
 8431POPC   C4B38014   0.475  25.537   7.355
 8432POPC   NC338015   5.843  24.508   5.555
 8432POPC   PO438016   5.890  24.460   5.855
 8432POPC   GL138017   5.868  24.534   6.155
 8432POPC   GL238018   5.704  24.537   6.155
 8432POPC   C1A38019   5.899  24.500   6.455
 8432POPC   D2A38020   5.836  24.502   6.755
 8432POPC   C3A38021   5.836  24.452   7.055
 8432POPC   C4A38022   5.857  24.463   7.355
 8432POPC   C1B38023   5.662  24.535   6.455
 8432POPC   C2B38024   5.665  24.619   6.755
 8432POPC   C3B38025   5.614  24.543   7.055
 8432POPC   C4B38026   5.666  24.619   7.355
 8433POPC   NC338027  17.479  43.851   5.555
 8433POPC   PO438028  17.522  43.838   5.855
 8433POPC   GL138029  17.467  43.874   6.155
 8433POPC   GL238030  17.610  43.811   6.155
 8433POPC   C1A38031  17.487  43.881   6.455
 8433POPC   D2A38032  17.536  43.901   6.755
 8433POPC   C3A38033  17.556  43.859   7.055
 8433POPC   C4A38034  17.554  43.874   7.355
 8433POPC   C1B38035  17.781  43.845   6.455
 8433POPC   C2B38036  17.711  43.817   6.755
 8433POPC   C3B38037  17.755  43.837   7.055
 8433POPC   C4B38038  17.737  43.847   7.355
 8434POPC   NC338039  13.637   3.581   5.555
 8434POPC   PO438040  13.617   3.571   5.855
 8434POPC   GL138041  13.589   3.510   6.155
 8434POPC   GL238042  13.583   3.623   6.155
 8434POPC   C1A38043  13.586   3.572   6.455
 8434POPC   D2A38044  13.629   3.516   6.755
 8434POPC   C3A38045  13.599   3.526   7.055
 8434POPC   C4A38046  13.661   3.549   7.355
 8434POPC   C1B38047  13.596   3.832   6.455
 8434POPC   C2B38048  13.617   3.761   6.755
 8434POPC   C3B38049  13.653   3.802   7.055
 8434POPC   C4B38050  13.610   3.747   7.355
 8435POPC   NC338051  43.097  43.881   5.555
 8435POPC   PO438052  43.071  43.856   5.855
 8435POPC   GL138053  43.090  43.887   6.155
 8435POPC   GL238054  42.977  43.993   6.155
 8435POPC   C1A38055  43.066  43.890   6.455
 8435POPC   D2A38056  43.106  43.893   6.755
 8435POPC   C3A38057  43.077  43.862   7.055
 8435POPC   C4A38058  43.104  43.925   7.355
 8435POPC   C1B38059  42.848  44.017   6.455
 8435POPC   C2B38060  42.895  44.044   6.755
 8435POPC   C3B38061  42.933  44.030   7.055
 8435POPC   C4B38062  42.846  44.029   7.355
 8436POPC   NC338063  15.950  24.475   5.555
 8436POPC   PO438064  16.003  24.493   5.855
 8436POPC   GL138065  15.980  24.468   6.155
 8436POPC   GL238066  16.046  24.477   6.155
 8436POPC   C1A38067  15.928  24.463   6.455
 8436POPC   D2A38068  15.943  24.443   6.755
 8436POPC   C3A38069  15.970  24.531   7.055
 8436POPC   C4A38070  15.986  24.493   7.355
 8436POPC   C1B38071  16.195  24.521   6.455
 8436POPC   C2B38072  16.219  24.508   6.755
 8436POPC   C3B38073  16.202  24.452   7.055
 8436POPC   C4B38074  16.242  24.511   7.355
 8437POPC   NC338075  16.779  11.282   5.555
 8437POPC   PO438076  16.708  11.305   5.855
 8437POPC   GL138077  16.701  11.257   6.155
 8437POPC   GL238078  16.673  11.218   6.155
 8437POPC   C1A38079  16.689  11.287   6.455
 8437POPC   D2A38080  16.691  11.286   6.755
 8437POPC   C3A38081  16.779  11.333   7.055
 8437POPC   C4A38082  16.704  11.341   7.355
 8437POPC   C1B38083  16.653  11.058   6.455
 8437POPC   C2B38084  16.674  11.052   6.755
 8437POPC   C3B38085  16.696  11.095   7.055
 8437POPC   C4B38086  16.634  11.098   7.355
 8438POPC   NC338087  12.850  30.705   5.555
 8438POPC   PO438088  12.815  30.690   5.855
 8438POPC   GL138089  12.821  30.685   6.155
 8438POPC   GL238090  12.990  30.676   6.155
 8438POPC   C1A38091  12.819  30.696   6.455
 8438POPC   D2A38092  12.875  30.697   6.755
 8438POPC   C3A38093  12.900  30.687   7.055
 8438POPC   C4A38094  12.838  30.692   7.355
 8438POPC   C1B38095  13.056  30.663   6.455
 8438POPC   C2B38096  13.058  30.592   6.755
 8438POPC   C3B38097  13.082  30.599   7.055
 8438POPC   C4B38098  13.092  30.646   7.355
 8439POPC   NC338099  19.081  36.084   5.555
 8439POPC   PO438100  19.088  36.152   5.855
 8439POPC   GL138101  19.031  36.149   6.155
 8439POPC   GL238102  19.098  36.216   6.155
 8439POPC   C1A38103  19.030  36.103   6.455
 8439POPC   D2A38104  19.102  36.116   6.755
 8439POPC   C3A38105  19.030  36.157   7.055
 8439POPC   C4A38106  19.064  36.111   7.355
 8439POPC   C1B38107  19.241  36.318   6.455
 8439POPC   C2B38108  19.228  36.358   6.755
 8439POPC   C3B38109  19.270  36.279   7.055
 8439POPC   C4B38110  19.214  36.313   7.355
 8440POPC   NC338111   5.874  41.606   5.555
 8440POPC   PO438112   5.886  41.594   5.855
 8440POPC   GL138113   5.892  41.538   6.155
 8440POPC   GL238114   5.791  41.446   6.155
 8440POPC   C1A38115   5.881  41.542   6.455
 8440POPC   D2A38116   5.881  41.586   6.755
 8440POPC   C3A38117   5.910  41.537   7.055
 8440POPC   C4A38118   5.890  41.597   7.355
 8440POPC   C1B38119   5.754  41.310   6.455
 8440POPC   C2B38120   5.699  41.386   6.755
 8440POPC   C3B38121   5.685  41.343   7.055
 8440POPC   C4B38122   5.697  41.342   7.355
 8441POPC   NC338123  42.322  12.858   5.555
 8441POPC   PO438124  42.309  12.822   5.855
 8441POPC   GL138125  42.325  12.870   6.155
 8441POPC   GL238126  42.228  12.949   6.155
 8441POPC   C1A38127  42.285  12.827   6.455
 8441POPC   D2A38128  42.341  12.868   6.755
 8441POPC   C3A38129  42.357  12.818   7.055
 8441POPC   C4A38130  42.317  12.868   7.355
 8441POPC   C1B38131  42.102  12.967   6.455
 8441POPC   C2B38132  42.129  13.031   6.755
 8441POPC   C3B38133  42.082  12.938   7.055
 8441POPC   C4B38134  42.085  12.996   7.355
 8442POPC   NC338135  23.670  36.168   5.555
 8442POPC   PO438136  23.748  36.102   5.855
 8442POPC   GL138137  23.756  36.152   6.155
 8442POPC   GL238138  23.749  36.044   6.155
 8442POPC   C1A38139  23.760  36.086   6.455
 8442POPC   D2A38140  23.699  36.113   6.755
 8442POPC   C3A38141  23.739  36.163   7.055
 8442POPC   C4A38142  23.684  36.171   7.355
 8442POPC   C1B38143  23.779  35.858   6.455
 8442POPC   C2B38144  23.792  35.921   6.755
 8442POPC   C3B38145  23.756  35.907   7.055
 8442POPC   C4B38146  23.787  35.893   7.355
 8443POPC   NC338147  29.136  33.004   5.555
 8443POPC   PO438148  29.190  32.994   5.855
 8443POPC   GL138149  29.167  33.062   6.155
 8443POPC   GL238150  29.132  32.864   6.155
 8443POPC   C1A38151  29.160  33.074   6.455
 8443POPC   D2A38152  29.115  33.066   6.755
 8443POPC   C3A38153  29.189  33.015   7.055
 8443POPC   C4A38154  29.155  33.061   7.355
 8443POPC   C1B38155  29.085  32.797   6.455
 8443POPC   C2B38156  29.172  32.819   6.755
 8443POPC   C3B38157  29.174  32.790   7.055
 8443POPC   C4B38158  29.121  32.804   7.355
 8444POPC   NC338159  13.658  28.406   5.555
 8444POPC   PO438160  13.655  28.336   5.855
 8444POPC   GL138161  13.621  28.381   6.155
 8444POPC   GL238162  13.745  28.336   6.155
 8444POPC   C1A38163  13.669  28.385   6.455
 8444POPC   D2A38164  13.645  28.380   6.755
 8444POPC   C3A38165  13.599  28.371   7.055
 8444POPC   C4A38166  13.635  28.403   7.355
 8444POPC   C1B38167  13.803  28.223   6.455
 8444POPC   C2B38168  13.844  28.227   6.755
 8444POPC   C3B38169  13.821  28.195   7.055
 8444POPC   C4B38170  13.787  28.250   7.355
 8445POPC   NC338171  36.895  42.380   5.555
 8445POPC   PO438172  36.860  42.340   5.855
 8445POPC   GL138173  36.947  42.326   6.155
 8445POPC   GL238174  36.877  42.178   6.155
 8445POPC   C1A38175  36.908  42.384   6.455
 8445POPC   D2A38176  36.878  42.348   6.755
 8445POPC   C3A38177  36.936  42.298   7.055
 8445POPC   C4A38178  36.878  42.293   7.355
 8445POPC   C1B38179  36.879  42.067   6.455
 8445POPC   C2B38180  36.886  42.060   6.755
 8445POPC   C3B38181  36.874  42.114   7.055
 8445POPC   C4B38182  36.921  42.081   7.355
 8446POPC   NC338183  25.253  22.179   5.555
 8446POPC   PO438184  25.273  22.140   5.855
 8446POPC   GL138185  25.292  22.149   6.155
 8446POPC   GL238186  25.189  22.032   6.155
 8446POPC   C1A38187  25.249  22.167   6.455
 8446POPC   D2A38188  25.271  22.187   6.755
 8446POPC   C3A38189  25.284  22.114   7.055
 8446POPC   C4A38190  25.239  22.135   7.355
 8446POPC   C1B38191  25.036  21.940   6.455
 8446POPC   C2B38192  25.115  22.008   6.755
 8446POPC   C3B38193  25.051  22.024   7.055
 8446POPC   C4B38194  25.103  21.998   7.355
 8447POPC   NC338195  31.491  22.198   5.555
 8447POPC   PO438196  31.472  22.114   5.855
 8447POPC   GL138197  31.503  22.144   6.155
 8447POPC   GL238198  31.373  22.211   6.155
 8447POPC   C1A38199  31.496  22.171   6.455
 8447POPC   D2A38200  31.429  22.171   6.755
 8447POPC   C3A38201  31.451  22.115   7.055
 8447POPC   C4A38202  31.475  22.183   7.355
 8447POPC   C1B38203  31.332  22.287   6.455
 8447POPC   C2B38204  31.328  22.307   6.755
 8447POPC   C3B38205  31.250  22.304   7.055
 8447POPC   C4B38206  31.245  22.350   7.355
 8448POPC   NC338207   8.167   2.016   5.555
 8448POPC   PO438208   8.243   2.026   5.855
 8448POPC   GL138209   8.228   1.983   6.155
 8448POPC   GL238210   8.051   1.936   6.155
 8448POPC   C1A38211   8.176   1.969   6.455
 8448POPC   D2A38212   8.240   1.982   6.755
 8448POPC   C3A38213   8.192   1.957   7.055
 8448POPC   C4A38214   8.179   1.955   7.355
 8448POPC   C1B38215   7.950   2.006   6.455
 8448POPC   C2B38216   7.910   1.941   6.755
 8448POPC   C3B38217   7.927   2.013   7.055
 8448POPC   C4B38218   7.976   1.939   7.355
 8449POPC   NC338219  14.396  25.217   5.555
 8449POPC   PO438220  14.394  25.265   5.855
 8449POPC   GL138221  14.429  25.288   6.155
 8449POPC   GL238222  14.304  25.179   6.155
 8449POPC   C1A38223  14.430  25.232   6.455
 8449POPC   D2A38224  14.422  25.236   6.755
 8449POPC   C3A38225  14.447  25.313   7.055
 8449POPC   C4A38226  14.358  25.301   7.355
 8449POPC   C1B38227  14.175  25.146   6.455
 8449POPC   C2B38228  14.217  25.159   6.755
 8449POPC   C3B38229  14.159  25.176   7.055
 8449POPC   C4B38230  14.207  25.142   7.355
 8450POPC   NC338231   5.057  22.179   5.555
 8450POPC   PO438232   5.117  22.164   5.855
 8450POPC   GL138233   5.089  22.192   6.155
 8450POPC   GL238234   5.143  22.311   6.155
 8450POPC   C1A38235   5.061  22.126   6.455
 8450POPC   D2A38236   5.127  22.209   6.755
 8450POPC   C3A38237   5.130  22.147   7.055
 8450POPC   C4A38238   5.089  22.210   7.355
 8450POPC   C1B38239   5.118  22.439   6.455
 8450POPC   C2B38240   5.122  22.450   6.755
 8450POPC   C3B38241   5.177  22.361   7.055
 8450POPC   C4B38242   5.170  22.432   7.355
 8451POPC   NC338243  12.900  22.913   5.555
 8451POPC   PO438244  12.824  22.972   5.855
 8451POPC   GL138245  12.886  22.986   6.155
 8451POPC   GL238246  12.715  22.904   6.155
 8451POPC   C1A38247  12.901  22.899   6.455
 8451POPC   D2A38248  12.871  22.924   6.755
 8451POPC   C3A38249  12.836  22.969   7.055
 8451POPC   C4A38250  12.829  22.902   7.355
 8451POPC   C1B38251  12.596  22.909   6.455
 8451POPC   C2B38252  12.585  22.921   6.755
 8451POPC   C3B38253  12.564  22.899   7.055
 8451POPC   C4B38254  12.603  22.903   7.355
 8452POPC   NC338255   8.181  15.943   5.555
 8452POPC   PO438256   8.157  15.988   5.855
 8452POPC   GL138257   8.160  16.002   6.155
 8452POPC   GL238258   8.152  16.104   6.155
 8452POPC   C1A38259   8.168  15.991   6.455
 8452POPC   D2A38260   8.171  15.937   6.755
 8452POPC   C3A38261   8.205  15.947   7.055
 8452POPC   C4A38262   8.233  15.910   7.355
 8452POPC   C1B38263   8.055  16.132   6.455
 8452POPC   C2B38264   8.052  16.178   6.755
 8452POPC   C3B38265   8.066  16.135   7.055
 8452POPC   C4B38266   8.108  16.160   7.355
 8453POPC   NC338267  13.649   7.428   5.555
 8453POPC   PO438268  13.586   7.457   5.855
 8453POPC   GL138269  13.656   7.401   6.155
 8453POPC   GL238270  13.550   7.456   6.155
 8453POPC   C1A38271  13.659   7.383   6.455
 8453POPC   D2A38272  13.656   7.376   6.755
 8453POPC   C3A38273  13.648   7.459   7.055
 8453POPC   C4A38274  13.586   7.436   7.355
 8453POPC   C1B38275  13.374   7.499   6.455
 8453POPC   C2B38276  13.386   7.491   6.755
 8453POPC   C3B38277  13.364   7.544   7.055
 8453POPC   C4B38278  13.377   7.548   7.355
 8454POPC   NC338279  23.715  22.938   5.555
 8454POPC   PO438280  23.666  22.960   5.855
 8454POPC   GL138281  23.748  22.930   6.155
 8454POPC   GL238282  23.790  22.830   6.155
 8454POPC   C1A38283  23.666  22.900   6.455
 8454POPC   D2A38284  23.727  22.978   6.755
 8454POPC   C3A38285  23.681  22.964   7.055
 8454POPC   C4A38286  23.666  22.901   7.355
 8454POPC   C1B38287  23.850  22.770   6.455
 8454POPC   C2B38288  23.850  22.777   6.755
 8454POPC   C3B38289  23.880  22.762   7.055
 8454POPC   C4B38290  23.919  22.785   7.355
 8455POPC   NC338291   8.962   7.453   5.555
 8455POPC   PO438292   8.973   7.403   5.855
 8455POPC   GL138293   9.008   7.404   6.155
 8455POPC   GL238294   8.914   7.474   6.155
 8455POPC   C1A38295   8.946   7.427   6.455
 8455POPC   D2A38296   8.931   7.425   6.755
 8455POPC   C3A38297   8.929   7.424   7.055
 8455POPC   C4A38298   8.955   7.430   7.355
 8455POPC   C1B38299   8.854   7.649   6.455
 8455POPC   C2B38300   8.821   7.639   6.755
 8455POPC   C3B38301   8.801   7.655   7.055
 8455POPC   C4B38302   8.790   7.653   7.355
 8456POPC   NC338303  10.565  43.880   5.555
 8456POPC   PO438304  10.548  43.872   5.855
 8456POPC   GL138305  10.540  43.882   6.155
 8456POPC   GL238306  10.494  43.770   6.155
 8456POPC   C1A38307  10.494  43.840   6.455
 8456POPC   D2A38308  10.505  43.879   6.755
 8456POPC   C3A38309  10.529  43.880   7.055
 8456POPC   C4A38310  10.569  43.855   7.355
 8456POPC   C1B38311  10.429  43.682   6.455
 8456POPC   C2B38312  10.359  43.694   6.755
 8456POPC   C3B38313  10.424  43.689   7.055
 8456POPC   C4B38314  10.372  43.635   7.355
 8457POPC   NC338315  25.226  18.293   5.555
 8457POPC   PO438316  25.276  18.330   5.855
 8457POPC   GL138317  25.301  18.284   6.155
 8457POPC   GL238318  25.395  18.250   6.155
 8457POPC   C1A38319  25.312  18.284   6.455
 8457POPC   D2A38320  25.300  18.332   6.755
 8457POPC   C3A38321  25.281  18.239   7.055
 8457POPC   C4A38322  25.311  18.239   7.355
 8457POPC   C1B38323  25.487  18.265   6.455
 8457POPC   C2B38324  25.507  18.347   6.755
 8457POPC   C3B38325  25.525  18.346   7.055
 8457POPC   C4B38326  25.497  18.279   7.355
 8458POPC   NC338327  14.433  42.371   5.555
 8458POPC   PO438328  14.389  42.381   5.855
 8458POPC   GL138329  14.394  42.376   6.155
 8458POPC   GL238330  14.271  42.235   6.155
 8458POPC   C1A38331  14.398  42.292   6.455
 8458POPC   D2A38332  14.445  42.290   6.755
 8458POPC   C3A38333  14.443  42.328   7.055
 8458POPC   C4A38334  14.381  42.352   7.355
 8458POPC   C1B38335  14.172  42.177   6.455
 8458POPC   C2B38336  14.175  42.218   6.755
 8458POPC   C3B38337  14.201  42.221   7.055
 8458POPC   C4B38338  14.176  42.250   7.355
 8459POPC   NC338339  42.368  17.462   5.555
 8459POPC   PO438340  42.357  17.548   5.855
 8459POPC   GL138341  42.329  17.486   6.155
 8459POPC   GL238342  42.290  17.339   6.155
 8459POPC   C1A38343  42.289  17.503   6.455
 8459POPC   D2A38344  42.352  17.554   6.755
 8459POPC   C3A38345  42.335  17.523   7.055
 8459POPC   C4A38346  42.318  17.541   7.355
 8459POPC   C1B38347  42.325  17.258   6.455
 8459POPC   C2B38348  42.333  17.272   6.755
 8459POPC   C3B38349  42.323  17.240   7.055
 8459POPC   C4B38350  42.337  17.264   7.355
 8460POPC   NC338351  19.788  23.703   5.555
 8460POPC   PO438352  19.815  23.746   5.855
 8460POPC   GL138353  19.839  23.679   6.155
 8460POPC   GL238354  19.996  23.759   6.155
 8460POPC   C1A38355  19.876  23.685   6.455
 8460POPC   D2A38356  19.846  23.694   6.755
 8460POPC   C3A38357  19.846  23.693   7.055
 8460POPC   C4A38358  19.835  23.731   7.355
 8460POPC   C1B38359  20.116  23.701   6.455
 8460POPC   C2B38360  20.116  23.723   6.755
 8460POPC   C3B38361  20.075  23.764   7.055
 8460POPC   C4B38362  20.047  23.689   7.355
 8461POPC   NC338363  40.762  30.705   5.555
 8461POPC   PO438364  40.806  30.696   5.855
 8461POPC   GL138365  40.811  30.647   6.155
 8461POPC   GL238366  40.830  30.584   6.155
 8461POPC   C1A38367  40.774  30.665   6.455
 8461POPC   D2A38368  40.786  30.671   6.755
 8461POPC   C3A38369  40.755  30.702   7.055
 8461POPC   C4A38370  40.810  30.659   7.355
 8461POPC   C1B38371  40.922  30.527   6.455
 8461POPC   C2B38372  40.910  30.532   6.755
 8461POPC   C3B38373  40.911  30.551   7.055
 8461POPC   C4B38374  40.982  30.514   7.355
 8462POPC   NC338375  41.586  39.249   5.555
 8462POPC   PO438376  41.603  39.211   5.855
 8462POPC   GL138377  41.555  39.202   6.155
 8462POPC   GL238378  41.444  39.314   6.155
 8462POPC   C1A38379  41.566  39.225   6.455
 8462POPC   D2A38380  41.549  39.224   6.755
 8462POPC   C3A38381  41.536  39.254   7.055
 8462POPC   C4A38382  41.561  39.277   7.355
 8462POPC   C1B38383  41.340  39.416   6.455
 8462POPC   C2B38384  41.340  39.401   6.755
 8462POPC   C3B38385  41.333  39.389   7.055
 8462POPC   C4B38386  41.368  39.429   7.355
 8463POPC   NC338387  26.819  18.314   5.555
 8463POPC   PO438388  26.838  18.234   5.855
 8463POPC   GL138389  26.787  18.251   6.155
 8463POPC   GL238390  26.770  18.173   6.155
 8463POPC   C1A38391  26.847  18.308   6.455
 8463POPC   D2A38392  26.788  18.266   6.755
 8463POPC   C3A38393  26.780  18.261   7.055
 8463POPC   C4A38394  26.777  18.319   7.355
 8463POPC   C1B38395  26.642  18.071   6.455
 8463POPC   C2B38396  26.696  18.042   6.755
 8463POPC   C3B38397  26.688  18.129   7.055
 8463POPC   C4B38398  26.669  18.112   7.355
 8464POPC   NC338399  18.276  26.851   5.555
 8464POPC   PO438400  18.300  26.780   5.855
 8464POPC   GL138401  18.275  26.850   6.155
 8464POPC   GL238402  18.381  26.772   6.155
 8464POPC   C1A38403  18.294  26.856   6.455
 8464POPC   D2A38404  18.262  26.814   6.755
 8464POPC   C3A38405  18.297  26.856   7.055
 8464POPC   C4A38406  18.319  26.791   7.355
 8464POPC   C1B38407  18.495  26.636   6.455
 8464POPC   C2B38408  18.461  26.637   6.755
 8464POPC   C3B38409  18.479  26.693   7.055
 8464POPC   C4B38410  18.493  26.647   7.355
 8465POPC   NC338411  33.823   0.434   5.555
 8465POPC   PO438412  33.753   0.459   5.855
 8465POPC   GL138413  33.845   0.438   6.155
 8465POPC   GL238414  33.712   0.479   6.155
 8465POPC   C1A38415  33.796   0.478   6.455
 8465POPC   D2A38416  33.774   0.468   6.755
 8465POPC   C3A38417  33.842   0.482   7.055
 8465POPC   C4A38418  33.837   0.397   7.355
 8465POPC   C1B38419  33.571   0.525   6.455
 8465POPC   C2B38420  33.530   0.479   6.755
 8465POPC   C3B38421  33.594   0.496   7.055
 8465POPC   C4B38422  33.569   0.502   7.355
 8466POPC   NC338423  36.082  36.156   5.555
 8466POPC   PO438424  36.078  36.104   5.855
 8466POPC   GL138425  36.125  36.086   6.155
 8466POPC   GL238426  36.189  36.226   6.155
 8466POPC   C1A38427  36.106  36.112   6.455
 8466POPC   D2A38428  36.162  36.090   6.755
 8466POPC   C3A38429  36.125  36.129   7.055
 8466POPC   C4A38430  36.092  36.096   7.355
 8466POPC   C1B38431  36.275  36.359   6.455
 8466POPC   C2B38432  36.295  36.327   6.755
 8466POPC   C3B38433  36.270  36.287   7.055
 8466POPC   C4B38434  36.250  36.297   7.355
 8467POPC   NC338435  20.630  25.279   5.555
 8467POPC   PO438436  20.632  25.300   5.855
 8467POPC   GL138437  20.640  25.273   6.155
 8467POPC   GL238438  20.528  25.123   6.155
 8467POPC   C1A38439  20.619  25.256   6.455
 8467POPC   D2A38440  20.623  25.230   6.755
 8467POPC   C3A38441  20.577  25.234   7.055
 8467POPC   C4A38442  20.614  25.299   7.355
 8467POPC   C1B38443  20.469  25.079   6.455
 8467POPC   C2B38444  20.436  25.097   6.755
 8467POPC   C3B38445  20.477  25.110   7.055
 8467POPC   C4B38446  20.434  25.047   7.355
 8468POPC   NC338447  36.094   2.748   5.555
 8468POPC   PO438448  36.080   2.733   5.855
 8468POPC   GL138449  36.124   2.739   6.155
 8468POPC   GL238450  36.189   2.599   6.155
 8468POPC   C1A38451  36.132   2.770   6.455
 8468POPC   D2A38452  36.093   2.797   6.755
 8468POPC   C3A38453  36.172   2.801   7.055
 8468POPC   C4A38454  36.167   2.730   7.355
 8468POPC   C1B38455  36.127   2.556   6.455
 8468POPC   C2B38456  36.185   2.498   6.755
 8468POPC   C3B38457  36.162   2.538   7.055
 8468POPC   C4B38458  36.216   2.474   7.355
 8469POPC   NC338459  12.824  19.843   5.555
 8469POPC   PO438460  12.822  19.868   5.855
 8469POPC   GL138461  12.877  19.815   6.155
 8469POPC   GL238462  12.795  19.938   6.155
 8469POPC   C1A38463  12.843  19.800   6.455
 8469POPC   D2A38464  12.856  19.794   6.755
 8469POPC   C3A38465  12.807  19.847   7.055
 8469POPC   C4A38466  12.835  19.826   7.355
 8469POPC   C1B38467  12.607  19.950   6.455
 8469POPC   C2B38468  12.615  20.014   6.755
 8469POPC   C3B38469  12.623  19.938   7.055
 8469POPC   C4B38470  12.623  19.999   7.355
 8470POPC   NC338471  32.199  31.464   5.555
 8470POPC   PO438472  32.232  31.502   5.855
 8470POPC   GL138473  32.264  31.474   6.155
 8470POPC   GL238474  32.364  31.485   6.155
 8470POPC   C1A38475  32.224  31.482   6.455
 8470POPC   D2A38476  32.221  31.505   6.755
 8470POPC   C3A38477  32.266  31.435   7.055
 8470POPC   C4A38478  32.214  31.466   7.355
 8470POPC   C1B38479  32.507  31.551   6.455
 8470POPC   C2B38480  32.456  31.529   6.755
 8470POPC   C3B38481  32.492  31.551   7.055
 8470POPC   C4B38482  32.439  31.552   7.355
 8471POPC   NC338483  41.566  22.949   5.555
 8471POPC   PO438484  41.534  22.918   5.855
 8471POPC   GL138485  41.573  22.891   6.155
 8471POPC   GL238486  41.624  23.029   6.155
 8471POPC   C1A38487  41.556  22.915   6.455
 8471POPC   D2A38488  41.602  22.948   6.755
 8471POPC   C3A38489  41.575  22.913   7.055
 8471POPC   C4A38490  41.525  22.945   7.355
 8471POPC   C1B38491  41.648  23.122   6.455
 8471POPC   C2B38492  41.726  23.198   6.755
 8471POPC   C3B38493  41.639  23.169   7.055
 8471POPC   C4B38494  41.657  23.151   7.355
 8472POPC   NC338495   3.514  30.697   5.555
 8472POPC   PO438496   3.529  30.699   5.855
 8472POPC   GL138497   3.529  30.655   6.155
 8472POPC   GL238498   3.499  30.778   6.155
 8472POPC   C1A38499   3.521  30.735   6.455
 8472POPC   D2A38500   3.550  30.743   6.755
 8472POPC   C3A38501   3.524  30.684   7.055
 8472POPC   C4A38502   3.493  30.704   7.355
 8472POPC   C1B38503   3.541  30.960   6.455
 8472POPC   C2B38504   3.521  30.951   6.755
 8472POPC   C3B38505   3.517  30.954   7.055
 8472POPC   C4B38506   3.521  30.932   7.355
 8473POPC   NC338507  19.023  30.742   5.555
 8473POPC   PO438508  19.059  30.706   5.855
 8473POPC   GL138509  19.058  30.649   6.155
 8473POPC   GL238510  19.196  30.718   6.155
 8473POPC   C1A38511  19.087  30.710   6.455
 8473POPC   D2A38512  19.039  30.719   6.755
 8473POPC   C3A38513  19.010  30.732   7.055
 8473POPC   C4A38514  19.093  30.708   7.355
 8473POPC   C1B38515  19.268  30.691   6.455
 8473POPC   C2B38516  19.356  30.679   6.755
 8473POPC   C3B38517  19.328  30.673   7.055
 8473POPC   C4B38518  19.286  30.669   7.355
 8474POPC   NC338519  14.379   8.221   5.555
 8474POPC   PO438520  14.421   8.202   5.855
 8474POPC   GL138521  14.375   8.154   6.155
 8474POPC   GL238522  14.520   8.311   6.155
 8474POPC   C1A38523  14.414   8.170   6.455
 8474POPC   D2A38524  14.422   8.196   6.755
 8474POPC   C3A38525  14.354   8.205   7.055
 8474POPC   C4A38526  14.414   8.242   7.355
 8474POPC   C1B38527  14.538   8.367   6.455
 8474POPC   C2B38528  14.581   8.385   6.755
 8474POPC   C3B38529  14.584   8.420   7.055
 8474POPC   C4B38530  14.519   8.404   7.355
 8475POPC   NC338531  33.781   9.704   5.555
 8475POPC   PO438532  33.797   9.739   5.855
 8475POPC   GL138533  33.774   9.765   6.155
 8475POPC   GL238534  33.828   9.865   6.155
 8475POPC   C1A38535  33.801   9.741   6.455
 8475POPC   D2A38536  33.842   9.726   6.755
 8475POPC   C3A38537  33.808   9.717   7.055
 8475POPC   C4A38538  33.817   9.783   7.355
 8475POPC   C1B38539  33.895  10.006   6.455
 8475POPC   C2B38540  33.881  10.009   6.755
 8475POPC   C3B38541  33.939  10.008   7.055
 8475POPC   C4B38542  33.924  10.020   7.355
 8476POPC   NC338543  40.822   1.973   5.555
 8476POPC   PO438544  40.741   2.007   5.855
 8476POPC   GL138545  40.752   2.022   6.155
 8476POPC   GL238546  40.626   1.979   6.155
 8476POPC   C1A38547  40.822   1.989   6.455
 8476POPC   D2A38548  40.739   1.978   6.755
 8476POPC   C3A38549  40.831   1.984   7.055
 8476POPC   C4A38550  40.831   1.962   7.355
 8476POPC   C1B38551  40.505   1.880   6.455
 8476POPC   C2B38552  40.544   1.889   6.755
 8476POPC   C3B38553  40.580   1.903   7.055
 8476POPC   C4B38554  40.537   1.910   7.355
 8477POPC   NC338555  29.946  24.501   5.555
 8477POPC   PO438556  29.889  24.501   5.855
 8477POPC   GL138557  29.969  24.516   6.155
 8477POPC   GL238558  30.019  24.439   6.155
 8477POPC   C1A38559  29.917  24.471   6.455
 8477POPC   D2A38560  29.953  24.534   6.755
 8477POPC   C3A38561  29.951  24.450   7.055
 8477POPC   C4A38562  29.871  24.521   7.355
 8477POPC   C1B38563  30.196  24.487   6.455
 8477POPC   C2B38564  30.211  24.472   6.755
 8477POPC   C3B38565  30.174  24.466   7.055
 8477POPC   C4B38566  30.167  24.393   7.355
 8478POPC   NC338567  13.629  23.760   5.555
 8478POPC   PO438568  13.673  23.707   5.855
 8478POPC   GL138569  13.632  23.715   6.155
 8478POPC   GL238570  13.564  23.635   6.155
 8478POPC   C1A38571  13.621  23.680   6.455
 8478POPC   D2A38572  13.658  23.737   6.755
 8478POPC   C3A38573  13.614  23.691   7.055
 8478POPC   C4A38574  13.620  23.737   7.355
 8478POPC   C1B38575  13.395  23.602   6.455
 8478POPC   C2B38576  13.425  23.627   6.755
 8478POPC   C3B38577  13.395  23.563   7.055
 8478POPC   C4B38578  13.401  23.616   7.355
 8479POPC   NC338579  26.033  31.518   5.555
 8479POPC   PO438580  26.059  31.477   5.855
 8479POPC   GL138581  26.071  31.445   6.155
 8479POPC   GL238582  25.927  31.597   6.155
 8479POPC   C1A38583  26.055  31.500   6.455
 8479POPC   D2A38584  26.029  31.454   6.755
 8479POPC   C3A38585  26.007  31.449   7.055
 8479POPC   C4A38586  26.032  31.468   7.355
 8479POPC   C1B38587  25.908  31.662   6.455
 8479POPC   C2B38588  25.878  31.690   6.755
 8479POPC   C3B38589  25.847  31.630   7.055
 8479POPC   C4B38590  25.910  31.667   7.355
 8480POPC   NC338591  13.623   5.062   5.555
 8480POPC   PO438592  13.667   5.060   5.855
 8480POPC   GL138593  13.642   5.066   6.155
 8480POPC   GL238594  13.674   4.996   6.155
 8480POPC   C1A38595  13.639   5.133   6.455
 8480POPC   D2A38596  13.588   5.097   6.755
 8480POPC   C3A38597  13.660   5.063   7.055
 8480POPC   C4A38598  13.633   5.082   7.355
 8480POPC   C1B38599  13.653   4.838   6.455
 8480POPC   C2B38600  13.643   4.825   6.755
 8480POPC   C3B38601  13.589   4.884   7.055
 8480POPC   C4B38602  13.588   4.837   7.355
 8481POPC   NC338603  43.113  17.481   5.555
 8481POPC   PO438604  43.154  17.544   5.855
 8481POPC   GL138605  43.159  17.518   6.155
 8481POPC   GL238606  43.045  17.617   6.155
 8481POPC   C1A38607  43.124  17.536   6.455
 8481POPC   D2A38608  43.141  17.482   6.755
 8481POPC   C3A38609  43.069  17.524   7.055
 8481POPC   C4A38610  43.083  17.485   7.355
 8481POPC   C1B38611  42.941  17.750   6.455
 8481POPC   C2B38612  42.918  17.691   6.755
 8481POPC   C3B38613  42.946  17.676   7.055
 8481POPC   C4B38614  42.931  17.753   7.355
 8482POPC   NC338615  15.962   7.429   5.555
 8482POPC   PO438616  15.944   7.395   5.855
 8482POPC   GL138617  15.961   7.438   6.155
 8482POPC   GL238618  16.112   7.397   6.155
 8482POPC   C1A38619  15.924   7.448   6.455
 8482POPC   D2A38620  15.989   7.433   6.755
 8482POPC   C3A38621  15.948   7.453   7.055
 8482POPC   C4A38622  15.943   7.379   7.355
 8482POPC   C1B38623  16.198   7.402   6.455
 8482POPC   C2B38624  16.158   7.425   6.755
 8482POPC   C3B38625  16.246   7.412   7.055
 8482POPC   C4B38626  16.229   7.426   7.355
 8483POPC   NC338627  42.352   7.454   5.555
 8483POPC   PO438628  42.342   7.421   5.855
 8483POPC   GL138629  42.320   7.403   6.155
 8483POPC   GL238630  42.184   7.418   6.155
 8483POPC   C1A38631  42.370   7.449   6.455
 8483POPC   D2A38632  42.327   7.458   6.755
 8483POPC   C3A38633  42.311   7.415   7.055
 8483POPC   C4A38634  42.287   7.396   7.355
 8483POPC   C1B38635  42.118   7.399   6.455
 8483POPC   C2B38636  42.108   7.393   6.755
 8483POPC   C3B38637  42.057   7.354   7.055
 8483POPC   C4B38638  42.093   7.318   7.355
 8484POPC   NC338639  21.381  23.762   5.555
 8484POPC   PO438640  21.413  23.723   5.855
 8484POPC   GL138641  21.395  23.728   6.155
 8484POPC   GL238642  21.550  23.716   6.155
 8484POPC   C1A38643  21.431  23.714   6.455
 8484POPC   D2A38644  21.393  23.691   6.755
 8484POPC   C3A38645  21.408  23.755   7.055
 8484POPC   C4A38646  21.347  23.730   7.355
 8484POPC   C1B38647  21.671  23.803   6.455
 8484POPC   C2B38648  21.651  23.813   6.755
 8484POPC   C3B38649  21.648  23.763   7.055
 8484POPC   C4B38650  21.619  23.759   7.355
 8485POPC   NC338651  34.562  24.440   5.555
 8485POPC   PO438652  34.536  24.519   5.855
 8485POPC   GL138653  34.614  24.524   6.155
 8485POPC   GL238654  34.646  24.428   6.155
 8485POPC   C1A38655  34.605  24.483   6.455
 8485POPC   D2A38656  34.602  24.512   6.755
 8485POPC   C3A38657  34.587  24.502   7.055
 8485POPC   C4A38658  34.570  24.498   7.355
 8485POPC   C1B38659  34.771  24.356   6.455
 8485POPC   C2B38660  34.767  24.432   6.755
 8485POPC   C3B38661  34.813  24.388   7.055
 8485POPC   C4B38662  34.851  24.379   7.355
 8486POPC   NC338663  39.196  19.836   5.555
 8486POPC   PO438664  39.185  19.835   5.855
 8486POPC   GL138665  39.183  19.849   6.155
 8486POPC   GL238666  39.132  19.859   6.155
 8486POPC   C1A38667  39.222  19.792   6.455
 8486POPC   D2A38668  39.193  19.852   6.755
 8486POPC   C3A38669  39.243  19.841   7.055
 8486POPC   C4A38670  39.240  19.801   7.355
 8486POPC   C1B38671  39.033  20.002   6.455
 8486POPC   C2B38672  39.004  19.989   6.755
 8486POPC   C3B38673  39.014  19.973   7.055
 8486POPC   C4B38674  39.001  19.985   7.355
 8487POPC   NC338675   7.411  44.635   5.555
 8487POPC   PO438676   7.458  44.625   5.855
 8487POPC   GL138677   7.458  44.689   6.155
 8487POPC   GL238678   7.380  44.752   6.155
 8487POPC   C1A38679   7.380  44.661   6.455
 8487POPC   D2A38680   7.387  44.689   6.755
 8487POPC   C3A38681   7.426  44.669   7.055
 8487POPC   C4A38682   7.439  44.656   7.355
 8487POPC   C1B38683   7.234  44.837   6.455
 8487POPC   C2B38684   7.248  44.883   6.755
 8487POPC   C3B38685   7.233  44.795   7.055
 8487POPC   C4B38686   7.242  44.856   7.355
 8488POPC   NC338687   7.431  12.890   5.555
 8488POPC   PO438688   7.463  12.854   5.855
 8488POPC   GL138689   7.435  12.880   6.155
 8488POPC   GL238690   7.358  12.770   6.155
 8488POPC   C1A38691   7.429  12.816   6.455
 8488POPC   D2A38692   7.427  12.875   6.755
 8488POPC   C3A38693   7.415  12.875   7.055
 8488POPC   C4A38694   7.430  12.859   7.355
 8488POPC   C1B38695   7.248  12.646   6.455
 8488POPC   C2B38696   7.268  12.701   6.755
 8488POPC   C3B38697   7.238  12.620   7.055
 8488POPC   C4B38698   7.291  12.704   7.355
 8489POPC   NC338699  12.823   7.416   5.555
 8489POPC   PO438700  12.880   7.419   5.855
 8489POPC   GL138701  12.855   7.398   6.155
 8489POPC   GL238702  12.876   7.533   6.155
 8489POPC   C1A38703  12.861   7.393   6.455
 8489POPC   D2A38704  12.897   7.454   6.755
 8489POPC   C3A38705  12.834   7.466   7.055
 8489POPC   C4A38706  12.897   7.441   7.355
 8489POPC   C1B38707  12.976   7.677   6.455
 8489POPC   C2B38708  12.989   7.646   6.755
 8489POPC   C3B38709  12.989   7.604   7.055
 8489POPC   C4B38710  12.987   7.651   7.355
 8490POPC   NC338711  22.114  20.576   5.555
 8490POPC   PO438712  22.199  20.594   5.855
 8490POPC   GL138713  22.207  20.606   6.155
 8490POPC   GL238714  22.261  20.661   6.155
 8490POPC   C1A38715  22.169  20.590   6.455
 8490POPC   D2A38716  22.210  20.642   6.755
 8490POPC   C3A38717  22.130  20.647   7.055
 8490POPC   C4A38718  22.122  20.603   7.355
 8490POPC   C1B38719  22.322  20.752   6.455
 8490POPC   C2B38720  22.388  20.770   6.755
 8490POPC   C3B38721  22.344  20.801   7.055
 8490POPC   C4B38722  22.367  20.766   7.355
 8491POPC   NC338723  34.541  23.748   5.555
 8491POPC   PO438724  34.579  23.681   5.855
 8491POPC   GL138725  34.624  23.761   6.155
 8491POPC   GL238726  34.741  23.750   6.155
 8491POPC   C1A38727  34.556  23.702   6.455
 8491POPC   D2A38728  34.565  23.703   6.755
 8491POPC   C3A38729  34.597  23.728   7.055
 8491POPC   C4A38730  34.577  23.714   7.355
 8491POPC   C1B38731  34.775  23.704   6.455
 8491POPC   C2B38732  34.865  23.799   6.755
 8491POPC   C3B38733  34.854  23.771   7.055
 8491POPC   C4B38734  34.862  23.794   7.355
 8492POPC   NC338735  32.253  44.692   5.555
 8492POPC   PO438736  32.221  44.663   5.855
 8492POPC   GL138737  32.236  44.654   6.155
 8492POPC   GL238738  32.368  44.700   6.155
 8492POPC   C1A38739  32.227  44.653   6.455
 8492POPC   D2A38740  32.253  44.680   6.755
 8492POPC   C3A38741  32.201  44.621   7.055
 8492POPC   C4A38742  32.228  44.661   7.355
 8492POPC   C1B38743  32.480  44.826   6.455
 8492POPC   C2B38744  32.468  44.851   6.755
 8492POPC   C3B38745  32.451  44.849   7.055
 8492POPC   C4B38746  32.454  44.854   7.355
 8493POPC   NC338747  32.244  33.037   5.555
 8493POPC   PO438748  32.286  33.017   5.855
 8493POPC   GL138749  32.202  33.057   6.155
 8493POPC   GL238750  32.174  32.970   6.155
 8493POPC   C1A38751  32.223  33.028   6.455
 8493POPC   D2A38752  32.224  32.987   6.755
 8493POPC   C3A38753  32.263  32.996   7.055
 8493POPC   C4A38754  32.209  32.991   7.355
 8493POPC   C1B38755  32.048  32.884   6.455
 8493POPC   C2B38756  32.066  32.868   6.755
 8493POPC   C3B38757  32.123  32.829   7.055
 8493POPC   C4B38758  32.118  32.862   7.355
 8494POPC   NC338759   8.946  42.351   5.555
 8494POPC   PO438760   9.022  42.310   5.855
 8494POPC   GL138761   8.948  42.361   6.155
 8494POPC   GL238762   8.836  42.451   6.155
 8494POPC   C1A38763   8.945  42.356   6.455
 8494POPC   D2A38764   8.924  42.308   6.755
 8494POPC   C3A38765   8.971  42.384   7.055
 8494POPC   C4A38766   9.005  42.307   7.355
 8494POPC   C1B38767   8.797  42.522   6.455
 8494POPC   C2B38768   8.731  42.445   6.755
 8494POPC   C3B38769   8.775  42.526   7.055
 8494POPC   C4B38770   8.815  42.502   7.355
 8495POPC   NC338771  16.734  10.552   5.555
 8495POPC   PO438772  16.739  10.475   5.855
 8495POPC   GL138773  16.713  10.535   6.155
 8495POPC   GL238774  16.729  10.605   6.155
 8495POPC   C1A38775  16.718  10.540   6.455
 8495POPC   D2A38776  16.753  10.545   6.755
 8495POPC   C3A38777  16.760  10.495   7.055
 8495POPC   C4A38778  16.688  10.525   7.355
 8495POPC   C1B38779  16.716  10.793   6.455
 8495POPC   C2B38780  16.668  10.768   6.755
 8495POPC   C3B38781  16.722  10.796   7.055
 8495POPC   C4B38782  16.729  10.758   7.355
 8496POPC   NC338783  28.400  21.361   5.555
 8496POPC   PO438784  28.344  21.339   5.855
 8496POPC   GL138785  28.386  21.375   6.155
 8496POPC   GL238786  28.437  21.455   6.155
 8496POPC   C1A38787  28.339  21.350   6.455
 8496POPC   D2A38788  28.387  21.406   6.755
 8496POPC   C3A38789  28.363  21.414   7.055
 8496POPC   C4A38790  28.391  21.344   7.355
 8496POPC   C1B38791  28.493  21.568   6.455
 8496POPC   C2B38792  28.486  21.552   6.755
 8496POPC   C3B38793  28.527  21.595   7.055
 8496POPC   C4B38794  28.513  21.592   7.355
 8497POPC   NC338795   4.349  43.140   5.555
 8497POPC   PO438796   4.288  43.107   5.855
 8497POPC   GL138797   4.305  43.150   6.155
 8497POPC   GL238798   4.217  43.216   6.155
 8497POPC   C1A38799   4.342  43.118   6.455
 8497POPC   D2A38800   4.363  43.071   6.755
 8497POPC   C3A38801   4.331  43.108   7.055
 8497POPC   C4A38802   4.287  43.098   7.355
 8497POPC   C1B38803   4.165  43.301   6.455
 8497POPC   C2B38804   4.135  43.268   6.755
 8497POPC   C3B38805   4.143  43.296   7.055
 8497POPC   C4B38806   4.133  43.271   7.355
 8498POPC   NC338807  44.628  44.680   5.555
 8498POPC   PO438808  44.672  44.679   5.855
 8498POPC   GL138809  44.667  44.645   6.155
 8498POPC   GL238810  44.529  44.691   6.155
 8498POPC   C1A38811  44.683  44.634   6.455
 8498POPC   D2A38812  44.712  44.619   6.755
 8498POPC   C3A38813  44.650  44.620   7.055
 8498POPC   C4A38814  44.712  44.653   7.355
 8498POPC   C1B38815  44.395  44.707   6.455
 8498POPC   C2B38816  44.453  44.687   6.755
 8498POPC   C3B38817  44.383  44.757   7.055
 8498POPC   C4B38818  44.397  44.702   7.355
 8499POPC   NC338819  28.341   8.946   5.555
 8499POPC   PO438820  28.415   8.925   5.855
 8499POPC   GL138821  28.348   8.946   6.155
 8499POPC   GL238822  28.447   9.113   6.155
 8499POPC   C1A38823  28.357   9.008   6.455
 8499POPC   D2A38824  28.348   8.932   6.755
 8499POPC   C3A38825  28.343   8.984   7.055
 8499POPC   C4A38826  28.321   8.988   7.355
 8499POPC   C1B38827  28.513   9.142   6.455
 8499POPC   C2B38828  28.495   9.229   6.755
 8499POPC   C3B38829  28.526   9.170   7.055
 8499POPC   C4B38830  28.452   9.150   7.355
 8500POPC   NC338831  26.858   6.661   5.555
 8500POPC   PO438832  26.843   6.611   5.855
 8500POPC   GL138833  26.800   6.644   6.155
 8500POPC   GL238834  26.687   6.593   6.155
 8500POPC   C1A38835  26.854   6.667   6.455
 8500POPC   D2A38836  26.772   6.664   6.755
 8500POPC   C3A38837  26.787   6.682   7.055
 8500POPC   C4A38838  26.770   6.680   7.355
 8500POPC   C1B38839  26.589   6.609   6.455
 8500POPC   C2B38840  26.544   6.605   6.755
 8500POPC   C3B38841  26.537   6.590   7.055
 8500POPC   C4B38842  26.581   6.544   7.355
 8501POPC   NC338843  19.049  33.764   5.555
 8501POPC   PO438844  19.030  33.778   5.855
 8501POPC   GL138845  19.021  33.789   6.155
 8501POPC   GL238846  19.163  33.645   6.155
 8501POPC   C1A38847  19.098  33.785   6.455
 8501POPC   D2A38848  19.021  33.753   6.755
 8501POPC   C3A38849  19.089  33.802   7.055
 8501POPC   C4A38850  19.104  33.761   7.355
 8501POPC   C1B38851  19.212  33.618   6.455
 8501POPC   C2B38852  19.192  33.614   6.755
 8501POPC   C3B38853  19.128  33.605   7.055
 8501POPC   C4B38854  19.217  33.568   7.355
 8502POPC   NC338855  40.758  29.964   5.555
 8502POPC   PO438856  40.770  29.951   5.855
 8502POPC   GL138857  40.776  29.872   6.155
 8502POPC   GL238858  40.702  29.918   6.155
 8502POPC   C1A38859  40.784  29.882   6.455
 8502POPC   D2A38860  40.791  29.911   6.755
 8502POPC   C3A38861  40.753  29.966   7.055
 8502POPC   C4A38862  40.739  29.879   7.355
 8502POPC   C1B38863  40.501  29.959   6.455
 8502POPC   C2B38864  40.546  29.951   6.755
 8502POPC   C3B38865  40.559  29.951   7.055
 8502POPC   C4B38866  40.529  29.900   7.355
 8503POPC   NC338867  26.816  40.762   5.555
 8503POPC   PO438868  26.826  40.781   5.855
 8503POPC   GL138869  26.803  40.782   6.155
 8503POPC   GL238870  26.991  40.825   6.155
 8503POPC   C1A38871  26.834  40.765   6.455
 8503POPC   D2A38872  26.848  40.784   6.755
 8503POPC   C3A38873  26.845  40.785   7.055
 8503POPC   C4A38874  26.783  40.822   7.355
 8503POPC   C1B38875  27.101  40.798   6.455
 8503POPC   C2B38876  27.047  40.739   6.755
 8503POPC   C3B38877  27.087  40.789   7.055
 8503POPC   C4B38878  27.102  40.814   7.355
 8504POPC   NC338879  27.565  44.663   5.555
 8504POPC   PO438880  27.579  44.652   5.855
 8504POPC   GL138881  27.561  44.703   6.155
 8504POPC   GL238882  27.594  44.543   6.155
 8504POPC   C1A38883  27.581  44.646   6.455
 8504POPC   D2A38884  27.615  44.711   6.755
 8504POPC   C3A38885  27.620  44.658   7.055
 8504POPC   C4A38886  27.563  44.644   7.355
 8504POPC   C1B38887  27.593  44.423   6.455
 8504POPC   C2B38888  27.589  44.410   6.755
 8504POPC   C3B38889  27.591  44.389   7.055
 8504POPC   C4B38890  27.591  44.374   7.355
 8505POPC   NC338891  11.303  37.699   5.555
 8505POPC   PO438892  11.323  37.717   5.855
 8505POPC   GL138893  11.260  37.631   6.155
 8505POPC   GL238894  11.269  37.532   6.155
 8505POPC   C1A38895  11.259  37.634   6.455
 8505POPC   D2A38896  11.286  37.648   6.755
 8505POPC   C3A38897  11.276  37.726   7.055
 8505POPC   C4A38898  11.265  37.676   7.355
 8505POPC   C1B38899  11.334  37.410   6.455
 8505POPC   C2B38900  11.320  37.402   6.755
 8505POPC   C3B38901  11.294  37.381   7.055
 8505POPC   C4B38902  11.284  37.427   7.355
 8506POPC   NC338903  30.658  33.813   5.555
 8506POPC   PO438904  30.682  33.791   5.855
 8506POPC   GL138905  30.682  33.790   6.155
 8506POPC   GL238906  30.790  33.747   6.155
 8506POPC   C1A38907  30.724  33.792   6.455
 8506POPC   D2A38908  30.706  33.841   6.755
 8506POPC   C3A38909  30.686  33.756   7.055
 8506POPC   C4A38910  30.731  33.818   7.355
 8506POPC   C1B38911  30.812  33.602   6.455
 8506POPC   C2B38912  30.838  33.566   6.755
 8506POPC   C3B38913  30.852  33.615   7.055
 8506POPC   C4B38914  30.821  33.644   7.355
 8507POPC   NC338915  38.465  33.769   5.555
 8507POPC   PO438916  38.458  33.828   5.855
 8507POPC   GL138917  38.415  33.812   6.155
 8507POPC   GL238918  38.541  33.696   6.155
 8507POPC   C1A38919  38.435  33.830   6.455
 8507POPC   D2A38920  38.462  33.782   6.755
 8507POPC   C3A38921  38.481  33.761   7.055
 8507POPC   C4A38922  38.500  33.816   7.355
 8507POPC   C1B38923  38.523  33.568   6.455
 8507POPC   C2B38924  38.525  33.583   6.755
 8507POPC   C3B38925  38.518  33.588   7.055
 8507POPC   C4B38926  38.563  33.538   7.355
 8508POPC   NC338927  25.260   2.716   5.555
 8508POPC   PO438928  25.272   2.781   5.855
 8508POPC   GL138929  25.282   2.763   6.155
 8508POPC   GL238930  25.116   2.737   6.155
 8508POPC   C1A38931  25.288   2.772   6.455
 8508POPC   D2A38932  25.266   2.796   6.755
 8508POPC   C3A38933  25.245   2.786   7.055
 8508POPC   C4A38934  25.251   2.734   7.355
 8508POPC   C1B38935  25.041   2.744   6.455
 8508POPC   C2B38936  25.022   2.807   6.755
 8508POPC   C3B38937  25.015   2.805   7.055
 8508POPC   C4B38938  25.058   2.760   7.355
 8509POPC   NC338939  11.338  16.741   5.555
 8509POPC   PO438940  11.319  16.756   5.855
 8509POPC   GL138941  11.349  16.745   6.155
 8509POPC   GL238942  11.267  16.815   6.155
 8509POPC   C1A38943  11.298  16.776   6.455
 8509POPC   D2A38944  11.303  16.740   6.755
 8509POPC   C3A38945  11.315  16.712   7.055
 8509POPC   C4A38946  11.265  16.705   7.355
 8509POPC   C1B38947  11.230  16.930   6.455
 8509POPC   C2B38948  11.218  16.941   6.755
 8509POPC   C3B38949  11.214  16.945   7.055
 8509POPC   C4B38950  11.185  16.917   7.355
 8510POPC   NC338951  27.615  19.018   5.555
 8510POPC   PO438952  27.584  19.049   5.855
 8510POPC   GL138953  27.584  19.035   6.155
 8510POPC   GL238954  27.489  19.015   6.155
 8510POPC   C1A38955  27.596  19.054   6.455
 8510POPC   D2A38956  27.550  19.090   6.755
 8510POPC   C3A38957  27.612  19.091   7.055
 8510POPC   C4A38958  27.638  19.087   7.355
 8510POPC   C1B38959  27.376  19.070   6.455
 8510POPC   C2B38960  27.346  19.031   6.755
 8510POPC   C3B38961  27.305  19.031   7.055
 8510POPC   C4B38962  27.360  19.067   7.355
 8511POPC   NC338963  20.584  18.305   5.555
 8511POPC   PO438964  20.589  18.245   5.855
 8511POPC   GL138965  20.596  18.241   6.155
 8511POPC   GL238966  20.759  18.352   6.155
 8511POPC   C1A38967  20.590  18.256   6.455
 8511POPC   D2A38968  20.610  18.285   6.755
 8511POPC   C3A38969  20.617  18.244   7.055
 8511POPC   C4A38970  20.578  18.327   7.355
 8511POPC   C1B38971  20.804  18.443   6.455
 8511POPC   C2B38972  20.771  18.406   6.755
 8511POPC   C3B38973  20.780  18.398   7.055
 8511POPC   C4B38974  20.781  18.420   7.355
 8512POPC   NC338975  29.132  36.888   5.555
 8512POPC   PO438976  29.168  36.929   5.855
 8512POPC   GL138977  29.136  36.882   6.155
 8512POPC   GL238978  29.069  36.954   6.155
 8512POPC   C1A38979  29.109  36.916   6.455
 8512POPC   D2A38980  29.104  36.883   6.755
 8512POPC   C3A38981  29.116  36.918   7.055
 8512POPC   C4A38982  29.156  36.908   7.355
 8512POPC   C1B38983  28.953  37.052   6.455
 8512POPC   C2B38984  28.905  37.006   6.755
 8512POPC   C3B38985  28.913  37.065   7.055
 8512POPC   C4B38986  28.971  37.036   7.355
 8513POPC   NC338987   5.087  41.557   5.555
 8513POPC   PO438988   5.131  41.553   5.855
 8513POPC   GL138989   5.060  41.516   6.155
 8513POPC   GL238990   5.048  41.661   6.155
 8513POPC   C1A38991   5.104  41.574   6.455
 8513POPC   D2A38992   5.078  41.559   6.755
 8513POPC   C3A38993   5.121  41.511   7.055
 8513POPC   C4A38994   5.083  41.586   7.355
 8513POPC   C1B38995   5.048  41.794   6.455
 8513POPC   C2B38996   5.036  41.841   6.755
 8513POPC   C3B38997   5.026  41.823   7.055
 8513POPC   C4B38998   5.038  41.812   7.355
 8514POPC   NC338999  18.245   0.395   5.555
 8514POPC   PO439000  18.276   0.468   5.855
 8514POPC   GL139001  18.263   0.476   6.155
 8514POPC   GL239002  18.362   0.488   6.155
 8514POPC   C1A39003  18.248   0.404   6.455
 8514POPC   D2A39004  18.276   0.424   6.755
 8514POPC   C3A39005  18.281   0.398   7.055
 8514POPC   C4A39006  18.258   0.456   7.355
 8514POPC   C1B39007  18.522   0.608   6.455
 8514POPC   C2B39008  18.469   0.605   6.755
 8514POPC   C3B39009  18.537   0.553   7.055
 8514POPC   C4B39010  18.448   0.566   7.355
 8515POPC   NC339011  44.697   2.736   5.555
 8515POPC   PO439012  44.658   2.726   5.855
 8515POPC   GL139013  44.679   2.785   6.155
 8515POPC   GL239014  44.608   2.851   6.155
 8515POPC   C1A39015  44.691   2.733   6.455
 8515POPC   D2A39016  44.679   2.780   6.755
 8515POPC   C3A39017  44.705   2.752   7.055
 8515POPC   C4A39018  44.685   2.804   7.355
 8515POPC   C1B39019  44.642   2.997   6.455
 8515POPC   C2B39020  44.662   2.982   6.755
 8515POPC   C3B39021  44.645   2.977   7.055
 8515POPC   C4B39022  44.662   3.000   7.355
 8516POPC   NC339023   5.133  26.815   5.555
 8516POPC   PO439024   5.094  26.802   5.855
 8516POPC   GL139025   5.069  26.827   6.155
 8516POPC   GL239026   5.245  26.800   6.155
 8516POPC   C1A39027   5.090  26.774   6.455
 8516POPC   D2A39028   5.113  26.784   6.755
 8516POPC   C3A39029   5.058  26.788   7.055
 8516POPC   C4A39030   5.123  26.774   7.355
 8516POPC   C1B39031   5.317  26.788   6.455
 8516POPC   C2B39032   5.311  26.818   6.755
 8516POPC   C3B39033   5.318  26.837   7.055
 8516POPC   C4B39034   5.305  26.782   7.355
 8517POPC   NC339035  36.941  39.251   5.555
 8517POPC   PO439036  36.860  39.209   5.855
 8517POPC   GL139037  36.921  39.231   6.155
 8517POPC   GL239038  36.868  39.375   6.155
 8517POPC   C1A39039  36.885  39.227   6.455
 8517POPC   D2A39040  36.907  39.219   6.755
 8517POPC   C3A39041  36.950  39.247   7.055
 8517POPC   C4A39042  36.929  39.216   7.355
 8517POPC   C1B39043  36.920  39.444   6.455
 8517POPC   C2B39044  36.925  39.483   6.755
 8517POPC   C3B39045  36.866  39.460   7.055
 8517POPC   C4B39046  36.849  39.449   7.355
 8518POPC   NC339047  12.081  26.087   5.555
 8518POPC   PO439048  12.110  26.024   5.855
 8518POPC   GL139049  12.091  26.045   6.155
 8518POPC   GL239050  12.101  25.889   6.155
 8518POPC   C1A39051  12.101  26.031   6.455
 8518POPC   D2A39052  12.093  26.027   6.755
 8518POPC   C3A39053  12.124  26.025   7.055
 8518POPC   C4A39054  12.061  26.008   7.355
 8518POPC   C1B39055  12.132  25.859   6.455
 8518POPC   C2B39056  12.129  25.821   6.755
 8518POPC   C3B39057  12.142  25.832   7.055
 8518POPC   C4B39058  12.185  25.769   7.355
 8519POPC   NC339059  38.437  28.373   5.555
 8519POPC   PO439060  38.420  28.403   5.855
 8519POPC   GL139061  38.497  28.389   6.155
 8519POPC   GL239062  38.552  28.279   6.155
 8519POPC   C1A39063  38.447  28.329   6.455
 8519POPC   D2A39064  38.406  28.403   6.755
 8519POPC   C3A39065  38.439  28.408   7.055
 8519POPC   C4A39066  38.488  28.412   7.355
 8519POPC   C1B39067  38.557  28.155   6.455
 8519POPC   C2B39068  38.589  28.158   6.755
 8519POPC   C3B39069  38.636  28.145   7.055
 8519POPC   C4B39070  38.610  28.175   7.355
 8520POPC   NC339071   2.789  40.766   5.555
 8520POPC   PO439072   2.716  40.763   5.855
 8520POPC   GL139073   2.757  40.823   6.155
 8520POPC   GL239074   2.662  40.841   6.155
 8520POPC   C1A39075   2.788  40.774   6.455
 8520POPC   D2A39076   2.755  40.757   6.755
 8520POPC   C3A39077   2.741  40.750   7.055
 8520POPC   C4A39078   2.766  40.807   7.355
 8520POPC   C1B39079   2.570  40.885   6.455
 8520POPC   C2B39080   2.541  40.826   6.755
 8520POPC   C3B39081   2.549  40.833   7.055
 8520POPC   C4B39082   2.513  40.817   7.355
 8521POPC   NC339083  38.420  33.015   5.555
 8521POPC   PO439084  38.487  33.060   5.855
 8521POPC   GL139085  38.462  32.979   6.155
 8521POPC   GL239086  38.416  33.169   6.155
 8521POPC   C1A39087  38.447  33.032   6.455
 8521POPC   D2A39088  38.450  33.036   6.755
 8521POPC   C3A39089  38.451  33.070   7.055
 8521POPC   C4A39090  38.502  33.043   7.355
 8521POPC   C1B39091  38.359  33.262   6.455
 8521POPC   C2B39092  38.337  33.247   6.755
 8521POPC   C3B39093  38.316  33.290   7.055
 8521POPC   C4B39094  38.335  33.261   7.355
 8522POPC   NC339095  12.838  29.927   5.555
 8522POPC   PO439096  12.828  29.882   5.855
 8522POPC   GL139097  12.868  29.886   6.155
 8522POPC   GL239098  12.997  29.983   6.155
 8522POPC   C1A39099  12.815  29.899   6.455
 8522POPC   D2A39100  12.837  29.927   6.755
 8522POPC   C3A39101  12.808  29.963   7.055
 8522POPC   C4A39102  12.802  29.940   7.355
 8522POPC   C1B39103  13.050  29.982   6.455
 8522POPC   C2B39104  13.090  30.026   6.755
 8522POPC   C3B39105  13.113  30.016   7.055
 8522POPC   C4B39106  13.085  30.003   7.355
 8523POPC   NC339107  27.621  20.622   5.555
 8523POPC   PO439108  27.573  20.649   5.855
 8523POPC   GL139109  27.642  20.580   6.155
 8523POPC   GL239110  27.507  20.635   6.155
 8523POPC   C1A39111  27.605  20.643   6.455
 8523POPC   D2A39112  27.596  20.645   6.755
 8523POPC   C3A39113  27.606  20.610   7.055
 8523POPC   C4A39114  27.620  20.606   7.355
 8523POPC   C1B39115  27.337  20.614   6.455
 8523POPC   C2B39116  27.307  20.621   6.755
 8523POPC   C3B39117  27.358  20.646   7.055
 8523POPC   C4B39118  27.316  20.618   7.355
 8524POPC   NC339119  20.582   9.009   5.555
 8524POPC   PO439120  20.585   8.926   5.855
 8524POPC   GL139121  20.610   9.007   6.155
 8524POPC   GL239122  20.508   8.887   6.155
 8524POPC   C1A39123  20.635   9.011   6.455
 8524POPC   D2A39124  20.561   8.941   6.755
 8524POPC   C3A39125  20.621   8.978   7.055
 8524POPC   C4A39126  20.587   9.009   7.355
 8524POPC   C1B39127  20.375   8.836   6.455
 8524POPC   C2B39128  20.430   8.842   6.755
 8524POPC   C3B39129  20.354   8.825   7.055
 8524POPC   C4B39130  20.432   8.863   7.355
 8525POPC   NC339131  22.945  41.574   5.555
 8525POPC   PO439132  22.926  41.568   5.855
 8525POPC   GL139133  22.951  41.587   6.155
 8525POPC   GL239134  22.925  41.693   6.155
 8525POPC   C1A39135  22.959  41.529   6.455
 8525POPC   D2A39136  22.974  41.555   6.755
 8525POPC   C3A39137  22.893  41.548   7.055
 8525POPC   C4A39138  22.889  41.520   7.355
 8525POPC   C1B39139  22.999  41.776   6.455
 8525POPC   C2B39140  23.004  41.806   6.755
 8525POPC   C3B39141  22.938  41.787   7.055
 8525POPC   C4B39142  23.002  41.760   7.355
 8526POPC   NC339143   9.768  29.960   5.555
 8526POPC   PO439144   9.770  29.886   5.855
 8526POPC   GL139145   9.761  29.922   6.155
 8526POPC   GL239146   9.764  29.802   6.155
 8526POPC   C1A39147   9.760  29.957   6.455
 8526POPC   D2A39148   9.734  29.939   6.755
 8526POPC   C3A39149   9.726  29.902   7.055
 8526POPC   C4A39150   9.757  29.874   7.355
 8526POPC   C1B39151   9.774  29.625   6.455
 8526POPC   C2B39152   9.788  29.711   6.755
 8526POPC   C3B39153   9.729  29.670   7.055
 8526POPC   C4B39154   9.733  29.657   7.355
 8527POPC   NC339155  41.574  17.551   5.555
 8527POPC   PO439156  41.588  17.471   5.855
 8527POPC   GL139157  41.587  17.486   6.155
 8527POPC   GL239158  41.619  17.421   6.155
 8527POPC   C1A39159  41.520  17.539   6.455
 8527POPC   D2A39160  41.580  17.506   6.755
 8527POPC   C3A39161  41.527  17.458   7.055
 8527POPC   C4A39162  41.525  17.540   7.355
 8527POPC   C1B39163  41.743  17.333   6.455
 8527POPC   C2B39164  41.795  17.333   6.755
 8527POPC   C3B39165  41.727  17.392   7.055
 8527POPC   C4B39166  41.736  17.373   7.355
 8528POPC   NC339167  36.930  40.775   5.555
 8528POPC   PO439168  36.895  40.786   5.855
 8528POPC   GL139169  36.932  40.785   6.155
 8528POPC   GL239170  37.010  40.937   6.155
 8528POPC   C1A39171  36.950  40.802   6.455
 8528POPC   D2A39172  36.892  40.807   6.755
 8528POPC   C3A39173  36.926  40.807   7.055
 8528POPC   C4A39174  36.915  40.812   7.355
 8528POPC   C1B39175  37.040  40.998   6.455
 8528POPC   C2B39176  37.013  41.023   6.755
 8528POPC   C3B39177  36.995  40.968   7.055
 8528POPC   C4B39178  37.058  40.968   7.355
 8529POPC   NC339179  37.640  12.823   5.555
 8529POPC   PO439180  37.696  12.835   5.855
 8529POPC   GL139181  37.659  12.861   6.155
 8529POPC   GL239182  37.594  12.789   6.155
 8529POPC   C1A39183  37.651  12.853   6.455
 8529POPC   D2A39184  37.644  12.888   6.755
 8529POPC   C3A39185  37.644  12.879   7.055
 8529POPC   C4A39186  37.692  12.846   7.355
 8529POPC   C1B39187  37.537  12.676   6.455
 8529POPC   C2B39188  37.552  12.629   6.755
 8529POPC   C3B39189  37.525  12.646   7.055
 8529POPC   C4B39190  37.573  12.654   7.355
 8530POPC   NC339191  26.016  10.521   5.555
 8530POPC   PO439192  25.996  10.508   5.855
 8530POPC   GL139193  26.045  10.508   6.155
 8530POPC   GL239194  26.139  10.649   6.155
 8530POPC   C1A39195  26.017  10.483   6.455
 8530POPC   D2A39196  26.026  10.574   6.755
 8530POPC   C3A39197  26.082  10.490   7.055
 8530POPC   C4A39198  26.025  10.522   7.355
 8530POPC   C1B39199  26.178  10.655   6.455
 8530POPC   C2B39200  26.187  10.704   6.755
 8530POPC   C3B39201  26.263  10.676   7.055
 8530POPC   C4B39202  26.230  10.726   7.355
 8531POPC   NC339203  35.398  29.913   5.555
 8531POPC   PO439204  35.334  29.920   5.855
 8531POPC   GL139205  35.340  29.921   6.155
 8531POPC   GL239206  35.367  30.025   6.155
 8531POPC   C1A39207  35.373  29.937   6.455
 8531POPC   D2A39208  35.323  29.941   6.755
 8531POPC   C3A39209  35.385  29.929   7.055
 8531POPC   C4A39210  35.386  29.903   7.355
 8531POPC   C1B39211  35.390  30.213   6.455
 8531POPC   C2B39212  35.341  30.131   6.755
 8531POPC   C3B39213  35.345  30.127   7.055
 8531POPC   C4B39214  35.354  30.213   7.355
 8532POPC   NC339215   8.235  11.296   5.555
 8532POPC   PO439216   8.189  11.305   5.855
 8532POPC   GL139217   8.155  11.315   6.155
 8532POPC   GL239218   8.121  11.396   6.155
 8532POPC   C1A39219   8.238  11.344   6.455
 8532POPC   D2A39220   8.168  11.313   6.755
 8532POPC   C3A39221   8.191  11.262   7.055
 8532POPC   C4A39222   8.195  11.296   7.355
 8532POPC   C1B39223   7.961  11.470   6.455
 8532POPC   C2B39224   7.958  11.416   6.755
 8532POPC   C3B39225   7.984  11.480   7.055
 8532POPC   C4B39226   8.029  11.503   7.355
 8533POPC   NC339227  43.880   4.298   5.555
 8533POPC   PO439228  43.839   4.310   5.855
 8533POPC   GL139229  43.907   4.308   6.155
 8533POPC   GL239230  43.921   4.177   6.155
 8533POPC   C1A39231  43.840   4.353   6.455
 8533POPC   D2A39232  43.866   4.315   6.755
 8533POPC   C3A39233  43.852   4.270   7.055
 8533POPC   C4A39234  43.889   4.337   7.355
 8533POPC   C1B39235  44.010   4.070   6.455
 8533POPC   C2B39236  44.036   4.085   6.755
 8533POPC   C3B39237  43.986   4.132   7.055
 8533POPC   C4B39238  44.070   4.101   7.355
 8534POPC   NC339239  23.692  24.440   5.555
 8534POPC   PO439240  23.758  24.523   5.855
 8534POPC   GL139241  23.689  24.454   6.155
 8534POPC   GL239242  23.700  24.363   6.155
 8534POPC   C1A39243  23.680  24.445   6.455
 8534POPC   D2A39244  23.672  24.473   6.755
 8534POPC   C3A39245  23.708  24.497   7.055
 8534POPC   C4A39246  23.668  24.470   7.355
 8534POPC   C1B39247  23.623  24.281   6.455
 8534POPC   C2B39248  23.680  24.284   6.755
 8534POPC   C3B39249  23.660  24.212   7.055
 8534POPC   C4B39250  23.657  24.282   7.355
 8535POPC   NC339251  33.819   8.926   5.555
 8535POPC   PO439252  33.788   9.011   5.855
 8535POPC   GL139253  33.787   8.930   6.155
 8535POPC   GL239254  33.740   8.919   6.155
 8535POPC   C1A39255  33.820   8.954   6.455
 8535POPC   D2A39256  33.840   8.984   6.755
 8535POPC   C3A39257  33.800   8.955   7.055
 8535POPC   C4A39258  33.767   8.969   7.355
 8535POPC   C1B39259  33.632   8.756   6.455
 8535POPC   C2B39260  33.681   8.769   6.755
 8535POPC   C3B39261  33.646   8.789   7.055
 8535POPC   C4B39262  33.613   8.827   7.355
 8536POPC   NC339263   8.976   3.577   5.555
 8536POPC   PO439264   8.937   3.540   5.855
 8536POPC   GL139265   8.934   3.556   6.155
 8536POPC   GL239266   8.883   3.402   6.155
 8536POPC   C1A39267   9.003   3.559   6.455
 8536POPC   D2A39268   9.020   3.556   6.755
 8536POPC   C3A39269   9.016   3.567   7.055
 8536POPC   C4A39270   8.990   3.570   7.355
 8536POPC   C1B39271   8.830   3.343   6.455
 8536POPC   C2B39272   8.898   3.293   6.755
 8536POPC   C3B39273   8.834   3.332   7.055
 8536POPC   C4B39274   8.868   3.303   7.355
 8537POPC   NC339275  22.119  29.105   5.555
 8537POPC   PO439276  22.184  29.115   5.855
 8537POPC   GL139277  22.187  29.104   6.155
 8537POPC   GL239278  22.048  29.186   6.155
 8537POPC   C1A39279  22.171  29.191   6.455
 8537POPC   D2A39280  22.191  29.155   6.755
 8537POPC   C3A39281  22.131  29.101   7.055
 8537POPC   C4A39282  22.193  29.181   7.355
 8537POPC   C1B39283  21.969  29.260   6.455
 8537POPC   C2B39284  21.976  29.259   6.755
 8537POPC   C3B39285  21.908  29.232   7.055
 8537POPC   C4B39286  21.932  29.304   7.355
 8538POPC   NC339287  24.470  27.560   5.555
 8538POPC   PO439288  24.471  27.625   5.855
 8538POPC   GL139289  24.522  27.632   6.155
 8538POPC   GL239290  24.598  27.682   6.155
 8538POPC   C1A39291  24.525  27.546   6.455
 8538POPC   D2A39292  24.485  27.599   6.755
 8538POPC   C3A39293  24.461  27.628   7.055
 8538POPC   C4A39294  24.509  27.563   7.355
 8538POPC   C1B39295  24.655  27.794   6.455
 8538POPC   C2B39296  24.651  27.832   6.755
 8538POPC   C3B39297  24.681  27.771   7.055
 8538POPC   C4B39298  24.624  27.757   7.355
 8539POPC   NC339299  35.329  39.232   5.555
 8539POPC   PO439300  35.317  39.213   5.855
 8539POPC   GL139301  35.340  39.200   6.155
 8539POPC   GL239302  35.278  39.283   6.155
 8539POPC   C1A39303  35.357  39.257   6.455
 8539POPC   D2A39304  35.355  39.185   6.755
 8539POPC   C3A39305  35.362  39.253   7.055
 8539POPC   C4A39306  35.304  39.212   7.355
 8539POPC   C1B39307  35.133  39.328   6.455
 8539POPC   C2B39308  35.112  39.334   6.755
 8539POPC   C3B39309  35.088  39.373   7.055
 8539POPC   C4B39310  35.125  39.320   7.355
 8540POPC   NC339311  12.823  28.367   5.555
 8540POPC   PO439312  12.867  28.367   5.855
 8540POPC   GL139313  12.871  28.386   6.155
 8540POPC   GL239314  13.020  28.346   6.155
 8540POPC   C1A39315  12.835  28.327   6.455
 8540POPC   D2A39316  12.891  28.383   6.755
 8540POPC   C3A39317  12.889  28.349   7.055
 8540POPC   C4A39318  12.804  28.405   7.355
 8540POPC   C1B39319  13.111  28.448   6.455
 8540POPC   C2B39320  13.117  28.404   6.755
 8540POPC   C3B39321  13.120  28.350   7.055
 8540POPC   C4B39322  13.080  28.424   7.355
 8541POPC   NC339323   5.879  28.356   5.555
 8541POPC   PO439324   5.839  28.405   5.855
 8541POPC   GL139325   5.905  28.385   6.155
 8541POPC   GL239326   5.838  28.269   6.155
 8541POPC   C1A39327   5.910  28.359   6.455
 8541POPC   D2A39328   5.828  28.403   6.755
 8541POPC   C3A39329   5.846  28.361   7.055
 8541POPC   C4A39330   5.914  28.347   7.355
 8541POPC   C1B39331   5.841  28.143   6.455
 8541POPC   C2B39332   5.856  28.149   6.755
 8541POPC   C3B39333   5.818  28.141   7.055
 8541POPC   C4B39334   5.805  28.141   7.355
 8542POPC   NC339335  37.726  12.075   5.555
 8542POPC   PO439336  37.674  12.029   5.855
 8542POPC   GL139337  37.677  12.102   6.155
 8542POPC   GL239338  37.700  11.940   6.155
 8542POPC   C1A39339  37.676  12.059   6.455
 8542POPC   D2A39340  37.719  12.117   6.755
 8542POPC   C3A39341  37.694  12.047   7.055
 8542POPC   C4A39342  37.707  12.062   7.355
 8542POPC   C1B39343  37.708  11.834   6.455
 8542POPC   C2B39344  37.788  11.789   6.755
 8542POPC   C3B39345  37.783  11.836   7.055
 8542POPC   C4B39346  37.781  11.833   7.355
 8543POPC   NC339347   1.237  23.709   5.555
 8543POPC   PO439348   1.259  23.739   5.855
 8543POPC   GL139349   1.237  23.706   6.155
 8543POPC   GL239350   1.297  23.746   6.155
 8543POPC   C1A39351   1.176  23.731   6.455
 8543POPC   D2A39352   1.196  23.739   6.755
 8543POPC   C3A39353   1.204  23.756   7.055
 8543POPC   C4A39354   1.226  23.761   7.355
 8543POPC   C1B39355   1.459  23.758   6.455
 8543POPC   C2B39356   1.448  23.696   6.755
 8543POPC   C3B39357   1.450  23.744   7.055
 8543POPC   C4B39358   1.464  23.762   7.355
 8544POPC   NC339359  27.547  33.794   5.555
 8544POPC   PO439360  27.639  33.761   5.855
 8544POPC   GL139361  27.631  33.811   6.155
 8544POPC   GL239362  27.492  33.786   6.155
 8544POPC   C1A39363  27.570  33.811   6.455
 8544POPC   D2A39364  27.558  33.848   6.755
 8544POPC   C3A39365  27.634  33.763   7.055
 8544POPC   C4A39366  27.572  33.828   7.355
 8544POPC   C1B39367  27.324  33.766   6.455
 8544POPC   C2B39368  27.386  33.735   6.755
 8544POPC   C3B39369  27.358  33.767   7.055
 8544POPC   C4B39370  27.370  33.705   7.355
 8545POPC   NC339371  12.879   8.187   5.555
 8545POPC   PO439372  12.898   8.237   5.855
 8545POPC   GL139373  12.841   8.147   6.155
 8545POPC   GL239374  12.950   8.328   6.155
 8545POPC   C1A39375  12.827   8.199   6.455
 8545POPC   D2A39376  12.828   8.208   6.755
 8545POPC   C3A39377  12.901   8.234   7.055
 8545POPC   C4A39378  12.837   8.178   7.355
 8545POPC   C1B39379  12.976   8.435   6.455
 8545POPC   C2B39380  13.002   8.437   6.755
 8545POPC   C3B39381  13.006   8.376   7.055
 8545POPC   C4B39382  13.029   8.455   7.355
 8546POPC   NC339383  38.468  35.390   5.555
 8546POPC   PO439384  38.471  35.325   5.855
 8546POPC   GL139385  38.438  35.341   6.155
 8546POPC   GL239386  38.481  35.515   6.155
 8546POPC   C1A39387  38.409  35.341   6.455
 8546POPC   D2A39388  38.499  35.357   6.755
 8546POPC   C3A39389  38.466  35.399   7.055
 8546POPC   C4A39390  38.483  35.320   7.355
 8546POPC   C1B39391  38.442  35.613   6.455
 8546POPC   C2B39392  38.468  35.552   6.755
 8546POPC   C3B39393  38.397  35.551   7.055
 8546POPC   C4B39394  38.376  35.637   7.355
 8547POPC   NC339395  33.018   7.421   5.555
 8547POPC   PO439396  33.008   7.413   5.855
 8547POPC   GL139397  33.002   7.458   6.155
 8547POPC   GL239398  33.125   7.349   6.155
 8547POPC   C1A39399  33.069   7.387   6.455
 8547POPC   D2A39400  33.071   7.455   6.755
 8547POPC   C3A39401  32.986   7.448   7.055
 8547POPC   C4A39402  32.991   7.461   7.355
 8547POPC   C1B39403  33.173   7.279   6.455
 8547POPC   C2B39404  33.194   7.252   6.755
 8547POPC   C3B39405  33.171   7.208   7.055
 8547POPC   C4B39406  33.231   7.253   7.355
 8548POPC   NC339407  30.676  43.064   5.555
 8548POPC   PO439408  30.701  43.071   5.855
 8548POPC   GL139409  30.665  43.075   6.155
 8548POPC   GL239410  30.770  43.220   6.155
 8548POPC   C1A39411  30.659  43.114   6.455
 8548POPC   D2A39412  30.660  43.132   6.755
 8548POPC   C3A39413  30.746  43.132   7.055
 8548POPC   C4A39414  30.667  43.094   7.355
 8548POPC   C1B39415  30.746  43.388   6.455
 8548POPC   C2B39416  30.762  43.308   6.755
 8548POPC   C3B39417  30.761  43.354   7.055
 8548POPC   C4B39418  30.792  43.346   7.355
 8549POPC   NC339419  36.122  16.684   5.555
 8549POPC   PO439420  36.139  16.773   5.855
 8549POPC   GL139421  36.090  16.713   6.155
 8549POPC   GL239422  36.138  16.652   6.155
 8549POPC   C1A39423  36.150  16.693   6.455
 8549POPC   D2A39424  36.084  16.781   6.755
 8549POPC   C3A39425  36.161  16.768   7.055
 8549POPC   C4A39426  36.171  16.691   7.355
 8549POPC   C1B39427  36.209  16.494   6.455
 8549POPC   C2B39428  36.174  16.456   6.755
 8549POPC   C3B39429  36.138  16.495   7.055
 8549POPC   C4B39430  36.212  16.530   7.355
 8550POPC   NC339431  35.316  35.373   5.555
 8550POPC   PO439432  35.347  35.320   5.855
 8550POPC   GL139433  35.371  35.358   6.155
 8550POPC   GL239434  35.245  35.429   6.155
 8550POPC   C1A39435  35.367  35.327   6.455
 8550POPC   D2A39436  35.303  35.345   6.755
 8550POPC   C3A39437  35.348  35.372   7.055
 8550POPC   C4A39438  35.382  35.320   7.355
 8550POPC   C1B39439  35.157  35.526   6.455
 8550POPC   C2B39440  35.197  35.518   6.755
 8550POPC   C3B39441  35.204  35.561   7.055
 8550POPC   C4B39442  35.211  35.561   7.355
 8551POPC   NC339443  42.356   5.872   5.555
 8551POPC   PO439444  42.379   5.915   5.855
 8551POPC   GL139445  42.312   5.843   6.155
 8551POPC   GL239446  42.307   5.959   6.155
 8551POPC   C1A39447  42.318   5.872   6.455
 8551POPC   D2A39448  42.351   5.874   6.755
 8551POPC   C3A39449  42.333   5.887   7.055
 8551POPC   C4A39450  42.324   5.878   7.355
 8551POPC   C1B39451  42.278   6.144   6.455
 8551POPC   C2B39452  42.249   6.139   6.755
 8551POPC   C3B39453  42.236   6.133   7.055
 8551POPC   C4B39454  42.291   6.140   7.355
 8552POPC   NC339455  22.942  23.743   5.555
 8552POPC   PO439456  22.938  23.669   5.855
 8552POPC   GL139457  22.962  23.737   6.155
 8552POPC   GL239458  23.047  23.741   6.155
 8552POPC   C1A39459  22.936  23.728   6.455
 8552POPC   D2A39460  22.964  23.738   6.755
 8552POPC   C3A39461  22.983  23.703   7.055
 8552POPC   C4A39462  22.939  23.715   7.355
 8552POPC   C1B39463  23.187  23.637   6.455
 8552POPC   C2B39464  23.140  23.643   6.755
 8552POPC   C3B39465  23.196  23.710   7.055
 8552POPC   C4B39466  23.214  23.656   7.355
 8553POPC   NC339467   9.769   9.745   5.555
 8553POPC   PO439468   9.714   9.743   5.855
 8553POPC   GL139469   9.760   9.721   6.155
 8553POPC   GL239470   9.603   9.852   6.155
 8553POPC   C1A39471   9.774   9.723   6.455
 8553POPC   D2A39472   9.705   9.728   6.755
 8553POPC   C3A39473   9.771   9.739   7.055
 8553POPC   C4A39474   9.757   9.758   7.355
 8553POPC   C1B39475   9.570   9.858   6.455
 8553POPC   C2B39476   9.506   9.872   6.755
 8553POPC   C3B39477   9.580   9.884   7.055
 8553POPC   C4B39478   9.561   9.919   7.355
 8554POPC   NC339479   9.010  19.807   5.555
 8554POPC   PO439480   8.941  19.859   5.855
 8554POPC   GL139481   8.943  19.824   6.155
 8554POPC   GL239482   9.003  19.926   6.155
 8554POPC   C1A39483   8.993  19.826   6.455
 8554POPC   D2A39484   8.942  19.850   6.755
 8554POPC   C3A39485   8.997  19.859   7.055
 8554POPC   C4A39486   8.941  19.878   7.355
 8554POPC   C1B39487   9.056  20.019   6.455
 8554POPC   C2B39488   9.103  20.049   6.755
 8554POPC   C3B39489   9.088  20.040   7.055
 8554POPC   C4B39490   9.073  20.090   7.355
 8555POPC   NC339491  44.630   1.987   5.555
 8555POPC   PO439492  44.699   2.034   5.855
 8555POPC   GL139493  44.646   1.992   6.155
 8555POPC   GL239494  44.720   1.862   6.155
 8555POPC   C1A39495  44.645   1.948   6.455
 8555POPC   D2A39496  44.660   2.021   6.755
 8555POPC   C3A39497  44.672   1.982   7.055
 8555POPC   C4A39498  44.689   1.985   7.355
 8555POPC   C1B39499  44.806   1.780   6.455
 8555POPC   C2B39500  44.818   1.776   6.755
 8555POPC   C3B39501  44.864   1.760   7.055
 8555POPC   C4B39502  44.795   1.799   7.355
 8556POPC   NC339503  34.548  25.295   5.555
 8556POPC   PO439504  34.604  25.268   5.855
 8556POPC   GL139505  34.527  25.310   6.155
 8556POPC   GL239506  34.584  25.133   6.155
 8556POPC   C1A39507  34.584  25.268   6.455
 8556POPC   D2A39508  34.618  25.276   6.755
 8556POPC   C3A39509  34.599  25.285   7.055
 8556POPC   C4A39510  34.556  25.275   7.355
 8556POPC   C1B39511  34.631  25.062   6.455
 8556POPC   C2B39512  34.634  25.064   6.755
 8556POPC   C3B39513  34.652  25.063   7.055
 8556POPC   C4B39514  34.688  25.075   7.355
 8557POPC   NC339515  15.954  18.324   5.555
 8557POPC   PO439516  15.914  18.308   5.855
 8557POPC   GL139517  15.918  18.283   6.155
 8557POPC   GL239518  15.872  18.353   6.155
 8557POPC   C1A39519  15.994  18.328   6.455
 8557POPC   D2A39520  15.963  18.238   6.755
 8557POPC   C3A39521  15.941  18.325   7.055
 8557POPC   C4A39522  15.992  18.315   7.355
 8557POPC   C1B39523  15.893  18.564   6.455
 8557POPC   C2B39524  15.872  18.517   6.755
 8557POPC   C3B39525  15.878  18.548   7.055
 8557POPC   C4B39526  15.881  18.475   7.355
 8558POPC   NC339527  14.374  22.144   5.555
 8558POPC   PO439528  14.413  22.118   5.855
 8558POPC   GL139529  14.411  22.140   6.155
 8558POPC   GL239530  14.409  22.235   6.155
 8558POPC   C1A39531  14.381  22.118   6.455
 8558POPC   D2A39532  14.363  22.176   6.755
 8558POPC   C3A39533  14.436  22.143   7.055
 8558POPC   C4A39534  14.448  22.191   7.355
 8558POPC   C1B39535  14.498  22.376   6.455
 8558POPC   C2B39536  14.498  22.444   6.755
 8558POPC   C3B39537  14.471  22.372   7.055
 8558POPC   C4B39538  14.440  22.372   7.355
 8559POPC   NC339539  16.753  40.052   5.555
 8559POPC   PO439540  16.722  39.983   5.855
 8559POPC   GL139541  16.722  39.998   6.155
 8559POPC   GL239542  16.804  40.069   6.155
 8559POPC   C1A39543  16.749  39.998   6.455
 8559POPC   D2A39544  16.741  40.027   6.755
 8559POPC   C3A39545  16.712  39.958   7.055
 8559POPC   C4A39546  16.738  39.959   7.355
 8559POPC   C1B39547  17.004  40.054   6.455
 8559POPC   C2B39548  16.940  40.060   6.755
 8559POPC   C3B39549  16.992  40.062   7.055
 8559POPC   C4B39550  16.999  40.105   7.355
 8560POPC   NC339551  22.942  26.792   5.555
 8560POPC   PO439552  22.907  26.776   5.855
 8560POPC   GL139553  22.978  26.819   6.155
 8560POPC   GL239554  22.950  26.960   6.155
 8560POPC   C1A39555  22.901  26.809   6.455
 8560POPC   D2A39556  22.896  26.791   6.755
 8560POPC   C3A39557  22.969  26.784   7.055
 8560POPC   C4A39558  22.890  26.842   7.355
 8560POPC   C1B39559  22.908  27.076   6.455
 8560POPC   C2B39560  22.909  27.032   6.755
 8560POPC   C3B39561  22.934  27.075   7.055
 8560POPC   C4B39562  22.929  27.034   7.355
 8561POPC   NC339563  18.280   1.241   5.555
 8561POPC   PO439564  18.324   1.229   5.855
 8561POPC   GL139565  18.271   1.239   6.155
 8561POPC   GL239566  18.390   1.235   6.155
 8561POPC   C1A39567  18.323   1.180   6.455
 8561POPC   D2A39568  18.258   1.174   6.755
 8561POPC   C3A39569  18.264   1.222   7.055
 8561POPC   C4A39570  18.308   1.232   7.355
 8561POPC   C1B39571  18.566   1.167   6.455
 8561POPC   C2B39572  18.534   1.175   6.755
 8561POPC   C3B39573  18.560   1.201   7.055
 8561POPC   C4B39574  18.505   1.219   7.355
 8562POPC   NC339575   2.726   0.389   5.555
 8562POPC   PO439576   2.735   0.472   5.855
 8562POPC   GL139577   2.741   0.454   6.155
 8562POPC   GL239578   2.785   0.331   6.155
 8562POPC   C1A39579   2.753   0.469   6.455
 8562POPC   D2A39580   2.762   0.431   6.755
 8562POPC   C3A39581   2.769   0.443   7.055
 8562POPC   C4A39582   2.787   0.450   7.355
 8562POPC   C1B39583   2.797   0.204   6.455
 8562POPC   C2B39584   2.865   0.228   6.755
 8562POPC   C3B39585   2.877   0.192   7.055
 8562POPC   C4B39586   2.858   0.214   7.355
 8563POPC   NC339587  30.677  10.506   5.555
 8563POPC   PO439588  30.707  10.538   5.855
 8563POPC   GL139589  30.679  10.476   6.155
 8563POPC   GL239590  30.604  10.659   6.155
 8563POPC   C1A39591  30.674  10.546   6.455
 8563POPC   D2A39592  30.695  10.559   6.755
 8563POPC   C3A39593  30.663  10.555   7.055
 8563POPC   C4A39594  30.660  10.506   7.355
 8563POPC   C1B39595  30.495  10.726   6.455
 8563POPC   C2B39596  30.535  10.699   6.755
 8563POPC   C3B39597  30.485  10.730   7.055
 8563POPC   C4B39598  30.551  10.692   7.355
 8564POPC   NC339599  32.275  12.886   5.555
 8564POPC   PO439600  32.250  12.895   5.855
 8564POPC   GL139601  32.270  12.902   6.155
 8564POPC   GL239602  32.117  12.841   6.155
 8564POPC   C1A39603  32.255  12.897   6.455
 8564POPC   D2A39604  32.244  12.821   6.755
 8564POPC   C3A39605  32.262  12.870   7.055
 8564POPC   C4A39606  32.262  12.834   7.355
 8564POPC   C1B39607  31.969  12.935   6.455
 8564POPC   C2B39608  31.970  12.889   6.755
 8564POPC   C3B39609  32.026  12.908   7.055
 8564POPC   C4B39610  32.052  12.908   7.355
 8565POPC   NC339611   6.598   6.679   5.555
 8565POPC   PO439612   6.662   6.663   5.855
 8565POPC   GL139613   6.671   6.611   6.155
 8565POPC   GL239614   6.653   6.808   6.155
 8565POPC   C1A39615   6.660   6.609   6.455
 8565POPC   D2A39616   6.689   6.619   6.755
 8565POPC   C3A39617   6.648   6.605   7.055
 8565POPC   C4A39618   6.662   6.604   7.355
 8565POPC   C1B39619   6.678   6.858   6.455
 8565POPC   C2B39620   6.720   6.889   6.755
 8565POPC   C3B39621   6.687   6.916   7.055
 8565POPC   C4B39622   6.696   6.904   7.355
 8566POPC   NC339623  12.030   1.251   5.555
 8566POPC   PO439624  12.108   1.241   5.855
 8566POPC   GL139625  12.074   1.257   6.155
 8566POPC   GL239626  12.068   1.363   6.155
 8566POPC   C1A39627  12.028   1.188   6.455
 8566POPC   D2A39628  12.118   1.204   6.755
 8566POPC   C3A39629  12.111   1.204   7.055
 8566POPC   C4A39630  12.038   1.212   7.355
 8566POPC   C1B39631  11.933   1.478   6.455
 8566POPC   C2B39632  11.986   1.412   6.755
 8566POPC   C3B39633  11.980   1.463   7.055
 8566POPC   C4B39634  11.988   1.420   7.355
 8567POPC   NC339635  12.899   4.345   5.555
 8567POPC   PO439636  12.898   4.339   5.855
 8567POPC   GL139637  12.806   4.312   6.155
 8567POPC   GL239638  12.919   4.456   6.155
 8567POPC   C1A39639  12.892   4.308   6.455
 8567POPC   D2A39640  12.820   4.357   6.755
 8567POPC   C3A39641  12.818   4.326   7.055
 8567POPC   C4A39642  12.830   4.363   7.355
 8567POPC   C1B39643  12.934   4.533   6.455
 8567POPC   C2B39644  12.960   4.542   6.755
 8567POPC   C3B39645  12.896   4.548   7.055
 8567POPC   C4B39646  12.958   4.524   7.355
 8568POPC   NC339647  40.830  15.958   5.555
 8568POPC   PO439648  40.753  16.001   5.855
 8568POPC   GL139649  40.744  15.991   6.155
 8568POPC   GL239650  40.642  15.933   6.155
 8568POPC   C1A39651  40.742  15.971   6.455
 8568POPC   D2A39652  40.760  15.938   6.755
 8568POPC   C3A39653  40.774  15.951   7.055
 8568POPC   C4A39654  40.783  15.950   7.355
 8568POPC   C1B39655  40.562  15.799   6.455
 8568POPC   C2B39656  40.584  15.879   6.755
 8568POPC   C3B39657  40.545  15.859   7.055
 8568POPC   C4B39658  40.527  15.863   7.355
 8569POPC   NC339659  39.269   6.649   5.555
 8569POPC   PO439660  39.208   6.668   5.855
 8569POPC   GL139661  39.251   6.677   6.155
 8569POPC   GL239662  39.367   6.621   6.155
 8569POPC   C1A39663  39.198   6.658   6.455
 8569POPC   D2A39664  39.280   6.610   6.755
 8569POPC   C3A39665  39.221   6.675   7.055
 8569POPC   C4A39666  39.234   6.664   7.355
 8569POPC   C1B39667  39.511   6.508   6.455
 8569POPC   C2B39668  39.420   6.553   6.755
 8569POPC   C3B39669  39.473   6.564   7.055
 8569POPC   C4B39670  39.490   6.545   7.355
 8570POPC   NC339671  11.288  29.931   5.555
 8570POPC   PO439672  11.331  29.934   5.855
 8570POPC   GL139673  11.310  29.878   6.155
 8570POPC   GL239674  11.278  29.818   6.155
 8570POPC   C1A39675  11.343  29.921   6.455
 8570POPC   D2A39676  11.293  29.896   6.755
 8570POPC   C3A39677  11.336  29.963   7.055
 8570POPC   C4A39678  11.334  29.963   7.355
 8570POPC   C1B39679  11.262  29.633   6.455
 8570POPC   C2B39680  11.241  29.672   6.755
 8570POPC   C3B39681  11.245  29.709   7.055
 8570POPC   C4B39682  11.235  29.717   7.355
 8571POPC   NC339683   9.758  18.315   5.555
 8571POPC   PO439684   9.779  18.298   5.855
 8571POPC   GL139685   9.757  18.257   6.155
 8571POPC   GL239686   9.916  18.262   6.155
 8571POPC   C1A39687   9.767  18.255   6.455
 8571POPC   D2A39688   9.778  18.277   6.755
 8571POPC   C3A39689   9.746  18.236   7.055
 8571POPC   C4A39690   9.771  18.293   7.355
 8571POPC   C1B39691  10.014  18.295   6.455
 8571POPC   C2B39692  10.009  18.336   6.755
 8571POPC   C3B39693  10.035  18.368   7.055
 8571POPC   C4B39694  10.020  18.352   7.355
 8572POPC   NC339695  36.095   8.171   5.555
 8572POPC   PO439696  36.152   8.230   5.855
 8572POPC   GL139697  36.088   8.220   6.155
 8572POPC   GL239698  36.200   8.110   6.155
 8572POPC   C1A39699  36.135   8.198   6.455
 8572POPC   D2A39700  36.089   8.178   6.755
 8572POPC   C3A39701  36.149   8.170   7.055
 8572POPC   C4A39702  36.170   8.170   7.355
 8572POPC   C1B39703  36.354   8.077   6.455
 8572POPC   C2B39704  36.359   8.159   6.755
 8572POPC   C3B39705  36.361   8.072   7.055
 8572POPC   C4B39706  36.385   8.083   7.355
 8573POPC   NC339707  40.787  26.778   5.555
 8573POPC   PO439708  40.785  26.783   5.855
 8573POPC   GL139709  40.808  26.842   6.155
 8573POPC   GL239710  40.931  26.781   6.155
 8573POPC   C1A39711  40.771  26.827   6.455
 8573POPC   D2A39712  40.787  26.863   6.755
 8573POPC   C3A39713  40.774  26.814   7.055
 8573POPC   C4A39714  40.816  26.837   7.355
 8573POPC   C1B39715  41.069  26.758   6.455
 8573POPC   C2B39716  41.025  26.790   6.755
 8573POPC   C3B39717  41.046  26.851   7.055
 8573POPC   C4B39718  41.048  26.804   7.355
 8574POPC   NC339719  22.184   7.422   5.555
 8574POPC   PO439720  22.119   7.416   5.855
 8574POPC   GL139721  22.164   7.385   6.155
 8574POPC   GL239722  22.176   7.550   6.155
 8574POPC   C1A39723  22.183   7.399   6.455
 8574POPC   D2A39724  22.170   7.443   6.755
 8574POPC   C3A39725  22.139   7.394   7.055
 8574POPC   C4A39726  22.185   7.389   7.355
 8574POPC   C1B39727  22.267   7.708   6.455
 8574POPC   C2B39728  22.204   7.619   6.755
 8574POPC   C3B39729  22.188   7.711   7.055
 8574POPC   C4B39730  22.258   7.632   7.355
 8575POPC   NC339731  36.165  26.034   5.555
 8575POPC   PO439732  36.128  26.074   5.855
 8575POPC   GL139733  36.147  26.022   6.155
 8575POPC   GL239734  36.125  25.890   6.155
 8575POPC   C1A39735  36.080  26.041   6.455
 8575POPC   D2A39736  36.154  26.084   6.755
 8575POPC   C3A39737  36.153  26.081   7.055
 8575POPC   C4A39738  36.103  26.030   7.355
 8575POPC   C1B39739  36.041  25.837   6.455
 8575POPC   C2B39740  36.081  25.788   6.755
 8575POPC   C3B39741  36.082  25.832   7.055
 8575POPC   C4B39742  36.006  25.808   7.355
 8576POPC   NC339743  24.460   3.542   5.555
 8576POPC   PO439744  24.471   3.503   5.855
 8576POPC   GL139745  24.469   3.495   6.155
 8576POPC   GL239746  24.444   3.630   6.155
 8576POPC   C1A39747  24.502   3.514   6.455
 8576POPC   D2A39748  24.503   3.575   6.755
 8576POPC   C3A39749  24.471   3.521   7.055
 8576POPC   C4A39750  24.515   3.517   7.355
 8576POPC   C1B39751  24.340   3.751   6.455
 8576POPC   C2B39752  24.361   3.739   6.755
 8576POPC   C3B39753  24.402   3.740   7.055
 8576POPC   C4B39754  24.374   3.780   7.355
 8577POPC   NC339755  42.352   2.028   5.555
 8577POPC   PO439756  42.354   2.028   5.855
 8577POPC   GL139757  42.331   1.994   6.155
 8577POPC   GL239758  42.395   1.929   6.155
 8577POPC   C1A39759  42.311   2.030   6.455
 8577POPC   D2A39760  42.310   1.987   6.755
 8577POPC   C3A39761  42.334   1.990   7.055
 8577POPC   C4A39762  42.321   2.021   7.355
 8577POPC   C1B39763  42.489   1.838   6.455
 8577POPC   C2B39764  42.511   1.785   6.755
 8577POPC   C3B39765  42.487   1.790   7.055
 8577POPC   C4B39766  42.538   1.784   7.355
 8578POPC   NC339767  29.184  43.148   5.555
 8578POPC   PO439768  29.192  43.106   5.855
 8578POPC   GL139769  29.159  43.155   6.155
 8578POPC   GL239770  29.273  43.100   6.155
 8578POPC   C1A39771  29.154  43.091   6.455
 8578POPC   D2A39772  29.150  43.144   6.755
 8578POPC   C3A39773  29.123  43.144   7.055
 8578POPC   C4A39774  29.116  43.101   7.355
 8578POPC   C1B39775  29.389  43.127   6.455
 8578POPC   C2B39776  29.340  43.161   6.755
 8578POPC   C3B39777  29.369  43.209   7.055
 8578POPC   C4B39778  29.401  43.169   7.355
 8579POPC   NC339779  13.673  41.569   5.555
 8579POPC   PO439780  13.620  41.529   5.855
 8579POPC   GL139781  13.664  41.536   6.155
 8579POPC   GL239782  13.576  41.406   6.155
 8579POPC   C1A39783  13.585  41.592   6.455
 8579POPC   D2A39784  13.614  41.535   6.755
 8579POPC   C3A39785  13.618  41.572   7.055
 8579POPC   C4A39786  13.626  41.509   7.355
 8579POPC   C1B39787  13.565  41.292   6.455
 8579POPC   C2B39788  13.525  41.368   6.755
 8579POPC   C3B39789  13.548  41.323   7.055
 8579POPC   C4B39790  13.486  41.331   7.355
 8580POPC   NC339791  39.265  33.842   5.555
 8580POPC   PO439792  39.252  33.769   5.855
 8580POPC   GL139793  39.193  33.849   6.155
 8580POPC   GL239794  39.196  33.924   6.155
 8580POPC   C1A39795  39.263  33.755   6.455
 8580POPC   D2A39796  39.209  33.814   6.755
 8580POPC   C3A39797  39.218  33.815   7.055
 8580POPC   C4A39798  39.229  33.793   7.355
 8580POPC   C1B39799  39.296  34.018   6.455
 8580POPC   C2B39800  39.257  34.028   6.755
 8580POPC   C3B39801  39.258  34.007   7.055
 8580POPC   C4B39802  39.201  34.080   7.355
 8581POPC   NC339803  15.971  22.905   5.555
 8581POPC   PO439804  15.974  22.926   5.855
 8581POPC   GL139805  15.936  22.980   6.155
 8581POPC   GL239806  15.796  22.968   6.155
 8581POPC   C1A39807  15.998  22.926   6.455
 8581POPC   D2A39808  15.939  22.935   6.755
 8581POPC   C3A39809  15.946  22.896   7.055
 8581POPC   C4A39810  16.002  22.978   7.355
 8581POPC   C1B39811  15.663  22.911   6.455
 8581POPC   C2B39812  15.741  22.949   6.755
 8581POPC   C3B39813  15.674  22.897   7.055
 8581POPC   C4B39814  15.749  22.931   7.355
 8582POPC   NC339815  35.381  39.992   5.555
 8582POPC   PO439816  35.313  39.980   5.855
 8582POPC   GL139817  35.352  39.978   6.155
 8582POPC   GL239818  35.459  39.952   6.155
 8582POPC   C1A39819  35.342  40.029   6.455
 8582POPC   D2A39820  35.356  40.036   6.755
 8582POPC   C3A39821  35.395  39.982   7.055
 8582POPC   C4A39822  35.331  40.033   7.355
 8582POPC   C1B39823  35.606  39.984   6.455
 8582POPC   C2B39824  35.646  39.973   6.755
 8582POPC   C3B39825  35.611  40.004   7.055
 8582POPC   C4B39826  35.571  40.002   7.355
 8583POPC   NC339827  28.414  18.299   5.555
 8583POPC   PO439828  28.324  18.276   5.855
 8583POPC   GL139829  28.322  18.317   6.155
 8583POPC   GL239830  28.464  18.262   6.155
 8583POPC   C1A39831  28.397  18.276   6.455
 8583POPC   D2A39832  28.359  18.323   6.755
 8583POPC   C3A39833  28.375  18.303   7.055
 8583POPC   C4A39834  28.395  18.274   7.355
 8583POPC   C1B39835  28.592  18.159   6.455
 8583POPC   C2B39836  28.615  18.211   6.755
 8583POPC   C3B39837  28.584  18.190   7.055
 8583POPC   C4B39838  28.559  18.150   7.355
 8584POPC   NC339839   5.111   5.125   5.555
 8584POPC   PO439840   5.134   5.068   5.855
 8584POPC   GL139841   5.090   5.061   6.155
 8584POPC   GL239842   5.199   5.230   6.155
 8584POPC   C1A39843   5.106   5.049   6.455
 8584POPC   D2A39844   5.052   5.142   6.755
 8584POPC   C3A39845   5.073   5.113   7.055
 8584POPC   C4A39846   5.102   5.091   7.355
 8584POPC   C1B39847   5.217   5.254   6.455
 8584POPC   C2B39848   5.256   5.290   6.755
 8584POPC   C3B39849   5.200   5.282   7.055
 8584POPC   C4B39850   5.199   5.327   7.355
 8585POPC   NC339851  16.763   4.346   5.555
 8585POPC   PO439852  16.742   4.366   5.855
 8585POPC   GL139853  16.687   4.290   6.155
 8585POPC   GL239854  16.840   4.337   6.155
 8585POPC   C1A39855  16.737   4.330   6.455
 8585POPC   D2A39856  16.765   4.351   6.755
 8585POPC   C3A39857  16.715   4.279   7.055
 8585POPC   C4A39858  16.768   4.284   7.355
 8585POPC   C1B39859  16.941   4.327   6.455
 8585POPC   C2B39860  16.992   4.328   6.755
 8585POPC   C3B39861  17.006   4.301   7.055
 8585POPC   C4B39862  16.957   4.280   7.355
 8586POPC   NC339863   2.003   5.113   5.555
 8586POPC   PO439864   1.984   5.063   5.855
 8586POPC   GL139865   2.036   5.052   6.155
 8586POPC   GL239866   2.045   5.048   6.155
 8586POPC   C1A39867   1.976   5.104   6.455
 8586POPC   D2A39868   1.973   5.058   6.755
 8586POPC   C3A39869   2.025   5.063   7.055
 8586POPC   C4A39870   1.966   5.095   7.355
 8586POPC   C1B39871   2.191   4.941   6.455
 8586POPC   C2B39872   2.148   4.919   6.755
 8586POPC   C3B39873   2.163   4.957   7.055
 8586POPC   C4B39874   2.120   4.925   7.355
 8587POPC   NC339875  17.542  39.207   5.555
 8587POPC   PO439876  17.462  39.239   5.855
 8587POPC   GL139877  17.499  39.212   6.155
 8587POPC   GL239878  17.439  39.247   6.155
 8587POPC   C1A39879  17.503  39.218   6.455
 8587POPC   D2A39880  17.526  39.247   6.755
 8587POPC   C3A39881  17.546  39.245   7.055
 8587POPC   C4A39882  17.468  39.267   7.355
 8587POPC   C1B39883  17.232  39.337   6.455
 8587POPC   C2B39884  17.251  39.342   6.755
 8587POPC   C3B39885  17.287  39.337   7.055
 8587POPC   C4B39886  17.247  39.302   7.355
 8588POPC   NC339887  38.428  39.275   5.555
 8588POPC   PO439888  38.426  39.258   5.855
 8588POPC   GL139889  38.413  39.279   6.155
 8588POPC   GL239890  38.362  39.143   6.155
 8588POPC   C1A39891  38.503  39.191   6.455
 8588POPC   D2A39892  38.483  39.249   6.755
 8588POPC   C3A39893  38.478  39.197   7.055
 8588POPC   C4A39894  38.476  39.214   7.355
 8588POPC   C1B39895  38.246  39.098   6.455
 8588POPC   C2B39896  38.298  39.014   6.755
 8588POPC   C3B39897  38.284  39.072   7.055
 8588POPC   C4B39898  38.246  39.020   7.355
 8589POPC   NC339899  37.695  24.469   5.555
 8589POPC   PO439900  37.704  24.443   5.855
 8589POPC   GL139901  37.640  24.494   6.155
 8589POPC   GL239902  37.536  24.476   6.155
 8589POPC   C1A39903  37.665  24.519   6.455
 8589POPC   D2A39904  37.712  24.512   6.755
 8589POPC   C3A39905  37.686  24.476   7.055
 8589POPC   C4A39906  37.681  24.445   7.355
 8589POPC   C1B39907  37.457  24.411   6.455
 8589POPC   C2B39908  37.395  24.420   6.755
 8589POPC   C3B39909  37.422  24.437   7.055
 8589POPC   C4B39910  37.475  24.465   7.355
 8590POPC   NC339911  12.868  15.906   5.555
 8590POPC   PO439912  12.859  15.917   5.855
 8590POPC   GL139913  12.830  15.933   6.155
 8590POPC   GL239914  12.796  15.822   6.155
 8590POPC   C1A39915  12.835  15.920   6.455
 8590POPC   D2A39916  12.822  15.958   6.755
 8590POPC   C3A39917  12.865  15.930   7.055
 8590POPC   C4A39918  12.894  15.978   7.355
 8590POPC   C1B39919  12.864  15.671   6.455
 8590POPC   C2B39920  12.810  15.694   6.755
 8590POPC   C3B39921  12.837  15.697   7.055
 8590POPC   C4B39922  12.855  15.714   7.355
 8591POPC   NC339923  17.485  30.726   5.555
 8591POPC   PO439924  17.527  30.717   5.855
 8591POPC   GL139925  17.470  30.725   6.155
 8591POPC   GL239926  17.619  30.600   6.155
 8591POPC   C1A39927  17.475  30.666   6.455
 8591POPC   D2A39928  17.467  30.727   6.755
 8591POPC   C3A39929  17.511  30.728   7.055
 8591POPC   C4A39930  17.517  30.727   7.355
 8591POPC   C1B39931  17.664  30.556   6.455
 8591POPC   C2B39932  17.634  30.555   6.755
 8591POPC   C3B39933  17.707  30.487   7.055
 8591POPC   C4B39934  17.681  30.562   7.355
 8592POPC   NC339935  12.060   7.390   5.555
 8592POPC   PO439936  12.057   7.426   5.855
 8592POPC   GL139937  12.037   7.409   6.155
 8592POPC   GL239938  12.097   7.581   6.155
 8592POPC   C1A39939  12.093   7.387   6.455
 8592POPC   D2A39940  12.032   7.387   6.755
 8592POPC   C3A39941  12.042   7.403   7.055
 8592POPC   C4A39942  12.074   7.423   7.355
 8592POPC   C1B39943  12.115   7.674   6.455
 8592POPC   C2B39944  12.097   7.657   6.755
 8592POPC   C3B39945  12.059   7.646   7.055
 8592POPC   C4B39946  12.064   7.709   7.355
 8593POPC   NC339947  36.104  29.112   5.555
 8593POPC   PO439948  36.084  29.122   5.855
 8593POPC   GL139949  36.137  29.102   6.155
 8593POPC   GL239950  36.101  29.211   6.155
 8593POPC   C1A39951  36.124  29.186   6.455
 8593POPC   D2A39952  36.091  29.172   6.755
 8593POPC   C3A39953  36.087  29.155   7.055
 8593POPC   C4A39954  36.129  29.146   7.355
 8593POPC   C1B39955  36.041  29.366   6.455
 8593POPC   C2B39956  35.973  29.333   6.755
 8593POPC   C3B39957  35.979  29.367   7.055
 8593POPC   C4B39958  36.049  29.395   7.355
 8594POPC   NC339959   1.998  25.286   5.555
 8594POPC   PO439960   1.978  25.255   5.855
 8594POPC   GL139961   1.961  25.235   6.155
 8594POPC   GL239962   1.846  25.256   6.155
 8594POPC   C1A39963   1.968  25.305   6.455
 8594POPC   D2A39964   1.960  25.224   6.755
 8594POPC   C3A39965   1.989  25.273   7.055
 8594POPC   C4A39966   2.004  25.307   7.355
 8594POPC   C1B39967   1.787  25.237   6.455
 8594POPC   C2B39968   1.721  25.193   6.755
 8594POPC   C3B39969   1.738  25.233   7.055
 8594POPC   C4B39970   1.752  25.174   7.355
 8595POPC   NC339971  16.718  29.960   5.555
 8595POPC   PO439972  16.699  29.945   5.855
 8595POPC   GL139973  16.769  29.970   6.155
 8595POPC   GL239974  16.803  29.854   6.155
 8595POPC   C1A39975  16.754  29.879   6.455
 8595POPC   D2A39976  16.742  29.950   6.755
 8595POPC   C3A39977  16.759  29.947   7.055
 8595POPC   C4A39978  16.745  29.940   7.355
 8595POPC   C1B39979  17.010  29.828   6.455
 8595POPC   C2B39980  16.970  29.812   6.755
 8595POPC   C3B39981  16.977  29.808   7.055
 8595POPC   C4B39982  16.946  29.833   7.355
 8596POPC   NC339983  26.775  19.104   5.555
 8596POPC   PO439984  26.835  19.058   5.855
 8596POPC   GL139985  26.838  19.105   6.155
 8596POPC   GL239986  26.646  19.112   6.155
 8596POPC   C1A39987  26.832  19.096   6.455
 8596POPC   D2A39988  26.858  19.009   6.755
 8596POPC   C3A39989  26.796  19.054   7.055
 8596POPC   C4A39990  26.807  19.108   7.355
 8596POPC   C1B39991  26.604  19.078   6.455
 8596POPC   C2B39992  26.518  19.115   6.755
 8596POPC   C3B39993  26.575  19.116   7.055
 8596POPC   C4B39994  26.521  19.105   7.355
 8597POPC   NC339995  39.230  43.911   5.555
 8597POPC   PO439996  39.206  43.844   5.855
 8597POPC   GL139997  39.188  43.877   6.155
 8597POPC   GL239998  39.059  43.870   6.155
 8597POPC   C1A39999  39.186  43.929   6.455
 8597POPC   D2A40000  39.219  43.872   6.755
 8597POPC   C3A40001  39.196  43.849   7.055
 8597POPC   C4A40002  39.226  43.861   7.355
 8597POPC   C1B40003  38.992  43.969   6.455
 8597POPC   C2B40004  39.001  43.943   6.755
 8597POPC   C3B40005  38.952  43.903   7.055
 8597POPC   C4B40006  38.987  43.923   7.355
 8598POPC   NC340007  38.498   5.087   5.555
 8598POPC   PO440008  38.429   5.057   5.855
 8598POPC   GL140009  38.425   5.089   6.155
 8598POPC   GL240010  38.609   5.091   6.155
 8598POPC   C1A40011  38.501   5.091   6.455
 8598POPC   D2A40012  38.437   5.075   6.755
 8598POPC   C3A40013  38.471   5.047   7.055
 8598POPC   C4A40014  38.480   5.077   7.355
 8598POPC   C1B40015  38.726   5.066   6.455
 8598POPC   C2B40016  38.675   5.079   6.755
 8598POPC   C3B40017  38.730   5.090   7.055
 8598POPC   C4B40018  38.721   5.113   7.355
 8599POPC   NC340019  38.427  43.920   5.555
 8599POPC   PO440020  38.427  43.912   5.855
 8599POPC   GL140021  38.483  43.879   6.155
 8599POPC   GL240022  38.481  43.742   6.155
 8599POPC   C1A40023  38.423  43.851   6.455
 8599POPC   D2A40024  38.499  43.860   6.755
 8599POPC   C3A40025  38.411  43.929   7.055
 8599POPC   C4A40026  38.499  43.869   7.355
 8599POPC   C1B40027  38.507  43.615   6.455
 8599POPC   C2B40028  38.545  43.682   6.755
 8599POPC   C3B40029  38.523  43.633   7.055
 8599POPC   C4B40030  38.576  43.645   7.355
 8600POPC   NC340031  39.269  22.966   5.555
 8600POPC   PO440032  39.246  22.967   5.855
 8600POPC   GL140033  39.211  22.978   6.155
 8600POPC   GL240034  39.357  22.853   6.155
 8600POPC   C1A40035  39.262  22.975   6.455
 8600POPC   D2A40036  39.219  22.963   6.755
 8600POPC   C3A40037  39.278  22.955   7.055
 8600POPC   C4A40038  39.189  22.924   7.355
 8600POPC   C1B40039  39.387  22.695   6.455
 8600POPC   C2B40040  39.386  22.760   6.755
 8600POPC   C3B40041  39.364  22.761   7.055
 8600POPC   C4B40042  39.393  22.736   7.355
 8601POPC   NC340043  38.448  19.017   5.555
 8601POPC   PO440044  38.469  19.056   5.855
 8601POPC   GL140045  38.415  19.061   6.155
 8601POPC   GL240046  38.508  19.149   6.155
 8601POPC   C1A40047  38.490  19.059   6.455
 8601POPC   D2A40048  38.503  19.015   6.755
 8601POPC   C3A40049  38.467  19.055   7.055
 8601POPC   C4A40050  38.471  19.072   7.355
 8601POPC   C1B40051  38.634  19.266   6.455
 8601POPC   C2B40052  38.589  19.235   6.755
 8601POPC   C3B40053  38.598  19.239   7.055
 8601POPC   C4B40054  38.542  19.311   7.355
 8602POPC   NC340055  15.928  39.186   5.555
 8602POPC   PO440056  15.972  39.249   5.855
 8602POPC   GL140057  15.958  39.199   6.155
 8602POPC   GL240058  15.896  39.144   6.155
 8602POPC   C1A40059  15.930  39.212   6.455
 8602POPC   D2A40060  15.995  39.269   6.755
 8602POPC   C3A40061  15.968  39.224   7.055
 8602POPC   C4A40062  15.935  39.253   7.355
 8602POPC   C1B40063  15.807  39.104   6.455
 8602POPC   C2B40064  15.726  39.014   6.755
 8602POPC   C3B40065  15.762  39.048   7.055
 8602POPC   C4B40066  15.746  39.062   7.355
 8603POPC   NC340067  33.009  25.283   5.555
 8603POPC   PO440068  33.043  25.291   5.855
 8603POPC   GL140069  32.976  25.270   6.155
 8603POPC   GL240070  33.059  25.358   6.155
 8603POPC   C1A40071  33.009  25.285   6.455
 8603POPC   D2A40072  33.044  25.291   6.755
 8603POPC   C3A40073  33.054  25.233   7.055
 8603POPC   C4A40074  32.985  25.228   7.355
 8603POPC   C1B40075  33.105  25.534   6.455
 8603POPC   C2B40076  33.162  25.461   6.755
 8603POPC   C3B40077  33.167  25.463   7.055
 8603POPC   C4B40078  33.080  25.545   7.355
 8604POPC   NC340079  28.355  33.074   5.555
 8604POPC   PO440080  28.322  32.989   5.855
 8604POPC   GL140081  28.366  32.987   6.155
 8604POPC   GL240082  28.401  33.106   6.155
 8604POPC   C1A40083  28.341  32.993   6.455
 8604POPC   D2A40084  28.372  33.042   6.755
 8604POPC   C3A40085  28.392  33.061   7.055
 8604POPC   C4A40086  28.388  33.002   7.355
 8604POPC   C1B40087  28.522  33.176   6.455
 8604POPC   C2B40088  28.562  33.208   6.755
 8604POPC   C3B40089  28.506  33.219   7.055
 8604POPC   C4B40090  28.495  33.226   7.355
 8605POPC   NC340091   8.966   2.026   5.555
 8605POPC   PO440092   9.004   2.029   5.855
 8605POPC   GL140093   8.991   1.999   6.155
 8605POPC   GL240094   8.862   1.906   6.155
 8605POPC   C1A40095   8.974   1.992   6.455
 8605POPC   D2A40096   8.978   2.018   6.755
 8605POPC   C3A40097   8.987   1.965   7.055
 8605POPC   C4A40098   9.008   1.992   7.355
 8605POPC   C1B40099   8.785   1.821   6.455
 8605POPC   C2B40100   8.733   1.875   6.755
 8605POPC   C3B40101   8.709   1.881   7.055
 8605POPC   C4B40102   8.716   1.888   7.355
 8606POPC   NC340103   4.329   1.195   5.555
 8606POPC   PO440104   4.316   1.202   5.855
 8606POPC   GL140105   4.337   1.218   6.155
 8606POPC   GL240106   4.230   1.265   6.155
 8606POPC   C1A40107   4.360   1.175   6.455
 8606POPC   D2A40108   4.353   1.257   6.755
 8606POPC   C3A40109   4.314   1.236   7.055
 8606POPC   C4A40110   4.353   1.186   7.355
 8606POPC   C1B40111   4.159   1.422   6.455
 8606POPC   C2B40112   4.103   1.344   6.755
 8606POPC   C3B40113   4.117   1.332   7.055
 8606POPC   C4B40114   4.145   1.397   7.355
 8607POPC   NC340115  40.801   5.058   5.555
 8607POPC   PO440116  40.789   5.113   5.855
 8607POPC   GL140117  40.786   5.085   6.155
 8607POPC   GL240118  40.888   5.092   6.155
 8607POPC   C1A40119  40.769   5.059   6.455
 8607POPC   D2A40120  40.795   5.138   6.755
 8607POPC   C3A40121  40.830   5.071   7.055
 8607POPC   C4A40122  40.811   5.051   7.355
 8607POPC   C1B40123  41.066   5.014   6.455
 8607POPC   C2B40124  41.025   4.996   6.755
 8607POPC   C3B40125  41.016   5.005   7.055
 8607POPC   C4B40126  41.007   5.030   7.355
 8608POPC   NC340127  12.845   5.067   5.555
 8608POPC   PO440128  12.802   5.105   5.855
 8608POPC   GL140129  12.877   5.120   6.155
 8608POPC   GL240130  12.970   5.167   6.155
 8608POPC   C1A40131  12.834   5.099   6.455
 8608POPC   D2A40132  12.825   5.094   6.755
 8608POPC   C3A40133  12.861   5.070   7.055
 8608POPC   C4A40134  12.886   5.072   7.355
 8608POPC   C1B40135  13.022   5.225   6.455
 8608POPC   C2B40136  13.041   5.280   6.755
 8608POPC   C3B40137  13.026   5.295   7.055
 8608POPC   C4B40138  13.081   5.271   7.355
 8609POPC   NC340139   0.442  15.945   5.555
 8609POPC   PO440140   0.459  15.952   5.855
 8609POPC   GL140141   0.444  15.937   6.155
 8609POPC   GL240142   0.324  15.934   6.155
 8609POPC   C1A40143   0.473  15.919   6.455
 8609POPC   D2A40144   0.485  15.962   6.755
 8609POPC   C3A40145   0.431  15.920   7.055
 8609POPC   C4A40146   0.460  15.944   7.355
 8609POPC   C1B40147   0.157  15.892   6.455
 8609POPC   C2B40148   0.238  15.883   6.755
 8609POPC   C3B40149   0.163  15.912   7.055
 8609POPC   C4B40150   0.237  15.930   7.355
 8610POPC   NC340151  33.015   2.034   5.555
 8610POPC   PO440152  33.047   1.944   5.855
 8610POPC   GL140153  33.067   1.944   6.155
 8610POPC   GL240154  32.900   2.086   6.155
 8610POPC   C1A40155  32.986   1.972   6.455
 8610POPC   D2A40156  33.023   1.973   6.755
 8610POPC   C3A40157  32.986   1.976   7.055
 8610POPC   C4A40158  33.055   1.976   7.355
 8610POPC   C1B40159  32.893   2.132   6.455
 8610POPC   C2B40160  32.853   2.143   6.755
 8610POPC   C3B40161  32.806   2.118   7.055
 8610POPC   C4B40162  32.823   2.124   7.355
 8611POPC   NC340163   5.899  23.666   5.555
 8611POPC   PO440164   5.908  23.696   5.855
 8611POPC   GL140165   5.872  23.736   6.155
 8611POPC   GL240166   5.728  23.616   6.155
 8611POPC   C1A40167   5.819  23.746   6.455
 8611POPC   D2A40168   5.881  23.721   6.755
 8611POPC   C3A40169   5.874  23.737   7.055
 8611POPC   C4A40170   5.881  23.757   7.355
 8611POPC   C1B40171   5.670  23.524   6.455
 8611POPC   C2B40172   5.672  23.571   6.755
 8611POPC   C3B40173   5.626  23.586   7.055
 8611POPC   C4B40174   5.652  23.609   7.355
 8612POPC   NC340175  44.704  43.108   5.555
 8612POPC   PO440176  44.678  43.081   5.855
 8612POPC   GL140177  44.690  43.112   6.155
 8612POPC   GL240178  44.732  43.035   6.155
 8612POPC   C1A40179  44.669  43.134   6.455
 8612POPC   D2A40180  44.694  43.148   6.755
 8612POPC   C3A40181  44.668  43.097   7.055
 8612POPC   C4A40182  44.672  43.084   7.355
 8612POPC   C1B40183  44.717  42.880   6.455
 8612POPC   C2B40184  44.748  42.929   6.755
 8612POPC   C3B40185  44.753  42.836   7.055
 8612POPC   C4B40186  44.722  42.856   7.355
 8613POPC   NC340187  19.069  34.542   5.555
 8613POPC   PO440188  19.070  34.526   5.855
 8613POPC   GL140189  19.096  34.547   6.155
 8613POPC   GL240190  19.073  34.493   6.155
 8613POPC   C1A40191  19.050  34.554   6.455
 8613POPC   D2A40192  19.033  34.579   6.755
 8613POPC   C3A40193  19.068  34.549   7.055
 8613POPC   C4A40194  19.052  34.580   7.355
 8613POPC   C1B40195  19.022  34.278   6.455
 8613POPC   C2B40196  19.101  34.320   6.755
 8613POPC   C3B40197  19.032  34.345   7.055
 8613POPC   C4B40198  19.082  34.336   7.355
 8614POPC   NC340199  41.528  37.698   5.555
 8614POPC   PO440200  41.598  37.718   5.855
 8614POPC   GL140201  41.543  37.694   6.155
 8614POPC   GL240202  41.726  37.638   6.155
 8614POPC   C1A40203  41.602  37.687   6.455
 8614POPC   D2A40204  41.540  37.639   6.755
 8614POPC   C3A40205  41.551  37.693   7.055
 8614POPC   C4A40206  41.509  37.708   7.355
 8614POPC   C1B40207  41.783  37.568   6.455
 8614POPC   C2B40208  41.758  37.572   6.755
 8614POPC   C3B40209  41.762  37.551   7.055
 8614POPC   C4B40210  41.828  37.618   7.355
 8615POPC   NC340211   5.842  22.957   5.555
 8615POPC   PO440212   5.916  22.939   5.855
 8615POPC   GL140213   5.844  22.947   6.155
 8615POPC   GL240214   5.991  22.865   6.155
 8615POPC   C1A40215   5.902  22.917   6.455
 8615POPC   D2A40216   5.829  22.914   6.755
 8615POPC   C3A40217   5.853  22.917   7.055
 8615POPC   C4A40218   5.872  22.956   7.355
 8615POPC   C1B40219   6.019  22.787   6.455
 8615POPC   C2B40220   6.095  22.762   6.755
 8615POPC   C3B40221   6.040  22.804   7.055
 8615POPC   C4B40222   6.081  22.818   7.355
 8616POPC   NC340223  21.417   8.965   5.555
 8616POPC   PO440224  21.339   8.986   5.855
 8616POPC   GL140225  21.373   8.965   6.155
 8616POPC   GL240226  21.268   9.018   6.155
 8616POPC   C1A40227  21.352   8.949   6.455
 8616POPC   D2A40228  21.386   8.973   6.755
 8616POPC   C3A40229  21.401   8.960   7.055
 8616POPC   C4A40230  21.393   8.962   7.355
 8616POPC   C1B40231  21.171   9.101   6.455
 8616POPC   C2B40232  21.122   9.044   6.755
 8616POPC   C3B40233  21.181   9.110   7.055
 8616POPC   C4B40234  21.169   9.042   7.355
 8617POPC   NC340235  33.805  33.787   5.555
 8617POPC   PO440236  33.797  33.826   5.855
 8617POPC   GL140237  33.817  33.769   6.155
 8617POPC   GL240238  33.931  33.861   6.155
 8617POPC   C1A40239  33.780  33.770   6.455
 8617POPC   D2A40240  33.779  33.830   6.755
 8617POPC   C3A40241  33.833  33.781   7.055
 8617POPC   C4A40242  33.765  33.835   7.355
 8617POPC   C1B40243  34.026  33.857   6.455
 8617POPC   C2B40244  34.067  33.840   6.755
 8617POPC   C3B40245  34.052  33.882   7.055
 8617POPC   C4B40246  34.009  33.895   7.355
 8618POPC   NC340247   9.009   0.434   5.555
 8618POPC   PO440248   8.974   0.430   5.855
 8618POPC   GL140249   9.008   0.443   6.155
 8618POPC   GL240250   9.112   0.370   6.155
 8618POPC   C1A40251   8.982   0.389   6.455
 8618POPC   D2A40252   8.949   0.399   6.755
 8618POPC   C3A40253   8.925   0.453   7.055
 8618POPC   C4A40254   9.007   0.482   7.355
 8618POPC   C1B40255   9.132   0.287   6.455
 8618POPC   C2B40256   9.212   0.280   6.755
 8618POPC   C3B40257   9.156   0.297   7.055
 8618POPC   C4B40258   9.206   0.259   7.355
 8619POPC   NC340259  22.942  37.693   5.555
 8619POPC   PO440260  22.960  37.697   5.855
 8619POPC   GL140261  22.946  37.642   6.155
 8619POPC   GL240262  22.873  37.608   6.155
 8619POPC   C1A40263  22.955  37.705   6.455
 8619POPC   D2A40264  22.891  37.649   6.755
 8619POPC   C3A40265  22.947  37.718   7.055
 8619POPC   C4A40266  22.987  37.727   7.355
 8619POPC   C1B40267  22.785  37.503   6.455
 8619POPC   C2B40268  22.865  37.429   6.755
 8619POPC   C3B40269  22.864  37.508   7.055
 8619POPC   C4B40270  22.783  37.505   7.355
 8620POPC   NC340271   5.895  11.268   5.555
 8620POPC   PO440272   5.910  11.276   5.855
 8620POPC   GL140273   5.837  11.316   6.155
 8620POPC   GL240274   5.874  11.383   6.155
 8620POPC   C1A40275   5.840  11.311   6.455
 8620POPC   D2A40276   5.861  11.254   6.755
 8620POPC   C3A40277   5.916  11.332   7.055
 8620POPC   C4A40278   5.888  11.250   7.355
 8620POPC   C1B40279   5.860  11.576   6.455
 8620POPC   C2B40280   5.865  11.507   6.755
 8620POPC   C3B40281   5.809  11.504   7.055
 8620POPC   C4B40282   5.832  11.521   7.355
 8621POPC   NC340283  33.025  11.324   5.555
 8621POPC   PO440284  32.982  11.253   5.855
 8621POPC   GL140285  33.028  11.330   6.155
 8621POPC   GL240286  32.881  11.176   6.155
 8621POPC   C1A40287  32.997  11.340   6.455
 8621POPC   D2A40288  32.996  11.289   6.755
 8621POPC   C3A40289  33.020  11.345   7.055
 8621POPC   C4A40290  33.025  11.336   7.355
 8621POPC   C1B40291  32.804  11.188   6.455
 8621POPC   C2B40292  32.865  11.092   6.755
 8621POPC   C3B40293  32.820  11.173   7.055
 8621POPC   C4B40294  32.807  11.149   7.355
 8622POPC   NC340295  24.531  26.768   5.555
 8622POPC   PO440296  24.495  26.825   5.855
 8622POPC   GL140297  24.507  26.775   6.155
 8622POPC   GL240298  24.627  26.817   6.155
 8622POPC   C1A40299  24.529  26.822   6.455
 8622POPC   D2A40300  24.445  26.783   6.755
 8622POPC   C3A40301  24.493  26.771   7.055
 8622POPC   C4A40302  24.452  26.774   7.355
 8622POPC   C1B40303  24.761  26.800   6.455
 8622POPC   C2B40304  24.712  26.816   6.755
 8622POPC   C3B40305  24.749  26.893   7.055
 8622POPC   C4B40306  24.767  26.796   7.355
 8623POPC   NC340307  26.774  14.360   5.555
 8623POPC   PO440308  26.782  14.441   5.855
 8623POPC   GL140309  26.846  14.383   6.155
 8623POPC   GL240310  26.664  14.315   6.155
 8623POPC   C1A40311  26.783  14.370   6.455
 8623POPC   D2A40312  26.852  14.375   6.755
 8623POPC   C3A40313  26.807  14.411   7.055
 8623POPC   C4A40314  26.788  14.363   7.355
 8623POPC   C1B40315  26.564  14.290   6.455
 8623POPC   C2B40316  26.624  14.278   6.755
 8623POPC   C3B40317  26.632  14.301   7.055
 8623POPC   C4B40318  26.634  14.262   7.355
 8624POPC   NC340319  28.357   1.247   5.555
 8624POPC   PO440320  28.342   1.256   5.855
 8624POPC   GL140321  28.400   1.235   6.155
 8624POPC   GL240322  28.446   1.137   6.155
 8624POPC   C1A40323  28.413   1.247   6.455
 8624POPC   D2A40324  28.414   1.230   6.755
 8624POPC   C3A40325  28.331   1.214   7.055
 8624POPC   C4A40326  28.374   1.186   7.355
 8624POPC   C1B40327  28.595   1.138   6.455
 8624POPC   C2B40328  28.588   1.084   6.755
 8624POPC   C3B40329  28.644   1.063   7.055
 8624POPC   C4B40330  28.562   1.144   7.355
 8625POPC   NC340331  43.114   9.751   5.555
 8625POPC   PO440332  43.136   9.777   5.855
 8625POPC   GL140333  43.107   9.782   6.155
 8625POPC   GL240334  43.069   9.661   6.155
 8625POPC   C1A40335  43.126   9.740   6.455
 8625POPC   D2A40336  43.141   9.726   6.755
 8625POPC   C3A40337  43.067   9.736   7.055
 8625POPC   C4A40338  43.137   9.783   7.355
 8625POPC   C1B40339  43.027   9.524   6.455
 8625POPC   C2B40340  43.073   9.473   6.755
 8625POPC   C3B40341  43.112   9.519   7.055
 8625POPC   C4B40342  43.085   9.532   7.355
 8626POPC   NC340343  41.564   1.243   5.555
 8626POPC   PO440344  41.510   1.248   5.855
 8626POPC   GL140345  41.518   1.253   6.155
 8626POPC   GL240346  41.574   1.297   6.155
 8626POPC   C1A40347  41.563   1.215   6.455
 8626POPC   D2A40348  41.538   1.192   6.755
 8626POPC   C3A40349  41.512   1.233   7.055
 8626POPC   C4A40350  41.589   1.253   7.355
 8626POPC   C1B40351  41.537   1.490   6.455
 8626POPC   C2B40352  41.493   1.451   6.755
 8626POPC   C3B40353  41.552   1.442   7.055
 8626POPC   C4B40354  41.552   1.488   7.355
 8627POPC   NC340355  26.860  32.981   5.555
 8627POPC   PO440356  26.799  32.997   5.855
 8627POPC   GL140357  26.823  33.058   6.155
 8627POPC   GL240358  26.959  32.935   6.155
 8627POPC   C1A40359  26.803  33.017   6.455
 8627POPC   D2A40360  26.784  33.011   6.755
 8627POPC   C3A40361  26.834  33.073   7.055
 8627POPC   C4A40362  26.768  33.018   7.355
 8627POPC   C1B40363  27.084  32.927   6.455
 8627POPC   C2B40364  27.034  32.928   6.755
 8627POPC   C3B40365  27.089  32.879   7.055
 8627POPC   C4B40366  27.024  32.928   7.355
 8628POPC   NC340367  14.446  33.032   5.555
 8628POPC   PO440368  14.407  32.991   5.855
 8628POPC   GL140369  14.390  33.041   6.155
 8628POPC   GL240370  14.404  32.930   6.155
 8628POPC   C1A40371  14.446  33.046   6.455
 8628POPC   D2A40372  14.430  33.029   6.755
 8628POPC   C3A40373  14.369  32.980   7.055
 8628POPC   C4A40374  14.415  33.015   7.355
 8628POPC   C1B40375  14.362  32.760   6.455
 8628POPC   C2B40376  14.368  32.739   6.755
 8628POPC   C3B40377  14.420  32.744   7.055
 8628POPC   C4B40378  14.395  32.727   7.355
 8629POPC   NC340379  38.468  17.525   5.555
 8629POPC   PO440380  38.438  17.465   5.855
 8629POPC   GL140381  38.429  17.466   6.155
 8629POPC   GL240382  38.395  17.399   6.155
 8629POPC   C1A40383  38.413  17.483   6.455
 8629POPC   D2A40384  38.427  17.504   6.755
 8629POPC   C3A40385  38.486  17.461   7.055
 8629POPC   C4A40386  38.456  17.502   7.355
 8629POPC   C1B40387  38.428  17.280   6.455
 8629POPC   C2B40388  38.411  17.293   6.755
 8629POPC   C3B40389  38.371  17.232   7.055
 8629POPC   C4B40390  38.441  17.226   7.355
 8630POPC   NC340391  32.255  41.608   5.555
 8630POPC   PO440392  32.201  41.578   5.855
 8630POPC   GL140393  32.270  41.568   6.155
 8630POPC   GL240394  32.139  41.622   6.155
 8630POPC   C1A40395  32.285  41.527   6.455
 8630POPC   D2A40396  32.271  41.581   6.755
 8630POPC   C3A40397  32.245  41.573   7.055
 8630POPC   C4A40398  32.200  41.603   7.355
 8630POPC   C1B40399  32.051  41.781   6.455
 8630POPC   C2B40400  32.065  41.777   6.755
 8630POPC   C3B40401  32.108  41.790   7.055
 8630POPC   C4B40402  32.071  41.735   7.355
 8631POPC   NC340403  33.824  34.539   5.555
 8631POPC   PO440404  33.768  34.562   5.855
 8631POPC   GL140405  33.788  34.588   6.155
 8631POPC   GL240406  33.673  34.717   6.155
 8631POPC   C1A40407  33.818  34.593   6.455
 8631POPC   D2A40408  33.764  34.529   6.755
 8631POPC   C3A40409  33.770  34.594   7.055
 8631POPC   C4A40410  33.824  34.532   7.355
 8631POPC   C1B40411  33.587  34.799   6.455
 8631POPC   C2B40412  33.656  34.751   6.755
 8631POPC   C3B40413  33.647  34.752   7.055
 8631POPC   C4B40414  33.583  34.746   7.355
 8632POPC   NC340415  19.882  10.554   5.555
 8632POPC   PO440416  19.807  10.491   5.855
 8632POPC   GL140417  19.815  10.505   6.155
 8632POPC   GL240418  19.770  10.578   6.155
 8632POPC   C1A40419  19.860  10.508   6.455
 8632POPC   D2A40420  19.846  10.516   6.755
 8632POPC   C3A40421  19.790  10.523   7.055
 8632POPC   C4A40422  19.840  10.567   7.355
 8632POPC   C1B40423  19.691  10.667   6.455
 8632POPC   C2B40424  19.710  10.753   6.755
 8632POPC   C3B40425  19.651  10.755   7.055
 8632POPC   C4B40426  19.650  10.722   7.355
 8633POPC   NC340427  20.629  15.184   5.555
 8633POPC   PO440428  20.590  15.139   5.855
 8633POPC   GL140429  20.630  15.186   6.155
 8633POPC   GL240430  20.631  15.043   6.155
 8633POPC   C1A40431  20.565  15.184   6.455
 8633POPC   D2A40432  20.611  15.227   6.755
 8633POPC   C3A40433  20.635  15.195   7.055
 8633POPC   C4A40434  20.641  15.213   7.355
 8633POPC   C1B40435  20.733  14.943   6.455
 8633POPC   C2B40436  20.696  14.994   6.755
 8633POPC   C3B40437  20.710  14.923   7.055
 8633POPC   C4B40438  20.726  14.933   7.355
 8634POPC   NC340439  42.301  24.464   5.555
 8634POPC   PO440440  42.318  24.496   5.855
 8634POPC   GL140441  42.363  24.460   6.155
 8634POPC   GL240442  42.193  24.407   6.155
 8634POPC   C1A40443  42.305  24.473   6.455
 8634POPC   D2A40444  42.312  24.503   6.755
 8634POPC   C3A40445  42.332  24.480   7.055
 8634POPC   C4A40446  42.366  24.529   7.355
 8634POPC   C1B40447  42.105  24.377   6.455
 8634POPC   C2B40448  42.065  24.436   6.755
 8634POPC   C3B40449  42.110  24.458   7.055
 8634POPC   C4B40450  42.125  24.364   7.355
 8635POPC   NC340451  26.045  21.430   5.555
 8635POPC   PO440452  26.038  21.369   5.855
 8635POPC   GL140453  26.052  21.376   6.155
 8635POPC   GL240454  26.055  21.252   6.155
 8635POPC   C1A40455  26.010  21.386   6.455
 8635POPC   D2A40456  26.090  21.425   6.755
 8635POPC   C3A40457  26.065  21.389   7.055
 8635POPC   C4A40458  26.082  21.364   7.355
 8635POPC   C1B40459  26.067  21.119   6.455
 8635POPC   C2B40460  26.076  21.189   6.755
 8635POPC   C3B40461  26.116  21.124   7.055
 8635POPC   C4B40462  26.071  21.127   7.355
 8636POPC   NC340463  34.615   5.095   5.555
 8636POPC   PO440464  34.568   5.132   5.855
 8636POPC   GL140465  34.616   5.082   6.155
 8636POPC   GL240466  34.661   5.194   6.155
 8636POPC   C1A40467  34.552   5.131   6.455
 8636POPC   D2A40468  34.612   5.136   6.755
 8636POPC   C3A40469  34.601   5.101   7.055
 8636POPC   C4A40470  34.537   5.119   7.355
 8636POPC   C1B40471  34.698   5.316   6.455
 8636POPC   C2B40472  34.789   5.234   6.755
 8636POPC   C3B40473  34.763   5.241   7.055
 8636POPC   C4B40474  34.783   5.239   7.355
 8637POPC   NC340475  19.097  23.730   5.555
 8637POPC   PO440476  19.087  23.674   5.855
 8637POPC   GL140477  19.026  23.760   6.155
 8637POPC   GL240478  19.061  23.814   6.155
 8637POPC   C1A40479  19.091  23.717   6.455
 8637POPC   D2A40480  19.070  23.751   6.755
 8637POPC   C3A40481  19.062  23.706   7.055
 8637POPC   C4A40482  19.009  23.685   7.355
 8637POPC   C1B40483  18.999  24.001   6.455
 8637POPC   C2B40484  18.999  24.007   6.755
 8637POPC   C3B40485  19.058  23.938   7.055
 8637POPC   C4B40486  19.060  23.974   7.355
 8638POPC   NC340487   8.162  33.814   5.555
 8638POPC   PO440488   8.197  33.846   5.855
 8638POPC   GL140489   8.179  33.832   6.155
 8638POPC   GL240490   8.116  33.671   6.155
 8638POPC   C1A40491   8.180  33.774   6.455
 8638POPC   D2A40492   8.208  33.757   6.755
 8638POPC   C3A40493   8.203  33.807   7.055
 8638POPC   C4A40494   8.210  33.823   7.355
 8638POPC   C1B40495   8.064  33.601   6.455
 8638POPC   C2B40496   8.021  33.624   6.755
 8638POPC   C3B40497   8.114  33.589   7.055
 8638POPC   C4B40498   8.102  33.623   7.355
 8639POPC   NC340499  26.775   8.167   5.555
 8639POPC   PO440500  26.788   8.186   5.855
 8639POPC   GL140501  26.795   8.233   6.155
 8639POPC   GL240502  26.709   8.245   6.155
 8639POPC   C1A40503  26.770   8.228   6.455
 8639POPC   D2A40504  26.772   8.190   6.755
 8639POPC   C3A40505  26.774   8.234   7.055
 8639POPC   C4A40506  26.858   8.172   7.355
 8639POPC   C1B40507  26.572   8.301   6.455
 8639POPC   C2B40508  26.572   8.263   6.755
 8639POPC   C3B40509  26.540   8.244   7.055
 8639POPC   C4B40510  26.625   8.292   7.355
 8640POPC   NC340511  43.885  44.615   5.555
 8640POPC   PO440512  43.922  44.627   5.855
 8640POPC   GL140513  43.923  44.684   6.155
 8640POPC   GL240514  44.010  44.653   6.155
 8640POPC   C1A40515  43.930  44.703   6.455
 8640POPC   D2A40516  43.883  44.684   6.755
 8640POPC   C3A40517  43.893  44.684   7.055
 8640POPC   C4A40518  43.868  44.650   7.355
 8640POPC   C1B40519  44.135  44.715   6.455
 8640POPC   C2B40520  44.136  44.742   6.755
 8640POPC   C3B40521  44.114  44.726   7.055
 8640POPC   C4B40522  44.174  44.656   7.355
 8641POPC   NC340523  14.441  15.965   5.555
 8641POPC   PO440524  14.426  15.973   5.855
 8641POPC   GL140525  14.414  15.927   6.155
 8641POPC   GL240526  14.440  16.114   6.155
 8641POPC   C1A40527  14.406  15.921   6.455
 8641POPC   D2A40528  14.448  15.993   6.755
 8641POPC   C3A40529  14.414  15.949   7.055
 8641POPC   C4A40530  14.372  15.992   7.355
 8641POPC   C1B40531  14.502  16.177   6.455
 8641POPC   C2B40532  14.468  16.202   6.755
 8641POPC   C3B40533  14.555  16.217   7.055
 8641POPC   C4B40534  14.481  16.143   7.355
 8642POPC   NC340535   9.777  20.608   5.555
 8642POPC   PO440536   9.708  20.605   5.855
 8642POPC   GL140537   9.790  20.565   6.155
 8642POPC   GL240538   9.600  20.691   6.155
 8642POPC   C1A40539   9.699  20.617   6.455
 8642POPC   D2A40540   9.759  20.614   6.755
 8642POPC   C3A40541   9.714  20.568   7.055
 8642POPC   C4A40542   9.707  20.648   7.355
 8642POPC   C1B40543   9.485  20.737   6.455
 8642POPC   C2B40544   9.498  20.697   6.755
 8642POPC   C3B40545   9.508  20.740   7.055
 8642POPC   C4B40546   9.498  20.697   7.355
 8643POPC   NC340547  34.546  15.931   5.555
 8643POPC   PO440548  34.620  15.941   5.855
 8643POPC   GL140549  34.541  15.913   6.155
 8643POPC   GL240550  34.611  15.803   6.155
 8643POPC   C1A40551  34.622  15.963   6.455
 8643POPC   D2A40552  34.601  15.991   6.755
 8643POPC   C3A40553  34.553  15.916   7.055
 8643POPC   C4A40554  34.577  15.906   7.355
 8643POPC   C1B40555  34.749  15.731   6.455
 8643POPC   C2B40556  34.731  15.713   6.755
 8643POPC   C3B40557  34.666  15.762   7.055
 8643POPC   C4B40558  34.714  15.699   7.355
 8644POPC   NC340559  36.946  17.471   5.555
 8644POPC   PO440560  36.914  17.538   5.855
 8644POPC   GL140561  36.879  17.517   6.155
 8644POPC   GL240562  36.990  17.635   6.155
 8644POPC   C1A40563  36.918  17.471   6.455
 8644POPC   D2A40564  36.942  17.533   6.755
 8644POPC   C3A40565  36.880  17.546   7.055
 8644POPC   C4A40566  36.897  17.533   7.355
 8644POPC   C1B40567  36.989  17.782   6.455
 8644POPC   C2B40568  37.029  17.782   6.755
 8644POPC   C3B40569  36.995  17.753   7.055
 8644POPC   C4B40570  36.991  17.765   7.355
 8645POPC   NC340571  41.589  36.177   5.555
 8645POPC   PO440572  41.588  36.168   5.855
 8645POPC   GL140573  41.567  36.104   6.155
 8645POPC   GL240574  41.494  36.212   6.155
 8645POPC   C1A40575  41.536  36.122   6.455
 8645POPC   D2A40576  41.566  36.088   6.755
 8645POPC   C3A40577  41.568  36.102   7.055
 8645POPC   C4A40578  41.579  36.143   7.355
 8645POPC   C1B40579  41.521  36.412   6.455
 8645POPC   C2B40580  41.484  36.373   6.755
 8645POPC   C3B40581  41.529  36.366   7.055
 8645POPC   C4B40582  41.522  36.358   7.355
 8646POPC   NC340583   3.509  44.632   5.555
 8646POPC   PO440584   3.493  44.709   5.855
 8646POPC   GL140585   3.492  44.656   6.155
 8646POPC   GL240586   3.377  44.717   6.155
 8646POPC   C1A40587   3.522  44.642   6.455
 8646POPC   D2A40588   3.510  44.678   6.755
 8646POPC   C3A40589   3.521  44.685   7.055
 8646POPC   C4A40590   3.586  44.656   7.355
 8646POPC   C1B40591   3.337  44.679   6.455
 8646POPC   C2B40592   3.346  44.712   6.755
 8646POPC   C3B40593   3.309  44.695   7.055
 8646POPC   C4B40594   3.322  44.723   7.355
 8647POPC   NC340595  19.827  26.861   5.555
 8647POPC   PO440596  19.818  26.809   5.855
 8647POPC   GL140597  19.876  26.816   6.155
 8647POPC   GL240598  19.748  26.921   6.155
 8647POPC   C1A40599  19.807  26.790   6.455
 8647POPC   D2A40600  19.864  26.795   6.755
 8647POPC   C3A40601  19.786  26.815   7.055
 8647POPC   C4A40602  19.810  26.810   7.355
 8647POPC   C1B40603  19.738  27.014   6.455
 8647POPC   C2B40604  19.740  27.045   6.755
 8647POPC   C3B40605  19.781  27.030   7.055
 8647POPC   C4B40606  19.732  27.052   7.355
 8648POPC   NC340607  24.500  21.410   5.555
 8648POPC   PO440608  24.535  21.398   5.855
 8648POPC   GL140609  24.532  21.372   6.155
 8648POPC   GL240610  24.613  21.323   6.155
 8648POPC   C1A40611  24.522  21.370   6.455
 8648POPC   D2A40612  24.534  21.432   6.755
 8648POPC   C3A40613  24.449  21.412   7.055
 8648POPC   C4A40614  24.533  21.436   7.355
 8648POPC   C1B40615  24.732  21.249   6.455
 8648POPC   C2B40616  24.725  21.230   6.755
 8648POPC   C3B40617  24.720  21.239   7.055
 8648POPC   C4B40618  24.716  21.218   7.355
 8649POPC   NC340619  36.165  12.039   5.555
 8649POPC   PO440620  36.101  12.053   5.855
 8649POPC   GL140621  36.148  12.084   6.155
 8649POPC   GL240622  36.038  12.132   6.155
 8649POPC   C1A40623  36.129  12.054   6.455
 8649POPC   D2A40624  36.094  12.040   6.755
 8649POPC   C3A40625  36.155  12.076   7.055
 8649POPC   C4A40626  36.105  12.070   7.355
 8649POPC   C1B40627  35.980  12.259   6.455
 8649POPC   C2B40628  35.918  12.205   6.755
 8649POPC   C3B40629  35.892  12.258   7.055
 8649POPC   C4B40630  35.983  12.249   7.355
 8650POPC   NC340631   1.204  12.076   5.555
 8650POPC   PO440632   1.165  12.063   5.855
 8650POPC   GL140633   1.212  12.047   6.155
 8650POPC   GL240634   1.289  12.135   6.155
 8650POPC   C1A40635   1.191  12.121   6.455
 8650POPC   D2A40636   1.182  12.042   6.755
 8650POPC   C3A40637   1.243  12.111   7.055
 8650POPC   C4A40638   1.200  12.043   7.355
 8650POPC   C1B40639   1.382  12.279   6.455
 8650POPC   C2B40640   1.375  12.221   6.755
 8650POPC   C3B40641   1.427  12.297   7.055
 8650POPC   C4B40642   1.339  12.231   7.355
 8651POPC   NC340643  38.431   2.796   5.555
 8651POPC   PO440644  38.479   2.739   5.855
 8651POPC   GL140645  38.426   2.808   6.155
 8651POPC   GL240646  38.555   2.859   6.155
 8651POPC   C1A40647  38.472   2.751   6.455
 8651POPC   D2A40648  38.416   2.732   6.755
 8651POPC   C3A40649  38.443   2.724   7.055
 8651POPC   C4A40650  38.495   2.782   7.355
 8651POPC   C1B40651  38.603   2.950   6.455
 8651POPC   C2B40652  38.627   2.877   6.755
 8651POPC   C3B40653  38.680   2.899   7.055
 8651POPC   C4B40654  38.611   2.944   7.355
 8652POPC   NC340655  13.627  18.319   5.555
 8652POPC   PO440656  13.603  18.292   5.855
 8652POPC   GL140657  13.668  18.265   6.155
 8652POPC   GL240658  13.474  18.306   6.155
 8652POPC   C1A40659  13.638  18.296   6.455
 8652POPC   D2A40660  13.661  18.327   6.755
 8652POPC   C3A40661  13.583  18.267   7.055
 8652POPC   C4A40662  13.599  18.331   7.355
 8652POPC   C1B40663  13.374  18.305   6.455
 8652POPC   C2B40664  13.328  18.308   6.755
 8652POPC   C3B40665  13.394  18.335   7.055
 8652POPC   C4B40666  13.387  18.308   7.355
 8653POPC   NC340667  27.587  19.832   5.555
 8653POPC   PO440668  27.625  19.864   5.855
 8653POPC   GL140669  27.562  19.801   6.155
 8653POPC   GL240670  27.727  19.892   6.155
 8653POPC   C1A40671  27.621  19.858   6.455
 8653POPC   D2A40672  27.610  19.856   6.755
 8653POPC   C3A40673  27.578  19.860   7.055
 8653POPC   C4A40674  27.575  19.828   7.355
 8653POPC   C1B40675  27.858  19.892   6.455
 8653POPC   C2B40676  27.776  19.896   6.755
 8653POPC   C3B40677  27.853  19.885   7.055
 8653POPC   C4B40678  27.831  19.930   7.355
 8654POPC   NC340679  20.592  22.891   5.555
 8654POPC   PO440680  20.604  22.984   5.855
 8654POPC   GL140681  20.572  22.949   6.155
 8654POPC   GL240682  20.563  22.784   6.155
 8654POPC   C1A40683  20.595  22.946   6.455
 8654POPC   D2A40684  20.607  22.984   6.755
 8654POPC   C3A40685  20.656  22.889   7.055
 8654POPC   C4A40686  20.656  22.953   7.355
 8654POPC   C1B40687  20.647  22.671   6.455
 8654POPC   C2B40688  20.655  22.688   6.755
 8654POPC   C3B40689  20.636  22.684   7.055
 8654POPC   C4B40690  20.617  22.680   7.355
 8655POPC   NC340691  17.492  26.002   5.555
 8655POPC   PO440692  17.540  26.052   5.855
 8655POPC   GL140693  17.479  26.085   6.155
 8655POPC   GL240694  17.405  26.108   6.155
 8655POPC   C1A40695  17.533  26.077   6.455
 8655POPC   D2A40696  17.474  25.996   6.755
 8655POPC   C3A40697  17.484  26.021   7.055
 8655POPC   C4A40698  17.539  26.031   7.355
 8655POPC   C1B40699  17.262  26.136   6.455
 8655POPC   C2B40700  17.291  26.093   6.755
 8655POPC   C3B40701  17.307  26.120   7.055
 8655POPC   C4B40702  17.273  26.121   7.355
 8656POPC   NC340703   8.993   9.769   5.555
 8656POPC   PO440704   8.948   9.753   5.855
 8656POPC   GL140705   8.946   9.709   6.155
 8656POPC   GL240706   8.923   9.808   6.155
 8656POPC   C1A40707   8.963   9.724   6.455
 8656POPC   D2A40708   8.990   9.775   6.755
 8656POPC   C3A40709   8.949   9.783   7.055
 8656POPC   C4A40710   8.979   9.728   7.355
 8656POPC   C1B40711   8.807   9.914   6.455
 8656POPC   C2B40712   8.831   9.949   6.755
 8656POPC   C3B40713   8.861   9.981   7.055
 8656POPC   C4B40714   8.856   9.921   7.355
 8657POPC   NC340715  37.663  25.229   5.555
 8657POPC   PO440716  37.725  25.313   5.855
 8657POPC   GL140717  37.672  25.278   6.155
 8657POPC   GL240718  37.693  25.378   6.155
 8657POPC   C1A40719  37.676  25.260   6.455
 8657POPC   D2A40720  37.637  25.230   6.755
 8657POPC   C3A40721  37.657  25.305   7.055
 8657POPC   C4A40722  37.642  25.231   7.355
 8657POPC   C1B40723  37.617  25.501   6.455
 8657POPC   C2B40724  37.630  25.475   6.755
 8657POPC   C3B40725  37.703  25.561   7.055
 8657POPC   C4B40726  37.647  25.481   7.355
 8658POPC   NC340727  39.220  26.797   5.555
 8658POPC   PO440728  39.250  26.823   5.855
 8658POPC   GL140729  39.257  26.801   6.155
 8658POPC   GL240730  39.073  26.866   6.155
 8658POPC   C1A40731  39.260  26.861   6.455
 8658POPC   D2A40732  39.191  26.845   6.755
 8658POPC   C3A40733  39.273  26.805   7.055
 8658POPC   C4A40734  39.266  26.839   7.355
 8658POPC   C1B40735  38.998  26.850   6.455
 8658POPC   C2B40736  38.998  26.810   6.755
 8658POPC   C3B40737  39.006  26.840   7.055
 8658POPC   C4B40738  39.027  26.829   7.355
 8659POPC   NC340739  26.791  22.128   5.555
 8659POPC   PO440740  26.849  22.124   5.855
 8659POPC   GL140741  26.835  22.211   6.155
 8659POPC   GL240742  26.858  22.005   6.155
 8659POPC   C1A40743  26.781  22.127   6.455
 8659POPC   D2A40744  26.775  22.113   6.755
 8659POPC   C3A40745  26.840  22.200   7.055
 8659POPC   C4A40746  26.782  22.159   7.355
 8659POPC   C1B40747  26.920  21.985   6.455
 8659POPC   C2B40748  26.910  21.961   6.755
 8659POPC   C3B40749  26.926  21.926   7.055
 8659POPC   C4B40750  26.914  21.914   7.355
 8660POPC   NC340751  41.597  33.073   5.555
 8660POPC   PO440752  41.526  33.017   5.855
 8660POPC   GL140753  41.586  33.035   6.155
 8660POPC   GL240754  41.722  33.119   6.155
 8660POPC   C1A40755  41.606  33.059   6.455
 8660POPC   D2A40756  41.604  33.031   6.755
 8660POPC   C3A40757  41.572  32.988   7.055
 8660POPC   C4A40758  41.581  33.059   7.355
 8660POPC   C1B40759  41.793  33.136   6.455
 8660POPC   C2B40760  41.806  33.104   6.755
 8660POPC   C3B40761  41.747  33.167   7.055
 8660POPC   C4B40762  41.751  33.176   7.355
 8661POPC   NC340763  41.598  18.252   5.555
 8661POPC   PO440764  41.589  18.265   5.855
 8661POPC   GL140765  41.546  18.271   6.155
 8661POPC   GL240766  41.612  18.356   6.155
 8661POPC   C1A40767  41.529  18.328   6.455
 8661POPC   D2A40768  41.531  18.237   6.755
 8661POPC   C3A40769  41.551  18.278   7.055
 8661POPC   C4A40770  41.581  18.256   7.355
 8661POPC   C1B40771  41.778  18.408   6.455
 8661POPC   C2B40772  41.809  18.399   6.755
 8661POPC   C3B40773  41.714  18.457   7.055
 8661POPC   C4B40774  41.789  18.432   7.355
 8662POPC   NC340775  26.773   2.721   5.555
 8662POPC   PO440776  26.861   2.753   5.855
 8662POPC   GL140777  26.844   2.779   6.155
 8662POPC   GL240778  26.913   2.709   6.155
 8662POPC   C1A40779  26.818   2.744   6.455
 8662POPC   D2A40780  26.852   2.753   6.755
 8662POPC   C3A40781  26.860   2.809   7.055
 8662POPC   C4A40782  26.827   2.764   7.355
 8662POPC   C1B40783  26.987   2.541   6.455
 8662POPC   C2B40784  26.949   2.594   6.755
 8662POPC   C3B40785  26.920   2.550   7.055
 8662POPC   C4B40786  27.007   2.608   7.355
 8663POPC   NC340787  19.100  37.659   5.555
 8663POPC   PO440788  19.012  37.648   5.855
 8663POPC   GL140789  19.108  37.687   6.155
 8663POPC   GL240790  19.176  37.600   6.155
 8663POPC   C1A40791  19.049  37.688   6.455
 8663POPC   D2A40792  19.072  37.640   6.755
 8663POPC   C3A40793  19.025  37.665   7.055
 8663POPC   C4A40794  19.106  37.714   7.355
 8663POPC   C1B40795  19.232  37.570   6.455
 8663POPC   C2B40796  19.310  37.588   6.755
 8663POPC   C3B40797  19.273  37.565   7.055
 8663POPC   C4B40798  19.248  37.550   7.355
 8664POPC   NC340799  24.465  10.540   5.555
 8664POPC   PO440800  24.538  10.532   5.855
 8664POPC   GL140801  24.440  10.508   6.155
 8664POPC   GL240802  24.361  10.420   6.155
 8664POPC   C1A40803  24.472  10.532   6.455
 8664POPC   D2A40804  24.502  10.495   6.755
 8664POPC   C3A40805  24.507  10.545   7.055
 8664POPC   C4A40806  24.476  10.524   7.355
 8664POPC   C1B40807  24.306  10.418   6.455
 8664POPC   C2B40808  24.282  10.370   6.755
 8664POPC   C3B40809  24.296  10.379   7.055
 8664POPC   C4B40810  24.234  10.383   7.355
 8665POPC   NC340811  36.878  13.675   5.555
 8665POPC   PO440812  36.883  13.640   5.855
 8665POPC   GL140813  36.856  13.663   6.155
 8665POPC   GL240814  36.853  13.767   6.155
 8665POPC   C1A40815  36.891  13.587   6.455
 8665POPC   D2A40816  36.885  13.582   6.755
 8665POPC   C3A40817  36.877  13.634   7.055
 8665POPC   C4A40818  36.856  13.676   7.355
 8665POPC   C1B40819  36.886  13.887   6.455
 8665POPC   C2B40820  36.927  13.913   6.755
 8665POPC   C3B40821  36.900  13.907   7.055
 8665POPC   C4B40822  36.904  13.876   7.355
 8666POPC   NC340823  15.929  21.403   5.555
 8666POPC   PO440824  15.924  21.339   5.855
 8666POPC   GL140825  15.997  21.355   6.155
 8666POPC   GL240826  15.918  21.487   6.155
 8666POPC   C1A40827  15.957  21.426   6.455
 8666POPC   D2A40828  15.953  21.357   6.755
 8666POPC   C3A40829  15.950  21.412   7.055
 8666POPC   C4A40830  15.956  21.399   7.355
 8666POPC   C1B40831  15.763  21.603   6.455
 8666POPC   C2B40832  15.762  21.612   6.755
 8666POPC   C3B40833  15.777  21.563   7.055
 8666POPC   C4B40834  15.832  21.547   7.355
 8667POPC   NC340835   9.776  25.295   5.555
 8667POPC   PO440836   9.752  25.257   5.855
 8667POPC   GL140837   9.774  25.255   6.155
 8667POPC   GL240838   9.796  25.166   6.155
 8667POPC   C1A40839   9.783  25.239   6.455
 8667POPC   D2A40840   9.768  25.286   6.755
 8667POPC   C3A40841   9.794  25.293   7.055
 8667POPC   C4A40842   9.743  25.218   7.355
 8667POPC   C1B40843   9.784  25.007   6.455
 8667POPC   C2B40844   9.768  25.026   6.755
 8667POPC   C3B40845   9.847  24.983   7.055
 8667POPC   C4B40846   9.843  25.017   7.355
 8668POPC   NC340847  38.462   3.552   5.555
 8668POPC   PO440848  38.484   3.582   5.855
 8668POPC   GL140849  38.492   3.544   6.155
 8668POPC   GL240850  38.495   3.387   6.155
 8668POPC   C1A40851  38.495   3.552   6.455
 8668POPC   D2A40852  38.432   3.591   6.755
 8668POPC   C3A40853  38.458   3.563   7.055
 8668POPC   C4A40854  38.406   3.563   7.355
 8668POPC   C1B40855  38.609   3.349   6.455
 8668POPC   C2B40856  38.573   3.351   6.755
 8668POPC   C3B40857  38.548   3.343   7.055
 8668POPC   C4B40858  38.550   3.298   7.355
 8669POPC   NC340859  24.498  22.918   5.555
 8669POPC   PO440860  24.440  22.948   5.855
 8669POPC   GL140861  24.463  22.979   6.155
 8669POPC   GL240862  24.501  23.023   6.155
 8669POPC   C1A40863  24.466  22.983   6.455
 8669POPC   D2A40864  24.503  22.977   6.755
 8669POPC   C3A40865  24.478  22.902   7.055
 8669POPC   C4A40866  24.491  22.894   7.355
 8669POPC   C1B40867  24.551  23.236   6.455
 8669POPC   C2B40868  24.474  23.209   6.755
 8669POPC   C3B40869  24.538  23.226   7.055
 8669POPC   C4B40870  24.530  23.236   7.355
 8670POPC   NC340871  39.967  40.011   5.555
 8670POPC   PO440872  40.004  39.999   5.855
 8670POPC   GL140873  40.004  40.051   6.155
 8670POPC   GL240874  40.036  39.854   6.155
 8670POPC   C1A40875  40.019  40.020   6.455
 8670POPC   D2A40876  40.056  40.043   6.755
 8670POPC   C3A40877  40.023  40.024   7.055
 8670POPC   C4A40878  40.031  40.006   7.355
 8670POPC   C1B40879  40.082  39.828   6.455
 8670POPC   C2B40880  40.124  39.783   6.755
 8670POPC   C3B40881  40.085  39.759   7.055
 8670POPC   C4B40882  40.091  39.802   7.355
 8671POPC   NC340883   8.929  41.538   5.555
 8671POPC   PO440884   8.970  41.550   5.855
 8671POPC   GL140885   8.928  41.532   6.155
 8671POPC   GL240886   9.076  41.500   6.155
 8671POPC   C1A40887   8.953  41.570   6.455
 8671POPC   D2A40888   8.997  41.568   6.755
 8671POPC   C3A40889   8.983  41.515   7.055
 8671POPC   C4A40890   8.967  41.558   7.355
 8671POPC   C1B40891   9.136  41.332   6.455
 8671POPC   C2B40892   9.129  41.379   6.755
 8671POPC   C3B40893   9.148  41.413   7.055
 8671POPC   C4B40894   9.114  41.371   7.355
 8672POPC   NC340895  33.021  37.725   5.555
 8672POPC   PO440896  33.038  37.667   5.855
 8672POPC   GL140897  33.021  37.727   6.155
 8672POPC   GL240898  32.873  37.672   6.155
 8672POPC   C1A40899  33.061  37.716   6.455
 8672POPC   D2A40900  33.013  37.632   6.755
 8672POPC   C3A40901  33.055  37.699   7.055
 8672POPC   C4A40902  32.987  37.665   7.355
 8672POPC   C1B40903  32.744  37.592   6.455
 8672POPC   C2B40904  32.836  37.598   6.755
 8672POPC   C3B40905  32.810  37.630   7.055
 8672POPC   C4B40906  32.751  37.558   7.355
 8673POPC   NC340907  22.166  21.366   5.555
 8673POPC   PO440908  22.179  21.418   5.855
 8673POPC   GL140909  22.123  21.371   6.155
 8673POPC   GL240910  22.001  21.337   6.155
 8673POPC   C1A40911  22.121  21.367   6.455
 8673POPC   D2A40912  22.208  21.370   6.755
 8673POPC   C3A40913  22.140  21.392   7.055
 8673POPC   C4A40914  22.159  21.381   7.355
 8673POPC   C1B40915  21.918  21.384   6.455
 8673POPC   C2B40916  21.888  21.374   6.755
 8673POPC   C3B40917  21.892  21.349   7.055
 8673POPC   C4B40918  21.896  21.353   7.355
 8674POPC   NC340919  22.135   8.952   5.555
 8674POPC   PO440920  22.186   9.005   5.855
 8674POPC   GL140921  22.210   9.000   6.155
 8674POPC   GL240922  22.060   8.985   6.155
 8674POPC   C1A40923  22.187   9.010   6.455
 8674POPC   D2A40924  22.133   8.951   6.755
 8674POPC   C3A40925  22.212   9.018   7.055
 8674POPC   C4A40926  22.133   8.987   7.355
 8674POPC   C1B40927  21.949   9.105   6.455
 8674POPC   C2B40928  21.919   9.052   6.755
 8674POPC   C3B40929  21.966   9.105   7.055
 8674POPC   C4B40930  21.929   9.024   7.355
 8675POPC   NC340931  43.134  37.681   5.555
 8675POPC   PO440932  43.136  37.687   5.855
 8675POPC   GL140933  43.077  37.640   6.155
 8675POPC   GL240934  43.217  37.555   6.155
 8675POPC   C1A40935  43.101  37.718   6.455
 8675POPC   D2A40936  43.144  37.678   6.755
 8675POPC   C3A40937  43.158  37.673   7.055
 8675POPC   C4A40938  43.139  37.690   7.355
 8675POPC   C1B40939  43.221  37.472   6.455
 8675POPC   C2B40940  43.269  37.457   6.755
 8675POPC   C3B40941  43.204  37.437   7.055
 8675POPC   C4B40942  43.245  37.450   7.355
 8676POPC   NC340943  17.463  41.556   5.555
 8676POPC   PO440944  17.471  41.555   5.855
 8676POPC   GL140945  17.500  41.565   6.155
 8676POPC   GL240946  17.435  41.444   6.155
 8676POPC   C1A40947  17.517  41.556   6.455
 8676POPC   D2A40948  17.511  41.540   6.755
 8676POPC   C3A40949  17.478  41.520   7.055
 8676POPC   C4A40950  17.520  41.528   7.355
 8676POPC   C1B40951  17.356  41.379   6.455
 8676POPC   C2B40952  17.315  41.381   6.755
 8676POPC   C3B40953  17.314  41.372   7.055
 8676POPC   C4B40954  17.347  41.432   7.355
 8677POPC   NC340955  31.452  41.548   5.555
 8677POPC   PO440956  31.517  41.533   5.855
 8677POPC   GL140957  31.460  41.512   6.155
 8677POPC   GL240958  31.539  41.636   6.155
 8677POPC   C1A40959  31.453  41.529   6.455
 8677POPC   D2A40960  31.441  41.568   6.755
 8677POPC   C3A40961  31.463  41.607   7.055
 8677POPC   C4A40962  31.490  41.590   7.355
 8677POPC   C1B40963  31.606  41.745   6.455
 8677POPC   C2B40964  31.690  41.781   6.755
 8677POPC   C3B40965  31.639  41.742   7.055
 8677POPC   C4B40966  31.692  41.715   7.355
 8678POPC   NC340967  36.883  15.199   5.555
 8678POPC   PO440968  36.947  15.170   5.855
 8678POPC   GL140969  36.861  15.191   6.155
 8678POPC   GL240970  37.024  15.135   6.155
 8678POPC   C1A40971  36.922  15.185   6.455
 8678POPC   D2A40972  36.953  15.146   6.755
 8678POPC   C3A40973  36.910  15.198   7.055
 8678POPC   C4A40974  36.924  15.227   7.355
 8678POPC   C1B40975  37.107  15.136   6.455
 8678POPC   C2B40976  37.130  15.140   6.755
 8678POPC   C3B40977  37.149  15.126   7.055
 8678POPC   C4B40978  37.112  15.090   7.355
 8679POPC   NC340979  39.194  41.519   5.555
 8679POPC   PO440980  39.257  41.552   5.855
 8679POPC   GL140981  39.192  41.602   6.155
 8679POPC   GL240982  39.101  41.456   6.155
 8679POPC   C1A40983  39.269  41.518   6.455
 8679POPC   D2A40984  39.207  41.514   6.755
 8679POPC   C3A40985  39.201  41.591   7.055
 8679POPC   C4A40986  39.240  41.557   7.355
 8679POPC   C1B40987  39.099  41.340   6.455
 8679POPC   C2B40988  39.020  41.372   6.755
 8679POPC   C3B40989  39.049  41.421   7.055
 8679POPC   C4B40990  39.100  41.387   7.355
 8680POPC   NC340991  26.080   9.757   5.555
 8680POPC   PO440992  26.091   9.768   5.855
 8680POPC   GL140993  25.997   9.726   6.155
 8680POPC   GL240994  26.074   9.863   6.155
 8680POPC   C1A40995  26.059   9.793   6.455
 8680POPC   D2A40996  26.043   9.744   6.755
 8680POPC   C3A40997  26.026   9.709   7.055
 8680POPC   C4A40998  26.042   9.780   7.355
 8680POPC   C1B40999  26.032   9.949   6.455
 8680POPC   C2B41000  26.035  10.002   6.755
 8680POPC   C3B41001  25.989  10.000   7.055
 8680POPC   C4B41002  26.031   9.982   7.355
 8681POPC   NC341003  25.250  28.332   5.555
 8681POPC   PO441004  25.286  28.346   5.855
 8681POPC   GL141005  25.264  28.373   6.155
 8681POPC   GL241006  25.167  28.450   6.155
 8681POPC   C1A41007  25.229  28.401   6.455
 8681POPC   D2A41008  25.273  28.410   6.755
 8681POPC   C3A41009  25.272  28.402   7.055
 8681POPC   C4A41010  25.242  28.356   7.355
 8681POPC   C1B41011  25.100  28.567   6.455
 8681POPC   C2B41012  25.055  28.590   6.755
 8681POPC   C3B41013  25.114  28.583   7.055
 8681POPC   C4B41014  25.054  28.577   7.355
 8682POPC   NC341015  22.113  23.670   5.555
 8682POPC   PO441016  22.159  23.729   5.855
 8682POPC   GL141017  22.131  23.714   6.155
 8682POPC   GL241018  22.307  23.618   6.155
 8682POPC   C1A41019  22.191  23.690   6.455
 8682POPC   D2A41020  22.121  23.750   6.755
 8682POPC   C3A41021  22.123  23.686   7.055
 8682POPC   C4A41022  22.211  23.703   7.355
 8682POPC   C1B41023  22.443  23.574   6.455
 8682POPC   C2B41024  22.408  23.632   6.755
 8682POPC   C3B41025  22.393  23.598   7.055
 8682POPC   C4B41026  22.398  23.666   7.355
 8683POPC   NC341027   9.720  37.644   5.555
 8683POPC   PO441028   9.767  37.699   5.855
 8683POPC   GL141029   9.780  37.718   6.155
 8683POPC   GL241030   9.806  37.768   6.155
 8683POPC   C1A41031   9.750  37.723   6.455
 8683POPC   D2A41032   9.755  37.693   6.755
 8683POPC   C3A41033   9.762  37.640   7.055
 8683POPC   C4A41034   9.759  37.673   7.355
 8683POPC   C1B41035   9.845  37.874   6.455
 8683POPC   C2B41036   9.817  37.900   6.755
 8683POPC   C3B41037   9.897  37.873   7.055
 8683POPC   C4B41038   9.839  37.888   7.355
 8684POPC   NC341039  19.022   8.202   5.555
 8684POPC   PO441040  19.066   8.198   5.855
 8684POPC   GL141041  19.038   8.161   6.155
 8684POPC   GL241042  19.127   8.083   6.155
 8684POPC   C1A41043  19.075   8.190   6.455
 8684POPC   D2A41044  19.057   8.167   6.755
 8684POPC   C3A41045  19.053   8.225   7.055
 8684POPC   C4A41046  19.030   8.190   7.355
 8684POPC   C1B41047  19.295   8.069   6.455
 8684POPC   C2B41048  19.302   8.004   6.755
 8684POPC   C3B41049  19.286   8.008   7.055
 8684POPC   C4B41050  19.245   8.074   7.355
 8685POPC   NC341051   9.785  11.307   5.555
 8685POPC   PO441052   9.779  11.250   5.855
 8685POPC   GL141053   9.710  11.300   6.155
 8685POPC   GL241054   9.611  11.402   6.155
 8685POPC   C1A41055   9.707  11.338   6.455
 8685POPC   D2A41056   9.718  11.321   6.755
 8685POPC   C3A41057   9.705  11.289   7.055
 8685POPC   C4A41058   9.754  11.286   7.355
 8685POPC   C1B41059   9.601  11.439   6.455
 8685POPC   C2B41060   9.607  11.441   6.755
 8685POPC   C3B41061   9.535  11.520   7.055
 8685POPC   C4B41062   9.532  11.467   7.355
 8686POPC   NC341063  22.170  18.251   5.555
 8686POPC   PO441064  22.171  18.330   5.855
 8686POPC   GL141065  22.158  18.254   6.155
 8686POPC   GL241066  22.304  18.237   6.155
 8686POPC   C1A41067  22.157  18.328   6.455
 8686POPC   D2A41068  22.128  18.247   6.755
 8686POPC   C3A41069  22.176  18.293   7.055
 8686POPC   C4A41070  22.129  18.296   7.355
 8686POPC   C1B41071  22.377  18.224   6.455
 8686POPC   C2B41072  22.375  18.294   6.755
 8686POPC   C3B41073  22.442  18.308   7.055
 8686POPC   C4B41074  22.387  18.274   7.355
 8687POPC   NC341075  12.820  40.782   5.555
 8687POPC   PO441076  12.898  40.826   5.855
 8687POPC   GL141077  12.901  40.791   6.155
 8687POPC   GL241078  12.744  40.751   6.155
 8687POPC   C1A41079  12.804  40.819   6.455
 8687POPC   D2A41080  12.874  40.788   6.755
 8687POPC   C3A41081  12.811  40.817   7.055
 8687POPC   C4A41082  12.840  40.807   7.355
 8687POPC   C1B41083  12.676  40.627   6.455
 8687POPC   C2B41084  12.678  40.654   6.755
 8687POPC   C3B41085  12.640  40.620   7.055
 8687POPC   C4B41086  12.658  40.650   7.355
 8688POPC   NC341087   1.941  26.819   5.555
 8688POPC   PO441088   2.035  26.857   5.855
 8688POPC   GL141089   1.956  26.830   6.155
 8688POPC   GL241090   2.124  26.701   6.155
 8688POPC   C1A41091   2.021  26.855   6.455
 8688POPC   D2A41092   2.002  26.777   6.755
 8688POPC   C3A41093   1.982  26.804   7.055
 8688POPC   C4A41094   1.992  26.846   7.355
 8688POPC   C1B41095   2.208  26.649   6.455
 8688POPC   C2B41096   2.150  26.663   6.755
 8688POPC   C3B41097   2.150  26.716   7.055
 8688POPC   C4B41098   2.169  26.668   7.355
 8689POPC   NC341099  21.394  26.822   5.555
 8689POPC   PO441100  21.380  26.777   5.855
 8689POPC   GL141101  21.403  26.833   6.155
 8689POPC   GL241102  21.536  26.782   6.155
 8689POPC   C1A41103  21.366  26.849   6.455
 8689POPC   D2A41104  21.420  26.796   6.755
 8689POPC   C3A41105  21.362  26.841   7.055
 8689POPC   C4A41106  21.372  26.866   7.355
 8689POPC   C1B41107  21.613  26.704   6.455
 8689POPC   C2B41108  21.600  26.664   6.755
 8689POPC   C3B41109  21.584  26.712   7.055
 8689POPC   C4B41110  21.583  26.737   7.355
 8690POPC   NC341111  42.299  36.940   5.555
 8690POPC   PO441112  42.343  36.929   5.855
 8690POPC   GL141113  42.290  36.935   6.155
 8690POPC   GL241114  42.260  36.805   6.155
 8690POPC   C1A41115  42.344  36.941   6.455
 8690POPC   D2A41116  42.316  36.913   6.755
 8690POPC   C3A41117  42.326  36.857   7.055
 8690POPC   C4A41118  42.331  36.915   7.355
 8690POPC   C1B41119  42.195  36.687   6.455
 8690POPC   C2B41120  42.191  36.718   6.755
 8690POPC   C3B41121  42.254  36.678   7.055
 8690POPC   C4B41122  42.161  36.693   7.355
 8691POPC   NC341123  25.224   9.794   5.555
 8691POPC   PO441124  25.220   9.700   5.855
 8691POPC   GL141125  25.308   9.746   6.155
 8691POPC   GL241126  25.381   9.785   6.155
 8691POPC   C1A41127  25.314   9.750   6.455
 8691POPC   D2A41128  25.315   9.760   6.755
 8691POPC   C3A41129  25.263   9.786   7.055
 8691POPC   C4A41130  25.307   9.761   7.355
 8691POPC   C1B41131  25.478   9.794   6.455
 8691POPC   C2B41132  25.481   9.801   6.755
 8691POPC   C3B41133  25.456   9.862   7.055
 8691POPC   C4B41134  25.455   9.870   7.355
 8692POPC   NC341135  12.852  15.216   5.555
 8692POPC   PO441136  12.847  15.150   5.855
 8692POPC   GL141137  12.858  15.217   6.155
 8692POPC   GL241138  12.928  15.026   6.155
 8692POPC   C1A41139  12.865  15.174   6.455
 8692POPC   D2A41140  12.842  15.194   6.755
 8692POPC   C3A41141  12.849  15.201   7.055
 8692POPC   C4A41142  12.847  15.226   7.355
 8692POPC   C1B41143  12.986  14.955   6.455
 8692POPC   C2B41144  12.932  14.988   6.755
 8692POPC   C3B41145  12.949  14.914   7.055
 8692POPC   C4B41146  13.018  14.927   7.355
 8693POPC   NC341147   9.708   4.296   5.555
 8693POPC   PO441148   9.765   4.316   5.855
 8693POPC   GL141149   9.750   4.340   6.155
 8693POPC   GL241150   9.777   4.432   6.155
 8693POPC   C1A41151   9.757   4.310   6.455
 8693POPC   D2A41152   9.783   4.353   6.755
 8693POPC   C3A41153   9.771   4.322   7.055
 8693POPC   C4A41154   9.737   4.276   7.355
 8693POPC   C1B41155   9.910   4.565   6.455
 8693POPC   C2B41156   9.910   4.557   6.755
 8693POPC   C3B41157   9.922   4.540   7.055
 8693POPC   C4B41158   9.923   4.563   7.355
 8694POPC   NC341159  24.451  22.122   5.555
 8694POPC   PO441160  24.467  22.163   5.855
 8694POPC   GL141161  24.473  22.171   6.155
 8694POPC   GL241162  24.439  22.067   6.155
 8694POPC   C1A41163  24.533  22.140   6.455
 8694POPC   D2A41164  24.531  22.185   6.755
 8694POPC   C3A41165  24.447  22.113   7.055
 8694POPC   C4A41166  24.455  22.200   7.355
 8694POPC   C1B41167  24.385  21.975   6.455
 8694POPC   C2B41168  24.383  21.978   6.755
 8694POPC   C3B41169  24.339  21.944   7.055
 8694POPC   C4B41170  24.341  21.993   7.355
 8695POPC   NC341171  26.823  34.602   5.555
 8695POPC   PO441172  26.841  34.529   5.855
 8695POPC   GL141173  26.781  34.593   6.155
 8695POPC   GL241174  26.772  34.514   6.155
 8695POPC   C1A41175  26.778  34.575   6.455
 8695POPC   D2A41176  26.790  34.622   6.755
 8695POPC   C3A41177  26.785  34.529   7.055
 8695POPC   C4A41178  26.772  34.533   7.355
 8695POPC   C1B41179  26.673  34.392   6.455
 8695POPC   C2B41180  26.693  34.386   6.755
 8695POPC   C3B41181  26.697  34.364   7.055
 8695POPC   C4B41182  26.649  34.355   7.355
 8696POPC   NC341183  10.486   8.964   5.555
 8696POPC   PO441184  10.569   8.938   5.855
 8696POPC   GL141185  10.552   8.999   6.155
 8696POPC   GL241186  10.642   9.024   6.155
 8696POPC   C1A41187  10.547   8.924   6.455
 8696POPC   D2A41188  10.564   8.984   6.755
 8696POPC   C3A41189  10.497   8.959   7.055
 8696POPC   C4A41190  10.518   8.956   7.355
 8696POPC   C1B41191  10.648   9.174   6.455
 8696POPC   C2B41192  10.706   9.127   6.755
 8696POPC   C3B41193  10.740   9.153   7.055
 8696POPC   C4B41194  10.702   9.170   7.355
 8697POPC   NC341195  31.461  34.615   5.555
 8697POPC   PO441196  31.504  34.624   5.855
 8697POPC   GL141197  31.455  34.571   6.155
 8697POPC   GL241198  31.373  34.711   6.155
 8697POPC   C1A41199  31.424  34.622   6.455
 8697POPC   D2A41200  31.505  34.564   6.755
 8697POPC   C3A41201  31.441  34.580   7.055
 8697POPC   C4A41202  31.505  34.538   7.355
 8697POPC   C1B41203  31.377  34.823   6.455
 8697POPC   C2B41204  31.310  34.833   6.755
 8697POPC   C3B41205  31.376  34.784   7.055
 8697POPC   C4B41206  31.342  34.813   7.355
 8698POPC   NC341207   2.795  44.703   5.555
 8698POPC   PO441208   2.719  44.691   5.855
 8698POPC   GL141209   2.792  44.677   6.155
 8698POPC   GL241210   2.862  44.623   6.155
 8698POPC   C1A41211   2.748  44.661   6.455
 8698POPC   D2A41212   2.722  44.641   6.755
 8698POPC   C3A41213   2.725  44.672   7.055
 8698POPC   C4A41214   2.796  44.665   7.355
 8698POPC   C1B41215   3.050  44.596   6.455
 8698POPC   C2B41216   3.001  44.585   6.755
 8698POPC   C3B41217   3.046  44.602   7.055
 8698POPC   C4B41218   3.019  44.607   7.355
 8699POPC   NC341219  10.543   1.222   5.555
 8699POPC   PO441220  10.524   1.182   5.855
 8699POPC   GL141221  10.512   1.177   6.155
 8699POPC   GL241222  10.640   1.269   6.155
 8699POPC   C1A41223  10.556   1.185   6.455
 8699POPC   D2A41224  10.534   1.203   6.755
 8699POPC   C3A41225  10.556   1.243   7.055
 8699POPC   C4A41226  10.508   1.224   7.355
 8699POPC   C1B41227  10.784   1.283   6.455
 8699POPC   C2B41228  10.775   1.235   6.755
 8699POPC   C3B41229  10.776   1.230   7.055
 8699POPC   C4B41230  10.744   1.196   7.355
 8700POPC   NC341231  38.431  32.212   5.555
 8700POPC   PO441232  38.421  32.221   5.855
 8700POPC   GL141233  38.441  32.298   6.155
 8700POPC   GL241234  38.356  32.279   6.155
 8700POPC   C1A41235  38.503  32.296   6.455
 8700POPC   D2A41236  38.411  32.228   6.755
 8700POPC   C3A41237  38.479  32.222   7.055
 8700POPC   C4A41238  38.464  32.228   7.355
 8700POPC   C1B41239  38.284  32.427   6.455
 8700POPC   C2B41240  38.277  32.414   6.755
 8700POPC   C3B41241  38.251  32.407   7.055
 8700POPC   C4B41242  38.292  32.344   7.355
 8701POPC   NC341243  39.189  12.116   5.555
 8701POPC   PO441244  39.229  12.118   5.855
 8701POPC   GL141245  39.249  12.124   6.155
 8701POPC   GL241246  39.284  12.001   6.155
 8701POPC   C1A41247  39.191  12.119   6.455
 8701POPC   D2A41248  39.279  12.038   6.755
 8701POPC   C3A41249  39.281  12.101   7.055
 8701POPC   C4A41250  39.190  12.122   7.355
 8701POPC   C1B41251  39.314  11.846   6.455
 8701POPC   C2B41252  39.299  11.873   6.755
 8701POPC   C3B41253  39.320  11.808   7.055
 8701POPC   C4B41254  39.346  11.805   7.355
 8702POPC   NC341255  36.124   8.929   5.555
 8702POPC   PO441256  36.161   8.984   5.855
 8702POPC   GL141257  36.080   8.955   6.155
 8702POPC   GL241258  36.068   8.878   6.155
 8702POPC   C1A41259  36.093   8.963   6.455
 8702POPC   D2A41260  36.099   9.019   6.755
 8702POPC   C3A41261  36.175   8.999   7.055
 8702POPC   C4A41262  36.142   9.000   7.355
 8702POPC   C1B41263  36.056   8.729   6.455
 8702POPC   C2B41264  36.063   8.767   6.755
 8702POPC   C3B41265  36.042   8.774   7.055
 8702POPC   C4B41266  36.066   8.717   7.355
 8703POPC   NC341267   2.011  11.335   5.555
 8703POPC   PO441268   1.968  11.311   5.855
 8703POPC   GL141269   1.972  11.283   6.155
 8703POPC   GL241270   1.930  11.328   6.155
 8703POPC   C1A41271   1.964  11.263   6.455
 8703POPC   D2A41272   1.995  11.290   6.755
 8703POPC   C3A41273   2.029  11.298   7.055
 8703POPC   C4A41274   1.943  11.292   7.355
 8703POPC   C1B41275   1.814  11.478   6.455
 8703POPC   C2B41276   1.806  11.477   6.755
 8703POPC   C3B41277   1.791  11.481   7.055
 8703POPC   C4B41278   1.791  11.499   7.355
 8704POPC   NC341279   5.832  15.920   5.555
 8704POPC   PO441280   5.849  15.916   5.855
 8704POPC   GL141281   5.866  15.959   6.155
 8704POPC   GL241282   5.780  15.816   6.155
 8704POPC   C1A41283   5.839  15.907   6.455
 8704POPC   D2A41284   5.917  15.910   6.755
 8704POPC   C3A41285   5.890  15.969   7.055
 8704POPC   C4A41286   5.901  15.963   7.355
 8704POPC   C1B41287   5.670  15.779   6.455
 8704POPC   C2B41288   5.673  15.754   6.755
 8704POPC   C3B41289   5.707  15.771   7.055
 8704POPC   C4B41290   5.699  15.757   7.355
 8705POPC   NC341291  14.416   2.733   5.555
 8705POPC   PO441292  14.445   2.804   5.855
 8705POPC   GL141293  14.419   2.746   6.155
 8705POPC   GL241294  14.328   2.702   6.155
 8705POPC   C1A41295  14.395   2.772   6.455
 8705POPC   D2A41296  14.447   2.718   6.755
 8705POPC   C3A41297  14.440   2.746   7.055
 8705POPC   C4A41298  14.384   2.723   7.355
 8705POPC   C1B41299  14.213   2.612   6.455
 8705POPC   C2B41300  14.185   2.639   6.755
 8705POPC   C3B41301  14.176   2.631   7.055
 8705POPC   C4B41302  14.190   2.591   7.355
 8706POPC   NC341303   2.021   6.656   5.555
 8706POPC   PO441304   2.039   6.675   5.855
 8706POPC   GL141305   1.944   6.654   6.155
 8706POPC   GL241306   1.999   6.715   6.155
 8706POPC   C1A41307   2.014   6.668   6.455
 8706POPC   D2A41308   1.986   6.608   6.755
 8706POPC   C3A41309   1.949   6.631   7.055
 8706POPC   C4A41310   1.971   6.637   7.355
 8706POPC   C1B41311   2.036   6.904   6.455
 8706POPC   C2B41312   2.084   6.930   6.755
 8706POPC   C3B41313   2.121   6.901   7.055
 8706POPC   C4B41314   2.118   6.838   7.355
 8707POPC   NC341315  13.581   2.733   5.555
 8707POPC   PO441316  13.659   2.730   5.855
 8707POPC   GL141317  13.670   2.755   6.155
 8707POPC   GL241318  13.632   2.678   6.155
 8707POPC   C1A41319  13.656   2.786   6.455
 8707POPC   D2A41320  13.651   2.798   6.755
 8707POPC   C3A41321  13.626   2.720   7.055
 8707POPC   C4A41322  13.666   2.732   7.355
 8707POPC   C1B41323  13.701   2.514   6.455
 8707POPC   C2B41324  13.708   2.565   6.755
 8707POPC   C3B41325  13.727   2.570   7.055
 8707POPC   C4B41326  13.696   2.514   7.355
 8708POPC   NC341327  39.193   1.214   5.555
 8708POPC   PO441328  39.183   1.211   5.855
 8708POPC   GL141329  39.206   1.225   6.155
 8708POPC   GL241330  39.343   1.225   6.155
 8708POPC   C1A41331  39.181   1.242   6.455
 8708POPC   D2A41332  39.196   1.166   6.755
 8708POPC   C3A41333  39.220   1.248   7.055
 8708POPC   C4A41334  39.215   1.226   7.355
 8708POPC   C1B41335  39.436   1.160   6.455
 8708POPC   C2B41336  39.498   1.191   6.755
 8708POPC   C3B41337  39.442   1.215   7.055
 8708POPC   C4B41338  39.433   1.142   7.355
 8709POPC   NC341339  44.689   1.232   5.555
 8709POPC   PO441340  44.710   1.205   5.855
 8709POPC   GL141341  44.668   1.177   6.155
 8709POPC   GL241342  44.777   1.311   6.155
 8709POPC   C1A41343  44.665   1.263   6.455
 8709POPC   D2A41344  44.655   1.174   6.755
 8709POPC   C3A41345  44.649   1.229   7.055
 8709POPC   C4A41346  44.644   1.252   7.355
 8709POPC   C1B41347  44.825   1.392   6.455
 8709POPC   C2B41348  44.883   1.381   6.755
 8709POPC   C3B41349  44.809   1.417   7.055
 8709POPC   C4B41350  44.826   1.409   7.355
 8710POPC   NC341351   6.663  32.267   5.555
 8710POPC   PO441352   6.631  32.269   5.855
 8710POPC   GL141353   6.669  32.250   6.155
 8710POPC   GL241354   6.568  32.333   6.155
 8710POPC   C1A41355   6.694  32.298   6.455
 8710POPC   D2A41356   6.678  32.200   6.755
 8710POPC   C3A41357   6.679  32.257   7.055
 8710POPC   C4A41358   6.606  32.239   7.355
 8710POPC   C1B41359   6.512  32.437   6.455
 8710POPC   C2B41360   6.506  32.430   6.755
 8710POPC   C3B41361   6.562  32.460   7.055
 8710POPC   C4B41362   6.560  32.520   7.355
 8711POPC   NC341363  40.045  28.370   5.555
 8711POPC   PO441364  40.030  28.328   5.855
 8711POPC   GL141365  40.042  28.360   6.155
 8711POPC   GL241366  39.975  28.503   6.155
 8711POPC   C1A41367  39.984  28.390   6.455
 8711POPC   D2A41368  39.991  28.386   6.755
 8711POPC   C3A41369  40.055  28.340   7.055
 8711POPC   C4A41370  40.032  28.379   7.355
 8711POPC   C1B41371  40.002  28.617   6.455
 8711POPC   C2B41372  39.984  28.588   6.755
 8711POPC   C3B41373  40.009  28.604   7.055
 8711POPC   C4B41374  39.990  28.646   7.355
 8712POPC   NC341375  16.781  15.226   5.555
 8712POPC   PO441376  16.771  15.200   5.855
 8712POPC   GL141377  16.700  15.131   6.155
 8712POPC   GL241378  16.846  15.241   6.155
 8712POPC   C1A41379  16.710  15.144   6.455
 8712POPC   D2A41380  16.750  15.135   6.755
 8712POPC   C3A41381  16.730  15.189   7.055
 8712POPC   C4A41382  16.779  15.200   7.355
 8712POPC   C1B41383  17.021  15.204   6.455
 8712POPC   C2B41384  17.020  15.180   6.755
 8712POPC   C3B41385  17.020  15.269   7.055
 8712POPC   C4B41386  16.990  15.199   7.355
 8713POPC   NC341387  12.118   9.010   5.555
 8713POPC   PO441388  12.095   8.957   5.855
 8713POPC   GL141389  12.041   8.965   6.155
 8713POPC   GL241390  12.243   8.940   6.155
 8713POPC   C1A41391  12.040   8.939   6.455
 8713POPC   D2A41392  12.102   8.966   6.755
 8713POPC   C3A41393  12.105   9.010   7.055
 8713POPC   C4A41394  12.119   8.964   7.355
 8713POPC   C1B41395  12.277   8.893   6.455
 8713POPC   C2B41396  12.319   8.858   6.755
 8713POPC   C3B41397  12.336   8.880   7.055
 8713POPC   C4B41398  12.357   8.941   7.355
 8714POPC   NC341399  14.410  29.151   5.555
 8714POPC   PO441400  14.356  29.195   5.855
 8714POPC   GL141401  14.400  29.139   6.155
 8714POPC   GL241402  14.440  29.295   6.155
 8714POPC   C1A41403  14.370  29.177   6.455
 8714POPC   D2A41404  14.420  29.105   6.755
 8714POPC   C3A41405  14.358  29.134   7.055
 8714POPC   C4A41406  14.362  29.144   7.355
 8714POPC   C1B41407  14.535  29.361   6.455
 8714POPC   C2B41408  14.531  29.420   6.755
 8714POPC   C3B41409  14.537  29.426   7.055
 8714POPC   C4B41410  14.482  29.353   7.355
 8715POPC   NC341411  39.237  43.117   5.555
 8715POPC   PO441412  39.204  43.129   5.855
 8715POPC   GL141413  39.218  43.099   6.155
 8715POPC   GL241414  39.075  43.096   6.155
 8715POPC   C1A41415  39.210  43.157   6.455
 8715POPC   D2A41416  39.272  43.136   6.755
 8715POPC   C3A41417  39.190  43.105   7.055
 8715POPC   C4A41418  39.209  43.077   7.355
 8715POPC   C1B41419  38.989  43.050   6.455
 8715POPC   C2B41420  38.997  43.050   6.755
 8715POPC   C3B41421  38.994  43.094   7.055
 8715POPC   C4B41422  39.035  43.076   7.355
 8716POPC   NC341423  22.912  43.935   5.555
 8716POPC   PO441424  22.888  43.899   5.855
 8716POPC   GL141425  22.907  43.892   6.155
 8716POPC   GL241426  22.858  43.775   6.155
 8716POPC   C1A41427  22.905  43.918   6.455
 8716POPC   D2A41428  22.933  43.838   6.755
 8716POPC   C3A41429  22.945  43.913   7.055
 8716POPC   C4A41430  22.931  43.838   7.355
 8716POPC   C1B41431  22.791  43.702   6.455
 8716POPC   C2B41432  22.723  43.701   6.755
 8716POPC   C3B41433  22.774  43.768   7.055
 8716POPC   C4B41434  22.774  43.733   7.355
 8717POPC   NC341435  27.595  23.744   5.555
 8717POPC   PO441436  27.570  23.674   5.855
 8717POPC   GL141437  27.546  23.686   6.155
 8717POPC   GL241438  27.514  23.661   6.155
 8717POPC   C1A41439  27.570  23.735   6.455
 8717POPC   D2A41440  27.612  23.676   6.755
 8717POPC   C3A41441  27.603  23.746   7.055
 8717POPC   C4A41442  27.623  23.714   7.355
 8717POPC   C1B41443  27.330  23.605   6.455
 8717POPC   C2B41444  27.412  23.616   6.755
 8717POPC   C3B41445  27.410  23.633   7.055
 8717POPC   C4B41446  27.391  23.631   7.355
 8718POPC   NC341447  31.490  14.418   5.555
 8718POPC   PO441448  31.487  14.381   5.855
 8718POPC   GL141449  31.446  14.450   6.155
 8718POPC   GL241450  31.556  14.345   6.155
 8718POPC   C1A41451  31.437  14.404   6.455
 8718POPC   D2A41452  31.520  14.429   6.755
 8718POPC   C3A41453  31.518  14.367   7.055
 8718POPC   C4A41454  31.467  14.389   7.355
 8718POPC   C1B41455  31.664  14.259   6.455
 8718POPC   C2B41456  31.716  14.298   6.755
 8718POPC   C3B41457  31.697  14.257   7.055
 8718POPC   C4B41458  31.667  14.322   7.355
 8719POPC   NC341459  19.840  43.107   5.555
 8719POPC   PO441460  19.818  43.114   5.855
 8719POPC   GL141461  19.879  43.093   6.155
 8719POPC   GL241462  19.748  43.145   6.155
 8719POPC   C1A41463  19.840  43.128   6.455
 8719POPC   D2A41464  19.851  43.090   6.755
 8719POPC   C3A41465  19.801  43.140   7.055
 8719POPC   C4A41466  19.840  43.134   7.355
 8719POPC   C1B41467  19.574  43.090   6.455
 8719POPC   C2B41468  19.590  43.071   6.755
 8719POPC   C3B41469  19.552  43.072   7.055
 8719POPC   C4B41470  19.615  43.067   7.355
 8720POPC   NC341471  42.366  29.910   5.555
 8720POPC   PO441472  42.379  29.896   5.855
 8720POPC   GL141473  42.288  29.886   6.155
 8720POPC   GL241474  42.266  29.830   6.155
 8720POPC   C1A41475  42.317  29.875   6.455
 8720POPC   D2A41476  42.338  29.962   6.755
 8720POPC   C3A41477  42.304  29.909   7.055
 8720POPC   C4A41478  42.372  29.939   7.355
 8720POPC   C1B41479  42.213  29.771   6.455
 8720POPC   C2B41480  42.201  29.698   6.755
 8720POPC   C3B41481  42.168  29.777   7.055
 8720POPC   C4B41482  42.141  29.691   7.355
 8721POPC   NC341483  13.591  17.466   5.555
 8721POPC   PO441484  13.609  17.470   5.855
 8721POPC   GL141485  13.673  17.476   6.155
 8721POPC   GL241486  13.729  17.468   6.155
 8721POPC   C1A41487  13.591  17.479   6.455
 8721POPC   D2A41488  13.627  17.497   6.755
 8721POPC   C3A41489  13.598  17.552   7.055
 8721POPC   C4A41490  13.591  17.492   7.355
 8721POPC   C1B41491  13.851  17.427   6.455
 8721POPC   C2B41492  13.867  17.399   6.755
 8721POPC   C3B41493  13.835  17.412   7.055
 8721POPC   C4B41494  13.818  17.430   7.355
 8722POPC   NC341495  36.860  25.218   5.555
 8722POPC   PO441496  36.941  25.227   5.855
 8722POPC   GL141497  36.914  25.305   6.155
 8722POPC   GL241498  36.851  25.185   6.155
 8722POPC   C1A41499  36.866  25.227   6.455
 8722POPC   D2A41500  36.948  25.246   6.755
 8722POPC   C3A41501  36.937  25.286   7.055
 8722POPC   C4A41502  36.917  25.243   7.355
 8722POPC   C1B41503  36.810  24.982   6.455
 8722POPC   C2B41504  36.807  25.012   6.755
 8722POPC   C3B41505  36.792  25.058   7.055
 8722POPC   C4B41506  36.851  24.995   7.355
 8723POPC   NC341507  29.910  43.887   5.555
 8723POPC   PO441508  29.963  43.900   5.855
 8723POPC   GL141509  29.878  43.855   6.155
 8723POPC   GL241510  29.843  43.798   6.155
 8723POPC   C1A41511  29.918  43.890   6.455
 8723POPC   D2A41512  29.892  43.886   6.755
 8723POPC   C3A41513  29.923  43.868   7.055
 8723POPC   C4A41514  29.894  43.883   7.355
 8723POPC   C1B41515  29.701  43.732   6.455
 8723POPC   C2B41516  29.653  43.734   6.755
 8723POPC   C3B41517  29.653  43.803   7.055
 8723POPC   C4B41518  29.719  43.797   7.355
 8724POPC   NC341519  41.578  31.507   5.555
 8724POPC   PO441520  41.535  31.426   5.855
 8724POPC   GL141521  41.543  31.493   6.155
 8724POPC   GL241522  41.668  31.400   6.155
 8724POPC   C1A41523  41.543  31.487   6.455
 8724POPC   D2A41524  41.564  31.454   6.755
 8724POPC   C3A41525  41.518  31.460   7.055
 8724POPC   C4A41526  41.606  31.473   7.355
 8724POPC   C1B41527  41.759  31.305   6.455
 8724POPC   C2B41528  41.779  31.289   6.755
 8724POPC   C3B41529  41.814  31.382   7.055
 8724POPC   C4B41530  41.769  31.369   7.355
 8725POPC   NC341531  17.470  32.230   5.555
 8725POPC   PO441532  17.505  32.250   5.855
 8725POPC   GL141533  17.516  32.249   6.155
 8725POPC   GL241534  17.343  32.292   6.155
 8725POPC   C1A41535  17.550  32.235   6.455
 8725POPC   D2A41536  17.471  32.258   6.755
 8725POPC   C3A41537  17.512  32.221   7.055
 8725POPC   C4A41538  17.485  32.259   7.355
 8725POPC   C1B41539  17.305  32.283   6.455
 8725POPC   C2B41540  17.256  32.346   6.755
 8725POPC   C3B41541  17.237  32.261   7.055
 8725POPC   C4B41542  17.293  32.316   7.355
 8726POPC   NC341543  40.808  35.320   5.555
 8726POPC   PO441544  40.770  35.340   5.855
 8726POPC   GL141545  40.782  35.374   6.155
 8726POPC   GL241546  40.836  35.501   6.155
 8726POPC   C1A41547  40.740  35.356   6.455
 8726POPC   D2A41548  40.758  35.342   6.755
 8726POPC   C3A41549  40.771  35.326   7.055
 8726POPC   C4A41550  40.744  35.316   7.355
 8726POPC   C1B41551  40.870  35.599   6.455
 8726POPC   C2B41552  40.854  35.602   6.755
 8726POPC   C3B41553  40.914  35.557   7.055
 8726POPC   C4B41554  40.851  35.543   7.355
 8727POPC   NC341555  12.815  11.342   5.555
 8727POPC   PO441556  12.897  11.277   5.855
 8727POPC   GL141557  12.851  11.341   6.155
 8727POPC   GL241558  12.842  11.423   6.155
 8727POPC   C1A41559  12.888  11.348   6.455
 8727POPC   D2A41560  12.843  11.335   6.755
 8727POPC   C3A41561  12.817  11.303   7.055
 8727POPC   C4A41562  12.834  11.309   7.355
 8727POPC   C1B41563  12.889  11.560   6.455
 8727POPC   C2B41564  12.924  11.587   6.755
 8727POPC   C3B41565  12.844  11.559   7.055
 8727POPC   C4B41566  12.914  11.525   7.355
 8728POPC   NC341567  34.538  26.000   5.555
 8728POPC   PO441568  34.571  26.000   5.855
 8728POPC   GL141569  34.589  26.059   6.155
 8728POPC   GL241570  34.741  26.019   6.155
 8728POPC   C1A41571  34.574  26.002   6.455
 8728POPC   D2A41572  34.568  26.007   6.755
 8728POPC   C3A41573  34.607  26.040   7.055
 8728POPC   C4A41574  34.531  26.009   7.355
 8728POPC   C1B41575  34.857  25.920   6.455
 8728POPC   C2B41576  34.851  25.973   6.755
 8728POPC   C3B41577  34.851  25.996   7.055
 8728POPC   C4B41578  34.809  25.944   7.355
 8729POPC   NC341579  35.320  33.819   5.555
 8729POPC   PO441580  35.351  33.813   5.855
 8729POPC   GL141581  35.385  33.757   6.155
 8729POPC   GL241582  35.274  33.766   6.155
 8729POPC   C1A41583  35.307  33.757   6.455
 8729POPC   D2A41584  35.316  33.779   6.755
 8729POPC   C3A41585  35.310  33.799   7.055
 8729POPC   C4A41586  35.360  33.799   7.355
 8729POPC   C1B41587  35.136  33.688   6.455
 8729POPC   C2B41588  35.157  33.716   6.755
 8729POPC   C3B41589  35.178  33.728   7.055
 8729POPC   C4B41590  35.097  33.729   7.355
 8730POPC   NC341591  43.120  42.369   5.555
 8730POPC   PO441592  43.066  42.378   5.855
 8730POPC   GL141593  43.085  42.338   6.155
 8730POPC   GL241594  43.192  42.306   6.155
 8730POPC   C1A41595  43.094  42.333   6.455
 8730POPC   D2A41596  43.155  42.328   6.755
 8730POPC   C3A41597  43.066  42.380   7.055
 8730POPC   C4A41598  43.062  42.319   7.355
 8730POPC   C1B41599  43.319  42.201   6.455
 8730POPC   C2B41600  43.343  42.175   6.755
 8730POPC   C3B41601  43.300  42.179   7.055
 8730POPC   C4B41602  43.282  42.240   7.355
 8731POPC   NC341603  16.779  25.216   5.555
 8731POPC   PO441604  16.754  25.303   5.855
 8731POPC   GL141605  16.755  25.303   6.155
 8731POPC   GL241606  16.671  25.375   6.155
 8731POPC   C1A41607  16.731  25.292   6.455
 8731POPC   D2A41608  16.714  25.303   6.755
 8731POPC   C3A41609  16.700  25.311   7.055
 8731POPC   C4A41610  16.684  25.226   7.355
 8731POPC   C1B41611  16.514  25.393   6.455
 8731POPC   C2B41612  16.577  25.474   6.755
 8731POPC   C3B41613  16.588  25.475   7.055
 8731POPC   C4B41614  16.504  25.445   7.355
 8732POPC   NC341615  35.338  27.573   5.555
 8732POPC   PO441616  35.345  27.624   5.855
 8732POPC   GL141617  35.377  27.583   6.155
 8732POPC   GL241618  35.245  27.494   6.155
 8732POPC   C1A41619  35.302  27.606   6.455
 8732POPC   D2A41620  35.369  27.619   6.755
 8732POPC   C3A41621  35.390  27.592   7.055
 8732POPC   C4A41622  35.375  27.615   7.355
 8732POPC   C1B41623  35.206  27.408   6.455
 8732POPC   C2B41624  35.133  27.416   6.755
 8732POPC   C3B41625  35.189  27.387   7.055
 8732POPC   C4B41626  35.214  27.456   7.355
 8733POPC   NC341627  32.220  32.217   5.555
 8733POPC   PO441628  32.252  32.238   5.855
 8733POPC   GL141629  32.246  32.283   6.155
 8733POPC   GL241630  32.196  32.358   6.155
 8733POPC   C1A41631  32.273  32.286   6.455
 8733POPC   D2A41632  32.258  32.234   6.755
 8733POPC   C3A41633  32.260  32.276   7.055
 8733POPC   C4A41634  32.276  32.202   7.355
 8733POPC   C1B41635  32.158  32.517   6.455
 8733POPC   C2B41636  32.189  32.482   6.755
 8733POPC   C3B41637  32.250  32.455   7.055
 8733POPC   C4B41638  32.161  32.466   7.355
 8734POPC   NC341639  11.325  15.149   5.555
 8734POPC   PO441640  11.306  15.166   5.855
 8734POPC   GL141641  11.319  15.210   6.155
 8734POPC   GL241642  11.230  15.103   6.155
 8734POPC   C1A41643  11.342  15.183   6.455
 8734POPC   D2A41644  11.278  15.224   6.755
 8734POPC   C3A41645  11.341  15.226   7.055
 8734POPC   C4A41646  11.336  15.181   7.355
 8734POPC   C1B41647  11.179  14.991   6.455
 8734POPC   C2B41648  11.120  15.008   6.755
 8734POPC   C3B41649  11.194  14.951   7.055
 8734POPC   C4B41650  11.195  15.013   7.355
 8735POPC   NC341651  43.160  40.820   5.555
 8735POPC   PO441652  43.109  40.766   5.855
 8735POPC   GL141653  43.091  40.809   6.155
 8735POPC   GL241654  43.059  40.908   6.155
 8735POPC   C1A41655  43.138  40.810   6.455
 8735POPC   D2A41656  43.116  40.822   6.755
 8735POPC   C3A41657  43.130  40.775   7.055
 8735POPC   C4A41658  43.160  40.801   7.355
 8735POPC   C1B41659  43.043  41.053   6.455
 8735POPC   C2B41660  43.032  41.005   6.755
 8735POPC   C3B41661  43.078  41.008   7.055
 8735POPC   C4B41662  43.036  41.013   7.355
 8736POPC   NC341663  33.794  23.673   5.555
 8736POPC   PO441664  33.801  23.708   5.855
 8736POPC   GL141665  33.807  23.708   6.155
 8736POPC   GL241666  33.692  23.692   6.155
 8736POPC   C1A41667  33.829  23.679   6.455
 8736POPC   D2A41668  33.829  23.667   6.755
 8736POPC   C3A41669  33.774  23.714   7.055
 8736POPC   C4A41670  33.816  23.707   7.355
 8736POPC   C1B41671  33.522  23.747   6.455
 8736POPC   C2B41672  33.585  23.763   6.755
 8736POPC   C3B41673  33.515  23.702   7.055
 8736POPC   C4B41674  33.561  23.679   7.355
 8737POPC   NC341675  19.028  19.880   5.555
 8737POPC   PO441676  19.097  19.821   5.855
 8737POPC   GL141677  19.077  19.819   6.155
 8737POPC   GL241678  19.092  19.711   6.155
 8737POPC   C1A41679  19.045  19.821   6.455
 8737POPC   D2A41680  19.043  19.831   6.755
 8737POPC   C3A41681  19.021  19.822   7.055
 8737POPC   C4A41682  19.101  19.826   7.355
 8737POPC   C1B41683  19.074  19.564   6.455
 8737POPC   C2B41684  19.080  19.602   6.755
 8737POPC   C3B41685  19.129  19.567   7.055
 8737POPC   C4B41686  19.144  19.621   7.355
 8738POPC   NC341687   1.974   2.010   5.555
 8738POPC   PO441688   1.985   1.943   5.855
 8738POPC   GL141689   2.003   1.985   6.155
 8738POPC   GL241690   2.042   2.128   6.155
 8738POPC   C1A41691   1.997   1.993   6.455
 8738POPC   D2A41692   1.966   1.969   6.755
 8738POPC   C3A41693   1.957   1.944   7.055
 8738POPC   C4A41694   1.962   1.995   7.355
 8738POPC   C1B41695   2.071   2.189   6.455
 8738POPC   C2B41696   2.076   2.179   6.755
 8738POPC   C3B41697   2.067   2.182   7.055
 8738POPC   C4B41698   2.079   2.164   7.355
 8739POPC   NC341699  14.362  11.254   5.555
 8739POPC   PO441700  14.387  11.346   5.855
 8739POPC   GL141701  14.410  11.273   6.155
 8739POPC   GL241702  14.311  11.401   6.155
 8739POPC   C1A41703  14.412  11.272   6.455
 8739POPC   D2A41704  14.406  11.349   6.755
 8739POPC   C3A41705  14.433  11.301   7.055
 8739POPC   C4A41706  14.367  11.293   7.355
 8739POPC   C1B41707  14.256  11.506   6.455
 8739POPC   C2B41708  14.317  11.526   6.755
 8739POPC   C3B41709  14.326  11.490   7.055
 8739POPC   C4B41710  14.346  11.562   7.355
 8740POPC   NC341711  15.937  22.125   5.555
 8740POPC   PO441712  15.997  22.203   5.855
 8740POPC   GL141713  15.954  22.148   6.155
 8740POPC   GL241714  16.072  22.227   6.155
 8740POPC   C1A41715  15.949  22.192   6.455
 8740POPC   D2A41716  15.942  22.130   6.755
 8740POPC   C3A41717  15.925  22.179   7.055
 8740POPC   C4A41718  15.956  22.151   7.355
 8740POPC   C1B41719  16.111  22.318   6.455
 8740POPC   C2B41720  16.145  22.380   6.755
 8740POPC   C3B41721  16.137  22.383   7.055
 8740POPC   C4B41722  16.171  22.300   7.355
 8741POPC   NC341723  43.901  41.513   5.555
 8741POPC   PO441724  43.912  41.590   5.855
 8741POPC   GL141725  43.845  41.567   6.155
 8741POPC   GL241726  43.790  41.476   6.155
 8741POPC   C1A41727  43.876  41.574   6.455
 8741POPC   D2A41728  43.843  41.581   6.755
 8741POPC   C3A41729  43.872  41.560   7.055
 8741POPC   C4A41730  43.903  41.544   7.355
 8741POPC   C1B41731  43.719  41.361   6.455
 8741POPC   C2B41732  43.688  41.387   6.755
 8741POPC   C3B41733  43.690  41.413   7.055
 8741POPC   C4B41734  43.750  41.397   7.355
 8742POPC   NC341735  41.558  44.616   5.555
 8742POPC   PO441736  41.537  44.689   5.855
 8742POPC   GL141737  41.605  44.628   6.155
 8742POPC   GL241738  41.399  44.661   6.155
 8742POPC   C1A41739  41.560  44.650   6.455
 8742POPC   D2A41740  41.558  44.701   6.755
 8742POPC   C3A41741  41.562  44.662   7.055
 8742POPC   C4A41742  41.596  44.641   7.355
 8742POPC   C1B41743  41.302  44.700   6.455
 8742POPC   C2B41744  41.331  44.705   6.755
 8742POPC   C3B41745  41.280  44.767   7.055
 8742POPC   C4B41746  41.308  44.714   7.355
 8743POPC   NC341747   4.309  36.136   5.555
 8743POPC   PO441748   4.283  36.079   5.855
 8743POPC   GL141749   4.334  36.101   6.155
 8743POPC   GL241750   4.241  36.201   6.155
 8743POPC   C1A41751   4.280  36.140   6.455
 8743POPC   D2A41752   4.292  36.152   6.755
 8743POPC   C3A41753   4.290  36.121   7.055
 8743POPC   C4A41754   4.309  36.112   7.355
 8743POPC   C1B41755   4.264  36.342   6.455
 8743POPC   C2B41756   4.234  36.364   6.755
 8743POPC   C3B41757   4.200  36.372   7.055
 8743POPC   C4B41758   4.217  36.370   7.355
 8744POPC   NC341759  42.321  28.397   5.555
 8744POPC   PO441760  42.304  28.419   5.855
 8744POPC   GL141761  42.370  28.324   6.155
 8744POPC   GL241762  42.456  28.449   6.155
 8744POPC   C1A41763  42.383  28.395   6.455
 8744POPC   D2A41764  42.325  28.388   6.755
 8744POPC   C3A41765  42.331  28.386   7.055
 8744POPC   C4A41766  42.336  28.375   7.355
 8744POPC   C1B41767  42.559  28.454   6.455
 8744POPC   C2B41768  42.546  28.485   6.755
 8744POPC   C3B41769  42.584  28.452   7.055
 8744POPC   C4B41770  42.582  28.456   7.355
 8745POPC   NC341771  12.096   5.059   5.555
 8745POPC   PO441772  12.112   5.055   5.855
 8745POPC   GL141773  12.075   5.127   6.155
 8745POPC   GL241774  12.174   5.122   6.155
 8745POPC   C1A41775  12.076   5.106   6.455
 8745POPC   D2A41776  12.112   5.058   6.755
 8745POPC   C3A41777  12.080   5.073   7.055
 8745POPC   C4A41778  12.096   5.062   7.355
 8745POPC   C1B41779  12.369   5.167   6.455
 8745POPC   C2B41780  12.347   5.155   6.755
 8745POPC   C3B41781  12.349   5.132   7.055
 8745POPC   C4B41782  12.274   5.145   7.355
 8746POPC   NC341783  34.589   1.963   5.555
 8746POPC   PO441784  34.588   1.971   5.855
 8746POPC   GL141785  34.562   2.002   6.155
 8746POPC   GL241786  34.602   1.897   6.155
 8746POPC   C1A41787  34.606   1.986   6.455
 8746POPC   D2A41788  34.531   1.958   6.755
 8746POPC   C3A41789  34.531   1.957   7.055
 8746POPC   C4A41790  34.624   1.986   7.355
 8746POPC   C1B41791  34.697   1.825   6.455
 8746POPC   C2B41792  34.707   1.792   6.755
 8746POPC   C3B41793  34.760   1.815   7.055
 8746POPC   C4B41794  34.742   1.763   7.355
 8747POPC   NC341795  36.924  29.880   5.555
 8747POPC   PO441796  36.891  29.970   5.855
 8747POPC   GL141797  36.856  29.945   6.155
 8747POPC   GL241798  36.988  29.992   6.155
 8747POPC   C1A41799  36.894  29.925   6.455
 8747POPC   D2A41800  36.891  29.920   6.755
 8747POPC   C3A41801  36.918  29.964   7.055
 8747POPC   C4A41802  36.863  29.885   7.355
 8747POPC   C1B41803  37.137  30.018   6.455
 8747POPC   C2B41804  37.187  30.017   6.755
 8747POPC   C3B41805  37.131  29.991   7.055
 8747POPC   C4B41806  37.154  29.939   7.355
 8748POPC   NC341807  21.423  33.760   5.555
 8748POPC   PO441808  21.346  33.835   5.855
 8748POPC   GL141809  21.345  33.828   6.155
 8748POPC   GL241810  21.246  33.697   6.155
 8748POPC   C1A41811  21.421  33.806   6.455
 8748POPC   D2A41812  21.340  33.847   6.755
 8748POPC   C3A41813  21.356  33.788   7.055
 8748POPC   C4A41814  21.416  33.814   7.355
 8748POPC   C1B41815  21.242  33.602   6.455
 8748POPC   C2B41816  21.243  33.606   6.755
 8748POPC   C3B41817  21.211  33.679   7.055
 8748POPC   C4B41818  21.186  33.594   7.355
 8749POPC   NC341819   8.241  25.239   5.555
 8749POPC   PO441820   8.171  25.299   5.855
 8749POPC   GL141821   8.161  25.315   6.155
 8749POPC   GL241822   8.304  25.227   6.155
 8749POPC   C1A41823   8.240  25.290   6.455
 8749POPC   D2A41824   8.239  25.256   6.755
 8749POPC   C3A41825   8.164  25.267   7.055
 8749POPC   C4A41826   8.220  25.256   7.355
 8749POPC   C1B41827   8.348  25.123   6.455
 8749POPC   C2B41828   8.412  25.128   6.755
 8749POPC   C3B41829   8.415  25.073   7.055
 8749POPC   C4B41830   8.367  25.056   7.355
 8750POPC   NC341831  29.896  40.047   5.555
 8750POPC   PO441832  29.949  40.024   5.855
 8750POPC   GL141833  29.874  40.012   6.155
 8750POPC   GL241834  29.821  39.960   6.155
 8750POPC   C1A41835  29.952  39.961   6.455
 8750POPC   D2A41836  29.891  40.007   6.755
 8750POPC   C3A41837  29.951  39.992   7.055
 8750POPC   C4A41838  29.956  39.957   7.355
 8750POPC   C1B41839  29.712  39.905   6.455
 8750POPC   C2B41840  29.678  39.933   6.755
 8750POPC   C3B41841  29.704  39.879   7.055
 8750POPC   C4B41842  29.706  39.913   7.355
 8751POPC   NC341843  14.385  14.369   5.555
 8751POPC   PO441844  14.370  14.413   5.855
 8751POPC   GL141845  14.374  14.413   6.155
 8751POPC   GL241846  14.311  14.385   6.155
 8751POPC   C1A41847  14.428  14.374   6.455
 8751POPC   D2A41848  14.428  14.370   6.755
 8751POPC   C3A41849  14.423  14.450   7.055
 8751POPC   C4A41850  14.423  14.378   7.355
 8751POPC   C1B41851  14.148  14.317   6.455
 8751POPC   C2B41852  14.226  14.329   6.755
 8751POPC   C3B41853  14.196  14.318   7.055
 8751POPC   C4B41854  14.209  14.274   7.355
 8752POPC   NC341855  40.006   5.058   5.555
 8752POPC   PO441856  40.037   5.060   5.855
 8752POPC   GL141857  39.993   5.108   6.155
 8752POPC   GL241858  40.013   5.169   6.155
 8752POPC   C1A41859  40.011   5.071   6.455
 8752POPC   D2A41860  39.998   5.064   6.755
 8752POPC   C3A41861  40.033   5.117   7.055
 8752POPC   C4A41862  39.990   5.079   7.355
 8752POPC   C1B41863  40.069   5.355   6.455
 8752POPC   C2B41864  40.028   5.391   6.755
 8752POPC   C3B41865  40.046   5.387   7.055
 8752POPC   C4B41866  40.064   5.350   7.355
 8753POPC   NC341867  19.035  20.572   5.555
 8753POPC   PO441868  19.068  20.620   5.855
 8753POPC   GL141869  19.014  20.603   6.155
 8753POPC   GL241870  18.984  20.690   6.155
 8753POPC   C1A41871  19.082  20.575   6.455
 8753POPC   D2A41872  19.039  20.651   6.755
 8753POPC   C3A41873  19.095  20.588   7.055
 8753POPC   C4A41874  19.105  20.595   7.355
 8753POPC   C1B41875  18.827  20.644   6.455
 8753POPC   C2B41876  18.860  20.712   6.755
 8753POPC   C3B41877  18.797  20.644   7.055
 8753POPC   C4B41878  18.815  20.658   7.355
 8754POPC   NC341879  40.782  41.517   5.555
 8754POPC   PO441880  40.773  41.594   5.855
 8754POPC   GL141881  40.795  41.568   6.155
 8754POPC   GL241882  40.765  41.417   6.155
 8754POPC   C1A41883  40.797  41.605   6.455
 8754POPC   D2A41884  40.819  41.513   6.755
 8754POPC   C3A41885  40.751  41.562   7.055
 8754POPC   C4A41886  40.785  41.606   7.355
 8754POPC   C1B41887  40.846  41.274   6.455
 8754POPC   C2B41888  40.813  41.336   6.755
 8754POPC   C3B41889  40.820  41.336   7.055
 8754POPC   C4B41890  40.836  41.346   7.355
 8755POPC   NC341891   5.851  34.535   5.555
 8755POPC   PO441892   5.914  34.537   5.855
 8755POPC   GL141893   5.840  34.612   6.155
 8755POPC   GL241894   5.805  34.414   6.155
 8755POPC   C1A41895   5.862  34.597   6.455
 8755POPC   D2A41896   5.888  34.623   6.755
 8755POPC   C3A41897   5.902  34.623   7.055
 8755POPC   C4A41898   5.853  34.579   7.355
 8755POPC   C1B41899   5.822  34.339   6.455
 8755POPC   C2B41900   5.775  34.350   6.755
 8755POPC   C3B41901   5.798  34.348   7.055
 8755POPC   C4B41902   5.761  34.306   7.355
 8756POPC   NC341903   5.824  35.338   5.555
 8756POPC   PO441904   5.904  35.380   5.855
 8756POPC   GL141905   5.877  35.369   6.155
 8756POPC   GL241906   5.996  35.261   6.155
 8756POPC   C1A41907   5.894  35.393   6.455
 8756POPC   D2A41908   5.910  35.342   6.755
 8756POPC   C3A41909   5.849  35.338   7.055
 8756POPC   C4A41910   5.918  35.364   7.355
 8756POPC   C1B41911   6.054  35.155   6.455
 8756POPC   C2B41912   6.087  35.197   6.755
 8756POPC   C3B41913   6.012  35.209   7.055
 8756POPC   C4B41914   6.060  35.201   7.355
 8757POPC   NC341915  20.601  34.624   5.555
 8757POPC   PO441916  20.610  34.607   5.855
 8757POPC   GL141917  20.652  34.547   6.155
 8757POPC   GL241918  20.747  34.552   6.155
 8757POPC   C1A41919  20.636  34.599   6.455
 8757POPC   D2A41920  20.600  34.566   6.755
 8757POPC   C3A41921  20.640  34.577   7.055
 8757POPC   C4A41922  20.649  34.591   7.355
 8757POPC   C1B41923  20.813  34.615   6.455
 8757POPC   C2B41924  20.813  34.568   6.755
 8757POPC   C3B41925  20.878  34.531   7.055
 8757POPC   C4B41926  20.907  34.559   7.355
 8758POPC   NC341927   3.528  25.998   5.555
 8758POPC   PO441928   3.581  26.060   5.855
 8758POPC   GL141929   3.506  26.046   6.155
 8758POPC   GL241930   3.530  25.867   6.155
 8758POPC   C1A41931   3.528  26.078   6.455
 8758POPC   D2A41932   3.559  26.001   6.755
 8758POPC   C3A41933   3.575  26.026   7.055
 8758POPC   C4A41934   3.509  26.081   7.355
 8758POPC   C1B41935   3.575  25.742   6.455
 8758POPC   C2B41936   3.560  25.776   6.755
 8758POPC   C3B41937   3.499  25.837   7.055
 8758POPC   C4B41938   3.500  25.817   7.355
 8759POPC   NC341939   6.607  29.156   5.555
 8759POPC   PO441940   6.681  29.154   5.855
 8759POPC   GL141941   6.666  29.140   6.155
 8759POPC   GL241942   6.549  29.128   6.155
 8759POPC   C1A41943   6.616  29.103   6.455
 8759POPC   D2A41944   6.625  29.118   6.755
 8759POPC   C3A41945   6.624  29.113   7.055
 8759POPC   C4A41946   6.675  29.160   7.355
 8759POPC   C1B41947   6.423  29.026   6.455
 8759POPC   C2B41948   6.379  29.007   6.755
 8759POPC   C3B41949   6.389  29.064   7.055
 8759POPC   C4B41950   6.417  29.053   7.355
 8760POPC   NC341951  40.787  44.694   5.555
 8760POPC   PO441952  40.742  44.647   5.855
 8760POPC   GL141953  40.746  44.647   6.155
 8760POPC   GL241954  40.747  44.776   6.155
 8760POPC   C1A41955  40.779  44.664   6.455
 8760POPC   D2A41956  40.804  44.703   6.755
 8760POPC   C3A41957  40.798  44.675   7.055
 8760POPC   C4A41958  40.736  44.706   7.355
 8760POPC   C1B41959  40.705  44.940   6.455
 8760POPC   C2B41960  40.766  44.897   6.755
 8760POPC   C3B41961  40.711  44.932   7.055
 8760POPC   C4B41962  40.747  44.944   7.355
 8761POPC   NC341963  22.196  17.458   5.555
 8761POPC   PO441964  22.203  17.472   5.855
 8761POPC   GL141965  22.129  17.468   6.155
 8761POPC   GL241966  22.151  17.415   6.155
 8761POPC   C1A41967  22.169  17.506   6.455
 8761POPC   D2A41968  22.147  17.509   6.755
 8761POPC   C3A41969  22.181  17.554   7.055
 8761POPC   C4A41970  22.131  17.471   7.355
 8761POPC   C1B41971  22.114  17.286   6.455
 8761POPC   C2B41972  22.148  17.218   6.755
 8761POPC   C3B41973  22.107  17.273   7.055
 8761POPC   C4B41974  22.084  17.248   7.355
 8762POPC   NC341975  12.858  21.432   5.555
 8762POPC   PO441976  12.861  21.369   5.855
 8762POPC   GL141977  12.823  21.390   6.155
 8762POPC   GL241978  12.775  21.361   6.155
 8762POPC   C1A41979  12.804  21.436   6.455
 8762POPC   D2A41980  12.836  21.343   6.755
 8762POPC   C3A41981  12.812  21.349   7.055
 8762POPC   C4A41982  12.830  21.403   7.355
 8762POPC   C1B41983  12.650  21.435   6.455
 8762POPC   C2B41984  12.581  21.410   6.755
 8762POPC   C3B41985  12.641  21.450   7.055
 8762POPC   C4B41986  12.553  21.409   7.355
 8763POPC   NC341987  15.193  27.546   5.555
 8763POPC   PO441988  15.153  27.638   5.855
 8763POPC   GL141989  15.204  27.565   6.155
 8763POPC   GL241990  15.276  27.471   6.155
 8763POPC   C1A41991  15.220  27.573   6.455
 8763POPC   D2A41992  15.222  27.581   6.755
 8763POPC   C3A41993  15.215  27.607   7.055
 8763POPC   C4A41994  15.147  27.601   7.355
 8763POPC   C1B41995  15.397  27.390   6.455
 8763POPC   C2B41996  15.346  27.407   6.755
 8763POPC   C3B41997  15.331  27.458   7.055
 8763POPC   C4B41998  15.355  27.432   7.355
 8764POPC   NC341999  17.522  22.146   5.555
 8764POPC   PO442000  17.515  22.172   5.855
 8764POPC   GL142001  17.549  22.196   6.155
 8764POPC   GL242002  17.377  22.103   6.155
 8764POPC   C1A42003  17.523  22.197   6.455
 8764POPC   D2A42004  17.547  22.190   6.755
 8764POPC   C3A42005  17.505  22.137   7.055
 8764POPC   C4A42006  17.465  22.142   7.355
 8764POPC   C1B42007  17.240  22.045   6.455
 8764POPC   C2B42008  17.318  22.059   6.755
 8764POPC   C3B42009  17.260  22.003   7.055
 8764POPC   C4B42010  17.334  21.991   7.355
 8765POPC   NC342011   3.583  26.836   5.555
 8765POPC   PO442012   3.535  26.784   5.855
 8765POPC   GL142013   3.567  26.827   6.155
 8765POPC   GL242014   3.633  26.840   6.155
 8765POPC   C1A42015   3.572  26.860   6.455
 8765POPC   D2A42016   3.516  26.773   6.755
 8765POPC   C3A42017   3.530  26.818   7.055
 8765POPC   C4A42018   3.519  26.816   7.355
 8765POPC   C1B42019   3.789  26.867   6.455
 8765POPC   C2B42020   3.745  26.871   6.755
 8765POPC   C3B42021   3.784  26.915   7.055
 8765POPC   C4B42022   3.764  26.864   7.355
 8766POPC   NC342023  24.538   2.006   5.555
 8766POPC   PO442024  24.463   2.030   5.855
 8766POPC   GL142025  24.505   1.995   6.155
 8766POPC   GL242026  24.415   2.042   6.155
 8766POPC   C1A42027  24.441   2.025   6.455
 8766POPC   D2A42028  24.480   1.944   6.755
 8766POPC   C3A42029  24.489   1.981   7.055
 8766POPC   C4A42030  24.468   1.988   7.355
 8766POPC   C1B42031  24.283   2.233   6.455
 8766POPC   C2B42032  24.379   2.178   6.755
 8766POPC   C3B42033  24.298   2.181   7.055
 8766POPC   C4B42034  24.357   2.176   7.355
 8767POPC   NC342035  24.493  40.051   5.555
 8767POPC   PO442036  24.491  40.012   5.855
 8767POPC   GL142037  24.490  40.022   6.155
 8767POPC   GL242038  24.497  39.847   6.155
 8767POPC   C1A42039  24.539  40.011   6.455
 8767POPC   D2A42040  24.500  40.007   6.755
 8767POPC   C3A42041  24.444  40.031   7.055
 8767POPC   C4A42042  24.522  39.986   7.355
 8767POPC   C1B42043  24.404  39.733   6.455
 8767POPC   C2B42044  24.442  39.787   6.755
 8767POPC   C3B42045  24.417  39.810   7.055
 8767POPC   C4B42046  24.460  39.718   7.355
 8768POPC   NC342047  42.374  35.391   5.555
 8768POPC   PO442048  42.330  35.372   5.855
 8768POPC   GL142049  42.383  35.359   6.155
 8768POPC   GL242050  42.267  35.443   6.155
 8768POPC   C1A42051  42.295  35.381   6.455
 8768POPC   D2A42052  42.321  35.360   6.755
 8768POPC   C3A42053  42.379  35.330   7.055
 8768POPC   C4A42054  42.289  35.330   7.355
 8768POPC   C1B42055  42.141  35.522   6.455
 8768POPC   C2B42056  42.215  35.539   6.755
 8768POPC   C3B42057  42.141  35.598   7.055
 8768POPC   C4B42058  42.151  35.532   7.355
 8769POPC   NC342059   6.669  14.398   5.555
 8769POPC   PO442060   6.679  14.374   5.855
 8769POPC   GL142061   6.650  14.380   6.155
 8769POPC   GL242062   6.561  14.516   6.155
 8769POPC   C1A42063   6.611  14.356   6.455
 8769POPC   D2A42064   6.654  14.390   6.755
 8769POPC   C3A42065   6.686  14.405   7.055
 8769POPC   C4A42066   6.694  14.453   7.355
 8769POPC   C1B42067   6.531  14.574   6.455
 8769POPC   C2B42068   6.522  14.599   6.755
 8769POPC   C3B42069   6.483  14.646   7.055
 8769POPC   C4B42070   6.529  14.636   7.355
 8770POPC   NC342071  33.041  39.226   5.555
 8770POPC   PO442072  33.022  39.229   5.855
 8770POPC   GL142073  33.073  39.271   6.155
 8770POPC   GL242074  33.106  39.227   6.155
 8770POPC   C1A42075  33.068  39.259   6.455
 8770POPC   D2A42076  33.011  39.247   6.755
 8770POPC   C3A42077  33.010  39.263   7.055
 8770POPC   C4A42078  33.006  39.225   7.355
 8770POPC   C1B42079  33.290  39.329   6.455
 8770POPC   C2B42080  33.243  39.237   6.755
 8770POPC   C3B42081  33.316  39.282   7.055
 8770POPC   C4B42082  33.263  39.265   7.355
 8771POPC   NC342083  17.470   4.340   5.555
 8771POPC   PO442084  17.465   4.360   5.855
 8771POPC   GL142085  17.489   4.324   6.155
 8771POPC   GL242086  17.604   4.318   6.155
 8771POPC   C1A42087  17.541   4.318   6.455
 8771POPC   D2A42088  17.548   4.362   6.755
 8771POPC   C3A42089  17.529   4.309   7.055
 8771POPC   C4A42090  17.466   4.306   7.355
 8771POPC   C1B42091  17.797   4.388   6.455
 8771POPC   C2B42092  17.780   4.362   6.755
 8771POPC   C3B42093  17.801   4.324   7.055
 8771POPC   C4B42094  17.718   4.390   7.355
 8772POPC   NC342095  24.503   0.487   5.555
 8772POPC   PO442096  24.511   0.467   5.855
 8772POPC   GL142097  24.491   0.451   6.155
 8772POPC   GL242098  24.343   0.487   6.155
 8772POPC   C1A42099  24.474   0.440   6.455
 8772POPC   D2A42100  24.458   0.454   6.755
 8772POPC   C3A42101  24.517   0.424   7.055
 8772POPC   C4A42102  24.461   0.411   7.355
 8772POPC   C1B42103  24.218   0.528   6.455
 8772POPC   C2B42104  24.257   0.565   6.755
 8772POPC   C3B42105  24.209   0.498   7.055
 8772POPC   C4B42106  24.215   0.537   7.355
 8773POPC   NC342107  10.552  13.645   5.555
 8773POPC   PO442108  10.500  13.652   5.855
 8773POPC   GL142109  10.496  13.651   6.155
 8773POPC   GL242110  10.487  13.765   6.155
 8773POPC   C1A42111  10.514  13.589   6.455
 8773POPC   D2A42112  10.485  13.663   6.755
 8773POPC   C3A42113  10.552  13.670   7.055
 8773POPC   C4A42114  10.507  13.644   7.355
 8773POPC   C1B42115  10.348  13.852   6.455
 8773POPC   C2B42116  10.395  13.843   6.755
 8773POPC   C3B42117  10.356  13.887   7.055
 8773POPC   C4B42118  10.406  13.867   7.355
 8774POPC   NC342119  35.352  12.043   5.555
 8774POPC   PO442120  35.382  12.090   5.855
 8774POPC   GL142121  35.310  12.033   6.155
 8774POPC   GL242122  35.336  11.903   6.155
 8774POPC   C1A42123  35.351  12.054   6.455
 8774POPC   D2A42124  35.343  12.112   6.755
 8774POPC   C3A42125  35.345  12.048   7.055
 8774POPC   C4A42126  35.346  12.052   7.355
 8774POPC   C1B42127  35.324  11.816   6.455
 8774POPC   C2B42128  35.315  11.809   6.755
 8774POPC   C3B42129  35.325  11.864   7.055
 8774POPC   C4B42130  35.267  11.784   7.355
 8775POPC   NC342131  37.727  10.509   5.555
 8775POPC   PO442132  37.656  10.549   5.855
 8775POPC   GL142133  37.696  10.489   6.155
 8775POPC   GL242134  37.843  10.497   6.155
 8775POPC   C1A42135  37.656  10.504   6.455
 8775POPC   D2A42136  37.715  10.563   6.755
 8775POPC   C3A42137  37.644  10.496   7.055
 8775POPC   C4A42138  37.712  10.548   7.355
 8775POPC   C1B42139  37.931  10.534   6.455
 8775POPC   C2B42140  37.935  10.522   6.755
 8775POPC   C3B42141  37.917  10.476   7.055
 8775POPC   C4B42142  37.932  10.475   7.355
 8776POPC   NC342143  15.148   1.976   5.555
 8776POPC   PO442144  15.174   2.001   5.855
 8776POPC   GL142145  15.139   2.027   6.155
 8776POPC   GL242146  15.011   2.066   6.155
 8776POPC   C1A42147  15.220   2.020   6.455
 8776POPC   D2A42148  15.219   2.039   6.755
 8776POPC   C3A42149  15.140   2.020   7.055
 8776POPC   C4A42150  15.137   1.981   7.355
 8776POPC   C1B42151  14.973   2.048   6.455
 8776POPC   C2B42152  14.970   2.063   6.755
 8776POPC   C3B42153  14.977   2.099   7.055
 8776POPC   C4B42154  14.941   2.098   7.355
 8777POPC   NC342155  32.205  10.477   5.555
 8777POPC   PO442156  32.210  10.487   5.855
 8777POPC   GL142157  32.267  10.478   6.155
 8777POPC   GL242158  32.314  10.488   6.155
 8777POPC   C1A42159  32.273  10.528   6.455
 8777POPC   D2A42160  32.255  10.531   6.755
 8777POPC   C3A42161  32.260  10.498   7.055
 8777POPC   C4A42162  32.259  10.567   7.355
 8777POPC   C1B42163  32.444  10.367   6.455
 8777POPC   C2B42164  32.422  10.336   6.755
 8777POPC   C3B42165  32.428  10.323   7.055
 8777POPC   C4B42166  32.487  10.348   7.355
 8778POPC   NC342167  11.284  28.324   5.555
 8778POPC   PO442168  11.348  28.370   5.855
 8778POPC   GL142169  11.271  28.353   6.155
 8778POPC   GL242170  11.335  28.290   6.155
 8778POPC   C1A42171  11.330  28.324   6.455
 8778POPC   D2A42172  11.349  28.324   6.755
 8778POPC   C3A42173  11.341  28.410   7.055
 8778POPC   C4A42174  11.257  28.411   7.355
 8778POPC   C1B42175  11.320  28.174   6.455
 8778POPC   C2B42176  11.355  28.159   6.755
 8778POPC   C3B42177  11.331  28.082   7.055
 8778POPC   C4B42178  11.386  28.127   7.355
 8779POPC   NC342179  43.147  24.498   5.555
 8779POPC   PO442180  43.076  24.481   5.855
 8779POPC   GL142181  43.131  24.525   6.155
 8779POPC   GL242182  43.002  24.556   6.155
 8779POPC   C1A42183  43.151  24.512   6.455
 8779POPC   D2A42184  43.150  24.499   6.755
 8779POPC   C3A42185  43.159  24.529   7.055
 8779POPC   C4A42186  43.098  24.493   7.355
 8779POPC   C1B42187  42.915  24.672   6.455
 8779POPC   C2B42188  42.996  24.659   6.755
 8779POPC   C3B42189  42.980  24.692   7.055
 8779POPC   C4B42190  42.938  24.663   7.355
 8780POPC   NC342191  18.267  15.907   5.555
 8780POPC   PO442192  18.243  15.946   5.855
 8780POPC   GL142193  18.297  15.998   6.155
 8780POPC   GL242194  18.255  16.078   6.155
 8780POPC   C1A42195  18.304  15.996   6.455
 8780POPC   D2A42196  18.263  15.906   6.755
 8780POPC   C3A42197  18.316  15.980   7.055
 8780POPC   C4A42198  18.316  15.969   7.355
 8780POPC   C1B42199  18.205  16.162   6.455
 8780POPC   C2B42200  18.208  16.218   6.755
 8780POPC   C3B42201  18.255  16.166   7.055
 8780POPC   C4B42202  18.228  16.235   7.355
 8781POPC   NC342203   4.310   2.793   5.555
 8781POPC   PO442204   4.277   2.783   5.855
 8781POPC   GL142205   4.286   2.811   6.155
 8781POPC   GL242206   4.278   2.707   6.155
 8781POPC   C1A42207   4.363   2.797   6.455
 8781POPC   D2A42208   4.334   2.738   6.755
 8781POPC   C3A42209   4.273   2.767   7.055
 8781POPC   C4A42210   4.356   2.764   7.355
 8781POPC   C1B42211   4.143   2.521   6.455
 8781POPC   C2B42212   4.127   2.561   6.755
 8781POPC   C3B42213   4.158   2.515   7.055
 8781POPC   C4B42214   4.139   2.583   7.355
 8782POPC   NC342215  26.034  35.326   5.555
 8782POPC   PO442216  26.008  35.394   5.855
 8782POPC   GL142217  26.013  35.354   6.155
 8782POPC   GL242218  26.146  35.243   6.155
 8782POPC   C1A42219  26.083  35.355   6.455
 8782POPC   D2A42220  26.008  35.374   6.755
 8782POPC   C3A42221  26.008  35.343   7.055
 8782POPC   C4A42222  26.080  35.322   7.355
 8782POPC   C1B42223  26.242  35.158   6.455
 8782POPC   C2B42224  26.254  35.219   6.755
 8782POPC   C3B42225  26.227  35.233   7.055
 8782POPC   C4B42226  26.211  35.211   7.355
 8783POPC   NC342227  16.705  26.800   5.555
 8783POPC   PO442228  16.710  26.792   5.855
 8783POPC   GL142229  16.683  26.852   6.155
 8783POPC   GL242230  16.857  26.853   6.155
 8783POPC   C1A42231  16.689  26.845   6.455
 8783POPC   D2A42232  16.709  26.773   6.755
 8783POPC   C3A42233  16.744  26.771   7.055
 8783POPC   C4A42234  16.773  26.779   7.355
 8783POPC   C1B42235  16.973  26.961   6.455
 8783POPC   C2B42236  16.980  26.930   6.755
 8783POPC   C3B42237  17.010  26.951   7.055
 8783POPC   C4B42238  16.991  26.898   7.355
 8784POPC   NC342239  40.793  10.531   5.555
 8784POPC   PO442240  40.776  10.529   5.855
 8784POPC   GL142241  40.750  10.566   6.155
 8784POPC   GL242242  40.690  10.405   6.155
 8784POPC   C1A42243  40.801  10.543   6.455
 8784POPC   D2A42244  40.822  10.531   6.755
 8784POPC   C3A42245  40.777  10.479   7.055
 8784POPC   C4A42246  40.829  10.500   7.355
 8784POPC   C1B42247  40.732  10.303   6.455
 8784POPC   C2B42248  40.654  10.282   6.755
 8784POPC   C3B42249  40.717  10.339   7.055
 8784POPC   C4B42250  40.694  10.334   7.355
 8785POPC   NC342251  35.322  10.480   5.555
 8785POPC   PO442252  35.314  10.480   5.855
 8785POPC   GL142253  35.329  10.484   6.155
 8785POPC   GL242254  35.406  10.459   6.155
 8785POPC   C1A42255  35.353  10.480   6.455
 8785POPC   D2A42256  35.387  10.488   6.755
 8785POPC   C3A42257  35.397  10.482   7.055
 8785POPC   C4A42258  35.350  10.479   7.355
 8785POPC   C1B42259  35.434  10.332   6.455
 8785POPC   C2B42260  35.492  10.264   6.755
 8785POPC   C3B42261  35.470  10.334   7.055
 8785POPC   C4B42262  35.467  10.260   7.355
 8786POPC   NC342263  23.679   7.440   5.555
 8786POPC   PO442264  23.680   7.374   5.855
 8786POPC   GL142265  23.730   7.410   6.155
 8786POPC   GL242266  23.836   7.309   6.155
 8786POPC   C1A42267  23.715   7.425   6.455
 8786POPC   D2A42268  23.752   7.457   6.755
 8786POPC   C3A42269  23.748   7.427   7.055
 8786POPC   C4A42270  23.716   7.415   7.355
 8786POPC   C1B42271  23.902   7.248   6.455
 8786POPC   C2B42272  23.917   7.226   6.755
 8786POPC   C3B42273  23.926   7.322   7.055
 8786POPC   C4B42274  23.901   7.228   7.355
 8787POPC   NC342275  40.783  20.593   5.555
 8787POPC   PO442276  40.766  20.639   5.855
 8787POPC   GL142277  40.775  20.613   6.155
 8787POPC   GL242278  40.628  20.688   6.155
 8787POPC   C1A42279  40.778  20.605   6.455
 8787POPC   D2A42280  40.784  20.630   6.755
 8787POPC   C3A42281  40.797  20.584   7.055
 8787POPC   C4A42282  40.745  20.623   7.355
 8787POPC   C1B42283  40.566  20.705   6.455
 8787POPC   C2B42284  40.526  20.759   6.755
 8787POPC   C3B42285  40.542  20.724   7.055
 8787POPC   C4B42286  40.561  20.726   7.355
 8788POPC   NC342287  26.840  19.814   5.555
 8788POPC   PO442288  26.817  19.801   5.855
 8788POPC   GL142289  26.828  19.786   6.155
 8788POPC   GL242290  26.753  19.751   6.155
 8788POPC   C1A42291  26.837  19.796   6.455
 8788POPC   D2A42292  26.784  19.807   6.755
 8788POPC   C3A42293  26.780  19.818   7.055
 8788POPC   C4A42294  26.802  19.796   7.355
 8788POPC   C1B42295  26.596  19.712   6.455
 8788POPC   C2B42296  26.624  19.734   6.755
 8788POPC   C3B42297  26.629  19.666   7.055
 8788POPC   C4B42298  26.626  19.666   7.355
 8789POPC   NC342299  22.926  35.342   5.555
 8789POPC   PO442300  22.978  35.341   5.855
 8789POPC   GL142301  22.900  35.384   6.155
 8789POPC   GL242302  22.864  35.256   6.155
 8789POPC   C1A42303  22.960  35.351   6.455
 8789POPC   D2A42304  22.976  35.382   6.755
 8789POPC   C3A42305  22.932  35.314   7.055
 8789POPC   C4A42306  22.961  35.394   7.355
 8789POPC   C1B42307  22.867  35.122   6.455
 8789POPC   C2B42308  22.885  35.165   6.755
 8789POPC   C3B42309  22.856  35.080   7.055
 8789POPC   C4B42310  22.817  35.119   7.355
 8790POPC   NC342311   1.199   5.911   5.555
 8790POPC   PO442312   1.183   5.910   5.855
 8790POPC   GL142313   1.188   5.862   6.155
 8790POPC   GL242314   1.250   5.958   6.155
 8790POPC   C1A42315   1.187   5.834   6.455
 8790POPC   D2A42316   1.185   5.861   6.755
 8790POPC   C3A42317   1.236   5.830   7.055
 8790POPC   C4A42318   1.236   5.903   7.355
 8790POPC   C1B42319   1.232   6.105   6.455
 8790POPC   C2B42320   1.312   6.139   6.755
 8790POPC   C3B42321   1.325   6.094   7.055
 8790POPC   C4B42322   1.302   6.117   7.355
 8791POPC   NC342323  19.808  41.545   5.555
 8791POPC   PO442324  19.810  41.527   5.855
 8791POPC   GL142325  19.790  41.533   6.155
 8791POPC   GL242326  19.759  41.464   6.155
 8791POPC   C1A42327  19.815  41.574   6.455
 8791POPC   D2A42328  19.861  41.579   6.755
 8791POPC   C3A42329  19.797  41.526   7.055
 8791POPC   C4A42330  19.873  41.562   7.355
 8791POPC   C1B42331  19.749  41.344   6.455
 8791POPC   C2B42332  19.764  41.321   6.755
 8791POPC   C3B42333  19.753  41.361   7.055
 8791POPC   C4B42334  19.779  41.328   7.355
 8792POPC   NC342335  44.645  10.477   5.555
 8792POPC   PO442336  44.621  10.503   5.855
 8792POPC   GL142337  44.649  10.565   6.155
 8792POPC   GL242338  44.695  10.429   6.155
 8792POPC   C1A42339  44.667  10.556   6.455
 8792POPC   D2A42340  44.617  10.535   6.755
 8792POPC   C3A42341  44.705  10.532   7.055
 8792POPC   C4A42342  44.642  10.560   7.355
 8792POPC   C1B42343  44.731  10.301   6.455
 8792POPC   C2B42344  44.752  10.299   6.755
 8792POPC   C3B42345  44.748  10.254   7.055
 8792POPC   C4B42346  44.782  10.238   7.355
 8793POPC   NC342347  43.837   1.232   5.555
 8793POPC   PO442348  43.889   1.210   5.855
 8793POPC   GL142349  43.862   1.207   6.155
 8793POPC   GL242350  43.920   1.327   6.155
 8793POPC   C1A42351  43.901   1.196   6.455
 8793POPC   D2A42352  43.868   1.210   6.755
 8793POPC   C3A42353  43.871   1.255   7.055
 8793POPC   C4A42354  43.894   1.219   7.355
 8793POPC   C1B42355  43.856   1.456   6.455
 8793POPC   C2B42356  43.818   1.437   6.755
 8793POPC   C3B42357  43.883   1.427   7.055
 8793POPC   C4B42358  43.896   1.461   7.355
 8794POPC   NC342359  38.453  12.125   5.555
 8794POPC   PO442360  38.478  12.036   5.855
 8794POPC   GL142361  38.487  12.122   6.155
 8794POPC   GL242362  38.503  11.994   6.155
 8794POPC   C1A42363  38.411  12.093   6.455
 8794POPC   D2A42364  38.457  12.080   6.755
 8794POPC   C3A42365  38.463  12.105   7.055
 8794POPC   C4A42366  38.442  12.033   7.355
 8794POPC   C1B42367  38.447  11.872   6.455
 8794POPC   C2B42368  38.441  11.862   6.755
 8794POPC   C3B42369  38.527  11.780   7.055
 8794POPC   C4B42370  38.470  11.838   7.355
 8795POPC   NC342371   6.650  15.935   5.555
 8795POPC   PO442372   6.675  15.971   5.855
 8795POPC   GL142373   6.598  16.002   6.155
 8795POPC   GL242374   6.709  15.848   6.155
 8795POPC   C1A42375   6.603  15.961   6.455
 8795POPC   D2A42376   6.624  15.931   6.755
 8795POPC   C3A42377   6.665  15.908   7.055
 8795POPC   C4A42378   6.601  15.939   7.355
 8795POPC   C1B42379   6.839  15.843   6.455
 8795POPC   C2B42380   6.855  15.786   6.755
 8795POPC   C3B42381   6.867  15.752   7.055
 8795POPC   C4B42382   6.892  15.827   7.355
 8796POPC   NC342383  37.662   0.445   5.555
 8796POPC   PO442384  37.632   0.462   5.855
 8796POPC   GL142385  37.688   0.462   6.155
 8796POPC   GL242386  37.725   0.295   6.155
 8796POPC   C1A42387  37.631   0.452   6.455
 8796POPC   D2A42388  37.697   0.389   6.755
 8796POPC   C3A42389  37.728   0.466   7.055
 8796POPC   C4A42390  37.694   0.416   7.355
 8796POPC   C1B42391  37.810   0.249   6.455
 8796POPC   C2B42392  37.845   0.282   6.755
 8796POPC   C3B42393  37.874   0.282   7.055
 8796POPC   C4B42394  37.855   0.209   7.355
 8797POPC   NC342395  15.201   2.766   5.555
 8797POPC   PO442396  15.135   2.760   5.855
 8797POPC   GL142397  15.149   2.803   6.155
 8797POPC   GL242398  15.341   2.697   6.155
 8797POPC   C1A42399  15.198   2.739   6.455
 8797POPC   D2A42400  15.166   2.801   6.755
 8797POPC   C3A42401  15.144   2.792   7.055
 8797POPC   C4A42402  15.183   2.727   7.355
 8797POPC   C1B42403  15.457   2.735   6.455
 8797POPC   C2B42404  15.437   2.751   6.755
 8797POPC   C3B42405  15.458   2.704   7.055
 8797POPC   C4B42406  15.411   2.743   7.355
 8798POPC   NC342407  13.586  29.954   5.555
 8798POPC   PO442408  13.663  29.899   5.855
 8798POPC   GL142409  13.610  29.898   6.155
 8798POPC   GL242410  13.757  29.849   6.155
 8798POPC   C1A42411  13.645  29.964   6.455
 8798POPC   D2A42412  13.614  29.921   6.755
 8798POPC   C3A42413  13.619  29.886   7.055
 8798POPC   C4A42414  13.628  29.876   7.355
 8798POPC   C1B42415  13.903  29.802   6.455
 8798POPC   C2B42416  13.859  29.848   6.755
 8798POPC   C3B42417  13.902  29.774   7.055
 8798POPC   C4B42418  13.808  29.801   7.355
 8799POPC   NC342419  26.089  26.822   5.555
 8799POPC   PO442420  26.042  26.866   5.855
 8799POPC   GL142421  26.016  26.845   6.155
 8799POPC   GL242422  26.111  26.715   6.155
 8799POPC   C1A42423  26.075  26.839   6.455
 8799POPC   D2A42424  26.009  26.784   6.755
 8799POPC   C3A42425  26.022  26.851   7.055
 8799POPC   C4A42426  26.090  26.792   7.355
 8799POPC   C1B42427  26.247  26.601   6.455
 8799POPC   C2B42428  26.169  26.589   6.755
 8799POPC   C3B42429  26.240  26.628   7.055
 8799POPC   C4B42430  26.188  26.596   7.355
 8800POPC   NC342431  41.604  22.170   5.555
 8800POPC   PO442432  41.528  22.149   5.855
 8800POPC   GL142433  41.576  22.204   6.155
 8800POPC   GL242434  41.534  22.003   6.155
 8800POPC   C1A42435  41.561  22.143   6.455
 8800POPC   D2A42436  41.516  22.172   6.755
 8800POPC   C3A42437  41.509  22.112   7.055
 8800POPC   C4A42438  41.555  22.207   7.355
 8800POPC   C1B42439  41.519  21.946   6.455
 8800POPC   C2B42440  41.545  21.932   6.755
 8800POPC   C3B42441  41.558  21.939   7.055
 8800POPC   C4B42442  41.534  21.910   7.355
 8801POPC   NC342443  37.678  36.942   5.555
 8801POPC   PO442444  37.718  36.904   5.855
 8801POPC   GL142445  37.660  36.939   6.155
 8801POPC   GL242446  37.624  36.973   6.155
 8801POPC   C1A42447  37.729  36.953   6.455
 8801POPC   D2A42448  37.721  36.876   6.755
 8801POPC   C3A42449  37.639  36.946   7.055
 8801POPC   C4A42450  37.718  36.890   7.355
 8801POPC   C1B42451  37.437  37.026   6.455
 8801POPC   C2B42452  37.466  37.068   6.755
 8801POPC   C3B42453  37.468  37.089   7.055
 8801POPC   C4B42454  37.485  37.027   7.355
 8802POPC   NC342455  25.230   7.426   5.555
 8802POPC   PO442456  25.260   7.469   5.855
 8802POPC   GL142457  25.264   7.409   6.155
 8802POPC   GL242458  25.224   7.303   6.155
 8802POPC   C1A42459  25.233   7.375   6.455
 8802POPC   D2A42460  25.294   7.401   6.755
 8802POPC   C3A42461  25.275   7.412   7.055
 8802POPC   C4A42462  25.219   7.449   7.355
 8802POPC   C1B42463  25.170   7.217   6.455
 8802POPC   C2B42464  25.222   7.214   6.755
 8802POPC   C3B42465  25.164   7.217   7.055
 8802POPC   C4B42466  25.215   7.147   7.355
 8803POPC   NC342467  15.950  10.553   5.555
 8803POPC   PO442468  15.993  10.545   5.855
 8803POPC   GL142469  15.939  10.524   6.155
 8803POPC   GL242470  16.083  10.450   6.155
 8803POPC   C1A42471  15.935  10.566   6.455
 8803POPC   D2A42472  15.916  10.475   6.755
 8803POPC   C3A42473  15.973  10.563   7.055
 8803POPC   C4A42474  15.984  10.553   7.355
 8803POPC   C1B42475  16.242  10.487   6.455
 8803POPC   C2B42476  16.211  10.497   6.755
 8803POPC   C3B42477  16.199  10.456   7.055
 8803POPC   C4B42478  16.174  10.514   7.355
 8804POPC   NC342479   0.481   5.061   5.555
 8804POPC   PO442480   0.400   5.121   5.855
 8804POPC   GL142481   0.446   5.111   6.155
 8804POPC   GL242482   0.383   4.959   6.155
 8804POPC   C1A42483   0.456   5.125   6.455
 8804POPC   D2A42484   0.408   5.123   6.755
 8804POPC   C3A42485   0.467   5.128   7.055
 8804POPC   C4A42486   0.443   5.120   7.355
 8804POPC   C1B42487   0.229   4.922   6.455
 8804POPC   C2B42488   0.238   4.933   6.755
 8804POPC   C3B42489   0.273   4.895   7.055
 8804POPC   C4B42490   0.303   4.917   7.355
 8805POPC   NC342491   3.562  12.837   5.555
 8805POPC   PO442492   3.538  12.862   5.855
 8805POPC   GL142493   3.554  12.901   6.155
 8805POPC   GL242494   3.591  12.760   6.155
 8805POPC   C1A42495   3.576  12.884   6.455
 8805POPC   D2A42496   3.501  12.838   6.755
 8805POPC   C3A42497   3.519  12.891   7.055
 8805POPC   C4A42498   3.570  12.865   7.355
 8805POPC   C1B42499   3.730  12.662   6.455
 8805POPC   C2B42500   3.716  12.652   6.755
 8805POPC   C3B42501   3.691  12.609   7.055
 8805POPC   C4B42502   3.708  12.635   7.355
 8806POPC   NC342503   1.258   0.467   5.555
 8806POPC   PO442504   1.241   0.420   5.855
 8806POPC   GL142505   1.212   0.435   6.155
 8806POPC   GL242506   1.103   0.456   6.155
 8806POPC   C1A42507   1.251   0.457   6.455
 8806POPC   D2A42508   1.255   0.396   6.755
 8806POPC   C3A42509   1.203   0.474   7.055
 8806POPC   C4A42510   1.207   0.421   7.355
 8806POPC   C1B42511   0.993   0.496   6.455
 8806POPC   C2B42512   0.981   0.460   6.755
 8806POPC   C3B42513   0.945   0.484   7.055
 8806POPC   C4B42514   0.982   0.497   7.355
 8807POPC   NC342515  31.519  44.629   5.555
 8807POPC   PO442516  31.438  44.638   5.855
 8807POPC   GL142517  31.507  44.706   6.155
 8807POPC   GL242518  31.359  44.540   6.155
 8807POPC   C1A42519  31.429  44.711   6.455
 8807POPC   D2A42520  31.488  44.622   6.755
 8807POPC   C3A42521  31.433  44.626   7.055
 8807POPC   C4A42522  31.437  44.663   7.355
 8807POPC   C1B42523  31.235  44.532   6.455
 8807POPC   C2B42524  31.242  44.528   6.755
 8807POPC   C3B42525  31.311  44.528   7.055
 8807POPC   C4B42526  31.311  44.522   7.355
 8808POPC   NC342527   1.259   1.195   5.555
 8808POPC   PO442528   1.261   1.238   5.855
 8808POPC   GL142529   1.213   1.205   6.155
 8808POPC   GL242530   1.182   1.099   6.155
 8808POPC   C1A42531   1.250   1.187   6.455
 8808POPC   D2A42532   1.179   1.210   6.755
 8808POPC   C3A42533   1.233   1.182   7.055
 8808POPC   C4A42534   1.244   1.167   7.355
 8808POPC   C1B42535   1.201   1.015   6.455
 8808POPC   C2B42536   1.216   0.937   6.755
 8808POPC   C3B42537   1.132   0.949   7.055
 8808POPC   C4B42538   1.145   0.961   7.355
 8809POPC   NC342539  21.397  20.637   5.555
 8809POPC   PO442540  21.351  20.566   5.855
 8809POPC   GL142541  21.385  20.585   6.155
 8809POPC   GL242542  21.313  20.667   6.155
 8809POPC   C1A42543  21.424  20.648   6.455
 8809POPC   D2A42544  21.367  20.572   6.755
 8809POPC   C3A42545  21.353  20.626   7.055
 8809POPC   C4A42546  21.373  20.646   7.355
 8809POPC   C1B42547  21.209  20.733   6.455
 8809POPC   C2B42548  21.156  20.758   6.755
 8809POPC   C3B42549  21.185  20.735   7.055
 8809POPC   C4B42550  21.204  20.759   7.355
 8810POPC   NC342551  31.430  15.211   5.555
 8810POPC   PO442552  31.439  15.162   5.855
 8810POPC   GL142553  31.505  15.217   6.155
 8810POPC   GL242554  31.351  15.170   6.155
 8810POPC   C1A42555  31.485  15.172   6.455
 8810POPC   D2A42556  31.503  15.148   6.755
 8810POPC   C3A42557  31.452  15.197   7.055
 8810POPC   C4A42558  31.424  15.170   7.355
 8810POPC   C1B42559  31.238  15.168   6.455
 8810POPC   C2B42560  31.265  15.090   6.755
 8810POPC   C3B42561  31.210  15.086   7.055
 8810POPC   C4B42562  31.178  15.154   7.355
 8811POPC   NC342563  40.776  34.546   5.555
 8811POPC   PO442564  40.824  34.598   5.855
 8811POPC   GL142565  40.747  34.575   6.155
 8811POPC   GL242566  40.776  34.660   6.155
 8811POPC   C1A42567  40.806  34.560   6.455
 8811POPC   D2A42568  40.817  34.566   6.755
 8811POPC   C3A42569  40.811  34.534   7.055
 8811POPC   C4A42570  40.753  34.617   7.355
 8811POPC   C1B42571  40.858  34.816   6.455
 8811POPC   C2B42572  40.780  34.874   6.755
 8811POPC   C3B42573  40.794  34.799   7.055
 8811POPC   C4B42574  40.853  34.834   7.355
 8812POPC   NC342575  26.820  42.308   5.555
 8812POPC   PO442576  26.814  42.311   5.855
 8812POPC   GL142577  26.818  42.344   6.155
 8812POPC   GL242578  26.878  42.383   6.155
 8812POPC   C1A42579  26.860  42.314   6.455
 8812POPC   D2A42580  26.843  42.323   6.755
 8812POPC   C3A42581  26.833  42.328   7.055
 8812POPC   C4A42582  26.827  42.379   7.355
 8812POPC   C1B42583  26.945  42.579   6.455
 8812POPC   C2B42584  26.961  42.548   6.755
 8812POPC   C3B42585  26.966  42.497   7.055
 8812POPC   C4B42586  26.925  42.516   7.355
 8813POPC   NC342587   9.783   1.245   5.555
 8813POPC   PO442588   9.712   1.204   5.855
 8813POPC   GL142589   9.767   1.194   6.155
 8813POPC   GL242590   9.638   1.179   6.155
 8813POPC   C1A42591   9.767   1.260   6.455
 8813POPC   D2A42592   9.721   1.249   6.755
 8813POPC   C3A42593   9.725   1.237   7.055
 8813POPC   C4A42594   9.717   1.259   7.355
 8813POPC   C1B42595   9.491   1.145   6.455
 8813POPC   C2B42596   9.481   1.118   6.755
 8813POPC   C3B42597   9.539   1.150   7.055
 8813POPC   C4B42598   9.475   1.154   7.355
 8814POPC   NC342599  34.604  33.807   5.555
 8814POPC   PO442600  34.607  33.811   5.855
 8814POPC   GL142601  34.528  33.842   6.155
 8814POPC   GL242602  34.443  33.827   6.155
 8814POPC   C1A42603  34.529  33.845   6.455
 8814POPC   D2A42604  34.556  33.797   6.755
 8814POPC   C3A42605  34.618  33.762   7.055
 8814POPC   C4A42606  34.582  33.838   7.355
 8814POPC   C1B42607  34.339  33.752   6.455
 8814POPC   C2B42608  34.289  33.757   6.755
 8814POPC   C3B42609  34.363  33.759   7.055
 8814POPC   C4B42610  34.286  33.749   7.355
 8815POPC   NC342611   7.460  20.600   5.555
 8815POPC   PO442612   7.427  20.577   5.855
 8815POPC   GL142613   7.388  20.575   6.155
 8815POPC   GL242614   7.330  20.699   6.155
 8815POPC   C1A42615   7.440  20.574   6.455
 8815POPC   D2A42616   7.453  20.586   6.755
 8815POPC   C3A42617   7.416  20.621   7.055
 8815POPC   C4A42618   7.452  20.602   7.355
 8815POPC   C1B42619   7.258  20.757   6.455
 8815POPC   C2B42620   7.283  20.795   6.755
 8815POPC   C3B42621   7.239  20.798   7.055
 8815POPC   C4B42622   7.272  20.758   7.355
 8816POPC   NC342623  43.152   7.399   5.555
 8816POPC   PO442624  43.132   7.468   5.855
 8816POPC   GL142625  43.080   7.392   6.155
 8816POPC   GL242626  43.040   7.346   6.155
 8816POPC   C1A42627  43.117   7.455   6.455
 8816POPC   D2A42628  43.124   7.464   6.755
 8816POPC   C3A42629  43.093   7.419   7.055
 8816POPC   C4A42630  43.156   7.383   7.355
 8816POPC   C1B42631  42.889   7.364   6.455
 8816POPC   C2B42632  42.911   7.320   6.755
 8816POPC   C3B42633  42.845   7.266   7.055
 8816POPC   C4B42634  42.885   7.347   7.355
 8817POPC   NC342635  33.764  43.103   5.555
 8817POPC   PO442636  33.849  43.103   5.855
 8817POPC   GL142637  33.770  43.131   6.155
 8817POPC   GL242638  33.915  43.013   6.155
 8817POPC   C1A42639  33.814  43.079   6.455
 8817POPC   D2A42640  33.822  43.157   6.755
 8817POPC   C3A42641  33.850  43.159   7.055
 8817POPC   C4A42642  33.805  43.078   7.355
 8817POPC   C1B42643  34.018  42.971   6.455
 8817POPC   C2B42644  34.034  42.932   6.755
 8817POPC   C3B42645  34.044  42.999   7.055
 8817POPC   C4B42646  34.049  42.982   7.355
 8818POPC   NC342647   8.933  30.710   5.555
 8818POPC   PO442648   8.959  30.722   5.855
 8818POPC   GL142649   8.961  30.737   6.155
 8818POPC   GL242650   9.039  30.595   6.155
 8818POPC   C1A42651   8.985  30.735   6.455
 8818POPC   D2A42652   9.017  30.736   6.755
 8818POPC   C3A42653   8.969  30.734   7.055
 8818POPC   C4A42654   8.972  30.733   7.355
 8818POPC   C1B42655   9.041  30.487   6.455
 8818POPC   C2B42656   8.992  30.413   6.755
 8818POPC   C3B42657   8.987  30.471   7.055
 8818POPC   C4B42658   8.975  30.440   7.355
 8819POPC   NC342659  19.810  22.942   5.555
 8819POPC   PO442660  19.841  22.952   5.855
 8819POPC   GL142661  19.811  22.925   6.155
 8819POPC   GL242662  19.701  22.976   6.155
 8819POPC   C1A42663  19.866  22.928   6.455
 8819POPC   D2A42664  19.800  22.957   6.755
 8819POPC   C3A42665  19.820  22.910   7.055
 8819POPC   C4A42666  19.812  22.909   7.355
 8819POPC   C1B42667  19.573  23.108   6.455
 8819POPC   C2B42668  19.570  23.055   6.755
 8819POPC   C3B42669  19.601  23.109   7.055
 8819POPC   C4B42670  19.615  23.032   7.355
 8820POPC   NC342671  34.597  14.407   5.555
 8820POPC   PO442672  34.592  14.438   5.855
 8820POPC   GL142673  34.530  14.373   6.155
 8820POPC   GL242674  34.580  14.527   6.155
 8820POPC   C1A42675  34.588  14.426   6.455
 8820POPC   D2A42676  34.623  14.381   6.755
 8820POPC   C3A42677  34.600  14.410   7.055
 8820POPC   C4A42678  34.573  14.453   7.355
 8820POPC   C1B42679  34.560  14.668   6.455
 8820POPC   C2B42680  34.543  14.604   6.755
 8820POPC   C3B42681  34.596  14.702   7.055
 8820POPC   C4B42682  34.519  14.685   7.355
 8821POPC   NC342683   5.055   0.435   5.555
 8821POPC   PO442684   5.099   0.434   5.855
 8821POPC   GL142685   5.053   0.466   6.155
 8821POPC   GL242686   5.054   0.595   6.155
 8821POPC   C1A42687   5.107   0.397   6.455
 8821POPC   D2A42688   5.048   0.392   6.755
 8821POPC   C3A42689   5.068   0.436   7.055
 8821POPC   C4A42690   5.111   0.401   7.355
 8821POPC   C1B42691   5.049   0.702   6.455
 8821POPC   C2B42692   5.062   0.724   6.755
 8821POPC   C3B42693   5.082   0.671   7.055
 8821POPC   C4B42694   4.993   0.646   7.355
 8822POPC   NC342695  43.148  34.534   5.555
 8822POPC   PO442696  43.141  34.574   5.855
 8822POPC   GL142697  43.070  34.547   6.155
 8822POPC   GL242698  43.234  34.641   6.155
 8822POPC   C1A42699  43.126  34.531   6.455
 8822POPC   D2A42700  43.110  34.527   6.755
 8822POPC   C3A42701  43.150  34.541   7.055
 8822POPC   C4A42702  43.128  34.582   7.355
 8822POPC   C1B42703  43.333  34.766   6.455
 8822POPC   C2B42704  43.330  34.703   6.755
 8822POPC   C3B42705  43.332  34.757   7.055
 8822POPC   C4B42706  43.283  34.722   7.355
 8823POPC   NC342707   3.510   2.003   5.555
 8823POPC   PO442708   3.529   1.987   5.855
 8823POPC   GL142709   3.550   2.023   6.155
 8823POPC   GL242710   3.455   2.044   6.155
 8823POPC   C1A42711   3.537   2.006   6.455
 8823POPC   D2A42712   3.585   2.013   6.755
 8823POPC   C3A42713   3.535   1.973   7.055
 8823POPC   C4A42714   3.550   1.970   7.355
 8823POPC   C1B42715   3.360   2.235   6.455
 8823POPC   C2B42716   3.420   2.225   6.755
 8823POPC   C3B42717   3.401   2.223   7.055
 8823POPC   C4B42718   3.376   2.191   7.355
 8824POPC   NC342719  34.555   9.788   5.555
 8824POPC   PO442720  34.580   9.748   5.855
 8824POPC   GL142721  34.549   9.797   6.155
 8824POPC   GL242722  34.487   9.722   6.155
 8824POPC   C1A42723  34.546   9.761   6.455
 8824POPC   D2A42724  34.547   9.726   6.755
 8824POPC   C3A42725  34.585   9.777   7.055
 8824POPC   C4A42726  34.546   9.712   7.355
 8824POPC   C1B42727  34.345   9.790   6.455
 8824POPC   C2B42728  34.304   9.789   6.755
 8824POPC   C3B42729  34.336   9.802   7.055
 8824POPC   C4B42730  34.373   9.776   7.355
 8825POPC   NC342731  35.336   2.763   5.555
 8825POPC   PO442732  35.305   2.783   5.855
 8825POPC   GL142733  35.333   2.784   6.155
 8825POPC   GL242734  35.452   2.731   6.155
 8825POPC   C1A42735  35.379   2.746   6.455
 8825POPC   D2A42736  35.313   2.745   6.755
 8825POPC   C3A42737  35.320   2.761   7.055
 8825POPC   C4A42738  35.325   2.789   7.355
 8825POPC   C1B42739  35.536   2.610   6.455
 8825POPC   C2B42740  35.584   2.639   6.755
 8825POPC   C3B42741  35.512   2.587   7.055
 8825POPC   C4B42742  35.517   2.588   7.355
 8826POPC   NC342743   5.097  29.939   5.555
 8826POPC   PO442744   5.095  29.900   5.855
 8826POPC   GL142745   5.120  29.905   6.155
 8826POPC   GL242746   5.064  29.845   6.155
 8826POPC   C1A42747   5.050  29.878   6.455
 8826POPC   D2A42748   5.142  29.920   6.755
 8826POPC   C3A42749   5.067  29.875   7.055
 8826POPC   C4A42750   5.128  29.930   7.355
 8826POPC   C1B42751   5.136  29.704   6.455
 8826POPC   C2B42752   5.102  29.672   6.755
 8826POPC   C3B42753   5.177  29.626   7.055
 8826POPC   C4B42754   5.181  29.668   7.355
 8827POPC   NC342755  36.155  43.157   5.555
 8827POPC   PO442756  36.146  43.126   5.855
 8827POPC   GL142757  36.168  43.151   6.155
 8827POPC   GL242758  36.192  43.022   6.155
 8827POPC   C1A42759  36.164  43.087   6.455
 8827POPC   D2A42760  36.154  43.065   6.755
 8827POPC   C3A42761  36.114  43.061   7.055
 8827POPC   C4A42762  36.154  43.072   7.355
 8827POPC   C1B42763  36.281  42.919   6.455
 8827POPC   C2B42764  36.290  42.882   6.755
 8827POPC   C3B42765  36.252  42.915   7.055
 8827POPC   C4B42766  36.254  42.944   7.355
 8828POPC   NC342767  19.877  27.633   5.555
 8828POPC   PO442768  19.876  27.631   5.855
 8828POPC   GL142769  19.849  27.633   6.155
 8828POPC   GL242770  19.713  27.691   6.155
 8828POPC   C1A42771  19.869  27.582   6.455
 8828POPC   D2A42772  19.872  27.641   6.755
 8828POPC   C3A42773  19.880  27.546   7.055
 8828POPC   C4A42774  19.853  27.546   7.355
 8828POPC   C1B42775  19.674  27.780   6.455
 8828POPC   C2B42776  19.664  27.749   6.755
 8828POPC   C3B42777  19.660  27.758   7.055
 8828POPC   C4B42778  19.645  27.768   7.355
 8829POPC   NC342779  37.636  15.209   5.555
 8829POPC   PO442780  37.684  15.191   5.855
 8829POPC   GL142781  37.679  15.144   6.155
 8829POPC   GL242782  37.683  15.081   6.155
 8829POPC   C1A42783  37.668  15.209   6.455
 8829POPC   D2A42784  37.649  15.209   6.755
 8829POPC   C3A42785  37.695  15.154   7.055
 8829POPC   C4A42786  37.685  15.187   7.355
 8829POPC   C1B42787  37.646  14.924   6.455
 8829POPC   C2B42788  37.609  14.974   6.755
 8829POPC   C3B42789  37.668  14.918   7.055
 8829POPC   C4B42790  37.669  14.972   7.355
 8830POPC   NC342791   8.155  10.492   5.555
 8830POPC   PO442792   8.213  10.557   5.855
 8830POPC   GL142793   8.214  10.494   6.155
 8830POPC   GL242794   8.321  10.487   6.155
 8830POPC   C1A42795   8.161  10.494   6.455
 8830POPC   D2A42796   8.160  10.535   6.755
 8830POPC   C3A42797   8.193  10.558   7.055
 8830POPC   C4A42798   8.216  10.520   7.355
 8830POPC   C1B42799   8.383  10.427   6.455
 8830POPC   C2B42800   8.412  10.437   6.755
 8830POPC   C3B42801   8.398  10.407   7.055
 8830POPC   C4B42802   8.408  10.433   7.355
 8831POPC   NC342803  10.531  29.105   5.555
 8831POPC   PO442804  10.547  29.172   5.855
 8831POPC   GL142805  10.480  29.138   6.155
 8831POPC   GL242806  10.485  29.053   6.155
 8831POPC   C1A42807  10.555  29.151   6.455
 8831POPC   D2A42808  10.517  29.150   6.755
 8831POPC   C3A42809  10.525  29.176   7.055
 8831POPC   C4A42810  10.552  29.181   7.355
 8831POPC   C1B42811  10.501  28.903   6.455
 8831POPC   C2B42812  10.543  28.864   6.755
 8831POPC   C3B42813  10.538  28.926   7.055
 8831POPC   C4B42814  10.476  28.926   7.355
 8832POPC   NC342815  12.804  25.277   5.555
 8832POPC   PO442816  12.827  25.290   5.855
 8832POPC   GL142817  12.817  25.314   6.155
 8832POPC   GL242818  12.739  25.132   6.155
 8832POPC   C1A42819  12.891  25.229   6.455
 8832POPC   D2A42820  12.846  25.235   6.755
 8832POPC   C3A42821  12.820  25.304   7.055
 8832POPC   C4A42822  12.883  25.229   7.355
 8832POPC   C1B42823  12.698  25.122   6.455
 8832POPC   C2B42824  12.661  25.030   6.755
 8832POPC   C3B42825  12.658  25.055   7.055
 8832POPC   C4B42826  12.704  25.065   7.355
 8833POPC   NC342827   0.428  23.716   5.555
 8833POPC   PO442828   0.423  23.709   5.855
 8833POPC   GL142829   0.392  23.664   6.155
 8833POPC   GL242830   0.338  23.833   6.155
 8833POPC   C1A42831   0.408  23.709   6.455
 8833POPC   D2A42832   0.391  23.710   6.755
 8833POPC   C3A42833   0.462  23.686   7.055
 8833POPC   C4A42834   0.408  23.752   7.355
 8833POPC   C1B42835   0.242  23.888   6.455
 8833POPC   C2B42836   0.223  23.898   6.755
 8833POPC   C3B42837   0.315  23.871   7.055
 8833POPC   C4B42838   0.275  23.905   7.355
 8834POPC   NC342839  40.819   9.741   5.555
 8834POPC   PO442840  40.801   9.762   5.855
 8834POPC   GL142841  40.787   9.729   6.155
 8834POPC   GL242842  40.743   9.647   6.155
 8834POPC   C1A42843  40.734   9.749   6.455
 8834POPC   D2A42844  40.756   9.744   6.755
 8834POPC   C3A42845  40.805   9.746   7.055
 8834POPC   C4A42846  40.794   9.717   7.355
 8834POPC   C1B42847  40.668   9.554   6.455
 8834POPC   C2B42848  40.672   9.562   6.755
 8834POPC   C3B42849  40.687   9.553   7.055
 8834POPC   C4B42850  40.705   9.485   7.355
 8835POPC   NC342851  32.282  13.633   5.555
 8835POPC   PO442852  32.291  13.658   5.855
 8835POPC   GL142853  32.260  13.579   6.155
 8835POPC   GL242854  32.086  13.570   6.155
 8835POPC   C1A42855  32.284  13.584   6.455
 8835POPC   D2A42856  32.207  13.640   6.755
 8835POPC   C3A42857  32.264  13.648   7.055
 8835POPC   C4A42858  32.255  13.590   7.355
 8835POPC   C1B42859  31.960  13.569   6.455
 8835POPC   C2B42860  32.054  13.529   6.755
 8835POPC   C3B42861  31.982  13.520   7.055
 8835POPC   C4B42862  32.015  13.557   7.355
 8836POPC   NC342863   8.244  22.166   5.555
 8836POPC   PO442864   8.160  22.159   5.855
 8836POPC   GL142865   8.191  22.209   6.155
 8836POPC   GL242866   8.049  22.065   6.155
 8836POPC   C1A42867   8.175  22.150   6.455
 8836POPC   D2A42868   8.236  22.179   6.755
 8836POPC   C3A42869   8.230  22.210   7.055
 8836POPC   C4A42870   8.172  22.129   7.355
 8836POPC   C1B42871   7.962  22.018   6.455
 8836POPC   C2B42872   7.958  22.080   6.755
 8836POPC   C3B42873   8.009  22.026   7.055
 8836POPC   C4B42874   7.942  22.043   7.355
 8837POPC   NC342875  11.257  21.391   5.555
 8837POPC   PO442876  11.323  21.389   5.855
 8837POPC   GL142877  11.330  21.430   6.155
 8837POPC   GL242878  11.456  21.388   6.155
 8837POPC   C1A42879  11.255  21.346   6.455
 8837POPC   D2A42880  11.330  21.409   6.755
 8837POPC   C3A42881  11.259  21.373   7.055
 8837POPC   C4A42882  11.267  21.422   7.355
 8837POPC   C1B42883  11.534  21.465   6.455
 8837POPC   C2B42884  11.534  21.419   6.755
 8837POPC   C3B42885  11.523  21.469   7.055
 8837POPC   C4B42886  11.542  21.389   7.355
 8838POPC   NC342887  42.287  27.543   5.555
 8838POPC   PO442888  42.326  27.617   5.855
 8838POPC   GL142889  42.307  27.582   6.155
 8838POPC   GL242890  42.359  27.736   6.155
 8838POPC   C1A42891  42.315  27.611   6.455
 8838POPC   D2A42892  42.290  27.576   6.755
 8838POPC   C3A42893  42.353  27.574   7.055
 8838POPC   C4A42894  42.294  27.563   7.355
 8838POPC   C1B42895  42.396  27.855   6.455
 8838POPC   C2B42896  42.468  27.829   6.755
 8838POPC   C3B42897  42.405  27.816   7.055
 8838POPC   C4B42898  42.481  27.837   7.355
 8839POPC   NC342899  11.303  22.152   5.555
 8839POPC   PO442900  11.304  22.210   5.855
 8839POPC   GL142901  11.338  22.126   6.155
 8839POPC   GL242902  11.424  22.192   6.155
 8839POPC   C1A42903  11.252  22.192   6.455
 8839POPC   D2A42904  11.336  22.155   6.755
 8839POPC   C3A42905  11.272  22.156   7.055
 8839POPC   C4A42906  11.271  22.174   7.355
 8839POPC   C1B42907  11.594  22.168   6.455
 8839POPC   C2B42908  11.585  22.103   6.755
 8839POPC   C3B42909  11.588  22.185   7.055
 8839POPC   C4B42910  11.523  22.134   7.355
 8840POPC   NC342911   5.904  21.415   5.555
 8840POPC   PO442912   5.863  21.366   5.855
 8840POPC   GL142913   5.883  21.386   6.155
 8840POPC   GL242914   5.968  21.328   6.155
 8840POPC   C1A42915   5.896  21.394   6.455
 8840POPC   D2A42916   5.879  21.367   6.755
 8840POPC   C3A42917   5.831  21.402   7.055
 8840POPC   C4A42918   5.834  21.377   7.355
 8840POPC   C1B42919   6.102  21.295   6.455
 8840POPC   C2B42920   6.097  21.277   6.755
 8840POPC   C3B42921   6.126  21.289   7.055
 8840POPC   C4B42922   6.078  21.326   7.355
 8841POPC   NC342923   5.915  36.951   5.555
 8841POPC   PO442924   5.837  36.911   5.855
 8841POPC   GL142925   5.868  36.937   6.155
 8841POPC   GL242926   6.020  36.997   6.155
 8841POPC   C1A42927   5.917  36.864   6.455
 8841POPC   D2A42928   5.869  36.924   6.755
 8841POPC   C3A42929   5.898  36.936   7.055
 8841POPC   C4A42930   5.870  36.903   7.355
 8841POPC   C1B42931   6.071  36.960   6.455
 8841POPC   C2B42932   6.071  36.966   6.755
 8841POPC   C3B42933   6.105  36.966   7.055
 8841POPC   C4B42934   6.099  37.042   7.355
 8842POPC   NC342935  29.916  23.676   5.555
 8842POPC   PO442936  29.945  23.703   5.855
 8842POPC   GL142937  29.871  23.700   6.155
 8842POPC   GL242938  29.759  23.754   6.155
 8842POPC   C1A42939  29.893  23.706   6.455
 8842POPC   D2A42940  29.928  23.762   6.755
 8842POPC   C3A42941  29.884  23.694   7.055
 8842POPC   C4A42942  29.923  23.676   7.355
 8842POPC   C1B42943  29.704  23.828   6.455
 8842POPC   C2B42944  29.721  23.817   6.755
 8842POPC   C3B42945  29.678  23.822   7.055
 8842POPC   C4B42946  29.665  23.787   7.355
 8843POPC   NC342947  39.265  19.037   5.555
 8843POPC   PO442948  39.229  19.078   5.855
 8843POPC   GL142949  39.265  19.052   6.155
 8843POPC   GL242950  39.256  18.973   6.155
 8843POPC   C1A42951  39.272  19.010   6.455
 8843POPC   D2A42952  39.185  19.091   6.755
 8843POPC   C3A42953  39.281  19.030   7.055
 8843POPC   C4A42954  39.264  19.066   7.355
 8843POPC   C1B42955  39.246  18.812   6.455
 8843POPC   C2B42956  39.238  18.804   6.755
 8843POPC   C3B42957  39.245  18.781   7.055
 8843POPC   C4B42958  39.225  18.844   7.355
 8844POPC   NC342959  27.642   1.228   5.555
 8844POPC   PO442960  27.613   1.179   5.855
 8844POPC   GL142961  27.544   1.176   6.155
 8844POPC   GL242962  27.673   1.060   6.155
 8844POPC   C1A42963  27.590   1.170   6.455
 8844POPC   D2A42964  27.608   1.183   6.755
 8844POPC   C3A42965  27.608   1.242   7.055
 8844POPC   C4A42966  27.643   1.193   7.355
 8844POPC   C1B42967  27.670   0.980   6.455
 8844POPC   C2B42968  27.676   0.948   6.755
 8844POPC   C3B42969  27.695   0.949   7.055
 8844POPC   C4B42970  27.669   1.015   7.355
 8845POPC   NC342971  22.119  22.125   5.555
 8845POPC   PO442972  22.125  22.132   5.855
 8845POPC   GL142973  22.136  22.209   6.155
 8845POPC   GL242974  22.079  22.007   6.155
 8845POPC   C1A42975  22.164  22.205   6.455
 8845POPC   D2A42976  22.146  22.120   6.755
 8845POPC   C3A42977  22.175  22.199   7.055
 8845POPC   C4A42978  22.119  22.158   7.355
 8845POPC   C1B42979  22.088  21.919   6.455
 8845POPC   C2B42980  22.021  21.976   6.755
 8845POPC   C3B42981  22.077  21.981   7.055
 8845POPC   C4B42982  22.072  21.981   7.355
 8846POPC   NC342983  22.190  41.524   5.555
 8846POPC   PO442984  22.172  41.577   5.855
 8846POPC   GL142985  22.131  41.550   6.155
 8846POPC   GL242986  22.167  41.434   6.155
 8846POPC   C1A42987  22.154  41.566   6.455
 8846POPC   D2A42988  22.113  41.513   6.755
 8846POPC   C3A42989  22.167  41.579   7.055
 8846POPC   C4A42990  22.174  41.526   7.355
 8846POPC   C1B42991  22.211  41.327   6.455
 8846POPC   C2B42992  22.150  41.343   6.755
 8846POPC   C3B42993  22.241  41.262   7.055
 8846POPC   C4B42994  22.178  41.298   7.355
 8847POPC   NC342995   5.123  36.163   5.555
 8847POPC   PO442996   5.072  36.101   5.855
 8847POPC   GL142997   5.142  36.138   6.155
 8847POPC   GL242998   5.213  36.158   6.155
 8847POPC   C1A42999   5.060  36.092   6.455
 8847POPC   D2A43000   5.057  36.083   6.755
 8847POPC   C3A43001   5.118  36.169   7.055
 8847POPC   C4A43002   5.130  36.104   7.355
 8847POPC   C1B43003   5.328  36.254   6.455
 8847POPC   C2B43004   5.313  36.273   6.755
 8847POPC   C3B43005   5.316  36.243   7.055
 8847POPC   C4B43006   5.355  36.210   7.355
 8848POPC   NC343007   8.238  19.796   5.555
 8848POPC   PO443008   8.234  19.845   5.855
 8848POPC   GL143009   8.216  19.788   6.155
 8848POPC   GL243010   8.069  19.732   6.155
 8848POPC   C1A43011   8.200  19.831   6.455
 8848POPC   D2A43012   8.202  19.847   6.755
 8848POPC   C3A43013   8.192  19.819   7.055
 8848POPC   C4A43014   8.197  19.788   7.355
 8848POPC   C1B43015   7.953  19.720   6.455
 8848POPC   C2B43016   8.029  19.698   6.755
 8848POPC   C3B43017   7.977  19.737   7.055
 8848POPC   C4B43018   8.020  19.701   7.355
 8849POPC   NC343019   3.530   5.885   5.555
 8849POPC   PO443020   3.562   5.821   5.855
 8849POPC   GL143021   3.577   5.897   6.155
 8849POPC   GL243022   3.622   5.825   6.155
 8849POPC   C1A43023   3.530   5.866   6.455
 8849POPC   D2A43024   3.544   5.849   6.755
 8849POPC   C3A43025   3.499   5.895   7.055
 8849POPC   C4A43026   3.521   5.837   7.355
 8849POPC   C1B43027   3.776   5.801   6.455
 8849POPC   C2B43028   3.755   5.839   6.755
 8849POPC   C3B43029   3.757   5.878   7.055
 8849POPC   C4B43030   3.774   5.841   7.355
 8850POPC   NC343031  41.546  25.995   5.555
 8850POPC   PO443032  41.583  26.060   5.855
 8850POPC   GL143033  41.583  26.009   6.155
 8850POPC   GL243034  41.706  26.009   6.155
 8850POPC   C1A43035  41.595  26.086   6.455
 8850POPC   D2A43036  41.558  26.042   6.755
 8850POPC   C3A43037  41.603  26.019   7.055
 8850POPC   C4A43038  41.536  26.074   7.355
 8850POPC   C1B43039  41.789  25.890   6.455
 8850POPC   C2B43040  41.788  25.931   6.755
 8850POPC   C3B43041  41.729  25.883   7.055
 8850POPC   C4B43042  41.794  25.883   7.355
 8851POPC   NC343043   7.435   8.925   5.555
 8851POPC   PO443044   7.458   8.976   5.855
 8851POPC   GL143045   7.418   9.004   6.155
 8851POPC   GL243046   7.428   8.798   6.155
 8851POPC   C1A43047   7.409   8.946   6.455
 8851POPC   D2A43048   7.434   9.009   6.755
 8851POPC   C3A43049   7.413   8.946   7.055
 8851POPC   C4A43050   7.435   8.948   7.355
 8851POPC   C1B43051   7.406   8.762   6.455
 8851POPC   C2B43052   7.440   8.701   6.755
 8851POPC   C3B43053   7.390   8.736   7.055
 8851POPC   C4B43054   7.388   8.747   7.355
 8852POPC   NC343055  19.081  42.316   5.555
 8852POPC   PO443056  19.081  42.356   5.855
 8852POPC   GL143057  19.027  42.292   6.155
 8852POPC   GL243058  19.225  42.375   6.155
 8852POPC   C1A43059  19.091  42.327   6.455
 8852POPC   D2A43060  19.045  42.290   6.755
 8852POPC   C3A43061  19.064  42.289   7.055
 8852POPC   C4A43062  19.093  42.309   7.355
 8852POPC   C1B43063  19.342  42.458   6.455
 8852POPC   C2B43064  19.287  42.457   6.755
 8852POPC   C3B43065  19.268  42.443   7.055
 8852POPC   C4B43066  19.308  42.377   7.355
 8853POPC   NC343067  11.281   7.373   5.555
 8853POPC   PO443068  11.316   7.454   5.855
 8853POPC   GL143069  11.279   7.373   6.155
 8853POPC   GL243070  11.348   7.294   6.155
 8853POPC   C1A43071  11.271   7.376   6.455
 8853POPC   D2A43072  11.338   7.410   6.755
 8853POPC   C3A43073  11.271   7.449   7.055
 8853POPC   C4A43074  11.344   7.434   7.355
 8853POPC   C1B43075  11.318   7.212   6.455
 8853POPC   C2B43076  11.376   7.131   6.755
 8853POPC   C3B43077  11.317   7.162   7.055
 8853POPC   C4B43078  11.384   7.159   7.355
 8854POPC   NC343079  26.088  41.577   5.555
 8854POPC   PO443080  26.034  41.572   5.855
 8854POPC   GL143081  26.087  41.517   6.155
 8854POPC   GL243082  26.179  41.542   6.155
 8854POPC   C1A43083  26.003  41.523   6.455
 8854POPC   D2A43084  26.021  41.531   6.755
 8854POPC   C3A43085  26.073  41.569   7.055
 8854POPC   C4A43086  26.008  41.602   7.355
 8854POPC   C1B43087  26.328  41.603   6.455
 8854POPC   C2B43088  26.289  41.591   6.755
 8854POPC   C3B43089  26.253  41.562   7.055
 8854POPC   C4B43090  26.324  41.539   7.355
 8855POPC   NC343091  29.941   8.968   5.555
 8855POPC   PO443092  29.932   8.943   5.855
 8855POPC   GL143093  29.963   8.955   6.155
 8855POPC   GL243094  29.808   9.020   6.155
 8855POPC   C1A43095  29.938   8.950   6.455
 8855POPC   D2A43096  29.940   8.977   6.755
 8855POPC   C3A43097  29.910   9.000   7.055
 8855POPC   C4A43098  29.963   8.996   7.355
 8855POPC   C1B43099  29.771   9.185   6.455
 8855POPC   C2B43100  29.766   9.111   6.755
 8855POPC   C3B43101  29.806   9.116   7.055
 8855POPC   C4B43102  29.794   9.138   7.355
 8856POPC   NC343103   4.343  35.312   5.555
 8856POPC   PO443104   4.307  35.338   5.855
 8856POPC   GL143105   4.297  35.395   6.155
 8856POPC   GL243106   4.336  35.500   6.155
 8856POPC   C1A43107   4.339  35.333   6.455
 8856POPC   D2A43108   4.353  35.396   6.755
 8856POPC   C3A43109   4.288  35.393   7.055
 8856POPC   C4A43110   4.274  35.328   7.355
 8856POPC   C1B43111   4.332  35.555   6.455
 8856POPC   C2B43112   4.388  35.550   6.755
 8856POPC   C3B43113   4.367  35.578   7.055
 8856POPC   C4B43114   4.401  35.632   7.355
 8857POPC   NC343115  12.105  40.805   5.555
 8857POPC   PO443116  12.028  40.780   5.855
 8857POPC   GL143117  12.103  40.740   6.155
 8857POPC   GL243118  12.170  40.876   6.155
 8857POPC   C1A43119  12.034  40.825   6.455
 8857POPC   D2A43120  12.032  40.800   6.755
 8857POPC   C3A43121  12.028  40.780   7.055
 8857POPC   C4A43122  12.069  40.757   7.355
 8857POPC   C1B43123  12.226  40.944   6.455
 8857POPC   C2B43124  12.182  40.962   6.755
 8857POPC   C3B43125  12.198  40.951   7.055
 8857POPC   C4B43126  12.256  41.023   7.355
 8858POPC   NC343127  12.058  22.171   5.555
 8858POPC   PO443128  12.064  22.206   5.855
 8858POPC   GL143129  12.069  22.204   6.155
 8858POPC   GL243130  12.155  22.265   6.155
 8858POPC   C1A43131  12.079  22.153   6.455
 8858POPC   D2A43132  12.072  22.135   6.755
 8858POPC   C3A43133  12.113  22.185   7.055
 8858POPC   C4A43134  12.034  22.180   7.355
 8858POPC   C1B43135  12.223  22.357   6.455
 8858POPC   C2B43136  12.234  22.342   6.755
 8858POPC   C3B43137  12.252  22.397   7.055
 8858POPC   C4B43138  12.205  22.417   7.355
 8859POPC   NC343139  26.834  43.919   5.555
 8859POPC   PO443140  26.804  43.899   5.855
 8859POPC   GL143141  26.779  43.900   6.155
 8859POPC   GL243142  26.689  43.779   6.155
 8859POPC   C1A43143  26.849  43.924   6.455
 8859POPC   D2A43144  26.820  43.895   6.755
 8859POPC   C3A43145  26.834  43.862   7.055
 8859POPC   C4A43146  26.822  43.850   7.355
 8859POPC   C1B43147  26.562  43.750   6.455
 8859POPC   C2B43148  26.607  43.794   6.755
 8859POPC   C3B43149  26.640  43.752   7.055
 8859POPC   C4B43150  26.616  43.794   7.355
 8860POPC   NC343151  30.669   7.471   5.555
 8860POPC   PO443152  30.694   7.412   5.855
 8860POPC   GL143153  30.670   7.423   6.155
 8860POPC   GL243154  30.822   7.367   6.155
 8860POPC   C1A43155  30.653   7.436   6.455
 8860POPC   D2A43156  30.662   7.377   6.755
 8860POPC   C3A43157  30.721   7.389   7.055
 8860POPC   C4A43158  30.720   7.465   7.355
 8860POPC   C1B43159  30.818   7.201   6.455
 8860POPC   C2B43160  30.841   7.267   6.755
 8860POPC   C3B43161  30.835   7.256   7.055
 8860POPC   C4B43162  30.809   7.203   7.355
 8861POPC   NC343163  36.928  37.725   5.555
 8861POPC   PO443164  36.952  37.720   5.855
 8861POPC   GL143165  36.948  37.708   6.155
 8861POPC   GL243166  37.057  37.693   6.155
 8861POPC   C1A43167  36.947  37.703   6.455
 8861POPC   D2A43168  36.855  37.716   6.755
 8861POPC   C3A43169  36.859  37.667   7.055
 8861POPC   C4A43170  36.898  37.729   7.355
 8861POPC   C1B43171  37.169  37.684   6.455
 8861POPC   C2B43172  37.105  37.755   6.755
 8861POPC   C3B43173  37.150  37.718   7.055
 8861POPC   C4B43174  37.106  37.749   7.355
 8862POPC   NC343175  17.535  15.959   5.555
 8862POPC   PO443176  17.556  15.908   5.855
 8862POPC   GL143177  17.527  15.972   6.155
 8862POPC   GL243178  17.491  16.102   6.155
 8862POPC   C1A43179  17.552  15.921   6.455
 8862POPC   D2A43180  17.499  15.956   6.755
 8862POPC   C3A43181  17.504  15.998   7.055
 8862POPC   C4A43182  17.553  15.987   7.355
 8862POPC   C1B43183  17.419  16.218   6.455
 8862POPC   C2B43184  17.423  16.206   6.755
 8862POPC   C3B43185  17.435  16.230   7.055
 8862POPC   C4B43186  17.446  16.177   7.355
 8863POPC   NC343187  42.374  11.319   5.555
 8863POPC   PO443188  42.367  11.295   5.855
 8863POPC   GL143189  42.381  11.338   6.155
 8863POPC   GL243190  42.270  11.353   6.155
 8863POPC   C1A43191  42.333  11.331   6.455
 8863POPC   D2A43192  42.314  11.259   6.755
 8863POPC   C3A43193  42.337  11.282   7.055
 8863POPC   C4A43194  42.343  11.268   7.355
 8863POPC   C1B43195  42.165  11.483   6.455
 8863POPC   C2B43196  42.124  11.429   6.755
 8863POPC   C3B43197  42.078  11.407   7.055
 8863POPC   C4B43198  42.173  11.422   7.355
 8864POPC   NC343199   5.126  26.048   5.555
 8864POPC   PO443200   5.138  26.053   5.855
 8864POPC   GL143201   5.055  26.074   6.155
 8864POPC   GL243202   5.079  25.899   6.155
 8864POPC   C1A43203   5.045  26.034   6.455
 8864POPC   D2A43204   5.099  26.081   6.755
 8864POPC   C3A43205   5.122  26.018   7.055
 8864POPC   C4A43206   5.069  26.025   7.355
 8864POPC   C1B43207   5.135  25.773   6.455
 8864POPC   C2B43208   5.141  25.843   6.755
 8864POPC   C3B43209   5.142  25.808   7.055
 8864POPC   C4B43210   5.109  25.841   7.355
 8865POPC   NC343211  19.021  29.960   5.555
 8865POPC   PO443212  19.085  29.874   5.855
 8865POPC   GL143213  19.020  29.935   6.155
 8865POPC   GL243214  18.948  29.777   6.155
 8865POPC   C1A43215  19.086  29.924   6.455
 8865POPC   D2A43216  19.099  29.878   6.755
 8865POPC   C3A43217  19.107  29.920   7.055
 8865POPC   C4A43218  19.009  29.948   7.355
 8865POPC   C1B43219  18.860  29.717   6.455
 8865POPC   C2B43220  18.939  29.772   6.755
 8865POPC   C3B43221  18.947  29.754   7.055
 8865POPC   C4B43222  18.931  29.713   7.355
 8866POPC   NC343223  40.794  33.757   5.555
 8866POPC   PO443224  40.759  33.762   5.855
 8866POPC   GL143225  40.827  33.799   6.155
 8866POPC   GL243226  40.789  33.955   6.155
 8866POPC   C1A43227  40.770  33.795   6.455
 8866POPC   D2A43228  40.828  33.806   6.755
 8866POPC   C3A43229  40.761  33.829   7.055
 8866POPC   C4A43230  40.756  33.836   7.355
 8866POPC   C1B43231  40.865  34.021   6.455
 8866POPC   C2B43232  40.844  34.011   6.755
 8866POPC   C3B43233  40.890  34.067   7.055
 8866POPC   C4B43234  40.907  33.992   7.355
 8867POPC   NC343235   6.645  38.504   5.555
 8867POPC   PO443236   6.623  38.449   5.855
 8867POPC   GL143237   6.608  38.501   6.155
 8867POPC   GL243238   6.477  38.469   6.155
 8867POPC   C1A43239   6.596  38.414   6.455
 8867POPC   D2A43240   6.623  38.499   6.755
 8867POPC   C3A43241   6.606  38.495   7.055
 8867POPC   C4A43242   6.624  38.451   7.355
 8867POPC   C1B43243   6.385  38.436   6.455
 8867POPC   C2B43244   6.348  38.456   6.755
 8867POPC   C3B43245   6.375  38.500   7.055
 8867POPC   C4B43246   6.414  38.443   7.355
 8868POPC   NC343247  18.304  32.229   5.555
 8868POPC   PO443248  18.288  32.269   5.855
 8868POPC   GL143249  18.290  32.250   6.155
 8868POPC   GL243250  18.156  32.128   6.155
 8868POPC   C1A43251  18.311  32.204   6.455
 8868POPC   D2A43252  18.276  32.254   6.755
 8868POPC   C3A43253  18.317  32.280   7.055
 8868POPC   C4A43254  18.325  32.269   7.355
 8868POPC   C1B43255  18.100  32.054   6.455
 8868POPC   C2B43256  18.077  32.099   6.755
 8868POPC   C3B43257  18.165  32.061   7.055
 8868POPC   C4B43258  18.134  32.094   7.355
 8869POPC   NC343259   8.232  12.841   5.555
 8869POPC   PO443260   8.202  12.886   5.855
 8869POPC   GL143261   8.167  12.858   6.155
 8869POPC   GL243262   8.171  13.000   6.155
 8869POPC   C1A43263   8.240  12.857   6.455
 8869POPC   D2A43264   8.206  12.868   6.755
 8869POPC   C3A43265   8.246  12.891   7.055
 8869POPC   C4A43266   8.179  12.855   7.355
 8869POPC   C1B43267   8.208  13.060   6.455
 8869POPC   C2B43268   8.146  13.111   6.755
 8869POPC   C3B43269   8.170  13.057   7.055
 8869POPC   C4B43270   8.208  13.087   7.355
 8870POPC   NC343271   4.335  25.254   5.555
 8870POPC   PO443272   4.269  25.233   5.855
 8870POPC   GL143273   4.300  25.312   6.155
 8870POPC   GL243274   4.222  25.165   6.155
 8870POPC   C1A43275   4.318  25.264   6.455
 8870POPC   D2A43276   4.364  25.272   6.755
 8870POPC   C3A43277   4.270  25.277   7.055
 8870POPC   C4A43278   4.309  25.277   7.355
 8870POPC   C1B43279   4.128  25.089   6.455
 8870POPC   C2B43280   4.114  25.113   6.755
 8870POPC   C3B43281   4.117  25.133   7.055
 8870POPC   C4B43282   4.091  25.080   7.355
 8871POPC   NC343283  19.789  37.657   5.555
 8871POPC   PO443284  19.813  37.705   5.855
 8871POPC   GL143285  19.800  37.645   6.155
 8871POPC   GL243286  19.799  37.763   6.155
 8871POPC   C1A43287  19.870  37.655   6.455
 8871POPC   D2A43288  19.878  37.676   6.755
 8871POPC   C3A43289  19.863  37.636   7.055
 8871POPC   C4A43290  19.834  37.645   7.355
 8871POPC   C1B43291  19.631  37.833   6.455
 8871POPC   C2B43292  19.689  37.909   6.755
 8871POPC   C3B43293  19.663  37.897   7.055
 8871POPC   C4B43294  19.686  37.864   7.355
 8872POPC   NC343295  29.147  13.595   5.555
 8872POPC   PO443296  29.140  13.600   5.855
 8872POPC   GL143297  29.098  13.645   6.155
 8872POPC   GL243298  29.147  13.493   6.155
 8872POPC   C1A43299  29.130  13.643   6.455
 8872POPC   D2A43300  29.166  13.631   6.755
 8872POPC   C3A43301  29.130  13.645   7.055
 8872POPC   C4A43302  29.155  13.670   7.355
 8872POPC   C1B43303  29.138  13.404   6.455
 8872POPC   C2B43304  29.216  13.354   6.755
 8872POPC   C3B43305  29.135  13.393   7.055
 8872POPC   C4B43306  29.187  13.417   7.355
 8873POPC   NC343307  43.062  22.130   5.555
 8873POPC   PO443308  43.080  22.120   5.855
 8873POPC   GL143309  43.128  22.159   6.155
 8873POPC   GL243310  43.186  22.058   6.155
 8873POPC   C1A43311  43.112  22.142   6.455
 8873POPC   D2A43312  43.095  22.154   6.755
 8873POPC   C3A43313  43.087  22.160   7.055
 8873POPC   C4A43314  43.088  22.186   7.355
 8873POPC   C1B43315  43.309  21.938   6.455
 8873POPC   C2B43316  43.262  21.980   6.755
 8873POPC   C3B43317  43.271  21.978   7.055
 8873POPC   C4B43318  43.257  21.951   7.355
 8874POPC   NC343319   8.224  41.520   5.555
 8874POPC   PO443320   8.206  41.522   5.855
 8874POPC   GL143321   8.157  41.550   6.155
 8874POPC   GL243322   8.072  41.693   6.155
 8874POPC   C1A43323   8.192  41.577   6.455
 8874POPC   D2A43324   8.205  41.559   6.755
 8874POPC   C3A43325   8.171  41.549   7.055
 8874POPC   C4A43326   8.238  41.565   7.355
 8874POPC   C1B43327   7.984  41.703   6.455
 8874POPC   C2B43328   8.049  41.755   6.755
 8874POPC   C3B43329   7.985  41.748   7.055
 8874POPC   C4B43330   8.028  41.684   7.355
 8875POPC   NC343331  43.153   5.899   5.555
 8875POPC   PO443332  43.065   5.862   5.855
 8875POPC   GL143333  43.115   5.835   6.155
 8875POPC   GL243334  43.193   5.768   6.155
 8875POPC   C1A43335  43.067   5.907   6.455
 8875POPC   D2A43336  43.160   5.903   6.755
 8875POPC   C3A43337  43.096   5.902   7.055
 8875POPC   C4A43338  43.102   5.835   7.355
 8875POPC   C1B43339  43.319   5.726   6.455
 8875POPC   C2B43340  43.260   5.738   6.755
 8875POPC   C3B43341  43.341   5.655   7.055
 8875POPC   C4B43342  43.338   5.728   7.355
 8876POPC   NC343343  35.366   3.538   5.555
 8876POPC   PO443344  35.350   3.550   5.855
 8876POPC   GL143345  35.343   3.496   6.155
 8876POPC   GL243346  35.438   3.502   6.155
 8876POPC   C1A43347  35.388   3.582   6.455
 8876POPC   D2A43348  35.342   3.590   6.755
 8876POPC   C3A43349  35.313   3.534   7.055
 8876POPC   C4A43350  35.343   3.570   7.355
 8876POPC   C1B43351  35.513   3.426   6.455
 8876POPC   C2B43352  35.532   3.390   6.755
 8876POPC   C3B43353  35.583   3.399   7.055
 8876POPC   C4B43354  35.555   3.362   7.355
 8877POPC   NC343355  37.651   7.400   5.555
 8877POPC   PO443356  37.703   7.412   5.855
 8877POPC   GL143357  37.701   7.413   6.155
 8877POPC   GL243358  37.570   7.296   6.155
 8877POPC   C1A43359  37.669   7.377   6.455
 8877POPC   D2A43360  37.697   7.388   6.755
 8877POPC   C3A43361  37.632   7.400   7.055
 8877POPC   C4A43362  37.670   7.392   7.355
 8877POPC   C1B43363  37.547   7.220   6.455
 8877POPC   C2B43364  37.546   7.211   6.755
 8877POPC   C3B43365  37.568   7.184   7.055
 8877POPC   C4B43366  37.510   7.261   7.355
 8878POPC   NC343367  34.545  12.068   5.555
 8878POPC   PO443368  34.608  12.074   5.855
 8878POPC   GL143369  34.554  12.118   6.155
 8878POPC   GL243370  34.528  12.135   6.155
 8878POPC   C1A43371  34.562  12.033   6.455
 8878POPC   D2A43372  34.582  12.027   6.755
 8878POPC   C3A43373  34.536  12.027   7.055
 8878POPC   C4A43374  34.542  12.069   7.355
 8878POPC   C1B43375  34.388  12.268   6.455
 8878POPC   C2B43376  34.414  12.223   6.755
 8878POPC   C3B43377  34.363  12.306   7.055
 8878POPC   C4B43378  34.432  12.312   7.355
 8879POPC   NC343379   0.449  15.188   5.555
 8879POPC   PO443380   0.445  15.229   5.855
 8879POPC   GL143381   0.438  15.225   6.155
 8879POPC   GL243382   0.514  15.148   6.155
 8879POPC   C1A43383   0.434  15.184   6.455
 8879POPC   D2A43384   0.447  15.189   6.755
 8879POPC   C3A43385   0.487  15.166   7.055
 8879POPC   C4A43386   0.415  15.134   7.355
 8879POPC   C1B43387   0.663  15.030   6.455
 8879POPC   C2B43388   0.684  15.039   6.755
 8879POPC   C3B43389   0.623  15.074   7.055
 8879POPC   C4B43390   0.714  15.071   7.355
 8880POPC   NC343391  29.156  42.336   5.555
 8880POPC   PO443392  29.167  42.370   5.855
 8880POPC   GL143393  29.135  42.309   6.155
 8880POPC   GL243394  28.997  42.262   6.155
 8880POPC   C1A43395  29.187  42.338   6.455
 8880POPC   D2A43396  29.100  42.369   6.755
 8880POPC   C3A43397  29.185  42.368   7.055
 8880POPC   C4A43398  29.163  42.307   7.355
 8880POPC   C1B43399  28.971  42.203   6.455
 8880POPC   C2B43400  28.977  42.214   6.755
 8880POPC   C3B43401  28.917  42.200   7.055
 8880POPC   C4B43402  28.961  42.247   7.355
 8881POPC   NC343403   9.794   8.997   5.555
 8881POPC   PO443404   9.768   8.981   5.855
 8881POPC   GL143405   9.701   8.949   6.155
 8881POPC   GL243406   9.726   9.057   6.155
 8881POPC   C1A43407   9.766   8.980   6.455
 8881POPC   D2A43408   9.780   8.986   6.755
 8881POPC   C3A43409   9.778   8.931   7.055
 8881POPC   C4A43410   9.700   8.961   7.355
 8881POPC   C1B43411   9.647   9.192   6.455
 8881POPC   C2B43412   9.716   9.260   6.755
 8881POPC   C3B43413   9.687   9.260   7.055
 8881POPC   C4B43414   9.667   9.207   7.355
 8882POPC   NC343415  41.575  14.415   5.555
 8882POPC   PO443416  41.552  14.369   5.855
 8882POPC   GL143417  41.601  14.376   6.155
 8882POPC   GL243418  41.589  14.494   6.155
 8882POPC   C1A43419  41.547  14.357   6.455
 8882POPC   D2A43420  41.600  14.446   6.755
 8882POPC   C3A43421  41.564  14.357   7.055
 8882POPC   C4A43422  41.516  14.403   7.355
 8882POPC   C1B43423  41.633  14.576   6.455
 8882POPC   C2B43424  41.691  14.630   6.755
 8882POPC   C3B43425  41.632  14.623   7.055
 8882POPC   C4B43426  41.641  14.658   7.355
 8883POPC   NC343427   0.401   3.494   5.555
 8883POPC   PO443428   0.410   3.504   5.855
 8883POPC   GL143429   0.487   3.504   6.155
 8883POPC   GL243430   0.595   3.539   6.155
 8883POPC   C1A43431   0.402   3.498   6.455
 8883POPC   D2A43432   0.408   3.538   6.755
 8883POPC   C3A43433   0.446   3.576   7.055
 8883POPC   C4A43434   0.485   3.498   7.355
 8883POPC   C1B43435   0.732   3.541   6.455
 8883POPC   C2B43436   0.699   3.545   6.755
 8883POPC   C3B43437   0.678   3.599   7.055
 8883POPC   C4B43438   0.663   3.506   7.355
 8884POPC   NC343439  39.999  23.741   5.555
 8884POPC   PO443440  39.986  23.731   5.855
 8884POPC   GL143441  39.994  23.683   6.155
 8884POPC   GL243442  40.130  23.710   6.155
 8884POPC   C1A43443  39.963  23.759   6.455
 8884POPC   D2A43444  40.022  23.752   6.755
 8884POPC   C3A43445  40.038  23.732   7.055
 8884POPC   C4A43446  40.002  23.747   7.355
 8884POPC   C1B43447  40.212  23.669   6.455
 8884POPC   C2B43448  40.224  23.578   6.755
 8884POPC   C3B43449  40.252  23.604   7.055
 8884POPC   C4B43450  40.248  23.576   7.355
 8885POPC   NC343451   2.785   3.504   5.555
 8885POPC   PO443452   2.766   3.525   5.855
 8885POPC   GL143453   2.744   3.544   6.155
 8885POPC   GL243454   2.918   3.593   6.155
 8885POPC   C1A43455   2.787   3.580   6.455
 8885POPC   D2A43456   2.809   3.557   6.755
 8885POPC   C3A43457   2.759   3.530   7.055
 8885POPC   C4A43458   2.812   3.521   7.355
 8885POPC   C1B43459   2.998   3.717   6.455
 8885POPC   C2B43460   3.028   3.663   6.755
 8885POPC   C3B43461   2.978   3.693   7.055
 8885POPC   C4B43462   2.961   3.692   7.355
 8886POPC   NC343463  34.554  27.569   5.555
 8886POPC   PO443464  34.617  27.623   5.855
 8886POPC   GL143465  34.596  27.573   6.155
 8886POPC   GL243466  34.571  27.700   6.155
 8886POPC   C1A43467  34.538  27.587   6.455
 8886POPC   D2A43468  34.579  27.631   6.755
 8886POPC   C3A43469  34.564  27.550   7.055
 8886POPC   C4A43470  34.559  27.551   7.355
 8886POPC   C1B43471  34.583  27.818   6.455
 8886POPC   C2B43472  34.550  27.831   6.755
 8886POPC   C3B43473  34.574  27.824   7.055
 8886POPC   C4B43474  34.570  27.825   7.355
 8887POPC   NC343475  41.512  42.298   5.555
 8887POPC   PO443476  41.587  42.384   5.855
 8887POPC   GL143477  41.568  42.330   6.155
 8887POPC   GL243478  41.488  42.477   6.155
 8887POPC   C1A43479  41.536  42.349   6.455
 8887POPC   D2A43480  41.521  42.293   6.755
 8887POPC   C3A43481  41.541  42.324   7.055
 8887POPC   C4A43482  41.575  42.371   7.355
 8887POPC   C1B43483  41.505  42.519   6.455
 8887POPC   C2B43484  41.432  42.602   6.755
 8887POPC   C3B43485  41.502  42.588   7.055
 8887POPC   C4B43486  41.476  42.590   7.355
 8888POPC   NC343487  44.679   8.219   5.555
 8888POPC   PO443488  44.697   8.213   5.855
 8888POPC   GL143489  44.656   8.175   6.155
 8888POPC   GL243490  44.553   8.258   6.155
 8888POPC   C1A43491  44.648   8.222   6.455
 8888POPC   D2A43492  44.700   8.190   6.755
 8888POPC   C3A43493  44.709   8.246   7.055
 8888POPC   C4A43494  44.643   8.189   7.355
 8888POPC   C1B43495  44.520   8.369   6.455
 8888POPC   C2B43496  44.504   8.419   6.755
 8888POPC   C3B43497  44.546   8.382   7.055
 8888POPC   C4B43498  44.520   8.361   7.355
 8889POPC   NC343499  37.630  33.802   5.555
 8889POPC   PO443500  37.719  33.819   5.855
 8889POPC   GL143501  37.712  33.789   6.155
 8889POPC   GL243502  37.680  33.690   6.155
 8889POPC   C1A43503  37.631  33.794   6.455
 8889POPC   D2A43504  37.726  33.779   6.755
 8889POPC   C3A43505  37.673  33.802   7.055
 8889POPC   C4A43506  37.711  33.767   7.355
 8889POPC   C1B43507  37.614  33.574   6.455
 8889POPC   C2B43508  37.668  33.595   6.755
 8889POPC   C3B43509  37.661  33.511   7.055
 8889POPC   C4B43510  37.616  33.535   7.355
 8890POPC   NC343511  22.130  19.802   5.555
 8890POPC   PO443512  22.199  19.849   5.855
 8890POPC   GL143513  22.119  19.843   6.155
 8890POPC   GL243514  22.230  19.777   6.155
 8890POPC   C1A43515  22.158  19.852   6.455
 8890POPC   D2A43516  22.147  19.863   6.755
 8890POPC   C3A43517  22.122  19.840   7.055
 8890POPC   C4A43518  22.179  19.867   7.355
 8890POPC   C1B43519  22.360  19.715   6.455
 8890POPC   C2B43520  22.348  19.707   6.755
 8890POPC   C3B43521  22.431  19.777   7.055
 8890POPC   C4B43522  22.409  19.711   7.355
 8891POPC   NC343523  19.092  38.448   5.555
 8891POPC   PO443524  19.028  38.448   5.855
 8891POPC   GL143525  19.060  38.491   6.155
 8891POPC   GL243526  18.984  38.499   6.155
 8891POPC   C1A43527  19.013  38.500   6.455
 8891POPC   D2A43528  19.035  38.448   6.755
 8891POPC   C3A43529  19.023  38.483   7.055
 8891POPC   C4A43530  19.024  38.442   7.355
 8891POPC   C1B43531  18.894  38.625   6.455
 8891POPC   C2B43532  18.916  38.604   6.755
 8891POPC   C3B43533  18.897  38.602   7.055
 8891POPC   C4B43534  18.909  38.621   7.355
 8892POPC   NC343535  29.967  36.884   5.555
 8892POPC   PO443536  29.917  36.874   5.855
 8892POPC   GL143537  29.969  36.946   6.155
 8892POPC   GL243538  29.909  37.026   6.155
 8892POPC   C1A43539  29.928  36.895   6.455
 8892POPC   D2A43540  29.904  36.893   6.755
 8892POPC   C3A43541  29.960  36.862   7.055
 8892POPC   C4A43542  29.954  36.922   7.355
 8892POPC   C1B43543  29.839  37.133   6.455
 8892POPC   C2B43544  29.854  37.152   6.755
 8892POPC   C3B43545  29.828  37.151   7.055
 8892POPC   C4B43546  29.839  37.119   7.355
 8893POPC   NC343547  16.713  19.852   5.555
 8893POPC   PO443548  16.771  19.826   5.855
 8893POPC   GL143549  16.689  19.829   6.155
 8893POPC   GL243550  16.807  19.874   6.155
 8893POPC   C1A43551  16.703  19.866   6.455
 8893POPC   D2A43552  16.687  19.791   6.755
 8893POPC   C3A43553  16.727  19.791   7.055
 8893POPC   C4A43554  16.768  19.829   7.355
 8893POPC   C1B43555  16.943  20.008   6.455
 8893POPC   C2B43556  16.960  20.001   6.755
 8893POPC   C3B43557  16.967  19.993   7.055
 8893POPC   C4B43558  16.975  20.000   7.355
 8894POPC   NC343559   3.528  42.383   5.555
 8894POPC   PO443560   3.505  42.350   5.855
 8894POPC   GL143561   3.583  42.311   6.155
 8894POPC   GL243562   3.536  42.490   6.155
 8894POPC   C1A43563   3.586  42.375   6.455
 8894POPC   D2A43564   3.545  42.379   6.755
 8894POPC   C3A43565   3.496  42.334   7.055
 8894POPC   C4A43566   3.506  42.288   7.355
 8894POPC   C1B43567   3.613  42.556   6.455
 8894POPC   C2B43568   3.531  42.587   6.755
 8894POPC   C3B43569   3.539  42.548   7.055
 8894POPC   C4B43570   3.605  42.597   7.355
 8895POPC   NC343571  33.794  10.509   5.555
 8895POPC   PO443572  33.774  10.495   5.855
 8895POPC   GL143573  33.822  10.510   6.155
 8895POPC   GL243574  33.710  10.522   6.155
 8895POPC   C1A43575  33.842  10.574   6.455
 8895POPC   D2A43576  33.845  10.498   6.755
 8895POPC   C3A43577  33.793  10.544   7.055
 8895POPC   C4A43578  33.767  10.497   7.355
 8895POPC   C1B43579  33.562  10.403   6.455
 8895POPC   C2B43580  33.576  10.428   6.755
 8895POPC   C3B43581  33.551  10.479   7.055
 8895POPC   C4B43582  33.570  10.394   7.355
 8896POPC   NC343583  40.829  25.223   5.555
 8896POPC   PO443584  40.821  25.219   5.855
 8896POPC   GL143585  40.831  25.294   6.155
 8896POPC   GL243586  40.887  25.204   6.155
 8896POPC   C1A43587  40.791  25.312   6.455
 8896POPC   D2A43588  40.796  25.226   6.755
 8896POPC   C3A43589  40.816  25.247   7.055
 8896POPC   C4A43590  40.783  25.299   7.355
 8896POPC   C1B43591  40.896  25.034   6.455
 8896POPC   C2B43592  40.980  25.051   6.755
 8896POPC   C3B43593  40.948  25.107   7.055
 8896POPC   C4B43594  40.922  25.023   7.355
 8897POPC   NC343595   6.687  19.881   5.555
 8897POPC   PO443596   6.679  19.884   5.855
 8897POPC   GL143597   6.642  19.861   6.155
 8897POPC   GL243598   6.599  19.948   6.155
 8897POPC   C1A43599   6.641  19.857   6.455
 8897POPC   D2A43600   6.649  19.881   6.755
 8897POPC   C3A43601   6.662  19.838   7.055
 8897POPC   C4A43602   6.662  19.790   7.355
 8897POPC   C1B43603   6.531  20.023   6.455
 8897POPC   C2B43604   6.533  20.072   6.755
 8897POPC   C3B43605   6.533  20.074   7.055
 8897POPC   C4B43606   6.535  20.066   7.355
 8898POPC   NC343607   7.443  35.340   5.555
 8898POPC   PO443608   7.450  35.359   5.855
 8898POPC   GL143609   7.401  35.383   6.155
 8898POPC   GL243610   7.357  35.398   6.155
 8898POPC   C1A43611   7.376  35.392   6.455
 8898POPC   D2A43612   7.443  35.375   6.755
 8898POPC   C3A43613   7.466  35.316   7.055
 8898POPC   C4A43614   7.397  35.390   7.355
 8898POPC   C1B43615   7.262  35.487   6.455
 8898POPC   C2B43616   7.177  35.474   6.755
 8898POPC   C3B43617   7.189  35.481   7.055
 8898POPC   C4B43618   7.258  35.511   7.355
 8899POPC   NC343619  12.824  19.081   5.555
 8899POPC   PO443620  12.868  19.031   5.855
 8899POPC   GL143621  12.895  19.073   6.155
 8899POPC   GL243622  12.933  19.116   6.155
 8899POPC   C1A43623  12.868  19.056   6.455
 8899POPC   D2A43624  12.804  19.052   6.755
 8899POPC   C3A43625  12.876  19.059   7.055
 8899POPC   C4A43626  12.829  19.094   7.355
 8899POPC   C1B43627  13.073  19.160   6.455
 8899POPC   C2B43628  13.113  19.110   6.755
 8899POPC   C3B43629  13.048  19.156   7.055
 8899POPC   C4B43630  13.104  19.145   7.355
 8900POPC   NC343631   5.127  10.492   5.555
 8900POPC   PO443632   5.122  10.521   5.855
 8900POPC   GL143633   5.051  10.491   6.155
 8900POPC   GL243634   5.184  10.587   6.155
 8900POPC   C1A43635   5.135  10.550   6.455
 8900POPC   D2A43636   5.043  10.535   6.755
 8900POPC   C3A43637   5.119  10.554   7.055
 8900POPC   C4A43638   5.072  10.510   7.355
 8900POPC   C1B43639   5.282  10.671   6.455
 8900POPC   C2B43640   5.322  10.679   6.755
 8900POPC   C3B43641   5.329  10.722   7.055
 8900POPC   C4B43642   5.277  10.676   7.355
 8901POPC   NC343643  31.465  11.323   5.555
 8901POPC   PO443644  31.509  11.329   5.855
 8901POPC   GL143645  31.484  11.270   6.155
 8901POPC   GL243646  31.318  11.292   6.155
 8901POPC   C1A43647  31.464  11.252   6.455
 8901POPC   D2A43648  31.426  11.261   6.755
 8901POPC   C3A43649  31.493  11.349   7.055
 8901POPC   C4A43650  31.520  11.322   7.355
 8901POPC   C1B43651  31.225  11.232   6.455
 8901POPC   C2B43652  31.280  11.167   6.755
 8901POPC   C3B43653  31.240  11.210   7.055
 8901POPC   C4B43654  31.211  11.174   7.355
 8902POPC   NC343655  15.948  42.361   5.555
 8902POPC   PO443656  15.989  42.356   5.855
 8902POPC   GL143657  15.907  42.309   6.155
 8902POPC   GL243658  15.795  42.264   6.155
 8902POPC   C1A43659  15.957  42.332   6.455
 8902POPC   D2A43660  15.946  42.371   6.755
 8902POPC   C3A43661  15.998  42.315   7.055
 8902POPC   C4A43662  15.940  42.331   7.355
 8902POPC   C1B43663  15.709  42.206   6.455
 8902POPC   C2B43664  15.683  42.218   6.755
 8902POPC   C3B43665  15.735  42.251   7.055
 8902POPC   C4B43666  15.749  42.197   7.355
 8903POPC   NC343667   8.148  19.014   5.555
 8903POPC   PO443668   8.221  19.064   5.855
 8903POPC   GL143669   8.173  19.072   6.155
 8903POPC   GL243670   8.119  19.085   6.155
 8903POPC   C1A43671   8.226  19.034   6.455
 8903POPC   D2A43672   8.189  19.044   6.755
 8903POPC   C3A43673   8.243  19.021   7.055
 8903POPC   C4A43674   8.210  19.052   7.355
 8903POPC   C1B43675   8.015  19.170   6.455
 8903POPC   C2B43676   8.008  19.153   6.755
 8903POPC   C3B43677   7.923  19.130   7.055
 8903POPC   C4B43678   7.983  19.127   7.355
 8904POPC   NC343679   2.779  27.561   5.555
 8904POPC   PO443680   2.768  27.554   5.855
 8904POPC   GL143681   2.766  27.635   6.155
 8904POPC   GL243682   2.714  27.698   6.155
 8904POPC   C1A43683   2.754  27.639   6.455
 8904POPC   D2A43684   2.813  27.552   6.755
 8904POPC   C3A43685   2.800  27.596   7.055
 8904POPC   C4A43686   2.756  27.641   7.355
 8904POPC   C1B43687   2.688  27.776   6.455
 8904POPC   C2B43688   2.659  27.784   6.755
 8904POPC   C3B43689   2.612  27.769   7.055
 8904POPC   C4B43690   2.617  27.853   7.355
 8905POPC   NC343691  39.267  21.404   5.555
 8905POPC   PO443692  39.193  21.429   5.855
 8905POPC   GL143693  39.224  21.390   6.155
 8905POPC   GL243694  39.160  21.306   6.155
 8905POPC   C1A43695  39.214  21.397   6.455
 8905POPC   D2A43696  39.262  21.342   6.755
 8905POPC   C3A43697  39.243  21.421   7.055
 8905POPC   C4A43698  39.210  21.349   7.355
 8905POPC   C1B43699  39.101  21.208   6.455
 8905POPC   C2B43700  39.104  21.181   6.755
 8905POPC   C3B43701  39.079  21.183   7.055
 8905POPC   C4B43702  39.053  21.179   7.355
 8906POPC   NC343703   9.759  27.605   5.555
 8906POPC   PO443704   9.727  27.626   5.855
 8906POPC   GL143705   9.756  27.609   6.155
 8906POPC   GL243706   9.862  27.736   6.155
 8906POPC   C1A43707   9.794  27.560   6.455
 8906POPC   D2A43708   9.767  27.562   6.755
 8906POPC   C3A43709   9.748  27.579   7.055
 8906POPC   C4A43710   9.712  27.551   7.355
 8906POPC   C1B43711   9.906  27.800   6.455
 8906POPC   C2B43712   9.868  27.748   6.755
 8906POPC   C3B43713   9.910  27.789   7.055
 8906POPC   C4B43714   9.947  27.770   7.355
 8907POPC   NC343715  10.491  24.528   5.555
 8907POPC   PO443716  10.494  24.474   5.855
 8907POPC   GL143717  10.532  24.445   6.155
 8907POPC   GL243718  10.376  24.553   6.155
 8907POPC   C1A43719  10.571  24.525   6.455
 8907POPC   D2A43720  10.536  24.442   6.755
 8907POPC   C3A43721  10.483  24.458   7.055
 8907POPC   C4A43722  10.524  24.488   7.355
 8907POPC   C1B43723  10.302  24.578   6.455
 8907POPC   C2B43724  10.285  24.638   6.755
 8907POPC   C3B43725  10.270  24.556   7.055
 8907POPC   C4B43726  10.283  24.590   7.355
 8908POPC   NC343727   8.152  17.463   5.555
 8908POPC   PO443728   8.170  17.515   5.855
 8908POPC   GL143729   8.232  17.494   6.155
 8908POPC   GL243730   8.084  17.494   6.155
 8908POPC   C1A43731   8.167  17.519   6.455
 8908POPC   D2A43732   8.173  17.475   6.755
 8908POPC   C3A43733   8.162  17.517   7.055
 8908POPC   C4A43734   8.188  17.496   7.355
 8908POPC   C1B43735   7.944  17.531   6.455
 8908POPC   C2B43736   7.921  17.529   6.755
 8908POPC   C3B43737   7.905  17.542   7.055
 8908POPC   C4B43738   7.935  17.493   7.355
 8909POPC   NC343739   8.935  35.369   5.555
 8909POPC   PO443740   8.950  35.336   5.855
 8909POPC   GL143741   8.976  35.395   6.155
 8909POPC   GL243742   8.870  35.236   6.155
 8909POPC   C1A43743   9.021  35.324   6.455
 8909POPC   D2A43744   9.020  35.349   6.755
 8909POPC   C3A43745   8.968  35.377   7.055
 8909POPC   C4A43746   8.959  35.358   7.355
 8909POPC   C1B43747   8.833  35.129   6.455
 8909POPC   C2B43748   8.799  35.141   6.755
 8909POPC   C3B43749   8.853  35.155   7.055
 8909POPC   C4B43750   8.796  35.167   7.355
 8910POPC   NC343751  44.677  11.279   5.555
 8910POPC   PO443752  44.672  11.277   5.855
 8910POPC   GL143753  44.657  11.272   6.155
 8910POPC   GL243754  44.550  11.331   6.155
 8910POPC   C1A43755  44.645  11.301   6.455
 8910POPC   D2A43756  44.682  11.272   6.755
 8910POPC   C3A43757  44.660  11.323   7.055
 8910POPC   C4A43758  44.652  11.323   7.355
 8910POPC   C1B43759  44.387  11.384   6.455
 8910POPC   C2B43760  44.420  11.413   6.755
 8910POPC   C3B43761  44.386  11.406   7.055
 8910POPC   C4B43762  44.404  11.418   7.355
 8911POPC   NC343763  41.517  35.324   5.555
 8911POPC   PO443764  41.568  35.305   5.855
 8911POPC   GL143765  41.547  35.364   6.155
 8911POPC   GL243766  41.606  35.227   6.155
 8911POPC   C1A43767  41.567  35.313   6.455
 8911POPC   D2A43768  41.573  35.337   6.755
 8911POPC   C3A43769  41.534  35.327   7.055
 8911POPC   C4A43770  41.593  35.312   7.355
 8911POPC   C1B43771  41.696  35.118   6.455
 8911POPC   C2B43772  41.732  35.122   6.755
 8911POPC   C3B43773  41.726  35.196   7.055
 8911POPC   C4B43774  41.722  35.165   7.355
 8912POPC   NC343775  18.254  21.423   5.555
 8912POPC   PO443776  18.250  21.428   5.855
 8912POPC   GL143777  18.327  21.349   6.155
 8912POPC   GL243778  18.387  21.304   6.155
 8912POPC   C1A43779  18.236  21.418   6.455
 8912POPC   D2A43780  18.316  21.367   6.755
 8912POPC   C3A43781  18.281  21.408   7.055
 8912POPC   C4A43782  18.265  21.403   7.355
 8912POPC   C1B43783  18.416  21.168   6.455
 8912POPC   C2B43784  18.407  21.151   6.755
 8912POPC   C3B43785  18.442  21.173   7.055
 8912POPC   C4B43786  18.452  21.205   7.355
 8913POPC   NC343787   5.063  31.441   5.555
 8913POPC   PO443788   5.141  31.440   5.855
 8913POPC   GL143789   5.093  31.496   6.155
 8913POPC   GL243790   5.220  31.570   6.155
 8913POPC   C1A43791   5.092  31.463   6.455
 8913POPC   D2A43792   5.077  31.426   6.755
 8913POPC   C3A43793   5.100  31.521   7.055
 8913POPC   C4A43794   5.068  31.441   7.355
 8913POPC   C1B43795   5.220  31.667   6.455
 8913POPC   C2B43796   5.252  31.650   6.755
 8913POPC   C3B43797   5.305  31.612   7.055
 8913POPC   C4B43798   5.250  31.648   7.355
 8914POPC   NC343799  44.612  12.115   5.555
 8914POPC   PO443800  44.649  12.079   5.855
 8914POPC   GL143801  44.665  12.026   6.155
 8914POPC   GL243802  44.694  12.247   6.155
 8914POPC   C1A43803  44.627  12.080   6.455
 8914POPC   D2A43804  44.676  12.072   6.755
 8914POPC   C3A43805  44.669  12.112   7.055
 8914POPC   C4A43806  44.664  12.086   7.355
 8914POPC   C1B43807  44.676  12.351   6.455
 8914POPC   C2B43808  44.600  12.317   6.755
 8914POPC   C3B43809  44.677  12.309   7.055
 8914POPC   C4B43810  44.592  12.363   7.355
 8915POPC   NC343811  42.324  19.884   5.555
 8915POPC   PO443812  42.303  19.852   5.855
 8915POPC   GL143813  42.310  19.864   6.155
 8915POPC   GL243814  42.194  19.774   6.155
 8915POPC   C1A43815  42.367  19.852   6.455
 8915POPC   D2A43816  42.347  19.843   6.755
 8915POPC   C3A43817  42.379  19.802   7.055
 8915POPC   C4A43818  42.346  19.834   7.355
 8915POPC   C1B43819  42.080  19.734   6.455
 8915POPC   C2B43820  42.155  19.689   6.755
 8915POPC   C3B43821  42.145  19.729   7.055
 8915POPC   C4B43822  42.095  19.750   7.355
 8916POPC   NC343823  16.723  38.487   5.555
 8916POPC   PO443824  16.752  38.449   5.855
 8916POPC   GL143825  16.687  38.499   6.155
 8916POPC   GL243826  16.882  38.570   6.155
 8916POPC   C1A43827  16.776  38.450   6.455
 8916POPC   D2A43828  16.702  38.503   6.755
 8916POPC   C3A43829  16.699  38.429   7.055
 8916POPC   C4A43830  16.761  38.486   7.355
 8916POPC   C1B43831  16.980  38.549   6.455
 8916POPC   C2B43832  16.912  38.550   6.755
 8916POPC   C3B43833  16.949  38.597   7.055
 8916POPC   C4B43834  16.939  38.608   7.355
 8917POPC   NC343835  12.850  22.171   5.555
 8917POPC   PO443836  12.868  22.181   5.855
 8917POPC   GL143837  12.853  22.201   6.155
 8917POPC   GL243838  12.854  22.263   6.155
 8917POPC   C1A43839  12.833  22.133   6.455
 8917POPC   D2A43840  12.876  22.146   6.755
 8917POPC   C3A43841  12.849  22.156   7.055
 8917POPC   C4A43842  12.806  22.199   7.355
 8917POPC   C1B43843  12.879  22.412   6.455
 8917POPC   C2B43844  12.877  22.399   6.755
 8917POPC   C3B43845  12.843  22.407   7.055
 8917POPC   C4B43846  12.904  22.418   7.355
 8918POPC   NC343847  16.733  19.058   5.555
 8918POPC   PO443848  16.750  19.065   5.855
 8918POPC   GL143849  16.696  19.022   6.155
 8918POPC   GL243850  16.812  19.096   6.155
 8918POPC   C1A43851  16.704  19.084   6.455
 8918POPC   D2A43852  16.703  19.056   6.755
 8918POPC   C3A43853  16.721  19.020   7.055
 8918POPC   C4A43854  16.705  19.019   7.355
 8918POPC   C1B43855  16.966  19.105   6.455
 8918POPC   C2B43856  16.997  19.116   6.755
 8918POPC   C3B43857  16.993  19.152   7.055
 8918POPC   C4B43858  16.984  19.159   7.355
 8919POPC   NC343859  39.973  37.682   5.555
 8919POPC   PO443860  40.016  37.728   5.855
 8919POPC   GL143861  39.961  37.706   6.155
 8919POPC   GL243862  39.841  37.698   6.155
 8919POPC   C1A43863  40.022  37.691   6.455
 8919POPC   D2A43864  40.053  37.686   6.755
 8919POPC   C3A43865  39.970  37.726   7.055
 8919POPC   C4A43866  39.990  37.709   7.355
 8919POPC   C1B43867  39.723  37.693   6.455
 8919POPC   C2B43868  39.773  37.771   6.755
 8919POPC   C3B43869  39.803  37.683   7.055
 8919POPC   C4B43870  39.735  37.736   7.355
 8920POPC   NC343871  22.910  21.339   5.555
 8920POPC   PO443872  22.905  21.399   5.855
 8920POPC   GL143873  22.975  21.365   6.155
 8920POPC   GL243874  23.040  21.475   6.155
 8920POPC   C1A43875  22.988  21.357   6.455
 8920POPC   D2A43876  22.942  21.379   6.755
 8920POPC   C3A43877  22.913  21.348   7.055
 8920POPC   C4A43878  22.980  21.422   7.355
 8920POPC   C1B43879  23.124  21.573   6.455
 8920POPC   C2B43880  23.107  21.550   6.755
 8920POPC   C3B43881  23.125  21.576   7.055
 8920POPC   C4B43882  23.094  21.588   7.355
 8921POPC   NC343883   7.450  29.175   5.555
 8921POPC   PO443884   7.397  29.142   5.855
 8921POPC   GL143885   7.454  29.107   6.155
 8921POPC   GL243886   7.485  29.224   6.155
 8921POPC   C1A43887   7.445  29.102   6.455
 8921POPC   D2A43888   7.373  29.119   6.755
 8921POPC   C3A43889   7.456  29.184   7.055
 8921POPC   C4A43890   7.468  29.123   7.355
 8921POPC   C1B43891   7.508  29.357   6.455
 8921POPC   C2B43892   7.542  29.322   6.755
 8921POPC   C3B43893   7.519  29.324   7.055
 8921POPC   C4B43894   7.565  29.368   7.355
 8922POPC   NC343895  31.480  22.968   5.555
 8922POPC   PO443896  31.461  22.976   5.855
 8922POPC   GL143897  31.466  22.934   6.155
 8922POPC   GL243898  31.485  22.859   6.155
 8922POPC   C1A43899  31.505  22.927   6.455
 8922POPC   D2A43900  31.465  22.902   6.755
 8922POPC   C3A43901  31.427  22.919   7.055
 8922POPC   C4A43902  31.506  22.936   7.355
 8922POPC   C1B43903  31.616  22.712   6.455
 8922POPC   C2B43904  31.582  22.750   6.755
 8922POPC   C3B43905  31.582  22.737   7.055
 8922POPC   C4B43906  31.608  22.686   7.355
 8923POPC   NC343907   8.190  21.405   5.555
 8923POPC   PO443908   8.233  21.367   5.855
 8923POPC   GL143909   8.245  21.369   6.155
 8923POPC   GL243910   8.282  21.424   6.155
 8923POPC   C1A43911   8.178  21.359   6.455
 8923POPC   D2A43912   8.168  21.397   6.755
 8923POPC   C3A43913   8.182  21.339   7.055
 8923POPC   C4A43914   8.217  21.337   7.355
 8923POPC   C1B43915   8.435  21.350   6.455
 8923POPC   C2B43916   8.460  21.374   6.755
 8923POPC   C3B43917   8.480  21.417   7.055
 8923POPC   C4B43918   8.465  21.419   7.355
 8924POPC   NC343919  43.109  15.956   5.555
 8924POPC   PO443920  43.065  15.947   5.855
 8924POPC   GL143921  43.121  15.906   6.155
 8924POPC   GL243922  43.029  16.006   6.155
 8924POPC   C1A43923  43.067  15.960   6.455
 8924POPC   D2A43924  43.138  15.920   6.755
 8924POPC   C3A43925  43.086  15.958   7.055
 8924POPC   C4A43926  43.079  15.952   7.355
 8924POPC   C1B43927  42.992  16.125   6.455
 8924POPC   C2B43928  42.936  16.122   6.755
 8924POPC   C3B43929  42.893  16.092   7.055
 8924POPC   C4B43930  42.916  16.127   7.355
 8925POPC   NC343931  33.761  40.810   5.555
 8925POPC   PO443932  33.845  40.770   5.855
 8925POPC   GL143933  33.798  40.820   6.155
 8925POPC   GL243934  33.962  40.723   6.155
 8925POPC   C1A43935  33.803  40.754   6.455
 8925POPC   D2A43936  33.809  40.801   6.755
 8925POPC   C3A43937  33.847  40.753   7.055
 8925POPC   C4A43938  33.796  40.756   7.355
 8925POPC   C1B43939  34.055  40.732   6.455
 8925POPC   C2B43940  34.008  40.698   6.755
 8925POPC   C3B43941  34.048  40.716   7.055
 8925POPC   C4B43942  34.036  40.709   7.355
 8926POPC   NC343943  22.920   8.955   5.555
 8926POPC   PO443944  22.941   8.996   5.855
 8926POPC   GL143945  22.968   8.964   6.155
 8926POPC   GL243946  23.017   9.088   6.155
 8926POPC   C1A43947  22.947   8.956   6.455
 8926POPC   D2A43948  22.971   9.008   6.755
 8926POPC   C3A43949  22.983   8.955   7.055
 8926POPC   C4A43950  22.898   8.931   7.355
 8926POPC   C1B43951  23.128   9.069   6.455
 8926POPC   C2B43952  23.175   9.096   6.755
 8926POPC   C3B43953  23.110   9.102   7.055
 8926POPC   C4B43954  23.103   9.163   7.355
 8927POPC   NC343955   8.192  34.601   5.555
 8927POPC   PO443956   8.151  34.556   5.855
 8927POPC   GL143957   8.231  34.622   6.155
 8927POPC   GL243958   8.177  34.675   6.155
 8927POPC   C1A43959   8.231  34.565   6.455
 8927POPC   D2A43960   8.222  34.579   6.755
 8927POPC   C3A43961   8.215  34.555   7.055
 8927POPC   C4A43962   8.193  34.581   7.355
 8927POPC   C1B43963   8.076  34.839   6.455
 8927POPC   C2B43964   8.075  34.808   6.755
 8927POPC   C3B43965   8.140  34.821   7.055
 8927POPC   C4B43966   8.151  34.782   7.355
 8928POPC   NC343967  10.543  40.797   5.555
 8928POPC   PO443968  10.533  40.797   5.855
 8928POPC   GL143969  10.552  40.781   6.155
 8928POPC   GL243970  10.433  40.714   6.155
 8928POPC   C1A43971  10.551  40.797   6.455
 8928POPC   D2A43972  10.489  40.769   6.755
 8928POPC   C3A43973  10.480  40.765   7.055
 8928POPC   C4A43974  10.551  40.809   7.355
 8928POPC   C1B43975  10.341  40.646   6.455
 8928POPC   C2B43976  10.320  40.629   6.755
 8928POPC   C3B43977  10.353  40.593   7.055
 8928POPC   C4B43978  10.341  40.613   7.355
 8929POPC   NC343979  40.829   6.648   5.555
 8929POPC   PO443980  40.771   6.625   5.855
 8929POPC   GL143981  40.743   6.645   6.155
 8929POPC   GL243982  40.665   6.511   6.155
 8929POPC   C1A43983  40.759   6.605   6.455
 8929POPC   D2A43984  40.773   6.670   6.755
 8929POPC   C3A43985  40.792   6.687   7.055
 8929POPC   C4A43986  40.808   6.645   7.355
 8929POPC   C1B43987  40.606   6.482   6.455
 8929POPC   C2B43988  40.582   6.489   6.755
 8929POPC   C3B43989  40.588   6.434   7.055
 8929POPC   C4B43990  40.588   6.457   7.355
 8930POPC   NC343991  14.413  43.085   5.555
 8930POPC   PO443992  14.399  43.079   5.855
 8930POPC   GL143993  14.366  43.101   6.155
 8930POPC   GL243994  14.518  43.155   6.155
 8930POPC   C1A43995  14.436  43.062   6.455
 8930POPC   D2A43996  14.369  43.155   6.755
 8930POPC   C3A43997  14.369  43.082   7.055
 8930POPC   C4A43998  14.354  43.148   7.355
 8930POPC   C1B43999  14.649  43.101   6.455
 8930POPC   C2B44000  14.663  43.063   6.755
 8930POPC   C3B44001  14.668  43.062   7.055
 8930POPC   C4B44002  14.640  43.112   7.355
 8931POPC   NC344003   0.482  10.562   5.555
 8931POPC   PO444004   0.448  10.477   5.855
 8931POPC   GL144005   0.450  10.536   6.155
 8931POPC   GL244006   0.338  10.477   6.155
 8931POPC   C1A44007   0.401  10.525   6.455
 8931POPC   D2A44008   0.473  10.556   6.755
 8931POPC   C3A44009   0.474  10.518   7.055
 8931POPC   C4A44010   0.403  10.571   7.355
 8931POPC   C1B44011   0.266  10.322   6.455
 8931POPC   C2B44012   0.236  10.328   6.755
 8931POPC   C3B44013   0.235  10.337   7.055
 8931POPC   C4B44014   0.268  10.326   7.355
 8932POPC   NC344015  28.391  44.636   5.555
 8932POPC   PO444016  28.389  44.658   5.855
 8932POPC   GL144017  28.347  44.642   6.155
 8932POPC   GL244018  28.411  44.577   6.155
 8932POPC   C1A44019  28.412  44.621   6.455
 8932POPC   D2A44020  28.377  44.636   6.755
 8932POPC   C3A44021  28.388  44.654   7.055
 8932POPC   C4A44022  28.387  44.630   7.355
 8932POPC   C1B44023  28.518  44.437   6.455
 8932POPC   C2B44024  28.542  44.481   6.755
 8932POPC   C3B44025  28.487  44.486   7.055
 8932POPC   C4B44026  28.548  44.457   7.355
 8933POPC   NC344027  32.288  43.137   5.555
 8933POPC   PO444028  32.216  43.125   5.855
 8933POPC   GL144029  32.264  43.085   6.155
 8933POPC   GL244030  32.167  43.237   6.155
 8933POPC   C1A44031  32.294  43.123   6.455
 8933POPC   D2A44032  32.211  43.121   6.755
 8933POPC   C3A44033  32.212  43.081   7.055
 8933POPC   C4A44034  32.199  43.145   7.355
 8933POPC   C1B44035  32.058  43.253   6.455
 8933POPC   C2B44036  32.016  43.234   6.755
 8933POPC   C3B44037  32.106  43.269   7.055
 8933POPC   C4B44038  32.087  43.297   7.355
 8934POPC   NC344039  17.534   9.766   5.555
 8934POPC   PO444040  17.553   9.752   5.855
 8934POPC   GL144041  17.535   9.757   6.155
 8934POPC   GL244042  17.484   9.902   6.155
 8934POPC   C1A44043  17.473   9.748   6.455
 8934POPC   D2A44044  17.551   9.741   6.755
 8934POPC   C3A44045  17.544   9.726   7.055
 8934POPC   C4A44046  17.553   9.699   7.355
 8934POPC   C1B44047  17.554   9.992   6.455
 8934POPC   C2B44048  17.493   9.962   6.755
 8934POPC   C3B44049  17.528   9.967   7.055
 8934POPC   C4B44050  17.485  10.027   7.355
 8935POPC   NC344051   2.034  42.362   5.555
 8935POPC   PO444052   2.013  42.333   5.855
 8935POPC   GL144053   2.039  42.303   6.155
 8935POPC   GL244054   1.879  42.278   6.155
 8935POPC   C1A44055   2.036  42.347   6.455
 8935POPC   D2A44056   1.953  42.293   6.755
 8935POPC   C3A44057   2.040  42.299   7.055
 8935POPC   C4A44058   1.965  42.291   7.355
 8935POPC   C1B44059   1.700  42.263   6.455
 8935POPC   C2B44060   1.716  42.316   6.755
 8935POPC   C3B44061   1.762  42.304   7.055
 8935POPC   C4B44062   1.754  42.316   7.355
 8936POPC   NC344063  26.040  22.173   5.555
 8936POPC   PO444064  26.080  22.186   5.855
 8936POPC   GL144065  26.036  22.206   6.155
 8936POPC   GL244066  26.018  22.027   6.155
 8936POPC   C1A44067  26.005  22.208   6.455
 8936POPC   D2A44068  25.995  22.140   6.755
 8936POPC   C3A44069  26.028  22.137   7.055
 8936POPC   C4A44070  26.016  22.202   7.355
 8936POPC   C1B44071  26.056  21.920   6.455
 8936POPC   C2B44072  26.113  21.940   6.755
 8936POPC   C3B44073  26.093  21.954   7.055
 8936POPC   C4B44074  26.048  21.959   7.355
 8937POPC   NC344075  14.385  19.015   5.555
 8937POPC   PO444076  14.404  19.106   5.855
 8937POPC   GL144077  14.367  19.025   6.155
 8937POPC   GL244078  14.403  18.896   6.155
 8937POPC   C1A44079  14.403  19.018   6.455
 8937POPC   D2A44080  14.415  19.087   6.755
 8937POPC   C3A44081  14.382  19.046   7.055
 8937POPC   C4A44082  14.385  19.068   7.355
 8937POPC   C1B44083  14.497  18.846   6.455
 8937POPC   C2B44084  14.487  18.821   6.755
 8937POPC   C3B44085  14.473  18.786   7.055
 8937POPC   C4B44086  14.421  18.834   7.355
 8938POPC   NC344087  22.113  26.037   5.555
 8938POPC   PO444088  22.125  26.053   5.855
 8938POPC   GL144089  22.126  26.052   6.155
 8938POPC   GL244090  22.273  25.926   6.155
 8938POPC   C1A44091  22.146  26.083   6.455
 8938POPC   D2A44092  22.121  25.995   6.755
 8938POPC   C3A44093  22.136  26.000   7.055
 8938POPC   C4A44094  22.140  26.030   7.355
 8938POPC   C1B44095  22.338  25.819   6.455
 8938POPC   C2B44096  22.299  25.800   6.755
 8938POPC   C3B44097  22.338  25.834   7.055
 8938POPC   C4B44098  22.344  25.803   7.355
 8939POPC   NC344099  26.851  27.596   5.555
 8939POPC   PO444100  26.828  27.547   5.855
 8939POPC   GL144101  26.813  27.632   6.155
 8939POPC   GL244102  26.957  27.518   6.155
 8939POPC   C1A44103  26.798  27.610   6.455
 8939POPC   D2A44104  26.853  27.594   6.755
 8939POPC   C3A44105  26.783  27.592   7.055
 8939POPC   C4A44106  26.815  27.614   7.355
 8939POPC   C1B44107  27.020  27.551   6.455
 8939POPC   C2B44108  27.098  27.505   6.755
 8939POPC   C3B44109  27.064  27.542   7.055
 8939POPC   C4B44110  27.094  27.506   7.355
 8940POPC   NC344111  31.490   9.773   5.555
 8940POPC   PO444112  31.515   9.737   5.855
 8940POPC   GL144113  31.475   9.791   6.155
 8940POPC   GL244114  31.460   9.652   6.155
 8940POPC   C1A44115  31.452   9.771   6.455
 8940POPC   D2A44116  31.443   9.742   6.755
 8940POPC   C3A44117  31.431   9.777   7.055
 8940POPC   C4A44118  31.495   9.727   7.355
 8940POPC   C1B44119  31.530   9.477   6.455
 8940POPC   C2B44120  31.485   9.526   6.755
 8940POPC   C3B44121  31.523   9.503   7.055
 8940POPC   C4B44122  31.508   9.486   7.355
 8941POPC   NC344123   1.204  13.633   5.555
 8941POPC   PO444124   1.263  13.583   5.855
 8941POPC   GL144125   1.260  13.617   6.155
 8941POPC   GL244126   1.210  13.788   6.155
 8941POPC   C1A44127   1.247  13.595   6.455
 8941POPC   D2A44128   1.250  13.595   6.755
 8941POPC   C3A44129   1.193  13.596   7.055
 8941POPC   C4A44130   1.247  13.626   7.355
 8941POPC   C1B44131   1.174  13.904   6.455
 8941POPC   C2B44132   1.241  13.835   6.755
 8941POPC   C3B44133   1.245  13.869   7.055
 8941POPC   C4B44134   1.186  13.843   7.355
 8942POPC   NC344135   1.260   2.731   5.555
 8942POPC   PO444136   1.170   2.717   5.855
 8942POPC   GL144137   1.168   2.754   6.155
 8942POPC   GL244138   1.189   2.819   6.155
 8942POPC   C1A44139   1.229   2.725   6.455
 8942POPC   D2A44140   1.224   2.766   6.755
 8942POPC   C3A44141   1.252   2.762   7.055
 8942POPC   C4A44142   1.250   2.762   7.355
 8942POPC   C1B44143   1.017   3.012   6.455
 8942POPC   C2B44144   1.112   2.994   6.755
 8942POPC   C3B44145   1.026   2.934   7.055
 8942POPC   C4B44146   1.051   2.972   7.355
 8943POPC   NC344147   5.123  28.321   5.555
 8943POPC   PO444148   5.097  28.370   5.855
 8943POPC   GL144149   5.118  28.341   6.155
 8943POPC   GL244150   5.029  28.524   6.155
 8943POPC   C1A44151   5.098  28.320   6.455
 8943POPC   D2A44152   5.084  28.376   6.755
 8943POPC   C3A44153   5.090  28.386   7.055
 8943POPC   C4A44154   5.139  28.399   7.355
 8943POPC   C1B44155   5.040  28.621   6.455
 8943POPC   C2B44156   4.988  28.594   6.755
 8943POPC   C3B44157   5.028  28.637   7.055
 8943POPC   C4B44158   4.969  28.650   7.355
 8944POPC   NC344159   8.993  37.652   5.555
 8944POPC   PO444160   8.939  37.656   5.855
 8944POPC   GL144161   8.998  37.679   6.155
 8944POPC   GL244162   8.827  37.710   6.155
 8944POPC   C1A44163   9.012  37.709   6.455
 8944POPC   D2A44164   8.953  37.717   6.755
 8944POPC   C3A44165   8.993  37.639   7.055
 8944POPC   C4A44166   8.974  37.641   7.355
 8944POPC   C1B44167   8.801  37.853   6.455
 8944POPC   C2B44168   8.745  37.861   6.755
 8944POPC   C3B44169   8.731  37.819   7.055
 8944POPC   C4B44170   8.813  37.791   7.355
 8945POPC   NC344171  19.061  16.780   5.555
 8945POPC   PO444172  19.057  16.739   5.855
 8945POPC   GL144173  19.070  16.703   6.155
 8945POPC   GL244174  19.134  16.804   6.155
 8945POPC   C1A44175  19.095  16.681   6.455
 8945POPC   D2A44176  19.017  16.748   6.755
 8945POPC   C3A44177  19.064  16.752   7.055
 8945POPC   C4A44178  19.092  16.749   7.355
 8945POPC   C1B44179  19.122  16.934   6.455
 8945POPC   C2B44180  19.170  16.942   6.755
 8945POPC   C3B44181  19.135  16.918   7.055
 8945POPC   C4B44182  19.179  16.986   7.355
 8946POPC   NC344183  38.411  23.751   5.555
 8946POPC   PO444184  38.469  23.705   5.855
 8946POPC   GL144185  38.429  23.721   6.155
 8946POPC   GL244186  38.529  23.814   6.155
 8946POPC   C1A44187  38.411  23.672   6.455
 8946POPC   D2A44188  38.492  23.679   6.755
 8946POPC   C3A44189  38.463  23.730   7.055
 8946POPC   C4A44190  38.472  23.730   7.355
 8946POPC   C1B44191  38.631  23.847   6.455
 8946POPC   C2B44192  38.596  23.855   6.755
 8946POPC   C3B44193  38.673  23.851   7.055
 8946POPC   C4B44194  38.677  23.920   7.355
 8947POPC   NC344195   7.417  32.215   5.555
 8947POPC   PO444196   7.417  32.199   5.855
 8947POPC   GL144197   7.425  32.281   6.155
 8947POPC   GL244198   7.305  32.300   6.155
 8947POPC   C1A44199   7.433  32.239   6.455
 8947POPC   D2A44200   7.437  32.266   6.755
 8947POPC   C3A44201   7.433  32.293   7.055
 8947POPC   C4A44202   7.388  32.213   7.355
 8947POPC   C1B44203   7.221  32.428   6.455
 8947POPC   C2B44204   7.188  32.361   6.755
 8947POPC   C3B44205   7.254  32.447   7.055
 8947POPC   C4B44206   7.174  32.406   7.355
 8948POPC   NC344207  31.503  12.843   5.555
 8948POPC   PO444208  31.485  12.902   5.855
 8948POPC   GL144209  31.487  12.827   6.155
 8948POPC   GL244210  31.372  12.848   6.155
 8948POPC   C1A44211  31.477  12.815   6.455
 8948POPC   D2A44212  31.470  12.899   6.755
 8948POPC   C3A44213  31.476  12.803   7.055
 8948POPC   C4A44214  31.424  12.871   7.355
 8948POPC   C1B44215  31.197  12.790   6.455
 8948POPC   C2B44216  31.282  12.744   6.755
 8948POPC   C3B44217  31.219  12.786   7.055
 8948POPC   C4B44218  31.235  12.778   7.355
 8949POPC   NC344219  14.363  41.570   5.555
 8949POPC   PO444220  14.359  41.522   5.855
 8949POPC   GL144221  14.357  41.585   6.155
 8949POPC   GL244222  14.559  41.526   6.155
 8949POPC   C1A44223  14.385  41.547   6.455
 8949POPC   D2A44224  14.388  41.549   6.755
 8949POPC   C3A44225  14.453  41.558   7.055
 8949POPC   C4A44226  14.386  41.539   7.355
 8949POPC   C1B44227  14.609  41.438   6.455
 8949POPC   C2B44228  14.668  41.407   6.755
 8949POPC   C3B44229  14.633  41.425   7.055
 8949POPC   C4B44230  14.674  41.447   7.355
 8950POPC   NC344231  20.629  10.522   5.555
 8950POPC   PO444232  20.654  10.536   5.855
 8950POPC   GL144233  20.606  10.503   6.155
 8950POPC   GL244234  20.769  10.522   6.155
 8950POPC   C1A44235  20.584  10.558   6.455
 8950POPC   D2A44236  20.608  10.541   6.755
 8950POPC   C3A44237  20.599  10.527   7.055
 8950POPC   C4A44238  20.654  10.480   7.355
 8950POPC   C1B44239  20.818  10.528   6.455
 8950POPC   C2B44240  20.832  10.499   6.755
 8950POPC   C3B44241  20.847  10.541   7.055
 8950POPC   C4B44242  20.877  10.529   7.355
 8951POPC   NC344243  37.651   1.187   5.555
 8951POPC   PO444244  37.684   1.244   5.855
 8951POPC   GL144245  37.695   1.201   6.155
 8951POPC   GL244246  37.524   1.235   6.155
 8951POPC   C1A44247  37.672   1.218   6.455
 8951POPC   D2A44248  37.707   1.178   6.755
 8951POPC   C3A44249  37.726   1.184   7.055
 8951POPC   C4A44250  37.664   1.256   7.355
 8951POPC   C1B44251  37.402   1.329   6.455
 8951POPC   C2B44252  37.424   1.333   6.755
 8951POPC   C3B44253  37.455   1.345   7.055
 8951POPC   C4B44254  37.457   1.287   7.355
 8952POPC   NC344255   8.204  31.473   5.555
 8952POPC   PO444256   8.181  31.517   5.855
 8952POPC   GL144257   8.194  31.509   6.155
 8952POPC   GL244258   8.092  31.448   6.155
 8952POPC   C1A44259   8.209  31.498   6.455
 8952POPC   D2A44260   8.172  31.521   6.755
 8952POPC   C3A44261   8.201  31.480   7.055
 8952POPC   C4A44262   8.164  31.434   7.355
 8952POPC   C1B44263   7.955  31.395   6.455
 8952POPC   C2B44264   7.939  31.444   6.755
 8952POPC   C3B44265   7.959  31.427   7.055
 8952POPC   C4B44266   7.990  31.414   7.355
 8953POPC   NC344267  19.876  34.567   5.555
 8953POPC   PO444268  19.830  34.557   5.855
 8953POPC   GL144269  19.840  34.580   6.155
 8953POPC   GL244270  19.873  34.501   6.155
 8953POPC   C1A44271  19.847  34.547   6.455
 8953POPC   D2A44272  19.850  34.605   6.755
 8953POPC   C3A44273  19.842  34.570   7.055
 8953POPC   C4A44274  19.833  34.625   7.355
 8953POPC   C1B44275  20.003  34.333   6.455
 8953POPC   C2B44276  19.964  34.353   6.755
 8953POPC   C3B44277  19.958  34.414   7.055
 8953POPC   C4B44278  19.973  34.411   7.355
 8954POPC   NC344279  14.354   5.822   5.555
 8954POPC   PO444280  14.390   5.877   5.855
 8954POPC   GL144281  14.414   5.832   6.155
 8954POPC   GL244282  14.555   5.867   6.155
 8954POPC   C1A44283  14.374   5.897   6.455
 8954POPC   D2A44284  14.430   5.878   6.755
 8954POPC   C3A44285  14.430   5.838   7.055
 8954POPC   C4A44286  14.420   5.866   7.355
 8954POPC   C1B44287  14.644   5.956   6.455
 8954POPC   C2B44288  14.697   5.898   6.755
 8954POPC   C3B44289  14.684   5.945   7.055
 8954POPC   C4B44290  14.691   5.875   7.355
 8955POPC   NC344291  33.009  40.743   5.555
 8955POPC   PO444292  32.997  40.803   5.855
 8955POPC   GL144293  33.056  40.733   6.155
 8955POPC   GL244294  32.971  40.653   6.155
 8955POPC   C1A44295  33.013  40.764   6.455
 8955POPC   D2A44296  33.015  40.749   6.755
 8955POPC   C3A44297  32.976  40.770   7.055
 8955POPC   C4A44298  32.994  40.736   7.355
 8955POPC   C1B44299  32.995  40.495   6.455
 8955POPC   C2B44300  33.008  40.510   6.755
 8955POPC   C3B44301  32.999  40.486   7.055
 8955POPC   C4B44302  33.023  40.544   7.355
 8956POPC   NC344303  43.837  11.262   5.555
 8956POPC   PO444304  43.862  11.315   5.855
 8956POPC   GL144305  43.919  11.293   6.155
 8956POPC   GL244306  44.011  11.245   6.155
 8956POPC   C1A44307  43.882  11.330   6.455
 8956POPC   D2A44308  43.892  11.320   6.755
 8956POPC   C3A44309  43.916  11.289   7.055
 8956POPC   C4A44310  43.882  11.345   7.355
 8956POPC   C1B44311  44.101  11.182   6.455
 8956POPC   C2B44312  44.122  11.193   6.755
 8956POPC   C3B44313  44.093  11.192   7.055
 8956POPC   C4B44314  44.146  11.218   7.355
 8957POPC   NC344315  16.694   2.032   5.555
 8957POPC   PO444316  16.730   2.034   5.855
 8957POPC   GL144317  16.778   2.004   6.155
 8957POPC   GL244318  16.806   1.889   6.155
 8957POPC   C1A44319  16.751   1.974   6.455
 8957POPC   D2A44320  16.688   2.033   6.755
 8957POPC   C3A44321  16.746   1.965   7.055
 8957POPC   C4A44322  16.744   2.019   7.355
 8957POPC   C1B44323  16.899   1.817   6.455
 8957POPC   C2B44324  16.942   1.850   6.755
 8957POPC   C3B44325  16.927   1.804   7.055
 8957POPC   C4B44326  16.914   1.824   7.355
 8958POPC   NC344327  27.617  25.271   5.555
 8958POPC   PO444328  27.610  25.311   5.855
 8958POPC   GL144329  27.626  25.218   6.155
 8958POPC   GL244330  27.510  25.302   6.155
 8958POPC   C1A44331  27.544  25.279   6.455
 8958POPC   D2A44332  27.564  25.299   6.755
 8958POPC   C3A44333  27.591  25.289   7.055
 8958POPC   C4A44334  27.545  25.232   7.355
 8958POPC   C1B44335  27.379  25.289   6.455
 8958POPC   C2B44336  27.360  25.316   6.755
 8958POPC   C3B44337  27.388  25.313   7.055
 8958POPC   C4B44338  27.309  25.289   7.355
 8959POPC   NC344339  21.375  18.270   5.555
 8959POPC   PO444340  21.374  18.294   5.855
 8959POPC   GL144341  21.376  18.242   6.155
 8959POPC   GL244342  21.344  18.109   6.155
 8959POPC   C1A44343  21.352  18.327   6.455
 8959POPC   D2A44344  21.381  18.237   6.755
 8959POPC   C3A44345  21.431  18.325   7.055
 8959POPC   C4A44346  21.404  18.307   7.355
 8959POPC   C1B44347  21.371  18.052   6.455
 8959POPC   C2B44348  21.345  18.062   6.755
 8959POPC   C3B44349  21.389  18.057   7.055
 8959POPC   C4B44350  21.420  18.012   7.355
 8960POPC   NC344351  16.721   6.684   5.555
 8960POPC   PO444352  16.735   6.650   5.855
 8960POPC   GL144353  16.700   6.643   6.155
 8960POPC   GL244354  16.779   6.540   6.155
 8960POPC   C1A44355  16.704   6.647   6.455
 8960POPC   D2A44356  16.716   6.605   6.755
 8960POPC   C3A44357  16.779   6.640   7.055
 8960POPC   C4A44358  16.740   6.619   7.355
 8960POPC   C1B44359  16.702   6.406   6.455
 8960POPC   C2B44360  16.704   6.364   6.755
 8960POPC   C3B44361  16.692   6.380   7.055
 8960POPC   C4B44362  16.753   6.401   7.355
 8961POPC   NC344363  22.200  22.941   5.555
 8961POPC   PO444364  22.144  22.925   5.855
 8961POPC   GL144365  22.167  22.973   6.155
 8961POPC   GL244366  22.020  22.986   6.155
 8961POPC   C1A44367  22.124  22.891   6.455
 8961POPC   D2A44368  22.172  22.897   6.755
 8961POPC   C3A44369  22.133  22.925   7.055
 8961POPC   C4A44370  22.160  22.908   7.355
 8961POPC   C1B44371  21.931  22.970   6.455
 8961POPC   C2B44372  21.948  22.963   6.755
 8961POPC   C3B44373  21.959  22.953   7.055
 8961POPC   C4B44374  21.917  22.946   7.355
 8962POPC   NC344375   6.692  22.184   5.555
 8962POPC   PO444376   6.601  22.205   5.855
 8962POPC   GL144377   6.609  22.164   6.155
 8962POPC   GL244378   6.729  22.059   6.155
 8962POPC   C1A44379   6.606  22.172   6.455
 8962POPC   D2A44380   6.635  22.147   6.755
 8962POPC   C3A44381   6.632  22.181   7.055
 8962POPC   C4A44382   6.630  22.149   7.355
 8962POPC   C1B44383   6.804  21.993   6.455
 8962POPC   C2B44384   6.797  22.020   6.755
 8962POPC   C3B44385   6.828  22.000   7.055
 8962POPC   C4B44386   6.814  21.996   7.355
 8963POPC   NC344387  39.214  39.198   5.555
 8963POPC   PO444388  39.257  39.217   5.855
 8963POPC   GL144389  39.223  39.187   6.155
 8963POPC   GL244390  39.369  39.153   6.155
 8963POPC   C1A44391  39.263  39.263   6.455
 8963POPC   D2A44392  39.246  39.269   6.755
 8963POPC   C3A44393  39.223  39.183   7.055
 8963POPC   C4A44394  39.191  39.272   7.355
 8963POPC   C1B44395  39.479  39.115   6.455
 8963POPC   C2B44396  39.434  39.148   6.755
 8963POPC   C3B44397  39.405  39.125   7.055
 8963POPC   C4B44398  39.427  39.078   7.355
 8964POPC   NC344399  39.254  16.759   5.555
 8964POPC   PO444400  39.259  16.688   5.855
 8964POPC   GL144401  39.191  16.730   6.155
 8964POPC   GL244402  39.289  16.600   6.155
 8964POPC   C1A44403  39.224  16.726   6.455
 8964POPC   D2A44404  39.223  16.768   6.755
 8964POPC   C3A44405  39.245  16.688   7.055
 8964POPC   C4A44406  39.249  16.743   7.355
 8964POPC   C1B44407  39.395  16.522   6.455
 8964POPC   C2B44408  39.453  16.563   6.755
 8964POPC   C3B44409  39.380  16.587   7.055
 8964POPC   C4B44410  39.451  16.605   7.355
 8965POPC   NC344411  29.121   0.462   5.555
 8965POPC   PO444412  29.155   0.418   5.855
 8965POPC   GL144413  29.117   0.407   6.155
 8965POPC   GL244414  29.228   0.489   6.155
 8965POPC   C1A44415  29.178   0.410   6.455
 8965POPC   D2A44416  29.112   0.448   6.755
 8965POPC   C3A44417  29.174   0.485   7.055
 8965POPC   C4A44418  29.181   0.465   7.355
 8965POPC   C1B44419  29.310   0.597   6.455
 8965POPC   C2B44420  29.314   0.576   6.755
 8965POPC   C3B44421  29.320   0.552   7.055
 8965POPC   C4B44422  29.340   0.538   7.355
 8966POPC   NC344423  41.573  12.079   5.555
 8966POPC   PO444424  41.605  12.058   5.855
 8966POPC   GL144425  41.562  12.085   6.155
 8966POPC   GL244426  41.666  12.056   6.155
 8966POPC   C1A44427  41.510  12.069   6.455
 8966POPC   D2A44428  41.519  12.036   6.755
 8966POPC   C3A44429  41.564  12.111   7.055
 8966POPC   C4A44430  41.593  12.062   7.355
 8966POPC   C1B44431  41.782  11.939   6.455
 8966POPC   C2B44432  41.753  12.001   6.755
 8966POPC   C3B44433  41.828  11.966   7.055
 8966POPC   C4B44434  41.792  11.932   7.355
 8967POPC   NC344435  15.910  32.198   5.555
 8967POPC   PO444436  15.956  32.283   5.855
 8967POPC   GL144437  15.952  32.223   6.155
 8967POPC   GL244438  16.015  32.183   6.155
 8967POPC   C1A44439  16.001  32.233   6.455
 8967POPC   D2A44440  15.980  32.286   6.755
 8967POPC   C3A44441  15.984  32.294   7.055
 8967POPC   C4A44442  16.000  32.235   7.355
 8967POPC   C1B44443  16.046  32.052   6.455
 8967POPC   C2B44444  16.117  32.076   6.755
 8967POPC   C3B44445  16.058  32.019   7.055
 8967POPC   C4B44446  16.134  32.013   7.355
 8968POPC   NC344447  42.295  39.997   5.555
 8968POPC   PO444448  42.348  40.044   5.855
 8968POPC   GL144449  42.382  40.021   6.155
 8968POPC   GL244450  42.216  39.955   6.155
 8968POPC   C1A44451  42.312  40.054   6.455
 8968POPC   D2A44452  42.346  40.005   6.755
 8968POPC   C3A44453  42.291  40.022   7.055
 8968POPC   C4A44454  42.306  39.985   7.355
 8968POPC   C1B44455  42.128  39.813   6.455
 8968POPC   C2B44456  42.181  39.797   6.755
 8968POPC   C3B44457  42.178  39.880   7.055
 8968POPC   C4B44458  42.162  39.857   7.355
 8969POPC   NC344459  19.090  33.015   5.555
 8969POPC   PO444460  19.013  33.054   5.855
 8969POPC   GL144461  19.050  33.026   6.155
 8969POPC   GL244462  19.155  32.972   6.155
 8969POPC   C1A44463  19.048  33.008   6.455
 8969POPC   D2A44464  19.065  33.032   6.755
 8969POPC   C3A44465  19.107  33.030   7.055
 8969POPC   C4A44466  19.076  32.986   7.355
 8969POPC   C1B44467  19.304  32.963   6.455
 8969POPC   C2B44468  19.338  32.950   6.755
 8969POPC   C3B44469  19.267  32.959   7.055
 8969POPC   C4B44470  19.305  32.942   7.355
 8970POPC   NC344471  11.310  19.865   5.555
 8970POPC   PO444472  11.254  19.808   5.855
 8970POPC   GL144473  11.310  19.807   6.155
 8970POPC   GL244474  11.187  19.900   6.155
 8970POPC   C1A44475  11.330  19.868   6.455
 8970POPC   D2A44476  11.322  19.866   6.755
 8970POPC   C3A44477  11.303  19.876   7.055
 8970POPC   C4A44478  11.255  19.852   7.355
 8970POPC   C1B44479  11.091  19.902   6.455
 8970POPC   C2B44480  11.041  19.904   6.755
 8970POPC   C3B44481  11.021  19.930   7.055
 8970POPC   C4B44482  11.072  19.898   7.355
 8971POPC   NC344483  35.349  40.817   5.555
 8971POPC   PO444484  35.372  40.745   5.855
 8971POPC   GL144485  35.349  40.762   6.155
 8971POPC   GL244486  35.227  40.763   6.155
 8971POPC   C1A44487  35.331  40.829   6.455
 8971POPC   D2A44488  35.311  40.739   6.755
 8971POPC   C3A44489  35.377  40.781   7.055
 8971POPC   C4A44490  35.374  40.737   7.355
 8971POPC   C1B44491  35.092  40.650   6.455
 8971POPC   C2B44492  35.142  40.654   6.755
 8971POPC   C3B44493  35.081  40.697   7.055
 8971POPC   C4B44494  35.088  40.692   7.355
 8972POPC   NC344495  26.051  38.504   5.555
 8972POPC   PO444496  26.001  38.464   5.855
 8972POPC   GL144497  26.017  38.424   6.155
 8972POPC   GL244498  26.132  38.429   6.155
 8972POPC   C1A44499  26.046  38.471   6.455
 8972POPC   D2A44500  26.000  38.471   6.755
 8972POPC   C3A44501  26.005  38.498   7.055
 8972POPC   C4A44502  26.076  38.458   7.355
 8972POPC   C1B44503  26.286  38.459   6.455
 8972POPC   C2B44504  26.265  38.446   6.755
 8972POPC   C3B44505  26.297  38.456   7.055
 8972POPC   C4B44506  26.266  38.525   7.355
 8973POPC   NC344507   7.455   6.656   5.555
 8973POPC   PO444508   7.456   6.611   5.855
 8973POPC   GL144509   7.417   6.684   6.155
 8973POPC   GL244510   7.357   6.786   6.155
 8973POPC   C1A44511   7.392   6.688   6.455
 8973POPC   D2A44512   7.394   6.602   6.755
 8973POPC   C3A44513   7.440   6.616   7.055
 8973POPC   C4A44514   7.439   6.690   7.355
 8973POPC   C1B44515   7.233   6.842   6.455
 8973POPC   C2B44516   7.319   6.810   6.755
 8973POPC   C3B44517   7.284   6.814   7.055
 8973POPC   C4B44518   7.298   6.832   7.355
 8974POPC   NC344519  26.843  26.027   5.555
 8974POPC   PO444520  26.799  26.041   5.855
 8974POPC   GL144521  26.821  25.996   6.155
 8974POPC   GL244522  26.869  25.953   6.155
 8974POPC   C1A44523  26.822  26.042   6.455
 8974POPC   D2A44524  26.844  26.062   6.755
 8974POPC   C3A44525  26.788  26.038   7.055
 8974POPC   C4A44526  26.789  26.003   7.355
 8974POPC   C1B44527  26.971  25.812   6.455
 8974POPC   C2B44528  27.033  25.889   6.755
 8974POPC   C3B44529  27.028  25.881   7.055
 8974POPC   C4B44530  26.986  25.899   7.355
 8975POPC   NC344531  17.470  10.560   5.555
 8975POPC   PO444532  17.508  10.506   5.855
 8975POPC   GL144533  17.552  10.502   6.155
 8975POPC   GL244534  17.514  10.352   6.155
 8975POPC   C1A44535  17.458  10.529   6.455
 8975POPC   D2A44536  17.479  10.484   6.755
 8975POPC   C3A44537  17.481  10.571   7.055
 8975POPC   C4A44538  17.535  10.475   7.355
 8975POPC   C1B44539  17.465  10.295   6.455
 8975POPC   C2B44540  17.498  10.264   6.755
 8975POPC   C3B44541  17.476  10.237   7.055
 8975POPC   C4B44542  17.488  10.309   7.355
 8976POPC   NC344543  18.314  20.660   5.555
 8976POPC   PO444544  18.331  20.614   5.855
 8976POPC   GL144545  18.239  20.597   6.155
 8976POPC   GL244546  18.401  20.590   6.155
 8976POPC   C1A44547  18.305  20.657   6.455
 8976POPC   D2A44548  18.273  20.616   6.755
 8976POPC   C3A44549  18.295  20.602   7.055
 8976POPC   C4A44550  18.313  20.636   7.355
 8976POPC   C1B44551  18.500  20.701   6.455
 8976POPC   C2B44552  18.545  20.640   6.755
 8976POPC   C3B44553  18.542  20.609   7.055
 8976POPC   C4B44554  18.579  20.670   7.355
 8977POPC   NC344555  41.594  23.675   5.555
 8977POPC   PO444556  41.519  23.686   5.855
 8977POPC   GL144557  41.575  23.697   6.155
 8977POPC   GL244558  41.405  23.798   6.155
 8977POPC   C1A44559  41.547  23.692   6.455
 8977POPC   D2A44560  41.590  23.750   6.755
 8977POPC   C3A44561  41.523  23.732   7.055
 8977POPC   C4A44562  41.548  23.755   7.355
 8977POPC   C1B44563  41.320  23.788   6.455
 8977POPC   C2B44564  41.291  23.783   6.755
 8977POPC   C3B44565  41.371  23.779   7.055
 8977POPC   C4B44566  41.302  23.839   7.355
 8978POPC   NC344567  40.738  38.469   5.555
 8978POPC   PO444568  40.812  38.492   5.855
 8978POPC   GL144569  40.746  38.501   6.155
 8978POPC   GL244570  40.873  38.448   6.155
 8978POPC   C1A44571  40.809  38.445   6.455
 8978POPC   D2A44572  40.763  38.462   6.755
 8978POPC   C3A44573  40.784  38.471   7.055
 8978POPC   C4A44574  40.806  38.410   7.355
 8978POPC   C1B44575  40.969  38.323   6.455
 8978POPC   C2B44576  40.971  38.381   6.755
 8978POPC   C3B44577  41.055  38.383   7.055
 8978POPC   C4B44578  41.020  38.377   7.355
 8979POPC   NC344579  37.648   4.367   5.555
 8979POPC   PO444580  37.676   4.348   5.855
 8979POPC   GL144581  37.716   4.299   6.155
 8979POPC   GL244582  37.549   4.388   6.155
 8979POPC   C1A44583  37.657   4.269   6.455
 8979POPC   D2A44584  37.667   4.340   6.755
 8979POPC   C3A44585  37.666   4.294   7.055
 8979POPC   C4A44586  37.660   4.268   7.355
 8979POPC   C1B44587  37.414   4.383   6.455
 8979POPC   C2B44588  37.460   4.340   6.755
 8979POPC   C3B44589  37.417   4.332   7.055
 8979POPC   C4B44590  37.443   4.361   7.355
 8980POPC   NC344591  43.122  35.386   5.555
 8980POPC   PO444592  43.096  35.355   5.855
 8980POPC   GL144593  43.148  35.394   6.155
 8980POPC   GL244594  43.009  35.272   6.155
 8980POPC   C1A44595  43.125  35.389   6.455
 8980POPC   D2A44596  43.122  35.366   6.755
 8980POPC   C3A44597  43.066  35.398   7.055
 8980POPC   C4A44598  43.141  35.304   7.355
 8980POPC   C1B44599  42.940  35.208   6.455
 8980POPC   C2B44600  42.949  35.163   6.755
 8980POPC   C3B44601  42.970  35.127   7.055
 8980POPC   C4B44602  42.961  35.166   7.355
 8981POPC   NC344603  25.267  39.991   5.555
 8981POPC   PO444604  25.294  40.022   5.855
 8981POPC   GL144605  25.268  40.036   6.155
 8981POPC   GL244606  25.152  39.961   6.155
 8981POPC   C1A44607  25.289  39.998   6.455
 8981POPC   D2A44608  25.248  39.983   6.755
 8981POPC   C3A44609  25.305  40.051   7.055
 8981POPC   C4A44610  25.284  40.037   7.355
 8981POPC   C1B44611  25.047  39.891   6.455
 8981POPC   C2B44612  25.091  39.888   6.755
 8981POPC   C3B44613  25.051  39.836   7.055
 8981POPC   C4B44614  25.050  39.872   7.355
 8982POPC   NC344615  38.478  29.158   5.555
 8982POPC   PO444616  38.445  29.097   5.855
 8982POPC   GL144617  38.417  29.124   6.155
 8982POPC   GL244618  38.333  29.022   6.155
 8982POPC   C1A44619  38.454  29.102   6.455
 8982POPC   D2A44620  38.411  29.147   6.755
 8982POPC   C3A44621  38.416  29.150   7.055
 8982POPC   C4A44622  38.436  29.140   7.355
 8982POPC   C1B44623  38.271  29.021   6.455
 8982POPC   C2B44624  38.227  28.977   6.755
 8982POPC   C3B44625  38.319  28.937   7.055
 8982POPC   C4B44626  38.287  28.940   7.355
 8983POPC   NC344627   9.704  30.736   5.555
 8983POPC   PO444628   9.725  30.684   5.855
 8983POPC   GL144629   9.782  30.675   6.155
 8983POPC   GL244630   9.769  30.616   6.155
 8983POPC   C1A44631   9.746  30.725   6.455
 8983POPC   D2A44632   9.740  30.671   6.755
 8983POPC   C3A44633   9.758  30.669   7.055
 8983POPC   C4A44634   9.777  30.681   7.355
 8983POPC   C1B44635   9.722  30.487   6.455
 8983POPC   C2B44636   9.774  30.473   6.755
 8983POPC   C3B44637   9.701  30.481   7.055
 8983POPC   C4B44638   9.763  30.492   7.355
 8984POPC   NC344639  41.565  11.312   5.555
 8984POPC   PO444640  41.566  11.340   5.855
 8984POPC   GL144641  41.564  11.316   6.155
 8984POPC   GL244642  41.647  11.332   6.155
 8984POPC   C1A44643  41.539  11.285   6.455
 8984POPC   D2A44644  41.519  11.300   6.755
 8984POPC   C3A44645  41.604  11.315   7.055
 8984POPC   C4A44646  41.594  11.336   7.355
 8984POPC   C1B44647  41.750  11.414   6.455
 8984POPC   C2B44648  41.760  11.433   6.755
 8984POPC   C3B44649  41.753  11.454   7.055
 8984POPC   C4B44650  41.781  11.396   7.355
 8985POPC   NC344651  29.191  24.442   5.555
 8985POPC   PO444652  29.124  24.461   5.855
 8985POPC   GL144653  29.095  24.514   6.155
 8985POPC   GL244654  29.203  24.377   6.155
 8985POPC   C1A44655  29.183  24.465   6.455
 8985POPC   D2A44656  29.129  24.468   6.755
 8985POPC   C3A44657  29.137  24.536   7.055
 8985POPC   C4A44658  29.138  24.499   7.355
 8985POPC   C1B44659  29.259  24.219   6.455
 8985POPC   C2B44660  29.224  24.291   6.755
 8985POPC   C3B44661  29.223  24.256   7.055
 8985POPC   C4B44662  29.262  24.266   7.355
 8986POPC   NC344663  41.598  27.621   5.555
 8986POPC   PO444664  41.534  27.561   5.855
 8986POPC   GL144665  41.571  27.633   6.155
 8986POPC   GL244666  41.611  27.685   6.155
 8986POPC   C1A44667  41.566  27.639   6.455
 8986POPC   D2A44668  41.536  27.625   6.755
 8986POPC   C3A44669  41.522  27.544   7.055
 8986POPC   C4A44670  41.534  27.608   7.355
 8986POPC   C1B44671  41.671  27.773   6.455
 8986POPC   C2B44672  41.730  27.789   6.755
 8986POPC   C3B44673  41.728  27.793   7.055
 8986POPC   C4B44674  41.755  27.815   7.355
 8987POPC   NC344675   9.707  34.619   5.555
 8987POPC   PO444676   9.755  34.561   5.855
 8987POPC   GL144677   9.784  34.580   6.155
 8987POPC   GL244678   9.585  34.543   6.155
 8987POPC   C1A44679   9.776  34.584   6.455
 8987POPC   D2A44680   9.719  34.622   6.755
 8987POPC   C3A44681   9.723  34.556   7.055
 8987POPC   C4A44682   9.719  34.559   7.355
 8987POPC   C1B44683   9.526  34.548   6.455
 8987POPC   C2B44684   9.519  34.576   6.755
 8987POPC   C3B44685   9.453  34.558   7.055
 8987POPC   C4B44686   9.545  34.600   7.355
 8988POPC   NC344687  11.329  10.507   5.555
 8988POPC   PO444688  11.346  10.487   5.855
 8988POPC   GL144689  11.256  10.530   6.155
 8988POPC   GL244690  11.314  10.627   6.155
 8988POPC   C1A44691  11.310  10.494   6.455
 8988POPC   D2A44692  11.270  10.562   6.755
 8988POPC   C3A44693  11.324  10.491   7.055
 8988POPC   C4A44694  11.323  10.554   7.355
 8988POPC   C1B44695  11.249  10.735   6.455
 8988POPC   C2B44696  11.258  10.760   6.755
 8988POPC   C3B44697  11.286  10.721   7.055
 8988POPC   C4B44698  11.281  10.725   7.355
 8989POPC   NC344699   8.240  38.427   5.555
 8989POPC   PO444700   8.239  38.419   5.855
 8989POPC   GL144701   8.246  38.441   6.155
 8989POPC   GL244702   8.162  38.609   6.155
 8989POPC   C1A44703   8.178  38.476   6.455
 8989POPC   D2A44704   8.201  38.464   6.755
 8989POPC   C3A44705   8.189  38.470   7.055
 8989POPC   C4A44706   8.163  38.491   7.355
 8989POPC   C1B44707   8.094  38.706   6.455
 8989POPC   C2B44708   8.101  38.640   6.755
 8989POPC   C3B44709   8.051  38.641   7.055
 8989POPC   C4B44710   8.043  38.674   7.355
 8990POPC   NC344711  42.287  18.247   5.555
 8990POPC   PO444712  42.289  18.313   5.855
 8990POPC   GL144713  42.311  18.280   6.155
 8990POPC   GL244714  42.424  18.316   6.155
 8990POPC   C1A44715  42.303  18.322   6.455
 8990POPC   D2A44716  42.331  18.332   6.755
 8990POPC   C3A44717  42.340  18.270   7.055
 8990POPC   C4A44718  42.365  18.265   7.355
 8990POPC   C1B44719  42.619  18.301   6.455
 8990POPC   C2B44720  42.582  18.345   6.755
 8990POPC   C3B44721  42.585  18.301   7.055
 8990POPC   C4B44722  42.563  18.269   7.355
 8991POPC   NC344723  43.072  40.035   5.555
 8991POPC   PO444724  43.113  39.993   5.855
 8991POPC   GL144725  43.152  40.011   6.155
 8991POPC   GL244726  43.131  40.112   6.155
 8991POPC   C1A44727  43.102  40.001   6.455
 8991POPC   D2A44728  43.107  39.996   6.755
 8991POPC   C3A44729  43.091  40.001   7.055
 8991POPC   C4A44730  43.061  40.046   7.355
 8991POPC   C1B44731  43.167  40.260   6.455
 8991POPC   C2B44732  43.152  40.220   6.755
 8991POPC   C3B44733  43.170  40.209   7.055
 8991POPC   C4B44734  43.133  40.279   7.355
 8992POPC   NC344735  22.924   5.869   5.555
 8992POPC   PO444736  22.958   5.833   5.855
 8992POPC   GL144737  22.893   5.872   6.155
 8992POPC   GL244738  22.846   5.815   6.155
 8992POPC   C1A44739  22.971   5.918   6.455
 8992POPC   D2A44740  22.976   5.889   6.755
 8992POPC   C3A44741  22.888   5.823   7.055
 8992POPC   C4A44742  22.938   5.854   7.355
 8992POPC   C1B44743  22.756   5.722   6.455
 8992POPC   C2B44744  22.717   5.750   6.755
 8992POPC   C3B44745  22.764   5.665   7.055
 8992POPC   C4B44746  22.722   5.754   7.355
 8993POPC   NC344747   5.857   5.880   5.555
 8993POPC   PO444748   5.895   5.827   5.855
 8993POPC   GL144749   5.874   5.869   6.155
 8993POPC   GL244750   5.987   5.943   6.155
 8993POPC   C1A44751   5.917   5.861   6.455
 8993POPC   D2A44752   5.824   5.828   6.755
 8993POPC   C3A44753   5.888   5.825   7.055
 8993POPC   C4A44754   5.830   5.823   7.355
 8993POPC   C1B44755   6.091   5.932   6.455
 8993POPC   C2B44756   6.136   5.906   6.755
 8993POPC   C3B44757   6.115   5.914   7.055
 8993POPC   C4B44758   6.136   5.919   7.355
 8994POPC   NC344759   7.403  26.858   5.555
 8994POPC   PO444760   7.390  26.814   5.855
 8994POPC   GL144761   7.440  26.779   6.155
 8994POPC   GL244762   7.502  26.929   6.155
 8994POPC   C1A44763   7.426  26.846   6.455
 8994POPC   D2A44764   7.456  26.780   6.755
 8994POPC   C3A44765   7.426  26.789   7.055
 8994POPC   C4A44766   7.383  26.835   7.355
 8994POPC   C1B44767   7.552  27.076   6.455
 8994POPC   C2B44768   7.538  27.055   6.755
 8994POPC   C3B44769   7.522  27.053   7.055
 8994POPC   C4B44770   7.532  27.034   7.355
 8995POPC   NC344771  39.981  42.382   5.555
 8995POPC   PO444772  39.978  42.314   5.855
 8995POPC   GL144773  39.984  42.336   6.155
 8995POPC   GL244774  40.106  42.243   6.155
 8995POPC   C1A44775  40.007  42.351   6.455
 8995POPC   D2A44776  39.969  42.366   6.755
 8995POPC   C3A44777  39.982  42.291   7.055
 8995POPC   C4A44778  39.978  42.343   7.355
 8995POPC   C1B44779  40.189  42.227   6.455
 8995POPC   C2B44780  40.158  42.207   6.755
 8995POPC   C3B44781  40.216  42.211   7.055
 8995POPC   C4B44782  40.242  42.204   7.355
 8996POPC   NC344783  35.361  43.846   5.555
 8996POPC   PO444784  35.335  43.936   5.855
 8996POPC   GL144785  35.377  43.856   6.155
 8996POPC   GL244786  35.224  43.998   6.155
 8996POPC   C1A44787  35.341  43.884   6.455
 8996POPC   D2A44788  35.377  43.837   6.755
 8996POPC   C3A44789  35.397  43.932   7.055
 8996POPC   C4A44790  35.384  43.912   7.355
 8996POPC   C1B44791  35.213  44.105   6.455
 8996POPC   C2B44792  35.138  44.078   6.755
 8996POPC   C3B44793  35.173  44.017   7.055
 8996POPC   C4B44794  35.168  44.044   7.355
 8997POPC   NC344795  33.849  24.465   5.555
 8997POPC   PO444796  33.819  24.500   5.855
 8997POPC   GL144797  33.830  24.533   6.155
 8997POPC   GL244798  33.682  24.448   6.155
 8997POPC   C1A44799  33.767  24.486   6.455
 8997POPC   D2A44800  33.811  24.519   6.755
 8997POPC   C3A44801  33.756  24.469   7.055
 8997POPC   C4A44802  33.777  24.511   7.355
 8997POPC   C1B44803  33.575  24.378   6.455
 8997POPC   C2B44804  33.573  24.419   6.755
 8997POPC   C3B44805  33.593  24.385   7.055
 8997POPC   C4B44806  33.586  24.424   7.355
 8998POPC   NC344807  25.291  41.582   5.555
 8998POPC   PO444808  25.279  41.559   5.855
 8998POPC   GL144809  25.296  41.600   6.155
 8998POPC   GL244810  25.364  41.647   6.155
 8998POPC   C1A44811  25.225  41.586   6.455
 8998POPC   D2A44812  25.221  41.536   6.755
 8998POPC   C3A44813  25.301  41.512   7.055
 8998POPC   C4A44814  25.235  41.556   7.355
 8998POPC   C1B44815  25.408  41.711   6.455
 8998POPC   C2B44816  25.398  41.776   6.755
 8998POPC   C3B44817  25.399  41.722   7.055
 8998POPC   C4B44818  25.469  41.764   7.355
 8999POPC   NC344819  34.569  29.184   5.555
 8999POPC   PO444820  34.577  29.169   5.855
 8999POPC   GL144821  34.565  29.120   6.155
 8999POPC   GL244822  34.683  29.186   6.155
 8999POPC   C1A44823  34.537  29.173   6.455
 8999POPC   D2A44824  34.616  29.129   6.755
 8999POPC   C3A44825  34.551  29.111   7.055
 8999POPC   C4A44826  34.611  29.144   7.355
 8999POPC   C1B44827  34.804  29.220   6.455
 8999POPC   C2B44828  34.760  29.238   6.755
 8999POPC   C3B44829  34.754  29.245   7.055
 8999POPC   C4B44830  34.803  29.288   7.355
 9000POPC   NC344831  19.062  19.080   5.555
 9000POPC   PO444832  19.089  19.010   5.855
 9000POPC   GL144833  19.037  19.012   6.155
 9000POPC   GL244834  19.031  19.190   6.155
 9000POPC   C1A44835  19.080  19.011   6.455
 9000POPC   D2A44836  19.102  19.090   6.755
 9000POPC   C3A44837  19.020  19.074   7.055
 9000POPC   C4A44838  19.009  19.095   7.355
 9000POPC   C1B44839  19.075  19.266   6.455
 9000POPC   C2B44840  19.062  19.299   6.755
 9000POPC   C3B44841  19.116  19.289   7.055
 9000POPC   C4B44842  19.120  19.260   7.355
 9001POPC   NC344843  43.904  25.250   5.555
 9001POPC   PO444844  43.899  25.262   5.855
 9001POPC   GL144845  43.861  25.287   6.155
 9001POPC   GL244846  43.890  25.420   6.155
 9001POPC   C1A44847  43.853  25.296   6.455
 9001POPC   D2A44848  43.934  25.309   6.755
 9001POPC   C3A44849  43.899  25.255   7.055
 9001POPC   C4A44850  43.931  25.242   7.355
 9001POPC   C1B44851  43.955  25.545   6.455
 9001POPC   C2B44852  43.994  25.451   6.755
 9001POPC   C3B44853  44.014  25.470   7.055
 9001POPC   C4B44854  43.942  25.546   7.355
 9002POPC   NC344855  11.300  26.836   5.555
 9002POPC   PO444856  11.346  26.830   5.855
 9002POPC   GL144857  11.262  26.851   6.155
 9002POPC   GL244858  11.330  26.900   6.155
 9002POPC   C1A44859  11.278  26.772   6.455
 9002POPC   D2A44860  11.302  26.826   6.755
 9002POPC   C3A44861  11.324  26.846   7.055
 9002POPC   C4A44862  11.325  26.790   7.355
 9002POPC   C1B44863  11.417  27.020   6.455
 9002POPC   C2B44864  11.454  27.051   6.755
 9002POPC   C3B44865  11.422  27.022   7.055
 9002POPC   C4B44866  11.385  27.017   7.355
 9003POPC   NC344867  16.753  12.035   5.555
 9003POPC   PO444868  16.736  12.112   5.855
 9003POPC   GL144869  16.701  12.104   6.155
 9003POPC   GL244870  16.578  11.988   6.155
 9003POPC   C1A44871  16.721  12.046   6.455
 9003POPC   D2A44872  16.772  12.031   6.755
 9003POPC   C3A44873  16.697  12.056   7.055
 9003POPC   C4A44874  16.734  12.076   7.355
 9003POPC   C1B44875  16.497  11.952   6.455
 9003POPC   C2B44876  16.548  11.958   6.755
 9003POPC   C3B44877  16.525  11.972   7.055
 9003POPC   C4B44878  16.470  12.015   7.355
 9004POPC   NC344879  16.689   1.181   5.555
 9004POPC   PO444880  16.748   1.235   5.855
 9004POPC   GL144881  16.723   1.228   6.155
 9004POPC   GL244882  16.757   1.134   6.155
 9004POPC   C1A44883  16.767   1.258   6.455
 9004POPC   D2A44884  16.761   1.170   6.755
 9004POPC   C3A44885  16.762   1.233   7.055
 9004POPC   C4A44886  16.762   1.175   7.355
 9004POPC   C1B44887  16.753   0.930   6.455
 9004POPC   C2B44888  16.803   1.012   6.755
 9004POPC   C3B44889  16.835   0.939   7.055
 9004POPC   C4B44890  16.780   0.981   7.355
 9005POPC   NC344891  11.292   1.211   5.555
 9005POPC   PO444892  11.309   1.259   5.855
 9005POPC   GL144893  11.291   1.256   6.155
 9005POPC   GL244894  11.444   1.127   6.155
 9005POPC   C1A44895  11.270   1.217   6.455
 9005POPC   D2A44896  11.321   1.241   6.755
 9005POPC   C3A44897  11.291   1.209   7.055
 9005POPC   C4A44898  11.318   1.242   7.355
 9005POPC   C1B44899  11.502   1.014   6.455
 9005POPC   C2B44900  11.491   1.038   6.755
 9005POPC   C3B44901  11.459   1.008   7.055
 9005POPC   C4B44902  11.537   1.015   7.355
 9006POPC   NC344903  36.899  43.866   5.555
 9006POPC   PO444904  36.920  43.871   5.855
 9006POPC   GL144905  36.949  43.903   6.155
 9006POPC   GL244906  36.995  43.964   6.155
 9006POPC   C1A44907  36.946  43.923   6.455
 9006POPC   D2A44908  36.898  43.914   6.755
 9006POPC   C3A44909  36.938  43.843   7.055
 9006POPC   C4A44910  36.896  43.843   7.355
 9006POPC   C1B44911  37.081  43.994   6.455
 9006POPC   C2B44912  37.156  44.042   6.755
 9006POPC   C3B44913  37.123  44.050   7.055
 9006POPC   C4B44914  37.111  43.996   7.355
 9007POPC   NC344915  41.528  34.583   5.555
 9007POPC   PO444916  41.534  34.623   5.855
 9007POPC   GL144917  41.553  34.598   6.155
 9007POPC   GL244918  41.476  34.458   6.155
 9007POPC   C1A44919  41.539  34.527   6.455
 9007POPC   D2A44920  41.538  34.538   6.755
 9007POPC   C3A44921  41.569  34.575   7.055
 9007POPC   C4A44922  41.607  34.541   7.355
 9007POPC   C1B44923  41.321  34.403   6.455
 9007POPC   C2B44924  41.377  34.380   6.755
 9007POPC   C3B44925  41.394  34.380   7.055
 9007POPC   C4B44926  41.313  34.414   7.355
 9008POPC   NC344927  36.119  44.626   5.555
 9008POPC   PO444928  36.172  44.677   5.855
 9008POPC   GL144929  36.131  44.700   6.155
 9008POPC   GL244930  36.007  44.659   6.155
 9008POPC   C1A44931  36.160  44.667   6.455
 9008POPC   D2A44932  36.138  44.684   6.755
 9008POPC   C3A44933  36.161  44.689   7.055
 9008POPC   C4A44934  36.127  44.629   7.355
 9008POPC   C1B44935  35.859  44.673   6.455
 9008POPC   C2B44936  35.925  44.623   6.755
 9008POPC   C3B44937  35.896  44.619   7.055
 9008POPC   C4B44938  35.908  44.715   7.355
 9009POPC   NC344939   5.901   4.357   5.555
 9009POPC   PO444940   5.836   4.336   5.855
 9009POPC   GL144941   5.906   4.278   6.155
 9009POPC   GL244942   5.880   4.158   6.155
 9009POPC   C1A44943   5.907   4.360   6.455
 9009POPC   D2A44944   5.884   4.294   6.755
 9009POPC   C3A44945   5.869   4.314   7.055
 9009POPC   C4A44946   5.885   4.345   7.355
 9009POPC   C1B44947   5.965   4.071   6.455
 9009POPC   C2B44948   6.035   4.058   6.755
 9009POPC   C3B44949   5.968   4.081   7.055
 9009POPC   C4B44950   5.992   4.144   7.355
 9010POPC   NC344951  15.183   5.125   5.555
 9010POPC   PO444952  15.202   5.132   5.855
 9010POPC   GL144953  15.148   5.084   6.155
 9010POPC   GL244954  15.222   4.990   6.155
 9010POPC   C1A44955  15.147   5.127   6.455
 9010POPC   D2A44956  15.130   5.077   6.755
 9010POPC   C3A44957  15.139   5.125   7.055
 9010POPC   C4A44958  15.160   5.104   7.355
 9010POPC   C1B44959  15.283   4.888   6.455
 9010POPC   C2B44960  15.286   4.819   6.755
 9010POPC   C3B44961  15.249   4.807   7.055
 9010POPC   C4B44962  15.237   4.805   7.355
 9011POPC   NC344963   5.061  27.570   5.555
 9011POPC   PO444964   5.107  27.634   5.855
 9011POPC   GL144965   5.103  27.570   6.155
 9011POPC   GL244966   5.175  27.592   6.155
 9011POPC   C1A44967   5.119  27.559   6.455
 9011POPC   D2A44968   5.099  27.544   6.755
 9011POPC   C3A44969   5.142  27.585   7.055
 9011POPC   C4A44970   5.121  27.602   7.355
 9011POPC   C1B44971   5.303  27.586   6.455
 9011POPC   C2B44972   5.296  27.599   6.755
 9011POPC   C3B44973   5.370  27.573   7.055
 9011POPC   C4B44974   5.320  27.642   7.355
 9012POPC   NC344975  34.546  43.879   5.555
 9012POPC   PO444976  34.567  43.851   5.855
 9012POPC   GL144977  34.588  43.870   6.155
 9012POPC   GL244978  34.542  43.761   6.155
 9012POPC   C1A44979  34.541  43.843   6.455
 9012POPC   D2A44980  34.619  43.926   6.755
 9012POPC   C3A44981  34.571  43.854   7.055
 9012POPC   C4A44982  34.591  43.876   7.355
 9012POPC   C1B44983  34.592  43.612   6.455
 9012POPC   C2B44984  34.544  43.661   6.755
 9012POPC   C3B44985  34.565  43.606   7.055
 9012POPC   C4B44986  34.564  43.611   7.355
 9013POPC   NC344987  36.926  27.560   5.555
 9013POPC   PO444988  36.949  27.589   5.855
 9013POPC   GL144989  36.933  27.587   6.155
 9013POPC   GL244990  37.023  27.541   6.155
 9013POPC   C1A44991  36.867  27.624   6.455
 9013POPC   D2A44992  36.919  27.576   6.755
 9013POPC   C3A44993  36.881  27.642   7.055
 9013POPC   C4A44994  36.951  27.613   7.355
 9013POPC   C1B44995  37.092  27.430   6.455
 9013POPC   C2B44996  37.086  27.389   6.755
 9013POPC   C3B44997  37.064  27.443   7.055
 9013POPC   C4B44998  37.054  27.447   7.355
 9014POPC   NC344999  33.761  40.036   5.555
 9014POPC   PO445000  33.758  39.969   5.855
 9014POPC   GL145001  33.831  39.984   6.155
 9014POPC   GL245002  33.870  40.156   6.155
 9014POPC   C1A45003  33.814  40.047   6.455
 9014POPC   D2A45004  33.792  40.014   6.755
 9014POPC   C3A45005  33.759  40.024   7.055
 9014POPC   C4A45006  33.770  40.028   7.355
 9014POPC   C1B45007  33.882  40.216   6.455
 9014POPC   C2B45008  33.933  40.260   6.755
 9014POPC   C3B45009  33.891  40.235   7.055
 9014POPC   C4B45010  33.956  40.272   7.355
 9015POPC   NC345011   5.916  14.409   5.555
 9015POPC   PO445012   5.886  14.387   5.855
 9015POPC   GL145013   5.860  14.401   6.155
 9015POPC   GL245014   5.901  14.519   6.155
 9015POPC   C1A45015   5.897  14.354   6.455
 9015POPC   D2A45016   5.904  14.403   6.755
 9015POPC   C3A45017   5.904  14.425   7.055
 9015POPC   C4A45018   5.821  14.387   7.355
 9015POPC   C1B45019   5.900  14.660   6.455
 9015POPC   C2B45020   5.825  14.636   6.755
 9015POPC   C3B45021   5.842  14.640   7.055
 9015POPC   C4B45022   5.882  14.669   7.355
 9016POPC   NC345023  44.621   9.755   5.555
 9016POPC   PO445024  44.686   9.781   5.855
 9016POPC   GL145025  44.645   9.703   6.155
 9016POPC   GL245026  44.758   9.735   6.155
 9016POPC   C1A45027  44.666   9.718   6.455
 9016POPC   D2A45028  44.635   9.745   6.755
 9016POPC   C3A45029  44.668   9.701   7.055
 9016POPC   C4A45030  44.686   9.776   7.355
 9016POPC   C1B45031  44.926   9.703   6.455
 9016POPC   C2B45032  44.897   9.721   6.755
 9016POPC   C3B45033  44.900   9.744   7.055
 9016POPC   C4B45034  44.950   9.726   7.355
 9017POPC   NC345035  16.703  39.269   5.555
 9017POPC   PO445036  16.703  39.276   5.855
 9017POPC   GL145037  16.780  39.236   6.155
 9017POPC   GL245038  16.792  39.360   6.155
 9017POPC   C1A45039  16.722  39.186   6.455
 9017POPC   D2A45040  16.736  39.250   6.755
 9017POPC   C3A45041  16.748  39.192   7.055
 9017POPC   C4A45042  16.725  39.209   7.355
 9017POPC   C1B45043  16.914  39.370   6.455
 9017POPC   C2B45044  16.888  39.449   6.755
 9017POPC   C3B45045  16.875  39.368   7.055
 9017POPC   C4B45046  16.867  39.424   7.355
 9018POPC   NC345047  11.293  27.624   5.555
 9018POPC   PO445048  11.335  27.634   5.855
 9018POPC   GL145049  11.292  27.630   6.155
 9018POPC   GL245050  11.190  27.651   6.155
 9018POPC   C1A45051  11.346  27.549   6.455
 9018POPC   D2A45052  11.313  27.592   6.755
 9018POPC   C3A45053  11.251  27.572   7.055
 9018POPC   C4A45054  11.274  27.625   7.355
 9018POPC   C1B45055  11.161  27.755   6.455
 9018POPC   C2B45056  11.125  27.766   6.755
 9018POPC   C3B45057  11.092  27.778   7.055
 9018POPC   C4B45058  11.131  27.774   7.355
 9019POPC   NC345059  40.747   4.323   5.555
 9019POPC   PO445060  40.755   4.289   5.855
 9019POPC   GL145061  40.808   4.334   6.155
 9019POPC   GL245062  40.749   4.417   6.155
 9019POPC   C1A45063  40.741   4.362   6.455
 9019POPC   D2A45064  40.826   4.353   6.755
 9019POPC   C3A45065  40.766   4.293   7.055
 9019POPC   C4A45066  40.748   4.282   7.355
 9019POPC   C1B45067  40.641   4.556   6.455
 9019POPC   C2B45068  40.597   4.565   6.755
 9019POPC   C3B45069  40.593   4.544   7.055
 9019POPC   C4B45070  40.615   4.493   7.355
 9020POPC   NC345071  25.217  23.741   5.555
 9020POPC   PO445072  25.226  23.741   5.855
 9020POPC   GL145073  25.251  23.684   6.155
 9020POPC   GL245074  25.129  23.693   6.155
 9020POPC   C1A45075  25.236  23.736   6.455
 9020POPC   D2A45076  25.223  23.693   6.755
 9020POPC   C3A45077  25.313  23.694   7.055
 9020POPC   C4A45078  25.281  23.673   7.355
 9020POPC   C1B45079  25.019  23.708   6.455
 9020POPC   C2B45080  24.994  23.663   6.755
 9020POPC   C3B45081  25.026  23.727   7.055
 9020POPC   C4B45082  25.066  23.640   7.355
 9021POPC   NC345083  43.910  43.069   5.555
 9021POPC   PO445084  43.919  43.093   5.855
 9021POPC   GL145085  43.847  43.066   6.155
 9021POPC   GL245086  44.011  43.090   6.155
 9021POPC   C1A45087  43.847  43.125   6.455
 9021POPC   D2A45088  43.852  43.110   6.755
 9021POPC   C3A45089  43.930  43.128   7.055
 9021POPC   C4A45090  43.902  43.113   7.355
 9021POPC   C1B45091  44.121  42.965   6.455
 9021POPC   C2B45092  44.105  42.968   6.755
 9021POPC   C3B45093  44.077  42.995   7.055
 9021POPC   C4B45094  44.058  43.015   7.355
 9022POPC   NC345095  20.647  26.024   5.555
 9022POPC   PO445096  20.604  25.992   5.855
 9022POPC   GL145097  20.623  26.042   6.155
 9022POPC   GL245098  20.530  26.193   6.155
 9022POPC   C1A45099  20.654  26.041   6.455
 9022POPC   D2A45100  20.593  25.998   6.755
 9022POPC   C3A45101  20.635  26.048   7.055
 9022POPC   C4A45102  20.566  25.998   7.355
 9022POPC   C1B45103  20.542  26.247   6.455
 9022POPC   C2B45104  20.580  26.317   6.755
 9022POPC   C3B45105  20.576  26.275   7.055
 9022POPC   C4B45106  20.561  26.289   7.355
 9023POPC   NC345107   5.133  34.601   5.555
 9023POPC   PO445108   5.063  34.539   5.855
 9023POPC   GL145109   5.060  34.532   6.155
 9023POPC   GL245110   5.063  34.423   6.155
 9023POPC   C1A45111   5.079  34.596   6.455
 9023POPC   D2A45112   5.101  34.582   6.755
 9023POPC   C3A45113   5.082  34.545   7.055
 9023POPC   C4A45114   5.047  34.625   7.355
 9023POPC   C1B45115   5.078  34.289   6.455
 9023POPC   C2B45116   5.011  34.307   6.755
 9023POPC   C3B45117   5.068  34.344   7.055
 9023POPC   C4B45118   5.021  34.302   7.355
 9024POPC   NC345119  12.110  18.318   5.555
 9024POPC   PO445120  12.101  18.278   5.855
 9024POPC   GL145121  12.037  18.257   6.155
 9024POPC   GL245122  11.999  18.214   6.155
 9024POPC   C1A45123  12.072  18.306   6.455
 9024POPC   D2A45124  12.083  18.290   6.755
 9024POPC   C3A45125  12.033  18.265   7.055
 9024POPC   C4A45126  12.077  18.262   7.355
 9024POPC   C1B45127  11.944  18.062   6.455
 9024POPC   C2B45128  12.025  18.039   6.755
 9024POPC   C3B45129  11.961  18.046   7.055
 9024POPC   C4B45130  12.016  18.075   7.355
 9025POPC   NC345131   8.946  19.032   5.555
 9025POPC   PO445132   9.019  19.050   5.855
 9025POPC   GL145133   9.002  19.041   6.155
 9025POPC   GL245134   9.134  19.141   6.155
 9025POPC   C1A45135   8.928  19.071   6.455
 9025POPC   D2A45136   8.952  19.067   6.755
 9025POPC   C3A45137   9.010  19.082   7.055
 9025POPC   C4A45138   8.958  19.085   7.355
 9025POPC   C1B45139   9.224  19.097   6.455
 9025POPC   C2B45140   9.254  19.078   6.755
 9025POPC   C3B45141   9.179  19.092   7.055
 9025POPC   C4B45142   9.230  19.123   7.355
 9026POPC   NC345143  15.136  22.987   5.555
 9026POPC   PO445144  15.167  22.981   5.855
 9026POPC   GL145145  15.210  22.954   6.155
 9026POPC   GL245146  15.207  22.856   6.155
 9026POPC   C1A45147  15.159  22.922   6.455
 9026POPC   D2A45148  15.188  22.933   6.755
 9026POPC   C3A45149  15.201  22.980   7.055
 9026POPC   C4A45150  15.224  22.917   7.355
 9026POPC   C1B45151  15.357  22.692   6.455
 9026POPC   C2B45152  15.293  22.762   6.755
 9026POPC   C3B45153  15.318  22.760   7.055
 9026POPC   C4B45154  15.357  22.682   7.355
 9027POPC   NC345155  19.815  30.709   5.555
 9027POPC   PO445156  19.815  30.661   5.855
 9027POPC   GL145157  19.800  30.686   6.155
 9027POPC   GL245158  19.747  30.612   6.155
 9027POPC   C1A45159  19.807  30.743   6.455
 9027POPC   D2A45160  19.856  30.710   6.755
 9027POPC   C3A45161  19.814  30.725   7.055
 9027POPC   C4A45162  19.876  30.687   7.355
 9027POPC   C1B45163  19.682  30.488   6.455
 9027POPC   C2B45164  19.697  30.431   6.755
 9027POPC   C3B45165  19.752  30.451   7.055
 9027POPC   C4B45166  19.721  30.508   7.355
 9028POPC   NC345167   1.979   4.271   5.555
 9028POPC   PO445168   1.971   4.302   5.855
 9028POPC   GL145169   1.995   4.290   6.155
 9028POPC   GL245170   1.970   4.434   6.155
 9028POPC   C1A45171   1.962   4.347   6.455
 9028POPC   D2A45172   1.993   4.316   6.755
 9028POPC   C3A45173   1.951   4.272   7.055
 9028POPC   C4A45174   2.037   4.367   7.355
 9028POPC   C1B45175   2.040   4.612   6.455
 9028POPC   C2B45176   2.059   4.517   6.755
 9028POPC   C3B45177   1.998   4.587   7.055
 9028POPC   C4B45178   2.021   4.527   7.355
 9029POPC   NC345179  19.086  15.914   5.555
 9029POPC   PO445180  19.100  15.999   5.855
 9029POPC   GL145181  19.013  15.915   6.155
 9029POPC   GL245182  18.975  16.116   6.155
 9029POPC   C1A45183  19.055  15.947   6.455
 9029POPC   D2A45184  19.091  15.945   6.755
 9029POPC   C3A45185  19.062  15.931   7.055
 9029POPC   C4A45186  19.072  15.973   7.355
 9029POPC   C1B45187  18.981  16.237   6.455
 9029POPC   C2B45188  19.009  16.201   6.755
 9029POPC   C3B45189  19.035  16.149   7.055
 9029POPC   C4B45190  18.969  16.205   7.355
 9030POPC   NC345191  10.542  10.550   5.555
 9030POPC   PO445192  10.532  10.527   5.855
 9030POPC   GL145193  10.520  10.564   6.155
 9030POPC   GL245194  10.564  10.673   6.155
 9030POPC   C1A45195  10.570  10.483   6.455
 9030POPC   D2A45196  10.492  10.514   6.755
 9030POPC   C3A45197  10.556  10.525   7.055
 9030POPC   C4A45198  10.546  10.559   7.355
 9030POPC   C1B45199  10.583  10.729   6.455
 9030POPC   C2B45200  10.609  10.722   6.755
 9030POPC   C3B45201  10.545  10.751   7.055
 9030POPC   C4B45202  10.549  10.726   7.355
 9031POPC   NC345203  37.710  16.711   5.555
 9031POPC   PO445204  37.640  16.751   5.855
 9031POPC   GL145205  37.677  16.702   6.155
 9031POPC   GL245206  37.772  16.774   6.155
 9031POPC   C1A45207  37.637  16.769   6.455
 9031POPC   D2A45208  37.655  16.726   6.755
 9031POPC   C3A45209  37.646  16.765   7.055
 9031POPC   C4A45210  37.670  16.736   7.355
 9031POPC   C1B45211  37.903  16.802   6.455
 9031POPC   C2B45212  37.876  16.819   6.755
 9031POPC   C3B45213  37.958  16.806   7.055
 9031POPC   C4B45214  37.889  16.830   7.355
 9032POPC   NC345215  16.728  18.246   5.555
 9032POPC   PO445216  16.689  18.280   5.855
 9032POPC   GL145217  16.776  18.241   6.155
 9032POPC   GL245218  16.809  18.209   6.155
 9032POPC   C1A45219  16.707  18.263   6.455
 9032POPC   D2A45220  16.704  18.322   6.755
 9032POPC   C3A45221  16.724  18.278   7.055
 9032POPC   C4A45222  16.715  18.292   7.355
 9032POPC   C1B45223  16.816  18.066   6.455
 9032POPC   C2B45224  16.820  18.028   6.755
 9032POPC   C3B45225  16.777  18.040   7.055
 9032POPC   C4B45226  16.800  17.999   7.355
 9033POPC   NC345227  17.486  35.366   5.555
 9033POPC   PO445228  17.557  35.394   5.855
 9033POPC   GL145229  17.525  35.331   6.155
 9033POPC   GL245230  17.608  35.286   6.155
 9033POPC   C1A45231  17.545  35.400   6.455
 9033POPC   D2A45232  17.468  35.373   6.755
 9033POPC   C3A45233  17.463  35.333   7.055
 9033POPC   C4A45234  17.540  35.347   7.355
 9033POPC   C1B45235  17.771  35.229   6.455
 9033POPC   C2B45236  17.784  35.238   6.755
 9033POPC   C3B45237  17.726  35.324   7.055
 9033POPC   C4B45238  17.755  35.275   7.355
 9034POPC   NC345239  42.331  31.463   5.555
 9034POPC   PO445240  42.301  31.440   5.855
 9034POPC   GL145241  42.323  31.492   6.155
 9034POPC   GL245242  42.304  31.554   6.155
 9034POPC   C1A45243  42.304  31.502   6.455
 9034POPC   D2A45244  42.384  31.484   6.755
 9034POPC   C3A45245  42.340  31.508   7.055
 9034POPC   C4A45246  42.301  31.431   7.355
 9034POPC   C1B45247  42.228  31.724   6.455
 9034POPC   C2B45248  42.159  31.701   6.755
 9034POPC   C3B45249  42.173  31.657   7.055
 9034POPC   C4B45250  42.193  31.661   7.355
 9035POPC   NC345251  34.616  22.892   5.555
 9035POPC   PO445252  34.615  22.895   5.855
 9035POPC   GL145253  34.588  22.954   6.155
 9035POPC   GL245254  34.502  22.806   6.155
 9035POPC   C1A45255  34.604  22.974   6.455
 9035POPC   D2A45256  34.555  22.977   6.755
 9035POPC   C3A45257  34.559  22.935   7.055
 9035POPC   C4A45258  34.537  22.984   7.355
 9035POPC   C1B45259  34.504  22.726   6.455
 9035POPC   C2B45260  34.532  22.744   6.755
 9035POPC   C3B45261  34.470  22.683   7.055
 9035POPC   C4B45262  34.522  22.653   7.355
 9036POPC   NC345263  36.144  28.409   5.555
 9036POPC   PO445264  36.107  28.416   5.855
 9036POPC   GL145265  36.126  28.320   6.155
 9036POPC   GL245266  36.190  28.495   6.155
 9036POPC   C1A45267  36.136  28.387   6.455
 9036POPC   D2A45268  36.161  28.418   6.755
 9036POPC   C3A45269  36.120  28.409   7.055
 9036POPC   C4A45270  36.171  28.374   7.355
 9036POPC   C1B45271  36.216  28.548   6.455
 9036POPC   C2B45272  36.279  28.622   6.755
 9036POPC   C3B45273  36.272  28.624   7.055
 9036POPC   C4B45274  36.256  28.628   7.355
 9037POPC   NC345275  35.381  15.907   5.555
 9037POPC   PO445276  35.312  15.950   5.855
 9037POPC   GL145277  35.395  15.963   6.155
 9037POPC   GL245278  35.438  16.001   6.155
 9037POPC   C1A45279  35.342  15.987   6.455
 9037POPC   D2A45280  35.358  15.957   6.755
 9037POPC   C3A45281  35.350  15.913   7.055
 9037POPC   C4A45282  35.343  15.995   7.355
 9037POPC   C1B45283  35.631  15.982   6.455
 9037POPC   C2B45284  35.619  15.976   6.755
 9037POPC   C3B45285  35.578  16.049   7.055
 9037POPC   C4B45286  35.550  16.048   7.355
 9038POPC   NC345287  14.448  43.896   5.555
 9038POPC   PO445288  14.439  43.891   5.855
 9038POPC   GL145289  14.361  43.926   6.155
 9038POPC   GL245290  14.294  43.988   6.155
 9038POPC   C1A45291  14.425  43.934   6.455
 9038POPC   D2A45292  14.440  43.867   6.755
 9038POPC   C3A45293  14.389  43.898   7.055
 9038POPC   C4A45294  14.393  43.880   7.355
 9038POPC   C1B45295  14.183  44.000   6.455
 9038POPC   C2B45296  14.176  44.031   6.755
 9038POPC   C3B45297  14.144  43.975   7.055
 9038POPC   C4B45298  14.219  44.057   7.355
 9039POPC   NC345299  29.895   9.723   5.555
 9039POPC   PO445300  29.910   9.704   5.855
 9039POPC   GL145301  29.970   9.730   6.155
 9039POPC   GL245302  30.035   9.778   6.155
 9039POPC   C1A45303  29.881   9.764   6.455
 9039POPC   D2A45304  29.962   9.795   6.755
 9039POPC   C3A45305  29.928   9.789   7.055
 9039POPC   C4A45306  29.897   9.782   7.355
 9039POPC   C1B45307  30.160   9.819   6.455
 9039POPC   C2B45308  30.146   9.839   6.755
 9039POPC   C3B45309  30.198   9.870   7.055
 9039POPC   C4B45310  30.187   9.836   7.355
 9040POPC   NC345311   4.353   2.004   5.555
 9040POPC   PO445312   4.276   2.021   5.855
 9040POPC   GL145313   4.276   1.985   6.155
 9040POPC   GL245314   4.464   2.004   6.155
 9040POPC   C1A45315   4.362   1.973   6.455
 9040POPC   D2A45316   4.362   1.977   6.755
 9040POPC   C3A45317   4.298   1.969   7.055
 9040POPC   C4A45318   4.277   1.951   7.355
 9040POPC   C1B45319   4.597   1.965   6.455
 9040POPC   C2B45320   4.573   1.994   6.755
 9040POPC   C3B45321   4.538   1.950   7.055
 9040POPC   C4B45322   4.599   2.028   7.355
 9041POPC   NC345323  43.081  26.005   5.555
 9041POPC   PO445324  43.108  26.088   5.855
 9041POPC   GL145325  43.092  26.072   6.155
 9041POPC   GL245326  43.033  26.120   6.155
 9041POPC   C1A45327  43.142  26.005   6.455
 9041POPC   D2A45328  43.122  26.089   6.755
 9041POPC   C3A45329  43.131  26.073   7.055
 9041POPC   C4A45330  43.062  26.065   7.355
 9041POPC   C1B45331  42.940  26.183   6.455
 9041POPC   C2B45332  42.990  26.244   6.755
 9041POPC   C3B45333  42.982  26.272   7.055
 9041POPC   C4B45334  42.996  26.249   7.355
 9042POPC   NC345335  36.095  26.824   5.555
 9042POPC   PO445336  36.087  26.806   5.855
 9042POPC   GL145337  36.114  26.849   6.155
 9042POPC   GL245338  36.008  26.697   6.155
 9042POPC   C1A45339  36.086  26.845   6.455
 9042POPC   D2A45340  36.094  26.844   6.755
 9042POPC   C3A45341  36.167  26.848   7.055
 9042POPC   C4A45342  36.152  26.852   7.355
 9042POPC   C1B45343  35.993  26.610   6.455
 9042POPC   C2B45344  35.986  26.679   6.755
 9042POPC   C3B45345  35.987  26.604   7.055
 9042POPC   C4B45346  35.963  26.651   7.355
 9043POPC   NC345347  31.438  12.102   5.555
 9043POPC   PO445348  31.465  12.103   5.855
 9043POPC   GL145349  31.449  12.032   6.155
 9043POPC   GL245350  31.331  12.030   6.155
 9043POPC   C1A45351  31.517  12.026   6.455
 9043POPC   D2A45352  31.521  12.043   6.755
 9043POPC   C3A45353  31.439  12.096   7.055
 9043POPC   C4A45354  31.449  12.117   7.355
 9043POPC   C1B45355  31.253  12.060   6.455
 9043POPC   C2B45356  31.234  12.070   6.755
 9043POPC   C3B45357  31.234  12.075   7.055
 9043POPC   C4B45358  31.185  12.021   7.355
 9044POPC   NC345359  20.568   8.198   5.555
 9044POPC   PO445360  20.581   8.179   5.855
 9044POPC   GL145361  20.566   8.220   6.155
 9044POPC   GL245362  20.551   8.092   6.155
 9044POPC   C1A45363  20.654   8.229   6.455
 9044POPC   D2A45364  20.659   8.177   6.755
 9044POPC   C3A45365  20.588   8.190   7.055
 9044POPC   C4A45366  20.613   8.176   7.355
 9044POPC   C1B45367  20.430   8.041   6.455
 9044POPC   C2B45368  20.499   8.003   6.755
 9044POPC   C3B45369  20.504   7.959   7.055
 9044POPC   C4B45370  20.444   8.002   7.355
 9045POPC   NC345371  41.515  20.627   5.555
 9045POPC   PO445372  41.571  20.603   5.855
 9045POPC   GL145373  41.569  20.572   6.155
 9045POPC   GL245374  41.446  20.480   6.155
 9045POPC   C1A45375  41.555  20.614   6.455
 9045POPC   D2A45376  41.526  20.645   6.755
 9045POPC   C3A45377  41.565  20.577   7.055
 9045POPC   C4A45378  41.550  20.632   7.355
 9045POPC   C1B45379  41.426  20.444   6.455
 9045POPC   C2B45380  41.354  20.437   6.755
 9045POPC   C3B45381  41.354  20.466   7.055
 9045POPC   C4B45382  41.424  20.431   7.355
 9046POPC   NC345383   8.185  18.331   5.555
 9046POPC   PO445384   8.184  18.270   5.855
 9046POPC   GL145385   8.239  18.287   6.155
 9046POPC   GL245386   8.250  18.155   6.155
 9046POPC   C1A45387   8.181  18.297   6.455
 9046POPC   D2A45388   8.180  18.255   6.755
 9046POPC   C3A45389   8.181  18.256   7.055
 9046POPC   C4A45390   8.212  18.330   7.355
 9046POPC   C1B45391   8.215  18.031   6.455
 9046POPC   C2B45392   8.212  17.992   6.755
 9046POPC   C3B45393   8.204  18.008   7.055
 9046POPC   C4B45394   8.245  18.010   7.355
 9047POPC   NC345395   5.078  33.775   5.555
 9047POPC   PO445396   5.109  33.816   5.855
 9047POPC   GL145397   5.099  33.813   6.155
 9047POPC   GL245398   5.241  33.764   6.155
 9047POPC   C1A45399   5.090  33.788   6.455
 9047POPC   D2A45400   5.123  33.845   6.755
 9047POPC   C3A45401   5.137  33.800   7.055
 9047POPC   C4A45402   5.103  33.837   7.355
 9047POPC   C1B45403   5.317  33.820   6.455
 9047POPC   C2B45404   5.358  33.808   6.755
 9047POPC   C3B45405   5.362  33.790   7.055
 9047POPC   C4B45406   5.371  33.819   7.355
 9048POPC   NC345407  39.186   3.535   5.555
 9048POPC   PO445408  39.236   3.549   5.855
 9048POPC   GL145409  39.218   3.532   6.155
 9048POPC   GL245410  39.287   3.668   6.155
 9048POPC   C1A45411  39.204   3.558   6.455
 9048POPC   D2A45412  39.246   3.587   6.755
 9048POPC   C3A45413  39.205   3.562   7.055
 9048POPC   C4A45414  39.223   3.551   7.355
 9048POPC   C1B45415  39.342   3.688   6.455
 9048POPC   C2B45416  39.377   3.785   6.755
 9048POPC   C3B45417  39.398   3.774   7.055
 9048POPC   C4B45418  39.402   3.732   7.355
 9049POPC   NC345419  21.354  36.933   5.555
 9049POPC   PO445420  21.425  36.883   5.855
 9049POPC   GL145421  21.353  36.899   6.155
 9049POPC   GL245422  21.270  36.769   6.155
 9049POPC   C1A45423  21.394  36.929   6.455
 9049POPC   D2A45424  21.376  36.906   6.755
 9049POPC   C3A45425  21.357  36.881   7.055
 9049POPC   C4A45426  21.418  36.932   7.355
 9049POPC   C1B45427  21.162  36.682   6.455
 9049POPC   C2B45428  21.197  36.744   6.755
 9049POPC   C3B45429  21.225  36.755   7.055
 9049POPC   C4B45430  21.169  36.695   7.355
 9050POPC   NC345431   2.744  33.849   5.555
 9050POPC   PO445432   2.759  33.753   5.855
 9050POPC   GL145433   2.769  33.803   6.155
 9050POPC   GL245434   2.803  33.882   6.155
 9050POPC   C1A45435   2.731  33.792   6.455
 9050POPC   D2A45436   2.791  33.789   6.755
 9050POPC   C3A45437   2.736  33.792   7.055
 9050POPC   C4A45438   2.812  33.814   7.355
 9050POPC   C1B45439   2.882  34.075   6.455
 9050POPC   C2B45440   2.899  34.062   6.755
 9050POPC   C3B45441   2.884  34.031   7.055
 9050POPC   C4B45442   2.893  34.008   7.355
 9051POPC   NC345443  19.040  29.107   5.555
 9051POPC   PO445444  19.031  29.166   5.855
 9051POPC   GL145445  19.104  29.194   6.155
 9051POPC   GL245446  19.180  29.048   6.155
 9051POPC   C1A45447  19.077  29.137   6.455
 9051POPC   D2A45448  19.066  29.102   6.755
 9051POPC   C3A45449  19.045  29.133   7.055
 9051POPC   C4A45450  19.105  29.101   7.355
 9051POPC   C1B45451  19.260  28.936   6.455
 9051POPC   C2B45452  19.191  28.936   6.755
 9051POPC   C3B45453  19.235  28.923   7.055
 9051POPC   C4B45454  19.279  28.993   7.355
 9052POPC   NC345455   3.511  13.636   5.555
 9052POPC   PO445456   3.531  13.675   5.855
 9052POPC   GL145457   3.508  13.605   6.155
 9052POPC   GL245458   3.436  13.517   6.155
 9052POPC   C1A45459   3.574  13.643   6.455
 9052POPC   D2A45460   3.500  13.594   6.755
 9052POPC   C3A45461   3.576  13.623   7.055
 9052POPC   C4A45462   3.537  13.644   7.355
 9052POPC   C1B45463   3.372  13.509   6.455
 9052POPC   C2B45464   3.328  13.429   6.755
 9052POPC   C3B45465   3.386  13.463   7.055
 9052POPC   C4B45466   3.322  13.483   7.355
 9053POPC   NC345467  26.802  22.937   5.555
 9053POPC   PO445468  26.769  22.955   5.855
 9053POPC   GL145469  26.841  22.959   6.155
 9053POPC   GL245470  26.844  23.073   6.155
 9053POPC   C1A45471  26.825  22.904   6.455
 9053POPC   D2A45472  26.809  22.981   6.755
 9053POPC   C3A45473  26.862  22.977   7.055
 9053POPC   C4A45474  26.791  22.900   7.355
 9053POPC   C1B45475  26.846  23.210   6.455
 9053POPC   C2B45476  26.879  23.226   6.755
 9053POPC   C3B45477  26.907  23.197   7.055
 9053POPC   C4B45478  26.926  23.135   7.355
 9054POPC   NC345479   4.327  31.475   5.555
 9054POPC   PO445480   4.333  31.507   5.855
 9054POPC   GL145481   4.332  31.468   6.155
 9054POPC   GL245482   4.281  31.560   6.155
 9054POPC   C1A45483   4.364  31.493   6.455
 9054POPC   D2A45484   4.309  31.469   6.755
 9054POPC   C3A45485   4.326  31.477   7.055
 9054POPC   C4A45486   4.328  31.456   7.355
 9054POPC   C1B45487   4.353  31.673   6.455
 9054POPC   C2B45488   4.311  31.755   6.755
 9054POPC   C3B45489   4.311  31.747   7.055
 9054POPC   C4B45490   4.292  31.766   7.355
 9055POPC   NC345491  40.020  14.414   5.555
 9055POPC   PO445492  39.969  14.355   5.855
 9055POPC   GL145493  39.999  14.397   6.155
 9055POPC   GL245494  40.156  14.398   6.155
 9055POPC   C1A45495  40.024  14.369   6.455
 9055POPC   D2A45496  40.011  14.374   6.755
 9055POPC   C3A45497  40.047  14.439   7.055
 9055POPC   C4A45498  39.965  14.442   7.355
 9055POPC   C1B45499  40.205  14.342   6.455
 9055POPC   C2B45500  40.213  14.336   6.755
 9055POPC   C3B45501  40.225  14.374   7.055
 9055POPC   C4B45502  40.300  14.382   7.355
 9056POPC   NC345503   1.258  11.254   5.555
 9056POPC   PO445504   1.221  11.308   5.855
 9056POPC   GL145505   1.179  11.286   6.155
 9056POPC   GL245506   1.204  11.194   6.155
 9056POPC   C1A45507   1.182  11.267   6.455
 9056POPC   D2A45508   1.191  11.346   6.755
 9056POPC   C3A45509   1.178  11.342   7.055
 9056POPC   C4A45510   1.164  11.334   7.355
 9056POPC   C1B45511   1.199  11.047   6.455
 9056POPC   C2B45512   1.176  11.039   6.755
 9056POPC   C3B45513   1.136  11.015   7.055
 9056POPC   C4B45514   1.164  11.068   7.355
 9057POPC   NC345515  36.931  24.533   5.555
 9057POPC   PO445516  36.928  24.523   5.855
 9057POPC   GL145517  36.908  24.463   6.155
 9057POPC   GL245518  36.814  24.398   6.155
 9057POPC   C1A45519  36.924  24.518   6.455
 9057POPC   D2A45520  36.866  24.462   6.755
 9057POPC   C3A45521  36.856  24.536   7.055
 9057POPC   C4A45522  36.941  24.476   7.355
 9057POPC   C1B45523  36.628  24.436   6.455
 9057POPC   C2B45524  36.640  24.388   6.755
 9057POPC   C3B45525  36.625  24.367   7.055
 9057POPC   C4B45526  36.655  24.343   7.355
 9058POPC   NC345527  26.803  17.479   5.555
 9058POPC   PO445528  26.800  17.514   5.855
 9058POPC   GL145529  26.834  17.526   6.155
 9058POPC   GL245530  26.740  17.515   6.155
 9058POPC   C1A45531  26.781  17.503   6.455
 9058POPC   D2A45532  26.813  17.499   6.755
 9058POPC   C3A45533  26.792  17.520   7.055
 9058POPC   C4A45534  26.855  17.547   7.355
 9058POPC   C1B45535  26.585  17.433   6.455
 9058POPC   C2B45536  26.625  17.426   6.755
 9058POPC   C3B45537  26.566  17.463   7.055
 9058POPC   C4B45538  26.550  17.449   7.355
 9059POPC   NC345539   7.398  40.787   5.555
 9059POPC   PO445540   7.393  40.776   5.855
 9059POPC   GL145541   7.380  40.817   6.155
 9059POPC   GL245542   7.378  40.937   6.155
 9059POPC   C1A45543   7.423  40.806   6.455
 9059POPC   D2A45544   7.464  40.815   6.755
 9059POPC   C3A45545   7.407  40.788   7.055
 9059POPC   C4A45546   7.468  40.802   7.355
 9059POPC   C1B45547   7.316  41.011   6.455
 9059POPC   C2B45548   7.355  40.989   6.755
 9059POPC   C3B45549   7.365  41.005   7.055
 9059POPC   C4B45550   7.319  41.038   7.355
 9060POPC   NC345551  10.569  22.952   5.555
 9060POPC   PO445552  10.510  22.920   5.855
 9060POPC   GL145553  10.480  22.929   6.155
 9060POPC   GL245554  10.586  23.042   6.155
 9060POPC   C1A45555  10.556  22.974   6.455
 9060POPC   D2A45556  10.570  22.966   6.755
 9060POPC   C3A45557  10.508  22.909   7.055
 9060POPC   C4A45558  10.497  22.913   7.355
 9060POPC   C1B45559  10.556  23.163   6.455
 9060POPC   C2B45560  10.515  23.234   6.755
 9060POPC   C3B45561  10.547  23.143   7.055
 9060POPC   C4B45562  10.547  23.224   7.355
 9061POPC   NC345563  15.209  28.350   5.555
 9061POPC   PO445564  15.175  28.344   5.855
 9061POPC   GL145565  15.140  28.380   6.155
 9061POPC   GL245566  15.245  28.293   6.155
 9061POPC   C1A45567  15.144  28.400   6.455
 9061POPC   D2A45568  15.195  28.350   6.755
 9061POPC   C3A45569  15.198  28.328   7.055
 9061POPC   C4A45570  15.152  28.376   7.355
 9061POPC   C1B45571  15.214  28.120   6.455
 9061POPC   C2B45572  15.226  28.075   6.755
 9061POPC   C3B45573  15.203  28.155   7.055
 9061POPC   C4B45574  15.183  28.169   7.355
 9062POPC   NC345575  35.345  22.957   5.555
 9062POPC   PO445576  35.359  22.968   5.855
 9062POPC   GL145577  35.345  22.892   6.155
 9062POPC   GL245578  35.431  22.807   6.155
 9062POPC   C1A45579  35.371  22.921   6.455
 9062POPC   D2A45580  35.388  22.898   6.755
 9062POPC   C3A45581  35.374  22.952   7.055
 9062POPC   C4A45582  35.397  22.890   7.355
 9062POPC   C1B45583  35.523  22.801   6.455
 9062POPC   C2B45584  35.492  22.732   6.755
 9062POPC   C3B45585  35.486  22.788   7.055
 9062POPC   C4B45586  35.544  22.716   7.355
 9063POPC   NC345587  27.598   2.007   5.555
 9063POPC   PO445588  27.545   1.990   5.855
 9063POPC   GL145589  27.600   1.991   6.155
 9063POPC   GL245590  27.554   2.145   6.155
 9063POPC   C1A45591  27.625   2.019   6.455
 9063POPC   D2A45592  27.616   1.998   6.755
 9063POPC   C3A45593  27.557   1.945   7.055
 9063POPC   C4A45594  27.635   2.000   7.355
 9063POPC   C1B45595  27.574   2.213   6.455
 9063POPC   C2B45596  27.517   2.188   6.755
 9063POPC   C3B45597  27.524   2.267   7.055
 9063POPC   C4B45598  27.534   2.247   7.355
 9064POPC   NC345599  21.420  19.830   5.555
 9064POPC   PO445600  21.402  19.798   5.855
 9064POPC   GL145601  21.352  19.820   6.155
 9064POPC   GL245602  21.400  19.690   6.155
 9064POPC   C1A45603  21.341  19.791   6.455
 9064POPC   D2A45604  21.391  19.870   6.755
 9064POPC   C3A45605  21.389  19.842   7.055
 9064POPC   C4A45606  21.387  19.801   7.355
 9064POPC   C1B45607  21.509  19.573   6.455
 9064POPC   C2B45608  21.483  19.642   6.755
 9064POPC   C3B45609  21.437  19.594   7.055
 9064POPC   C4B45610  21.432  19.645   7.355
 9065POPC   NC345611  33.827  26.797   5.555
 9065POPC   PO445612  33.848  26.784   5.855
 9065POPC   GL145613  33.755  26.772   6.155
 9065POPC   GL245614  33.641  26.785   6.155
 9065POPC   C1A45615  33.823  26.848   6.455
 9065POPC   D2A45616  33.803  26.780   6.755
 9065POPC   C3A45617  33.755  26.792   7.055
 9065POPC   C4A45618  33.757  26.779   7.355
 9065POPC   C1B45619  33.594  26.692   6.455
 9065POPC   C2B45620  33.608  26.691   6.755
 9065POPC   C3B45621  33.575  26.747   7.055
 9065POPC   C4B45622  33.581  26.710   7.355
 9066POPC   NC345623  39.207  29.897   5.555
 9066POPC   PO445624  39.264  29.908   5.855
 9066POPC   GL145625  39.231  29.938   6.155
 9066POPC   GL245626  39.350  29.821   6.155
 9066POPC   C1A45627  39.238  29.969   6.455
 9066POPC   D2A45628  39.214  29.959   6.755
 9066POPC   C3A45629  39.215  29.890   7.055
 9066POPC   C4A45630  39.255  29.934   7.355
 9066POPC   C1B45631  39.483  29.806   6.455
 9066POPC   C2B45632  39.410  29.801   6.755
 9066POPC   C3B45633  39.397  29.773   7.055
 9066POPC   C4B45634  39.460  29.750   7.355
 9067POPC   NC345635  13.626  43.154   5.555
 9067POPC   PO445636  13.630  43.143   5.855
 9067POPC   GL145637  13.614  43.090   6.155
 9067POPC   GL245638  13.699  43.201   6.155
 9067POPC   C1A45639  13.677  43.119   6.455
 9067POPC   D2A45640  13.593  43.124   6.755
 9067POPC   C3A45641  13.658  43.065   7.055
 9067POPC   C4A45642  13.660  43.148   7.355
 9067POPC   C1B45643  13.827  43.165   6.455
 9067POPC   C2B45644  13.865  43.231   6.755
 9067POPC   C3B45645  13.836  43.151   7.055
 9067POPC   C4B45646  13.822  43.163   7.355
 9068POPC   NC345647  34.595  40.809   5.555
 9068POPC   PO445648  34.585  40.801   5.855
 9068POPC   GL145649  34.592  40.826   6.155
 9068POPC   GL245650  34.718  40.804   6.155
 9068POPC   C1A45651  34.566  40.755   6.455
 9068POPC   D2A45652  34.619  40.829   6.755
 9068POPC   C3A45653  34.597  40.827   7.055
 9068POPC   C4A45654  34.620  40.740   7.355
 9068POPC   C1B45655  34.853  40.822   6.455
 9068POPC   C2B45656  34.829  40.734   6.755
 9068POPC   C3B45657  34.791  40.757   7.055
 9068POPC   C4B45658  34.804  40.792   7.355
 9069POPC   NC345659  10.572   2.748   5.555
 9069POPC   PO445660  10.487   2.780   5.855
 9069POPC   GL145661  10.491   2.722   6.155
 9069POPC   GL245662  10.498   2.856   6.155
 9069POPC   C1A45663  10.561   2.734   6.455
 9069POPC   D2A45664  10.542   2.761   6.755
 9069POPC   C3A45665  10.504   2.748   7.055
 9069POPC   C4A45666  10.564   2.731   7.355
 9069POPC   C1B45667  10.356   2.961   6.455
 9069POPC   C2B45668  10.404   2.984   6.755
 9069POPC   C3B45669  10.428   2.998   7.055
 9069POPC   C4B45670  10.406   2.977   7.355
 9070POPC   NC345671   2.010   2.779   5.555
 9070POPC   PO445672   2.004   2.737   5.855
 9070POPC   GL145673   1.952   2.753   6.155
 9070POPC   GL245674   1.904   2.749   6.155
 9070POPC   C1A45675   1.990   2.787   6.455
 9070POPC   D2A45676   1.999   2.757   6.755
 9070POPC   C3A45677   1.960   2.720   7.055
 9070POPC   C4A45678   2.031   2.759   7.355
 9070POPC   C1B45679   1.772   2.819   6.455
 9070POPC   C2B45680   1.761   2.784   6.755
 9070POPC   C3B45681   1.701   2.828   7.055
 9070POPC   C4B45682   1.765   2.807   7.355
 9071POPC   NC345683  11.309  36.088   5.555
 9071POPC   PO445684  11.341  36.143   5.855
 9071POPC   GL145685  11.346  36.159   6.155
 9071POPC   GL245686  11.341  36.192   6.155
 9071POPC   C1A45687  11.310  36.153   6.455
 9071POPC   D2A45688  11.348  36.096   6.755
 9071POPC   C3A45689  11.251  36.100   7.055
 9071POPC   C4A45690  11.286  36.125   7.355
 9071POPC   C1B45691  11.445  36.367   6.455
 9071POPC   C2B45692  11.427  36.339   6.755
 9071POPC   C3B45693  11.440  36.302   7.055
 9071POPC   C4B45694  11.392  36.327   7.355
 9072POPC   NC345695  15.935  11.275   5.555
 9072POPC   PO445696  15.915  11.264   5.855
 9072POPC   GL145697  15.940  11.283   6.155
 9072POPC   GL245698  15.816  11.301   6.155
 9072POPC   C1A45699  15.965  11.310   6.455
 9072POPC   D2A45700  15.981  11.276   6.755
 9072POPC   C3A45701  15.938  11.301   7.055
 9072POPC   C4A45702  15.990  11.317   7.355
 9072POPC   C1B45703  15.659  11.246   6.455
 9072POPC   C2B45704  15.711  11.251   6.755
 9072POPC   C3B45705  15.695  11.259   7.055
 9072POPC   C4B45706  15.716  11.253   7.355
 9073POPC   NC345707  28.324  36.909   5.555
 9073POPC   PO445708  28.340  36.858   5.855
 9073POPC   GL145709  28.418  36.940   6.155
 9073POPC   GL245710  28.243  37.037   6.155
 9073POPC   C1A45711  28.395  36.877   6.455
 9073POPC   D2A45712  28.323  36.883   6.755
 9073POPC   C3A45713  28.360  36.865   7.055
 9073POPC   C4A45714  28.381  36.909   7.355
 9073POPC   C1B45715  28.167  37.064   6.455
 9073POPC   C2B45716  28.218  37.048   6.755
 9073POPC   C3B45717  28.220  37.123   7.055
 9073POPC   C4B45718  28.218  37.126   7.355
 9074POPC   NC345719  17.553  29.176   5.555
 9074POPC   PO445720  17.522  29.104   5.855
 9074POPC   GL145721  17.467  29.156   6.155
 9074POPC   GL245722  17.590  29.183   6.155
 9074POPC   C1A45723  17.484  29.192   6.455
 9074POPC   D2A45724  17.471  29.154   6.755
 9074POPC   C3A45725  17.527  29.113   7.055
 9074POPC   C4A45726  17.479  29.115   7.355
 9074POPC   C1B45727  17.672  29.328   6.455
 9074POPC   C2B45728  17.747  29.255   6.755
 9074POPC   C3B45729  17.730  29.289   7.055
 9074POPC   C4B45730  17.720  29.305   7.355
 9075POPC   NC345731  39.250  36.137   5.555
 9075POPC   PO445732  39.237  36.125   5.855
 9075POPC   GL145733  39.270  36.111   6.155
 9075POPC   GL245734  39.229  36.240   6.155
 9075POPC   C1A45735  39.244  36.129   6.455
 9075POPC   D2A45736  39.216  36.177   6.755
 9075POPC   C3A45737  39.195  36.109   7.055
 9075POPC   C4A45738  39.236  36.145   7.355
 9075POPC   C1B45739  39.345  36.386   6.455
 9075POPC   C2B45740  39.264  36.362   6.755
 9075POPC   C3B45741  39.292  36.370   7.055
 9075POPC   C4B45742  39.301  36.380   7.355
 9076POPC   NC345743  17.464  37.675   5.555
 9076POPC   PO445744  17.547  37.656   5.855
 9076POPC   GL145745  17.464  37.705   6.155
 9076POPC   GL245746  17.350  37.723   6.155
 9076POPC   C1A45747  17.537  37.726   6.455
 9076POPC   D2A45748  17.476  37.631   6.755
 9076POPC   C3A45749  17.510  37.630   7.055
 9076POPC   C4A45750  17.487  37.677   7.355
 9076POPC   C1B45751  17.218  37.742   6.455
 9076POPC   C2B45752  17.215  37.715   6.755
 9076POPC   C3B45753  17.234  37.691   7.055
 9076POPC   C4B45754  17.288  37.760   7.355
 9077POPC   NC345755   6.676  15.140   5.555
 9077POPC   PO445756   6.625  15.175   5.855
 9077POPC   GL145757   6.640  15.153   6.155
 9077POPC   GL245758   6.512  15.228   6.155
 9077POPC   C1A45759   6.668  15.201   6.455
 9077POPC   D2A45760   6.616  15.164   6.755
 9077POPC   C3A45761   6.604  15.184   7.055
 9077POPC   C4A45762   6.648  15.180   7.355
 9077POPC   C1B45763   6.477  15.322   6.455
 9077POPC   C2B45764   6.475  15.381   6.755
 9077POPC   C3B45765   6.492  15.369   7.055
 9077POPC   C4B45766   6.455  15.382   7.355
 9078POPC   NC345767  28.401  17.548   5.555
 9078POPC   PO445768  28.388  17.479   5.855
 9078POPC   GL145769  28.371  17.502   6.155
 9078POPC   GL245770  28.241  17.611   6.155
 9078POPC   C1A45771  28.334  17.460   6.455
 9078POPC   D2A45772  28.333  17.513   6.755
 9078POPC   C3A45773  28.335  17.461   7.055
 9078POPC   C4A45774  28.407  17.515   7.355
 9078POPC   C1B45775  28.151  17.633   6.455
 9078POPC   C2B45776  28.134  17.695   6.755
 9078POPC   C3B45777  28.137  17.640   7.055
 9078POPC   C4B45778  28.182  17.600   7.355
 9079POPC   NC345779   4.305   8.928   5.555
 9079POPC   PO445780   4.364   8.998   5.855
 9079POPC   GL145781   4.285   8.936   6.155
 9079POPC   GL245782   4.217   8.868   6.155
 9079POPC   C1A45783   4.323   8.962   6.455
 9079POPC   D2A45784   4.334   9.015   6.755
 9079POPC   C3A45785   4.335   8.994   7.055
 9079POPC   C4A45786   4.359   8.972   7.355
 9079POPC   C1B45787   4.131   8.872   6.455
 9079POPC   C2B45788   4.063   8.810   6.755
 9079POPC   C3B45789   4.094   8.847   7.055
 9079POPC   C4B45790   4.138   8.808   7.355
 9080POPC   NC345791  35.321   0.425   5.555
 9080POPC   PO445792  35.337   0.465   5.855
 9080POPC   GL145793  35.348   0.407   6.155
 9080POPC   GL245794  35.487   0.507   6.155
 9080POPC   C1A45795  35.363   0.391   6.455
 9080POPC   D2A45796  35.322   0.408   6.755
 9080POPC   C3A45797  35.367   0.469   7.055
 9080POPC   C4A45798  35.399   0.411   7.355
 9080POPC   C1B45799  35.549   0.610   6.455
 9080POPC   C2B45800  35.547   0.619   6.755
 9080POPC   C3B45801  35.569   0.548   7.055
 9080POPC   C4B45802  35.528   0.607   7.355
 9081POPC   NC345803  40.825  36.162   5.555
 9081POPC   PO445804  40.797  36.108   5.855
 9081POPC   GL145805  40.743  36.148   6.155
 9081POPC   GL245806  40.681  36.210   6.155
 9081POPC   C1A45807  40.760  36.131   6.455
 9081POPC   D2A45808  40.811  36.119   6.755
 9081POPC   C3A45809  40.792  36.084   7.055
 9081POPC   C4A45810  40.827  36.109   7.355
 9081POPC   C1B45811  40.716  36.365   6.455
 9081POPC   C2B45812  40.659  36.315   6.755
 9081POPC   C3B45813  40.678  36.394   7.055
 9081POPC   C4B45814  40.621  36.314   7.355
 9082POPC   NC345815  22.899  20.564   5.555
 9082POPC   PO445816  22.978  20.569   5.855
 9082POPC   GL145817  22.954  20.589   6.155
 9082POPC   GL245818  22.877  20.522   6.155
 9082POPC   C1A45819  22.952  20.646   6.455
 9082POPC   D2A45820  22.975  20.580   6.755
 9082POPC   C3A45821  22.928  20.655   7.055
 9082POPC   C4A45822  22.912  20.636   7.355
 9082POPC   C1B45823  22.792  20.364   6.455
 9082POPC   C2B45824  22.775  20.344   6.755
 9082POPC   C3B45825  22.813  20.408   7.055
 9082POPC   C4B45826  22.859  20.391   7.355
 9083POPC   NC345827   7.468  17.508   5.555
 9083POPC   PO445828   7.441  17.469   5.855
 9083POPC   GL145829   7.452  17.525   6.155
 9083POPC   GL245830   7.430  17.378   6.155
 9083POPC   C1A45831   7.430  17.492   6.455
 9083POPC   D2A45832   7.401  17.476   6.755
 9083POPC   C3A45833   7.451  17.458   7.055
 9083POPC   C4A45834   7.402  17.461   7.355
 9083POPC   C1B45835   7.337  17.277   6.455
 9083POPC   C2B45836   7.336  17.294   6.755
 9083POPC   C3B45837   7.343  17.283   7.055
 9083POPC   C4B45838   7.343  17.251   7.355
 9084POPC   NC345839  21.353  35.390   5.555
 9084POPC   PO445840  21.396  35.332   5.855
 9084POPC   GL145841  21.340  35.390   6.155
 9084POPC   GL245842  21.464  35.235   6.155
 9084POPC   C1A45843  21.419  35.303   6.455
 9084POPC   D2A45844  21.429  35.398   6.755
 9084POPC   C3A45845  21.420  35.312   7.055
 9084POPC   C4A45846  21.394  35.308   7.355
 9084POPC   C1B45847  21.483  35.098   6.455
 9084POPC   C2B45848  21.518  35.154   6.755
 9084POPC   C3B45849  21.565  35.173   7.055
 9084POPC   C4B45850  21.548  35.171   7.355
 9085POPC   NC345851  16.764   0.405   5.555
 9085POPC   PO445852  16.694   0.468   5.855
 9085POPC   GL145853  16.725   0.478   6.155
 9085POPC   GL245854  16.834   0.451   6.155
 9085POPC   C1A45855  16.702   0.437   6.455
 9085POPC   D2A45856  16.741   0.460   6.755
 9085POPC   C3A45857  16.769   0.427   7.055
 9085POPC   C4A45858  16.756   0.467   7.355
 9085POPC   C1B45859  16.963   0.511   6.455
 9085POPC   C2B45860  16.947   0.479   6.755
 9085POPC   C3B45861  16.961   0.546   7.055
 9085POPC   C4B45862  17.001   0.482   7.355
 9086POPC   NC345863  39.986  10.527   5.555
 9086POPC   PO445864  40.005  10.516   5.855
 9086POPC   GL145865  40.036  10.571   6.155
 9086POPC   GL245866  40.121  10.616   6.155
 9086POPC   C1A45867  40.034  10.509   6.455
 9086POPC   D2A45868  40.005  10.499   6.755
 9086POPC   C3A45869  39.999  10.505   7.055
 9086POPC   C4A45870  40.037  10.479   7.355
 9086POPC   C1B45871  40.197  10.605   6.455
 9086POPC   C2B45872  40.258  10.593   6.755
 9086POPC   C3B45873  40.207  10.648   7.055
 9086POPC   C4B45874  40.214  10.663   7.355
 9087POPC   NC345875  43.928   3.507   5.555
 9087POPC   PO445876  43.936   3.521   5.855
 9087POPC   GL145877  43.863   3.542   6.155
 9087POPC   GL245878  44.047   3.524   6.155
 9087POPC   C1A45879  43.904   3.541   6.455
 9087POPC   D2A45880  43.888   3.497   6.755
 9087POPC   C3A45881  43.899   3.492   7.055
 9087POPC   C4A45882  43.911   3.538   7.355
 9087POPC   C1B45883  44.101   3.577   6.455
 9087POPC   C2B45884  44.142   3.618   6.755
 9087POPC   C3B45885  44.088   3.591   7.055
 9087POPC   C4B45886  44.105   3.581   7.355
 9088POPC   NC345887  20.576   6.616   5.555
 9088POPC   PO445888  20.612   6.629   5.855
 9088POPC   GL145889  20.590   6.645   6.155
 9088POPC   GL245890  20.575   6.481   6.155
 9088POPC   C1A45891  20.631   6.646   6.455
 9088POPC   D2A45892  20.622   6.659   6.755
 9088POPC   C3A45893  20.587   6.628   7.055
 9088POPC   C4A45894  20.621   6.685   7.355
 9088POPC   C1B45895  20.576   6.442   6.455
 9088POPC   C2B45896  20.594   6.388   6.755
 9088POPC   C3B45897  20.597   6.363   7.055
 9088POPC   C4B45898  20.551   6.432   7.355
 9089POPC   NC345899  43.878   8.156   5.555
 9089POPC   PO445900  43.898   8.163   5.855
 9089POPC   GL145901  43.855   8.149   6.155
 9089POPC   GL245902  43.788   8.065   6.155
 9089POPC   C1A45903  43.892   8.233   6.455
 9089POPC   D2A45904  43.924   8.171   6.755
 9089POPC   C3A45905  43.871   8.232   7.055
 9089POPC   C4A45906  43.908   8.177   7.355
 9089POPC   C1B45907  43.770   7.982   6.455
 9089POPC   C2B45908  43.719   7.934   6.755
 9089POPC   C3B45909  43.747   7.963   7.055
 9089POPC   C4B45910  43.755   7.981   7.355
 9090POPC   NC345911   9.713  33.795   5.555
 9090POPC   PO445912   9.708  33.794   5.855
 9090POPC   GL145913   9.769  33.829   6.155
 9090POPC   GL245914   9.640  33.680   6.155
 9090POPC   C1A45915   9.716  33.763   6.455
 9090POPC   D2A45916   9.730  33.849   6.755
 9090POPC   C3A45917   9.765  33.819   7.055
 9090POPC   C4A45918   9.753  33.848   7.355
 9090POPC   C1B45919   9.573  33.614   6.455
 9090POPC   C2B45920   9.508  33.667   6.755
 9090POPC   C3B45921   9.565  33.658   7.055
 9090POPC   C4B45922   9.525  33.655   7.355
 9091POPC   NC345923  25.992  43.152   5.555
 9091POPC   PO445924  26.072  43.083   5.855
 9091POPC   GL145925  26.052  43.098   6.155
 9091POPC   GL245926  26.130  43.008   6.155
 9091POPC   C1A45927  26.031  43.142   6.455
 9091POPC   D2A45928  26.068  43.067   6.755
 9091POPC   C3A45929  26.069  43.152   7.055
 9091POPC   C4A45930  26.034  43.095   7.355
 9091POPC   C1B45931  26.097  42.906   6.455
 9091POPC   C2B45932  26.112  42.875   6.755
 9091POPC   C3B45933  26.172  42.918   7.055
 9091POPC   C4B45934  26.118  42.908   7.355
 9092POPC   NC345935  13.609   4.319   5.555
 9092POPC   PO445936  13.616   4.291   5.855
 9092POPC   GL145937  13.598   4.326   6.155
 9092POPC   GL245938  13.477   4.298   6.155
 9092POPC   C1A45939  13.609   4.339   6.455
 9092POPC   D2A45940  13.627   4.347   6.755
 9092POPC   C3A45941  13.671   4.364   7.055
 9092POPC   C4A45942  13.582   4.268   7.355
 9092POPC   C1B45943  13.374   4.244   6.455
 9092POPC   C2B45944  13.382   4.250   6.755
 9092POPC   C3B45945  13.335   4.264   7.055
 9092POPC   C4B45946  13.345   4.265   7.355
 9093POPC   NC345947   3.583  11.344   5.555
 9093POPC   PO445948   3.534  11.260   5.855
 9093POPC   GL145949   3.501  11.317   6.155
 9093POPC   GL245950   3.459  11.314   6.155
 9093POPC   C1A45951   3.531  11.305   6.455
 9093POPC   D2A45952   3.527  11.295   6.755
 9093POPC   C3A45953   3.516  11.274   7.055
 9093POPC   C4A45954   3.571  11.300   7.355
 9093POPC   C1B45955   3.334  11.384   6.455
 9093POPC   C2B45956   3.286  11.353   6.755
 9093POPC   C3B45957   3.286  11.368   7.055
 9093POPC   C4B45958   3.299  11.332   7.355
 9094POPC   NC345959   9.752  26.072   5.555
 9094POPC   PO445960   9.718  26.023   5.855
 9094POPC   GL145961   9.763  26.046   6.155
 9094POPC   GL245962   9.862  26.003   6.155
 9094POPC   C1A45963   9.717  26.052   6.455
 9094POPC   D2A45964   9.699  26.040   6.755
 9094POPC   C3A45965   9.776  26.017   7.055
 9094POPC   C4A45966   9.732  26.005   7.355
 9094POPC   C1B45967   9.996  25.929   6.455
 9094POPC   C2B45968   9.952  25.934   6.755
 9094POPC   C3B45969   9.945  25.912   7.055
 9094POPC   C4B45970   9.981  25.890   7.355
 9095POPC   NC345971  15.157  38.411   5.555
 9095POPC   PO445972  15.154  38.470   5.855
 9095POPC   GL145973  15.140  38.496   6.155
 9095POPC   GL245974  15.075  38.572   6.155
 9095POPC   C1A45975  15.185  38.481   6.455
 9095POPC   D2A45976  15.169  38.478   6.755
 9095POPC   C3A45977  15.226  38.454   7.055
 9095POPC   C4A45978  15.191  38.497   7.355
 9095POPC   C1B45979  15.051  38.676   6.455
 9095POPC   C2B45980  15.006  38.691   6.755
 9095POPC   C3B45981  15.016  38.683   7.055
 9095POPC   C4B45982  14.985  38.617   7.355
 9096POPC   NC345983  15.995  41.545   5.555
 9096POPC   PO445984  15.950  41.531   5.855
 9096POPC   GL145985  15.995  41.554   6.155
 9096POPC   GL245986  15.884  41.409   6.155
 9096POPC   C1A45987  15.926  41.548   6.455
 9096POPC   D2A45988  15.969  41.599   6.755
 9096POPC   C3A45989  15.972  41.601   7.055
 9096POPC   C4A45990  15.911  41.595   7.355
 9096POPC   C1B45991  15.823  41.310   6.455
 9096POPC   C2B45992  15.880  41.348   6.755
 9096POPC   C3B45993  15.886  41.318   7.055
 9096POPC   C4B45994  15.812  41.364   7.355
 9097POPC   NC345995  43.870  20.575   5.555
 9097POPC   PO445996  43.909  20.607   5.855
 9097POPC   GL145997  43.933  20.586   6.155
 9097POPC   GL245998  43.986  20.668   6.155
 9097POPC   C1A45999  43.844  20.619   6.455
 9097POPC   D2A46000  43.841  20.617   6.755
 9097POPC   C3A46001  43.903  20.584   7.055
 9097POPC   C4A46002  43.900  20.613   7.355
 9097POPC   C1B46003  44.075  20.787   6.455
 9097POPC   C2B46004  44.146  20.698   6.755
 9097POPC   C3B46005  44.117  20.726   7.055
 9097POPC   C4B46006  44.148  20.766   7.355
 9098POPC   NC346007  33.035  41.549   5.555
 9098POPC   PO446008  32.979  41.531   5.855
 9098POPC   GL146009  32.978  41.588   6.155
 9098POPC   GL246010  33.155  41.649   6.155
 9098POPC   C1A46011  33.013  41.527   6.455
 9098POPC   D2A46012  33.010  41.518   6.755
 9098POPC   C3A46013  33.052  41.539   7.055
 9098POPC   C4A46014  33.028  41.512   7.355
 9098POPC   C1B46015  33.166  41.738   6.455
 9098POPC   C2B46016  33.237  41.747   6.755
 9098POPC   C3B46017  33.183  41.709   7.055
 9098POPC   C4B46018  33.194  41.720   7.355
 9099POPC   NC346019  19.051   2.778   5.555
 9099POPC   PO446020  19.108   2.779   5.855
 9099POPC   GL146021  19.103   2.766   6.155
 9099POPC   GL246022  18.916   2.764   6.155
 9099POPC   C1A46023  19.094   2.805   6.455
 9099POPC   D2A46024  19.016   2.742   6.755
 9099POPC   C3A46025  19.078   2.800   7.055
 9099POPC   C4A46026  19.037   2.788   7.355
 9099POPC   C1B46027  18.780   2.711   6.455
 9099POPC   C2B46028  18.835   2.626   6.755
 9099POPC   C3B46029  18.854   2.631   7.055
 9099POPC   C4B46030  18.839   2.703   7.355
 9100POPC   NC346031  18.284  25.270   5.555
 9100POPC   PO446032  18.269  25.261   5.855
 9100POPC   GL146033  18.256  25.227   6.155
 9100POPC   GL246034  18.320  25.100   6.155
 9100POPC   C1A46035  18.318  25.269   6.455
 9100POPC   D2A46036  18.263  25.298   6.755
 9100POPC   C3A46037  18.289  25.279   7.055
 9100POPC   C4A46038  18.282  25.253   7.355
 9100POPC   C1B46039  18.321  25.048   6.455
 9100POPC   C2B46040  18.347  24.982   6.755
 9100POPC   C3B46041  18.317  25.012   7.055
 9100POPC   C4B46042  18.347  25.037   7.355
 9101POPC   NC346043  18.307  29.099   5.555
 9101POPC   PO446044  18.307  29.171   5.855
 9101POPC   GL146045  18.291  29.153   6.155
 9101POPC   GL246046  18.111  29.158   6.155
 9101POPC   C1A46047  18.286  29.116   6.455
 9101POPC   D2A46048  18.265  29.175   6.755
 9101POPC   C3A46049  18.308  29.185   7.055
 9101POPC   C4A46050  18.322  29.111   7.355
 9101POPC   C1B46051  17.991  29.200   6.455
 9101POPC   C2B46052  18.053  29.220   6.755
 9101POPC   C3B46053  18.050  29.214   7.055
 9101POPC   C4B46054  18.021  29.155   7.355
 9102POPC   NC346055  43.868  40.025   5.555
 9102POPC   PO446056  43.847  39.985   5.855
 9102POPC   GL146057  43.882  40.012   6.155
 9102POPC   GL246058  43.772  40.114   6.155
 9102POPC   C1A46059  43.929  40.032   6.455
 9102POPC   D2A46060  43.884  39.984   6.755
 9102POPC   C3A46061  43.920  40.007   7.055
 9102POPC   C4A46062  43.936  39.989   7.355
 9102POPC   C1B46063  43.714  40.112   6.455
 9102POPC   C2B46064  43.676  40.117   6.755
 9102POPC   C3B46065  43.662  40.128   7.055
 9102POPC   C4B46066  43.621  40.104   7.355
 9103POPC   NC346067  19.858  19.043   5.555
 9103POPC   PO446068  19.870  19.086   5.855
 9103POPC   GL146069  19.857  19.061   6.155
 9103POPC   GL246070  19.950  19.090   6.155
 9103POPC   C1A46071  19.800  19.018   6.455
 9103POPC   D2A46072  19.823  19.033   6.755
 9103POPC   C3A46073  19.829  19.042   7.055
 9103POPC   C4A46074  19.842  19.096   7.355
 9103POPC   C1B46075  20.064  19.087   6.455
 9103POPC   C2B46076  20.044  19.054   6.755
 9103POPC   C3B46077  20.054  19.091   7.055
 9103POPC   C4B46078  20.071  19.026   7.355
 9104POPC   NC346079   7.386  15.213   5.555
 9104POPC   PO446080   7.423  15.195   5.855
 9104POPC   GL146081   7.466  15.222   6.155
 9104POPC   GL246082   7.450  15.311   6.155
 9104POPC   C1A46083   7.410  15.222   6.455
 9104POPC   D2A46084   7.439  15.215   6.755
 9104POPC   C3A46085   7.385  15.139   7.055
 9104POPC   C4A46086   7.394  15.174   7.355
 9104POPC   C1B46087   7.369  15.415   6.455
 9104POPC   C2B46088   7.385  15.412   6.755
 9104POPC   C3B46089   7.406  15.386   7.055
 9104POPC   C4B46090   7.412  15.401   7.355
 9105POPC   NC346091  18.234  36.113   5.555
 9105POPC   PO446092  18.261  36.109   5.855
 9105POPC   GL146093  18.314  36.089   6.155
 9105POPC   GL246094  18.174  36.201   6.155
 9105POPC   C1A46095  18.252  36.172   6.455
 9105POPC   D2A46096  18.327  36.164   6.755
 9105POPC   C3A46097  18.293  36.160   7.055
 9105POPC   C4A46098  18.281  36.100   7.355
 9105POPC   C1B46099  18.093  36.302   6.455
 9105POPC   C2B46100  18.126  36.299   6.755
 9105POPC   C3B46101  18.101  36.320   7.055
 9105POPC   C4B46102  18.044  36.234   7.355
 9106POPC   NC346103  26.859  35.312   5.555
 9106POPC   PO446104  26.820  35.394   5.855
 9106POPC   GL146105  26.771  35.366   6.155
 9106POPC   GL246106  26.893  35.442   6.155
 9106POPC   C1A46107  26.847  35.365   6.455
 9106POPC   D2A46108  26.814  35.374   6.755
 9106POPC   C3A46109  26.843  35.341   7.055
 9106POPC   C4A46110  26.835  35.343   7.355
 9106POPC   C1B46111  26.846  35.549   6.455
 9106POPC   C2B46112  26.851  35.562   6.755
 9106POPC   C3B46113  26.881  35.612   7.055
 9106POPC   C4B46114  26.929  35.618   7.355
 9107POPC   NC346115  19.049   4.286   5.555
 9107POPC   PO446116  19.029   4.291   5.855
 9107POPC   GL146117  19.097   4.319   6.155
 9107POPC   GL246118  19.144   4.252   6.155
 9107POPC   C1A46119  19.042   4.356   6.455
 9107POPC   D2A46120  19.034   4.340   6.755
 9107POPC   C3A46121  19.019   4.287   7.055
 9107POPC   C4A46122  19.085   4.300   7.355
 9107POPC   C1B46123  19.267   4.256   6.455
 9107POPC   C2B46124  19.318   4.272   6.755
 9107POPC   C3B46125  19.328   4.311   7.055
 9107POPC   C4B46126  19.264   4.237   7.355
 9108POPC   NC346127  38.505  19.833   5.555
 9108POPC   PO446128  38.498  19.873   5.855
 9108POPC   GL146129  38.460  19.865   6.155
 9108POPC   GL246130  38.509  19.955   6.155
 9108POPC   C1A46131  38.457  19.883   6.455
 9108POPC   D2A46132  38.491  19.824   6.755
 9108POPC   C3A46133  38.490  19.855   7.055
 9108POPC   C4A46134  38.502  19.787   7.355
 9108POPC   C1B46135  38.509  20.041   6.455
 9108POPC   C2B46136  38.516  20.058   6.755
 9108POPC   C3B46137  38.489  20.045   7.055
 9108POPC   C4B46138  38.536  20.080   7.355
 9109POPC   NC346139  12.864   2.731   5.555
 9109POPC   PO446140  12.815   2.792   5.855
 9109POPC   GL146141  12.892   2.739   6.155
 9109POPC   GL246142  12.825   2.647   6.155
 9109POPC   C1A46143  12.889   2.725   6.455
 9109POPC   D2A46144  12.803   2.743   6.755
 9109POPC   C3A46145  12.901   2.785   7.055
 9109POPC   C4A46146  12.825   2.765   7.355
 9109POPC   C1B46147  12.847   2.472   6.455
 9109POPC   C2B46148  12.857   2.494   6.755
 9109POPC   C3B46149  12.859   2.518   7.055
 9109POPC   C4B46150  12.775   2.534   7.355
 9110POPC   NC346151  19.820  18.300   5.555
 9110POPC   PO446152  19.829  18.279   5.855
 9110POPC   GL146153  19.862  18.259   6.155
 9110POPC   GL246154  19.861  18.206   6.155
 9110POPC   C1A46155  19.786  18.254   6.455
 9110POPC   D2A46156  19.827  18.299   6.755
 9110POPC   C3A46157  19.802  18.259   7.055
 9110POPC   C4A46158  19.812  18.243   7.355
 9110POPC   C1B46159  19.950  18.120   6.455
 9110POPC   C2B46160  20.022  18.081   6.755
 9110POPC   C3B46161  19.976  18.051   7.055
 9110POPC   C4B46162  19.969  18.040   7.355
 9111POPC   NC346163   5.894  10.497   5.555
 9111POPC   PO446164   5.881  10.475   5.855
 9111POPC   GL146165   5.880  10.525   6.155
 9111POPC   GL246166   5.749  10.676   6.155
 9111POPC   C1A46167   5.902  10.553   6.455
 9111POPC   D2A46168   5.887  10.505   6.755
 9111POPC   C3A46169   5.906  10.548   7.055
 9111POPC   C4A46170   5.902  10.496   7.355
 9111POPC   C1B46171   5.696  10.721   6.455
 9111POPC   C2B46172   5.703  10.756   6.755
 9111POPC   C3B46173   5.683  10.758   7.055
 9111POPC   C4B46174   5.706  10.758   7.355
 9112POPC   NC346175  37.681  22.113   5.555
 9112POPC   PO446176  37.674  22.197   5.855
 9112POPC   GL146177  37.690  22.209   6.155
 9112POPC   GL246178  37.754  22.186   6.155
 9112POPC   C1A46179  37.638  22.196   6.455
 9112POPC   D2A46180  37.722  22.115   6.755
 9112POPC   C3A46181  37.643  22.141   7.055
 9112POPC   C4A46182  37.669  22.212   7.355
 9112POPC   C1B46183  37.907  22.141   6.455
 9112POPC   C2B46184  37.902  22.208   6.755
 9112POPC   C3B46185  37.959  22.182   7.055
 9112POPC   C4B46186  37.965  22.175   7.355
 9113POPC   NC346187  28.321  13.590   5.555
 9113POPC   PO446188  28.399  13.674   5.855
 9113POPC   GL146189  28.340  13.600   6.155
 9113POPC   GL246190  28.265  13.711   6.155
 9113POPC   C1A46191  28.366  13.604   6.455
 9113POPC   D2A46192  28.366  13.619   6.755
 9113POPC   C3A46193  28.382  13.639   7.055
 9113POPC   C4A46194  28.384  13.672   7.355
 9113POPC   C1B46195  28.228  13.837   6.455
 9113POPC   C2B46196  28.197  13.804   6.755
 9113POPC   C3B46197  28.248  13.838   7.055
 9113POPC   C4B46198  28.214  13.884   7.355
 9114POPC   NC346199  26.779  11.334   5.555
 9114POPC   PO446200  26.795  11.300   5.855
 9114POPC   GL146201  26.845  11.330   6.155
 9114POPC   GL246202  26.910  11.315   6.155
 9114POPC   C1A46203  26.774  11.266   6.455
 9114POPC   D2A46204  26.810  11.343   6.755
 9114POPC   C3A46205  26.805  11.252   7.055
 9114POPC   C4A46206  26.810  11.313   7.355
 9114POPC   C1B46207  27.018  11.363   6.455
 9114POPC   C2B46208  27.098  11.372   6.755
 9114POPC   C3B46209  27.035  11.344   7.055
 9114POPC   C4B46210  27.083  11.314   7.355
 9115POPC   NC346211  43.137  25.308   5.555
 9115POPC   PO446212  43.154  25.217   5.855
 9115POPC   GL146213  43.080  25.233   6.155
 9115POPC   GL246214  43.252  25.167   6.155
 9115POPC   C1A46215  43.103  25.279   6.455
 9115POPC   D2A46216  43.149  25.229   6.755
 9115POPC   C3A46217  43.123  25.229   7.055
 9115POPC   C4A46218  43.136  25.299   7.355
 9115POPC   C1B46219  43.298  25.154   6.455
 9115POPC   C2B46220  43.342  25.144   6.755
 9115POPC   C3B46221  43.369  25.121   7.055
 9115POPC   C4B46222  43.380  25.161   7.355
 9116POPC   NC346223  32.203   1.245   5.555
 9116POPC   PO446224  32.285   1.188   5.855
 9116POPC   GL146225  32.234   1.224   6.155
 9116POPC   GL246226  32.328   1.110   6.155
 9116POPC   C1A46227  32.290   1.224   6.455
 9116POPC   D2A46228  32.242   1.172   6.755
 9116POPC   C3A46229  32.238   1.203   7.055
 9116POPC   C4A46230  32.225   1.260   7.355
 9116POPC   C1B46231  32.445   1.081   6.455
 9116POPC   C2B46232  32.427   1.100   6.755
 9116POPC   C3B46233  32.430   1.026   7.055
 9116POPC   C4B46234  32.498   1.059   7.355
 9117POPC   NC346235  41.510  26.811   5.555
 9117POPC   PO446236  41.529  26.853   5.855
 9117POPC   GL146237  41.601  26.783   6.155
 9117POPC   GL246238  41.424  26.899   6.155
 9117POPC   C1A46239  41.538  26.794   6.455
 9117POPC   D2A46240  41.603  26.838   6.755
 9117POPC   C3A46241  41.593  26.773   7.055
 9117POPC   C4A46242  41.591  26.772   7.355
 9117POPC   C1B46243  41.359  26.971   6.455
 9117POPC   C2B46244  41.342  26.980   6.755
 9117POPC   C3B46245  41.352  27.002   7.055
 9117POPC   C4B46246  41.417  26.946   7.355
 9118POPC   NC346247  21.348  36.091   5.555
 9118POPC   PO446248  21.372  36.168   5.855
 9118POPC   GL146249  21.351  36.098   6.155
 9118POPC   GL246250  21.533  36.175   6.155
 9118POPC   C1A46251  21.384  36.136   6.455
 9118POPC   D2A46252  21.384  36.104   6.755
 9118POPC   C3A46253  21.379  36.131   7.055
 9118POPC   C4A46254  21.411  36.173   7.355
 9118POPC   C1B46255  21.603  36.248   6.455
 9118POPC   C2B46256  21.642  36.245   6.755
 9118POPC   C3B46257  21.618  36.194   7.055
 9118POPC   C4B46258  21.665  36.218   7.355
 9119POPC   NC346259   5.092   5.906   5.555
 9119POPC   PO446260   5.044   5.875   5.855
 9119POPC   GL146261   5.052   5.894   6.155
 9119POPC   GL246262   4.970   5.990   6.155
 9119POPC   C1A46263   5.050   5.918   6.455
 9119POPC   D2A46264   5.045   5.859   6.755
 9119POPC   C3A46265   5.070   5.881   7.055
 9119POPC   C4A46266   5.051   5.819   7.355
 9119POPC   C1B46267   4.938   5.999   6.455
 9119POPC   C2B46268   4.877   6.027   6.755
 9119POPC   C3B46269   4.946   5.992   7.055
 9119POPC   C4B46270   4.925   6.064   7.355
 9120POPC   NC346271  38.430   6.654   5.555
 9120POPC   PO446272  38.438   6.644   5.855
 9120POPC   GL146273  38.428   6.655   6.155
 9120POPC   GL246274  38.567   6.600   6.155
 9120POPC   C1A46275  38.470   6.691   6.455
 9120POPC   D2A46276  38.407   6.615   6.755
 9120POPC   C3A46277  38.455   6.618   7.055
 9120POPC   C4A46278  38.430   6.654   7.355
 9120POPC   C1B46279  38.619   6.450   6.455
 9120POPC   C2B46280  38.591   6.409   6.755
 9120POPC   C3B46281  38.659   6.417   7.055
 9120POPC   C4B46282  38.569   6.503   7.355
 9121POPC   NC346283  12.041   9.778   5.555
 9121POPC   PO446284  12.107   9.704   5.855
 9121POPC   GL146285  12.116   9.758   6.155
 9121POPC   GL246286  12.111   9.611   6.155
 9121POPC   C1A46287  12.028   9.739   6.455
 9121POPC   D2A46288  12.099   9.731   6.755
 9121POPC   C3A46289  12.027   9.752   7.055
 9121POPC   C4A46290  12.028   9.776   7.355
 9121POPC   C1B46291  12.168   9.508   6.455
 9121POPC   C2B46292  12.146   9.467   6.755
 9121POPC   C3B46293  12.137   9.543   7.055
 9121POPC   C4B46294  12.161   9.468   7.355
 9122POPC   NC346295  32.288  43.871   5.555
 9122POPC   PO446296  32.205  43.874   5.855
 9122POPC   GL146297  32.236  43.892   6.155
 9122POPC   GL246298  32.306  43.992   6.155
 9122POPC   C1A46299  32.241  43.898   6.455
 9122POPC   D2A46300  32.262  43.845   6.755
 9122POPC   C3A46301  32.284  43.934   7.055
 9122POPC   C4A46302  32.251  43.844   7.355
 9122POPC   C1B46303  32.390  44.071   6.455
 9122POPC   C2B46304  32.417  44.073   6.755
 9122POPC   C3B46305  32.422  44.075   7.055
 9122POPC   C4B46306  32.389  44.099   7.355
 9123POPC   NC346307  23.730  27.636   5.555
 9123POPC   PO446308  23.753  27.627   5.855
 9123POPC   GL146309  23.706  27.632   6.155
 9123POPC   GL246310  23.658  27.747   6.155
 9123POPC   C1A46311  23.730  27.602   6.455
 9123POPC   D2A46312  23.715  27.640   6.755
 9123POPC   C3A46313  23.680  27.588   7.055
 9123POPC   C4A46314  23.731  27.626   7.355
 9123POPC   C1B46315  23.551  27.798   6.455
 9123POPC   C2B46316  23.592  27.768   6.755
 9123POPC   C3B46317  23.539  27.839   7.055
 9123POPC   C4B46318  23.584  27.756   7.355
 9124POPC   NC346319  16.751  43.120   5.555
 9124POPC   PO446320  16.696  43.085   5.855
 9124POPC   GL146321  16.763  43.155   6.155
 9124POPC   GL246322  16.668  43.204   6.155
 9124POPC   C1A46323  16.732  43.129   6.455
 9124POPC   D2A46324  16.769  43.147   6.755
 9124POPC   C3A46325  16.696  43.134   7.055
 9124POPC   C4A46326  16.780  43.119   7.355
 9124POPC   C1B46327  16.533  43.215   6.455
 9124POPC   C2B46328  16.476  43.208   6.755
 9124POPC   C3B46329  16.558  43.236   7.055
 9124POPC   C4B46330  16.554  43.231   7.355
 9125POPC   NC346331  16.692  15.941   5.555
 9125POPC   PO446332  16.765  15.950   5.855
 9125POPC   GL146333  16.692  15.926   6.155
 9125POPC   GL246334  16.838  15.987   6.155
 9125POPC   C1A46335  16.752  15.963   6.455
 9125POPC   D2A46336  16.713  15.945   6.755
 9125POPC   C3A46337  16.722  15.943   7.055
 9125POPC   C4A46338  16.691  15.920   7.355
 9125POPC   C1B46339  16.890  16.065   6.455
 9125POPC   C2B46340  16.908  16.116   6.755
 9125POPC   C3B46341  16.952  16.078   7.055
 9125POPC   C4B46342  16.916  16.066   7.355
 9126POPC   NC346343  40.777  19.789   5.555
 9126POPC   PO446344  40.759  19.865   5.855
 9126POPC   GL146345  40.751  19.836   6.155
 9126POPC   GL246346  40.913  19.765   6.155
 9126POPC   C1A46347  40.808  19.842   6.455
 9126POPC   D2A46348  40.829  19.850   6.755
 9126POPC   C3A46349  40.794  19.792   7.055
 9126POPC   C4A46350  40.751  19.839   7.355
 9126POPC   C1B46351  40.962  19.695   6.455
 9126POPC   C2B46352  40.979  19.724   6.755
 9126POPC   C3B46353  40.946  19.641   7.055
 9126POPC   C4B46354  41.017  19.642   7.355
 9127POPC   NC346355  12.863  24.463   5.555
 9127POPC   PO446356  12.870  24.475   5.855
 9127POPC   GL146357  12.878  24.467   6.155
 9127POPC   GL246358  12.957  24.484   6.155
 9127POPC   C1A46359  12.818  24.499   6.455
 9127POPC   D2A46360  12.837  24.448   6.755
 9127POPC   C3A46361  12.810  24.461   7.055
 9127POPC   C4A46362  12.835  24.470   7.355
 9127POPC   C1B46363  13.140  24.403   6.455
 9127POPC   C2B46364  13.060  24.390   6.755
 9127POPC   C3B46365  13.139  24.396   7.055
 9127POPC   C4B46366  13.103  24.383   7.355
 9128POPC   NC346367   9.790  28.334   5.555
 9128POPC   PO446368   9.714  28.380   5.855
 9128POPC   GL146369   9.769  28.378   6.155
 9128POPC   GL246370   9.648  28.489   6.155
 9128POPC   C1A46371   9.788  28.406   6.455
 9128POPC   D2A46372   9.767  28.339   6.755
 9128POPC   C3A46373   9.717  28.336   7.055
 9128POPC   C4A46374   9.772  28.320   7.355
 9128POPC   C1B46375   9.615  28.629   6.455
 9128POPC   C2B46376   9.630  28.591   6.755
 9128POPC   C3B46377   9.672  28.561   7.055
 9128POPC   C4B46378   9.643  28.600   7.355
 9129POPC   NC346379  14.416  44.631   5.555
 9129POPC   PO446380  14.377  44.642   5.855
 9129POPC   GL146381  14.412  44.686   6.155
 9129POPC   GL246382  14.353  44.520   6.155
 9129POPC   C1A46383  14.433  44.679   6.455
 9129POPC   D2A46384  14.397  44.709   6.755
 9129POPC   C3A46385  14.440  44.632   7.055
 9129POPC   C4A46386  14.370  44.662   7.355
 9129POPC   C1B46387  14.273  44.462   6.455
 9129POPC   C2B46388  14.270  44.447   6.755
 9129POPC   C3B46389  14.266  44.451   7.055
 9129POPC   C4B46390  14.272  44.459   7.355
 9130POPC   NC346391  10.492  11.287   5.555
 9130POPC   PO446392  10.529  11.283   5.855
 9130POPC   GL146393  10.495  11.256   6.155
 9130POPC   GL246394  10.496  11.416   6.155
 9130POPC   C1A46395  10.555  11.277   6.455
 9130POPC   D2A46396  10.555  11.311   6.755
 9130POPC   C3A46397  10.489  11.277   7.055
 9130POPC   C4A46398  10.493  11.310   7.355
 9130POPC   C1B46399  10.368  11.505   6.455
 9130POPC   C2B46400  10.373  11.536   6.755
 9130POPC   C3B46401  10.437  11.469   7.055
 9130POPC   C4B46402  10.438  11.527   7.355
 9131POPC   NC346403  36.877  21.387   5.555
 9131POPC   PO446404  36.920  21.337   5.855
 9131POPC   GL146405  36.889  21.363   6.155
 9131POPC   GL246406  36.803  21.304   6.155
 9131POPC   C1A46407  36.891  21.413   6.455
 9131POPC   D2A46408  36.942  21.386   6.755
 9131POPC   C3A46409  36.895  21.370   7.055
 9131POPC   C4A46410  36.947  21.432   7.355
 9131POPC   C1B46411  36.811  21.131   6.455
 9131POPC   C2B46412  36.757  21.172   6.755
 9131POPC   C3B46413  36.763  21.177   7.055
 9131POPC   C4B46414  36.820  21.189   7.355
 9132POPC   NC346415  24.527  36.887   5.555
 9132POPC   PO446416  24.538  36.891   5.855
 9132POPC   GL146417  24.539  36.896   6.155
 9132POPC   GL246418  24.564  36.819   6.155
 9132POPC   C1A46419  24.533  36.949   6.455
 9132POPC   D2A46420  24.482  36.921   6.755
 9132POPC   C3A46421  24.493  36.880   7.055
 9132POPC   C4A46422  24.505  36.870   7.355
 9132POPC   C1B46423  24.723  36.752   6.455
 9132POPC   C2B46424  24.658  36.721   6.755
 9132POPC   C3B46425  24.663  36.802   7.055
 9132POPC   C4B46426  24.651  36.775   7.355
 9133POPC   NC346427   7.437  12.065   5.555
 9133POPC   PO446428   7.375  12.060   5.855
 9133POPC   GL146429   7.388  12.092   6.155
 9133POPC   GL246430   7.496  12.166   6.155
 9133POPC   C1A46431   7.437  12.083   6.455
 9133POPC   D2A46432   7.422  12.062   6.755
 9133POPC   C3A46433   7.436  12.069   7.055
 9133POPC   C4A46434   7.457  12.115   7.355
 9133POPC   C1B46435   7.567  12.290   6.455
 9133POPC   C2B46436   7.628  12.274   6.755
 9133POPC   C3B46437   7.629  12.283   7.055
 9133POPC   C4B46438   7.634  12.290   7.355
 9134POPC   NC346439  10.561   0.478   5.555
 9134POPC   PO446440  10.515   0.466   5.855
 9134POPC   GL146441  10.553   0.399   6.155
 9134POPC   GL246442  10.403   0.471   6.155
 9134POPC   C1A46443  10.493   0.484   6.455
 9134POPC   D2A46444  10.525   0.445   6.755
 9134POPC   C3A46445  10.514   0.445   7.055
 9134POPC   C4A46446  10.543   0.395   7.355
 9134POPC   C1B46447  10.297   0.483   6.455
 9134POPC   C2B46448  10.315   0.462   6.755
 9134POPC   C3B46449  10.268   0.484   7.055
 9134POPC   C4B46450  10.234   0.508   7.355
 9135POPC   NC346451  29.943  36.132   5.555
 9135POPC   PO446452  29.953  36.117   5.855
 9135POPC   GL146453  29.901  36.117   6.155
 9135POPC   GL246454  29.784  36.209   6.155
 9135POPC   C1A46455  29.951  36.167   6.455
 9135POPC   D2A46456  29.878  36.169   6.755
 9135POPC   C3A46457  29.931  36.153   7.055
 9135POPC   C4A46458  29.917  36.134   7.355
 9135POPC   C1B46459  29.689  36.215   6.455
 9135POPC   C2B46460  29.671  36.204   6.755
 9135POPC   C3B46461  29.654  36.217   7.055
 9135POPC   C4B46462  29.681  36.227   7.355
 9136POPC   NC346463  18.295  37.707   5.555
 9136POPC   PO446464  18.312  37.646   5.855
 9136POPC   GL146465  18.320  37.659   6.155
 9136POPC   GL246466  18.268  37.528   6.155
 9136POPC   C1A46467  18.278  37.703   6.455
 9136POPC   D2A46468  18.234  37.646   6.755
 9136POPC   C3A46469  18.327  37.668   7.055
 9136POPC   C4A46470  18.330  37.694   7.355
 9136POPC   C1B46471  18.223  37.464   6.455
 9136POPC   C2B46472  18.265  37.423   6.755
 9136POPC   C3B46473  18.308  37.461   7.055
 9136POPC   C4B46474  18.249  37.452   7.355
 9137POPC   NC346475  36.897  18.295   5.555
 9137POPC   PO446476  36.908  18.255   5.855
 9137POPC   GL146477  36.907  18.274   6.155
 9137POPC   GL246478  36.916  18.131   6.155
 9137POPC   C1A46479  36.910  18.271   6.455
 9137POPC   D2A46480  36.875  18.305   6.755
 9137POPC   C3A46481  36.861  18.265   7.055
 9137POPC   C4A46482  36.943  18.290   7.355
 9137POPC   C1B46483  36.929  18.011   6.455
 9137POPC   C2B46484  36.984  17.997   6.755
 9137POPC   C3B46485  37.020  18.054   7.055
 9137POPC   C4B46486  36.974  18.091   7.355
 9138POPC   NC346487  44.660   5.090   5.555
 9138POPC   PO446488  44.688   5.106   5.855
 9138POPC   GL146489  44.688   5.082   6.155
 9138POPC   GL246490  44.679   5.205   6.155
 9138POPC   C1A46491  44.673   5.050   6.455
 9138POPC   D2A46492  44.618   5.135   6.755
 9138POPC   C3A46493  44.627   5.070   7.055
 9138POPC   C4A46494  44.700   5.054   7.355
 9138POPC   C1B46495  44.681   5.329   6.455
 9138POPC   C2B46496  44.695   5.335   6.755
 9138POPC   C3B46497  44.662   5.300   7.055
 9138POPC   C4B46498  44.701   5.317   7.355
 9139POPC   NC346499  27.616  43.885   5.555
 9139POPC   PO446500  27.558  43.919   5.855
 9139POPC   GL146501  27.557  43.877   6.155
 9139POPC   GL246502  27.613  43.792   6.155
 9139POPC   C1A46503  27.623  43.841   6.455
 9139POPC   D2A46504  27.551  43.883   6.755
 9139POPC   C3A46505  27.553  43.934   7.055
 9139POPC   C4A46506  27.639  43.885   7.355
 9139POPC   C1B46507  27.690  43.679   6.455
 9139POPC   C2B46508  27.763  43.666   6.755
 9139POPC   C3B46509  27.700  43.665   7.055
 9139POPC   C4B46510  27.706  43.632   7.355
 9140POPC   NC346511  36.887  30.666   5.555
 9140POPC   PO446512  36.891  30.745   5.855
 9140POPC   GL146513  36.878  30.738   6.155
 9140POPC   GL246514  37.006  30.838   6.155
 9140POPC   C1A46515  36.863  30.728   6.455
 9140POPC   D2A46516  36.911  30.737   6.755
 9140POPC   C3A46517  36.874  30.731   7.055
 9140POPC   C4A46518  36.871  30.728   7.355
 9140POPC   C1B46519  36.988  30.937   6.455
 9140POPC   C2B46520  37.011  30.880   6.755
 9140POPC   C3B46521  37.007  30.944   7.055
 9140POPC   C4B46522  37.023  30.916   7.355
 9141POPC   NC346523  14.384  27.544   5.555
 9141POPC   PO446524  14.388  27.582   5.855
 9141POPC   GL146525  14.389  27.575   6.155
 9141POPC   GL246526  14.317  27.619   6.155
 9141POPC   C1A46527  14.378  27.598   6.455
 9141POPC   D2A46528  14.453  27.638   6.755
 9141POPC   C3A46529  14.422  27.548   7.055
 9141POPC   C4A46530  14.392  27.575   7.355
 9141POPC   C1B46531  14.181  27.599   6.455
 9141POPC   C2B46532  14.178  27.518   6.755
 9141POPC   C3B46533  14.157  27.588   7.055
 9141POPC   C4B46534  14.126  27.563   7.355
 9142POPC   NC346535  23.706  23.724   5.555
 9142POPC   PO446536  23.727  23.742   5.855
 9142POPC   GL146537  23.751  23.729   6.155
 9142POPC   GL246538  23.657  23.628   6.155
 9142POPC   C1A46539  23.713  23.727   6.455
 9142POPC   D2A46540  23.762  23.701   6.755
 9142POPC   C3A46541  23.744  23.670   7.055
 9142POPC   C4A46542  23.671  23.672   7.355
 9142POPC   C1B46543  23.504  23.586   6.455
 9142POPC   C2B46544  23.531  23.618   6.755
 9142POPC   C3B46545  23.508  23.576   7.055
 9142POPC   C4B46546  23.508  23.614   7.355
 9143POPC   NC346547  29.907  39.274   5.555
 9143POPC   PO446548  29.915  39.241   5.855
 9143POPC   GL146549  29.927  39.186   6.155
 9143POPC   GL246550  29.999  39.158   6.155
 9143POPC   C1A46551  29.916  39.239   6.455
 9143POPC   D2A46552  29.906  39.200   6.755
 9143POPC   C3A46553  29.892  39.249   7.055
 9143POPC   C4A46554  29.961  39.210   7.355
 9143POPC   C1B46555  30.080  39.039   6.455
 9143POPC   C2B46556  30.159  39.071   6.755
 9143POPC   C3B46557  30.137  39.081   7.055
 9143POPC   C4B46558  30.081  39.107   7.355
 9144POPC   NC346559  17.473  44.706   5.555
 9144POPC   PO446560  17.509  44.624   5.855
 9144POPC   GL146561  17.542  44.671   6.155
 9144POPC   GL246562  17.447  44.521   6.155
 9144POPC   C1A46563  17.457  44.655   6.455
 9144POPC   D2A46564  17.471  44.703   6.755
 9144POPC   C3A46565  17.485  44.644   7.055
 9144POPC   C4A46566  17.548  44.647   7.355
 9144POPC   C1B46567  17.340  44.476   6.455
 9144POPC   C2B46568  17.388  44.491   6.755
 9144POPC   C3B46569  17.398  44.484   7.055
 9144POPC   C4B46570  17.378  44.503   7.355
 9145POPC   NC346571   3.499  41.590   5.555
 9145POPC   PO446572   3.501  41.578   5.855
 9145POPC   GL146573   3.588  41.529   6.155
 9145POPC   GL246574   3.455  41.556   6.155
 9145POPC   C1A46575   3.556  41.597   6.455
 9145POPC   D2A46576   3.568  41.565   6.755
 9145POPC   C3A46577   3.543  41.561   7.055
 9145POPC   C4A46578   3.511  41.593   7.355
 9145POPC   C1B46579   3.290  41.519   6.455
 9145POPC   C2B46580   3.309  41.494   6.755
 9145POPC   C3B46581   3.274  41.491   7.055
 9145POPC   C4B46582   3.348  41.525   7.355
 9146POPC   NC346583   5.096  42.290   5.555
 9146POPC   PO446584   5.063  42.379   5.855
 9146POPC   GL146585   5.110  42.374   6.155
 9146POPC   GL246586   5.143  42.436   6.155
 9146POPC   C1A46587   5.106  42.352   6.455
 9146POPC   D2A46588   5.111  42.310   6.755
 9146POPC   C3A46589   5.110  42.356   7.055
 9146POPC   C4A46590   5.122  42.305   7.355
 9146POPC   C1B46591   5.314  42.530   6.455
 9146POPC   C2B46592   5.264  42.503   6.755
 9146POPC   C3B46593   5.273  42.463   7.055
 9146POPC   C4B46594   5.245  42.505   7.355
 9147POPC   NC346595  13.640  42.298   5.555
 9147POPC   PO446596  13.671  42.336   5.855
 9147POPC   GL146597  13.599  42.308   6.155
 9147POPC   GL246598  13.609  42.413   6.155
 9147POPC   C1A46599  13.592  42.285   6.455
 9147POPC   D2A46600  13.605  42.348   6.755
 9147POPC   C3A46601  13.671  42.375   7.055
 9147POPC   C4A46602  13.617  42.376   7.355
 9147POPC   C1B46603  13.600  42.614   6.455
 9147POPC   C2B46604  13.581  42.588   6.755
 9147POPC   C3B46605  13.536  42.545   7.055
 9147POPC   C4B46606  13.528  42.617   7.355
 9148POPC   NC346607  41.515  15.191   5.555
 9148POPC   PO446608  41.522  15.188   5.855
 9148POPC   GL146609  41.532  15.148   6.155
 9148POPC   GL246610  41.395  15.202   6.155
 9148POPC   C1A46611  41.570  15.224   6.455
 9148POPC   D2A46612  41.595  15.212   6.755
 9148POPC   C3A46613  41.537  15.205   7.055
 9148POPC   C4A46614  41.554  15.227   7.355
 9148POPC   C1B46615  41.338  15.307   6.455
 9148POPC   C2B46616  41.307  15.262   6.755
 9148POPC   C3B46617  41.299  15.220   7.055
 9148POPC   C4B46618  41.313  15.311   7.355
 9149POPC   NC346619  36.906   6.657   5.555
 9149POPC   PO446620  36.858   6.672   5.855
 9149POPC   GL146621  36.932   6.612   6.155
 9149POPC   GL246622  36.901   6.736   6.155
 9149POPC   C1A46623  36.935   6.642   6.455
 9149POPC   D2A46624  36.899   6.642   6.755
 9149POPC   C3A46625  36.916   6.694   7.055
 9149POPC   C4A46626  36.902   6.641   7.355
 9149POPC   C1B46627  36.936   6.904   6.455
 9149POPC   C2B46628  36.982   6.855   6.755
 9149POPC   C3B46629  36.935   6.912   7.055
 9149POPC   C4B46630  36.979   6.937   7.355
 9150POPC   NC346631  32.975  33.751   5.555
 9150POPC   PO446632  33.023  33.841   5.855
 9150POPC   GL146633  33.070  33.758   6.155
 9150POPC   GL246634  33.095  33.722   6.155
 9150POPC   C1A46635  32.985  33.846   6.455
 9150POPC   D2A46636  33.008  33.759   6.755
 9150POPC   C3A46637  33.010  33.794   7.055
 9150POPC   C4A46638  33.048  33.832   7.355
 9150POPC   C1B46639  33.197  33.637   6.455
 9150POPC   C2B46640  33.151  33.657   6.755
 9150POPC   C3B46641  33.239  33.580   7.055
 9150POPC   C4B46642  33.174  33.627   7.355
 9151POPC   NC346643   8.158  35.338   5.555
 9151POPC   PO446644   8.195  35.387   5.855
 9151POPC   GL146645   8.205  35.350   6.155
 9151POPC   GL246646   8.214  35.474   6.155
 9151POPC   C1A46647   8.182  35.329   6.455
 9151POPC   D2A46648   8.238  35.370   6.755
 9151POPC   C3A46649   8.202  35.308   7.055
 9151POPC   C4A46650   8.233  35.329   7.355
 9151POPC   C1B46651   8.184  35.564   6.455
 9151POPC   C2B46652   8.157  35.559   6.755
 9151POPC   C3B46653   8.189  35.559   7.055
 9151POPC   C4B46654   8.238  35.627   7.355
 9152POPC   NC346655  33.815   1.998   5.555
 9152POPC   PO446656  33.817   1.990   5.855
 9152POPC   GL146657  33.822   1.952   6.155
 9152POPC   GL246658  33.688   2.010   6.155
 9152POPC   C1A46659  33.759   1.945   6.455
 9152POPC   D2A46660  33.804   1.989   6.755
 9152POPC   C3A46661  33.788   2.025   7.055
 9152POPC   C4A46662  33.781   2.018   7.355
 9152POPC   C1B46663  33.617   2.073   6.455
 9152POPC   C2B46664  33.547   2.149   6.755
 9152POPC   C3B46665  33.581   2.136   7.055
 9152POPC   C4B46666  33.590   2.098   7.355
 9153POPC   NC346667   8.924  44.629   5.555
 9153POPC   PO446668   8.972  44.678   5.855
 9153POPC   GL146669   8.943  44.665   6.155
 9153POPC   GL246670   8.829  44.649   6.155
 9153POPC   C1A46671   9.014  44.692   6.455
 9153POPC   D2A46672   9.009  44.698   6.755
 9153POPC   C3A46673   8.968  44.616   7.055
 9153POPC   C4A46674   8.960  44.680   7.355
 9153POPC   C1B46675   8.744  44.676   6.455
 9153POPC   C2B46676   8.730  44.685   6.755
 9153POPC   C3B46677   8.737  44.724   7.055
 9153POPC   C4B46678   8.711  44.698   7.355
 9154POPC   NC346679   9.775   0.420   5.555
 9154POPC   PO446680   9.770   0.414   5.855
 9154POPC   GL146681   9.746   0.454   6.155
 9154POPC   GL246682   9.597   0.436   6.155
 9154POPC   C1A46683   9.793   0.407   6.455
 9154POPC   D2A46684   9.706   0.452   6.755
 9154POPC   C3A46685   9.765   0.389   7.055
 9154POPC   C4A46686   9.768   0.409   7.355
 9154POPC   C1B46687   9.528   0.393   6.455
 9154POPC   C2B46688   9.483   0.415   6.755
 9154POPC   C3B46689   9.474   0.367   7.055
 9154POPC   C4B46690   9.538   0.319   7.355
 9155POPC   NC346691  30.668  11.321   5.555
 9155POPC   PO446692  30.657  11.314   5.855
 9155POPC   GL146693  30.661  11.309   6.155
 9155POPC   GL246694  30.805  11.170   6.155
 9155POPC   C1A46695  30.714  11.304   6.455
 9155POPC   D2A46696  30.656  11.309   6.755
 9155POPC   C3A46697  30.683  11.260   7.055
 9155POPC   C4A46698  30.656  11.269   7.355
 9155POPC   C1B46699  30.876  11.093   6.455
 9155POPC   C2B46700  30.859  11.112   6.755
 9155POPC   C3B46701  30.791  11.063   7.055
 9155POPC   C4B46702  30.834  11.071   7.355
 9156POPC   NC346703  20.655  36.165   5.555
 9156POPC   PO446704  20.638  36.080   5.855
 9156POPC   GL146705  20.655  36.101   6.155
 9156POPC   GL246706  20.566  36.184   6.155
 9156POPC   C1A46707  20.620  36.110   6.455
 9156POPC   D2A46708  20.572  36.083   6.755
 9156POPC   C3A46709  20.579  36.119   7.055
 9156POPC   C4A46710  20.601  36.115   7.355
 9156POPC   C1B46711  20.517  36.316   6.455
 9156POPC   C2B46712  20.518  36.349   6.755
 9156POPC   C3B46713  20.486  36.286   7.055
 9156POPC   C4B46714  20.479  36.348   7.355
 9157POPC   NC346715   7.410  18.245   5.555
 9157POPC   PO446716   7.378  18.247   5.855
 9157POPC   GL146717   7.467  18.246   6.155
 9157POPC   GL246718   7.339  18.371   6.155
 9157POPC   C1A46719   7.464  18.293   6.455
 9157POPC   D2A46720   7.376  18.250   6.755
 9157POPC   C3A46721   7.400  18.243   7.055
 9157POPC   C4A46722   7.408  18.280   7.355
 9157POPC   C1B46723   7.304  18.494   6.455
 9157POPC   C2B46724   7.283  18.458   6.755
 9157POPC   C3B46725   7.221  18.497   7.055
 9157POPC   C4B46726   7.261  18.528   7.355
 9158POPC   NC346727  19.038  32.289   5.555
 9158POPC   PO446728  19.102  32.273   5.855
 9158POPC   GL146729  19.087  32.273   6.155
 9158POPC   GL246730  19.194  32.210   6.155
 9158POPC   C1A46731  19.028  32.253   6.455
 9158POPC   D2A46732  19.035  32.220   6.755
 9158POPC   C3A46733  19.073  32.262   7.055
 9158POPC   C4A46734  19.070  32.261   7.355
 9158POPC   C1B46735  19.287  32.122   6.455
 9158POPC   C2B46736  19.264  32.101   6.755
 9158POPC   C3B46737  19.291  32.162   7.055
 9158POPC   C4B46738  19.293  32.118   7.355
 9159POPC   NC346739  29.149  22.117   5.555
 9159POPC   PO446740  29.125  22.180   5.855
 9159POPC   GL146741  29.160  22.157   6.155
 9159POPC   GL246742  29.277  22.060   6.155
 9159POPC   C1A46743  29.162  22.141   6.455
 9159POPC   D2A46744  29.177  22.163   6.755
 9159POPC   C3A46745  29.184  22.168   7.055
 9159POPC   C4A46746  29.121  22.204   7.355
 9159POPC   C1B46747  29.358  21.975   6.455
 9159POPC   C2B46748  29.390  21.969   6.755
 9159POPC   C3B46749  29.363  21.972   7.055
 9159POPC   C4B46750  29.362  22.052   7.355
 9160POPC   NC346751  13.608  26.046   5.555
 9160POPC   PO446752  13.659  26.074   5.855
 9160POPC   GL146753  13.600  26.045   6.155
 9160POPC   GL246754  13.525  25.989   6.155
 9160POPC   C1A46755  13.649  25.997   6.455
 9160POPC   D2A46756  13.582  26.056   6.755
 9160POPC   C3A46757  13.646  26.034   7.055
 9160POPC   C4A46758  13.653  26.055   7.355
 9160POPC   C1B46759  13.395  25.890   6.455
 9160POPC   C2B46760  13.410  25.865   6.755
 9160POPC   C3B46761  13.391  25.847   7.055
 9160POPC   C4B46762  13.471  25.885   7.355
 9161POPC   NC346763  17.510  24.515   5.555
 9161POPC   PO446764  17.525  24.532   5.855
 9161POPC   GL146765  17.498  24.460   6.155
 9161POPC   GL246766  17.501  24.569   6.155
 9161POPC   C1A46767  17.502  24.496   6.455
 9161POPC   D2A46768  17.519  24.476   6.755
 9161POPC   C3A46769  17.527  24.491   7.055
 9161POPC   C4A46770  17.496  24.465   7.355
 9161POPC   C1B46771  17.396  24.719   6.455
 9161POPC   C2B46772  17.420  24.705   6.755
 9161POPC   C3B46773  17.415  24.730   7.055
 9161POPC   C4B46774  17.360  24.681   7.355
 9162POPC   NC346775  43.157  20.635   5.555
 9162POPC   PO446776  43.150  20.637   5.855
 9162POPC   GL146777  43.088  20.646   6.155
 9162POPC   GL246778  43.116  20.699   6.155
 9162POPC   C1A46779  43.159  20.573   6.455
 9162POPC   D2A46780  43.149  20.582   6.755
 9162POPC   C3A46781  43.080  20.563   7.055
 9162POPC   C4A46782  43.098  20.644   7.355
 9162POPC   C1B46783  43.061  20.853   6.455
 9162POPC   C2B46784  43.046  20.827   6.755
 9162POPC   C3B46785  43.037  20.800   7.055
 9162POPC   C4B46786  43.055  20.802   7.355
 9163POPC   NC346787  16.000  43.900   5.555
 9163POPC   PO446788  15.941  43.861   5.855
 9163POPC   GL146789  15.965  43.882   6.155
 9163POPC   GL246790  16.003  43.717   6.155
 9163POPC   C1A46791  15.970  43.884   6.455
 9163POPC   D2A46792  15.928  43.888   6.755
 9163POPC   C3A46793  15.989  43.889   7.055
 9163POPC   C4A46794  15.921  43.854   7.355
 9163POPC   C1B46795  15.964  43.590   6.455
 9163POPC   C2B46796  15.978  43.626   6.755
 9163POPC   C3B46797  15.999  43.647   7.055
 9163POPC   C4B46798  15.977  43.622   7.355
 9164POPC   NC346799  43.155  23.730   5.555
 9164POPC   PO446800  43.137  23.744   5.855
 9164POPC   GL146801  43.147  23.730   6.155
 9164POPC   GL246802  43.109  23.568   6.155
 9164POPC   C1A46803  43.088  23.751   6.455
 9164POPC   D2A46804  43.135  23.680   6.755
 9164POPC   C3A46805  43.137  23.664   7.055
 9164POPC   C4A46806  43.071  23.757   7.355
 9164POPC   C1B46807  43.214  23.461   6.455
 9164POPC   C2B46808  43.136  23.475   6.755
 9164POPC   C3B46809  43.173  23.485   7.055
 9164POPC   C4B46810  43.135  23.427   7.355
 9165POPC   NC346811  36.083   5.898   5.555
 9165POPC   PO446812  36.107   5.885   5.855
 9165POPC   GL146813  36.121   5.872   6.155
 9165POPC   GL246814  36.119   5.790   6.155
 9165POPC   C1A46815  36.127   5.877   6.455
 9165POPC   D2A46816  36.114   5.913   6.755
 9165POPC   C3A46817  36.161   5.898   7.055
 9165POPC   C4A46818  36.176   5.821   7.355
 9165POPC   C1B46819  36.114   5.583   6.455
 9165POPC   C2B46820  36.078   5.625   6.755
 9165POPC   C3B46821  36.036   5.595   7.055
 9165POPC   C4B46822  36.050   5.622   7.355
 9166POPC   NC346823   6.693   5.136   5.555
 9166POPC   PO446824   6.622   5.052   5.855
 9166POPC   GL146825   6.606   5.143   6.155
 9166POPC   GL246826   6.741   5.144   6.155
 9166POPC   C1A46827   6.651   5.123   6.455
 9166POPC   D2A46828   6.688   5.080   6.755
 9166POPC   C3A46829   6.678   5.122   7.055
 9166POPC   C4A46830   6.688   5.143   7.355
 9166POPC   C1B46831   6.848   5.218   6.455
 9166POPC   C2B46832   6.829   5.233   6.755
 9166POPC   C3B46833   6.883   5.220   7.055
 9166POPC   C4B46834   6.861   5.199   7.355
 9167POPC   NC346835   7.389   7.455   5.555
 9167POPC   PO446836   7.425   7.454   5.855
 9167POPC   GL146837   7.407   7.443   6.155
 9167POPC   GL246838   7.338   7.468   6.155
 9167POPC   C1A46839   7.380   7.388   6.455
 9167POPC   D2A46840   7.391   7.430   6.755
 9167POPC   C3A46841   7.417   7.450   7.055
 9167POPC   C4A46842   7.372   7.397   7.355
 9167POPC   C1B46843   7.192   7.472   6.455
 9167POPC   C2B46844   7.169   7.432   6.755
 9167POPC   C3B46845   7.137   7.436   7.055
 9167POPC   C4B46846   7.158   7.492   7.355
 9168POPC   NC346847  21.412  42.297   5.555
 9168POPC   PO446848  21.389  42.289   5.855
 9168POPC   GL146849  21.394  42.373   6.155
 9168POPC   GL246850  21.285  42.407   6.155
 9168POPC   C1A46851  21.421  42.350   6.455
 9168POPC   D2A46852  21.386  42.381   6.755
 9168POPC   C3A46853  21.356  42.292   7.055
 9168POPC   C4A46854  21.408  42.381   7.355
 9168POPC   C1B46855  21.200  42.537   6.455
 9168POPC   C2B46856  21.261  42.529   6.755
 9168POPC   C3B46857  21.230  42.518   7.055
 9168POPC   C4B46858  21.239  42.535   7.355
 9169POPC   NC346859  26.017  43.861   5.555
 9169POPC   PO446860  26.076  43.853   5.855
 9169POPC   GL146861  26.061  43.871   6.155
 9169POPC   GL246862  26.027  44.004   6.155
 9169POPC   C1A46863  26.056  43.870   6.455
 9169POPC   D2A46864  26.058  43.851   6.755
 9169POPC   C3A46865  26.031  43.900   7.055
 9169POPC   C4A46866  26.065  43.887   7.355
 9169POPC   C1B46867  26.024  44.111   6.455
 9169POPC   C2B46868  26.026  44.133   6.755
 9169POPC   C3B46869  26.029  44.183   7.055
 9169POPC   C4B46870  26.023  44.173   7.355
 9170POPC   NC346871   9.787  40.749   5.555
 9170POPC   PO446872   9.781  40.733   5.855
 9170POPC   GL146873   9.746  40.767   6.155
 9170POPC   GL246874   9.628  40.811   6.155
 9170POPC   C1A46875   9.751  40.803   6.455
 9170POPC   D2A46876   9.716  40.807   6.755
 9170POPC   C3A46877   9.711  40.751   7.055
 9170POPC   C4A46878   9.726  40.794   7.355
 9170POPC   C1B46879   9.525  40.772   6.455
 9170POPC   C2B46880   9.506  40.751   6.755
 9170POPC   C3B46881   9.508  40.707   7.055
 9170POPC   C4B46882   9.516  40.789   7.355
 9171POPC   NC346883  19.814  22.137   5.555
 9171POPC   PO446884  19.879  22.211   5.855
 9171POPC   GL146885  19.870  22.129   6.155
 9171POPC   GL246886  19.953  22.167   6.155
 9171POPC   C1A46887  19.795  22.191   6.455
 9171POPC   D2A46888  19.826  22.154   6.755
 9171POPC   C3A46889  19.786  22.157   7.055
 9171POPC   C4A46890  19.860  22.126   7.355
 9171POPC   C1B46891  20.087  22.137   6.455
 9171POPC   C2B46892  20.089  22.125   6.755
 9171POPC   C3B46893  20.105  22.103   7.055
 9171POPC   C4B46894  20.056  22.152   7.355
 9172POPC   NC346895  37.643  11.284   5.555
 9172POPC   PO446896  37.689  11.336   5.855
 9172POPC   GL146897  37.641  11.311   6.155
 9172POPC   GL246898  37.827  11.284   6.155
 9172POPC   C1A46899  37.715  11.327   6.455
 9172POPC   D2A46900  37.719  11.286   6.755
 9172POPC   C3A46901  37.648  11.307   7.055
 9172POPC   C4A46902  37.715  11.258   7.355
 9172POPC   C1B46903  37.870  11.238   6.455
 9172POPC   C2B46904  37.874  11.210   6.755
 9172POPC   C3B46905  37.877  11.231   7.055
 9172POPC   C4B46906  37.948  11.236   7.355
 9173POPC   NC346907  28.417  16.714   5.555
 9173POPC   PO446908  28.376  16.767   5.855
 9173POPC   GL146909  28.332  16.698   6.155
 9173POPC   GL246910  28.460  16.718   6.155
 9173POPC   C1A46911  28.347  16.710   6.455
 9173POPC   D2A46912  28.369  16.777   6.755
 9173POPC   C3A46913  28.368  16.730   7.055
 9173POPC   C4A46914  28.327  16.748   7.355
 9173POPC   C1B46915  28.584  16.620   6.455
 9173POPC   C2B46916  28.613  16.653   6.755
 9173POPC   C3B46917  28.601  16.625   7.055
 9173POPC   C4B46918  28.565  16.581   7.355
 9174POPC   NC346919   3.498  23.751   5.555
 9174POPC   PO446920   3.501  23.667   5.855
 9174POPC   GL146921   3.519  23.712   6.155
 9174POPC   GL246922   3.412  23.638   6.155
 9174POPC   C1A46923   3.543  23.731   6.455
 9174POPC   D2A46924   3.520  23.710   6.755
 9174POPC   C3A46925   3.556  23.673   7.055
 9174POPC   C4A46926   3.584  23.679   7.355
 9174POPC   C1B46927   3.327  23.600   6.455
 9174POPC   C2B46928   3.369  23.543   6.755
 9174POPC   C3B46929   3.300  23.626   7.055
 9174POPC   C4B46930   3.301  23.533   7.355
 9175POPC   NC346931  43.876  13.657   5.555
 9175POPC   PO446932  43.840  13.644   5.855
 9175POPC   GL146933  43.919  13.663   6.155
 9175POPC   GL246934  43.743  13.742   6.155
 9175POPC   C1A46935  43.873  13.644   6.455
 9175POPC   D2A46936  43.848  13.623   6.755
 9175POPC   C3A46937  43.915  13.671   7.055
 9175POPC   C4A46938  43.885  13.578   7.355
 9175POPC   C1B46939  43.670  13.805   6.455
 9175POPC   C2B46940  43.740  13.772   6.755
 9175POPC   C3B46941  43.662  13.773   7.055
 9175POPC   C4B46942  43.649  13.781   7.355
 9176POPC   NC346943  24.478  40.751   5.555
 9176POPC   PO446944  24.481  40.741   5.855
 9176POPC   GL146945  24.514  40.773   6.155
 9176POPC   GL246946  24.616  40.881   6.155
 9176POPC   C1A46947  24.488  40.746   6.455
 9176POPC   D2A46948  24.461  40.744   6.755
 9176POPC   C3A46949  24.458  40.789   7.055
 9176POPC   C4A46950  24.475  40.741   7.355
 9176POPC   C1B46951  24.690  40.939   6.455
 9176POPC   C2B46952  24.709  40.918   6.755
 9176POPC   C3B46953  24.730  40.889   7.055
 9176POPC   C4B46954  24.736  40.946   7.355
 9177POPC   NC346955  42.346  26.071   5.555
 9177POPC   PO446956  42.357  26.051   5.855
 9177POPC   GL146957  42.332  26.006   6.155
 9177POPC   GL246958  42.229  26.028   6.155
 9177POPC   C1A46959  42.293  26.044   6.455
 9177POPC   D2A46960  42.308  26.038   6.755
 9177POPC   C3A46961  42.370  26.055   7.055
 9177POPC   C4A46962  42.362  26.060   7.355
 9177POPC   C1B46963  42.107  25.956   6.455
 9177POPC   C2B46964  42.112  25.909   6.755
 9177POPC   C3B46965  42.100  25.924   7.055
 9177POPC   C4B46966  42.141  25.907   7.355
 9178POPC   NC346967   7.398   4.354   5.555
 9178POPC   PO446968   7.373   4.282   5.855
 9178POPC   GL146969   7.414   4.343   6.155
 9178POPC   GL246970   7.521   4.234   6.155
 9178POPC   C1A46971   7.439   4.353   6.455
 9178POPC   D2A46972   7.374   4.296   6.755
 9178POPC   C3A46973   7.437   4.285   7.055
 9178POPC   C4A46974   7.450   4.340   7.355
 9178POPC   C1B46975   7.631   4.109   6.455
 9178POPC   C2B46976   7.641   4.097   6.755
 9178POPC   C3B46977   7.629   4.140   7.055
 9178POPC   C4B46978   7.636   4.148   7.355
 9179POPC   NC346979  23.709  25.284   5.555
 9179POPC   PO446980  23.745  25.299   5.855
 9179POPC   GL146981  23.671  25.312   6.155
 9179POPC   GL246982  23.728  25.340   6.155
 9179POPC   C1A46983  23.756  25.241   6.455
 9179POPC   D2A46984  23.680  25.261   6.755
 9179POPC   C3A46985  23.755  25.270   7.055
 9179POPC   C4A46986  23.669  25.241   7.355
 9179POPC   C1B46987  23.835  25.434   6.455
 9179POPC   C2B46988  23.874  25.435   6.755
 9179POPC   C3B46989  23.889  25.500   7.055
 9179POPC   C4B46990  23.799  25.504   7.355
 9180POPC   NC346991   0.453   5.893   5.555
 9180POPC   PO446992   0.388   5.918   5.855
 9180POPC   GL146993   0.428   5.847   6.155
 9180POPC   GL246994   0.526   5.977   6.155
 9180POPC   C1A46995   0.440   5.896   6.455
 9180POPC   D2A46996   0.435   5.824   6.755
 9180POPC   C3A46997   0.418   5.844   7.055
 9180POPC   C4A46998   0.460   5.909   7.355
 9180POPC   C1B46999   0.619   6.009   6.455
 9180POPC   C2B47000   0.632   6.030   6.755
 9180POPC   C3B47001   0.588   6.042   7.055
 9180POPC   C4B47002   0.639   6.046   7.355
 9181POPC   NC347003  36.927   3.526   5.555
 9181POPC   PO447004  36.891   3.542   5.855
 9181POPC   GL147005  36.891   3.581   6.155
 9181POPC   GL247006  36.901   3.684   6.155
 9181POPC   C1A47007  36.888   3.561   6.455
 9181POPC   D2A47008  36.867   3.572   6.755
 9181POPC   C3A47009  36.923   3.538   7.055
 9181POPC   C4A47010  36.884   3.500   7.355
 9181POPC   C1B47011  36.861   3.751   6.455
 9181POPC   C2B47012  36.842   3.818   6.755
 9181POPC   C3B47013  36.892   3.768   7.055
 9181POPC   C4B47014  36.887   3.754   7.355
 9182POPC   NC347015  33.003  14.371   5.555
 9182POPC   PO447016  32.997  14.413   5.855
 9182POPC   GL147017  33.038  14.376   6.155
 9182POPC   GL247018  33.000  14.536   6.155
 9182POPC   C1A47019  33.053  14.383   6.455
 9182POPC   D2A47020  33.073  14.431   6.755
 9182POPC   C3A47021  33.066  14.444   7.055
 9182POPC   C4A47022  32.995  14.431   7.355
 9182POPC   C1B47023  32.839  14.603   6.455
 9182POPC   C2B47024  32.865  14.627   6.755
 9182POPC   C3B47025  32.868  14.638   7.055
 9182POPC   C4B47026  32.878  14.577   7.355
 9183POPC   NC347027  33.765   1.216   5.555
 9183POPC   PO447028  33.790   1.262   5.855
 9183POPC   GL147029  33.799   1.229   6.155
 9183POPC   GL247030  33.849   1.273   6.155
 9183POPC   C1A47031  33.792   1.228   6.455
 9183POPC   D2A47032  33.805   1.249   6.755
 9183POPC   C3A47033  33.764   1.262   7.055
 9183POPC   C4A47034  33.816   1.242   7.355
 9183POPC   C1B47035  33.941   1.443   6.455
 9183POPC   C2B47036  33.928   1.364   6.755
 9183POPC   C3B47037  33.972   1.398   7.055
 9183POPC   C4B47038  33.957   1.427   7.355
 9184POPC   NC347039   8.942  10.525   5.555
 9184POPC   PO447040   8.971  10.526   5.855
 9184POPC   GL147041   8.998  10.523   6.155
 9184POPC   GL247042   9.001  10.681   6.155
 9184POPC   C1A47043   8.935  10.513   6.455
 9184POPC   D2A47044   8.972  10.500   6.755
 9184POPC   C3A47045   8.965  10.527   7.055
 9184POPC   C4A47046   8.928  10.519   7.355
 9184POPC   C1B47047   9.007  10.799   6.455
 9184POPC   C2B47048   9.070  10.752   6.755
 9184POPC   C3B47049   9.036  10.768   7.055
 9184POPC   C4B47050   8.981  10.719   7.355
 9185POPC   NC347051   8.182  25.995   5.555
 9185POPC   PO447052   8.223  26.075   5.855
 9185POPC   GL147053   8.196  26.019   6.155
 9185POPC   GL247054   8.322  26.022   6.155
 9185POPC   C1A47055   8.153  26.079   6.455
 9185POPC   D2A47056   8.227  26.013   6.755
 9185POPC   C3A47057   8.166  26.086   7.055
 9185POPC   C4A47058   8.175  26.064   7.355
 9185POPC   C1B47059   8.477  26.052   6.455
 9185POPC   C2B47060   8.495  26.008   6.755
 9185POPC   C3B47061   8.486  25.986   7.055
 9185POPC   C4B47062   8.399  26.025   7.355
 9186POPC   NC347063  34.546  12.875   5.555
 9186POPC   PO447064  34.578  12.874   5.855
 9186POPC   GL147065  34.583  12.816   6.155
 9186POPC   GL247066  34.625  12.906   6.155
 9186POPC   C1A47067  34.595  12.872   6.455
 9186POPC   D2A47068  34.617  12.834   6.755
 9186POPC   C3A47069  34.624  12.816   7.055
 9186POPC   C4A47070  34.570  12.899   7.355
 9186POPC   C1B47071  34.817  12.982   6.455
 9186POPC   C2B47072  34.787  13.054   6.755
 9186POPC   C3B47073  34.810  12.995   7.055
 9186POPC   C4B47074  34.729  13.039   7.355
 9187POPC   NC347075  26.023   8.205   5.555
 9187POPC   PO447076  26.010   8.158   5.855
 9187POPC   GL147077  26.027   8.244   6.155
 9187POPC   GL247078  25.969   8.243   6.155
 9187POPC   C1A47079  26.006   8.207   6.455
 9187POPC   D2A47080  26.020   8.212   6.755
 9187POPC   C3A47081  26.033   8.215   7.055
 9187POPC   C4A47082  26.075   8.230   7.355
 9187POPC   C1B47083  25.912   8.341   6.455
 9187POPC   C2B47084  25.867   8.368   6.755
 9187POPC   C3B47085  25.929   8.352   7.055
 9187POPC   C4B47086  25.904   8.436   7.355
 9188POPC   NC347087   1.240  14.439   5.555
 9188POPC   PO447088   1.229  14.356   5.855
 9188POPC   GL147089   1.218  14.365   6.155
 9188POPC   GL247090   1.178  14.488   6.155
 9188POPC   C1A47091   1.214  14.442   6.455
 9188POPC   D2A47092   1.243  14.376   6.755
 9188POPC   C3A47093   1.216  14.403   7.055
 9188POPC   C4A47094   1.186  14.410   7.355
 9188POPC   C1B47095   1.285  14.632   6.455
 9188POPC   C2B47096   1.210  14.650   6.755
 9188POPC   C3B47097   1.263  14.663   7.055
 9188POPC   C4B47098   1.199  14.693   7.355
 9189POPC   NC347099  36.086  12.832   5.555
 9189POPC   PO447100  36.117  12.874   5.855
 9189POPC   GL147101  36.141  12.812   6.155
 9189POPC   GL247102  36.041  12.894   6.155
 9189POPC   C1A47103  36.107  12.883   6.455
 9189POPC   D2A47104  36.165  12.823   6.755
 9189POPC   C3A47105  36.152  12.899   7.055
 9189POPC   C4A47106  36.103  12.892   7.355
 9189POPC   C1B47107  35.927  12.940   6.455
 9189POPC   C2B47108  35.869  12.976   6.755
 9189POPC   C3B47109  35.886  12.956   7.055
 9189POPC   C4B47110  35.898  12.937   7.355
 9190POPC   NC347111   3.516  25.273   5.555
 9190POPC   PO447112   3.511  25.303   5.855
 9190POPC   GL147113   3.533  25.300   6.155
 9190POPC   GL247114   3.654  25.278   6.155
 9190POPC   C1A47115   3.528  25.219   6.455
 9190POPC   D2A47116   3.527  25.259   6.755
 9190POPC   C3A47117   3.572  25.292   7.055
 9190POPC   C4A47118   3.524  25.259   7.355
 9190POPC   C1B47119   3.835  25.275   6.455
 9190POPC   C2B47120   3.836  25.284   6.755
 9190POPC   C3B47121   3.827  25.261   7.055
 9190POPC   C4B47122   3.819  25.245   7.355
 9191POPC   NC347123  43.887   7.394   5.555
 9191POPC   PO447124  43.932   7.461   5.855
 9191POPC   GL147125  43.862   7.448   6.155
 9191POPC   GL247126  43.973   7.290   6.155
 9191POPC   C1A47127  43.861   7.424   6.455
 9191POPC   D2A47128  43.917   7.384   6.755
 9191POPC   C3A47129  43.887   7.427   7.055
 9191POPC   C4A47130  43.890   7.400   7.355
 9191POPC   C1B47131  44.067   7.194   6.455
 9191POPC   C2B47132  43.978   7.188   6.755
 9191POPC   C3B47133  43.991   7.246   7.055
 9191POPC   C4B47134  44.061   7.246   7.355
 9192POPC   NC347135   8.994  43.106   5.555
 9192POPC   PO447136   8.989  43.084   5.855
 9192POPC   GL147137   8.974  43.132   6.155
 9192POPC   GL247138   9.135  43.034   6.155
 9192POPC   C1A47139   8.956  43.085   6.455
 9192POPC   D2A47140   8.981  43.119   6.755
 9192POPC   C3A47141   8.957  43.153   7.055
 9192POPC   C4A47142   8.954  43.085   7.355
 9192POPC   C1B47143   9.197  42.980   6.455
 9192POPC   C2B47144   9.215  43.037   6.755
 9192POPC   C3B47145   9.171  42.983   7.055
 9192POPC   C4B47146   9.201  42.992   7.355
 9193POPC   NC347147   2.773  33.005   5.555
 9193POPC   PO447148   2.812  32.986   5.855
 9193POPC   GL147149   2.744  33.012   6.155
 9193POPC   GL247150   2.864  32.912   6.155
 9193POPC   C1A47151   2.789  32.985   6.455
 9193POPC   D2A47152   2.776  32.990   6.755
 9193POPC   C3A47153   2.775  33.031   7.055
 9193POPC   C4A47154   2.749  33.038   7.355
 9193POPC   C1B47155   2.866  32.779   6.455
 9193POPC   C2B47156   2.870  32.764   6.755
 9193POPC   C3B47157   2.827  32.797   7.055
 9193POPC   C4B47158   2.835  32.844   7.355
 9194POPC   NC347159  22.153  42.379   5.555
 9194POPC   PO447160  22.116  42.377   5.855
 9194POPC   GL147161  22.141  42.345   6.155
 9194POPC   GL247162  22.227  42.417   6.155
 9194POPC   C1A47163  22.209  42.321   6.455
 9194POPC   D2A47164  22.157  42.332   6.755
 9194POPC   C3A47165  22.180  42.333   7.055
 9194POPC   C4A47166  22.161  42.292   7.355
 9194POPC   C1B47167  22.401  42.450   6.455
 9194POPC   C2B47168  22.408  42.518   6.755
 9194POPC   C3B47169  22.405  42.508   7.055
 9194POPC   C4B47170  22.417  42.516   7.355
 9195POPC   NC347171  19.095  26.777   5.555
 9195POPC   PO447172  19.090  26.859   5.855
 9195POPC   GL147173  19.090  26.859   6.155
 9195POPC   GL247174  18.937  26.730   6.155
 9195POPC   C1A47175  19.031  26.829   6.455
 9195POPC   D2A47176  19.072  26.863   6.755
 9195POPC   C3A47177  19.052  26.842   7.055
 9195POPC   C4A47178  19.064  26.794   7.355
 9195POPC   C1B47179  18.817  26.675   6.455
 9195POPC   C2B47180  18.830  26.692   6.755
 9195POPC   C3B47181  18.872  26.708   7.055
 9195POPC   C4B47182  18.899  26.712   7.355
 9196POPC   NC347183  32.254  40.767   5.555
 9196POPC   PO447184  32.214  40.791   5.855
 9196POPC   GL147185  32.296  40.818   6.155
 9196POPC   GL247186  32.097  40.770   6.155
 9196POPC   C1A47187  32.223  40.827   6.455
 9196POPC   D2A47188  32.243  40.795   6.755
 9196POPC   C3A47189  32.277  40.807   7.055
 9196POPC   C4A47190  32.274  40.767   7.355
 9196POPC   C1B47191  31.998  40.712   6.455
 9196POPC   C2B47192  31.996  40.745   6.755
 9196POPC   C3B47193  31.987  40.735   7.055
 9196POPC   C4B47194  32.002  40.785   7.355
 9197POPC   NC347195  19.020   7.383   5.555
 9197POPC   PO447196  19.082   7.424   5.855
 9197POPC   GL147197  19.076   7.416   6.155
 9197POPC   GL247198  19.098   7.541   6.155
 9197POPC   C1A47199  19.019   7.399   6.455
 9197POPC   D2A47200  19.077   7.421   6.755
 9197POPC   C3A47201  19.096   7.421   7.055
 9197POPC   C4A47202  19.072   7.423   7.355
 9197POPC   C1B47203  19.124   7.653   6.455
 9197POPC   C2B47204  19.209   7.669   6.755
 9197POPC   C3B47205  19.212   7.612   7.055
 9197POPC   C4B47206  19.120   7.654   7.355
 9198POPC   NC347207  36.108  13.606   5.555
 9198POPC   PO447208  36.129  13.622   5.855
 9198POPC   GL147209  36.121  13.625   6.155
 9198POPC   GL247210  36.261  13.674   6.155
 9198POPC   C1A47211  36.090  13.659   6.455
 9198POPC   D2A47212  36.128  13.650   6.755
 9198POPC   C3A47213  36.095  13.634   7.055
 9198POPC   C4A47214  36.164  13.599   7.355
 9198POPC   C1B47215  36.359  13.804   6.455
 9198POPC   C2B47216  36.326  13.781   6.755
 9198POPC   C3B47217  36.340  13.739   7.055
 9198POPC   C4B47218  36.356  13.774   7.355
 9199POPC   NC347219  41.560  28.360   5.555
 9199POPC   PO447220  41.577  28.401   5.855
 9199POPC   GL147221  41.601  28.326   6.155
 9199POPC   GL247222  41.627  28.279   6.155
 9199POPC   C1A47223  41.588  28.371   6.455
 9199POPC   D2A47224  41.519  28.347   6.755
 9199POPC   C3A47225  41.550  28.323   7.055
 9199POPC   C4A47226  41.575  28.329   7.355
 9199POPC   C1B47227  41.689  28.208   6.455
 9199POPC   C2B47228  41.700  28.203   6.755
 9199POPC   C3B47229  41.671  28.205   7.055
 9199POPC   C4B47230  41.747  28.157   7.355
 9200POPC   NC347231  28.341  35.389   5.555
 9200POPC   PO447232  28.366  35.333   5.855
 9200POPC   GL147233  28.393  35.391   6.155
 9200POPC   GL247234  28.334  35.466   6.155
 9200POPC   C1A47235  28.340  35.375   6.455
 9200POPC   D2A47236  28.415  35.339   6.755
 9200POPC   C3A47237  28.341  35.313   7.055
 9200POPC   C4A47238  28.402  35.345   7.355
 9200POPC   C1B47239  28.343  35.564   6.455
 9200POPC   C2B47240  28.381  35.580   6.755
 9200POPC   C3B47241  28.388  35.603   7.055
 9200POPC   C4B47242  28.410  35.560   7.355
 9201POPC   NC347243  19.098   8.940   5.555
 9201POPC   PO447244  19.051   8.973   5.855
 9201POPC   GL147245  19.027   9.006   6.155
 9201POPC   GL247246  19.055   9.106   6.155
 9201POPC   C1A47247  19.046   9.005   6.455
 9201POPC   D2A47248  19.078   8.957   6.755
 9201POPC   C3A47249  19.031   8.949   7.055
 9201POPC   C4A47250  19.021   8.969   7.355
 9201POPC   C1B47251  19.022   9.193   6.455
 9201POPC   C2B47252  19.011   9.206   6.755
 9201POPC   C3B47253  18.955   9.210   7.055
 9201POPC   C4B47254  18.952   9.199   7.355
 9202POPC   NC347255  41.598  43.144   5.555
 9202POPC   PO447256  41.518  43.136   5.855
 9202POPC   GL147257  41.526  43.131   6.155
 9202POPC   GL247258  41.639  43.170   6.155
 9202POPC   C1A47259  41.549  43.121   6.455
 9202POPC   D2A47260  41.602  43.081   6.755
 9202POPC   C3A47261  41.540  43.106   7.055
 9202POPC   C4A47262  41.590  43.072   7.355
 9202POPC   C1B47263  41.733  43.315   6.455
 9202POPC   C2B47264  41.675  43.279   6.755
 9202POPC   C3B47265  41.712  43.320   7.055
 9202POPC   C4B47266  41.694  43.308   7.355
 9203POPC   NC347267   8.938  31.477   5.555
 9203POPC   PO447268   8.973  31.425   5.855
 9203POPC   GL147269   9.009  31.470   6.155
 9203POPC   GL247270   9.079  31.390   6.155
 9203POPC   C1A47271   9.019  31.515   6.455
 9203POPC   D2A47272   9.020  31.487   6.755
 9203POPC   C3A47273   8.937  31.466   7.055
 9203POPC   C4A47274   8.953  31.486   7.355
 9203POPC   C1B47275   9.195  31.306   6.455
 9203POPC   C2B47276   9.162  31.343   6.755
 9203POPC   C3B47277   9.131  31.310   7.055
 9203POPC   C4B47278   9.179  31.353   7.355
 9204POPC   NC347279  22.943  42.299   5.555
 9204POPC   PO447280  22.911  42.307   5.855
 9204POPC   GL147281  22.962  42.364   6.155
 9204POPC   GL247282  23.042  42.291   6.155
 9204POPC   C1A47283  22.929  42.320   6.455
 9204POPC   D2A47284  22.897  42.327   6.755
 9204POPC   C3A47285  22.899  42.344   7.055
 9204POPC   C4A47286  22.931  42.370   7.355
 9204POPC   C1B47287  23.141  42.225   6.455
 9204POPC   C2B47288  23.132  42.133   6.755
 9204POPC   C3B47289  23.111  42.181   7.055
 9204POPC   C4B47290  23.127  42.150   7.355
 9205POPC   NC347291  37.671  44.688   5.555
 9205POPC   PO447292  37.633  44.708   5.855
 9205POPC   GL147293  37.661  44.637   6.155
 9205POPC   GL247294  37.527  44.627   6.155
 9205POPC   C1A47295  37.716  44.679   6.455
 9205POPC   D2A47296  37.708  44.640   6.755
 9205POPC   C3A47297  37.633  44.683   7.055
 9205POPC   C4A47298  37.638  44.655   7.355
 9205POPC   C1B47299  37.490  44.585   6.455
 9205POPC   C2B47300  37.497  44.594   6.755
 9205POPC   C3B47301  37.474  44.527   7.055
 9205POPC   C4B47302  37.502  44.557   7.355
 9206POPC   NC347303  36.109  23.711   5.555
 9206POPC   PO447304  36.096  23.731   5.855
 9206POPC   GL147305  36.100  23.669   6.155
 9206POPC   GL247306  36.112  23.795   6.155
 9206POPC   C1A47307  36.103  23.712   6.455
 9206POPC   D2A47308  36.161  23.669   6.755
 9206POPC   C3A47309  36.138  23.729   7.055
 9206POPC   C4A47310  36.165  23.698   7.355
 9206POPC   C1B47311  36.148  23.961   6.455
 9206POPC   C2B47312  36.148  23.967   6.755
 9206POPC   C3B47313  36.229  23.928   7.055
 9206POPC   C4B47314  36.171  23.927   7.355
 9207POPC   NC347315  10.476  31.445   5.555
 9207POPC   PO447316  10.559  31.518   5.855
 9207POPC   GL147317  10.558  31.502   6.155
 9207POPC   GL247318  10.397  31.529   6.155
 9207POPC   C1A47319  10.555  31.500   6.455
 9207POPC   D2A47320  10.489  31.484   6.755
 9207POPC   C3A47321  10.506  31.501   7.055
 9207POPC   C4A47322  10.556  31.451   7.355
 9207POPC   C1B47323  10.290  31.649   6.455
 9207POPC   C2B47324  10.283  31.577   6.755
 9207POPC   C3B47325  10.367  31.631   7.055
 9207POPC   C4B47326  10.370  31.616   7.355
 9208POPC   NC347327   8.964  21.378   5.555
 9208POPC   PO447328   8.971  21.342   5.855
 9208POPC   GL147329   8.971  21.411   6.155
 9208POPC   GL247330   9.116  21.348   6.155
 9208POPC   C1A47331   9.017  21.387   6.455
 9208POPC   D2A47332   8.987  21.420   6.755
 9208POPC   C3A47333   9.015  21.430   7.055
 9208POPC   C4A47334   8.928  21.399   7.355
 9208POPC   C1B47335   9.122  21.198   6.455
 9208POPC   C2B47336   9.125  21.251   6.755
 9208POPC   C3B47337   9.145  21.266   7.055
 9208POPC   C4B47338   9.168  21.251   7.355
 9209POPC   NC347339  17.536   8.183   5.555
 9209POPC   PO447340  17.540   8.153   5.855
 9209POPC   GL147341  17.495   8.212   6.155
 9209POPC   GL247342  17.467   8.308   6.155
 9209POPC   C1A47343  17.521   8.169   6.455
 9209POPC   D2A47344  17.542   8.227   6.755
 9209POPC   C3A47345  17.538   8.212   7.055
 9209POPC   C4A47346  17.476   8.191   7.355
 9209POPC   C1B47347  17.359   8.431   6.455
 9209POPC   C2B47348  17.445   8.459   6.755
 9209POPC   C3B47349  17.404   8.461   7.055
 9209POPC   C4B47350  17.381   8.409   7.355
 9210POPC   NC347351   5.127   9.705   5.555
 9210POPC   PO447352   5.051   9.781   5.855
 9210POPC   GL147353   5.043   9.785   6.155
 9210POPC   GL247354   5.169   9.827   6.155
 9210POPC   C1A47355   5.112   9.735   6.455
 9210POPC   D2A47356   5.083   9.699   6.755
 9210POPC   C3A47357   5.130   9.720   7.055
 9210POPC   C4A47358   5.136   9.774   7.355
 9210POPC   C1B47359   5.313   9.868   6.455
 9210POPC   C2B47360   5.328   9.891   6.755
 9210POPC   C3B47361   5.278   9.866   7.055
 9210POPC   C4B47362   5.263   9.907   7.355
 9211POPC   NC347363  11.340  19.079   5.555
 9211POPC   PO447364  11.331  19.080   5.855
 9211POPC   GL147365  11.316  19.015   6.155
 9211POPC   GL247366  11.339  19.138   6.155
 9211POPC   C1A47367  11.282  19.030   6.455
 9211POPC   D2A47368  11.318  19.083   6.755
 9211POPC   C3A47369  11.281  19.027   7.055
 9211POPC   C4A47370  11.260  19.046   7.355
 9211POPC   C1B47371  11.478  19.297   6.455
 9211POPC   C2B47372  11.385  19.255   6.755
 9211POPC   C3B47373  11.447  19.300   7.055
 9211POPC   C4B47374  11.424  19.249   7.355
 9212POPC   NC347375  39.957   4.302   5.555
 9212POPC   PO447376  40.045   4.355   5.855
 9212POPC   GL147377  39.959   4.366   6.155
 9212POPC   GL247378  39.995   4.187   6.155
 9212POPC   C1A47379  40.037   4.270   6.455
 9212POPC   D2A47380  39.994   4.347   6.755
 9212POPC   C3A47381  39.963   4.292   7.055
 9212POPC   C4A47382  40.025   4.319   7.355
 9212POPC   C1B47383  39.949   4.054   6.455
 9212POPC   C2B47384  40.012   4.094   6.755
 9212POPC   C3B47385  39.939   4.072   7.055
 9212POPC   C4B47386  39.949   4.032   7.355
 9213POPC   NC347387  12.855  38.417   5.555
 9213POPC   PO447388  12.841  38.434   5.855
 9213POPC   GL147389  12.859  38.455   6.155
 9213POPC   GL247390  12.768  38.489   6.155
 9213POPC   C1A47391  12.815  38.433   6.455
 9213POPC   D2A47392  12.899  38.478   6.755
 9213POPC   C3A47393  12.838  38.501   7.055
 9213POPC   C4A47394  12.859  38.434   7.355
 9213POPC   C1B47395  12.656  38.558   6.455
 9213POPC   C2B47396  12.681  38.572   6.755
 9213POPC   C3B47397  12.667  38.621   7.055
 9213POPC   C4B47398  12.616  38.565   7.355
 9214POPC   NC347399  15.220   1.208   5.555
 9214POPC   PO447400  15.203   1.243   5.855
 9214POPC   GL147401  15.141   1.261   6.155
 9214POPC   GL247402  15.146   1.317   6.155
 9214POPC   C1A47403  15.183   1.199   6.455
 9214POPC   D2A47404  15.163   1.226   6.755
 9214POPC   C3A47405  15.137   1.192   7.055
 9214POPC   C4A47406  15.229   1.215   7.355
 9214POPC   C1B47407  15.043   1.462   6.455
 9214POPC   C2B47408  15.039   1.429   6.755
 9214POPC   C3B47409  15.057   1.420   7.055
 9214POPC   C4B47410  15.033   1.374   7.355
 9215POPC   NC347411  33.760  15.926   5.555
 9215POPC   PO447412  33.833  15.946   5.855
 9215POPC   GL147413  33.841  15.953   6.155
 9215POPC   GL247414  33.828  15.784   6.155
 9215POPC   C1A47415  33.766  15.989   6.455
 9215POPC   D2A47416  33.818  15.939   6.755
 9215POPC   C3A47417  33.776  15.986   7.055
 9215POPC   C4A47418  33.834  16.003   7.355
 9215POPC   C1B47419  33.869  15.715   6.455
 9215POPC   C2B47420  33.857  15.705   6.755
 9215POPC   C3B47421  33.814  15.737   7.055
 9215POPC   C4B47422  33.826  15.714   7.355
 9216POPC   NC347423  18.294  40.009   5.555
 9216POPC   PO447424  18.241  40.021   5.855
 9216POPC   GL147425  18.299  40.043   6.155
 9216POPC   GL247426  18.201  40.051   6.155
 9216POPC   C1A47427  18.288  40.032   6.455
 9216POPC   D2A47428  18.290  39.982   6.755
 9216POPC   C3A47429  18.295  40.037   7.055
 9216POPC   C4A47430  18.276  40.006   7.355
 9216POPC   C1B47431  18.125  40.168   6.455
 9216POPC   C2B47432  18.104  40.163   6.755
 9216POPC   C3B47433  18.073  40.212   7.055
 9216POPC   C4B47434  18.115  40.172   7.355
 9217POPC   NC347435  19.030  17.470   5.555
 9217POPC   PO447436  19.089  17.547   5.855
 9217POPC   GL147437  19.009  17.499   6.155
 9217POPC   GL247438  19.173  17.493   6.155
 9217POPC   C1A47439  19.046  17.525   6.455
 9217POPC   D2A47440  19.028  17.513   6.755
 9217POPC   C3A47441  19.096  17.480   7.055
 9217POPC   C4A47442  19.054  17.475   7.355
 9217POPC   C1B47443  19.316  17.379   6.455
 9217POPC   C2B47444  19.273  17.432   6.755
 9217POPC   C3B47445  19.271  17.370   7.055
 9217POPC   C4B47446  19.310  17.420   7.355
 9218POPC   NC347447  39.238  32.993   5.555
 9218POPC   PO447448  39.203  33.031   5.855
 9218POPC   GL147449  39.272  32.978   6.155
 9218POPC   GL247450  39.099  32.970   6.155
 9218POPC   C1A47451  39.209  32.991   6.455
 9218POPC   D2A47452  39.238  32.976   6.755
 9218POPC   C3A47453  39.226  32.998   7.055
 9218POPC   C4A47454  39.220  33.037   7.355
 9218POPC   C1B47455  39.092  32.798   6.455
 9218POPC   C2B47456  39.055  32.852   6.755
 9218POPC   C3B47457  39.083  32.883   7.055
 9218POPC   C4B47458  39.069  32.827   7.355
 9219POPC   NC347459  27.591   5.867   5.555
 9219POPC   PO447460  27.567   5.826   5.855
 9219POPC   GL147461  27.632   5.824   6.155
 9219POPC   GL247462  27.465   5.809   6.155
 9219POPC   C1A47463  27.638   5.861   6.455
 9219POPC   D2A47464  27.544   5.914   6.755
 9219POPC   C3A47465  27.634   5.847   7.055
 9219POPC   C4A47466  27.634   5.836   7.355
 9219POPC   C1B47467  27.391   5.772   6.455
 9219POPC   C2B47468  27.346   5.730   6.755
 9219POPC   C3B47469  27.380   5.721   7.055
 9219POPC   C4B47470  27.358   5.796   7.355
 9220POPC   NC347471  12.086  29.876   5.555
 9220POPC   PO447472  12.055  29.938   5.855
 9220POPC   GL147473  12.046  29.926   6.155
 9220POPC   GL247474  12.149  29.993   6.155
 9220POPC   C1A47475  12.029  29.950   6.455
 9220POPC   D2A47476  12.053  29.966   6.755
 9220POPC   C3A47477  12.112  29.896   7.055
 9220POPC   C4A47478  12.043  29.875   7.355
 9220POPC   C1B47479  12.171  30.132   6.455
 9220POPC   C2B47480  12.112  30.142   6.755
 9220POPC   C3B47481  12.087  30.136   7.055
 9220POPC   C4B47482  12.164  30.157   7.355
 9221POPC   NC347483  15.907  27.571   5.555
 9221POPC   PO447484  15.919  27.590   5.855
 9221POPC   GL147485  15.952  27.544   6.155
 9221POPC   GL247486  16.053  27.590   6.155
 9221POPC   C1A47487  15.949  27.571   6.455
 9221POPC   D2A47488  15.906  27.553   6.755
 9221POPC   C3A47489  15.961  27.568   7.055
 9221POPC   C4A47490  15.997  27.558   7.355
 9221POPC   C1B47491  16.215  27.536   6.455
 9221POPC   C2B47492  16.246  27.495   6.755
 9221POPC   C3B47493  16.186  27.560   7.055
 9221POPC   C4B47494  16.184  27.576   7.355
 9222POPC   NC347495  21.388  16.739   5.555
 9222POPC   PO447496  21.377  16.682   5.855
 9222POPC   GL147497  21.372  16.688   6.155
 9222POPC   GL247498  21.488  16.861   6.155
 9222POPC   C1A47499  21.432  16.751   6.455
 9222POPC   D2A47500  21.363  16.726   6.755
 9222POPC   C3A47501  21.361  16.703   7.055
 9222POPC   C4A47502  21.388  16.756   7.355
 9222POPC   C1B47503  21.579  16.909   6.455
 9222POPC   C2B47504  21.529  16.917   6.755
 9222POPC   C3B47505  21.527  16.907   7.055
 9222POPC   C4B47506  21.536  16.931   7.355
 9223POPC   NC347507  23.710  26.053   5.555
 9223POPC   PO447508  23.716  26.005   5.855
 9223POPC   GL147509  23.760  26.039   6.155
 9223POPC   GL247510  23.835  25.990   6.155
 9223POPC   C1A47511  23.717  26.020   6.455
 9223POPC   D2A47512  23.667  26.073   6.755
 9223POPC   C3A47513  23.736  26.001   7.055
 9223POPC   C4A47514  23.712  26.015   7.355
 9223POPC   C1B47515  23.894  25.954   6.455
 9223POPC   C2B47516  23.935  25.947   6.755
 9223POPC   C3B47517  23.958  25.900   7.055
 9223POPC   C4B47518  23.899  25.914   7.355
 9224POPC   NC347519  31.432  40.000   5.555
 9224POPC   PO447520  31.454  40.038   5.855
 9224POPC   GL147521  31.430  39.980   6.155
 9224POPC   GL247522  31.378  40.058   6.155
 9224POPC   C1A47523  31.433  39.972   6.455
 9224POPC   D2A47524  31.502  40.036   6.755
 9224POPC   C3A47525  31.430  40.006   7.055
 9224POPC   C4A47526  31.511  39.966   7.355
 9224POPC   C1B47527  31.195  40.072   6.455
 9224POPC   C2B47528  31.242  40.015   6.755
 9224POPC   C3B47529  31.207  40.055   7.055
 9224POPC   C4B47530  31.208  40.016   7.355
 9225POPC   NC347531  20.652  32.213   5.555
 9225POPC   PO447532  20.648  32.275   5.855
 9225POPC   GL147533  20.594  32.212   6.155
 9225POPC   GL247534  20.715  32.351   6.155
 9225POPC   C1A47535  20.588  32.230   6.455
 9225POPC   D2A47536  20.640  32.266   6.755
 9225POPC   C3A47537  20.623  32.231   7.055
 9225POPC   C4A47538  20.561  32.268   7.355
 9225POPC   C1B47539  20.782  32.377   6.455
 9225POPC   C2B47540  20.782  32.348   6.755
 9225POPC   C3B47541  20.812  32.415   7.055
 9225POPC   C4B47542  20.838  32.366   7.355
 9226POPC   NC347543  10.505  33.828   5.555
 9226POPC   PO447544  10.530  33.783   5.855
 9226POPC   GL147545  10.518  33.846   6.155
 9226POPC   GL247546  10.581  33.933   6.155
 9226POPC   C1A47547  10.495  33.793   6.455
 9226POPC   D2A47548  10.528  33.828   6.755
 9226POPC   C3A47549  10.537  33.774   7.055
 9226POPC   C4A47550  10.543  33.802   7.355
 9226POPC   C1B47551  10.562  33.994   6.455
 9226POPC   C2B47552  10.621  34.029   6.755
 9226POPC   C3B47553  10.624  34.009   7.055
 9226POPC   C4B47554  10.605  34.005   7.355
 9227POPC   NC347555   6.643  26.814   5.555
 9227POPC   PO447556   6.650  26.810   5.855
 9227POPC   GL147557   6.610  26.835   6.155
 9227POPC   GL247558   6.510  26.764   6.155
 9227POPC   C1A47559   6.631  26.864   6.455
 9227POPC   D2A47560   6.650  26.835   6.755
 9227POPC   C3A47561   6.611  26.851   7.055
 9227POPC   C4A47562   6.621  26.824   7.355
 9227POPC   C1B47563   6.405  26.790   6.455
 9227POPC   C2B47564   6.424  26.842   6.755
 9227POPC   C3B47565   6.362  26.852   7.055
 9227POPC   C4B47566   6.373  26.771   7.355
 9228POPC   NC347567  40.780  22.901   5.555
 9228POPC   PO447568  40.779  22.920   5.855
 9228POPC   GL147569  40.785  22.890   6.155
 9228POPC   GL247570  40.686  22.958   6.155
 9228POPC   C1A47571  40.801  22.917   6.455
 9228POPC   D2A47572  40.735  22.912   6.755
 9228POPC   C3A47573  40.785  22.978   7.055
 9228POPC   C4A47574  40.757  22.984   7.355
 9228POPC   C1B47575  40.516  23.046   6.455
 9228POPC   C2B47576  40.519  23.035   6.755
 9228POPC   C3B47577  40.530  23.052   7.055
 9228POPC   C4B47578  40.522  22.998   7.355
 9229POPC   NC347579  22.891  16.705   5.555
 9229POPC   PO447580  22.985  16.728   5.855
 9229POPC   GL147581  22.890  16.730   6.155
 9229POPC   GL247582  22.980  16.882   6.155
 9229POPC   C1A47583  22.922  16.688   6.455
 9229POPC   D2A47584  22.940  16.737   6.755
 9229POPC   C3A47585  22.899  16.768   7.055
 9229POPC   C4A47586  22.891  16.685   7.355
 9229POPC   C1B47587  22.961  16.953   6.455
 9229POPC   C2B47588  22.998  17.023   6.755
 9229POPC   C3B47589  22.986  16.976   7.055
 9229POPC   C4B47590  22.993  17.015   7.355
 9230POPC   NC347591  36.887  32.278   5.555
 9230POPC   PO447592  36.899  32.298   5.855
 9230POPC   GL147593  36.910  32.286   6.155
 9230POPC   GL247594  36.870  32.380   6.155
 9230POPC   C1A47595  36.946  32.243   6.455
 9230POPC   D2A47596  36.943  32.284   6.755
 9230POPC   C3A47597  36.857  32.263   7.055
 9230POPC   C4A47598  36.918  32.255   7.355
 9230POPC   C1B47599  36.929  32.511   6.455
 9230POPC   C2B47600  36.865  32.543   6.755
 9230POPC   C3B47601  36.905  32.534   7.055
 9230POPC   C4B47602  36.846  32.538   7.355
 9231POPC   NC347603  41.561  38.430   5.555
 9231POPC   PO447604  41.549  38.473   5.855
 9231POPC   GL147605  41.522  38.472   6.155
 9231POPC   GL247606  41.580  38.602   6.155
 9231POPC   C1A47607  41.529  38.421   6.455
 9231POPC   D2A47608  41.559  38.461   6.755
 9231POPC   C3A47609  41.590  38.483   7.055
 9231POPC   C4A47610  41.573  38.411   7.355
 9231POPC   C1B47611  41.600  38.744   6.455
 9231POPC   C2B47612  41.617  38.667   6.755
 9231POPC   C3B47613  41.648  38.658   7.055
 9231POPC   C4B47614  41.601  38.702   7.355
 9232POPC   NC347615   2.770  39.984   5.555
 9232POPC   PO447616   2.752  39.999   5.855
 9232POPC   GL147617   2.716  39.973   6.155
 9232POPC   GL247618   2.626  39.980   6.155
 9232POPC   C1A47619   2.734  39.971   6.455
 9232POPC   D2A47620   2.810  40.010   6.755
 9232POPC   C3A47621   2.768  40.003   7.055
 9232POPC   C4A47622   2.731  39.980   7.355
 9232POPC   C1B47623   2.589  39.898   6.455
 9232POPC   C2B47624   2.608  39.836   6.755
 9232POPC   C3B47625   2.522  39.849   7.055
 9232POPC   C4B47626   2.572  39.848   7.355
 9233POPC   NC347627  27.602  12.109   5.555
 9233POPC   PO447628  27.607  12.041   5.855
 9233POPC   GL147629  27.587  12.113   6.155
 9233POPC   GL247630  27.524  11.994   6.155
 9233POPC   C1A47631  27.567  12.096   6.455
 9233POPC   D2A47632  27.638  12.107   6.755
 9233POPC   C3A47633  27.572  12.061   7.055
 9233POPC   C4A47634  27.594  12.031   7.355
 9233POPC   C1B47635  27.398  11.924   6.455
 9233POPC   C2B47636  27.461  11.893   6.755
 9233POPC   C3B47637  27.375  11.906   7.055
 9233POPC   C4B47638  27.404  11.877   7.355
 9234POPC   NC347639  44.670  41.529   5.555
 9234POPC   PO447640  44.705  41.553   5.855
 9234POPC   GL147641  44.622  41.608   6.155
 9234POPC   GL247642  44.794  41.548   6.155
 9234POPC   C1A47643  44.675  41.543   6.455
 9234POPC   D2A47644  44.701  41.575   6.755
 9234POPC   C3A47645  44.697  41.599   7.055
 9234POPC   C4A47646  44.667  41.570   7.355
 9234POPC   C1B47647  44.899  41.496   6.455
 9234POPC   C2B47648  44.910  41.496   6.755
 9234POPC   C3B47649  44.897  41.499   7.055
 9234POPC   C4B47650  44.926  41.496   7.355
 9235POPC   NC347651  40.771   1.210   5.555
 9235POPC   PO447652  40.795   1.213   5.855
 9235POPC   GL147653  40.737   1.197   6.155
 9235POPC   GL247654  40.727   1.128   6.155
 9235POPC   C1A47655  40.769   1.227   6.455
 9235POPC   D2A47656  40.800   1.232   6.755
 9235POPC   C3A47657  40.757   1.229   7.055
 9235POPC   C4A47658  40.833   1.242   7.355
 9235POPC   C1B47659  40.654   0.992   6.455
 9235POPC   C2B47660  40.651   0.997   6.755
 9235POPC   C3B47661  40.653   1.013   7.055
 9235POPC   C4B47662  40.658   0.995   7.355
 9236POPC   NC347663   1.982  32.227   5.555
 9236POPC   PO447664   2.038  32.225   5.855
 9236POPC   GL147665   2.014  32.215   6.155
 9236POPC   GL247666   2.097  32.388   6.155
 9236POPC   C1A47667   1.997  32.250   6.455
 9236POPC   D2A47668   1.980  32.236   6.755
 9236POPC   C3A47669   1.963  32.292   7.055
 9236POPC   C4A47670   2.000  32.284   7.355
 9236POPC   C1B47671   2.104  32.465   6.455
 9236POPC   C2B47672   2.080  32.468   6.755
 9236POPC   C3B47673   2.131  32.461   7.055
 9236POPC   C4B47674   2.138  32.452   7.355
 9237POPC   NC347675  36.098  20.649   5.555
 9237POPC   PO447676  36.102  20.610   5.855
 9237POPC   GL147677  36.160  20.573   6.155
 9237POPC   GL247678  36.144  20.737   6.155
 9237POPC   C1A47679  36.082  20.641   6.455
 9237POPC   D2A47680  36.157  20.562   6.755
 9237POPC   C3A47681  36.133  20.634   7.055
 9237POPC   C4A47682  36.119  20.641   7.355
 9237POPC   C1B47683  36.078  20.812   6.455
 9237POPC   C2B47684  36.113  20.867   6.755
 9237POPC   C3B47685  36.096  20.856   7.055
 9237POPC   C4B47686  36.090  20.909   7.355
 9238POPC   NC347687  16.770   3.514   5.555
 9238POPC   PO447688  16.720   3.565   5.855
 9238POPC   GL147689  16.774   3.495   6.155
 9238POPC   GL247690  16.619   3.613   6.155
 9238POPC   C1A47691  16.774   3.515   6.455
 9238POPC   D2A47692  16.708   3.589   6.755
 9238POPC   C3A47693  16.769   3.538   7.055
 9238POPC   C4A47694  16.695   3.495   7.355
 9238POPC   C1B47695  16.565   3.710   6.455
 9238POPC   C2B47696  16.521   3.734   6.755
 9238POPC   C3B47697  16.579   3.712   7.055
 9238POPC   C4B47698  16.555   3.715   7.355
 9239POPC   NC347699  11.348  41.580   5.555
 9239POPC   PO447700  11.348  41.512   5.855
 9239POPC   GL147701  11.307  41.596   6.155
 9239POPC   GL247702  11.165  41.666   6.155
 9239POPC   C1A47703  11.280  41.572   6.455
 9239POPC   D2A47704  11.272  41.546   6.755
 9239POPC   C3A47705  11.314  41.578   7.055
 9239POPC   C4A47706  11.319  41.553   7.355
 9239POPC   C1B47707  11.070  41.693   6.455
 9239POPC   C2B47708  11.130  41.739   6.755
 9239POPC   C3B47709  11.064  41.701   7.055
 9239POPC   C4B47710  11.076  41.677   7.355
 9240POPC   NC347711   5.057  23.710   5.555
 9240POPC   PO447712   5.063  23.747   5.855
 9240POPC   GL147713   5.108  23.738   6.155
 9240POPC   GL247714   5.078  23.854   6.155
 9240POPC   C1A47715   5.138  23.741   6.455
 9240POPC   D2A47716   5.067  23.682   6.755
 9240POPC   C3A47717   5.095  23.746   7.055
 9240POPC   C4A47718   5.088  23.671   7.355
 9240POPC   C1B47719   4.986  23.917   6.455
 9240POPC   C2B47720   4.985  23.995   6.755
 9240POPC   C3B47721   4.961  23.976   7.055
 9240POPC   C4B47722   5.031  23.965   7.355
 9241POPC   NC347723  41.597   5.830   5.555
 9241POPC   PO447724  41.526   5.889   5.855
 9241POPC   GL147725  41.515   5.891   6.155
 9241POPC   GL247726  41.541   6.038   6.155
 9241POPC   C1A47727  41.593   5.890   6.455
 9241POPC   D2A47728  41.547   5.858   6.755
 9241POPC   C3A47729  41.525   5.884   7.055
 9241POPC   C4A47730  41.518   5.873   7.355
 9241POPC   C1B47731  41.561   6.158   6.455
 9241POPC   C2B47732  41.567   6.140   6.755
 9241POPC   C3B47733  41.610   6.117   7.055
 9241POPC   C4B47734  41.564   6.069   7.355
 9242POPC   NC347735  36.144  19.082   5.555
 9242POPC   PO447736  36.135  19.035   5.855
 9242POPC   GL147737  36.110  19.037   6.155
 9242POPC   GL247738  36.158  18.928   6.155
 9242POPC   C1A47739  36.119  19.080   6.455
 9242POPC   D2A47740  36.141  19.068   6.755
 9242POPC   C3A47741  36.174  19.059   7.055
 9242POPC   C4A47742  36.140  19.031   7.355
 9242POPC   C1B47743  36.091  18.823   6.455
 9242POPC   C2B47744  36.091  18.817   6.755
 9242POPC   C3B47745  36.124  18.837   7.055
 9242POPC   C4B47746  36.185  18.832   7.355
 9243POPC   NC347747  33.049  12.827   5.555
 9243POPC   PO447748  33.054  12.844   5.855
 9243POPC   GL147749  33.017  12.830   6.155
 9243POPC   GL247750  32.909  12.750   6.155
 9243POPC   C1A47751  32.986  12.866   6.455
 9243POPC   D2A47752  33.047  12.802   6.755
 9243POPC   C3A47753  33.032  12.850   7.055
 9243POPC   C4A47754  32.993  12.901   7.355
 9243POPC   C1B47755  32.814  12.728   6.455
 9243POPC   C2B47756  32.786  12.781   6.755
 9243POPC   C3B47757  32.802  12.776   7.055
 9243POPC   C4B47758  32.790  12.714   7.355
 9244POPC   NC347759  21.431   9.783   5.555
 9244POPC   PO447760  21.350   9.759   5.855
 9244POPC   GL147761  21.362   9.792   6.155
 9244POPC   GL247762  21.266   9.780   6.155
 9244POPC   C1A47763  21.427   9.752   6.455
 9244POPC   D2A47764  21.370   9.746   6.755
 9244POPC   C3A47765  21.344   9.730   7.055
 9244POPC   C4A47766  21.435   9.746   7.355
 9244POPC   C1B47767  21.124   9.832   6.455
 9244POPC   C2B47768  21.135   9.839   6.755
 9244POPC   C3B47769  21.179   9.872   7.055
 9244POPC   C4B47770  21.193   9.892   7.355
 9245POPC   NC347771  37.715  27.585   5.555
 9245POPC   PO447772  37.669  27.558   5.855
 9245POPC   GL147773  37.686  27.608   6.155
 9245POPC   GL247774  37.522  27.634   6.155
 9245POPC   C1A47775  37.715  27.632   6.455
 9245POPC   D2A47776  37.675  27.559   6.755
 9245POPC   C3A47777  37.701  27.554   7.055
 9245POPC   C4A47778  37.720  27.582   7.355
 9245POPC   C1B47779  37.383  27.576   6.455
 9245POPC   C2B47780  37.460  27.582   6.755
 9245POPC   C3B47781  37.460  27.529   7.055
 9245POPC   C4B47782  37.463  27.560   7.355
 9246POPC   NC347783  15.180  31.510   5.555
 9246POPC   PO447784  15.215  31.456   5.855
 9246POPC   GL147785  15.151  31.477   6.155
 9246POPC   GL247786  15.154  31.326   6.155
 9246POPC   C1A47787  15.177  31.428   6.455
 9246POPC   D2A47788  15.226  31.443   6.755
 9246POPC   C3A47789  15.135  31.449   7.055
 9246POPC   C4A47790  15.147  31.518   7.355
 9246POPC   C1B47791  14.987  31.308   6.455
 9246POPC   C2B47792  15.021  31.319   6.755
 9246POPC   C3B47793  15.032  31.285   7.055
 9246POPC   C4B47794  15.068  31.320   7.355
 9247POPC   NC347795  44.635  40.011   5.555
 9247POPC   PO447796  44.680  40.019   5.855
 9247POPC   GL147797  44.680  39.995   6.155
 9247POPC   GL247798  44.672  39.856   6.155
 9247POPC   C1A47799  44.625  40.030   6.455
 9247POPC   D2A47800  44.669  40.017   6.755
 9247POPC   C3A47801  44.687  39.991   7.055
 9247POPC   C4A47802  44.630  39.996   7.355
 9247POPC   C1B47803  44.643  39.779   6.455
 9247POPC   C2B47804  44.648  39.776   6.755
 9247POPC   C3B47805  44.640  39.736   7.055
 9247POPC   C4B47806  44.625  39.784   7.355
 9248POPC   NC347807  22.929   9.707   5.555
 9248POPC   PO447808  22.959   9.729   5.855
 9248POPC   GL147809  22.901   9.732   6.155
 9248POPC   GL247810  22.977   9.670   6.155
 9248POPC   C1A47811  22.893   9.790   6.455
 9248POPC   D2A47812  22.984   9.716   6.755
 9248POPC   C3A47813  22.930   9.771   7.055
 9248POPC   C4A47814  22.912   9.761   7.355
 9248POPC   C1B47815  23.043   9.526   6.455
 9248POPC   C2B47816  23.117   9.558   6.755
 9248POPC   C3B47817  23.112   9.596   7.055
 9248POPC   C4B47818  23.039   9.511   7.355
 9249POPC   NC347819  31.474   0.403   5.555
 9249POPC   PO447820  31.474   0.437   5.855
 9249POPC   GL147821  31.497   0.425   6.155
 9249POPC   GL247822  31.544   0.346   6.155
 9249POPC   C1A47823  31.430   0.428   6.455
 9249POPC   D2A47824  31.521   0.420   6.755
 9249POPC   C3A47825  31.449   0.409   7.055
 9249POPC   C4A47826  31.472   0.447   7.355
 9249POPC   C1B47827  31.686   0.304   6.455
 9249POPC   C2B47828  31.647   0.311   6.755
 9249POPC   C3B47829  31.615   0.275   7.055
 9249POPC   C4B47830  31.668   0.280   7.355
 9250POPC   NC347831  39.194  23.727   5.555
 9250POPC   PO447832  39.236  23.709   5.855
 9250POPC   GL147833  39.260  23.739   6.155
 9250POPC   GL247834  39.318  23.765   6.155
 9250POPC   C1A47835  39.201  23.691   6.455
 9250POPC   D2A47836  39.257  23.720   6.755
 9250POPC   C3A47837  39.273  23.736   7.055
 9250POPC   C4A47838  39.218  23.704   7.355
 9250POPC   C1B47839  39.407  23.927   6.455
 9250POPC   C2B47840  39.416  23.954   6.755
 9250POPC   C3B47841  39.344  23.922   7.055
 9250POPC   C4B47842  39.404  23.885   7.355
 9251POPC   NC347843  26.784   0.472   5.555
 9251POPC   PO447844  26.848   0.423   5.855
 9251POPC   GL147845  26.863   0.395   6.155
 9251POPC   GL247846  26.888   0.443   6.155
 9251POPC   C1A47847  26.806   0.474   6.455
 9251POPC   D2A47848  26.834   0.426   6.755
 9251POPC   C3A47849  26.775   0.399   7.055
 9251POPC   C4A47850  26.837   0.419   7.355
 9251POPC   C1B47851  27.038   0.505   6.455
 9251POPC   C2B47852  27.015   0.559   6.755
 9251POPC   C3B47853  27.065   0.482   7.055
 9251POPC   C4B47854  27.085   0.525   7.355
 9252POPC   NC347855  21.431  22.954   5.555
 9252POPC   PO447856  21.382  22.986   5.855
 9252POPC   GL147857  21.373  22.897   6.155
 9252POPC   GL247858  21.503  23.073   6.155
 9252POPC   C1A47859  21.341  22.958   6.455
 9252POPC   D2A47860  21.404  22.942   6.755
 9252POPC   C3A47861  21.428  22.934   7.055
 9252POPC   C4A47862  21.342  22.931   7.355
 9252POPC   C1B47863  21.570  23.113   6.455
 9252POPC   C2B47864  21.496  23.116   6.755
 9252POPC   C3B47865  21.526  23.098   7.055
 9252POPC   C4B47866  21.554  23.160   7.355
 9253POPC   NC347867  31.517  36.139   5.555
 9253POPC   PO447868  31.518  36.166   5.855
 9253POPC   GL147869  31.486  36.158   6.155
 9253POPC   GL247870  31.544  36.131   6.155
 9253POPC   C1A47871  31.445  36.161   6.455
 9253POPC   D2A47872  31.495  36.124   6.755
 9253POPC   C3A47873  31.518  36.126   7.055
 9253POPC   C4A47874  31.495  36.117   7.355
 9253POPC   C1B47875  31.678  36.225   6.455
 9253POPC   C2B47876  31.686  36.149   6.755
 9253POPC   C3B47877  31.744  36.182   7.055
 9253POPC   C4B47878  31.691  36.225   7.355
 9254POPC   NC347879  12.821  29.182   5.555
 9254POPC   PO447880  12.857  29.104   5.855
 9254POPC   GL147881  12.868  29.130   6.155
 9254POPC   GL247882  12.946  29.032   6.155
 9254POPC   C1A47883  12.868  29.140   6.455
 9254POPC   D2A47884  12.855  29.139   6.755
 9254POPC   C3A47885  12.831  29.142   7.055
 9254POPC   C4A47886  12.821  29.131   7.355
 9254POPC   C1B47887  13.037  28.967   6.455
 9254POPC   C2B47888  13.026  28.960   6.755
 9254POPC   C3B47889  12.976  28.930   7.055
 9254POPC   C4B47890  12.987  28.954   7.355
 9255POPC   NC347891  26.059   3.494   5.555
 9255POPC   PO447892  26.033   3.508   5.855
 9255POPC   GL147893  26.074   3.544   6.155
 9255POPC   GL247894  25.969   3.444   6.155
 9255POPC   C1A47895  26.053   3.552   6.455
 9255POPC   D2A47896  26.081   3.557   6.755
 9255POPC   C3A47897  26.039   3.538   7.055
 9255POPC   C4A47898  26.024   3.514   7.355
 9255POPC   C1B47899  25.946   3.300   6.455
 9255POPC   C2B47900  25.853   3.330   6.755
 9255POPC   C3B47901  25.881   3.381   7.055
 9255POPC   C4B47902  25.893   3.332   7.355
 9256POPC   NC347903  39.275   2.022   5.555
 9256POPC   PO447904  39.259   1.947   5.855
 9256POPC   GL147905  39.205   1.954   6.155
 9256POPC   GL247906  39.362   1.968   6.155
 9256POPC   C1A47907  39.281   1.989   6.455
 9256POPC   D2A47908  39.257   2.032   6.755
 9256POPC   C3A47909  39.192   1.988   7.055
 9256POPC   C4A47910  39.280   2.016   7.355
 9256POPC   C1B47911  39.431   1.820   6.455
 9256POPC   C2B47912  39.425   1.907   6.755
 9256POPC   C3B47913  39.447   1.828   7.055
 9256POPC   C4B47914  39.488   1.872   7.355
 9257POPC   NC347915  12.113   3.557   5.555
 9257POPC   PO447916  12.105   3.552   5.855
 9257POPC   GL147917  12.083   3.502   6.155
 9257POPC   GL247918  12.101   3.383   6.155
 9257POPC   C1A47919  12.088   3.534   6.455
 9257POPC   D2A47920  12.109   3.591   6.755
 9257POPC   C3A47921  12.116   3.494   7.055
 9257POPC   C4A47922  12.113   3.550   7.355
 9257POPC   C1B47923  12.079   3.242   6.455
 9257POPC   C2B47924  12.063   3.256   6.755
 9257POPC   C3B47925  12.097   3.340   7.055
 9257POPC   C4B47926  12.060   3.322   7.355
 9258POPC   NC347927   4.332   6.692   5.555
 9258POPC   PO447928   4.348   6.650   5.855
 9258POPC   GL147929   4.273   6.616   6.155
 9258POPC   GL247930   4.254   6.593   6.155
 9258POPC   C1A47931   4.277   6.635   6.455
 9258POPC   D2A47932   4.363   6.614   6.755
 9258POPC   C3A47933   4.284   6.681   7.055
 9258POPC   C4A47934   4.346   6.627   7.355
 9258POPC   C1B47935   4.113   6.508   6.455
 9258POPC   C2B47936   4.070   6.499   6.755
 9258POPC   C3B47937   4.120   6.497   7.055
 9258POPC   C4B47938   4.079   6.516   7.355
 9259POPC   NC347939  39.972  31.489   5.555
 9259POPC   PO447940  40.028  31.489   5.855
 9259POPC   GL147941  39.991  31.518   6.155
 9259POPC   GL247942  40.145  31.511   6.155
 9259POPC   C1A47943  39.958  31.475   6.455
 9259POPC   D2A47944  39.967  31.499   6.755
 9259POPC   C3A47945  40.048  31.478   7.055
 9259POPC   C4A47946  39.986  31.432   7.355
 9259POPC   C1B47947  40.177  31.630   6.455
 9259POPC   C2B47948  40.189  31.623   6.755
 9259POPC   C3B47949  40.230  31.583   7.055
 9259POPC   C4B47950  40.254  31.636   7.355
 9260POPC   NC347951   7.459  25.297   5.555
 9260POPC   PO447952   7.464  25.276   5.855
 9260POPC   GL147953   7.437  25.229   6.155
 9260POPC   GL247954   7.326  25.232   6.155
 9260POPC   C1A47955   7.402  25.218   6.455
 9260POPC   D2A47956   7.411  25.218   6.755
 9260POPC   C3A47957   7.404  25.265   7.055
 9260POPC   C4A47958   7.438  25.296   7.355
 9260POPC   C1B47959   7.209  25.295   6.455
 9260POPC   C2B47960   7.138  25.265   6.755
 9260POPC   C3B47961   7.217  25.235   7.055
 9260POPC   C4B47962   7.219  25.250   7.355
 9261POPC   NC347963  14.408   1.944   5.555
 9261POPC   PO447964  14.436   2.020   5.855
 9261POPC   GL147965  14.401   1.943   6.155
 9261POPC   GL247966  14.244   1.966   6.155
 9261POPC   C1A47967  14.441   1.957   6.455
 9261POPC   D2A47968  14.417   1.961   6.755
 9261POPC   C3A47969  14.419   1.958   7.055
 9261POPC   C4A47970  14.415   1.982   7.355
 9261POPC   C1B47971  14.177   1.881   6.455
 9261POPC   C2B47972  14.176   1.915   6.755
 9261POPC   C3B47973  14.119   1.964   7.055
 9261POPC   C4B47974  14.151   1.932   7.355
 9262POPC   NC347975  18.332  31.518   5.555
 9262POPC   PO447976  18.298  31.470   5.855
 9262POPC   GL147977  18.282  31.499   6.155
 9262POPC   GL247978  18.270  31.339   6.155
 9262POPC   C1A47979  18.255  31.441   6.455
 9262POPC   D2A47980  18.331  31.513   6.755
 9262POPC   C3A47981  18.262  31.430   7.055
 9262POPC   C4A47982  18.316  31.482   7.355
 9262POPC   C1B47983  18.253  31.226   6.455
 9262POPC   C2B47984  18.334  31.244   6.755
 9262POPC   C3B47985  18.320  31.219   7.055
 9262POPC   C4B47986  18.325  31.179   7.355
 9263POPC   NC347987   1.243  21.348   5.555
 9263POPC   PO447988   1.178  21.424   5.855
 9263POPC   GL147989   1.209  21.417   6.155
 9263POPC   GL247990   1.259  21.247   6.155
 9263POPC   C1A47991   1.256  21.369   6.455
 9263POPC   D2A47992   1.247  21.366   6.755
 9263POPC   C3A47993   1.221  21.370   7.055
 9263POPC   C4A47994   1.189  21.379   7.355
 9263POPC   C1B47995   1.231  21.154   6.455
 9263POPC   C2B47996   1.201  21.124   6.755
 9263POPC   C3B47997   1.172  21.146   7.055
 9263POPC   C4B47998   1.200  21.102   7.355
 9264POPC   NC347999  40.056   5.879   5.555
 9264POPC   PO448000  40.008   5.851   5.855
 9264POPC   GL148001  39.977   5.852   6.155
 9264POPC   GL248002  40.089   5.907   6.155
 9264POPC   C1A48003  39.998   5.863   6.455
 9264POPC   D2A48004  40.024   5.858   6.755
 9264POPC   C3A48005  40.005   5.823   7.055
 9264POPC   C4A48006  40.007   5.869   7.355
 9264POPC   C1B48007  40.176   6.018   6.455
 9264POPC   C2B48008  40.261   6.016   6.755
 9264POPC   C3B48009  40.267   5.961   7.055
 9264POPC   C4B48010  40.189   6.002   7.355
 9265POPC   NC348011  43.919  22.917   5.555
 9265POPC   PO448012  43.854  22.974   5.855
 9265POPC   GL148013  43.923  22.969   6.155
 9265POPC   GL248014  43.734  23.009   6.155
 9265POPC   C1A48015  43.907  22.978   6.455
 9265POPC   D2A48016  43.864  22.950   6.755
 9265POPC   C3A48017  43.915  22.928   7.055
 9265POPC   C4A48018  43.873  22.982   7.355
 9265POPC   C1B48019  43.674  23.086   6.455
 9265POPC   C2B48020  43.724  23.084   6.755
 9265POPC   C3B48021  43.705  23.044   7.055
 9265POPC   C4B48022  43.684  23.111   7.355
 9266POPC   NC348023   4.288  44.654   5.555
 9266POPC   PO448024   4.350  44.691   5.855
 9266POPC   GL148025   4.362  44.669   6.155
 9266POPC   GL248026   4.299  44.566   6.155
 9266POPC   C1A48027   4.325  44.689   6.455
 9266POPC   D2A48028   4.315  44.626   6.755
 9266POPC   C3A48029   4.358  44.702   7.055
 9266POPC   C4A48030   4.333  44.684   7.355
 9266POPC   C1B48031   4.337  44.403   6.455
 9266POPC   C2B48032   4.331  44.404   6.755
 9266POPC   C3B48033   4.288  44.456   7.055
 9266POPC   C4B48034   4.265  44.435   7.355
 9267POPC   NC348035   3.530   1.233   5.555
 9267POPC   PO448036   3.528   1.256   5.855
 9267POPC   GL148037   3.517   1.231   6.155
 9267POPC   GL248038   3.690   1.221   6.155
 9267POPC   C1A48039   3.525   1.259   6.455
 9267POPC   D2A48040   3.530   1.226   6.755
 9267POPC   C3A48041   3.564   1.164   7.055
 9267POPC   C4A48042   3.492   1.245   7.355
 9267POPC   C1B48043   3.773   1.144   6.455
 9267POPC   C2B48044   3.803   1.151   6.755
 9267POPC   C3B48045   3.777   1.149   7.055
 9267POPC   C4B48046   3.783   1.140   7.355
 9268POPC   NC348047   2.037  15.226   5.555
 9268POPC   PO448048   1.985  15.204   5.855
 9268POPC   GL148049   1.994  15.160   6.155
 9268POPC   GL248050   2.044  15.302   6.155
 9268POPC   C1A48051   1.946  15.212   6.455
 9268POPC   D2A48052   2.001  15.171   6.755
 9268POPC   C3A48053   1.995  15.211   7.055
 9268POPC   C4A48054   2.009  15.140   7.355
 9268POPC   C1B48055   2.156  15.433   6.455
 9268POPC   C2B48056   2.159  15.394   6.755
 9268POPC   C3B48057   2.116  15.389   7.055
 9268POPC   C4B48058   2.100  15.417   7.355
 9269POPC   NC348059  29.877   1.238   5.555
 9269POPC   PO448060  29.924   1.242   5.855
 9269POPC   GL148061  29.913   1.218   6.155
 9269POPC   GL248062  29.840   1.175   6.155
 9269POPC   C1A48063  29.877   1.177   6.455
 9269POPC   D2A48064  29.904   1.239   6.755
 9269POPC   C3A48065  29.919   1.196   7.055
 9269POPC   C4A48066  29.954   1.246   7.355
 9269POPC   C1B48067  29.699   1.226   6.455
 9269POPC   C2B48068  29.624   1.206   6.755
 9269POPC   C3B48069  29.720   1.258   7.055
 9269POPC   C4B48070  29.688   1.242   7.355
 9270POPC   NC348071  40.805  11.323   5.555
 9270POPC   PO448072  40.799  11.322   5.855
 9270POPC   GL148073  40.802  11.271   6.155
 9270POPC   GL248074  40.612  11.352   6.155
 9270POPC   C1A48075  40.743  11.286   6.455
 9270POPC   D2A48076  40.733  11.337   6.755
 9270POPC   C3A48077  40.807  11.253   7.055
 9270POPC   C4A48078  40.747  11.255   7.355
 9270POPC   C1B48079  40.538  11.354   6.455
 9270POPC   C2B48080  40.486  11.303   6.755
 9270POPC   C3B48081  40.495  11.297   7.055
 9270POPC   C4B48082  40.509  11.290   7.355
 9271POPC   NC348083   9.775  15.156   5.555
 9271POPC   PO448084   9.703  15.184   5.855
 9271POPC   GL148085   9.718  15.177   6.155
 9271POPC   GL248086   9.791  15.252   6.155
 9271POPC   C1A48087   9.705  15.227   6.455
 9271POPC   D2A48088   9.741  15.186   6.755
 9271POPC   C3A48089   9.770  15.176   7.055
 9271POPC   C4A48090   9.789  15.214   7.355
 9271POPC   C1B48091   9.838  15.358   6.455
 9271POPC   C2B48092   9.923  15.406   6.755
 9271POPC   C3B48093   9.933  15.380   7.055
 9271POPC   C4B48094   9.911  15.388   7.355
 9272POPC   NC348095  29.940  42.367   5.555
 9272POPC   PO448096  29.930  42.324   5.855
 9272POPC   GL148097  29.914  42.354   6.155
 9272POPC   GL248098  29.954  42.424   6.155
 9272POPC   C1A48099  29.913  42.367   6.455
 9272POPC   D2A48100  29.893  42.333   6.755
 9272POPC   C3A48101  29.898  42.313   7.055
 9272POPC   C4A48102  29.910  42.340   7.355
 9272POPC   C1B48103  29.957  42.546   6.455
 9272POPC   C2B48104  29.925  42.586   6.755
 9272POPC   C3B48105  29.872  42.588   7.055
 9272POPC   C4B48106  29.948  42.580   7.355
 9273POPC   NC348107  41.532  16.728   5.555
 9273POPC   PO448108  41.593  16.698   5.855
 9273POPC   GL148109  41.585  16.730   6.155
 9273POPC   GL248110  41.539  16.891   6.155
 9273POPC   C1A48111  41.589  16.695   6.455
 9273POPC   D2A48112  41.579  16.769   6.755
 9273POPC   C3A48113  41.605  16.698   7.055
 9273POPC   C4A48114  41.524  16.767   7.355
 9273POPC   C1B48115  41.559  16.982   6.455
 9273POPC   C2B48116  41.489  16.973   6.755
 9273POPC   C3B48117  41.489  16.975   7.055
 9273POPC   C4B48118  41.529  16.979   7.355
 9274POPC   NC348119  32.292  25.265   5.555
 9274POPC   PO448120  32.273  25.279   5.855
 9274POPC   GL148121  32.205  25.252   6.155
 9274POPC   GL248122  32.291  25.179   6.155
 9274POPC   C1A48123  32.201  25.239   6.455
 9274POPC   D2A48124  32.200  25.305   6.755
 9274POPC   C3A48125  32.276  25.283   7.055
 9274POPC   C4A48126  32.272  25.242   7.355
 9274POPC   C1B48127  32.302  25.029   6.455
 9274POPC   C2B48128  32.281  24.986   6.755
 9274POPC   C3B48129  32.285  25.016   7.055
 9274POPC   C4B48130  32.273  25.018   7.355
 9275POPC   NC348131  34.561  13.649   5.555
 9275POPC   PO448132  34.605  13.605   5.855
 9275POPC   GL148133  34.589  13.588   6.155
 9275POPC   GL248134  34.672  13.687   6.155
 9275POPC   C1A48135  34.574  13.602   6.455
 9275POPC   D2A48136  34.582  13.620   6.755
 9275POPC   C3A48137  34.570  13.658   7.055
 9275POPC   C4A48138  34.583  13.589   7.355
 9275POPC   C1B48139  34.805  13.685   6.455
 9275POPC   C2B48140  34.835  13.627   6.755
 9275POPC   C3B48141  34.830  13.655   7.055
 9275POPC   C4B48142  34.869  13.697   7.355
 9276POPC   NC348143  36.933  12.871   5.555
 9276POPC   PO448144  36.894  12.902   5.855
 9276POPC   GL148145  36.933  12.827   6.155
 9276POPC   GL248146  37.002  12.763   6.155
 9276POPC   C1A48147  36.930  12.814   6.455
 9276POPC   D2A48148  36.921  12.804   6.755
 9276POPC   C3A48149  36.879  12.835   7.055
 9276POPC   C4A48150  36.914  12.884   7.355
 9276POPC   C1B48151  37.077  12.619   6.455
 9276POPC   C2B48152  37.103  12.689   6.755
 9276POPC   C3B48153  37.068  12.625   7.055
 9276POPC   C4B48154  37.042  12.630   7.355
 9277POPC   NC348155   0.390   7.443   5.555
 9277POPC   PO448156   0.403   7.399   5.855
 9277POPC   GL148157   0.440   7.402   6.155
 9277POPC   GL248158   0.294   7.404   6.155
 9277POPC   C1A48159   0.480   7.399   6.455
 9277POPC   D2A48160   0.452   7.394   6.755
 9277POPC   C3A48161   0.484   7.425   7.055
 9277POPC   C4A48162   0.477   7.422   7.355
 9277POPC   C1B48163   0.256   7.343   6.455
 9277POPC   C2B48164   0.231   7.293   6.755
 9277POPC   C3B48165   0.250   7.295   7.055
 9277POPC   C4B48166   0.231   7.325   7.355
 9278POPC   NC348167  43.150  44.692   5.555
 9278POPC   PO448168  43.160  44.693   5.855
 9278POPC   GL148169  43.106  44.653   6.155
 9278POPC   GL248170  43.250  44.726   6.155
 9278POPC   C1A48171  43.081  44.692   6.455
 9278POPC   D2A48172  43.125  44.625   6.755
 9278POPC   C3A48173  43.120  44.665   7.055
 9278POPC   C4A48174  43.068  44.644   7.355
 9278POPC   C1B48175  43.367  44.695   6.455
 9278POPC   C2B48176  43.353  44.760   6.755
 9278POPC   C3B48177  43.351  44.722   7.055
 9278POPC   C4B48178  43.372  44.738   7.355
 9279POPC   NC348179   8.976  11.318   5.555
 9279POPC   PO448180   8.994  11.339   5.855
 9279POPC   GL148181   8.956  11.281   6.155
 9279POPC   GL248182   8.892  11.344   6.155
 9279POPC   C1A48183   9.019  11.252   6.455
 9279POPC   D2A48184   8.962  11.285   6.755
 9279POPC   C3A48185   8.951  11.301   7.055
 9279POPC   C4A48186   8.932  11.322   7.355
 9279POPC   C1B48187   8.784  11.386   6.455
 9279POPC   C2B48188   8.713  11.380   6.755
 9279POPC   C3B48189   8.695  11.429   7.055
 9279POPC   C4B48190   8.720  11.399   7.355
 9280POPC   NC348191   9.768  31.446   5.555
 9280POPC   PO448192   9.763  31.438   5.855
 9280POPC   GL148193   9.699  31.450   6.155
 9280POPC   GL248194   9.902  31.459   6.155
 9280POPC   C1A48195   9.703  31.455   6.455
 9280POPC   D2A48196   9.778  31.515   6.755
 9280POPC   C3A48197   9.746  31.465   7.055
 9280POPC   C4A48198   9.797  31.463   7.355
 9280POPC   C1B48199  10.028  31.400   6.455
 9280POPC   C2B48200   9.997  31.459   6.755
 9280POPC   C3B48201  10.005  31.445   7.055
 9280POPC   C4B48202  10.029  31.417   7.355
 9281POPC   NC348203   0.487   2.750   5.555
 9281POPC   PO448204   0.463   2.800   5.855
 9281POPC   GL148205   0.476   2.752   6.155
 9281POPC   GL248206   0.415   2.883   6.155
 9281POPC   C1A48207   0.439   2.800   6.455
 9281POPC   D2A48208   0.441   2.750   6.755
 9281POPC   C3A48209   0.466   2.749   7.055
 9281POPC   C4A48210   0.479   2.779   7.355
 9281POPC   C1B48211   0.390   2.984   6.455
 9281POPC   C2B48212   0.451   2.973   6.755
 9281POPC   C3B48213   0.444   3.029   7.055
 9281POPC   C4B48214   0.451   2.985   7.355
 9282POPC   NC348215  36.088  24.497   5.555
 9282POPC   PO448216  36.107  24.471   5.855
 9282POPC   GL148217  36.126  24.536   6.155
 9282POPC   GL248218  36.208  24.403   6.155
 9282POPC   C1A48219  36.086  24.501   6.455
 9282POPC   D2A48220  36.083  24.533   6.755
 9282POPC   C3A48221  36.143  24.458   7.055
 9282POPC   C4A48222  36.158  24.514   7.355
 9282POPC   C1B48223  36.221  24.272   6.455
 9282POPC   C2B48224  36.203  24.284   6.755
 9282POPC   C3B48225  36.230  24.308   7.055
 9282POPC   C4B48226  36.205  24.260   7.355
 9283POPC   NC348227  32.227  14.380   5.555
 9283POPC   PO448228  32.258  14.370   5.855
 9283POPC   GL148229  32.273  14.399   6.155
 9283POPC   GL248230  32.167  14.447   6.155
 9283POPC   C1A48231  32.294  14.403   6.455
 9283POPC   D2A48232  32.202  14.440   6.755
 9283POPC   C3A48233  32.267  14.378   7.055
 9283POPC   C4A48234  32.250  14.358   7.355
 9283POPC   C1B48235  32.005  14.563   6.455
 9283POPC   C2B48236  31.999  14.565   6.755
 9283POPC   C3B48237  32.053  14.514   7.055
 9283POPC   C4B48238  31.981  14.572   7.355
 9284POPC   NC348239  28.341  12.896   5.555
 9284POPC   PO448240  28.385  12.897   5.855
 9284POPC   GL148241  28.408  12.873   6.155
 9284POPC   GL248242  28.406  12.793   6.155
 9284POPC   C1A48243  28.380  12.832   6.455
 9284POPC   D2A48244  28.350  12.816   6.755
 9284POPC   C3A48245  28.355  12.864   7.055
 9284POPC   C4A48246  28.382  12.838   7.355
 9284POPC   C1B48247  28.449  12.617   6.455
 9284POPC   C2B48248  28.453  12.678   6.755
 9284POPC   C3B48249  28.462  12.616   7.055
 9284POPC   C4B48250  28.529  12.670   7.355
 9285POPC   NC348251  24.512  23.728   5.555
 9285POPC   PO448252  24.524  23.732   5.855
 9285POPC   GL148253  24.484  23.699   6.155
 9285POPC   GL248254  24.514  23.599   6.155
 9285POPC   C1A48255  24.467  23.739   6.455
 9285POPC   D2A48256  24.473  23.750   6.755
 9285POPC   C3A48257  24.491  23.731   7.055
 9285POPC   C4A48258  24.466  23.752   7.355
 9285POPC   C1B48259  24.614  23.473   6.455
 9285POPC   C2B48260  24.644  23.520   6.755
 9285POPC   C3B48261  24.663  23.467   7.055
 9285POPC   C4B48262  24.588  23.545   7.355
 9286POPC   NC348263  37.702  37.679   5.555
 9286POPC   PO448264  37.694  37.683   5.855
 9286POPC   GL148265  37.723  37.657   6.155
 9286POPC   GL248266  37.610  37.830   6.155
 9286POPC   C1A48267  37.694  37.700   6.455
 9286POPC   D2A48268  37.642  37.649   6.755
 9286POPC   C3A48269  37.720  37.662   7.055
 9286POPC   C4A48270  37.691  37.705   7.355
 9286POPC   C1B48271  37.597  37.930   6.455
 9286POPC   C2B48272  37.574  37.940   6.755
 9286POPC   C3B48273  37.663  37.889   7.055
 9286POPC   C4B48274  37.600  37.899   7.355
 9287POPC   NC348275  23.709  41.592   5.555
 9287POPC   PO448276  23.700  41.604   5.855
 9287POPC   GL148277  23.683  41.588   6.155
 9287POPC   GL248278  23.634  41.456   6.155
 9287POPC   C1A48279  23.741  41.561   6.455
 9287POPC   D2A48280  23.762  41.592   6.755
 9287POPC   C3A48281  23.762  41.521   7.055
 9287POPC   C4A48282  23.712  41.597   7.355
 9287POPC   C1B48283  23.498  41.445   6.455
 9287POPC   C2B48284  23.468  41.465   6.755
 9287POPC   C3B48285  23.555  41.441   7.055
 9287POPC   C4B48286  23.480  41.466   7.355
 9288POPC   NC348287  14.421   6.670   5.555
 9288POPC   PO448288  14.431   6.631   5.855
 9288POPC   GL148289  14.396   6.609   6.155
 9288POPC   GL248290  14.552   6.655   6.155
 9288POPC   C1A48291  14.416   6.653   6.455
 9288POPC   D2A48292  14.368   6.650   6.755
 9288POPC   C3A48293  14.434   6.605   7.055
 9288POPC   C4A48294  14.380   6.620   7.355
 9288POPC   C1B48295  14.611   6.559   6.455
 9288POPC   C2B48296  14.627   6.546   6.755
 9288POPC   C3B48297  14.666   6.552   7.055
 9288POPC   C4B48298  14.642   6.546   7.355
 9289POPC   NC348299  42.358  23.721   5.555
 9289POPC   PO448300  42.380  23.705   5.855
 9289POPC   GL148301  42.318  23.698   6.155
 9289POPC   GL248302  42.399  23.844   6.155
 9289POPC   C1A48303  42.366  23.757   6.455
 9289POPC   D2A48304  42.315  23.688   6.755
 9289POPC   C3A48305  42.351  23.723   7.055
 9289POPC   C4A48306  42.346  23.668   7.355
 9289POPC   C1B48307  42.391  23.929   6.455
 9289POPC   C2B48308  42.428  23.986   6.755
 9289POPC   C3B48309  42.482  23.922   7.055
 9289POPC   C4B48310  42.399  23.899   7.355
 9290POPC   NC348311  44.658  22.946   5.555
 9290POPC   PO448312  44.617  22.904   5.855
 9290POPC   GL148313  44.628  22.905   6.155
 9290POPC   GL248314  44.602  22.840   6.155
 9290POPC   C1A48315  44.687  22.973   6.455
 9290POPC   D2A48316  44.672  22.933   6.755
 9290POPC   C3A48317  44.655  22.981   7.055
 9290POPC   C4A48318  44.698  22.946   7.355
 9290POPC   C1B48319  44.476  22.770   6.455
 9290POPC   C2B48320  44.508  22.758   6.755
 9290POPC   C3B48321  44.510  22.722   7.055
 9290POPC   C4B48322  44.447  22.751   7.355
 9291POPC   NC348323   4.327  26.018   5.555
 9291POPC   PO448324   4.336  26.068   5.855
 9291POPC   GL148325   4.313  26.075   6.155
 9291POPC   GL248326   4.399  26.127   6.155
 9291POPC   C1A48327   4.279  26.075   6.455
 9291POPC   D2A48328   4.314  26.044   6.755
 9291POPC   C3A48329   4.293  26.083   7.055
 9291POPC   C4A48330   4.267  26.046   7.355
 9291POPC   C1B48331   4.399  26.316   6.455
 9291POPC   C2B48332   4.423  26.276   6.755
 9291POPC   C3B48333   4.390  26.265   7.055
 9291POPC   C4B48334   4.437  26.324   7.355
 9292POPC   NC348335  38.408  37.660   5.555
 9292POPC   PO448336  38.410  37.685   5.855
 9292POPC   GL148337  38.496  37.670   6.155
 9292POPC   GL248338  38.503  37.602   6.155
 9292POPC   C1A48339  38.439  37.686   6.455
 9292POPC   D2A48340  38.411  37.637   6.755
 9292POPC   C3A48341  38.419  37.657   7.055
 9292POPC   C4A48342  38.503  37.655   7.355
 9292POPC   C1B48343  38.517  37.422   6.455
 9292POPC   C2B48344  38.498  37.410   6.755
 9292POPC   C3B48345  38.560  37.435   7.055
 9292POPC   C4B48346  38.485  37.390   7.355
 9293POPC   NC348347   6.651   7.446   5.555
 9293POPC   PO448348   6.692   7.396   5.855
 9293POPC   GL148349   6.612   7.437   6.155
 9293POPC   GL248350   6.526   7.325   6.155
 9293POPC   C1A48351   6.683   7.461   6.455
 9293POPC   D2A48352   6.628   7.411   6.755
 9293POPC   C3A48353   6.664   7.385   7.055
 9293POPC   C4A48354   6.599   7.449   7.355
 9293POPC   C1B48355   6.480   7.241   6.455
 9293POPC   C2B48356   6.459   7.212   6.755
 9293POPC   C3B48357   6.445   7.283   7.055
 9293POPC   C4B48358   6.419   7.267   7.355
 9294POPC   NC348359  13.623  25.306   5.555
 9294POPC   PO448360  13.581  25.243   5.855
 9294POPC   GL148361  13.617  25.285   6.155
 9294POPC   GL248362  13.584  25.144   6.155
 9294POPC   C1A48363  13.596  25.268   6.455
 9294POPC   D2A48364  13.600  25.309   6.755
 9294POPC   C3A48365  13.644  25.308   7.055
 9294POPC   C4A48366  13.605  25.219   7.355
 9294POPC   C1B48367  13.565  25.041   6.455
 9294POPC   C2B48368  13.568  24.996   6.755
 9294POPC   C3B48369  13.582  25.048   7.055
 9294POPC   C4B48370  13.594  24.978   7.355
 9295POPC   NC348371  31.511  33.762   5.555
 9295POPC   PO448372  31.471  33.830   5.855
 9295POPC   GL148373  31.464  33.840   6.155
 9295POPC   GL248374  31.348  33.741   6.155
 9295POPC   C1A48375  31.488  33.778   6.455
 9295POPC   D2A48376  31.432  33.756   6.755
 9295POPC   C3A48377  31.433  33.829   7.055
 9295POPC   C4A48378  31.453  33.839   7.355
 9295POPC   C1B48379  31.243  33.646   6.455
 9295POPC   C2B48380  31.237  33.632   6.755
 9295POPC   C3B48381  31.236  33.681   7.055
 9295POPC   C4B48382  31.212  33.636   7.355
 9296POPC   NC348383  13.617  40.755   5.555
 9296POPC   PO448384  13.582  40.733   5.855
 9296POPC   GL148385  13.579  40.785   6.155
 9296POPC   GL248386  13.658  40.866   6.155
 9296POPC   C1A48387  13.643  40.797   6.455
 9296POPC   D2A48388  13.673  40.748   6.755
 9296POPC   C3A48389  13.610  40.753   7.055
 9296POPC   C4A48390  13.579  40.831   7.355
 9296POPC   C1B48391  13.736  41.002   6.455
 9296POPC   C2B48392  13.730  40.953   6.755
 9296POPC   C3B48393  13.792  40.962   7.055
 9296POPC   C4B48394  13.750  40.977   7.355
 9297POPC   NC348395  19.832  44.690   5.555
 9297POPC   PO448396  19.810  44.653   5.855
 9297POPC   GL148397  19.879  44.633   6.155
 9297POPC   GL248398  19.801  44.563   6.155
 9297POPC   C1A48399  19.792  44.654   6.455
 9297POPC   D2A48400  19.871  44.704   6.755
 9297POPC   C3A48401  19.844  44.665   7.055
 9297POPC   C4A48402  19.785  44.626   7.355
 9297POPC   C1B48403  19.827  44.435   6.455
 9297POPC   C2B48404  19.840  44.449   6.755
 9297POPC   C3B48405  19.845  44.461   7.055
 9297POPC   C4B48406  19.778  44.426   7.355
 9298POPC   NC348407  10.536  26.073   5.555
 9298POPC   PO448408  10.516  26.059   5.855
 9298POPC   GL148409  10.497  26.070   6.155
 9298POPC   GL248410  10.659  26.093   6.155
 9298POPC   C1A48411  10.519  26.018   6.455
 9298POPC   D2A48412  10.569  26.025   6.755
 9298POPC   C3A48413  10.540  26.028   7.055
 9298POPC   C4A48414  10.519  26.088   7.355
 9298POPC   C1B48415  10.751  26.018   6.455
 9298POPC   C2B48416  10.798  26.035   6.755
 9298POPC   C3B48417  10.734  26.011   7.055
 9298POPC   C4B48418  10.725  26.015   7.355
 9299POPC   NC348419  29.183  40.044   5.555
 9299POPC   PO448420  29.163  40.048   5.855
 9299POPC   GL148421  29.192  40.032   6.155
 9299POPC   GL248422  29.144  39.893   6.155
 9299POPC   C1A48423  29.110  40.054   6.455
 9299POPC   D2A48424  29.147  39.973   6.755
 9299POPC   C3A48425  29.099  40.043   7.055
 9299POPC   C4A48426  29.149  40.025   7.355
 9299POPC   C1B48427  29.191  39.760   6.455
 9299POPC   C2B48428  29.250  39.780   6.755
 9299POPC   C3B48429  29.248  39.750   7.055
 9299POPC   C4B48430  29.177  39.810   7.355
 9300POPC   NC348431  15.192  11.311   5.555
 9300POPC   PO448432  15.202  11.290   5.855
 9300POPC   GL148433  15.201  11.259   6.155
 9300POPC   GL248434  15.136  11.200   6.155
 9300POPC   C1A48435  15.215  11.315   6.455
 9300POPC   D2A48436  15.155  11.324   6.755
 9300POPC   C3A48437  15.204  11.332   7.055
 9300POPC   C4A48438  15.160  11.286   7.355
 9300POPC   C1B48439  15.021  11.075   6.455
 9300POPC   C2B48440  15.021  11.092   6.755
 9300POPC   C3B48441  15.031  11.153   7.055
 9300POPC   C4B48442  14.964  11.140   7.355
 9301POPC   NC348443  33.756  11.290   5.555
 9301POPC   PO448444  33.842  11.323   5.855
 9301POPC   GL148445  33.775  11.321   6.155
 9301POPC   GL248446  33.753  11.401   6.155
 9301POPC   C1A48447  33.769  11.337   6.455
 9301POPC   D2A48448  33.845  11.343   6.755
 9301POPC   C3A48449  33.834  11.258   7.055
 9301POPC   C4A48450  33.803  11.343   7.355
 9301POPC   C1B48451  33.707  11.523   6.455
 9301POPC   C2B48452  33.757  11.564   6.755
 9301POPC   C3B48453  33.737  11.490   7.055
 9301POPC   C4B48454  33.679  11.544   7.355
 9302POPC   NC348455  15.968  20.594   5.555
 9302POPC   PO448456  15.939  20.620   5.855
 9302POPC   GL148457  15.951  20.633   6.155
 9302POPC   GL248458  15.863  20.606   6.155
 9302POPC   C1A48459  15.977  20.618   6.455
 9302POPC   D2A48460  15.931  20.619   6.755
 9302POPC   C3A48461  15.933  20.651   7.055
 9302POPC   C4A48462  15.990  20.616   7.355
 9302POPC   C1B48463  15.710  20.662   6.455
 9302POPC   C2B48464  15.719  20.668   6.755
 9302POPC   C3B48465  15.747  20.654   7.055
 9302POPC   C4B48466  15.704  20.585   7.355
 9303POPC   NC348467   7.452  29.886   5.555
 9303POPC   PO448468   7.453  29.886   5.855
 9303POPC   GL148469   7.401  29.956   6.155
 9303POPC   GL248470   7.308  30.030   6.155
 9303POPC   C1A48471   7.431  29.920   6.455
 9303POPC   D2A48472   7.452  29.945   6.755
 9303POPC   C3A48473   7.456  29.956   7.055
 9303POPC   C4A48474   7.395  29.876   7.355
 9303POPC   C1B48475   7.250  30.078   6.455
 9303POPC   C2B48476   7.271  30.031   6.755
 9303POPC   C3B48477   7.183  30.062   7.055
 9303POPC   C4B48478   7.197  30.068   7.355
 9304POPC   NC348479  27.571  38.438   5.555
 9304POPC   PO448480  27.543  38.436   5.855
 9304POPC   GL148481  27.573  38.447   6.155
 9304POPC   GL248482  27.572  38.535   6.155
 9304POPC   C1A48483  27.586  38.440   6.455
 9304POPC   D2A48484  27.607  38.420   6.755
 9304POPC   C3A48485  27.573  38.503   7.055
 9304POPC   C4A48486  27.551  38.482   7.355
 9304POPC   C1B48487  27.437  38.703   6.455
 9304POPC   C2B48488  27.493  38.690   6.755
 9304POPC   C3B48489  27.437  38.659   7.055
 9304POPC   C4B48490  27.475  38.699   7.355
 9305POPC   NC348491  19.063  41.514   5.555
 9305POPC   PO448492  19.031  41.546   5.855
 9305POPC   GL148493  19.092  41.513   6.155
 9305POPC   GL248494  18.896  41.514   6.155
 9305POPC   C1A48495  19.068  41.531   6.455
 9305POPC   D2A48496  19.088  41.585   6.755
 9305POPC   C3A48497  19.067  41.525   7.055
 9305POPC   C4A48498  19.067  41.571   7.355
 9305POPC   C1B48499  18.848  41.541   6.455
 9305POPC   C2B48500  18.809  41.491   6.755
 9305POPC   C3B48501  18.766  41.507   7.055
 9305POPC   C4B48502  18.830  41.551   7.355
 9306POPC   NC348503   1.943  14.405   5.555
 9306POPC   PO448504   1.974  14.383   5.855
 9306POPC   GL148505   2.003  14.383   6.155
 9306POPC   GL248506   2.008  14.303   6.155
 9306POPC   C1A48507   1.979  14.429   6.455
 9306POPC   D2A48508   2.015  14.416   6.755
 9306POPC   C3A48509   2.012  14.369   7.055
 9306POPC   C4A48510   1.941  14.426   7.355
 9306POPC   C1B48511   1.903  14.170   6.455
 9306POPC   C2B48512   1.934  14.144   6.755
 9306POPC   C3B48513   1.992  14.122   7.055
 9306POPC   C4B48514   1.984  14.178   7.355
 9307POPC   NC348515  34.601   0.419   5.555
 9307POPC   PO448516  34.538   0.482   5.855
 9307POPC   GL148517  34.623   0.442   6.155
 9307POPC   GL248518  34.554   0.540   6.155
 9307POPC   C1A48519  34.560   0.456   6.455
 9307POPC   D2A48520  34.574   0.432   6.755
 9307POPC   C3A48521  34.624   0.426   7.055
 9307POPC   C4A48522  34.578   0.392   7.355
 9307POPC   C1B48523  34.670   0.678   6.455
 9307POPC   C2B48524  34.658   0.670   6.755
 9307POPC   C3B48525  34.615   0.701   7.055
 9307POPC   C4B48526  34.670   0.661   7.355
 9308POPC   NC348527   1.986  22.947   5.555
 9308POPC   PO448528   1.995  22.915   5.855
 9308POPC   GL148529   1.991  22.915   6.155
 9308POPC   GL248530   2.072  22.991   6.155
 9308POPC   C1A48531   1.995  22.945   6.455
 9308POPC   D2A48532   1.953  22.946   6.755
 9308POPC   C3A48533   2.009  22.949   7.055
 9308POPC   C4A48534   2.016  22.903   7.355
 9308POPC   C1B48535   2.248  22.996   6.455
 9308POPC   C2B48536   2.214  22.912   6.755
 9308POPC   C3B48537   2.250  22.941   7.055
 9308POPC   C4B48538   2.218  22.923   7.355
 9309POPC   NC348539  39.969   3.588   5.555
 9309POPC   PO448540  39.968   3.501   5.855
 9309POPC   GL148541  40.018   3.542   6.155
 9309POPC   GL248542  39.966   3.620   6.155
 9309POPC   C1A48543  39.967   3.509   6.455
 9309POPC   D2A48544  40.027   3.586   6.755
 9309POPC   C3A48545  40.006   3.522   7.055
 9309POPC   C4A48546  40.054   3.570   7.355
 9309POPC   C1B48547  39.907   3.734   6.455
 9309POPC   C2B48548  39.928   3.741   6.755
 9309POPC   C3B48549  39.877   3.749   7.055
 9309POPC   C4B48550  39.874   3.777   7.355
 9310POPC   NC348551  33.760  30.687   5.555
 9310POPC   PO448552  33.833  30.667   5.855
 9310POPC   GL148553  33.760  30.681   6.155
 9310POPC   GL248554  33.902  30.663   6.155
 9310POPC   C1A48555  33.837  30.674   6.455
 9310POPC   D2A48556  33.837  30.674   6.755
 9310POPC   C3A48557  33.770  30.656   7.055
 9310POPC   C4A48558  33.826  30.658   7.355
 9310POPC   C1B48559  33.966  30.533   6.455
 9310POPC   C2B48560  33.998  30.507   6.755
 9310POPC   C3B48561  34.035  30.509   7.055
 9310POPC   C4B48562  33.989  30.548   7.355
 9311POPC   NC348563  40.783  15.164   5.555
 9311POPC   PO448564  40.797  15.136   5.855
 9311POPC   GL148565  40.736  15.181   6.155
 9311POPC   GL248566  40.844  15.085   6.155
 9311POPC   C1A48567  40.747  15.226   6.455
 9311POPC   D2A48568  40.803  15.220   6.755
 9311POPC   C3A48569  40.752  15.164   7.055
 9311POPC   C4A48570  40.785  15.207   7.355
 9311POPC   C1B48571  41.002  15.017   6.455
 9311POPC   C2B48572  40.957  15.043   6.755
 9311POPC   C3B48573  40.956  15.005   7.055
 9311POPC   C4B48574  40.942  15.018   7.355
 9312POPC   NC348575  19.840  17.553   5.555
 9312POPC   PO448576  19.880  17.540   5.855
 9312POPC   GL148577  19.834  17.508   6.155
 9312POPC   GL248578  19.720  17.443   6.155
 9312POPC   C1A48579  19.847  17.520   6.455
 9312POPC   D2A48580  19.787  17.513   6.755
 9312POPC   C3A48581  19.816  17.536   7.055
 9312POPC   C4A48582  19.857  17.475   7.355
 9312POPC   C1B48583  19.565  17.462   6.455
 9312POPC   C2B48584  19.543  17.436   6.755
 9312POPC   C3B48585  19.565  17.485   7.055
 9312POPC   C4B48586  19.596  17.440   7.355
 9313POPC   NC348587  36.866  31.515   5.555
 9313POPC   PO448588  36.913  31.477   5.855
 9313POPC   GL148589  36.873  31.457   6.155
 9313POPC   GL248590  36.915  31.303   6.155
 9313POPC   C1A48591  36.881  31.432   6.455
 9313POPC   D2A48592  36.862  31.468   6.755
 9313POPC   C3A48593  36.903  31.464   7.055
 9313POPC   C4A48594  36.857  31.507   7.355
 9313POPC   C1B48595  36.944  31.197   6.455
 9313POPC   C2B48596  36.952  31.243   6.755
 9313POPC   C3B48597  36.888  31.201   7.055
 9313POPC   C4B48598  36.884  31.195   7.355
 9314POPC   NC348599  12.893   9.769   5.555
 9314POPC   PO448600  12.853   9.790   5.855
 9314POPC   GL148601  12.889   9.776   6.155
 9314POPC   GL248602  12.721   9.745   6.155
 9314POPC   C1A48603  12.841   9.713   6.455
 9314POPC   D2A48604  12.901   9.725   6.755
 9314POPC   C3A48605  12.873   9.752   7.055
 9314POPC   C4A48606  12.843   9.713   7.355
 9314POPC   C1B48607  12.647   9.768   6.455
 9314POPC   C2B48608  12.646   9.761   6.755
 9314POPC   C3B48609  12.617   9.765   7.055
 9314POPC   C4B48610  12.581   9.793   7.355
 9315POPC   NC348611  25.290  38.445   5.555
 9315POPC   PO448612  25.285  38.444   5.855
 9315POPC   GL148613  25.258  38.425   6.155
 9315POPC   GL248614  25.373  38.459   6.155
 9315POPC   C1A48615  25.314  38.445   6.455
 9315POPC   D2A48616  25.297  38.502   6.755
 9315POPC   C3A48617  25.302  38.466   7.055
 9315POPC   C4A48618  25.274  38.504   7.355
 9315POPC   C1B48619  25.537  38.427   6.455
 9315POPC   C2B48620  25.523  38.432   6.755
 9315POPC   C3B48621  25.479  38.432   7.055
 9315POPC   C4B48622  25.507  38.442   7.355
 9316POPC   NC348623  17.476   8.988   5.555
 9316POPC   PO448624  17.529   9.010   5.855
 9316POPC   GL148625  17.502   8.958   6.155
 9316POPC   GL248626  17.417   9.113   6.155
 9316POPC   C1A48627  17.548   8.950   6.455
 9316POPC   D2A48628  17.469   9.012   6.755
 9316POPC   C3A48629  17.556   8.993   7.055
 9316POPC   C4A48630  17.484   8.955   7.355
 9316POPC   C1B48631  17.360   9.235   6.455
 9316POPC   C2B48632  17.431   9.246   6.755
 9316POPC   C3B48633  17.413   9.228   7.055
 9316POPC   C4B48634  17.402   9.181   7.355
 9317POPC   NC348635   0.456  11.251   5.555
 9317POPC   PO448636   0.436  11.264   5.855
 9317POPC   GL148637   0.475  11.327   6.155
 9317POPC   GL248638   0.373  11.359   6.155
 9317POPC   C1A48639   0.440  11.271   6.455
 9317POPC   D2A48640   0.399  11.308   6.755
 9317POPC   C3A48641   0.409  11.323   7.055
 9317POPC   C4A48642   0.402  11.325   7.355
 9317POPC   C1B48643   0.230  11.426   6.455
 9317POPC   C2B48644   0.245  11.468   6.755
 9317POPC   C3B48645   0.255  11.440   7.055
 9317POPC   C4B48646   0.199  11.455   7.355
 9318POPC   NC348647  18.316   7.447   5.555
 9318POPC   PO448648  18.279   7.406   5.855
 9318POPC   GL148649  18.266   7.383   6.155
 9318POPC   GL248650  18.241   7.341   6.155
 9318POPC   C1A48651  18.262   7.401   6.455
 9318POPC   D2A48652  18.317   7.405   6.755
 9318POPC   C3A48653  18.245   7.452   7.055
 9318POPC   C4A48654  18.276   7.409   7.355
 9318POPC   C1B48655  18.282   7.211   6.455
 9318POPC   C2B48656  18.232   7.134   6.755
 9318POPC   C3B48657  18.247   7.145   7.055
 9318POPC   C4B48658  18.277   7.213   7.355
 9319POPC   NC348659   8.204   8.940   5.555
 9319POPC   PO448660   8.217   9.008   5.855
 9319POPC   GL148661   8.180   9.014   6.155
 9319POPC   GL248662   8.298   9.064   6.155
 9319POPC   C1A48663   8.211   8.947   6.455
 9319POPC   D2A48664   8.241   8.988   6.755
 9319POPC   C3A48665   8.156   8.963   7.055
 9319POPC   C4A48666   8.219   9.001   7.355
 9319POPC   C1B48667   8.361   9.158   6.455
 9319POPC   C2B48668   8.438   9.084   6.755
 9319POPC   C3B48669   8.382   9.163   7.055
 9319POPC   C4B48670   8.391   9.100   7.355
 9320POPC   NC348671  10.572   7.379   5.555
 9320POPC   PO448672  10.561   7.417   5.855
 9320POPC   GL148673  10.477   7.443   6.155
 9320POPC   GL248674  10.401   7.556   6.155
 9320POPC   C1A48675  10.531   7.395   6.455
 9320POPC   D2A48676  10.512   7.454   6.755
 9320POPC   C3A48677  10.483   7.425   7.055
 9320POPC   C4A48678  10.503   7.380   7.355
 9320POPC   C1B48679  10.296   7.594   6.455
 9320POPC   C2B48680  10.309   7.635   6.755
 9320POPC   C3B48681  10.347   7.623   7.055
 9320POPC   C4B48682  10.322   7.553   7.355
 9321POPC   NC348683  38.459  36.088   5.555
 9321POPC   PO448684  38.416  36.126   5.855
 9321POPC   GL148685  38.457  36.087   6.155
 9321POPC   GL248686  38.329  36.081   6.155
 9321POPC   C1A48687  38.498  36.119   6.455
 9321POPC   D2A48688  38.475  36.155   6.755
 9321POPC   C3A48689  38.420  36.154   7.055
 9321POPC   C4A48690  38.466  36.129   7.355
 9321POPC   C1B48691  38.246  35.935   6.455
 9321POPC   C2B48692  38.227  35.914   6.755
 9321POPC   C3B48693  38.276  35.945   7.055
 9321POPC   C4B48694  38.311  35.966   7.355
 9322POPC   NC348695  33.026  40.036   5.555
 9322POPC   PO448696  32.977  40.025   5.855
 9322POPC   GL148697  32.978  40.023   6.155
 9322POPC   GL248698  33.132  39.910   6.155
 9322POPC   C1A48699  33.004  40.015   6.455
 9322POPC   D2A48700  33.044  40.013   6.755
 9322POPC   C3A48701  32.979  39.967   7.055
 9322POPC   C4A48702  33.061  40.055   7.355
 9322POPC   C1B48703  33.196  39.879   6.455
 9322POPC   C2B48704  33.162  39.867   6.755
 9322POPC   C3B48705  33.220  39.848   7.055
 9322POPC   C4B48706  33.181  39.791   7.355
 9323POPC   NC348707  36.871  10.481   5.555
 9323POPC   PO448708  36.884  10.505   5.855
 9323POPC   GL148709  36.882  10.509   6.155
 9323POPC   GL248710  36.862  10.610   6.155
 9323POPC   C1A48711  36.891  10.554   6.455
 9323POPC   D2A48712  36.858  10.567   6.755
 9323POPC   C3A48713  36.935  10.563   7.055
 9323POPC   C4A48714  36.866  10.556   7.355
 9323POPC   C1B48715  36.849  10.717   6.455
 9323POPC   C2B48716  36.849  10.760   6.755
 9323POPC   C3B48717  36.772  10.788   7.055
 9323POPC   C4B48718  36.794  10.775   7.355
 9324POPC   NC348719   6.683  36.858   5.555
 9324POPC   PO448720   6.647  36.920   5.855
 9324POPC   GL148721   6.607  36.878   6.155
 9324POPC   GL248722   6.663  36.976   6.155
 9324POPC   C1A48723   6.694  36.897   6.455
 9324POPC   D2A48724   6.611  36.932   6.755
 9324POPC   C3A48725   6.599  36.908   7.055
 9324POPC   C4A48726   6.621  36.930   7.355
 9324POPC   C1B48727   6.707  37.094   6.455
 9324POPC   C2B48728   6.765  37.146   6.755
 9324POPC   C3B48729   6.754  37.113   7.055
 9324POPC   C4B48730   6.718  37.151   7.355
 9325POPC   NC348731  12.075  19.794   5.555
 9325POPC   PO448732  12.125  19.841   5.855
 9325POPC   GL148733  12.029  19.863   6.155
 9325POPC   GL248734  12.070  19.685   6.155
 9325POPC   C1A48735  12.067  19.881   6.455
 9325POPC   D2A48736  12.054  19.787   6.755
 9325POPC   C3A48737  12.049  19.863   7.055
 9325POPC   C4A48738  12.035  19.841   7.355
 9325POPC   C1B48739  12.060  19.587   6.455
 9325POPC   C2B48740  12.080  19.602   6.755
 9325POPC   C3B48741  12.050  19.615   7.055
 9325POPC   C4B48742  12.138  19.621   7.355
 9326POPC   NC348743  26.080  36.898   5.555
 9326POPC   PO448744  26.043  36.864   5.855
 9326POPC   GL148745  26.088  36.944   6.155
 9326POPC   GL248746  26.164  36.972   6.155
 9326POPC   C1A48747  26.044  36.923   6.455
 9326POPC   D2A48748  26.065  36.917   6.755
 9326POPC   C3A48749  26.013  36.908   7.055
 9326POPC   C4A48750  26.029  36.951   7.355
 9326POPC   C1B48751  26.143  37.093   6.455
 9326POPC   C2B48752  26.167  37.054   6.755
 9326POPC   C3B48753  26.238  37.147   7.055
 9326POPC   C4B48754  26.186  37.145   7.355
 9327POPC   NC348755  15.196  15.187   5.555
 9327POPC   PO448756  15.222  15.163   5.855
 9327POPC   GL148757  15.157  15.217   6.155
 9327POPC   GL248758  15.134  15.301   6.155
 9327POPC   C1A48759  15.180  15.142   6.455
 9327POPC   D2A48760  15.155  15.158   6.755
 9327POPC   C3A48761  15.221  15.193   7.055
 9327POPC   C4A48762  15.219  15.218   7.355
 9327POPC   C1B48763  15.067  15.438   6.455
 9327POPC   C2B48764  15.048  15.373   6.755
 9327POPC   C3B48765  15.024  15.417   7.055
 9327POPC   C4B48766  15.098  15.359   7.355
 9328POPC   NC348767  36.148  32.981   5.555
 9328POPC   PO448768  36.092  33.034   5.855
 9328POPC   GL148769  36.167  33.023   6.155
 9328POPC   GL248770  36.069  32.920   6.155
 9328POPC   C1A48771  36.108  32.993   6.455
 9328POPC   D2A48772  36.176  33.000   6.755
 9328POPC   C3A48773  36.139  33.045   7.055
 9328POPC   C4A48774  36.079  32.994   7.355
 9328POPC   C1B48775  35.912  32.900   6.455
 9328POPC   C2B48776  35.966  32.859   6.755
 9328POPC   C3B48777  35.960  32.851   7.055
 9328POPC   C4B48778  35.907  32.890   7.355
 9329POPC   NC348779  24.471   5.131   5.555
 9329POPC   PO448780  24.527   5.051   5.855
 9329POPC   GL148781  24.527   5.125   6.155
 9329POPC   GL248782  24.413   5.064   6.155
 9329POPC   C1A48783  24.505   5.114   6.455
 9329POPC   D2A48784  24.509   5.066   6.755
 9329POPC   C3A48785  24.506   5.092   7.055
 9329POPC   C4A48786  24.463   5.061   7.355
 9329POPC   C1B48787  24.232   4.936   6.455
 9329POPC   C2B48788  24.257   5.000   6.755
 9329POPC   C3B48789  24.216   5.027   7.055
 9329POPC   C4B48790  24.281   5.030   7.355
 9330POPC   NC348791  40.049  29.949   5.555
 9330POPC   PO448792  39.971  29.908   5.855
 9330POPC   GL148793  40.049  29.964   6.155
 9330POPC   GL248794  40.005  30.035   6.155
 9330POPC   C1A48795  40.026  29.925   6.455
 9330POPC   D2A48796  40.050  29.873   6.755
 9330POPC   C3A48797  39.983  29.917   7.055
 9330POPC   C4A48798  40.031  29.950   7.355
 9330POPC   C1B48799  40.034  30.183   6.455
 9330POPC   C2B48800  39.979  30.127   6.755
 9330POPC   C3B48801  39.977  30.158   7.055
 9330POPC   C4B48802  40.038  30.162   7.355
 9331POPC   NC348803   1.242  25.310   5.555
 9331POPC   PO448804   1.174  25.258   5.855
 9331POPC   GL148805   1.260  25.314   6.155
 9331POPC   GL248806   1.131  25.428   6.155
 9331POPC   C1A48807   1.257  25.263   6.455
 9331POPC   D2A48808   1.236  25.308   6.755
 9331POPC   C3A48809   1.201  25.312   7.055
 9331POPC   C4A48810   1.262  25.251   7.355
 9331POPC   C1B48811   1.092  25.450   6.455
 9331POPC   C2B48812   1.082  25.515   6.755
 9331POPC   C3B48813   1.100  25.540   7.055
 9331POPC   C4B48814   1.091  25.516   7.355
 9332POPC   NC348815  43.884  15.165   5.555
 9332POPC   PO448816  43.926  15.200   5.855
 9332POPC   GL148817  43.920  15.149   6.155
 9332POPC   GL248818  43.745  15.114   6.155
 9332POPC   C1A48819  43.907  15.142   6.455
 9332POPC   D2A48820  43.893  15.169   6.755
 9332POPC   C3A48821  43.844  15.224   7.055
 9332POPC   C4A48822  43.904  15.164   7.355
 9332POPC   C1B48823  43.641  15.154   6.455
 9332POPC   C2B48824  43.619  15.083   6.755
 9332POPC   C3B48825  43.692  15.106   7.055
 9332POPC   C4B48826  43.647  15.104   7.355
 9333POPC   NC348827  38.486  40.050   5.555
 9333POPC   PO448828  38.409  39.972   5.855
 9333POPC   GL148829  38.505  40.017   6.155
 9333POPC   GL248830  38.346  39.994   6.155
 9333POPC   C1A48831  38.432  39.984   6.455
 9333POPC   D2A48832  38.438  39.979   6.755
 9333POPC   C3A48833  38.476  40.034   7.055
 9333POPC   C4A48834  38.496  40.052   7.355
 9333POPC   C1B48835  38.188  40.102   6.455
 9333POPC   C2B48836  38.220  40.104   6.755
 9333POPC   C3B48837  38.249  40.112   7.055
 9333POPC   C4B48838  38.209  40.041   7.355
 9334POPC   NC348839  39.996  17.503   5.555
 9334POPC   PO448840  40.042  17.477   5.855
 9334POPC   GL148841  40.047  17.457   6.155
 9334POPC   GL248842  40.069  17.367   6.155
 9334POPC   C1A48843  39.958  17.475   6.455
 9334POPC   D2A48844  39.965  17.520   6.755
 9334POPC   C3A48845  39.964  17.552   7.055
 9334POPC   C4A48846  40.039  17.458   7.355
 9334POPC   C1B48847  40.109  17.255   6.455
 9334POPC   C2B48848  40.177  17.300   6.755
 9334POPC   C3B48849  40.171  17.268   7.055
 9334POPC   C4B48850  40.144  17.249   7.355
 9335POPC   NC348851  24.520  29.165   5.555
 9335POPC   PO448852  24.481  29.159   5.855
 9335POPC   GL148853  24.519  29.115   6.155
 9335POPC   GL248854  24.381  29.158   6.155
 9335POPC   C1A48855  24.471  29.185   6.455
 9335POPC   D2A48856  24.447  29.143   6.755
 9335POPC   C3A48857  24.488  29.133   7.055
 9335POPC   C4A48858  24.453  29.184   7.355
 9335POPC   C1B48859  24.200  29.061   6.455
 9335POPC   C2B48860  24.237  29.087   6.755
 9335POPC   C3B48861  24.290  29.135   7.055
 9335POPC   C4B48862  24.241  29.051   7.355
 9336POPC   NC348863   8.985  27.625   5.555
 9336POPC   PO448864   8.939  27.639   5.855
 9336POPC   GL148865   8.953  27.571   6.155
 9336POPC   GL248866   9.036  27.469   6.155
 9336POPC   C1A48867   8.972  27.592   6.455
 9336POPC   D2A48868   9.018  27.557   6.755
 9336POPC   C3A48869   9.001  27.582   7.055
 9336POPC   C4A48870   8.925  27.582   7.355
 9336POPC   C1B48871   9.065  27.344   6.455
 9336POPC   C2B48872   9.124  27.428   6.755
 9336POPC   C3B48873   9.072  27.403   7.055
 9336POPC   C4B48874   9.099  27.358   7.355
 9337POPC   NC348875  40.037  35.393   5.555
 9337POPC   PO448876  39.981  35.383   5.855
 9337POPC   GL148877  39.976  35.327   6.155
 9337POPC   GL248878  39.916  35.453   6.155
 9337POPC   C1A48879  40.012  35.366   6.455
 9337POPC   D2A48880  39.959  35.332   6.755
 9337POPC   C3A48881  40.049  35.314   7.055
 9337POPC   C4A48882  39.986  35.398   7.355
 9337POPC   C1B48883  39.844  35.468   6.455
 9337POPC   C2B48884  39.817  35.518   6.755
 9337POPC   C3B48885  39.840  35.455   7.055
 9337POPC   C4B48886  39.834  35.529   7.355
 9338POPC   NC348887   8.941  15.142   5.555
 9338POPC   PO448888   8.977  15.200   5.855
 9338POPC   GL148889   9.011  15.181   6.155
 9338POPC   GL248890   9.096  15.141   6.155
 9338POPC   C1A48891   8.941  15.207   6.455
 9338POPC   D2A48892   8.929  15.168   6.755
 9338POPC   C3A48893   8.999  15.191   7.055
 9338POPC   C4A48894   8.955  15.140   7.355
 9338POPC   C1B48895   9.155  15.085   6.455
 9338POPC   C2B48896   9.184  15.012   6.755
 9338POPC   C3B48897   9.200  15.044   7.055
 9338POPC   C4B48898   9.210  15.002   7.355
 9339POPC   NC348899  13.594  21.433   5.555
 9339POPC   PO448900  13.585  21.348   5.855
 9339POPC   GL148901  13.613  21.433   6.155
 9339POPC   GL248902  13.752  21.441   6.155
 9339POPC   C1A48903  13.666  21.417   6.455
 9339POPC   D2A48904  13.664  21.426   6.755
 9339POPC   C3A48905  13.581  21.367   7.055
 9339POPC   C4A48906  13.589  21.338   7.355
 9339POPC   C1B48907  13.761  21.549   6.455
 9339POPC   C2B48908  13.822  21.559   6.755
 9339POPC   C3B48909  13.795  21.534   7.055
 9339POPC   C4B48910  13.821  21.615   7.355
 9340POPC   NC348911   7.446  26.040   5.555
 9340POPC   PO448912   7.426  26.040   5.855
 9340POPC   GL148913   7.416  26.056   6.155
 9340POPC   GL248914   7.348  25.941   6.155
 9340POPC   C1A48915   7.431  26.039   6.455
 9340POPC   D2A48916   7.467  26.006   6.755
 9340POPC   C3A48917   7.445  26.018   7.055
 9340POPC   C4A48918   7.403  26.066   7.355
 9340POPC   C1B48919   7.185  25.936   6.455
 9340POPC   C2B48920   7.250  25.892   6.755
 9340POPC   C3B48921   7.160  25.905   7.055
 9340POPC   C4B48922   7.235  25.889   7.355
 9341POPC   NC348923  33.806  37.710   5.555
 9341POPC   PO448924  33.778  37.711   5.855
 9341POPC   GL148925  33.834  37.688   6.155
 9341POPC   GL248926  33.848  37.805   6.155
 9341POPC   C1A48927  33.803  37.678   6.455
 9341POPC   D2A48928  33.846  37.715   6.755
 9341POPC   C3A48929  33.841  37.680   7.055
 9341POPC   C4A48930  33.784  37.637   7.355
 9341POPC   C1B48931  33.958  37.851   6.455
 9341POPC   C2B48932  33.914  37.853   6.755
 9341POPC   C3B48933  33.899  37.845   7.055
 9341POPC   C4B48934  33.906  37.864   7.355
 9342POPC   NC348935  26.781   1.974   5.555
 9342POPC   PO448936  26.865   1.988   5.855
 9342POPC   GL148937  26.840   1.986   6.155
 9342POPC   GL248938  26.908   2.021   6.155
 9342POPC   C1A48939  26.782   2.032   6.455
 9342POPC   D2A48940  26.824   1.943   6.755
 9342POPC   C3A48941  26.839   1.969   7.055
 9342POPC   C4A48942  26.820   2.004   7.355
 9342POPC   C1B48943  27.086   1.998   6.455
 9342POPC   C2B48944  27.091   2.013   6.755
 9342POPC   C3B48945  27.097   1.964   7.055
 9342POPC   C4B48946  27.065   2.060   7.355
 9343POPC   NC348947  21.385  12.103   5.555
 9343POPC   PO448948  21.408  12.090   5.855
 9343POPC   GL148949  21.432  12.103   6.155
 9343POPC   GL248950  21.273  12.065   6.155
 9343POPC   C1A48951  21.368  12.033   6.455
 9343POPC   D2A48952  21.427  12.099   6.755
 9343POPC   C3A48953  21.428  12.090   7.055
 9343POPC   C4A48954  21.375  12.067   7.355
 9343POPC   C1B48955  21.093  12.157   6.455
 9343POPC   C2B48956  21.131  12.134   6.755
 9343POPC   C3B48957  21.186  12.107   7.055
 9343POPC   C4B48958  21.092  12.095   7.355
 9344POPC   NC348959  12.882  14.435   5.555
 9344POPC   PO448960  12.881  14.447   5.855
 9344POPC   GL148961  12.813  14.399   6.155
 9344POPC   GL248962  12.745  14.428   6.155
 9344POPC   C1A48963  12.806  14.370   6.455
 9344POPC   D2A48964  12.883  14.398   6.755
 9344POPC   C3A48965  12.805  14.355   7.055
 9344POPC   C4A48966  12.810  14.438   7.355
 9344POPC   C1B48967  12.628  14.482   6.455
 9344POPC   C2B48968  12.613  14.431   6.755
 9344POPC   C3B48969  12.606  14.451   7.055
 9344POPC   C4B48970  12.572  14.430   7.355
 9345POPC   NC348971  40.032  43.160   5.555
 9345POPC   PO448972  40.015  43.106   5.855
 9345POPC   GL148973  40.003  43.078   6.155
 9345POPC   GL248974  40.098  43.109   6.155
 9345POPC   C1A48975  39.966  43.091   6.455
 9345POPC   D2A48976  39.989  43.149   6.755
 9345POPC   C3A48977  40.053  43.147   7.055
 9345POPC   C4A48978  39.972  43.134   7.355
 9345POPC   C1B48979  40.217  43.100   6.455
 9345POPC   C2B48980  40.289  43.069   6.755
 9345POPC   C3B48981  40.206  43.012   7.055
 9345POPC   C4B48982  40.212  43.026   7.355
 9346POPC   NC348983  36.093   0.432   5.555
 9346POPC   PO448984  36.115   0.461   5.855
 9346POPC   GL148985  36.160   0.437   6.155
 9346POPC   GL248986  36.085   0.591   6.155
 9346POPC   C1A48987  36.154   0.461   6.455
 9346POPC   D2A48988  36.164   0.425   6.755
 9346POPC   C3A48989  36.104   0.432   7.055
 9346POPC   C4A48990  36.136   0.467   7.355
 9346POPC   C1B48991  36.061   0.647   6.455
 9346POPC   C2B48992  35.999   0.637   6.755
 9346POPC   C3B48993  36.018   0.630   7.055
 9346POPC   C4B48994  36.010   0.696   7.355
 9347POPC   NC348995  19.068  13.581   5.555
 9347POPC   PO448996  19.092  13.609   5.855
 9347POPC   GL148997  19.056  13.661   6.155
 9347POPC   GL248998  19.163  13.738   6.155
 9347POPC   C1A48999  19.016  13.583   6.455
 9347POPC   D2A49000  19.038  13.652   6.755
 9347POPC   C3A49001  19.093  13.612   7.055
 9347POPC   C4A49002  19.017  13.608   7.355
 9347POPC   C1B49003  19.171  13.858   6.455
 9347POPC   C2B49004  19.203  13.790   6.755
 9347POPC   C3B49005  19.253  13.814   7.055
 9347POPC   C4B49006  19.248  13.800   7.355
 9348POPC   NC349007   5.865  13.672   5.555
 9348POPC   PO449008   5.851  13.633   5.855
 9348POPC   GL149009   5.902  13.677   6.155
 9348POPC   GL249010   5.809  13.724   6.155
 9348POPC   C1A49011   5.859  13.648   6.455
 9348POPC   D2A49012   5.820  13.606   6.755
 9348POPC   C3A49013   5.902  13.651   7.055
 9348POPC   C4A49014   5.884  13.650   7.355
 9348POPC   C1B49015   5.782  13.877   6.455
 9348POPC   C2B49016   5.758  13.878   6.755
 9348POPC   C3B49017   5.754  13.890   7.055
 9348POPC   C4B49018   5.743  13.892   7.355
 9349POPC   NC349019  25.297   5.048   5.555
 9349POPC   PO449020  25.291   5.059   5.855
 9349POPC   GL149021  25.311   5.129   6.155
 9349POPC   GL249022  25.259   5.198   6.155
 9349POPC   C1A49023  25.252   5.080   6.455
 9349POPC   D2A49024  25.285   5.089   6.755
 9349POPC   C3A49025  25.245   5.099   7.055
 9349POPC   C4A49026  25.247   5.049   7.355
 9349POPC   C1B49027  25.292   5.379   6.455
 9349POPC   C2B49028  25.315   5.354   6.755
 9349POPC   C3B49029  25.279   5.291   7.055
 9349POPC   C4B49030  25.293   5.376   7.355
 9350POPC   NC349031  33.026  12.119   5.555
 9350POPC   PO449032  33.016  12.106   5.855
 9350POPC   GL149033  33.010  12.049   6.155
 9350POPC   GL249034  32.932  12.013   6.155
 9350POPC   C1A49035  32.978  12.117   6.455
 9350POPC   D2A49036  33.042  12.094   6.755
 9350POPC   C3A49037  33.054  12.030   7.055
 9350POPC   C4A49038  33.015  12.094   7.355
 9350POPC   C1B49039  32.838  11.915   6.455
 9350POPC   C2B49040  32.871  11.871   6.755
 9350POPC   C3B49041  32.792  11.921   7.055
 9350POPC   C4B49042  32.852  11.955   7.355
 9351POPC   NC349043   5.903  38.448   5.555
 9351POPC   PO449044   5.867  38.475   5.855
 9351POPC   GL149045   5.853  38.479   6.155
 9351POPC   GL249046   5.753  38.471   6.155
 9351POPC   C1A49047   5.894  38.446   6.455
 9351POPC   D2A49048   5.865  38.433   6.755
 9351POPC   C3A49049   5.852  38.486   7.055
 9351POPC   C4A49050   5.919  38.479   7.355
 9351POPC   C1B49051   5.578  38.453   6.455
 9351POPC   C2B49052   5.644  38.474   6.755
 9351POPC   C3B49053   5.612  38.420   7.055
 9351POPC   C4B49054   5.583  38.465   7.355
 9352POPC   NC349055  15.142  19.011   5.555
 9352POPC   PO449056  15.200  19.040   5.855
 9352POPC   GL149057  15.129  19.064   6.155
 9352POPC   GL249058  15.284  18.998   6.155
 9352POPC   C1A49059  15.157  19.081   6.455
 9352POPC   D2A49060  15.160  19.102   6.755
 9352POPC   C3A49061  15.188  19.089   7.055
 9352POPC   C4A49062  15.146  19.023   7.355
 9352POPC   C1B49063  15.381  18.871   6.455
 9352POPC   C2B49064  15.395  18.840   6.755
 9352POPC   C3B49065  15.387  18.935   7.055
 9352POPC   C4B49066  15.318  18.903   7.355
 9353POPC   NC349067  18.247  33.050   5.555
 9353POPC   PO449068  18.282  32.987   5.855
 9353POPC   GL149069  18.305  33.039   6.155
 9353POPC   GL249070  18.252  32.897   6.155
 9353POPC   C1A49071  18.310  33.009   6.455
 9353POPC   D2A49072  18.239  33.065   6.755
 9353POPC   C3A49073  18.256  33.020   7.055
 9353POPC   C4A49074  18.299  33.036   7.355
 9353POPC   C1B49075  18.163  32.812   6.455
 9353POPC   C2B49076  18.177  32.796   6.755
 9353POPC   C3B49077  18.157  32.800   7.055
 9353POPC   C4B49078  18.183  32.768   7.355
 9354POPC   NC349079  41.606  10.474   5.555
 9354POPC   PO449080  41.581  10.567   5.855
 9354POPC   GL149081  41.579  10.569   6.155
 9354POPC   GL249082  41.470  10.387   6.155
 9354POPC   C1A49083  41.604  10.478   6.455
 9354POPC   D2A49084  41.578  10.494   6.755
 9354POPC   C3A49085  41.601  10.543   7.055
 9354POPC   C4A49086  41.566  10.544   7.355
 9354POPC   C1B49087  41.457  10.360   6.455
 9354POPC   C2B49088  41.389  10.368   6.755
 9354POPC   C3B49089  41.439  10.322   7.055
 9354POPC   C4B49090  41.383  10.292   7.355
 9355POPC   NC349091  31.521  43.095   5.555
 9355POPC   PO449092  31.509  43.129   5.855
 9355POPC   GL149093  31.455  43.084   6.155
 9355POPC   GL249094  31.385  43.197   6.155
 9355POPC   C1A49095  31.452  43.076   6.455
 9355POPC   D2A49096  31.471  43.125   6.755
 9355POPC   C3A49097  31.469  43.073   7.055
 9355POPC   C4A49098  31.454  43.086   7.355
 9355POPC   C1B49099  31.320  43.271   6.455
 9355POPC   C2B49100  31.319  43.245   6.755
 9355POPC   C3B49101  31.235  43.301   7.055
 9355POPC   C4B49102  31.236  43.230   7.355
 9356POPC   NC349103   3.526  29.123   5.555
 9356POPC   PO449104   3.525  29.143   5.855
 9356POPC   GL149105   3.585  29.172   6.155
 9356POPC   GL249106   3.421  29.112   6.155
 9356POPC   C1A49107   3.540  29.194   6.455
 9356POPC   D2A49108   3.553  29.126   6.755
 9356POPC   C3A49109   3.567  29.173   7.055
 9356POPC   C4A49110   3.510  29.116   7.355
 9356POPC   C1B49111   3.286  29.107   6.455
 9356POPC   C2B49112   3.341  29.080   6.755
 9356POPC   C3B49113   3.252  29.125   7.055
 9356POPC   C4B49114   3.279  29.107   7.355
 9357POPC   NC349115  25.289  37.696   5.555
 9357POPC   PO449116  25.247  37.668   5.855
 9357POPC   GL149117  25.305  37.691   6.155
 9357POPC   GL249118  25.125  37.660   6.155
 9357POPC   C1A49119  25.309  37.727   6.455
 9357POPC   D2A49120  25.271  37.638   6.755
 9357POPC   C3A49121  25.221  37.719   7.055
 9357POPC   C4A49122  25.264  37.704   7.355
 9357POPC   C1B49123  25.032  37.710   6.455
 9357POPC   C2B49124  24.984  37.732   6.755
 9357POPC   C3B49125  24.993  37.649   7.055
 9357POPC   C4B49126  25.038  37.719   7.355
 9358POPC   NC349127  28.407  24.441   5.555
 9358POPC   PO449128  28.371  24.485   5.855
 9358POPC   GL149129  28.373  24.479   6.155
 9358POPC   GL249130  28.419  24.316   6.155
 9358POPC   C1A49131  28.342  24.491   6.455
 9358POPC   D2A49132  28.396  24.522   6.755
 9358POPC   C3A49133  28.320  24.446   7.055
 9358POPC   C4A49134  28.320  24.490   7.355
 9358POPC   C1B49135  28.369  24.281   6.455
 9358POPC   C2B49136  28.346  24.245   6.755
 9358POPC   C3B49137  28.373  24.278   7.055
 9358POPC   C4B49138  28.396  24.277   7.355
 9359POPC   NC349139  26.004  26.030   5.555
 9359POPC   PO449140  26.082  26.060   5.855
 9359POPC   GL149141  26.024  26.038   6.155
 9359POPC   GL249142  26.084  26.120   6.155
 9359POPC   C1A49143  26.059  26.003   6.455
 9359POPC   D2A49144  26.008  25.993   6.755
 9359POPC   C3A49145  26.084  25.992   7.055
 9359POPC   C4A49146  26.065  26.056   7.355
 9359POPC   C1B49147  26.025  26.282   6.455
 9359POPC   C2B49148  26.046  26.304   6.755
 9359POPC   C3B49149  26.015  26.331   7.055
 9359POPC   C4B49150  26.087  26.279   7.355
 9360POPC   NC349151  27.637  22.164   5.555
 9360POPC   PO449152  27.642  22.132   5.855
 9360POPC   GL149153  27.551  22.179   6.155
 9360POPC   GL249154  27.668  22.237   6.155
 9360POPC   C1A49155  27.625  22.158   6.455
 9360POPC   D2A49156  27.580  22.207   6.755
 9360POPC   C3A49157  27.546  22.141   7.055
 9360POPC   C4A49158  27.547  22.114   7.355
 9360POPC   C1B49159  27.669  22.373   6.455
 9360POPC   C2B49160  27.734  22.360   6.755
 9360POPC   C3B49161  27.674  22.399   7.055
 9360POPC   C4B49162  27.761  22.409   7.355
 9361POPC   NC349163  32.283  40.023   5.555
 9361POPC   PO449164  32.255  40.041   5.855
 9361POPC   GL149165  32.275  39.982   6.155
 9361POPC   GL249166  32.159  40.029   6.155
 9361POPC   C1A49167  32.214  40.002   6.455
 9361POPC   D2A49168  32.263  39.989   6.755
 9361POPC   C3A49169  32.250  39.960   7.055
 9361POPC   C4A49170  32.206  40.050   7.355
 9361POPC   C1B49171  32.017  40.081   6.455
 9361POPC   C2B49172  32.002  40.138   6.755
 9361POPC   C3B49173  32.038  40.138   7.055
 9361POPC   C4B49174  32.069  40.128   7.355
 9362POPC   NC349175  36.103  21.371   5.555
 9362POPC   PO449176  36.086  21.401   5.855
 9362POPC   GL149177  36.123  21.352   6.155
 9362POPC   GL249178  36.195  21.534   6.155
 9362POPC   C1A49179  36.104  21.364   6.455
 9362POPC   D2A49180  36.128  21.356   6.755
 9362POPC   C3A49181  36.171  21.409   7.055
 9362POPC   C4A49182  36.117  21.409   7.355
 9362POPC   C1B49183  36.261  21.646   6.455
 9362POPC   C2B49184  36.218  21.642   6.755
 9362POPC   C3B49185  36.256  21.613   7.055
 9362POPC   C4B49186  36.167  21.613   7.355
 9363POPC   NC349187  18.328  13.634   5.555
 9363POPC   PO449188  18.305  13.655   5.855
 9363POPC   GL149189  18.290  13.672   6.155
 9363POPC   GL249190  18.279  13.699   6.155
 9363POPC   C1A49191  18.287  13.609   6.455
 9363POPC   D2A49192  18.256  13.584   6.755
 9363POPC   C3A49193  18.328  13.608   7.055
 9363POPC   C4A49194  18.329  13.658   7.355
 9363POPC   C1B49195  18.350  13.820   6.455
 9363POPC   C2B49196  18.345  13.906   6.755
 9363POPC   C3B49197  18.341  13.897   7.055
 9363POPC   C4B49198  18.397  13.886   7.355
 9364POPC   NC349199  15.136  13.583   5.555
 9364POPC   PO449200  15.221  13.633   5.855
 9364POPC   GL149201  15.181  13.646   6.155
 9364POPC   GL249202  15.038  13.533   6.155
 9364POPC   C1A49203  15.204  13.590   6.455
 9364POPC   D2A49204  15.200  13.594   6.755
 9364POPC   C3A49205  15.174  13.616   7.055
 9364POPC   C4A49206  15.171  13.668   7.355
 9364POPC   C1B49207  14.945  13.558   6.455
 9364POPC   C2B49208  14.913  13.511   6.755
 9364POPC   C3B49209  14.929  13.544   7.055
 9364POPC   C4B49210  14.996  13.526   7.355
 9365POPC   NC349211  14.410   9.005   5.555
 9365POPC   PO449212  14.393   9.000   5.855
 9365POPC   GL149213  14.415   9.014   6.155
 9365POPC   GL249214  14.359   9.094   6.155
 9365POPC   C1A49215  14.401   8.969   6.455
 9365POPC   D2A49216  14.372   9.002   6.755
 9365POPC   C3A49217  14.367   9.019   7.055
 9365POPC   C4A49218  14.385   8.941   7.355
 9365POPC   C1B49219  14.330   9.181   6.455
 9365POPC   C2B49220  14.379   9.264   6.755
 9365POPC   C3B49221  14.357   9.262   7.055
 9365POPC   C4B49222  14.302   9.214   7.355
 9366POPC   NC349223  18.294  10.531   5.555
 9366POPC   PO449224  18.313  10.524   5.855
 9366POPC   GL149225  18.234  10.546   6.155
 9366POPC   GL249226  18.308  10.403   6.155
 9366POPC   C1A49227  18.243  10.511   6.455
 9366POPC   D2A49228  18.331  10.558   6.755
 9366POPC   C3A49229  18.246  10.527   7.055
 9366POPC   C4A49230  18.283  10.549   7.355
 9366POPC   C1B49231  18.419  10.310   6.455
 9366POPC   C2B49232  18.461  10.263   6.755
 9366POPC   C3B49233  18.407  10.290   7.055
 9366POPC   C4B49234  18.400  10.352   7.355
 9367POPC   NC349235  22.970  44.669   5.555
 9367POPC   PO449236  22.922  44.629   5.855
 9367POPC   GL149237  22.975  44.676   6.155
 9367POPC   GL249238  22.884  44.491   6.155
 9367POPC   C1A49239  22.958  44.672   6.455
 9367POPC   D2A49240  22.890  44.640   6.755
 9367POPC   C3A49241  22.893  44.689   7.055
 9367POPC   C4A49242  22.919  44.659   7.355
 9367POPC   C1B49243  22.912  44.435   6.455
 9367POPC   C2B49244  22.972  44.386   6.755
 9367POPC   C3B49245  22.939  44.422   7.055
 9367POPC   C4B49246  22.921  44.412   7.355
 9368POPC   NC349247  28.398  43.088   5.555
 9368POPC   PO449248  28.335  43.116   5.855
 9368POPC   GL149249  28.356  43.062   6.155
 9368POPC   GL249250  28.266  43.230   6.155
 9368POPC   C1A49251  28.324  43.120   6.455
 9368POPC   D2A49252  28.401  43.154   6.755
 9368POPC   C3A49253  28.390  43.122   7.055
 9368POPC   C4A49254  28.375  43.097   7.355
 9368POPC   C1B49255  28.247  43.310   6.455
 9368POPC   C2B49256  28.287  43.330   6.755
 9368POPC   C3B49257  28.232  43.352   7.055
 9368POPC   C4B49258  28.222  43.297   7.355
 9369POPC   NC349259   6.661  19.049   5.555
 9369POPC   PO449260   6.641  19.070   5.855
 9369POPC   GL149261   6.646  19.030   6.155
 9369POPC   GL249262   6.812  19.038   6.155
 9369POPC   C1A49263   6.605  19.057   6.455
 9369POPC   D2A49264   6.628  19.020   6.755
 9369POPC   C3A49265   6.634  19.102   7.055
 9369POPC   C4A49266   6.685  19.038   7.355
 9369POPC   C1B49267   6.859  19.086   6.455
 9369POPC   C2B49268   6.853  19.114   6.755
 9369POPC   C3B49269   6.861  19.048   7.055
 9369POPC   C4B49270   6.901  19.086   7.355
 9370POPC   NC349271   0.407  24.479   5.555
 9370POPC   PO449272   0.461  24.490   5.855
 9370POPC   GL149273   0.482  24.529   6.155
 9370POPC   GL249274   0.413  24.595   6.155
 9370POPC   C1A49275   0.467  24.458   6.455
 9370POPC   D2A49276   0.486  24.442   6.755
 9370POPC   C3A49277   0.436  24.513   7.055
 9370POPC   C4A49278   0.389  24.464   7.355
 9370POPC   C1B49279   0.341  24.694   6.455
 9370POPC   C2B49280   0.343  24.751   6.755
 9370POPC   C3B49281   0.373  24.709   7.055
 9370POPC   C4B49282   0.380  24.753   7.355
 9371POPC   NC349283  33.816  27.592   5.555
 9371POPC   PO449284  33.794  27.546   5.855
 9371POPC   GL149285  33.808  27.618   6.155
 9371POPC   GL249286  33.867  27.638   6.155
 9371POPC   C1A49287  33.785  27.586   6.455
 9371POPC   D2A49288  33.751  27.606   6.755
 9371POPC   C3A49289  33.754  27.641   7.055
 9371POPC   C4A49290  33.801  27.554   7.355
 9371POPC   C1B49291  33.961  27.762   6.455
 9371POPC   C2B49292  34.018  27.779   6.755
 9371POPC   C3B49293  34.006  27.723   7.055
 9371POPC   C4B49294  33.967  27.716   7.355
 9372POPC   NC349295  38.491  34.610   5.555
 9372POPC   PO449296  38.486  34.576   5.855
 9372POPC   GL149297  38.419  34.571   6.155
 9372POPC   GL249298  38.420  34.674   6.155
 9372POPC   C1A49299  38.436  34.572   6.455
 9372POPC   D2A49300  38.437  34.590   6.755
 9372POPC   C3A49301  38.458  34.547   7.055
 9372POPC   C4A49302  38.415  34.590   7.355
 9372POPC   C1B49303  38.426  34.801   6.455
 9372POPC   C2B49304  38.416  34.834   6.755
 9372POPC   C3B49305  38.396  34.787   7.055
 9372POPC   C4B49306  38.423  34.864   7.355
 9373POPC   NC349307  22.947   8.215   5.555
 9373POPC   PO449308  22.949   8.216   5.855
 9373POPC   GL149309  22.964   8.241   6.155
 9373POPC   GL249310  22.972   8.037   6.155
 9373POPC   C1A49311  22.982   8.172   6.455
 9373POPC   D2A49312  22.981   8.216   6.755
 9373POPC   C3A49313  22.899   8.220   7.055
 9373POPC   C4A49314  22.911   8.172   7.355
 9373POPC   C1B49315  22.941   7.996   6.455
 9373POPC   C2B49316  22.960   7.939   6.755
 9373POPC   C3B49317  22.888   7.922   7.055
 9373POPC   C4B49318  22.881   7.976   7.355
 9374POPC   NC349319  22.162  43.900   5.555
 9374POPC   PO449320  22.121  43.885   5.855
 9374POPC   GL149321  22.114  43.846   6.155
 9374POPC   GL249322  22.280  43.917   6.155
 9374POPC   C1A49323  22.140  43.930   6.455
 9374POPC   D2A49324  22.135  43.856   6.755
 9374POPC   C3A49325  22.161  43.843   7.055
 9374POPC   C4A49326  22.150  43.862   7.355
 9374POPC   C1B49327  22.423  43.933   6.455
 9374POPC   C2B49328  22.439  43.938   6.755
 9374POPC   C3B49329  22.414  43.950   7.055
 9374POPC   C4B49330  22.364  43.930   7.355
 9375POPC   NC349331  30.742  36.927   5.555
 9375POPC   PO449332  30.720  36.892   5.855
 9375POPC   GL149333  30.653  36.895   6.155
 9375POPC   GL249334  30.767  36.788   6.155
 9375POPC   C1A49335  30.713  36.911   6.455
 9375POPC   D2A49336  30.688  36.862   6.755
 9375POPC   C3A49337  30.744  36.945   7.055
 9375POPC   C4A49338  30.677  36.938   7.355
 9375POPC   C1B49339  30.788  36.663   6.455
 9375POPC   C2B49340  30.754  36.658   6.755
 9375POPC   C3B49341  30.751  36.617   7.055
 9375POPC   C4B49342  30.820  36.645   7.355
 9376POPC   NC349343  40.743   8.954   5.555
 9376POPC   PO449344  40.816   8.967   5.855
 9376POPC   GL149345  40.744   8.964   6.155
 9376POPC   GL249346  40.832   8.833   6.155
 9376POPC   C1A49347  40.738   8.933   6.455
 9376POPC   D2A49348  40.780   8.930   6.755
 9376POPC   C3A49349  40.761   8.962   7.055
 9376POPC   C4A49350  40.776   9.020   7.355
 9376POPC   C1B49351  40.922   8.822   6.455
 9376POPC   C2B49352  40.980   8.763   6.755
 9376POPC   C3B49353  40.952   8.757   7.055
 9376POPC   C4B49354  40.952   8.805   7.355
 9377POPC   NC349355  10.527   1.955   5.555
 9377POPC   PO449356  10.477   2.019   5.855
 9377POPC   GL149357  10.484   1.998   6.155
 9377POPC   GL249358  10.641   1.904   6.155
 9377POPC   C1A49359  10.533   1.950   6.455
 9377POPC   D2A49360  10.569   1.977   6.755
 9377POPC   C3A49361  10.483   1.975   7.055
 9377POPC   C4A49362  10.548   1.952   7.355
 9377POPC   C1B49363  10.791   1.876   6.455
 9377POPC   C2B49364  10.756   1.879   6.755
 9377POPC   C3B49365  10.727   1.909   7.055
 9377POPC   C4B49366  10.704   1.864   7.355
 9378POPC   NC349367  26.796  41.525   5.555
 9378POPC   PO449368  26.845  41.568   5.855
 9378POPC   GL149369  26.777  41.512   6.155
 9378POPC   GL249370  26.723  41.458   6.155
 9378POPC   C1A49371  26.847  41.511   6.455
 9378POPC   D2A49372  26.832  41.534   6.755
 9378POPC   C3A49373  26.830  41.549   7.055
 9378POPC   C4A49374  26.844  41.530   7.355
 9378POPC   C1B49375  26.656  41.429   6.455
 9378POPC   C2B49376  26.583  41.354   6.755
 9378POPC   C3B49377  26.599  41.436   7.055
 9378POPC   C4B49378  26.624  41.435   7.355
 9379POPC   NC349379  21.341  43.137   5.555
 9379POPC   PO449380  21.423  43.126   5.855
 9379POPC   GL149381  21.376  43.063   6.155
 9379POPC   GL249382  21.473  43.100   6.155
 9379POPC   C1A49383  21.415  43.082   6.455
 9379POPC   D2A49384  21.396  43.116   6.755
 9379POPC   C3A49385  21.436  43.071   7.055
 9379POPC   C4A49386  21.374  43.087   7.355
 9379POPC   C1B49387  21.601  43.146   6.455
 9379POPC   C2B49388  21.641  43.135   6.755
 9379POPC   C3B49389  21.666  43.141   7.055
 9379POPC   C4B49390  21.672  43.177   7.355
 9380POPC   NC349391  13.628  14.382   5.555
 9380POPC   PO449392  13.642  14.355   5.855
 9380POPC   GL149393  13.672  14.398   6.155
 9380POPC   GL249394  13.519  14.472   6.155
 9380POPC   C1A49395  13.611  14.371   6.455
 9380POPC   D2A49396  13.667  14.371   6.755
 9380POPC   C3A49397  13.583  14.361   7.055
 9380POPC   C4A49398  13.634  14.447   7.355
 9380POPC   C1B49399  13.409  14.520   6.455
 9380POPC   C2B49400  13.427  14.428   6.755
 9380POPC   C3B49401  13.410  14.424   7.055
 9380POPC   C4B49402  13.390  14.464   7.355
 9381POPC   NC349403  40.013  26.835   5.555
 9381POPC   PO449404  39.999  26.771   5.855
 9381POPC   GL149405  40.024  26.835   6.155
 9381POPC   GL249406  39.935  26.930   6.155
 9381POPC   C1A49407  40.011  26.777   6.455
 9381POPC   D2A49408  39.996  26.789   6.755
 9381POPC   C3A49409  39.994  26.801   7.055
 9381POPC   C4A49410  40.032  26.850   7.355
 9381POPC   C1B49411  39.793  26.983   6.455
 9381POPC   C2B49412  39.777  26.953   6.755
 9381POPC   C3B49413  39.789  26.959   7.055
 9381POPC   C4B49414  39.820  26.956   7.355
 9382POPC   NC349415  12.075  31.522   5.555
 9382POPC   PO449416  12.028  31.506   5.855
 9382POPC   GL149417  12.068  31.488   6.155
 9382POPC   GL249418  12.083  31.363   6.155
 9382POPC   C1A49419  12.046  31.471   6.455
 9382POPC   D2A49420  12.065  31.444   6.755
 9382POPC   C3A49421  12.092  31.448   7.055
 9382POPC   C4A49422  12.062  31.452   7.355
 9382POPC   C1B49423  12.061  31.259   6.455
 9382POPC   C2B49424  12.080  31.184   6.755
 9382POPC   C3B49425  12.026  31.214   7.055
 9382POPC   C4B49426  11.993  31.203   7.355
 9383POPC   NC349427  42.377   3.554   5.555
 9383POPC   PO449428  42.327   3.553   5.855
 9383POPC   GL149429  42.366   3.545   6.155
 9383POPC   GL249430  42.233   3.650   6.155
 9383POPC   C1A49431  42.367   3.523   6.455
 9383POPC   D2A49432  42.309   3.532   6.755
 9383POPC   C3A49433  42.311   3.521   7.055
 9383POPC   C4A49434  42.371   3.585   7.355
 9383POPC   C1B49435  42.184   3.753   6.455
 9383POPC   C2B49436  42.222   3.739   6.755
 9383POPC   C3B49437  42.198   3.755   7.055
 9383POPC   C4B49438  42.150   3.710   7.355
 9384POPC   NC349439  40.001  21.391   5.555
 9384POPC   PO449440  40.003  21.423   5.855
 9384POPC   GL149441  40.019  21.350   6.155
 9384POPC   GL249442  40.089  21.229   6.155
 9384POPC   C1A49443  39.995  21.343   6.455
 9384POPC   D2A49444  40.052  21.427   6.755
 9384POPC   C3A49445  39.963  21.408   7.055
 9384POPC   C4A49446  40.008  21.387   7.355
 9384POPC   C1B49447  40.115  21.169   6.455
 9384POPC   C2B49448  40.108  21.106   6.755
 9384POPC   C3B49449  40.112  21.156   7.055
 9384POPC   C4B49450  40.040  21.124   7.355
 9385POPC   NC349451  44.664  33.053   5.555
 9385POPC   PO449452  44.615  33.058   5.855
 9385POPC   GL149453  44.677  33.034   6.155
 9385POPC   GL249454  44.605  32.899   6.155
 9385POPC   C1A49455  44.697  32.994   6.455
 9385POPC   D2A49456  44.701  33.055   6.755
 9385POPC   C3A49457  44.695  33.010   7.055
 9385POPC   C4A49458  44.627  33.034   7.355
 9385POPC   C1B49459  44.533  32.853   6.455
 9385POPC   C2B49460  44.520  32.880   6.755
 9385POPC   C3B49461  44.528  32.890   7.055
 9385POPC   C4B49462  44.441  32.854   7.355
 9386POPC   NC349463  24.506  11.297   5.555
 9386POPC   PO449464  24.480  11.302   5.855
 9386POPC   GL149465  24.448  11.278   6.155
 9386POPC   GL249466  24.463  11.158   6.155
 9386POPC   C1A49467  24.494  11.278   6.455
 9386POPC   D2A49468  24.499  11.294   6.755
 9386POPC   C3A49469  24.497  11.279   7.055
 9386POPC   C4A49470  24.486  11.288   7.355
 9386POPC   C1B49471  24.384  11.043   6.455
 9386POPC   C2B49472  24.396  11.112   6.755
 9386POPC   C3B49473  24.414  11.054   7.055
 9386POPC   C4B49474  24.409  11.058   7.355
 9387POPC   NC349475   1.187  41.546   5.555
 9387POPC   PO449476   1.245  41.530   5.855
 9387POPC   GL149477   1.264  41.521   6.155
 9387POPC   GL249478   1.282  41.675   6.155
 9387POPC   C1A49479   1.205  41.527   6.455
 9387POPC   D2A49480   1.173  41.583   6.755
 9387POPC   C3A49481   1.212  41.535   7.055
 9387POPC   C4A49482   1.239  41.511   7.355
 9387POPC   C1B49483   1.414  41.752   6.455
 9387POPC   C2B49484   1.410  41.778   6.755
 9387POPC   C3B49485   1.359  41.758   7.055
 9387POPC   C4B49486   1.390  41.744   7.355
 9388POPC   NC349487  29.942  38.437   5.555
 9388POPC   PO449488  29.942  38.406   5.855
 9388POPC   GL149489  29.916  38.488   6.155
 9388POPC   GL249490  29.815  38.402   6.155
 9388POPC   C1A49491  29.879  38.501   6.455
 9388POPC   D2A49492  29.886  38.416   6.755
 9388POPC   C3A49493  29.957  38.472   7.055
 9388POPC   C4A49494  29.904  38.419   7.355
 9388POPC   C1B49495  29.703  38.315   6.455
 9388POPC   C2B49496  29.714  38.272   6.755
 9388POPC   C3B49497  29.667  38.271   7.055
 9388POPC   C4B49498  29.717  38.310   7.355
 9389POPC   NC349499   7.380   9.778   5.555
 9389POPC   PO449500   7.389   9.763   5.855
 9389POPC   GL149501   7.432   9.796   6.155
 9389POPC   GL249502   7.529   9.767   6.155
 9389POPC   C1A49503   7.447   9.704   6.455
 9389POPC   D2A49504   7.433   9.698   6.755
 9389POPC   C3A49505   7.385   9.759   7.055
 9389POPC   C4A49506   7.416   9.754   7.355
 9389POPC   C1B49507   7.637   9.781   6.455
 9389POPC   C2B49508   7.665   9.781   6.755
 9389POPC   C3B49509   7.696   9.752   7.055
 9389POPC   C4B49510   7.665   9.799   7.355
 9390POPC   NC349511  25.255  35.338   5.555
 9390POPC   PO449512  25.301  35.319   5.855
 9390POPC   GL149513  25.230  35.368   6.155
 9390POPC   GL249514  25.228  35.431   6.155
 9390POPC   C1A49515  25.295  35.311   6.455
 9390POPC   D2A49516  25.251  35.367   6.755
 9390POPC   C3A49517  25.244  35.310   7.055
 9390POPC   C4A49518  25.298  35.303   7.355
 9390POPC   C1B49519  25.218  35.559   6.455
 9390POPC   C2B49520  25.193  35.599   6.755
 9390POPC   C3B49521  25.232  35.558   7.055
 9390POPC   C4B49522  25.157  35.630   7.355
 9391POPC   NC349523  29.162  43.882   5.555
 9391POPC   PO449524  29.154  43.875   5.855
 9391POPC   GL149525  29.134  43.882   6.155
 9391POPC   GL249526  29.272  43.824   6.155
 9391POPC   C1A49527  29.161  43.850   6.455
 9391POPC   D2A49528  29.153  43.910   6.755
 9391POPC   C3A49529  29.170  43.838   7.055
 9391POPC   C4A49530  29.139  43.839   7.355
 9391POPC   C1B49531  29.339  43.753   6.455
 9391POPC   C2B49532  29.335  43.812   6.755
 9391POPC   C3B49533  29.384  43.822   7.055
 9391POPC   C4B49534  29.326  43.821   7.355
 9392POPC   NC349535  26.018  18.332   5.555
 9392POPC   PO449536  26.077  18.303   5.855
 9392POPC   GL149537  26.004  18.291   6.155
 9392POPC   GL249538  26.121  18.342   6.155
 9392POPC   C1A49539  26.010  18.255   6.455
 9392POPC   D2A49540  26.073  18.319   6.755
 9392POPC   C3A49541  26.070  18.298   7.055
 9392POPC   C4A49542  26.009  18.279   7.355
 9392POPC   C1B49543  26.272  18.324   6.455
 9392POPC   C2B49544  26.257  18.295   6.755
 9392POPC   C3B49545  26.243  18.336   7.055
 9392POPC   C4B49546  26.270  18.312   7.355
 9393POPC   NC349547  10.540  20.642   5.555
 9393POPC   PO449548  10.530  20.576   5.855
 9393POPC   GL149549  10.558  20.638   6.155
 9393POPC   GL249550  10.629  20.556   6.155
 9393POPC   C1A49551  10.510  20.574   6.455
 9393POPC   D2A49552  10.526  20.591   6.755
 9393POPC   C3A49553  10.495  20.592   7.055
 9393POPC   C4A49554  10.552  20.639   7.355
 9393POPC   C1B49555  10.804  20.512   6.455
 9393POPC   C2B49556  10.757  20.513   6.755
 9393POPC   C3B49557  10.785  20.521   7.055
 9393POPC   C4B49558  10.785  20.593   7.355
 9394POPC   NC349559  33.799  43.895   5.555
 9394POPC   PO449560  33.753  43.924   5.855
 9394POPC   GL149561  33.779  43.915   6.155
 9394POPC   GL249562  33.789  43.809   6.155
 9394POPC   C1A49563  33.759  43.909   6.455
 9394POPC   D2A49564  33.829  43.857   6.755
 9394POPC   C3A49565  33.770  43.852   7.055
 9394POPC   C4A49566  33.792  43.923   7.355
 9394POPC   C1B49567  33.916  43.672   6.455
 9394POPC   C2B49568  33.856  43.624   6.755
 9394POPC   C3B49569  33.850  43.600   7.055
 9394POPC   C4B49570  33.836  43.600   7.355
 9395POPC   NC349571   7.463  27.559   5.555
 9395POPC   PO449572   7.434  27.629   5.855
 9395POPC   GL149573   7.430  27.590   6.155
 9395POPC   GL249574   7.471  27.527   6.155
 9395POPC   C1A49575   7.435  27.545   6.455
 9395POPC   D2A49576   7.461  27.606   6.755
 9395POPC   C3A49577   7.468  27.590   7.055
 9395POPC   C4A49578   7.424  27.581   7.355
 9395POPC   C1B49579   7.564  27.402   6.455
 9395POPC   C2B49580   7.557  27.437   6.755
 9395POPC   C3B49581   7.578  27.437   7.055
 9395POPC   C4B49582   7.553  27.401   7.355
 9396POPC   NC349583  10.483  33.067   5.555
 9396POPC   PO449584  10.497  32.983   5.855
 9396POPC   GL149585  10.480  33.017   6.155
 9396POPC   GL249586  10.407  33.141   6.155
 9396POPC   C1A49587  10.532  32.988   6.455
 9396POPC   D2A49588  10.570  33.003   6.755
 9396POPC   C3A49589  10.484  32.996   7.055
 9396POPC   C4A49590  10.528  32.990   7.355
 9396POPC   C1B49591  10.407  33.231   6.455
 9396POPC   C2B49592  10.339  33.199   6.755
 9396POPC   C3B49593  10.373  33.273   7.055
 9396POPC   C4B49594  10.333  33.223   7.355
 9397POPC   NC349595  14.368  10.514   5.555
 9397POPC   PO449596  14.441  10.498   5.855
 9397POPC   GL149597  14.447  10.562   6.155
 9397POPC   GL249598  14.279  10.476   6.155
 9397POPC   C1A49599  14.444  10.505   6.455
 9397POPC   D2A49600  14.431  10.533   6.755
 9397POPC   C3A49601  14.385  10.488   7.055
 9397POPC   C4A49602  14.373  10.488   7.355
 9397POPC   C1B49603  14.138  10.437   6.455
 9397POPC   C2B49604  14.212  10.379   6.755
 9397POPC   C3B49605  14.199  10.406   7.055
 9397POPC   C4B49606  14.196  10.358   7.355
 9398POPC   NC349607   0.443   1.174   5.555
 9398POPC   PO449608   0.412   1.254   5.855
 9398POPC   GL149609   0.426   1.164   6.155
 9398POPC   GL249610   0.453   1.086   6.155
 9398POPC   C1A49611   0.395   1.254   6.455
 9398POPC   D2A49612   0.465   1.208   6.755
 9398POPC   C3A49613   0.432   1.198   7.055
 9398POPC   C4A49614   0.476   1.187   7.355
 9398POPC   C1B49615   0.541   1.031   6.455
 9398POPC   C2B49616   0.514   1.023   6.755
 9398POPC   C3B49617   0.519   1.006   7.055
 9398POPC   C4B49618   0.517   0.954   7.355
 9399POPC   NC349619   8.985  33.067   5.555
 9399POPC   PO449620   8.990  33.018   5.855
 9399POPC   GL149621   8.980  33.044   6.155
 9399POPC   GL249622   9.034  32.872   6.155
 9399POPC   C1A49623   8.967  32.994   6.455
 9399POPC   D2A49624   9.011  32.997   6.755
 9399POPC   C3A49625   9.018  32.978   7.055
 9399POPC   C4A49626   9.009  33.071   7.355
 9399POPC   C1B49627   9.025  32.784   6.455
 9399POPC   C2B49628   9.032  32.773   6.755
 9399POPC   C3B49629   9.036  32.799   7.055
 9399POPC   C4B49630   9.114  32.822   7.355
 9400POPC   NC349631  22.131  27.625   5.555
 9400POPC   PO449632  22.209  27.573   5.855
 9400POPC   GL149633  22.188  27.581   6.155
 9400POPC   GL249634  22.085  27.541   6.155
 9400POPC   C1A49635  22.209  27.582   6.455
 9400POPC   D2A49636  22.176  27.553   6.755
 9400POPC   C3A49637  22.117  27.629   7.055
 9400POPC   C4A49638  22.123  27.569   7.355
 9400POPC   C1B49639  22.015  27.388   6.455
 9400POPC   C2B49640  21.962  27.363   6.755
 9400POPC   C3B49641  22.054  27.426   7.055
 9400POPC   C4B49642  22.030  27.346   7.355
 9401POPC   NC349643  17.488  40.796   5.555
 9401POPC   PO449644  17.535  40.830   5.855
 9401POPC   GL149645  17.482  40.793   6.155
 9401POPC   GL249646  17.411  40.751   6.155
 9401POPC   C1A49647  17.513  40.772   6.455
 9401POPC   D2A49648  17.469  40.797   6.755
 9401POPC   C3A49649  17.551  40.772   7.055
 9401POPC   C4A49650  17.523  40.785   7.355
 9401POPC   C1B49651  17.215  40.757   6.455
 9401POPC   C2B49652  17.223  40.793   6.755
 9401POPC   C3B49653  17.234  40.744   7.055
 9401POPC   C4B49654  17.303  40.786   7.355
 9402POPC   NC349655  19.828  39.186   5.555
 9402POPC   PO449656  19.859  39.222   5.855
 9402POPC   GL149657  19.871  39.235   6.155
 9402POPC   GL249658  19.915  39.379   6.155
 9402POPC   C1A49659  19.791  39.235   6.455
 9402POPC   D2A49660  19.816  39.187   6.755
 9402POPC   C3A49661  19.858  39.232   7.055
 9402POPC   C4A49662  19.815  39.193   7.355
 9402POPC   C1B49663  19.915  39.447   6.455
 9402POPC   C2B49664  19.981  39.474   6.755
 9402POPC   C3B49665  19.959  39.460   7.055
 9402POPC   C4B49666  19.946  39.442   7.355
 9403POPC   NC349667  18.296  17.544   5.555
 9403POPC   PO449668  18.254  17.488   5.855
 9403POPC   GL149669  18.255  17.527   6.155
 9403POPC   GL249670  18.121  17.587   6.155
 9403POPC   C1A49671  18.299  17.489   6.455
 9403POPC   D2A49672  18.250  17.489   6.755
 9403POPC   C3A49673  18.300  17.500   7.055
 9403POPC   C4A49674  18.304  17.473   7.355
 9403POPC   C1B49675  17.999  17.566   6.455
 9403POPC   C2B49676  18.024  17.550   6.755
 9403POPC   C3B49677  18.094  17.584   7.055
 9403POPC   C4B49678  18.048  17.592   7.355
 9404POPC   NC349679  25.297  14.360   5.555
 9404POPC   PO449680  25.245  14.435   5.855
 9404POPC   GL149681  25.232  14.446   6.155
 9404POPC   GL249682  25.263  14.498   6.155
 9404POPC   C1A49683  25.241  14.409   6.455
 9404POPC   D2A49684  25.276  14.430   6.755
 9404POPC   C3A49685  25.291  14.435   7.055
 9404POPC   C4A49686  25.305  14.403   7.355
 9404POPC   C1B49687  25.128  14.616   6.455
 9404POPC   C2B49688  25.151  14.672   6.755
 9404POPC   C3B49689  25.144  14.660   7.055
 9404POPC   C4B49690  25.174  14.666   7.355
 9405POPC   NC349691  38.468  44.688   5.555
 9405POPC   PO449692  38.436  44.707   5.855
 9405POPC   GL149693  38.453  44.637   6.155
 9405POPC   GL249694  38.420  44.508   6.155
 9405POPC   C1A49695  38.487  44.631   6.455
 9405POPC   D2A49696  38.479  44.644   6.755
 9405POPC   C3A49697  38.413  44.697   7.055
 9405POPC   C4A49698  38.458  44.672   7.355
 9405POPC   C1B49699  38.310  44.447   6.455
 9405POPC   C2B49700  38.333  44.414   6.755
 9405POPC   C3B49701  38.318  44.444   7.055
 9405POPC   C4B49702  38.376  44.472   7.355
 9406POPC   NC349703  31.468  23.728   5.555
 9406POPC   PO449704  31.447  23.763   5.855
 9406POPC   GL149705  31.512  23.694   6.155
 9406POPC   GL249706  31.432  23.860   6.155
 9406POPC   C1A49707  31.439  23.741   6.455
 9406POPC   D2A49708  31.423  23.721   6.755
 9406POPC   C3A49709  31.461  23.716   7.055
 9406POPC   C4A49710  31.517  23.699   7.355
 9406POPC   C1B49711  31.340  23.907   6.455
 9406POPC   C2B49712  31.399  23.937   6.755
 9406POPC   C3B49713  31.343  23.900   7.055
 9406POPC   C4B49714  31.302  23.980   7.355
 9407POPC   NC349715   8.982   6.651   5.555
 9407POPC   PO449716   8.952   6.598   5.855
 9407POPC   GL149717   8.925   6.603   6.155
 9407POPC   GL249718   8.886   6.645   6.155
 9407POPC   C1A49719   8.963   6.669   6.455
 9407POPC   D2A49720   8.972   6.673   6.755
 9407POPC   C3A49721   8.979   6.603   7.055
 9407POPC   C4A49722   9.022   6.664   7.355
 9407POPC   C1B49723   8.767   6.677   6.455
 9407POPC   C2B49724   8.678   6.683   6.755
 9407POPC   C3B49725   8.732   6.656   7.055
 9407POPC   C4B49726   8.757   6.695   7.355
 9408POPC   NC349727   5.854  30.672   5.555
 9408POPC   PO449728   5.900  30.743   5.855
 9408POPC   GL149729   5.858  30.680   6.155
 9408POPC   GL249730   5.946  30.674   6.155
 9408POPC   C1A49731   5.841  30.695   6.455
 9408POPC   D2A49732   5.899  30.713   6.755
 9408POPC   C3A49733   5.892  30.699   7.055
 9408POPC   C4A49734   5.855  30.741   7.355
 9408POPC   C1B49735   6.078  30.574   6.455
 9408POPC   C2B49736   6.138  30.577   6.755
 9408POPC   C3B49737   6.068  30.565   7.055
 9408POPC   C4B49738   6.059  30.631   7.355
 9409POPC   NC349739  22.969  19.838   5.555
 9409POPC   PO449740  22.979  19.853   5.855
 9409POPC   GL149741  22.900  19.806   6.155
 9409POPC   GL249742  22.896  19.774   6.155
 9409POPC   C1A49743  22.963  19.882   6.455
 9409POPC   D2A49744  22.909  19.841   6.755
 9409POPC   C3A49745  22.953  19.876   7.055
 9409POPC   C4A49746  22.910  19.878   7.355
 9409POPC   C1B49747  22.724  19.633   6.455
 9409POPC   C2B49748  22.756  19.641   6.755
 9409POPC   C3B49749  22.788  19.672   7.055
 9409POPC   C4B49750  22.724  19.692   7.355
 9410POPC   NC349751  19.848  40.753   5.555
 9410POPC   PO449752  19.863  40.762   5.855
 9410POPC   GL149753  19.836  40.828   6.155
 9410POPC   GL249754  19.751  40.763   6.155
 9410POPC   C1A49755  19.862  40.798   6.455
 9410POPC   D2A49756  19.872  40.777   6.755
 9410POPC   C3A49757  19.877  40.814   7.055
 9410POPC   C4A49758  19.831  40.798   7.355
 9410POPC   C1B49759  19.634  40.822   6.455
 9410POPC   C2B49760  19.625  40.825   6.755
 9410POPC   C3B49761  19.553  40.799   7.055
 9410POPC   C4B49762  19.554  40.799   7.355
 9411POPC   NC349763  37.709   9.774   5.555
 9411POPC   PO449764  37.633   9.758   5.855
 9411POPC   GL149765  37.722   9.798   6.155
 9411POPC   GL249766  37.740   9.655   6.155
 9411POPC   C1A49767  37.674   9.746   6.455
 9411POPC   D2A49768  37.650   9.775   6.755
 9411POPC   C3A49769  37.670   9.796   7.055
 9411POPC   C4A49770  37.718   9.793   7.355
 9411POPC   C1B49771  37.765   9.494   6.455
 9411POPC   C2B49772  37.801   9.527   6.755
 9411POPC   C3B49773  37.835   9.507   7.055
 9411POPC   C4B49774  37.820   9.541   7.355
 9412POPC   NC349775  19.878  25.303   5.555
 9412POPC   PO449776  19.817  25.236   5.855
 9412POPC   GL149777  19.854  25.261   6.155
 9412POPC   GL249778  19.745  25.315   6.155
 9412POPC   C1A49779  19.835  25.230   6.455
 9412POPC   D2A49780  19.827  25.229   6.755
 9412POPC   C3A49781  19.814  25.264   7.055
 9412POPC   C4A49782  19.880  25.227   7.355
 9412POPC   C1B49783  19.620  25.336   6.455
 9412POPC   C2B49784  19.607  25.318   6.755
 9412POPC   C3B49785  19.620  25.281   7.055
 9412POPC   C4B49786  19.578  25.296   7.355
 9413POPC   NC349787  43.088  43.078   5.555
 9413POPC   PO449788  43.064  43.108   5.855
 9413POPC   GL149789  43.114  43.065   6.155
 9413POPC   GL249790  43.188  43.222   6.155
 9413POPC   C1A49791  43.141  43.109   6.455
 9413POPC   D2A49792  43.118  43.108   6.755
 9413POPC   C3A49793  43.108  43.140   7.055
 9413POPC   C4A49794  43.077  43.090   7.355
 9413POPC   C1B49795  43.171  43.356   6.455
 9413POPC   C2B49796  43.151  43.396   6.755
 9413POPC   C3B49797  43.181  43.386   7.055
 9413POPC   C4B49798  43.198  43.354   7.355
 9414POPC   NC349799  25.278  19.098   5.555
 9414POPC   PO449800  25.274  19.057   5.855
 9414POPC   GL149801  25.283  19.084   6.155
 9414POPC   GL249802  25.330  18.950   6.155
 9414POPC   C1A49803  25.229  19.068   6.455
 9414POPC   D2A49804  25.249  19.018   6.755
 9414POPC   C3A49805  25.306  19.087   7.055
 9414POPC   C4A49806  25.256  19.099   7.355
 9414POPC   C1B49807  25.343  18.818   6.455
 9414POPC   C2B49808  25.372  18.865   6.755
 9414POPC   C3B49809  25.337  18.794   7.055
 9414POPC   C4B49810  25.352  18.825   7.355
 9415POPC   NC349811   8.991  36.892   5.555
 9415POPC   PO449812   8.928  36.887   5.855
 9415POPC   GL149813   8.982  36.859   6.155
 9415POPC   GL249814   9.074  36.866   6.155
 9415POPC   C1A49815   9.001  36.928   6.455
 9415POPC   D2A49816   8.935  36.941   6.755
 9415POPC   C3A49817   9.021  36.913   7.055
 9415POPC   C4A49818   8.979  36.859   7.355
 9415POPC   C1B49819   9.160  36.723   6.455
 9415POPC   C2B49820   9.178  36.728   6.755
 9415POPC   C3B49821   9.202  36.719   7.055
 9415POPC   C4B49822   9.135  36.796   7.355
 9416POPC   NC349823  28.328  36.138   5.555
 9416POPC   PO449824  28.345  36.168   5.855
 9416POPC   GL149825  28.371  36.087   6.155
 9416POPC   GL249826  28.234  36.087   6.155
 9416POPC   C1A49827  28.352  36.092   6.455
 9416POPC   D2A49828  28.355  36.114   6.755
 9416POPC   C3A49829  28.337  36.080   7.055
 9416POPC   C4A49830  28.401  36.163   7.355
 9416POPC   C1B49831  28.170  36.043   6.455
 9416POPC   C2B49832  28.171  35.975   6.755
 9416POPC   C3B49833  28.112  35.990   7.055
 9416POPC   C4B49834  28.108  36.040   7.355
 9417POPC   NC349835   8.983   1.172   5.555
 9417POPC   PO449836   8.995   1.256   5.855
 9417POPC   GL149837   8.964   1.193   6.155
 9417POPC   GL249838   8.873   1.320   6.155
 9417POPC   C1A49839   8.965   1.194   6.455
 9417POPC   D2A49840   8.970   1.177   6.755
 9417POPC   C3A49841   9.021   1.214   7.055
 9417POPC   C4A49842   8.946   1.263   7.355
 9417POPC   C1B49843   8.763   1.402   6.455
 9417POPC   C2B49844   8.772   1.370   6.755
 9417POPC   C3B49845   8.812   1.441   7.055
 9417POPC   C4B49846   8.844   1.395   7.355
 9418POPC   NC349847   5.046  25.289   5.555
 9418POPC   PO449848   5.141  25.242   5.855
 9418POPC   GL149849   5.119  25.224   6.155
 9418POPC   GL249850   5.107  25.344   6.155
 9418POPC   C1A49851   5.129  25.230   6.455
 9418POPC   D2A49852   5.118  25.226   6.755
 9418POPC   C3A49853   5.073  25.308   7.055
 9418POPC   C4A49854   5.055  25.294   7.355
 9418POPC   C1B49855   5.100  25.557   6.455
 9418POPC   C2B49856   5.072  25.507   6.755
 9418POPC   C3B49857   5.030  25.531   7.055
 9418POPC   C4B49858   5.079  25.480   7.355
 9419POPC   NC349859  26.785  43.157   5.555
 9419POPC   PO449860  26.866  43.146   5.855
 9419POPC   GL149861  26.791  43.144   6.155
 9419POPC   GL249862  26.945  43.068   6.155
 9419POPC   C1A49863  26.790  43.098   6.455
 9419POPC   D2A49864  26.791  43.131   6.755
 9419POPC   C3A49865  26.792  43.156   7.055
 9419POPC   C4A49866  26.839  43.115   7.355
 9419POPC   C1B49867  27.091  43.109   6.455
 9419POPC   C2B49868  27.030  43.050   6.755
 9419POPC   C3B49869  27.043  43.077   7.055
 9419POPC   C4B49870  27.047  43.088   7.355
 9420POPC   NC349871   8.170  40.036   5.555
 9420POPC   PO449872   8.208  40.037   5.855
 9420POPC   GL149873   8.183  39.974   6.155
 9420POPC   GL249874   8.189  39.931   6.155
 9420POPC   C1A49875   8.228  39.996   6.455
 9420POPC   D2A49876   8.159  39.985   6.755
 9420POPC   C3A49877   8.188  40.032   7.055
 9420POPC   C4A49878   8.244  40.051   7.355
 9420POPC   C1B49879   8.102  39.733   6.455
 9420POPC   C2B49880   8.107  39.800   6.755
 9420POPC   C3B49881   8.105  39.776   7.055
 9420POPC   C4B49882   8.078  39.799   7.355
 9421POPC   NC349883  41.541  13.618   5.555
 9421POPC   PO449884  41.598  13.642   5.855
 9421POPC   GL149885  41.571  13.610   6.155
 9421POPC   GL249886  41.602  13.714   6.155
 9421POPC   C1A49887  41.555  13.672   6.455
 9421POPC   D2A49888  41.512  13.578   6.755
 9421POPC   C3A49889  41.542  13.628   7.055
 9421POPC   C4A49890  41.526  13.625   7.355
 9421POPC   C1B49891  41.760  13.758   6.455
 9421POPC   C2B49892  41.683  13.764   6.755
 9421POPC   C3B49893  41.686  13.796   7.055
 9421POPC   C4B49894  41.722  13.767   7.355
 9422POPC   NC349895   9.755  10.505   5.555
 9422POPC   PO449896   9.762  10.485   5.855
 9422POPC   GL149897   9.797  10.558   6.155
 9422POPC   GL249898   9.838  10.675   6.155
 9422POPC   C1A49899   9.699  10.547   6.455
 9422POPC   D2A49900   9.719  10.538   6.755
 9422POPC   C3A49901   9.749  10.479   7.055
 9422POPC   C4A49902   9.769  10.531   7.355
 9422POPC   C1B49903   9.860  10.748   6.455
 9422POPC   C2B49904   9.846  10.766   6.755
 9422POPC   C3B49905   9.886  10.717   7.055
 9422POPC   C4B49906   9.854  10.701   7.355
 9423POPC   NC349907  29.929  15.956   5.555
 9423POPC   PO449908  29.949  15.923   5.855
 9423POPC   GL149909  29.960  15.925   6.155
 9423POPC   GL249910  29.795  16.055   6.155
 9423POPC   C1A49911  29.961  15.947   6.455
 9423POPC   D2A49912  29.877  15.976   6.755
 9423POPC   C3A49913  29.873  15.971   7.055
 9423POPC   C4A49914  29.932  15.958   7.355
 9423POPC   C1B49915  29.682  16.055   6.455
 9423POPC   C2B49916  29.663  16.028   6.755
 9423POPC   C3B49917  29.733  16.083   7.055
 9423POPC   C4B49918  29.652  16.065   7.355
 9424POPC   NC349919  35.351  33.040   5.555
 9424POPC   PO449920  35.353  33.041   5.855
 9424POPC   GL149921  35.372  33.025   6.155
 9424POPC   GL249922  35.451  33.017   6.155
 9424POPC   C1A49923  35.375  32.992   6.455
 9424POPC   D2A49924  35.378  32.991   6.755
 9424POPC   C3A49925  35.400  33.047   7.055
 9424POPC   C4A49926  35.313  33.054   7.355
 9424POPC   C1B49927  35.629  32.948   6.455
 9424POPC   C2B49928  35.625  32.926   6.755
 9424POPC   C3B49929  35.597  32.933   7.055
 9424POPC   C4B49930  35.553  32.947   7.355
 9425POPC   NC349931  10.560   5.882   5.555
 9425POPC   PO449932  10.475   5.847   5.855
 9425POPC   GL149933  10.489   5.911   6.155
 9425POPC   GL249934  10.410   5.805   6.155
 9425POPC   C1A49935  10.521   5.913   6.455
 9425POPC   D2A49936  10.527   5.916   6.755
 9425POPC   C3A49937  10.532   5.859   7.055
 9425POPC   C4A49938  10.532   5.859   7.355
 9425POPC   C1B49939  10.337   5.836   6.455
 9425POPC   C2B49940  10.336   5.788   6.755
 9425POPC   C3B49941  10.254   5.787   7.055
 9425POPC   C4B49942  10.274   5.759   7.355
 9426POPC   NC349943  22.968  27.609   5.555
 9426POPC   PO449944  22.919  27.597   5.855
 9426POPC   GL149945  22.975  27.548   6.155
 9426POPC   GL249946  23.021  27.666   6.155
 9426POPC   C1A49947  22.976  27.602   6.455
 9426POPC   D2A49948  22.918  27.575   6.755
 9426POPC   C3A49949  22.968  27.637   7.055
 9426POPC   C4A49950  22.931  27.568   7.355
 9426POPC   C1B49951  23.159  27.724   6.455
 9426POPC   C2B49952  23.170  27.759   6.755
 9426POPC   C3B49953  23.111  27.736   7.055
 9426POPC   C4B49954  23.180  27.711   7.355
 9427POPC   NC349955  43.096   2.735   5.555
 9427POPC   PO449956  43.062   2.773   5.855
 9427POPC   GL149957  43.101   2.783   6.155
 9427POPC   GL249958  43.050   2.819   6.155
 9427POPC   C1A49959  43.143   2.791   6.455
 9427POPC   D2A49960  43.152   2.725   6.755
 9427POPC   C3A49961  43.141   2.810   7.055
 9427POPC   C4A49962  43.139   2.794   7.355
 9427POPC   C1B49963  42.955   2.873   6.455
 9427POPC   C2B49964  42.929   2.934   6.755
 9427POPC   C3B49965  42.875   2.873   7.055
 9427POPC   C4B49966  42.927   2.905   7.355
 9428POPC   NC349967  29.141  19.803   5.555
 9428POPC   PO449968  29.182  19.788   5.855
 9428POPC   GL149969  29.173  19.823   6.155
 9428POPC   GL249970  29.232  19.826   6.155
 9428POPC   C1A49971  29.141  19.866   6.455
 9428POPC   D2A49972  29.183  19.802   6.755
 9428POPC   C3A49973  29.100  19.836   7.055
 9428POPC   C4A49974  29.167  19.841   7.355
 9428POPC   C1B49975  29.358  19.875   6.455
 9428POPC   C2B49976  29.364  19.815   6.755
 9428POPC   C3B49977  29.364  19.860   7.055
 9428POPC   C4B49978  29.391  19.846   7.355
 9429POPC   NC349979  21.420  43.905   5.555
 9429POPC   PO449980  21.372  43.886   5.855
 9429POPC   GL149981  21.385  43.892   6.155
 9429POPC   GL249982  21.560  43.851   6.155
 9429POPC   C1A49983  21.435  43.888   6.455
 9429POPC   D2A49984  21.374  43.869   6.755
 9429POPC   C3A49985  21.386  43.870   7.055
 9429POPC   C4A49986  21.412  43.912   7.355
 9429POPC   C1B49987  21.638  43.903   6.455
 9429POPC   C2B49988  21.609  43.815   6.755
 9429POPC   C3B49989  21.588  43.892   7.055
 9429POPC   C4B49990  21.669  43.914   7.355
 9430POPC   NC349991   6.637  12.844   5.555
 9430POPC   PO449992   6.612  12.897   5.855
 9430POPC   GL149993   6.606  12.890   6.155
 9430POPC   GL249994   6.552  12.861   6.155
 9430POPC   C1A49995   6.631  12.860   6.455
 9430POPC   D2A49996   6.596  12.871   6.755
 9430POPC   C3A49997   6.649  12.837   7.055
 9430POPC   C4A49998   6.671  12.823   7.355
 9430POPC   C1B49999   6.400  12.929   6.455
 9430POPC   C2B50000   6.435  12.977   6.755
 9430POPC   C3B50001   6.408  12.934   7.055
 9430POPC   C4B50002   6.427  12.942   7.355
 9431POPC   NC350003   9.789  21.404   5.555
 9431POPC   PO450004   9.743  21.404   5.855
 9431POPC   GL150005   9.743  21.353   6.155
 9431POPC   GL250006   9.595  21.360   6.155
 9431POPC   C1A50007   9.718  21.432   6.455
 9431POPC   D2A50008   9.716  21.371   6.755
 9431POPC   C3A50009   9.784  21.422   7.055
 9431POPC   C4A50010   9.716  21.402   7.355
 9431POPC   C1B50011   9.509  21.345   6.455
 9431POPC   C2B50012   9.494  21.359   6.755
 9431POPC   C3B50013   9.541  21.340   7.055
 9431POPC   C4B50014   9.488  21.334   7.355
 9432POPC   NC350015   7.457  34.578   5.555
 9432POPC   PO450016   7.415  34.562   5.855
 9432POPC   GL150017   7.384  34.596   6.155
 9432POPC   GL250018   7.338  34.572   6.155
 9432POPC   C1A50019   7.395  34.538   6.455
 9432POPC   D2A50020   7.445  34.607   6.755
 9432POPC   C3A50021   7.470  34.540   7.055
 9432POPC   C4A50022   7.417  34.609   7.355
 9432POPC   C1B50023   7.153  34.561   6.455
 9432POPC   C2B50024   7.182  34.554   6.755
 9432POPC   C3B50025   7.179  34.579   7.055
 9432POPC   C4B50026   7.128  34.562   7.355
 9433POPC   NC350027   9.010  40.771   5.555
 9433POPC   PO450028   8.952  40.799   5.855
 9433POPC   GL150029   8.984  40.780   6.155
 9433POPC   GL250030   9.059  40.713   6.155
 9433POPC   C1A50031   8.957  40.781   6.455
 9433POPC   D2A50032   8.981  40.743   6.755
 9433POPC   C3A50033   8.952  40.827   7.055
 9433POPC   C4A50034   9.013  40.767   7.355
 9433POPC   C1B50035   9.019  40.507   6.455
 9433POPC   C2B50036   9.024  40.548   6.755
 9433POPC   C3B50037   9.038  40.534   7.055
 9433POPC   C4B50038   9.060  40.597   7.355
 9434POPC   NC350039  15.981   8.945   5.555
 9434POPC   PO450040  15.995   9.018   5.855
 9434POPC   GL150041  15.933   9.009   6.155
 9434POPC   GL250042  16.093   8.929   6.155
 9434POPC   C1A50043  15.940   8.932   6.455
 9434POPC   D2A50044  15.968   8.978   6.755
 9434POPC   C3A50045  15.981   8.930   7.055
 9434POPC   C4A50046  15.943   9.007   7.355
 9434POPC   C1B50047  16.209   8.866   6.455
 9434POPC   C2B50048  16.222   8.916   6.755
 9434POPC   C3B50049  16.139   8.917   7.055
 9434POPC   C4B50050  16.226   8.908   7.355
 9435POPC   NC350051  25.226  17.458   5.555
 9435POPC   PO450052  25.279  17.513   5.855
 9435POPC   GL150053  25.230  17.539   6.155
 9435POPC   GL250054  25.373  17.439   6.155
 9435POPC   C1A50055  25.310  17.510   6.455
 9435POPC   D2A50056  25.219  17.524   6.755
 9435POPC   C3A50057  25.240  17.542   7.055
 9435POPC   C4A50058  25.310  17.535   7.355
 9435POPC   C1B50059  25.483  17.484   6.455
 9435POPC   C2B50060  25.464  17.434   6.755
 9435POPC   C3B50061  25.471  17.481   7.055
 9435POPC   C4B50062  25.486  17.453   7.355
 9436POPC   NC350063  11.297  39.227   5.555
 9436POPC   PO450064  11.276  39.261   5.855
 9436POPC   GL150065  11.315  39.206   6.155
 9436POPC   GL250066  11.423  39.202   6.155
 9436POPC   C1A50067  11.258  39.183   6.455
 9436POPC   D2A50068  11.331  39.241   6.755
 9436POPC   C3A50069  11.261  39.256   7.055
 9436POPC   C4A50070  11.265  39.214   7.355
 9436POPC   C1B50071  11.583  39.180   6.455
 9436POPC   C2B50072  11.527  39.165   6.755
 9436POPC   C3B50073  11.509  39.233   7.055
 9436POPC   C4B50074  11.501  39.146   7.355
 9437POPC   NC350075   8.954   2.753   5.555
 9437POPC   PO450076   8.943   2.734   5.855
 9437POPC   GL150077   8.995   2.805   6.155
 9437POPC   GL250078   9.019   2.640   6.155
 9437POPC   C1A50079   9.010   2.735   6.455
 9437POPC   D2A50080   8.958   2.795   6.755
 9437POPC   C3A50081   8.992   2.724   7.055
 9437POPC   C4A50082   8.995   2.784   7.355
 9437POPC   C1B50083   9.096   2.548   6.455
 9437POPC   C2B50084   9.162   2.561   6.755
 9437POPC   C3B50085   9.094   2.510   7.055
 9437POPC   C4B50086   9.141   2.516   7.355
 9438POPC   NC350087   3.544  22.163   5.555
 9438POPC   PO450088   3.573  22.198   5.855
 9438POPC   GL150089   3.534  22.164   6.155
 9438POPC   GL250090   3.592  22.284   6.155
 9438POPC   C1A50091   3.492  22.132   6.455
 9438POPC   D2A50092   3.575  22.128   6.755
 9438POPC   C3A50093   3.559  22.147   7.055
 9438POPC   C4A50094   3.567  22.206   7.355
 9438POPC   C1B50095   3.664  22.397   6.455
 9438POPC   C2B50096   3.659  22.337   6.755
 9438POPC   C3B50097   3.710  22.404   7.055
 9438POPC   C4B50098   3.682  22.368   7.355
 9439POPC   NC350099   2.778  15.951   5.555
 9439POPC   PO450100   2.744  15.925   5.855
 9439POPC   GL150101   2.786  15.933   6.155
 9439POPC   GL250102   2.822  16.054   6.155
 9439POPC   C1A50103   2.751  15.996   6.455
 9439POPC   D2A50104   2.770  15.936   6.755
 9439POPC   C3A50105   2.801  15.971   7.055
 9439POPC   C4A50106   2.720  15.967   7.355
 9439POPC   C1B50107   2.920  16.193   6.455
 9439POPC   C2B50108   2.908  16.157   6.755
 9439POPC   C3B50109   2.856  16.164   7.055
 9439POPC   C4B50110   2.905  16.180   7.355
 9440POPC   NC350111  34.549  34.593   5.555
 9440POPC   PO450112  34.566  34.590   5.855
 9440POPC   GL150113  34.612  34.579   6.155
 9440POPC   GL250114  34.515  34.437   6.155
 9440POPC   C1A50115  34.594  34.530   6.455
 9440POPC   D2A50116  34.531  34.558   6.755
 9440POPC   C3A50117  34.584  34.583   7.055
 9440POPC   C4A50118  34.569  34.582   7.355
 9440POPC   C1B50119  34.442  34.346   6.455
 9440POPC   C2B50120  34.389  34.418   6.755
 9440POPC   C3B50121  34.473  34.355   7.055
 9440POPC   C4B50122  34.436  34.389   7.355
 9441POPC   NC350123  22.156   9.754   5.555
 9441POPC   PO450124  22.146   9.732   5.855
 9441POPC   GL150125  22.128   9.763   6.155
 9441POPC   GL250126  22.170   9.819   6.155
 9441POPC   C1A50127  22.184   9.728   6.455
 9441POPC   D2A50128  22.181   9.716   6.755
 9441POPC   C3A50129  22.139   9.726   7.055
 9441POPC   C4A50130  22.156   9.759   7.355
 9441POPC   C1B50131  22.225  10.028   6.455
 9441POPC   C2B50132  22.234   9.984   6.755
 9441POPC   C3B50133  22.206  10.031   7.055
 9441POPC   C4B50134  22.244  10.031   7.355
 9442POPC   NC350135  19.078  21.432   5.555
 9442POPC   PO450136  19.028  21.381   5.855
 9442POPC   GL150137  19.054  21.388   6.155
 9442POPC   GL250138  19.045  21.259   6.155
 9442POPC   C1A50139  19.092  21.405   6.455
 9442POPC   D2A50140  19.063  21.410   6.755
 9442POPC   C3A50141  19.062  21.339   7.055
 9442POPC   C4A50142  19.073  21.421   7.355
 9442POPC   C1B50143  19.102  21.090   6.455
 9442POPC   C2B50144  19.103  21.122   6.755
 9442POPC   C3B50145  19.092  21.124   7.055
 9442POPC   C4B50146  19.069  21.170   7.355
 9443POPC   NC350147  42.356  12.065   5.555
 9443POPC   PO450148  42.350  12.043   5.855
 9443POPC   GL150149  42.349  12.104   6.155
 9443POPC   GL250150  42.310  12.010   6.155
 9443POPC   C1A50151  42.363  12.034   6.455
 9443POPC   D2A50152  42.339  12.053   6.755
 9443POPC   C3A50153  42.336  12.099   7.055
 9443POPC   C4A50154  42.289  12.111   7.355
 9443POPC   C1B50155  42.199  11.833   6.455
 9443POPC   C2B50156  42.209  11.883   6.755
 9443POPC   C3B50157  42.218  11.834   7.055
 9443POPC   C4B50158  42.259  11.821   7.355
 9444POPC   NC350159  33.816  39.261   5.555
 9444POPC   PO450160  33.759  39.226   5.855
 9444POPC   GL150161  33.768  39.202   6.155
 9444POPC   GL250162  33.678  39.183   6.155
 9444POPC   C1A50163  33.769  39.198   6.455
 9444POPC   D2A50164  33.751  39.247   6.755
 9444POPC   C3A50165  33.834  39.265   7.055
 9444POPC   C4A50166  33.816  39.274   7.355
 9444POPC   C1B50167  33.661  39.065   6.455
 9444POPC   C2B50168  33.678  38.995   6.755
 9444POPC   C3B50169  33.633  39.025   7.055
 9444POPC   C4B50170  33.622  39.034   7.355
 9445POPC   NC350171  34.566  41.584   5.555
 9445POPC   PO450172  34.563  41.575   5.855
 9445POPC   GL150173  34.530  41.569   6.155
 9445POPC   GL250174  34.538  41.514   6.155
 9445POPC   C1A50175  34.533  41.532   6.455
 9445POPC   D2A50176  34.565  41.595   6.755
 9445POPC   C3A50177  34.582  41.513   7.055
 9445POPC   C4A50178  34.613  41.593   7.355
 9445POPC   C1B50179  34.398  41.353   6.455
 9445POPC   C2B50180  34.448  41.406   6.755
 9445POPC   C3B50181  34.421  41.336   7.055
 9445POPC   C4B50182  34.392  41.386   7.355
 9446POPC   NC350183  14.419   9.750   5.555
 9446POPC   PO450184  14.370   9.755   5.855
 9446POPC   GL150185  14.444   9.724   6.155
 9446POPC   GL250186  14.268   9.853   6.155
 9446POPC   C1A50187  14.395   9.738   6.455
 9446POPC   D2A50188  14.355   9.751   6.755
 9446POPC   C3A50189  14.430   9.794   7.055
 9446POPC   C4A50190  14.430   9.797   7.355
 9446POPC   C1B50191  14.211   9.884   6.455
 9446POPC   C2B50192  14.173   9.886   6.755
 9446POPC   C3B50193  14.143   9.906   7.055
 9446POPC   C4B50194  14.164   9.819   7.355
 9447POPC   NC350195  29.902   8.181   5.555
 9447POPC   PO450196  29.956   8.199   5.855
 9447POPC   GL150197  29.895   8.189   6.155
 9447POPC   GL250198  29.891   8.116   6.155
 9447POPC   C1A50199  29.912   8.226   6.455
 9447POPC   D2A50200  29.967   8.190   6.755
 9447POPC   C3A50201  29.960   8.224   7.055
 9447POPC   C4A50202  29.911   8.167   7.355
 9447POPC   C1B50203  29.878   7.912   6.455
 9447POPC   C2B50204  29.880   7.939   6.755
 9447POPC   C3B50205  29.825   7.909   7.055
 9447POPC   C4B50206  29.858   7.921   7.355
 9448POPC   NC350207  15.984  15.969   5.555
 9448POPC   PO450208  15.979  15.986   5.855
 9448POPC   GL150209  15.950  15.964   6.155
 9448POPC   GL250210  15.966  15.789   6.155
 9448POPC   C1A50211  15.920  15.946   6.455
 9448POPC   D2A50212  15.957  16.000   6.755
 9448POPC   C3A50213  15.928  16.000   7.055
 9448POPC   C4A50214  15.956  15.914   7.355
 9448POPC   C1B50215  16.058  15.750   6.455
 9448POPC   C2B50216  15.972  15.688   6.755
 9448POPC   C3B50217  15.972  15.694   7.055
 9448POPC   C4B50218  16.007  15.739   7.355
 9449POPC   NC350219  39.971  27.602   5.555
 9449POPC   PO450220  40.032  27.551   5.855
 9449POPC   GL150221  40.038  27.558   6.155
 9449POPC   GL250222  40.080  27.735   6.155
 9449POPC   C1A50223  39.976  27.618   6.455
 9449POPC   D2A50224  39.967  27.620   6.755
 9449POPC   C3A50225  39.983  27.546   7.055
 9449POPC   C4A50226  40.044  27.546   7.355
 9449POPC   C1B50227  40.074  27.884   6.455
 9449POPC   C2B50228  40.038  27.793   6.755
 9449POPC   C3B50229  40.094  27.868   7.055
 9449POPC   C4B50230  40.062  27.792   7.355
 9450POPC   NC350231   6.650  33.815   5.555
 9450POPC   PO450232   6.648  33.847   5.855
 9450POPC   GL150233   6.607  33.848   6.155
 9450POPC   GL250234   6.607  33.908   6.155
 9450POPC   C1A50235   6.663  33.825   6.455
 9450POPC   D2A50236   6.654  33.786   6.755
 9450POPC   C3A50237   6.600  33.818   7.055
 9450POPC   C4A50238   6.652  33.765   7.355
 9450POPC   C1B50239   6.521  33.972   6.455
 9450POPC   C2B50240   6.516  34.018   6.755
 9450POPC   C3B50241   6.483  34.039   7.055
 9450POPC   C4B50242   6.495  34.044   7.355
 9451POPC   NC350243  16.715  36.948   5.555
 9451POPC   PO450244  16.740  36.906   5.855
 9451POPC   GL150245  16.735  36.871   6.155
 9451POPC   GL250246  16.609  36.848   6.155
 9451POPC   C1A50247  16.712  36.938   6.455
 9451POPC   D2A50248  16.698  36.925   6.755
 9451POPC   C3A50249  16.708  36.940   7.055
 9451POPC   C4A50250  16.681  36.946   7.355
 9451POPC   C1B50251  16.441  36.821   6.455
 9451POPC   C2B50252  16.477  36.876   6.755
 9451POPC   C3B50253  16.451  36.829   7.055
 9451POPC   C4B50254  16.437  36.890   7.355
 9452POPC   NC350255  20.653  13.619   5.555
 9452POPC   PO450256  20.631  13.582   5.855
 9452POPC   GL150257  20.617  13.645   6.155
 9452POPC   GL250258  20.644  13.735   6.155
 9452POPC   C1A50259  20.654  13.603   6.455
 9452POPC   D2A50260  20.621  13.646   6.755
 9452POPC   C3A50261  20.634  13.648   7.055
 9452POPC   C4A50262  20.578  13.668   7.355
 9452POPC   C1B50263  20.659  13.873   6.455
 9452POPC   C2B50264  20.583  13.908   6.755
 9452POPC   C3B50265  20.592  13.915   7.055
 9452POPC   C4B50266  20.594  13.918   7.355
 9453POPC   NC350267  35.375  30.724   5.555
 9453POPC   PO450268  35.324  30.663   5.855
 9453POPC   GL150269  35.313  30.682   6.155
 9453POPC   GL250270  35.435  30.632   6.155
 9453POPC   C1A50271  35.347  30.735   6.455
 9453POPC   D2A50272  35.304  30.722   6.755
 9453POPC   C3A50273  35.330  30.711   7.055
 9453POPC   C4A50274  35.348  30.679   7.355
 9453POPC   C1B50275  35.493  30.524   6.455
 9453POPC   C2B50276  35.436  30.430   6.755
 9453POPC   C3B50277  35.444  30.497   7.055
 9453POPC   C4B50278  35.417  30.520   7.355
 9454POPC   NC350279  42.368  32.226   5.555
 9454POPC   PO450280  42.367  32.207   5.855
 9454POPC   GL150281  42.298  32.249   6.155
 9454POPC   GL250282  42.400  32.353   6.155
 9454POPC   C1A50283  42.328  32.223   6.455
 9454POPC   D2A50284  42.303  32.213   6.755
 9454POPC   C3A50285  42.318  32.285   7.055
 9454POPC   C4A50286  42.343  32.275   7.355
 9454POPC   C1B50287  42.428  32.507   6.455
 9454POPC   C2B50288  42.384  32.527   6.755
 9454POPC   C3B50289  42.459  32.509   7.055
 9454POPC   C4B50290  42.454  32.482   7.355
 9455POPC   NC350291  27.568   0.472   5.555
 9455POPC   PO450292  27.571   0.458   5.855
 9455POPC   GL150293  27.580   0.477   6.155
 9455POPC   GL250294  27.609   0.596   6.155
 9455POPC   C1A50295  27.629   0.426   6.455
 9455POPC   D2A50296  27.544   0.486   6.755
 9455POPC   C3A50297  27.554   0.435   7.055
 9455POPC   C4A50298  27.553   0.403   7.355
 9455POPC   C1B50299  27.609   0.698   6.455
 9455POPC   C2B50300  27.613   0.657   6.755
 9455POPC   C3B50301  27.610   0.708   7.055
 9455POPC   C4B50302  27.622   0.725   7.355
 9456POPC   NC350303  37.652  34.616   5.555
 9456POPC   PO450304  37.640  34.559   5.855
 9456POPC   GL150305  37.630  34.559   6.155
 9456POPC   GL250306  37.596  34.658   6.155
 9456POPC   C1A50307  37.728  34.570   6.455
 9456POPC   D2A50308  37.683  34.609   6.755
 9456POPC   C3A50309  37.649  34.557   7.055
 9456POPC   C4A50310  37.716  34.608   7.355
 9456POPC   C1B50311  37.466  34.777   6.455
 9456POPC   C2B50312  37.539  34.782   6.755
 9456POPC   C3B50313  37.499  34.797   7.055
 9456POPC   C4B50314  37.516  34.730   7.355
 9457POPC   NC350315  19.810  12.046   5.555
 9457POPC   PO450316  19.869  12.114   5.855
 9457POPC   GL150317  19.786  12.041   6.155
 9457POPC   GL250318  19.852  11.924   6.155
 9457POPC   C1A50319  19.814  12.088   6.455
 9457POPC   D2A50320  19.789  12.099   6.755
 9457POPC   C3A50321  19.790  12.092   7.055
 9457POPC   C4A50322  19.834  12.028   7.355
 9457POPC   C1B50323  19.901  11.845   6.455
 9457POPC   C2B50324  19.917  11.789   6.755
 9457POPC   C3B50325  19.834  11.832   7.055
 9457POPC   C4B50326  19.880  11.877   7.355
 9458POPC   NC350327  36.931  41.549   5.555
 9458POPC   PO450328  36.953  41.517   5.855
 9458POPC   GL150329  36.952  41.588   6.155
 9458POPC   GL250330  36.756  41.586   6.155
 9458POPC   C1A50331  36.888  41.593   6.455
 9458POPC   D2A50332  36.915  41.536   6.755
 9458POPC   C3A50333  36.941  41.604   7.055
 9458POPC   C4A50334  36.860  41.578   7.355
 9458POPC   C1B50335  36.622  41.610   6.455
 9458POPC   C2B50336  36.655  41.581   6.755
 9458POPC   C3B50337  36.641  41.591   7.055
 9458POPC   C4B50338  36.620  41.573   7.355
 9459POPC   NC350339  26.826   1.263   5.555
 9459POPC   PO450340  26.770   1.195   5.855
 9459POPC   GL150341  26.799   1.235   6.155
 9459POPC   GL250342  26.735   1.256   6.155
 9459POPC   C1A50343  26.852   1.201   6.455
 9459POPC   D2A50344  26.852   1.245   6.755
 9459POPC   C3A50345  26.867   1.168   7.055
 9459POPC   C4A50346  26.786   1.212   7.355
 9459POPC   C1B50347  26.695   1.431   6.455
 9459POPC   C2B50348  26.639   1.427   6.755
 9459POPC   C3B50349  26.682   1.348   7.055
 9459POPC   C4B50350  26.680   1.444   7.355
 9460POPC   NC350351  41.594   9.766   5.555
 9460POPC   PO450352  41.585   9.778   5.855
 9460POPC   GL150353  41.577   9.790   6.155
 9460POPC   GL250354  41.442   9.789   6.155
 9460POPC   C1A50355  41.552   9.778   6.455
 9460POPC   D2A50356  41.583   9.712   6.755
 9460POPC   C3A50357  41.533   9.756   7.055
 9460POPC   C4A50358  41.558   9.758   7.355
 9460POPC   C1B50359  41.295   9.707   6.455
 9460POPC   C2B50360  41.273   9.730   6.755
 9460POPC   C3B50361  41.305   9.781   7.055
 9460POPC   C4B50362  41.305   9.793   7.355
 9461POPC   NC350363  37.713  32.217   5.555
 9461POPC   PO450364  37.655  32.260   5.855
 9461POPC   GL150365  37.660  32.240   6.155
 9461POPC   GL250366  37.757  32.123   6.155
 9461POPC   C1A50367  37.676  32.291   6.455
 9461POPC   D2A50368  37.686  32.205   6.755
 9461POPC   C3A50369  37.719  32.216   7.055
 9461POPC   C4A50370  37.681  32.226   7.355
 9461POPC   C1B50371  37.805  32.061   6.455
 9461POPC   C2B50372  37.848  31.991   6.755
 9461POPC   C3B50373  37.785  32.048   7.055
 9461POPC   C4B50374  37.794  32.040   7.355
 9462POPC   NC350375  38.457  24.505   5.555
 9462POPC   PO450376  38.475  24.518   5.855
 9462POPC   GL150377  38.469  24.484   6.155
 9462POPC   GL250378  38.345  24.602   6.155
 9462POPC   C1A50379  38.472  24.474   6.455
 9462POPC   D2A50380  38.492  24.489   6.755
 9462POPC   C3A50381  38.450  24.536   7.055
 9462POPC   C4A50382  38.498  24.451   7.355
 9462POPC   C1B50383  38.221  24.650   6.455
 9462POPC   C2B50384  38.300  24.680   6.755
 9462POPC   C3B50385  38.277  24.600   7.055
 9462POPC   C4B50386  38.247  24.667   7.355
 9463POPC   NC350387   2.738   2.784   5.555
 9463POPC   PO450388   2.763   2.794   5.855
 9463POPC   GL150389   2.815   2.738   6.155
 9463POPC   GL250390   2.884   2.846   6.155
 9463POPC   C1A50391   2.742   2.750   6.455
 9463POPC   D2A50392   2.757   2.757   6.755
 9463POPC   C3A50393   2.804   2.750   7.055
 9463POPC   C4A50394   2.723   2.737   7.355
 9463POPC   C1B50395   2.930   2.876   6.455
 9463POPC   C2B50396   2.982   2.913   6.755
 9463POPC   C3B50397   2.926   2.907   7.055
 9463POPC   C4B50398   2.928   2.884   7.355
 9464POPC   NC350399  28.350  15.988   5.555
 9464POPC   PO450400  28.409  15.971   5.855
 9464POPC   GL150401  28.380  15.929   6.155
 9464POPC   GL250402  28.510  16.010   6.155
 9464POPC   C1A50403  28.345  15.980   6.455
 9464POPC   D2A50404  28.405  15.999   6.755
 9464POPC   C3A50405  28.384  15.973   7.055
 9464POPC   C4A50406  28.376  15.963   7.355
 9464POPC   C1B50407  28.559  16.131   6.455
 9464POPC   C2B50408  28.548  16.091   6.755
 9464POPC   C3B50409  28.601  16.096   7.055
 9464POPC   C4B50410  28.553  16.153   7.355
 9465POPC   NC350411  42.293  20.586   5.555
 9465POPC   PO450412  42.313  20.655   5.855
 9465POPC   GL150413  42.366  20.625   6.155
 9465POPC   GL250414  42.314  20.455   6.155
 9465POPC   C1A50415  42.317  20.650   6.455
 9465POPC   D2A50416  42.338  20.563   6.755
 9465POPC   C3A50417  42.350  20.594   7.055
 9465POPC   C4A50418  42.309  20.605   7.355
 9465POPC   C1B50419  42.347  20.358   6.455
 9465POPC   C2B50420  42.370  20.347   6.755
 9465POPC   C3B50421  42.378  20.374   7.055
 9465POPC   C4B50422  42.419  20.371   7.355
 9466POPC   NC350423  15.131  16.701   5.555
 9466POPC   PO450424  15.154  16.749   5.855
 9466POPC   GL150425  15.196  16.692   6.155
 9466POPC   GL250426  15.057  16.693   6.155
 9466POPC   C1A50427  15.193  16.772   6.455
 9466POPC   D2A50428  15.166  16.744   6.755
 9466POPC   C3A50429  15.169  16.724   7.055
 9466POPC   C4A50430  15.194  16.756   7.355
 9466POPC   C1B50431  14.994  16.654   6.455
 9466POPC   C2B50432  14.917  16.648   6.755
 9466POPC   C3B50433  14.978  16.663   7.055
 9466POPC   C4B50434  14.935  16.598   7.355
 9467POPC   NC350435  38.483   1.993   5.555
 9467POPC   PO450436  38.437   2.030   5.855
 9467POPC   GL150437  38.422   2.036   6.155
 9467POPC   GL250438  38.530   2.146   6.155
 9467POPC   C1A50439  38.497   1.959   6.455
 9467POPC   D2A50440  38.427   1.960   6.755
 9467POPC   C3A50441  38.416   1.959   7.055
 9467POPC   C4A50442  38.420   2.017   7.355
 9467POPC   C1B50443  38.520   2.265   6.455
 9467POPC   C2B50444  38.582   2.272   6.755
 9467POPC   C3B50445  38.508   2.191   7.055
 9467POPC   C4B50446  38.581   2.258   7.355
 9468POPC   NC350447  12.877  26.080   5.555
 9468POPC   PO450448  12.847  26.047   5.855
 9468POPC   GL150449  12.872  26.048   6.155
 9468POPC   GL250450  12.774  26.178   6.155
 9468POPC   C1A50451  12.836  26.049   6.455
 9468POPC   D2A50452  12.891  26.066   6.755
 9468POPC   C3A50453  12.844  26.059   7.055
 9468POPC   C4A50454  12.879  26.039   7.355
 9468POPC   C1B50455  12.774  26.322   6.455
 9468POPC   C2B50456  12.769  26.240   6.755
 9468POPC   C3B50457  12.822  26.249   7.055
 9468POPC   C4B50458  12.840  26.305   7.355
 9469POPC   NC350459  15.156   9.010   5.555
 9469POPC   PO450460  15.138   8.995   5.855
 9469POPC   GL150461  15.140   8.937   6.155
 9469POPC   GL250462  15.101   8.831   6.155
 9469POPC   C1A50463  15.139   9.011   6.455
 9469POPC   D2A50464  15.226   9.001   6.755
 9469POPC   C3A50465  15.167   9.018   7.055
 9469POPC   C4A50466  15.185   8.981   7.355
 9469POPC   C1B50467  15.028   8.829   6.455
 9469POPC   C2B50468  15.035   8.748   6.755
 9469POPC   C3B50469  14.978   8.760   7.055
 9469POPC   C4B50470  14.975   8.745   7.355
 9470POPC   NC350471  28.375  39.228   5.555
 9470POPC   PO450472  28.371  39.235   5.855
 9470POPC   GL150473  28.354  39.245   6.155
 9470POPC   GL250474  28.376  39.356   6.155
 9470POPC   C1A50475  28.366  39.208   6.455
 9470POPC   D2A50476  28.333  39.248   6.755
 9470POPC   C3A50477  28.331  39.247   7.055
 9470POPC   C4A50478  28.334  39.248   7.355
 9470POPC   C1B50479  28.253  39.496   6.455
 9470POPC   C2B50480  28.319  39.430   6.755
 9470POPC   C3B50481  28.306  39.493   7.055
 9470POPC   C4B50482  28.325  39.422   7.355
 9471POPC   NC350483  27.588  29.914   5.555
 9471POPC   PO450484  27.640  29.915   5.855
 9471POPC   GL150485  27.636  29.954   6.155
 9471POPC   GL250486  27.549  30.033   6.155
 9471POPC   C1A50487  27.638  29.923   6.455
 9471POPC   D2A50488  27.561  29.917   6.755
 9471POPC   C3A50489  27.607  29.936   7.055
 9471POPC   C4A50490  27.599  29.921   7.355
 9471POPC   C1B50491  27.464  30.154   6.455
 9471POPC   C2B50492  27.426  30.109   6.755
 9471POPC   C3B50493  27.418  30.103   7.055
 9471POPC   C4B50494  27.463  30.150   7.355
 9472POPC   NC350495  35.372  36.905   5.555
 9472POPC   PO450496  35.304  36.868   5.855
 9472POPC   GL150497  35.391  36.936   6.155
 9472POPC   GL250498  35.455  36.972   6.155
 9472POPC   C1A50499  35.307  36.898   6.455
 9472POPC   D2A50500  35.345  36.864   6.755
 9472POPC   C3A50501  35.352  36.942   7.055
 9472POPC   C4A50502  35.353  36.930   7.355
 9472POPC   C1B50503  35.598  37.088   6.455
 9472POPC   C2B50504  35.587  37.069   6.755
 9472POPC   C3B50505  35.600  37.095   7.055
 9472POPC   C4B50506  35.539  37.081   7.355
 9473POPC   NC350507  29.109  40.815   5.555
 9473POPC   PO450508  29.116  40.802   5.855
 9473POPC   GL150509  29.110  40.794   6.155
 9473POPC   GL250510  29.220  40.712   6.155
 9473POPC   C1A50511  29.161  40.767   6.455
 9473POPC   D2A50512  29.109  40.814   6.755
 9473POPC   C3A50513  29.175  40.802   7.055
 9473POPC   C4A50514  29.141  40.756   7.355
 9473POPC   C1B50515  29.285  40.522   6.455
 9473POPC   C2B50516  29.254  40.558   6.755
 9473POPC   C3B50517  29.221  40.507   7.055
 9473POPC   C4B50518  29.205  40.527   7.355
 9474POPC   NC350519  15.213  40.756   5.555
 9474POPC   PO450520  15.192  40.799   5.855
 9474POPC   GL150521  15.152  40.825   6.155
 9474POPC   GL250522  15.222  40.937   6.155
 9474POPC   C1A50523  15.131  40.750   6.455
 9474POPC   D2A50524  15.198  40.820   6.755
 9474POPC   C3A50525  15.193  40.806   7.055
 9474POPC   C4A50526  15.222  40.738   7.355
 9474POPC   C1B50527  15.215  41.018   6.455
 9474POPC   C2B50528  15.225  41.006   6.755
 9474POPC   C3B50529  15.213  41.054   7.055
 9474POPC   C4B50530  15.238  41.024   7.355
 9475POPC   NC350531  19.026  11.324   5.555
 9475POPC   PO450532  19.016  11.261   5.855
 9475POPC   GL150533  19.072  11.319   6.155
 9475POPC   GL250534  19.192  11.353   6.155
 9475POPC   C1A50535  19.073  11.285   6.455
 9475POPC   D2A50536  19.033  11.317   6.755
 9475POPC   C3A50537  19.063  11.297   7.055
 9475POPC   C4A50538  19.062  11.251   7.355
 9475POPC   C1B50539  19.254  11.389   6.455
 9475POPC   C2B50540  19.237  11.398   6.755
 9475POPC   C3B50541  19.252  11.400   7.055
 9475POPC   C4B50542  19.305  11.391   7.355
 9476POPC   NC350543   6.617  16.708   5.555
 9476POPC   PO450544   6.632  16.767   5.855
 9476POPC   GL150545   6.668  16.706   6.155
 9476POPC   GL250546   6.736  16.643   6.155
 9476POPC   C1A50547   6.631  16.771   6.455
 9476POPC   D2A50548   6.694  16.729   6.755
 9476POPC   C3A50549   6.694  16.754   7.055
 9476POPC   C4A50550   6.606  16.698   7.355
 9476POPC   C1B50551   6.883  16.597   6.455
 9476POPC   C2B50552   6.841  16.637   6.755
 9476POPC   C3B50553   6.900  16.569   7.055
 9476POPC   C4B50554   6.821  16.602   7.355
 9477POPC   NC350555   1.985  43.858   5.555
 9477POPC   PO450556   1.966  43.880   5.855
 9477POPC   GL150557   2.022  43.864   6.155
 9477POPC   GL250558   2.067  43.796   6.155
 9477POPC   C1A50559   1.963  43.903   6.455
 9477POPC   D2A50560   1.984  43.921   6.755
 9477POPC   C3A50561   1.984  43.891   7.055
 9477POPC   C4A50562   1.974  43.925   7.355
 9477POPC   C1B50563   2.162  43.682   6.455
 9477POPC   C2B50564   2.144  43.644   6.755
 9477POPC   C3B50565   2.123  43.678   7.055
 9477POPC   C4B50566   2.107  43.704   7.355
 9478POPC   NC350567   1.217   4.318   5.555
 9478POPC   PO450568   1.185   4.357   5.855
 9478POPC   GL150569   1.204   4.268   6.155
 9478POPC   GL250570   1.132   4.353   6.155
 9478POPC   C1A50571   1.180   4.270   6.455
 9478POPC   D2A50572   1.199   4.277   6.755
 9478POPC   C3A50573   1.217   4.328   7.055
 9478POPC   C4A50574   1.172   4.365   7.355
 9478POPC   C1B50575   0.978   4.386   6.455
 9478POPC   C2B50576   1.012   4.475   6.755
 9478POPC   C3B50577   0.946   4.394   7.055
 9478POPC   C4B50578   0.993   4.475   7.355
 9479POPC   NC350579  32.242  36.858   5.555
 9479POPC   PO450580  32.205  36.862   5.855
 9479POPC   GL150581  32.244  36.855   6.155
 9479POPC   GL250582  32.123  36.818   6.155
 9479POPC   C1A50583  32.251  36.945   6.455
 9479POPC   D2A50584  32.294  36.947   6.755
 9479POPC   C3A50585  32.292  36.909   7.055
 9479POPC   C4A50586  32.248  36.895   7.355
 9479POPC   C1B50587  32.078  36.821   6.455
 9479POPC   C2B50588  32.065  36.748   6.755
 9479POPC   C3B50589  32.018  36.802   7.055
 9479POPC   C4B50590  32.042  36.777   7.355
 9480POPC   NC350591   2.743   6.636   5.555
 9480POPC   PO450592   2.746   6.635   5.855
 9480POPC   GL150593   2.772   6.631   6.155
 9480POPC   GL250594   2.909   6.741   6.155
 9480POPC   C1A50595   2.776   6.647   6.455
 9480POPC   D2A50596   2.763   6.631   6.755
 9480POPC   C3A50597   2.785   6.689   7.055
 9480POPC   C4A50598   2.759   6.684   7.355
 9480POPC   C1B50599   3.016   6.700   6.455
 9480POPC   C2B50600   2.985   6.772   6.755
 9480POPC   C3B50601   2.944   6.713   7.055
 9480POPC   C4B50602   3.008   6.742   7.355
 9481POPC   NC350603  18.323  18.294   5.555
 9481POPC   PO450604  18.289  18.321   5.855
 9481POPC   GL150605  18.286  18.330   6.155
 9481POPC   GL250606  18.114  18.289   6.155
 9481POPC   C1A50607  18.301  18.290   6.455
 9481POPC   D2A50608  18.315  18.300   6.755
 9481POPC   C3A50609  18.246  18.329   7.055
 9481POPC   C4A50610  18.254  18.327   7.355
 9481POPC   C1B50611  17.993  18.266   6.455
 9481POPC   C2B50612  18.058  18.312   6.755
 9481POPC   C3B50613  18.033  18.232   7.055
 9481POPC   C4B50614  18.050  18.307   7.355
 9482POPC   NC350615  32.232  34.551   5.555
 9482POPC   PO450616  32.226  34.570   5.855
 9482POPC   GL150617  32.216  34.589   6.155
 9482POPC   GL250618  32.314  34.704   6.155
 9482POPC   C1A50619  32.257  34.579   6.455
 9482POPC   D2A50620  32.268  34.588   6.755
 9482POPC   C3A50621  32.213  34.579   7.055
 9482POPC   C4A50622  32.284  34.596   7.355
 9482POPC   C1B50623  32.328  34.864   6.455
 9482POPC   C2B50624  32.338  34.794   6.755
 9482POPC   C3B50625  32.339  34.804   7.055
 9482POPC   C4B50626  32.284  34.835   7.355
 9483POPC   NC350627  26.014  23.730   5.555
 9483POPC   PO450628  26.021  23.671   5.855
 9483POPC   GL150629  26.003  23.677   6.155
 9483POPC   GL250630  26.192  23.718   6.155
 9483POPC   C1A50631  26.022  23.693   6.455
 9483POPC   D2A50632  26.023  23.687   6.755
 9483POPC   C3A50633  26.036  23.690   7.055
 9483POPC   C4A50634  26.085  23.741   7.355
 9483POPC   C1B50635  26.295  23.751   6.455
 9483POPC   C2B50636  26.326  23.700   6.755
 9483POPC   C3B50637  26.295  23.709   7.055
 9483POPC   C4B50638  26.259  23.704   7.355
 9484POPC   NC350639   5.827  33.767   5.555
 9484POPC   PO450640   5.868  33.794   5.855
 9484POPC   GL150641   5.852  33.835   6.155
 9484POPC   GL250642   6.006  33.863   6.155
 9484POPC   C1A50643   5.845  33.752   6.455
 9484POPC   D2A50644   5.908  33.849   6.755
 9484POPC   C3A50645   5.856  33.791   7.055
 9484POPC   C4A50646   5.903  33.761   7.355
 9484POPC   C1B50647   6.114  33.892   6.455
 9484POPC   C2B50648   6.117  33.895   6.755
 9484POPC   C3B50649   6.057  33.884   7.055
 9484POPC   C4B50650   6.109  33.910   7.355
 9485POPC   NC350651  15.971   8.204   5.555
 9485POPC   PO450652  15.978   8.148   5.855
 9485POPC   GL150653  15.995   8.195   6.155
 9485POPC   GL250654  15.863   8.163   6.155
 9485POPC   C1A50655  15.946   8.159   6.455
 9485POPC   D2A50656  15.992   8.160   6.755
 9485POPC   C3A50657  15.926   8.210   7.055
 9485POPC   C4A50658  15.972   8.156   7.355
 9485POPC   C1B50659  15.746   8.137   6.455
 9485POPC   C2B50660  15.766   8.158   6.755
 9485POPC   C3B50661  15.729   8.090   7.055
 9485POPC   C4B50662  15.688   8.130   7.355
 9486POPC   NC350663  17.520  12.853   5.555
 9486POPC   PO450664  17.477  12.844   5.855
 9486POPC   GL150665  17.530  12.847   6.155
 9486POPC   GL250666  17.338  12.883   6.155
 9486POPC   C1A50667  17.535  12.895   6.455
 9486POPC   D2A50668  17.528  12.892   6.755
 9486POPC   C3A50669  17.473  12.852   7.055
 9486POPC   C4A50670  17.507  12.897   7.355
 9486POPC   C1B50671  17.225  12.819   6.455
 9486POPC   C2B50672  17.267  12.846   6.755
 9486POPC   C3B50673  17.259  12.853   7.055
 9486POPC   C4B50674  17.306  12.832   7.355
 9487POPC   NC350675  12.076  13.595   5.555
 9487POPC   PO450676  12.078  13.617   5.855
 9487POPC   GL150677  12.026  13.654   6.155
 9487POPC   GL250678  12.084  13.703   6.155
 9487POPC   C1A50679  12.073  13.598   6.455
 9487POPC   D2A50680  12.092  13.676   6.755
 9487POPC   C3A50681  12.037  13.604   7.055
 9487POPC   C4A50682  12.040  13.613   7.355
 9487POPC   C1B50683  12.058  13.879   6.455
 9487POPC   C2B50684  12.069  13.862   6.755
 9487POPC   C3B50685  12.088  13.855   7.055
 9487POPC   C4B50686  12.067  13.903   7.355
 9488POPC   NC350687  24.527   9.796   5.555
 9488POPC   PO450688  24.450   9.780   5.855
 9488POPC   GL150689  24.500   9.783   6.155
 9488POPC   GL250690  24.563   9.838   6.155
 9488POPC   C1A50691  24.473   9.752   6.455
 9488POPC   D2A50692  24.526   9.770   6.755
 9488POPC   C3A50693  24.484   9.776   7.055
 9488POPC   C4A50694  24.448   9.777   7.355
 9488POPC   C1B50695  24.618   9.923   6.455
 9488POPC   C2B50696  24.659   9.918   6.755
 9488POPC   C3B50697  24.614   9.928   7.055
 9488POPC   C4B50698  24.640   9.961   7.355
 9489POPC   NC350699   9.716   3.521   5.555
 9489POPC   PO450700   9.787   3.541   5.855
 9489POPC   GL150701   9.797   3.551   6.155
 9489POPC   GL250702   9.871   3.645   6.155
 9489POPC   C1A50703   9.716   3.549   6.455
 9489POPC   D2A50704   9.706   3.537   6.755
 9489POPC   C3A50705   9.729   3.551   7.055
 9489POPC   C4A50706   9.759   3.555   7.355
 9489POPC   C1B50707   9.902   3.682   6.455
 9489POPC   C2B50708   9.951   3.714   6.755
 9489POPC   C3B50709   9.894   3.727   7.055
 9489POPC   C4B50710   9.889   3.762   7.355
 9490POPC   NC350711  27.609  16.695   5.555
 9490POPC   PO450712  27.601  16.698   5.855
 9490POPC   GL150713  27.582  16.765   6.155
 9490POPC   GL250714  27.722  16.677   6.155
 9490POPC   C1A50715  27.617  16.692   6.455
 9490POPC   D2A50716  27.557  16.736   6.755
 9490POPC   C3A50717  27.620  16.752   7.055
 9490POPC   C4A50718  27.624  16.697   7.355
 9490POPC   C1B50719  27.765  16.577   6.455
 9490POPC   C2B50720  27.846  16.635   6.755
 9490POPC   C3B50721  27.773  16.593   7.055
 9490POPC   C4B50722  27.862  16.610   7.355
 9491POPC   NC350723  32.977  29.107   5.555
 9491POPC   PO450724  33.000  29.193   5.855
 9491POPC   GL150725  33.039  29.185   6.155
 9491POPC   GL250726  33.059  28.994   6.155
 9491POPC   C1A50727  33.019  29.130   6.455
 9491POPC   D2A50728  33.054  29.152   6.755
 9491POPC   C3A50729  33.010  29.111   7.055
 9491POPC   C4A50730  32.979  29.105   7.355
 9491POPC   C1B50731  33.017  28.881   6.455
 9491POPC   C2B50732  33.009  28.868   6.755
 9491POPC   C3B50733  32.988  28.889   7.055
 9491POPC   C4B50734  33.047  28.912   7.355
 9492POPC   NC350735   8.982  28.329   5.555
 9492POPC   PO450736   8.973  28.388   5.855
 9492POPC   GL150737   9.016  28.321   6.155
 9492POPC   GL250738   9.060  28.398   6.155
 9492POPC   C1A50739   8.970  28.328   6.455
 9492POPC   D2A50740   9.017  28.407   6.755
 9492POPC   C3A50741   8.967  28.382   7.055
 9492POPC   C4A50742   8.931  28.325   7.355
 9492POPC   C1B50743   9.248  28.351   6.455
 9492POPC   C2B50744   9.203  28.299   6.755
 9492POPC   C3B50745   9.261  28.356   7.055
 9492POPC   C4B50746   9.182  28.345   7.355
 9493POPC   NC350747  26.034  42.369   5.555
 9493POPC   PO450748  26.091  42.341   5.855
 9493POPC   GL150749  26.072  42.373   6.155
 9493POPC   GL250750  26.118  42.188   6.155
 9493POPC   C1A50751  26.083  42.318   6.455
 9493POPC   D2A50752  26.068  42.329   6.755
 9493POPC   C3A50753  26.026  42.350   7.055
 9493POPC   C4A50754  26.035  42.338   7.355
 9493POPC   C1B50755  26.144  42.071   6.455
 9493POPC   C2B50756  26.189  42.164   6.755
 9493POPC   C3B50757  26.149  42.081   7.055
 9493POPC   C4B50758  26.194  42.083   7.355
 9494POPC   NC350759  15.909  28.381   5.555
 9494POPC   PO450760  15.914  28.407   5.855
 9494POPC   GL150761  16.003  28.391   6.155
 9494POPC   GL250762  16.005  28.197   6.155
 9494POPC   C1A50763  16.001  28.394   6.455
 9494POPC   D2A50764  16.001  28.332   6.755
 9494POPC   C3A50765  15.941  28.363   7.055
 9494POPC   C4A50766  15.923  28.412   7.355
 9494POPC   C1B50767  15.936  28.120   6.455
 9494POPC   C2B50768  15.938  28.076   6.755
 9494POPC   C3B50769  15.987  28.077   7.055
 9494POPC   C4B50770  15.915  28.104   7.355
 9495POPC   NC350771   6.607  17.532   5.555
 9495POPC   PO450772   6.663  17.538   5.855
 9495POPC   GL150773   6.632  17.541   6.155
 9495POPC   GL250774   6.560  17.437   6.155
 9495POPC   C1A50775   6.613  17.476   6.455
 9495POPC   D2A50776   6.655  17.534   6.755
 9495POPC   C3A50777   6.675  17.503   7.055
 9495POPC   C4A50778   6.641  17.510   7.355
 9495POPC   C1B50779   6.438  17.368   6.455
 9495POPC   C2B50780   6.450  17.393   6.755
 9495POPC   C3B50781   6.455  17.395   7.055
 9495POPC   C4B50782   6.473  17.367   7.355
 9496POPC   NC350783  15.909   5.093   5.555
 9496POPC   PO450784  16.002   5.058   5.855
 9496POPC   GL150785  15.908   5.096   6.155
 9496POPC   GL250786  15.885   5.176   6.155
 9496POPC   C1A50787  16.001   5.076   6.455
 9496POPC   D2A50788  15.961   5.120   6.755
 9496POPC   C3A50789  15.991   5.084   7.055
 9496POPC   C4A50790  15.919   5.056   7.355
 9496POPC   C1B50791  15.889   5.359   6.455
 9496POPC   C2B50792  15.827   5.309   6.755
 9496POPC   C3B50793  15.845   5.286   7.055
 9496POPC   C4B50794  15.883   5.352   7.355
 9497POPC   NC350795  25.235   0.469   5.555
 9497POPC   PO450796  25.265   0.478   5.855
 9497POPC   GL150797  25.218   0.452   6.155
 9497POPC   GL250798  25.283   0.611   6.155
 9497POPC   C1A50799  25.229   0.487   6.455
 9497POPC   D2A50800  25.282   0.441   6.755
 9497POPC   C3A50801  25.257   0.411   7.055
 9497POPC   C4A50802  25.237   0.409   7.355
 9497POPC   C1B50803  25.264   0.722   6.455
 9497POPC   C2B50804  25.203   0.722   6.755
 9497POPC   C3B50805  25.238   0.689   7.055
 9497POPC   C4B50806  25.277   0.653   7.355
 9498POPC   NC350807  37.649  41.604   5.555
 9498POPC   PO450808  37.688  41.523   5.855
 9498POPC   GL150809  37.632  41.548   6.155
 9498POPC   GL250810  37.620  41.428   6.155
 9498POPC   C1A50811  37.651  41.570   6.455
 9498POPC   D2A50812  37.715  41.545   6.755
 9498POPC   C3A50813  37.652  41.598   7.055
 9498POPC   C4A50814  37.686  41.535   7.355
 9498POPC   C1B50815  37.547  41.300   6.455
 9498POPC   C2B50816  37.569  41.371   6.755
 9498POPC   C3B50817  37.604  41.336   7.055
 9498POPC   C4B50818  37.576  41.360   7.355
 9499POPC   NC350819   5.884   8.929   5.555
 9499POPC   PO450820   5.873   8.952   5.855
 9499POPC   GL150821   5.889   8.947   6.155
 9499POPC   GL250822   5.738   8.906   6.155
 9499POPC   C1A50823   5.834   9.021   6.455
 9499POPC   D2A50824   5.832   8.928   6.755
 9499POPC   C3A50825   5.853   8.984   7.055
 9499POPC   C4A50826   5.918   8.953   7.355
 9499POPC   C1B50827   5.655   8.884   6.455
 9499POPC   C2B50828   5.668   8.864   6.755
 9499POPC   C3B50829   5.629   8.884   7.055
 9499POPC   C4B50830   5.690   8.847   7.355
 9500POPC   NC350831  29.959  22.931   5.555
 9500POPC   PO450832  29.874  22.943   5.855
 9500POPC   GL150833  29.939  22.966   6.155
 9500POPC   GL250834  30.069  23.003   6.155
 9500POPC   C1A50835  29.891  22.889   6.455
 9500POPC   D2A50836  29.917  22.970   6.755
 9500POPC   C3A50837  29.880  22.984   7.055
 9500POPC   C4A50838  29.890  22.978   7.355
 9500POPC   C1B50839  30.152  23.058   6.455
 9500POPC   C2B50840  30.171  23.062   6.755
 9500POPC   C3B50841  30.145  23.017   7.055
 9500POPC   C4B50842  30.141  23.025   7.355
 9501POPC   NC350843   6.603  10.517   5.555
 9501POPC   PO450844   6.687  10.543   5.855
 9501POPC   GL150845   6.667  10.482   6.155
 9501POPC   GL250846   6.550  10.461   6.155
 9501POPC   C1A50847   6.692  10.491   6.455
 9501POPC   D2A50848   6.643  10.515   6.755
 9501POPC   C3A50849   6.661  10.492   7.055
 9501POPC   C4A50850   6.693  10.562   7.355
 9501POPC   C1B50851   6.440  10.312   6.455
 9501POPC   C2B50852   6.497  10.311   6.755
 9501POPC   C3B50853   6.510  10.294   7.055
 9501POPC   C4B50854   6.491  10.341   7.355
 9502POPC   NC350855   2.022  34.551   5.555
 9502POPC   PO450856   2.028  34.533   5.855
 9502POPC   GL150857   1.946  34.531   6.155
 9502POPC   GL250858   1.922  34.649   6.155
 9502POPC   C1A50859   1.962  34.603   6.455
 9502POPC   D2A50860   2.037  34.541   6.755
 9502POPC   C3A50861   1.985  34.534   7.055
 9502POPC   C4A50862   1.951  34.543   7.355
 9502POPC   C1B50863   1.814  34.780   6.455
 9502POPC   C2B50864   1.837  34.764   6.755
 9502POPC   C3B50865   1.802  34.795   7.055
 9502POPC   C4B50866   1.882  34.809   7.355
 9503POPC   NC350867  42.380  26.801   5.555
 9503POPC   PO450868  42.307  26.824   5.855
 9503POPC   GL150869  42.309  26.809   6.155
 9503POPC   GL250870  42.420  26.748   6.155
 9503POPC   C1A50871  42.328  26.787   6.455
 9503POPC   D2A50872  42.309  26.827   6.755
 9503POPC   C3A50873  42.380  26.848   7.055
 9503POPC   C4A50874  42.357  26.813   7.355
 9503POPC   C1B50875  42.407  26.591   6.455
 9503POPC   C2B50876  42.433  26.616   6.755
 9503POPC   C3B50877  42.439  26.632   7.055
 9503POPC   C4B50878  42.453  26.566   7.355
 9504POPC   NC350879  14.366  18.262   5.555
 9504POPC   PO450880  14.406  18.322   5.855
 9504POPC   GL150881  14.391  18.315   6.155
 9504POPC   GL250882  14.391  18.400   6.155
 9504POPC   C1A50883  14.388  18.253   6.455
 9504POPC   D2A50884  14.442  18.277   6.755
 9504POPC   C3A50885  14.406  18.236   7.055
 9504POPC   C4A50886  14.380  18.264   7.355
 9504POPC   C1B50887  14.448  18.554   6.455
 9504POPC   C2B50888  14.483  18.489   6.755
 9504POPC   C3B50889  14.467  18.563   7.055
 9504POPC   C4B50890  14.396  18.534   7.355
 9505POPC   NC350891  44.629  26.075   5.555
 9505POPC   PO450892  44.673  26.071   5.855
 9505POPC   GL150893  44.640  25.995   6.155
 9505POPC   GL250894  44.801  26.072   6.155
 9505POPC   C1A50895  44.620  26.088   6.455
 9505POPC   D2A50896  44.628  26.079   6.755
 9505POPC   C3A50897  44.683  26.025   7.055
 9505POPC   C4A50898  44.684  26.002   7.355
 9505POPC   C1B50899  44.834  26.151   6.455
 9505POPC   C2B50900  44.844  26.128   6.755
 9505POPC   C3B50901  44.878  26.198   7.055
 9505POPC   C4B50902  44.921  26.181   7.355
 9506POPC   NC350903   7.426  33.811   5.555
 9506POPC   PO450904   7.459  33.848   5.855
 9506POPC   GL150905   7.415  33.813   6.155
 9506POPC   GL250906   7.347  33.947   6.155
 9506POPC   C1A50907   7.403  33.777   6.455
 9506POPC   D2A50908   7.459  33.769   6.755
 9506POPC   C3A50909   7.373  33.797   7.055
 9506POPC   C4A50910   7.394  33.802   7.355
 9506POPC   C1B50911   7.353  34.026   6.455
 9506POPC   C2B50912   7.343  34.053   6.755
 9506POPC   C3B50913   7.306  34.072   7.055
 9506POPC   C4B50914   7.381  34.007   7.355
 9507POPC   NC350915   4.337  40.742   5.555
 9507POPC   PO450916   4.322  40.831   5.855
 9507POPC   GL150917   4.347  40.794   6.155
 9507POPC   GL250918   4.381  40.687   6.155
 9507POPC   C1A50919   4.348  40.814   6.455
 9507POPC   D2A50920   4.325  40.750   6.755
 9507POPC   C3A50921   4.364  40.799   7.055
 9507POPC   C4A50922   4.332  40.760   7.355
 9507POPC   C1B50923   4.530  40.652   6.455
 9507POPC   C2B50924   4.522  40.652   6.755
 9507POPC   C3B50925   4.583  40.707   7.055
 9507POPC   C4B50926   4.586  40.680   7.355
 9508POPC   NC350927  42.346  33.818   5.555
 9508POPC   PO450928  42.302  33.835   5.855
 9508POPC   GL150929  42.348  33.838   6.155
 9508POPC   GL250930  42.376  33.660   6.155
 9508POPC   C1A50931  42.342  33.761   6.455
 9508POPC   D2A50932  42.309  33.802   6.755
 9508POPC   C3A50933  42.297  33.845   7.055
 9508POPC   C4A50934  42.374  33.847   7.355
 9508POPC   C1B50935  42.436  33.624   6.455
 9508POPC   C2B50936  42.493  33.617   6.755
 9508POPC   C3B50937  42.469  33.625   7.055
 9508POPC   C4B50938  42.518  33.612   7.355
 9509POPC   NC350939   8.936  12.122   5.555
 9509POPC   PO450940   8.995  12.124   5.855
 9509POPC   GL150941   8.929  12.060   6.155
 9509POPC   GL250942   8.900  11.978   6.155
 9509POPC   C1A50943   8.969  12.085   6.455
 9509POPC   D2A50944   8.956  12.063   6.755
 9509POPC   C3A50945   8.972  12.115   7.055
 9509POPC   C4A50946   8.993  12.071   7.355
 9509POPC   C1B50947   8.801  11.969   6.455
 9509POPC   C2B50948   8.745  11.924   6.755
 9509POPC   C3B50949   8.736  12.001   7.055
 9509POPC   C4B50950   8.803  11.964   7.355
 9510POPC   NC350951  43.116  22.893   5.555
 9510POPC   PO450952  43.077  22.929   5.855
 9510POPC   GL150953  43.063  22.981   6.155
 9510POPC   GL250954  43.215  22.941   6.155
 9510POPC   C1A50955  43.140  22.916   6.455
 9510POPC   D2A50956  43.085  22.978   6.755
 9510POPC   C3A50957  43.105  22.917   7.055
 9510POPC   C4A50958  43.062  22.899   7.355
 9510POPC   C1B50959  43.315  22.857   6.455
 9510POPC   C2B50960  43.353  22.887   6.755
 9510POPC   C3B50961  43.333  22.836   7.055
 9510POPC   C4B50962  43.356  22.896   7.355
 9511POPC   NC350963  12.029  22.937   5.555
 9511POPC   PO450964  12.068  22.923   5.855
 9511POPC   GL150965  12.102  22.935   6.155
 9511POPC   GL250966  12.177  23.014   6.155
 9511POPC   C1A50967  12.119  22.977   6.455
 9511POPC   D2A50968  12.101  22.900   6.755
 9511POPC   C3A50969  12.105  22.982   7.055
 9511POPC   C4A50970  12.095  22.929   7.355
 9511POPC   C1B50971  12.262  23.170   6.455
 9511POPC   C2B50972  12.196  23.120   6.755
 9511POPC   C3B50973  12.239  23.156   7.055
 9511POPC   C4B50974  12.195  23.136   7.355
 9512POPC   NC350975  43.092  12.806   5.555
 9512POPC   PO450976  43.097  12.837   5.855
 9512POPC   GL150977  43.103  12.852   6.155
 9512POPC   GL250978  43.147  12.903   6.155
 9512POPC   C1A50979  43.075  12.852   6.455
 9512POPC   D2A50980  43.084  12.890   6.755
 9512POPC   C3A50981  43.155  12.835   7.055
 9512POPC   C4A50982  43.114  12.886   7.355
 9512POPC   C1B50983  43.301  13.084   6.455
 9512POPC   C2B50984  43.316  13.054   6.755
 9512POPC   C3B50985  43.269  13.031   7.055
 9512POPC   C4B50986  43.257  13.051   7.355
 9513POPC   NC350987  19.049  44.660   5.555
 9513POPC   PO450988  19.045  44.619   5.855
 9513POPC   GL150989  19.065  44.685   6.155
 9513POPC   GL250990  19.024  44.777   6.155
 9513POPC   C1A50991  19.053  44.634   6.455
 9513POPC   D2A50992  19.041  44.686   6.755
 9513POPC   C3A50993  19.057  44.612   7.055
 9513POPC   C4A50994  19.013  44.675   7.355
 9513POPC   C1B50995  18.909  44.816   6.455
 9513POPC   C2B50996  18.856  44.840   6.755
 9513POPC   C3B50997  18.914  44.822   7.055
 9513POPC   C4B50998  18.913  44.889   7.355
 9514POPC   NC350999  13.595  27.580   5.555
 9514POPC   PO451000  13.663  27.565   5.855
 9514POPC   GL151001  13.648  27.605   6.155
 9514POPC   GL251002  13.702  27.714   6.155
 9514POPC   C1A51003  13.655  27.550   6.455
 9514POPC   D2A51004  13.649  27.559   6.755
 9514POPC   C3A51005  13.671  27.628   7.055
 9514POPC   C4A51006  13.604  27.617   7.355
 9514POPC   C1B51007  13.788  27.763   6.455
 9514POPC   C2B51008  13.799  27.763   6.755
 9514POPC   C3B51009  13.784  27.761   7.055
 9514POPC   C4B51010  13.773  27.814   7.355
 9515POPC   NC351011  36.866  22.975   5.555
 9515POPC   PO451012  36.933  22.902   5.855
 9515POPC   GL151013  36.862  22.916   6.155
 9515POPC   GL251014  36.747  22.885   6.155
 9515POPC   C1A51015  36.858  22.914   6.455
 9515POPC   D2A51016  36.919  22.892   6.755
 9515POPC   C3A51017  36.910  22.927   7.055
 9515POPC   C4A51018  36.917  22.972   7.355
 9515POPC   C1B51019  36.692  22.850   6.455
 9515POPC   C2B51020  36.685  22.820   6.755
 9515POPC   C3B51021  36.704  22.837   7.055
 9515POPC   C4B51022  36.664  22.837   7.355
 9516POPC   NC351023  12.884   8.953   5.555
 9516POPC   PO451024  12.861   8.969   5.855
 9516POPC   GL151025  12.830   8.946   6.155
 9516POPC   GL251026  12.976   8.899   6.155
 9516POPC   C1A51027  12.827   9.002   6.455
 9516POPC   D2A51028  12.901   9.008   6.755
 9516POPC   C3A51029  12.892   8.946   7.055
 9516POPC   C4A51030  12.814   8.994   7.355
 9516POPC   C1B51031  13.118   8.857   6.455
 9516POPC   C2B51032  13.104   8.901   6.755
 9516POPC   C3B51033  13.077   8.819   7.055
 9516POPC   C4B51034  13.094   8.887   7.355
 9517POPC   NC351035  32.211  26.011   5.555
 9517POPC   PO451036  32.296  26.073   5.855
 9517POPC   GL151037  32.290  26.085   6.155
 9517POPC   GL251038  32.366  26.055   6.155
 9517POPC   C1A51039  32.206  26.050   6.455
 9517POPC   D2A51040  32.228  26.007   6.755
 9517POPC   C3A51041  32.220  26.003   7.055
 9517POPC   C4A51042  32.245  26.053   7.355
 9517POPC   C1B51043  32.462  26.097   6.455
 9517POPC   C2B51044  32.537  26.096   6.755
 9517POPC   C3B51045  32.450  26.104   7.055
 9517POPC   C4B51046  32.542  26.053   7.355
 9518POPC   NC351047  42.290  10.564   5.555
 9518POPC   PO451048  42.338  10.514   5.855
 9518POPC   GL151049  42.292  10.491   6.155
 9518POPC   GL251050  42.467  10.530   6.155
 9518POPC   C1A51051  42.295  10.506   6.455
 9518POPC   D2A51052  42.354  10.517   6.755
 9518POPC   C3A51053  42.312  10.488   7.055
 9518POPC   C4A51054  42.308  10.546   7.355
 9518POPC   C1B51055  42.615  10.547   6.455
 9518POPC   C2B51056  42.537  10.628   6.755
 9518POPC   C3B51057  42.621  10.542   7.055
 9518POPC   C4B51058  42.588  10.568   7.355
 9519POPC   NC351059   4.327  10.508   5.555
 9519POPC   PO451060   4.314  10.511   5.855
 9519POPC   GL151061   4.347  10.483   6.155
 9519POPC   GL251062   4.377  10.426   6.155
 9519POPC   C1A51063   4.356  10.514   6.455
 9519POPC   D2A51064   4.312  10.548   6.755
 9519POPC   C3A51065   4.361  10.541   7.055
 9519POPC   C4A51066   4.282  10.558   7.355
 9519POPC   C1B51067   4.549  10.388   6.455
 9519POPC   C2B51068   4.488  10.412   6.755
 9519POPC   C3B51069   4.567  10.355   7.055
 9519POPC   C4B51070   4.578  10.443   7.355
 9520POPC   NC351071  36.139   9.760   5.555
 9520POPC   PO451072  36.167   9.734   5.855
 9520POPC   GL151073  36.137   9.741   6.155
 9520POPC   GL251074  35.986   9.820   6.155
 9520POPC   C1A51075  36.177   9.757   6.455
 9520POPC   D2A51076  36.096   9.757   6.755
 9520POPC   C3A51077  36.162   9.776   7.055
 9520POPC   C4A51078  36.145   9.764   7.355
 9520POPC   C1B51079  35.930   9.884   6.455
 9520POPC   C2B51080  35.900   9.918   6.755
 9520POPC   C3B51081  35.911   9.869   7.055
 9520POPC   C4B51082  35.973   9.919   7.355
 9521POPC   NC351083   7.383  42.347   5.555
 9521POPC   PO451084   7.373  42.349   5.855
 9521POPC   GL151085   7.386  42.307   6.155
 9521POPC   GL251086   7.326  42.420   6.155
 9521POPC   C1A51087   7.382  42.325   6.455
 9521POPC   D2A51088   7.439  42.311   6.755
 9521POPC   C3A51089   7.420  42.309   7.055
 9521POPC   C4A51090   7.421  42.380   7.355
 9521POPC   C1B51091   7.240  42.450   6.455
 9521POPC   C2B51092   7.194  42.458   6.755
 9521POPC   C3B51093   7.252  42.486   7.055
 9521POPC   C4B51094   7.249  42.512   7.355
 9522POPC   NC351095  13.598  22.935   5.555
 9522POPC   PO451096  13.651  22.968   5.855
 9522POPC   GL151097  13.610  22.897   6.155
 9522POPC   GL251098  13.472  22.912   6.155
 9522POPC   C1A51099  13.676  22.910   6.455
 9522POPC   D2A51100  13.616  22.909   6.755
 9522POPC   C3A51101  13.591  22.939   7.055
 9522POPC   C4A51102  13.628  22.925   7.355
 9522POPC   C1B51103  13.372  22.843   6.455
 9522POPC   C2B51104  13.346  22.882   6.755
 9522POPC   C3B51105  13.340  22.906   7.055
 9522POPC   C4B51106  13.381  22.906   7.355
 9523POPC   NC351107  13.610  12.866   5.555
 9523POPC   PO451108  13.582  12.834   5.855
 9523POPC   GL151109  13.592  12.882   6.155
 9523POPC   GL251110  13.779  12.814   6.155
 9523POPC   C1A51111  13.596  12.813   6.455
 9523POPC   D2A51112  13.609  12.864   6.755
 9523POPC   C3A51113  13.652  12.837   7.055
 9523POPC   C4A51114  13.585  12.839   7.355
 9523POPC   C1B51115  13.884  12.796   6.455
 9523POPC   C2B51116  13.848  12.740   6.755
 9523POPC   C3B51117  13.859  12.745   7.055
 9523POPC   C4B51118  13.862  12.730   7.355
 9524POPC   NC351119  12.035  24.481   5.555
 9524POPC   PO451120  12.118  24.463   5.855
 9524POPC   GL151121  12.057  24.445   6.155
 9524POPC   GL251122  12.083  24.618   6.155
 9524POPC   C1A51123  12.035  24.444   6.455
 9524POPC   D2A51124  12.055  24.516   6.755
 9524POPC   C3A51125  12.065  24.458   7.055
 9524POPC   C4A51126  12.047  24.537   7.355
 9524POPC   C1B51127  12.076  24.730   6.455
 9524POPC   C2B51128  12.016  24.742   6.755
 9524POPC   C3B51129  11.988  24.734   7.055
 9524POPC   C4B51130  12.035  24.700   7.355
 9525POPC   NC351131  44.679  15.137   5.555
 9525POPC   PO451132  44.686  15.194   5.855
 9525POPC   GL151133  44.639  15.145   6.155
 9525POPC   GL251134  44.714  15.300   6.155
 9525POPC   C1A51135  44.622  15.192   6.455
 9525POPC   D2A51136  44.675  15.180   6.755
 9525POPC   C3A51137  44.629  15.220   7.055
 9525POPC   C4A51138  44.680  15.186   7.355
 9525POPC   C1B51139  44.789  15.378   6.455
 9525POPC   C2B51140  44.814  15.428   6.755
 9525POPC   C3B51141  44.735  15.411   7.055
 9525POPC   C4B51142  44.799  15.409   7.355
 9526POPC   NC351143  43.855   9.772   5.555
 9526POPC   PO451144  43.929   9.777   5.855
 9526POPC   GL151145  43.846   9.719   6.155
 9526POPC   GL251146  43.883   9.614   6.155
 9526POPC   C1A51147  43.916   9.702   6.455
 9526POPC   D2A51148  43.919   9.720   6.755
 9526POPC   C3A51149  43.846   9.730   7.055
 9526POPC   C4A51150  43.862   9.730   7.355
 9526POPC   C1B51151  43.865   9.535   6.455
 9526POPC   C2B51152  43.850   9.529   6.755
 9526POPC   C3B51153  43.906   9.473   7.055
 9526POPC   C4B51154  43.852   9.492   7.355
 9527POPC   NC351155   5.841  43.900   5.555
 9527POPC   PO451156   5.854  43.905   5.855
 9527POPC   GL151157   5.883  43.887   6.155
 9527POPC   GL251158   5.785  43.950   6.155
 9527POPC   C1A51159   5.901  43.864   6.455
 9527POPC   D2A51160   5.867  43.904   6.755
 9527POPC   C3A51161   5.916  43.929   7.055
 9527POPC   C4A51162   5.907  43.878   7.355
 9527POPC   C1B51163   5.603  43.907   6.455
 9527POPC   C2B51164   5.633  43.981   6.755
 9527POPC   C3B51165   5.631  43.928   7.055
 9527POPC   C4B51166   5.591  43.983   7.355
 9528POPC   NC351167  15.150   4.346   5.555
 9528POPC   PO451168  15.172   4.282   5.855
 9528POPC   GL151169  15.143   4.339   6.155
 9528POPC   GL251170  15.161   4.249   6.155
 9528POPC   C1A51171  15.177   4.326   6.455
 9528POPC   D2A51172  15.179   4.323   6.755
 9528POPC   C3A51173  15.182   4.288   7.055
 9528POPC   C4A51174  15.205   4.290   7.355
 9528POPC   C1B51175  15.021   4.143   6.455
 9528POPC   C2B51176  15.025   4.126   6.755
 9528POPC   C3B51177  15.034   4.104   7.055
 9528POPC   C4B51178  15.111   4.107   7.355
 9529POPC   NC351179   8.924   5.103   5.555
 9529POPC   PO451180   8.980   5.055   5.855
 9529POPC   GL151181   8.942   5.078   6.155
 9529POPC   GL251182   9.022   5.257   6.155
 9529POPC   C1A51183   8.937   5.130   6.455
 9529POPC   D2A51184   8.939   5.044   6.755
 9529POPC   C3A51185   9.002   5.126   7.055
 9529POPC   C4A51186   8.935   5.107   7.355
 9529POPC   C1B51187   9.012   5.385   6.455
 9529POPC   C2B51188   9.008   5.309   6.755
 9529POPC   C3B51189   8.980   5.365   7.055
 9529POPC   C4B51190   9.040   5.373   7.355
 9530POPC   NC351191  21.410  38.493   5.555
 9530POPC   PO451192  21.402  38.439   5.855
 9530POPC   GL151193  21.396  38.502   6.155
 9530POPC   GL251194  21.294  38.397   6.155
 9530POPC   C1A51195  21.398  38.441   6.455
 9530POPC   D2A51196  21.388  38.422   6.755
 9530POPC   C3A51197  21.400  38.454   7.055
 9530POPC   C4A51198  21.345  38.431   7.355
 9530POPC   C1B51199  21.281  38.189   6.455
 9530POPC   C2B51200  21.244  38.216   6.755
 9530POPC   C3B51201  21.275  38.263   7.055
 9530POPC   C4B51202  21.298  38.206   7.355
 9531POPC   NC351203   5.893  40.800   5.555
 9531POPC   PO451204   5.910  40.759   5.855
 9531POPC   GL151205   5.823  40.735   6.155
 9531POPC   GL251206   5.967  40.841   6.155
 9531POPC   C1A51207   5.903  40.761   6.455
 9531POPC   D2A51208   5.888  40.802   6.755
 9531POPC   C3A51209   5.863  40.786   7.055
 9531POPC   C4A51210   5.919  40.764   7.355
 9531POPC   C1B51211   6.060  40.983   6.455
 9531POPC   C2B51212   6.066  41.026   6.755
 9531POPC   C3B51213   5.985  40.967   7.055
 9531POPC   C4B51214   6.014  40.967   7.355
 9532POPC   NC351215  25.260  27.607   5.555
 9532POPC   PO451216  25.286  27.627   5.855
 9532POPC   GL151217  25.290  27.573   6.155
 9532POPC   GL251218  25.127  27.497   6.155
 9532POPC   C1A51219  25.251  27.613   6.455
 9532POPC   D2A51220  25.248  27.610   6.755
 9532POPC   C3A51221  25.240  27.598   7.055
 9532POPC   C4A51222  25.256  27.611   7.355
 9532POPC   C1B51223  25.085  27.423   6.455
 9532POPC   C2B51224  25.118  27.402   6.755
 9532POPC   C3B51225  25.042  27.427   7.055
 9532POPC   C4B51226  25.068  27.452   7.355
 9533POPC   NC351227   9.738  26.847   5.555
 9533POPC   PO451228   9.735  26.793   5.855
 9533POPC   GL151229   9.751  26.800   6.155
 9533POPC   GL251230   9.793  26.712   6.155
 9533POPC   C1A51231   9.704  26.767   6.455
 9533POPC   D2A51232   9.729  26.771   6.755
 9533POPC   C3A51233   9.747  26.814   7.055
 9533POPC   C4A51234   9.699  26.810   7.355
 9533POPC   C1B51235   9.784  26.540   6.455
 9533POPC   C2B51236   9.709  26.587   6.755
 9533POPC   C3B51237   9.745  26.535   7.055
 9533POPC   C4B51238   9.716  26.607   7.355
 9534POPC   NC351239  40.009  40.768   5.555
 9534POPC   PO451240  39.963  40.790   5.855
 9534POPC   GL151241  40.023  40.746   6.155
 9534POPC   GL251242  39.882  40.716   6.155
 9534POPC   C1A51243  40.028  40.783   6.455
 9534POPC   D2A51244  40.027  40.737   6.755
 9534POPC   C3A51245  39.958  40.773   7.055
 9534POPC   C4A51246  40.030  40.825   7.355
 9534POPC   C1B51247  39.790  40.589   6.455
 9534POPC   C2B51248  39.780  40.605   6.755
 9534POPC   C3B51249  39.866  40.581   7.055
 9534POPC   C4B51250  39.773  40.629   7.355
 9535POPC   NC351251  31.476  43.902   5.555
 9535POPC   PO451252  31.520  43.863   5.855
 9535POPC   GL151253  31.423  43.912   6.155
 9535POPC   GL251254  31.646  43.897   6.155
 9535POPC   C1A51255  31.478  43.892   6.455
 9535POPC   D2A51256  31.461  43.922   6.755
 9535POPC   C3A51257  31.514  43.896   7.055
 9535POPC   C4A51258  31.454  43.910   7.355
 9535POPC   C1B51259  31.722  43.851   6.455
 9535POPC   C2B51260  31.712  43.856   6.755
 9535POPC   C3B51261  31.735  43.932   7.055
 9535POPC   C4B51262  31.736  43.905   7.355
 9536POPC   NC351263  40.037  26.073   5.555
 9536POPC   PO451264  40.000  26.041   5.855
 9536POPC   GL151265  40.028  26.001   6.155
 9536POPC   GL251266  39.849  26.093   6.155
 9536POPC   C1A51267  40.029  26.086   6.455
 9536POPC   D2A51268  39.965  26.060   6.755
 9536POPC   C3A51269  40.024  26.028   7.055
 9536POPC   C4A51270  39.994  26.004   7.355
 9536POPC   C1B51271  39.724  26.064   6.455
 9536POPC   C2B51272  39.771  26.079   6.755
 9536POPC   C3B51273  39.752  26.064   7.055
 9536POPC   C4B51274  39.782  26.062   7.355
 9537POPC   NC351275  12.857   0.401   5.555
 9537POPC   PO451276  12.823   0.459   5.855
 9537POPC   GL151277  12.811   0.478   6.155
 9537POPC   GL251278  12.856   0.587   6.155
 9537POPC   C1A51279  12.817   0.440   6.455
 9537POPC   D2A51280  12.817   0.448   6.755
 9537POPC   C3A51281  12.812   0.413   7.055
 9537POPC   C4A51282  12.808   0.416   7.355
 9537POPC   C1B51283  12.893   0.719   6.455
 9537POPC   C2B51284  12.966   0.689   6.755
 9537POPC   C3B51285  12.912   0.706   7.055
 9537POPC   C4B51286  12.923   0.695   7.355
 9538POPC   NC351287   7.411  31.455   5.555
 9538POPC   PO451288   7.439  31.481   5.855
 9538POPC   GL151289   7.373  31.437   6.155
 9538POPC   GL251290   7.378  31.388   6.155
 9538POPC   C1A51291   7.425  31.437   6.455
 9538POPC   D2A51292   7.463  31.517   6.755
 9538POPC   C3A51293   7.377  31.519   7.055
 9538POPC   C4A51294   7.440  31.522   7.355
 9538POPC   C1B51295   7.365  31.194   6.455
 9538POPC   C2B51296   7.323  31.222   6.755
 9538POPC   C3B51297   7.335  31.260   7.055
 9538POPC   C4B51298   7.357  31.266   7.355
 9539POPC   NC351299  12.883  39.257   5.555
 9539POPC   PO451300  12.849  39.234   5.855
 9539POPC   GL151301  12.807  39.189   6.155
 9539POPC   GL251302  12.901  39.376   6.155
 9539POPC   C1A51303  12.856  39.208   6.455
 9539POPC   D2A51304  12.885  39.214   6.755
 9539POPC   C3A51305  12.871  39.234   7.055
 9539POPC   C4A51306  12.820  39.190   7.355
 9539POPC   C1B51307  12.927  39.458   6.455
 9539POPC   C2B51308  12.939  39.485   6.755
 9539POPC   C3B51309  12.949  39.414   7.055
 9539POPC   C4B51310  12.979  39.503   7.355
 9540POPC   NC351311  33.808  38.485   5.555
 9540POPC   PO451312  33.789  38.469   5.855
 9540POPC   GL151313  33.781  38.443   6.155
 9540POPC   GL251314  33.829  38.323   6.155
 9540POPC   C1A51315  33.755  38.436   6.455
 9540POPC   D2A51316  33.805  38.492   6.755
 9540POPC   C3A51317  33.785  38.423   7.055
 9540POPC   C4A51318  33.847  38.464   7.355
 9540POPC   C1B51319  33.922  38.256   6.455
 9540POPC   C2B51320  33.901  38.208   6.755
 9540POPC   C3B51321  33.878  38.201   7.055
 9540POPC   C4B51322  33.920  38.237   7.355
 9541POPC   NC351323  36.898  34.568   5.555
 9541POPC   PO451324  36.897  34.570   5.855
 9541POPC   GL151325  36.876  34.527   6.155
 9541POPC   GL251326  36.774  34.639   6.155
 9541POPC   C1A51327  36.879  34.577   6.455
 9541POPC   D2A51328  36.933  34.545   6.755
 9541POPC   C3A51329  36.953  34.547   7.055
 9541POPC   C4A51330  36.876  34.543   7.355
 9541POPC   C1B51331  36.668  34.671   6.455
 9541POPC   C2B51332  36.732  34.710   6.755
 9541POPC   C3B51333  36.659  34.678   7.055
 9541POPC   C4B51334  36.661  34.719   7.355
 9542POPC   NC351335   6.683   9.794   5.555
 9542POPC   PO451336   6.688   9.721   5.855
 9542POPC   GL151337   6.642   9.701   6.155
 9542POPC   GL251338   6.534   9.709   6.155
 9542POPC   C1A51339   6.652   9.734   6.455
 9542POPC   D2A51340   6.690   9.745   6.755
 9542POPC   C3A51341   6.595   9.717   7.055
 9542POPC   C4A51342   6.650   9.789   7.355
 9542POPC   C1B51343   6.412   9.668   6.455
 9542POPC   C2B51344   6.439   9.706   6.755
 9542POPC   C3B51345   6.438   9.709   7.055
 9542POPC   C4B51346   6.355   9.731   7.355
 9543POPC   NC351347  15.154  39.281   5.555
 9543POPC   PO451348  15.179  39.249   5.855
 9543POPC   GL151349  15.159  39.247   6.155
 9543POPC   GL251350  15.156  39.110   6.155
 9543POPC   C1A51351  15.173  39.255   6.455
 9543POPC   D2A51352  15.223  39.219   6.755
 9543POPC   C3A51353  15.220  39.276   7.055
 9543POPC   C4A51354  15.165  39.198   7.355
 9543POPC   C1B51355  15.061  39.001   6.455
 9543POPC   C2B51356  15.053  38.962   6.755
 9543POPC   C3B51357  15.108  39.013   7.055
 9543POPC   C4B51358  15.114  39.013   7.355
 9544POPC   NC351359  15.177  26.778   5.555
 9544POPC   PO451360  15.135  26.779   5.855
 9544POPC   GL151361  15.221  26.779   6.155
 9544POPC   GL251362  15.195  26.743   6.155
 9544POPC   C1A51363  15.181  26.776   6.455
 9544POPC   D2A51364  15.135  26.859   6.755
 9544POPC   C3A51365  15.199  26.840   7.055
 9544POPC   C4A51366  15.162  26.814   7.355
 9544POPC   C1B51367  15.201  26.584   6.455
 9544POPC   C2B51368  15.250  26.536   6.755
 9544POPC   C3B51369  15.191  26.599   7.055
 9544POPC   C4B51370  15.191  26.621   7.355
 9545POPC   NC351371  17.499   5.088   5.555
 9545POPC   PO451372  17.476   5.140   5.855
 9545POPC   GL151373  17.517   5.108   6.155
 9545POPC   GL251374  17.620   5.154   6.155
 9545POPC   C1A51375  17.554   5.068   6.455
 9545POPC   D2A51376  17.522   5.048   6.755
 9545POPC   C3A51377  17.538   5.105   7.055
 9545POPC   C4A51378  17.485   5.076   7.355
 9545POPC   C1B51379  17.594   5.257   6.455
 9545POPC   C2B51380  17.651   5.283   6.755
 9545POPC   C3B51381  17.660   5.353   7.055
 9545POPC   C4B51382  17.619   5.272   7.355
 9546POPC   NC351383  13.586  13.603   5.555
 9546POPC   PO451384  13.618  13.637   5.855
 9546POPC   GL151385  13.645  13.663   6.155
 9546POPC   GL251386  13.533  13.691   6.155
 9546POPC   C1A51387  13.657  13.638   6.455
 9546POPC   D2A51388  13.644  13.645   6.755
 9546POPC   C3A51389  13.616  13.601   7.055
 9546POPC   C4A51390  13.616  13.593   7.355
 9546POPC   C1B51391  13.514  13.794   6.455
 9546POPC   C2B51392  13.546  13.816   6.755
 9546POPC   C3B51393  13.524  13.891   7.055
 9546POPC   C4B51394  13.504  13.840   7.355
 9547POPC   NC351395  16.716  30.707   5.555
 9547POPC   PO451396  16.744  30.682   5.855
 9547POPC   GL151397  16.768  30.647   6.155
 9547POPC   GL251398  16.629  30.768   6.155
 9547POPC   C1A51399  16.725  30.697   6.455
 9547POPC   D2A51400  16.754  30.693   6.755
 9547POPC   C3A51401  16.763  30.658   7.055
 9547POPC   C4A51402  16.773  30.655   7.355
 9547POPC   C1B51403  16.588  30.915   6.455
 9547POPC   C2B51404  16.554  30.917   6.755
 9547POPC   C3B51405  16.549  30.869   7.055
 9547POPC   C4B51406  16.633  30.948   7.355
 9548POPC   NC351407  40.819  37.653   5.555
 9548POPC   PO451408  40.798  37.714   5.855
 9548POPC   GL151409  40.734  37.712   6.155
 9548POPC   GL251410  40.839  37.756   6.155
 9548POPC   C1A51411  40.793  37.726   6.455
 9548POPC   D2A51412  40.778  37.722   6.755
 9548POPC   C3A51413  40.762  37.703   7.055
 9548POPC   C4A51414  40.806  37.672   7.355
 9548POPC   C1B51415  40.881  37.908   6.455
 9548POPC   C2B51416  40.939  37.895   6.755
 9548POPC   C3B51417  40.955  37.877   7.055
 9548POPC   C4B51418  40.911  37.892   7.355
 9549POPC   NC351419  25.267   8.160   5.555
 9549POPC   PO451420  25.274   8.171   5.855
 9549POPC   GL151421  25.232   8.179   6.155
 9549POPC   GL251422  25.173   8.265   6.155
 9549POPC   C1A51423  25.302   8.214   6.455
 9549POPC   D2A51424  25.302   8.219   6.755
 9549POPC   C3A51425  25.272   8.155   7.055
 9549POPC   C4A51426  25.216   8.242   7.355
 9549POPC   C1B51427  25.106   8.389   6.455
 9549POPC   C2B51428  25.159   8.346   6.755
 9549POPC   C3B51429  25.140   8.431   7.055
 9549POPC   C4B51430  25.122   8.417   7.355
 9550POPC   NC351431   2.797   1.961   5.555
 9550POPC   PO451432   2.741   2.003   5.855
 9550POPC   GL151433   2.741   1.974   6.155
 9550POPC   GL251434   2.682   2.089   6.155
 9550POPC   C1A51435   2.770   1.960   6.455
 9550POPC   D2A51436   2.789   1.961   6.755
 9550POPC   C3A51437   2.759   1.994   7.055
 9550POPC   C4A51438   2.785   2.034   7.355
 9550POPC   C1B51439   2.694   2.260   6.455
 9550POPC   C2B51440   2.715   2.186   6.755
 9550POPC   C3B51441   2.690   2.191   7.055
 9550POPC   C4B51442   2.629   2.180   7.355
 9551POPC   NC351443  33.829  16.720   5.555
 9551POPC   PO451444  33.790  16.746   5.855
 9551POPC   GL151445  33.778  16.747   6.155
 9551POPC   GL251446  33.868  16.855   6.155
 9551POPC   C1A51447  33.809  16.724   6.455
 9551POPC   D2A51448  33.771  16.768   6.755
 9551POPC   C3A51449  33.832  16.755   7.055
 9551POPC   C4A51450  33.849  16.688   7.355
 9551POPC   C1B51451  33.945  16.924   6.455
 9551POPC   C2B51452  33.906  16.886   6.755
 9551POPC   C3B51453  34.000  16.904   7.055
 9551POPC   C4B51454  33.926  16.955   7.355
 9552POPC   NC351455  19.025  28.351   5.555
 9552POPC   PO451456  19.094  28.363   5.855
 9552POPC   GL151457  19.097  28.414   6.155
 9552POPC   GL251458  19.216  28.443   6.155
 9552POPC   C1A51459  19.016  28.416   6.455
 9552POPC   D2A51460  19.103  28.407   6.755
 9552POPC   C3A51461  19.068  28.336   7.055
 9552POPC   C4A51462  19.017  28.338   7.355
 9552POPC   C1B51463  19.250  28.463   6.455
 9552POPC   C2B51464  19.316  28.451   6.755
 9552POPC   C3B51465  19.293  28.476   7.055
 9552POPC   C4B51466  19.322  28.489   7.355
 9553POPC   NC351467  30.742   9.781   5.555
 9553POPC   PO451468  30.729   9.734   5.855
 9553POPC   GL151469  30.669   9.785   6.155
 9553POPC   GL251470  30.536   9.748   6.155
 9553POPC   C1A51471  30.669   9.753   6.455
 9553POPC   D2A51472  30.681   9.732   6.755
 9553POPC   C3A51473  30.730   9.742   7.055
 9553POPC   C4A51474  30.681   9.784   7.355
 9553POPC   C1B51475  30.403   9.667   6.455
 9553POPC   C2B51476  30.497   9.733   6.755
 9553POPC   C3B51477  30.412   9.733   7.055
 9553POPC   C4B51478  30.410   9.691   7.355
 9554POPC   NC351479  12.074  43.141   5.555
 9554POPC   PO451480  12.118  43.137   5.855
 9554POPC   GL151481  12.056  43.130   6.155
 9554POPC   GL251482  11.942  43.211   6.155
 9554POPC   C1A51483  12.109  43.104   6.455
 9554POPC   D2A51484  12.096  43.082   6.755
 9554POPC   C3A51485  12.043  43.118   7.055
 9554POPC   C4A51486  12.078  43.065   7.355
 9554POPC   C1B51487  11.919  43.245   6.455
 9554POPC   C2B51488  11.908  43.226   6.755
 9554POPC   C3B51489  11.850  43.289   7.055
 9554POPC   C4B51490  11.890  43.291   7.355
 9555POPC   NC351491   8.188   5.096   5.555
 9555POPC   PO451492   8.205   5.121   5.855
 9555POPC   GL151493   8.240   5.052   6.155
 9555POPC   GL251494   8.185   5.192   6.155
 9555POPC   C1A51495   8.240   5.090   6.455
 9555POPC   D2A51496   8.188   5.103   6.755
 9555POPC   C3A51497   8.176   5.123   7.055
 9555POPC   C4A51498   8.194   5.109   7.355
 9555POPC   C1B51499   8.188   5.384   6.455
 9555POPC   C2B51500   8.142   5.325   6.755
 9555POPC   C3B51501   8.104   5.301   7.055
 9555POPC   C4B51502   8.160   5.307   7.355
 9556POPC   NC351503  31.483  37.690   5.555
 9556POPC   PO451504  31.439  37.678   5.855
 9556POPC   GL151505  31.456  37.636   6.155
 9556POPC   GL251506  31.319  37.744   6.155
 9556POPC   C1A51507  31.491  37.631   6.455
 9556POPC   D2A51508  31.504  37.701   6.755
 9556POPC   C3A51509  31.469  37.706   7.055
 9556POPC   C4A51510  31.440  37.672   7.355
 9556POPC   C1B51511  31.208  37.711   6.455
 9556POPC   C2B51512  31.180  37.683   6.755
 9556POPC   C3B51513  31.224  37.711   7.055
 9556POPC   C4B51514  31.256  37.686   7.355
 9557POPC   NC351515  36.174   3.546   5.555
 9557POPC   PO451516  36.087   3.496   5.855
 9557POPC   GL151517  36.110   3.552   6.155
 9557POPC   GL251518  36.041   3.545   6.155
 9557POPC   C1A51519  36.145   3.502   6.455
 9557POPC   D2A51520  36.150   3.549   6.755
 9557POPC   C3A51521  36.079   3.570   7.055
 9557POPC   C4A51522  36.096   3.501   7.355
 9557POPC   C1B51523  35.875   3.540   6.455
 9557POPC   C2B51524  35.837   3.552   6.755
 9557POPC   C3B51525  35.900   3.486   7.055
 9557POPC   C4B51526  35.839   3.508   7.355
 9558POPC   NC351527  33.837  35.331   5.555
 9558POPC   PO451528  33.796  35.350   5.855
 9558POPC   GL151529  33.835  35.328   6.155
 9558POPC   GL251530  33.698  35.321   6.155
 9558POPC   C1A51531  33.800  35.313   6.455
 9558POPC   D2A51532  33.819  35.385   6.755
 9558POPC   C3A51533  33.830  35.343   7.055
 9558POPC   C4A51534  33.792  35.364   7.355
 9558POPC   C1B51535  33.576  35.244   6.455
 9558POPC   C2B51536  33.526  35.295   6.755
 9558POPC   C3B51537  33.571  35.241   7.055
 9558POPC   C4B51538  33.580  35.270   7.355
 9559POPC   NC351539   3.560  12.036   5.555
 9559POPC   PO451540   3.564  12.118   5.855
 9559POPC   GL151541   3.517  12.107   6.155
 9559POPC   GL251542   3.446  12.208   6.155
 9559POPC   C1A51543   3.523  12.090   6.455
 9559POPC   D2A51544   3.510  12.037   6.755
 9559POPC   C3A51545   3.507  12.045   7.055
 9559POPC   C4A51546   3.584  12.043   7.355
 9559POPC   C1B51547   3.397  12.255   6.455
 9559POPC   C2B51548   3.446  12.342   6.755
 9559POPC   C3B51549   3.422  12.337   7.055
 9559POPC   C4B51550   3.411  12.297   7.355
 9560POPC   NC351551  40.748  33.059   5.555
 9560POPC   PO451552  40.796  33.009   5.855
 9560POPC   GL151553  40.755  33.062   6.155
 9560POPC   GL251554  40.680  33.097   6.155
 9560POPC   C1A51555  40.828  32.981   6.455
 9560POPC   D2A51556  40.745  32.997   6.755
 9560POPC   C3A51557  40.783  33.044   7.055
 9560POPC   C4A51558  40.808  33.017   7.355
 9560POPC   C1B51559  40.499  33.119   6.455
 9560POPC   C2B51560  40.506  33.122   6.755
 9560POPC   C3B51561  40.590  33.076   7.055
 9560POPC   C4B51562  40.549  33.069   7.355
 9561POPC   NC351563  43.874  15.931   5.555
 9561POPC   PO451564  43.924  15.940   5.855
 9561POPC   GL151565  43.906  15.985   6.155
 9561POPC   GL251566  43.964  15.969   6.155
 9561POPC   C1A51567  43.917  15.991   6.455
 9561POPC   D2A51568  43.932  15.938   6.755
 9561POPC   C3A51569  43.911  15.918   7.055
 9561POPC   C4A51570  43.855  15.914   7.355
 9561POPC   C1B51571  44.079  15.902   6.455
 9561POPC   C2B51572  44.156  15.862   6.755
 9561POPC   C3B51573  44.168  15.854   7.055
 9561POPC   C4B51574  44.128  15.873   7.355
 9562POPC   NC351575  26.849  16.694   5.555
 9562POPC   PO451576  26.841  16.690   5.855
 9562POPC   GL151577  26.782  16.752   6.155
 9562POPC   GL251578  26.899  16.866   6.155
 9562POPC   C1A51579  26.783  16.697   6.455
 9562POPC   D2A51580  26.795  16.708   6.755
 9562POPC   C3A51581  26.800  16.703   7.055
 9562POPC   C4A51582  26.819  16.768   7.355
 9562POPC   C1B51583  26.979  16.908   6.455
 9562POPC   C2B51584  27.002  16.939   6.755
 9562POPC   C3B51585  26.982  16.914   7.055
 9562POPC   C4B51586  27.015  16.899   7.355
 9563POPC   NC351587   8.231   4.340   5.555
 9563POPC   PO451588   8.155   4.329   5.855
 9563POPC   GL151589   8.150   4.283   6.155
 9563POPC   GL251590   8.290   4.183   6.155
 9563POPC   C1A51591   8.176   4.285   6.455
 9563POPC   D2A51592   8.175   4.302   6.755
 9563POPC   C3A51593   8.180   4.274   7.055
 9563POPC   C4A51594   8.204   4.323   7.355
 9563POPC   C1B51595   8.384   4.120   6.455
 9563POPC   C2B51596   8.297   4.093   6.755
 9563POPC   C3B51597   8.382   4.092   7.055
 9563POPC   C4B51598   8.315   4.145   7.355
 9564POPC   NC351599  33.841  13.586   5.555
 9564POPC   PO451600  33.826  13.664   5.855
 9564POPC   GL151601  33.757  13.593   6.155
 9564POPC   GL251602  33.791  13.480   6.155
 9564POPC   C1A51603  33.752  13.613   6.455
 9564POPC   D2A51604  33.829  13.633   6.755
 9564POPC   C3A51605  33.803  13.588   7.055
 9564POPC   C4A51606  33.783  13.602   7.355
 9564POPC   C1B51607  33.806  13.407   6.455
 9564POPC   C2B51608  33.784  13.342   6.755
 9564POPC   C3B51609  33.791  13.333   7.055
 9564POPC   C4B51610  33.763  13.332   7.355
 9565POPC   NC351611  11.320   1.989   5.555
 9565POPC   PO451612  11.321   2.003   5.855
 9565POPC   GL151613  11.288   1.972   6.155
 9565POPC   GL251614  11.317   1.839   6.155
 9565POPC   C1A51615  11.277   1.974   6.455
 9565POPC   D2A51616  11.284   2.005   6.755
 9565POPC   C3A51617  11.278   2.001   7.055
 9565POPC   C4A51618  11.322   1.997   7.355
 9565POPC   C1B51619  11.332   1.766   6.455
 9565POPC   C2B51620  11.324   1.729   6.755
 9565POPC   C3B51621  11.331   1.752   7.055
 9565POPC   C4B51622  11.340   1.705   7.355
 9566POPC   NC351623  44.706   7.388   5.555
 9566POPC   PO451624  44.670   7.413   5.855
 9566POPC   GL151625  44.645   7.443   6.155
 9566POPC   GL251626  44.562   7.489   6.155
 9566POPC   C1A51627  44.703   7.387   6.455
 9566POPC   D2A51628  44.675   7.406   6.755
 9566POPC   C3A51629  44.641   7.453   7.055
 9566POPC   C4A51630  44.672   7.404   7.355
 9566POPC   C1B51631  44.419   7.575   6.455
 9566POPC   C2B51632  44.393   7.491   6.755
 9566POPC   C3B51633  44.431   7.488   7.055
 9566POPC   C4B51634  44.449   7.487   7.355
 9567POPC   NC351635   8.225  23.691   5.555
 9567POPC   PO451636   8.201  23.699   5.855
 9567POPC   GL151637   8.165  23.699   6.155
 9567POPC   GL251638   8.242  23.801   6.155
 9567POPC   C1A51639   8.170  23.702   6.455
 9567POPC   D2A51640   8.192  23.732   6.755
 9567POPC   C3A51641   8.159  23.758   7.055
 9567POPC   C4A51642   8.155  23.726   7.355
 9567POPC   C1B51643   8.216  23.930   6.455
 9567POPC   C2B51644   8.203  23.994   6.755
 9567POPC   C3B51645   8.188  23.956   7.055
 9567POPC   C4B51646   8.240  23.971   7.355
 9568POPC   NC351647  43.917  40.830   5.555
 9568POPC   PO451648  43.875  40.758   5.855
 9568POPC   GL151649  43.909  40.774   6.155
 9568POPC   GL251650  43.794  40.688   6.155
 9568POPC   C1A51651  43.845  40.737   6.455
 9568POPC   D2A51652  43.867  40.747   6.755
 9568POPC   C3A51653  43.908  40.790   7.055
 9568POPC   C4A51654  43.906  40.773   7.355
 9568POPC   C1B51655  43.717  40.612   6.455
 9568POPC   C2B51656  43.660  40.598   6.755
 9568POPC   C3B51657  43.708  40.624   7.055
 9568POPC   C4B51658  43.662  40.621   7.355
 9569POPC   NC351659  35.303  42.290   5.555
 9569POPC   PO451660  35.376  42.306   5.855
 9569POPC   GL151661  35.331  42.343   6.155
 9569POPC   GL251662  35.204  42.301   6.155
 9569POPC   C1A51663  35.331  42.290   6.455
 9569POPC   D2A51664  35.369  42.381   6.755
 9569POPC   C3A51665  35.362  42.322   7.055
 9569POPC   C4A51666  35.323  42.348   7.355
 9569POPC   C1B51667  35.142  42.352   6.455
 9569POPC   C2B51668  35.116  42.390   6.755
 9569POPC   C3B51669  35.142  42.307   7.055
 9569POPC   C4B51670  35.102  42.318   7.355
 9570POPC   NC351671  38.452  40.755   5.555
 9570POPC   PO451672  38.488  40.768   5.855
 9570POPC   GL151673  38.465  40.733   6.155
 9570POPC   GL251674  38.535  40.677   6.155
 9570POPC   C1A51675  38.484  40.751   6.455
 9570POPC   D2A51676  38.470  40.768   6.755
 9570POPC   C3A51677  38.450  40.808   7.055
 9570POPC   C4A51678  38.408  40.754   7.355
 9570POPC   C1B51679  38.632  40.629   6.455
 9570POPC   C2B51680  38.579  40.557   6.755
 9570POPC   C3B51681  38.609  40.616   7.055
 9570POPC   C4B51682  38.580  40.631   7.355
 9571POPC   NC351683  40.739  43.090   5.555
 9571POPC   PO451684  40.735  43.148   5.855
 9571POPC   GL151685  40.792  43.080   6.155
 9571POPC   GL251686  40.724  43.201   6.155
 9571POPC   C1A51687  40.764  43.110   6.455
 9571POPC   D2A51688  40.828  43.071   6.755
 9571POPC   C3A51689  40.775  43.105   7.055
 9571POPC   C4A51690  40.775  43.120   7.355
 9571POPC   C1B51691  40.579  43.310   6.455
 9571POPC   C2B51692  40.571  43.230   6.755
 9571POPC   C3B51693  40.607  43.295   7.055
 9571POPC   C4B51694  40.608  43.289   7.355
 9572POPC   NC351695  43.875   2.745   5.555
 9572POPC   PO451696  43.912   2.732   5.855
 9572POPC   GL151697  43.885   2.792   6.155
 9572POPC   GL251698  43.988   2.857   6.155
 9572POPC   C1A51699  43.930   2.740   6.455
 9572POPC   D2A51700  43.882   2.810   6.755
 9572POPC   C3A51701  43.886   2.734   7.055
 9572POPC   C4A51702  43.846   2.729   7.355
 9572POPC   C1B51703  44.065   2.975   6.455
 9572POPC   C2B51704  44.072   2.920   6.755
 9572POPC   C3B51705  44.031   2.993   7.055
 9572POPC   C4B51706  44.029   2.994   7.355
 9573POPC   NC351707  27.608  36.892   5.555
 9573POPC   PO451708  27.590  36.931   5.855
 9573POPC   GL151709  27.560  36.929   6.155
 9573POPC   GL251710  27.558  36.776   6.155
 9573POPC   C1A51711  27.632  36.879   6.455
 9573POPC   D2A51712  27.615  36.909   6.755
 9573POPC   C3A51713  27.569  36.899   7.055
 9573POPC   C4A51714  27.611  36.948   7.355
 9573POPC   C1B51715  27.582  36.704   6.455
 9573POPC   C2B51716  27.591  36.673   6.755
 9573POPC   C3B51717  27.598  36.606   7.055
 9573POPC   C4B51718  27.596  36.661   7.355
 9574POPC   NC351719   2.745  12.899   5.555
 9574POPC   PO451720   2.808  12.855   5.855
 9574POPC   GL151721   2.809  12.837   6.155
 9574POPC   GL251722   2.662  12.795   6.155
 9574POPC   C1A51723   2.733  12.880   6.455
 9574POPC   D2A51724   2.793  12.884   6.755
 9574POPC   C3A51725   2.772  12.813   7.055
 9574POPC   C4A51726   2.811  12.896   7.355
 9574POPC   C1B51727   2.552  12.732   6.455
 9574POPC   C2B51728   2.495  12.721   6.755
 9574POPC   C3B51729   2.567  12.731   7.055
 9574POPC   C4B51730   2.575  12.721   7.355
 9575POPC   NC351731  39.236  14.376   5.555
 9575POPC   PO451732  39.189  14.436   5.855
 9575POPC   GL151733  39.202  14.381   6.155
 9575POPC   GL251734  39.178  14.293   6.155
 9575POPC   C1A51735  39.207  14.359   6.455
 9575POPC   D2A51736  39.231  14.403   6.755
 9575POPC   C3A51737  39.280  14.450   7.055
 9575POPC   C4A51738  39.182  14.448   7.355
 9575POPC   C1B51739  39.224  14.189   6.455
 9575POPC   C2B51740  39.228  14.111   6.755
 9575POPC   C3B51741  39.270  14.182   7.055
 9575POPC   C4B51742  39.248  14.118   7.355
 9576POPC   NC351743   6.633  24.467   5.555
 9576POPC   PO451744   6.645  24.493   5.855
 9576POPC   GL151745   6.615  24.525   6.155
 9576POPC   GL251746   6.494  24.517   6.155
 9576POPC   C1A51747   6.682  24.474   6.455
 9576POPC   D2A51748   6.622  24.496   6.755
 9576POPC   C3A51749   6.643  24.485   7.055
 9576POPC   C4A51750   6.680  24.511   7.355
 9576POPC   C1B51751   6.433  24.644   6.455
 9576POPC   C2B51752   6.431  24.576   6.755
 9576POPC   C3B51753   6.462  24.568   7.055
 9576POPC   C4B51754   6.435  24.635   7.355
 9577POPC   NC351755  12.123  37.665   5.555
 9577POPC   PO451756  12.062  37.670   5.855
 9577POPC   GL151757  12.047  37.631   6.155
 9577POPC   GL251758  12.176  37.803   6.155
 9577POPC   C1A51759  12.084  37.645   6.455
 9577POPC   D2A51760  12.106  37.695   6.755
 9577POPC   C3A51761  12.115  37.647   7.055
 9577POPC   C4A51762  12.106  37.707   7.355
 9577POPC   C1B51763  12.227  37.854   6.455
 9577POPC   C2B51764  12.240  37.816   6.755
 9577POPC   C3B51765  12.235  37.895   7.055
 9577POPC   C4B51766  12.291  37.905   7.355
 9578POPC   NC351767   6.664  31.454   5.555
 9578POPC   PO451768   6.607  31.447   5.855
 9578POPC   GL151769   6.636  31.506   6.155
 9578POPC   GL251770   6.551  31.381   6.155
 9578POPC   C1A51771   6.632  31.465   6.455
 9578POPC   D2A51772   6.630  31.439   6.755
 9578POPC   C3A51773   6.669  31.505   7.055
 9578POPC   C4A51774   6.626  31.431   7.355
 9578POPC   C1B51775   6.472  31.310   6.455
 9578POPC   C2B51776   6.458  31.241   6.755
 9578POPC   C3B51777   6.473  31.334   7.055
 9578POPC   C4B51778   6.504  31.272   7.355
 9579POPC   NC351779   2.726  43.920   5.555
 9579POPC   PO451780   2.752  43.849   5.855
 9579POPC   GL151781   2.721  43.861   6.155
 9579POPC   GL251782   2.863  43.963   6.155
 9579POPC   C1A51783   2.799  43.848   6.455
 9579POPC   D2A51784   2.783  43.868   6.755
 9579POPC   C3A51785   2.737  43.903   7.055
 9579POPC   C4A51786   2.779  43.848   7.355
 9579POPC   C1B51787   2.974  44.121   6.455
 9579POPC   C2B51788   2.906  44.099   6.755
 9579POPC   C3B51789   2.899  44.079   7.055
 9579POPC   C4B51790   2.885  44.076   7.355
 9580POPC   NC351791  29.101  17.538   5.555
 9580POPC   PO451792  29.114  17.512   5.855
 9580POPC   GL151793  29.105  17.538   6.155
 9580POPC   GL251794  29.124  17.667   6.155
 9580POPC   C1A51795  29.141  17.521   6.455
 9580POPC   D2A51796  29.100  17.540   6.755
 9580POPC   C3A51797  29.146  17.547   7.055
 9580POPC   C4A51798  29.161  17.545   7.355
 9580POPC   C1B51799  29.102  17.792   6.455
 9580POPC   C2B51800  29.102  17.717   6.755
 9580POPC   C3B51801  29.121  17.785   7.055
 9580POPC   C4B51802  29.148  17.737   7.355
 9581POPC   NC351803  29.123   1.959   5.555
 9581POPC   PO451804  29.132   1.971   5.855
 9581POPC   GL151805  29.135   2.024   6.155
 9581POPC   GL251806  29.047   2.071   6.155
 9581POPC   C1A51807  29.171   2.005   6.455
 9581POPC   D2A51808  29.123   1.978   6.755
 9581POPC   C3A51809  29.171   1.970   7.055
 9581POPC   C4A51810  29.139   1.952   7.355
 9581POPC   C1B51811  28.990   2.210   6.455
 9581POPC   C2B51812  29.082   2.201   6.755
 9581POPC   C3B51813  29.018   2.228   7.055
 9581POPC   C4B51814  29.067   2.225   7.355
 9582POPC   NC351815  27.610  35.363   5.555
 9582POPC   PO451816  27.633  35.343   5.855
 9582POPC   GL151817  27.573  35.325   6.155
 9582POPC   GL251818  27.730  35.446   6.155
 9582POPC   C1A51819  27.549  35.328   6.455
 9582POPC   D2A51820  27.630  35.386   6.755
 9582POPC   C3A51821  27.575  35.389   7.055
 9582POPC   C4A51822  27.585  35.321   7.355
 9582POPC   C1B51823  27.865  35.428   6.455
 9582POPC   C2B51824  27.799  35.477   6.755
 9582POPC   C3B51825  27.857  35.463   7.055
 9582POPC   C4B51826  27.771  35.418   7.355
 9583POPC   NC351827  29.099   7.452   5.555
 9583POPC   PO451828  29.119   7.415   5.855
 9583POPC   GL151829  29.113   7.459   6.155
 9583POPC   GL251830  29.230   7.503   6.155
 9583POPC   C1A51831  29.183   7.447   6.455
 9583POPC   D2A51832  29.115   7.435   6.755
 9583POPC   C3A51833  29.155   7.426   7.055
 9583POPC   C4A51834  29.131   7.391   7.355
 9583POPC   C1B51835  29.281   7.675   6.455
 9583POPC   C2B51836  29.270   7.674   6.755
 9583POPC   C3B51837  29.232   7.680   7.055
 9583POPC   C4B51838  29.246   7.643   7.355
 9584POPC   NC351839  16.725  40.785   5.555
 9584POPC   PO451840  16.773  40.786   5.855
 9584POPC   GL151841  16.686  40.809   6.155
 9584POPC   GL251842  16.724  40.875   6.155
 9584POPC   C1A51843  16.747  40.755   6.455
 9584POPC   D2A51844  16.694  40.818   6.755
 9584POPC   C3A51845  16.706  40.811   7.055
 9584POPC   C4A51846  16.716  40.832   7.355
 9584POPC   C1B51847  16.780  41.039   6.455
 9584POPC   C2B51848  16.821  41.004   6.755
 9584POPC   C3B51849  16.744  41.042   7.055
 9584POPC   C4B51850  16.784  41.026   7.355
 9585POPC   NC351851  36.175  27.640   5.555
 9585POPC   PO451852  36.117  27.608   5.855
 9585POPC   GL151853  36.112  27.577   6.155
 9585POPC   GL251854  36.235  27.594   6.155
 9585POPC   C1A51855  36.170  27.591   6.455
 9585POPC   D2A51856  36.098  27.544   6.755
 9585POPC   C3A51857  36.136  27.567   7.055
 9585POPC   C4A51858  36.110  27.624   7.355
 9585POPC   C1B51859  36.341  27.569   6.455
 9585POPC   C2B51860  36.406  27.611   6.755
 9585POPC   C3B51861  36.356  27.649   7.055
 9585POPC   C4B51862  36.396  27.606   7.355
 9586POPC   NC351863  16.762  33.021   5.555
 9586POPC   PO451864  16.740  33.013   5.855
 9586POPC   GL151865  16.756  33.005   6.155
 9586POPC   GL251866  16.709  32.878   6.155
 9586POPC   C1A51867  16.763  32.987   6.455
 9586POPC   D2A51868  16.743  33.053   6.755
 9586POPC   C3A51869  16.710  33.025   7.055
 9586POPC   C4A51870  16.764  33.035   7.355
 9586POPC   C1B51871  16.626  32.763   6.455
 9586POPC   C2B51872  16.663  32.743   6.755
 9586POPC   C3B51873  16.609  32.812   7.055
 9586POPC   C4B51874  16.655  32.743   7.355
 9587POPC   NC351875  25.262   9.011   5.555
 9587POPC   PO451876  25.292   8.993   5.855
 9587POPC   GL151877  25.292   8.959   6.155
 9587POPC   GL251878  25.326   9.061   6.155
 9587POPC   C1A51879  25.287   9.006   6.455
 9587POPC   D2A51880  25.310   8.996   6.755
 9587POPC   C3A51881  25.282   8.939   7.055
 9587POPC   C4A51882  25.268   8.968   7.355
 9587POPC   C1B51883  25.461   9.166   6.455
 9587POPC   C2B51884  25.462   9.171   6.755
 9587POPC   C3B51885  25.446   9.171   7.055
 9587POPC   C4B51886  25.432   9.131   7.355
 9588POPC   NC351887  37.648   1.988   5.555
 9588POPC   PO451888  37.676   1.982   5.855
 9588POPC   GL151889  37.674   1.994   6.155
 9588POPC   GL251890  37.656   1.893   6.155
 9588POPC   C1A51891  37.690   2.001   6.455
 9588POPC   D2A51892  37.638   2.008   6.755
 9588POPC   C3A51893  37.718   2.033   7.055
 9588POPC   C4A51894  37.725   2.007   7.355
 9588POPC   C1B51895  37.616   1.766   6.455
 9588POPC   C2B51896  37.630   1.757   6.755
 9588POPC   C3B51897  37.602   1.727   7.055
 9588POPC   C4B51898  37.600   1.757   7.355
 9589POPC   NC351899   6.636   1.995   5.555
 9589POPC   PO451900   6.665   1.997   5.855
 9589POPC   GL151901   6.678   1.999   6.155
 9589POPC   GL251902   6.571   2.116   6.155
 9589POPC   C1A51903   6.616   2.000   6.455
 9589POPC   D2A51904   6.650   1.942   6.755
 9589POPC   C3A51905   6.625   2.007   7.055
 9589POPC   C4A51906   6.670   2.017   7.355
 9589POPC   C1B51907   6.554   2.198   6.455
 9589POPC   C2B51908   6.520   2.276   6.755
 9589POPC   C3B51909   6.541   2.247   7.055
 9589POPC   C4B51910   6.534   2.216   7.355
 9590POPC   NC351911  35.371  24.496   5.555
 9590POPC   PO451912  35.343  24.484   5.855
 9590POPC   GL151913  35.401  24.518   6.155
 9590POPC   GL251914  35.469  24.480   6.155
 9590POPC   C1A51915  35.350  24.491   6.455
 9590POPC   D2A51916  35.309  24.529   6.755
 9590POPC   C3A51917  35.396  24.472   7.055
 9590POPC   C4A51918  35.376  24.520   7.355
 9590POPC   C1B51919  35.562  24.445   6.455
 9590POPC   C2B51920  35.561  24.499   6.755
 9590POPC   C3B51921  35.582  24.444   7.055
 9590POPC   C4B51922  35.608  24.499   7.355
 9591POPC   NC351923  15.129  19.826   5.555
 9591POPC   PO451924  15.180  19.810   5.855
 9591POPC   GL151925  15.216  19.835   6.155
 9591POPC   GL251926  15.296  19.799   6.155
 9591POPC   C1A51927  15.167  19.819   6.455
 9591POPC   D2A51928  15.218  19.807   6.755
 9591POPC   C3A51929  15.153  19.836   7.055
 9591POPC   C4A51930  15.226  19.786   7.355
 9591POPC   C1B51931  15.423  19.760   6.455
 9591POPC   C2B51932  15.450  19.833   6.755
 9591POPC   C3B51933  15.469  19.754   7.055
 9591POPC   C4B51934  15.459  19.759   7.355
 9592POPC   NC351935   3.547  22.973   5.555
 9592POPC   PO451936   3.572  22.942   5.855
 9592POPC   GL151937   3.561  22.934   6.155
 9592POPC   GL251938   3.470  22.862   6.155
 9592POPC   C1A51939   3.502  22.946   6.455
 9592POPC   D2A51940   3.527  22.978   6.755
 9592POPC   C3A51941   3.508  22.918   7.055
 9592POPC   C4A51942   3.561  22.985   7.355
 9592POPC   C1B51943   3.315  22.800   6.455
 9592POPC   C2B51944   3.340  22.751   6.755
 9592POPC   C3B51945   3.325  22.741   7.055
 9592POPC   C4B51946   3.371  22.746   7.355
 9593POPC   NC351947  36.155  29.916   5.555
 9593POPC   PO451948  36.126  29.932   5.855
 9593POPC   GL151949  36.116  29.877   6.155
 9593POPC   GL251950  36.226  30.071   6.155
 9593POPC   C1A51951  36.145  29.939   6.455
 9593POPC   D2A51952  36.172  29.887   6.755
 9593POPC   C3A51953  36.166  29.880   7.055
 9593POPC   C4A51954  36.175  29.899   7.355
 9593POPC   C1B51955  36.228  30.156   6.455
 9593POPC   C2B51956  36.224  30.179   6.755
 9593POPC   C3B51957  36.294  30.103   7.055
 9593POPC   C4B51958  36.235  30.186   7.355
 9594POPC   NC351959  30.672  15.202   5.555
 9594POPC   PO451960  30.683  15.200   5.855
 9594POPC   GL151961  30.740  15.145   6.155
 9594POPC   GL251962  30.648  15.311   6.155
 9594POPC   C1A51963  30.734  15.165   6.455
 9594POPC   D2A51964  30.737  15.143   6.755
 9594POPC   C3A51965  30.723  15.159   7.055
 9594POPC   C4A51966  30.702  15.186   7.355
 9594POPC   C1B51967  30.466  15.305   6.455
 9594POPC   C2B51968  30.536  15.321   6.755
 9594POPC   C3B51969  30.539  15.317   7.055
 9594POPC   C4B51970  30.537  15.358   7.355
 9595POPC   NC351971  16.768  43.853   5.555
 9595POPC   PO451972  16.729  43.887   5.855
 9595POPC   GL151973  16.737  43.900   6.155
 9595POPC   GL251974  16.766  43.973   6.155
 9595POPC   C1A51975  16.773  43.891   6.455
 9595POPC   D2A51976  16.739  43.898   6.755
 9595POPC   C3A51977  16.704  43.893   7.055
 9595POPC   C4A51978  16.764  43.909   7.355
 9595POPC   C1B51979  16.908  44.094   6.455
 9595POPC   C2B51980  16.856  44.051   6.755
 9595POPC   C3B51981  16.858  44.128   7.055
 9595POPC   C4B51982  16.834  44.056   7.355
 9596POPC   NC351983  16.737  24.450   5.555
 9596POPC   PO451984  16.752  24.526   5.855
 9596POPC   GL151985  16.775  24.501   6.155
 9596POPC   GL251986  16.620  24.402   6.155
 9596POPC   C1A51987  16.715  24.486   6.455
 9596POPC   D2A51988  16.757  24.539   6.755
 9596POPC   C3A51989  16.731  24.511   7.055
 9596POPC   C4A51990  16.729  24.510   7.355
 9596POPC   C1B51991  16.541  24.323   6.455
 9596POPC   C2B51992  16.552  24.353   6.755
 9596POPC   C3B51993  16.487  24.374   7.055
 9596POPC   C4B51994  16.517  24.388   7.355
 9597POPC   NC351995  25.265  42.313   5.555
 9597POPC   PO451996  25.290  42.321   5.855
 9597POPC   GL151997  25.281  42.353   6.155
 9597POPC   GL251998  25.148  42.290   6.155
 9597POPC   C1A51999  25.265  42.368   6.455
 9597POPC   D2A52000  25.295  42.363   6.755
 9597POPC   C3A52001  25.280  42.332   7.055
 9597POPC   C4A52002  25.276  42.365   7.355
 9597POPC   C1B52003  25.041  42.281   6.455
 9597POPC   C2B52004  25.006  42.233   6.755
 9597POPC   C3B52005  25.032  42.275   7.055
 9597POPC   C4B52006  24.977  42.266   7.355
 9598POPC   NC352007  36.159   1.230   5.555
 9598POPC   PO452008  36.106   1.182   5.855
 9598POPC   GL152009  36.144   1.211   6.155
 9598POPC   GL252010  36.265   1.144   6.155
 9598POPC   C1A52011  36.151   1.176   6.455
 9598POPC   D2A52012  36.173   1.207   6.755
 9598POPC   C3A52013  36.090   1.224   7.055
 9598POPC   C4A52014  36.172   1.244   7.355
 9598POPC   C1B52015  36.349   1.062   6.455
 9598POPC   C2B52016  36.301   1.030   6.755
 9598POPC   C3B52017  36.310   1.042   7.055
 9598POPC   C4B52018  36.333   1.104   7.355
 9599POPC   NC352019  34.535  22.156   5.555
 9599POPC   PO452020  34.531  22.152   5.855
 9599POPC   GL152021  34.623  22.157   6.155
 9599POPC   GL252022  34.668  22.192   6.155
 9599POPC   C1A52023  34.587  22.173   6.455
 9599POPC   D2A52024  34.575  22.178   6.755
 9599POPC   C3A52025  34.626  22.164   7.055
 9599POPC   C4A52026  34.582  22.179   7.355
 9599POPC   C1B52027  34.789  22.093   6.455
 9599POPC   C2B52028  34.834  22.144   6.755
 9599POPC   C3B52029  34.824  22.107   7.055
 9599POPC   C4B52030  34.828  22.126   7.355
 9600POPC   NC352031  17.500  27.552   5.555
 9600POPC   PO452032  17.546  27.550   5.855
 9600POPC   GL152033  17.463  27.635   6.155
 9600POPC   GL252034  17.529  27.740   6.155
 9600POPC   C1A52035  17.512  27.544   6.455
 9600POPC   D2A52036  17.536  27.619   6.755
 9600POPC   C3A52037  17.527  27.573   7.055
 9600POPC   C4A52038  17.532  27.582   7.355
 9600POPC   C1B52039  17.671  27.826   6.455
 9600POPC   C2B52040  17.617  27.788   6.755
 9600POPC   C3B52041  17.673  27.824   7.055
 9600POPC   C4B52042  17.622  27.833   7.355
 9601POPC   NC352043  44.707   5.873   5.555
 9601POPC   PO452044  44.672   5.854   5.855
 9601POPC   GL152045  44.678   5.916   6.155
 9601POPC   GL252046  44.716   5.745   6.155
 9601POPC   C1A52047  44.616   5.820   6.455
 9601POPC   D2A52048  44.663   5.880   6.755
 9601POPC   C3A52049  44.669   5.847   7.055
 9601POPC   C4A52050  44.664   5.823   7.355
 9601POPC   C1B52051  44.702   5.624   6.455
 9601POPC   C2B52052  44.707   5.608   6.755
 9601POPC   C3B52053  44.740   5.621   7.055
 9601POPC   C4B52054  44.684   5.632   7.355
 9602POPC   NC352055  22.907   5.086   5.555
 9602POPC   PO452056  22.914   5.112   5.855
 9602POPC   GL152057  22.905   5.067   6.155
 9602POPC   GL252058  22.914   5.205   6.155
 9602POPC   C1A52059  22.891   5.104   6.455
 9602POPC   D2A52060  22.926   5.066   6.755
 9602POPC   C3A52061  22.891   5.085   7.055
 9602POPC   C4A52062  22.944   5.060   7.355
 9602POPC   C1B52063  22.836   5.290   6.455
 9602POPC   C2B52064  22.887   5.309   6.755
 9602POPC   C3B52065  22.831   5.337   7.055
 9602POPC   C4B52066  22.814   5.283   7.355
 9603POPC   NC352067  10.491  34.555   5.555
 9603POPC   PO452068  10.546  34.611   5.855
 9603POPC   GL152069  10.513  34.584   6.155
 9603POPC   GL252070  10.508  34.487   6.155
 9603POPC   C1A52071  10.566  34.553   6.455
 9603POPC   D2A52072  10.569  34.546   6.755
 9603POPC   C3A52073  10.485  34.597   7.055
 9603POPC   C4A52074  10.532  34.625   7.355
 9603POPC   C1B52075  10.550  34.328   6.455
 9603POPC   C2B52076  10.541  34.351   6.755
 9603POPC   C3B52077  10.578  34.344   7.055
 9603POPC   C4B52078  10.626  34.360   7.355
 9604POPC   NC352079  25.243  40.747   5.555
 9604POPC   PO452080  25.229  40.759   5.855
 9604POPC   GL152081  25.280  40.820   6.155
 9604POPC   GL252082  25.274  40.698   6.155
 9604POPC   C1A52083  25.309  40.817   6.455
 9604POPC   D2A52084  25.311  40.831   6.755
 9604POPC   C3A52085  25.283  40.827   7.055
 9604POPC   C4A52086  25.254  40.797   7.355
 9604POPC   C1B52087  25.208  40.553   6.455
 9604POPC   C2B52088  25.146  40.564   6.755
 9604POPC   C3B52089  25.165  40.585   7.055
 9604POPC   C4B52090  25.217  40.537   7.355
 9605POPC   NC352091   3.495  33.015   5.555
 9605POPC   PO452092   3.531  33.005   5.855
 9605POPC   GL152093   3.555  32.998   6.155
 9605POPC   GL252094   3.517  33.126   6.155
 9605POPC   C1A52095   3.509  33.013   6.455
 9605POPC   D2A52096   3.575  33.045   6.755
 9605POPC   C3A52097   3.566  33.014   7.055
 9605POPC   C4A52098   3.554  33.036   7.355
 9605POPC   C1B52099   3.637  33.239   6.455
 9605POPC   C2B52100   3.582  33.301   6.755
 9605POPC   C3B52101   3.558  33.252   7.055
 9605POPC   C4B52102   3.542  33.264   7.355
 9606POPC   NC352103  11.323  26.047   5.555
 9606POPC   PO452104  11.317  26.038   5.855
 9606POPC   GL152105  11.285  26.047   6.155
 9606POPC   GL252106  11.354  26.161   6.155
 9606POPC   C1A52107  11.315  26.018   6.455
 9606POPC   D2A52108  11.308  26.088   6.755
 9606POPC   C3A52109  11.280  26.089   7.055
 9606POPC   C4A52110  11.267  26.017   7.355
 9606POPC   C1B52111  11.359  26.300   6.455
 9606POPC   C2B52112  11.416  26.292   6.755
 9606POPC   C3B52113  11.381  26.279   7.055
 9606POPC   C4B52114  11.375  26.279   7.355
 9607POPC   NC352115   5.123   8.230   5.555
 9607POPC   PO452116   5.050   8.165   5.855
 9607POPC   GL152117   5.125   8.190   6.155
 9607POPC   GL252118   5.210   8.155   6.155
 9607POPC   C1A52119   5.081   8.198   6.455
 9607POPC   D2A52120   5.134   8.223   6.755
 9607POPC   C3A52121   5.062   8.209   7.055
 9607POPC   C4A52122   5.060   8.224   7.355
 9607POPC   C1B52123   5.345   8.041   6.455
 9607POPC   C2B52124   5.326   8.083   6.755
 9607POPC   C3B52125   5.295   8.033   7.055
 9607POPC   C4B52126   5.351   8.093   7.355
 9608POPC   NC352127  17.488   2.767   5.555
 9608POPC   PO452128  17.491   2.757   5.855
 9608POPC   GL152129  17.495   2.769   6.155
 9608POPC   GL252130  17.452   2.909   6.155
 9608POPC   C1A52131  17.477   2.809   6.455
 9608POPC   D2A52132  17.491   2.757   6.755
 9608POPC   C3A52133  17.519   2.737   7.055
 9608POPC   C4A52134  17.545   2.753   7.355
 9608POPC   C1B52135  17.398   2.991   6.455
 9608POPC   C2B52136  17.361   2.976   6.755
 9608POPC   C3B52137  17.344   2.971   7.055
 9608POPC   C4B52138  17.398   3.005   7.355
 9609POPC   NC352139  37.702  29.095   5.555
 9609POPC   PO452140  37.717  29.176   5.855
 9609POPC   GL152141  37.661  29.109   6.155
 9609POPC   GL252142  37.631  29.008   6.155
 9609POPC   C1A52143  37.669  29.104   6.455
 9609POPC   D2A52144  37.689  29.161   6.755
 9609POPC   C3A52145  37.630  29.167   7.055
 9609POPC   C4A52146  37.663  29.171   7.355
 9609POPC   C1B52147  37.591  28.944   6.455
 9609POPC   C2B52148  37.637  28.864   6.755
 9609POPC   C3B52149  37.633  28.899   7.055
 9609POPC   C4B52150  37.575  28.912   7.355
 9610POPC   NC352151  36.870  36.145   5.555
 9610POPC   PO452152  36.884  36.136   5.855
 9610POPC   GL152153  36.885  36.110   6.155
 9610POPC   GL252154  36.777  36.191   6.155
 9610POPC   C1A52155  36.931  36.153   6.455
 9610POPC   D2A52156  36.900  36.145   6.755
 9610POPC   C3A52157  36.857  36.152   7.055
 9610POPC   C4A52158  36.859  36.095   7.355
 9610POPC   C1B52159  36.667  36.288   6.455
 9610POPC   C2B52160  36.745  36.221   6.755
 9610POPC   C3B52161  36.734  36.231   7.055
 9610POPC   C4B52162  36.665  36.290   7.355
 9611POPC   NC352163  26.026   0.482   5.555
 9611POPC   PO452164  26.029   0.389   5.855
 9611POPC   GL152165  26.043   0.394   6.155
 9611POPC   GL252166  26.036   0.361   6.155
 9611POPC   C1A52167  26.086   0.464   6.455
 9611POPC   D2A52168  26.038   0.389   6.755
 9611POPC   C3A52169  26.069   0.424   7.055
 9611POPC   C4A52170  26.007   0.425   7.355
 9611POPC   C1B52171  26.061   0.243   6.455
 9611POPC   C2B52172  26.106   0.229   6.755
 9611POPC   C3B52173  26.139   0.204   7.055
 9611POPC   C4B52174  26.115   0.206   7.355
 9612POPC   NC352175   9.715  42.343   5.555
 9612POPC   PO452176   9.796  42.319   5.855
 9612POPC   GL152177   9.759  42.325   6.155
 9612POPC   GL252178   9.667  42.406   6.155
 9612POPC   C1A52179   9.744  42.337   6.455
 9612POPC   D2A52180   9.717  42.345   6.755
 9612POPC   C3A52181   9.728  42.379   7.055
 9612POPC   C4A52182   9.797  42.298   7.355
 9612POPC   C1B52183   9.645  42.483   6.455
 9612POPC   C2B52184   9.589  42.558   6.755
 9612POPC   C3B52185   9.628  42.519   7.055
 9612POPC   C4B52186   9.560  42.501   7.355
 9613POPC   NC352187  43.860  21.379   5.555
 9613POPC   PO452188  43.873  21.356   5.855
 9613POPC   GL152189  43.926  21.421   6.155
 9613POPC   GL252190  43.986  21.440   6.155
 9613POPC   C1A52191  43.860  21.374   6.455
 9613POPC   D2A52192  43.907  21.413   6.755
 9613POPC   C3A52193  43.880  21.436   7.055
 9613POPC   C4A52194  43.839  21.340   7.355
 9613POPC   C1B52195  44.146  21.391   6.455
 9613POPC   C2B52196  44.092  21.470   6.755
 9613POPC   C3B52197  44.148  21.482   7.055
 9613POPC   C4B52198  44.153  21.440   7.355
 9614POPC   NC352199  22.950  34.564   5.555
 9614POPC   PO452200  22.925  34.599   5.855
 9614POPC   GL152201  22.951  34.609   6.155
 9614POPC   GL252202  22.823  34.649   6.155
 9614POPC   C1A52203  22.927  34.548   6.455
 9614POPC   D2A52204  22.951  34.610   6.755
 9614POPC   C3A52205  22.957  34.560   7.055
 9614POPC   C4A52206  22.917  34.545   7.355
 9614POPC   C1B52207  22.692  34.697   6.455
 9614POPC   C2B52208  22.687  34.642   6.755
 9614POPC   C3B52209  22.716  34.622   7.055
 9614POPC   C4B52210  22.728  34.668   7.355
 9615POPC   NC352211   6.647  35.334   5.555
 9615POPC   PO452212   6.635  35.380   5.855
 9615POPC   GL152213   6.635  35.366   6.155
 9615POPC   GL252214   6.541  35.407   6.155
 9615POPC   C1A52215   6.619  35.385   6.455
 9615POPC   D2A52216   6.661  35.348   6.755
 9615POPC   C3A52217   6.617  35.312   7.055
 9615POPC   C4A52218   6.653  35.325   7.355
 9615POPC   C1B52219   6.492  35.526   6.455
 9615POPC   C2B52220   6.508  35.565   6.755
 9615POPC   C3B52221   6.467  35.541   7.055
 9615POPC   C4B52222   6.529  35.529   7.355
 9616POPC   NC352223  33.005   9.743   5.555
 9616POPC   PO452224  33.009   9.788   5.855
 9616POPC   GL152225  33.021   9.726   6.155
 9616POPC   GL252226  32.975   9.816   6.155
 9616POPC   C1A52227  33.013   9.781   6.455
 9616POPC   D2A52228  33.032   9.729   6.755
 9616POPC   C3A52229  33.007   9.791   7.055
 9616POPC   C4A52230  33.062   9.716   7.355
 9616POPC   C1B52231  32.840  10.003   6.455
 9616POPC   C2B52232  32.935   9.910   6.755
 9616POPC   C3B52233  32.881   9.951   7.055
 9616POPC   C4B52234  32.858   9.944   7.355
 9617POPC   NC352235   5.107  35.373   5.555
 9617POPC   PO452236   5.119  35.349   5.855
 9617POPC   GL152237   5.094  35.365   6.155
 9617POPC   GL252238   5.011  35.250   6.155
 9617POPC   C1A52239   5.126  35.364   6.455
 9617POPC   D2A52240   5.107  35.365   6.755
 9617POPC   C3A52241   5.100  35.363   7.055
 9617POPC   C4A52242   5.051  35.356   7.355
 9617POPC   C1B52243   4.976  35.151   6.455
 9617POPC   C2B52244   4.991  35.087   6.755
 9617POPC   C3B52245   4.982  35.105   7.055
 9617POPC   C4B52246   5.001  35.119   7.355
 9618POPC   NC352247  33.759  36.856   5.555
 9618POPC   PO452248  33.761  36.891   5.855
 9618POPC   GL152249  33.824  36.936   6.155
 9618POPC   GL252250  33.725  36.756   6.155
 9618POPC   C1A52251  33.776  36.886   6.455
 9618POPC   D2A52252  33.826  36.865   6.755
 9618POPC   C3A52253  33.813  36.920   7.055
 9618POPC   C4A52254  33.782  36.938   7.355
 9618POPC   C1B52255  33.697  36.723   6.455
 9618POPC   C2B52256  33.629  36.662   6.755
 9618POPC   C3B52257  33.682  36.658   7.055
 9618POPC   C4B52258  33.676  36.694   7.355
 9619POPC   NC352259  40.021  12.083   5.555
 9619POPC   PO452260  39.999  12.115   5.855
 9619POPC   GL152261  39.993  12.031   6.155
 9619POPC   GL252262  39.906  11.996   6.155
 9619POPC   C1A52263  39.969  12.053   6.455
 9619POPC   D2A52264  39.980  12.097   6.755
 9619POPC   C3A52265  39.979  12.056   7.055
 9619POPC   C4A52266  39.994  12.039   7.355
 9619POPC   C1B52267  39.748  11.893   6.455
 9619POPC   C2B52268  39.756  11.910   6.755
 9619POPC   C3B52269  39.774  11.937   7.055
 9619POPC   C4B52270  39.777  11.916   7.355
 9620POPC   NC352271  20.600  38.416   5.555
 9620POPC   PO452272  20.587  38.501   5.855
 9620POPC   GL152273  20.616  38.454   6.155
 9620POPC   GL252274  20.515  38.299   6.155
 9620POPC   C1A52275  20.578  38.452   6.455
 9620POPC   D2A52276  20.571  38.426   6.755
 9620POPC   C3A52277  20.564  38.424   7.055
 9620POPC   C4A52278  20.599  38.415   7.355
 9620POPC   C1B52279  20.495  38.201   6.455
 9620POPC   C2B52280  20.544  38.240   6.755
 9620POPC   C3B52281  20.481  38.279   7.055
 9620POPC   C4B52282  20.527  38.202   7.355
 9621POPC   NC352283  10.546  39.229   5.555
 9621POPC   PO452284  10.510  39.191   5.855
 9621POPC   GL152285  10.553  39.199   6.155
 9621POPC   GL252286  10.599  39.166   6.155
 9621POPC   C1A52287  10.482  39.251   6.455
 9621POPC   D2A52288  10.551  39.228   6.755
 9621POPC   C3A52289  10.573  39.237   7.055
 9621POPC   C4A52290  10.530  39.220   7.355
 9621POPC   C1B52291  10.670  39.076   6.455
 9621POPC   C2B52292  10.732  39.036   6.755
 9621POPC   C3B52293  10.702  39.067   7.055
 9621POPC   C4B52294  10.696  39.112   7.355
 9622POPC   NC352295   6.642  40.017   5.555
 9622POPC   PO452296   6.651  40.026   5.855
 9622POPC   GL152297   6.675  39.957   6.155
 9622POPC   GL252298   6.585  40.059   6.155
 9622POPC   C1A52299   6.630  39.986   6.455
 9622POPC   D2A52300   6.626  40.030   6.755
 9622POPC   C3A52301   6.652  39.968   7.055
 9622POPC   C4A52302   6.627  40.025   7.355
 9622POPC   C1B52303   6.473  40.165   6.455
 9622POPC   C2B52304   6.517  40.217   6.755
 9622POPC   C3B52305   6.522  40.167   7.055
 9622POPC   C4B52306   6.479  40.197   7.355
 9623POPC   NC352307  39.957  19.825   5.555
 9623POPC   PO452308  39.984  19.807   5.855
 9623POPC   GL152309  40.043  19.820   6.155
 9623POPC   GL252310  39.954  19.905   6.155
 9623POPC   C1A52311  40.050  19.805   6.455
 9623POPC   D2A52312  39.969  19.851   6.755
 9623POPC   C3A52313  40.032  19.789   7.055
 9623POPC   C4A52314  40.002  19.818   7.355
 9623POPC   C1B52315  39.895  20.090   6.455
 9623POPC   C2B52316  39.889  20.027   6.755
 9623POPC   C3B52317  39.872  20.032   7.055
 9623POPC   C4B52318  39.918  20.063   7.355
 9624POPC   NC352319  14.431  40.793   5.555
 9624POPC   PO452320  14.400  40.802   5.855
 9624POPC   GL152321  14.439  40.749   6.155
 9624POPC   GL252322  14.316  40.863   6.155
 9624POPC   C1A52323  14.395  40.735   6.455
 9624POPC   D2A52324  14.364  40.807   6.755
 9624POPC   C3A52325  14.379  40.829   7.055
 9624POPC   C4A52326  14.380  40.823   7.355
 9624POPC   C1B52327  14.164  40.897   6.455
 9624POPC   C2B52328  14.205  40.878   6.755
 9624POPC   C3B52329  14.196  40.834   7.055
 9624POPC   C4B52330  14.129  40.874   7.355
 9625POPC   NC352331  11.333  20.581   5.555
 9625POPC   PO452332  11.256  20.616   5.855
 9625POPC   GL152333  11.345  20.645   6.155
 9625POPC   GL252334  11.181  20.646   6.155
 9625POPC   C1A52335  11.330  20.583   6.455
 9625POPC   D2A52336  11.307  20.593   6.755
 9625POPC   C3A52337  11.257  20.612   7.055
 9625POPC   C4A52338  11.318  20.635   7.355
 9625POPC   C1B52339  11.112  20.746   6.455
 9625POPC   C2B52340  11.062  20.657   6.755
 9625POPC   C3B52341  11.072  20.696   7.055
 9625POPC   C4B52342  11.066  20.750   7.355
 9626POPC   NC352343  15.180  41.539   5.555
 9626POPC   PO452344  15.190  41.523   5.855
 9626POPC   GL152345  15.136  41.573   6.155
 9626POPC   GL252346  15.089  41.455   6.155
 9626POPC   C1A52347  15.132  41.512   6.455
 9626POPC   D2A52348  15.191  41.537   6.755
 9626POPC   C3A52349  15.130  41.515   7.055
 9626POPC   C4A52350  15.205  41.608   7.355
 9626POPC   C1B52351  15.033  41.355   6.455
 9626POPC   C2B52352  15.077  41.355   6.755
 9626POPC   C3B52353  15.023  41.367   7.055
 9626POPC   C4B52354  15.034  41.299   7.355
 9627POPC   NC352355  39.208   7.466   5.555
 9627POPC   PO452356  39.197   7.437   5.855
 9627POPC   GL152357  39.203   7.451   6.155
 9627POPC   GL252358  39.199   7.504   6.155
 9627POPC   C1A52359  39.246   7.432   6.455
 9627POPC   D2A52360  39.264   7.441   6.755
 9627POPC   C3A52361  39.244   7.405   7.055
 9627POPC   C4A52362  39.184   7.457   7.355
 9627POPC   C1B52363  39.256   7.650   6.455
 9627POPC   C2B52364  39.226   7.679   6.755
 9627POPC   C3B52365  39.235   7.648   7.055
 9627POPC   C4B52366  39.271   7.698   7.355
 9628POPC   NC352367  34.532  44.648   5.555
 9628POPC   PO452368  34.541  44.702   5.855
 9628POPC   GL152369  34.527  44.712   6.155
 9628POPC   GL252370  34.462  44.704   6.155
 9628POPC   C1A52371  34.566  44.700   6.455
 9628POPC   D2A52372  34.574  44.651   6.755
 9628POPC   C3A52373  34.607  44.631   7.055
 9628POPC   C4A52374  34.582  44.683   7.355
 9628POPC   C1B52375  34.288  44.649   6.455
 9628POPC   C2B52376  34.299  44.686   6.755
 9628POPC   C3B52377  34.362  44.680   7.055
 9628POPC   C4B52378  34.282  44.685   7.355
 9629POPC   NC352379  15.992  14.438   5.555
 9629POPC   PO452380  15.977  14.417   5.855
 9629POPC   GL152381  15.957  14.387   6.155
 9629POPC   GL252382  15.829  14.373   6.155
 9629POPC   C1A52383  15.983  14.393   6.455
 9629POPC   D2A52384  15.940  14.376   6.755
 9629POPC   C3A52385  15.965  14.402   7.055
 9629POPC   C4A52386  15.979  14.401   7.355
 9629POPC   C1B52387  15.688  14.423   6.455
 9629POPC   C2B52388  15.665  14.363   6.755
 9629POPC   C3B52389  15.717  14.359   7.055
 9629POPC   C4B52390  15.724  14.357   7.355
 9630POPC   NC352391  32.263  35.367   5.555
 9630POPC   PO452392  32.218  35.344   5.855
 9630POPC   GL152393  32.287  35.356   6.155
 9630POPC   GL252394  32.361  35.421   6.155
 9630POPC   C1A52395  32.294  35.376   6.455
 9630POPC   D2A52396  32.213  35.365   6.755
 9630POPC   C3A52397  32.248  35.385   7.055
 9630POPC   C4A52398  32.223  35.392   7.355
 9630POPC   C1B52399  32.435  35.553   6.455
 9630POPC   C2B52400  32.440  35.565   6.755
 9630POPC   C3B52401  32.397  35.581   7.055
 9630POPC   C4B52402  32.425  35.542   7.355
 9631POPC   NC352403   8.150  22.939   5.555
 9631POPC   PO452404   8.198  22.891   5.855
 9631POPC   GL152405   8.201  22.960   6.155
 9631POPC   GL252406   8.363  22.979   6.155
 9631POPC   C1A52407   8.242  22.977   6.455
 9631POPC   D2A52408   8.161  22.917   6.755
 9631POPC   C3A52409   8.236  22.894   7.055
 9631POPC   C4A52410   8.211  22.925   7.355
 9631POPC   C1B52411   8.476  22.986   6.455
 9631POPC   C2B52412   8.400  22.936   6.755
 9631POPC   C3B52413   8.406  22.932   7.055
 9631POPC   C4B52414   8.458  22.978   7.355
 9632POPC   NC352415  37.656  17.480   5.555
 9632POPC   PO452416  37.659  17.524   5.855
 9632POPC   GL152417  37.657  17.505   6.155
 9632POPC   GL252418  37.600  17.449   6.155
 9632POPC   C1A52419  37.634  17.526   6.455
 9632POPC   D2A52420  37.661  17.518   6.755
 9632POPC   C3A52421  37.709  17.511   7.055
 9632POPC   C4A52422  37.721  17.548   7.355
 9632POPC   C1B52423  37.467  17.368   6.455
 9632POPC   C2B52424  37.545  17.305   6.755
 9632POPC   C3B52425  37.459  17.356   7.055
 9632POPC   C4B52426  37.518  17.344   7.355
 9633POPC   NC352427  16.710  16.717   5.555
 9633POPC   PO452428  16.700  16.746   5.855
 9633POPC   GL152429  16.732  16.694   6.155
 9633POPC   GL252430  16.853  16.809   6.155
 9633POPC   C1A52431  16.719  16.724   6.455
 9633POPC   D2A52432  16.684  16.741   6.755
 9633POPC   C3A52433  16.697  16.767   7.055
 9633POPC   C4A52434  16.730  16.710   7.355
 9633POPC   C1B52435  16.952  16.892   6.455
 9633POPC   C2B52436  16.979  16.840   6.755
 9633POPC   C3B52437  16.942  16.892   7.055
 9633POPC   C4B52438  16.917  16.838   7.355
 9634POPC   NC352439  17.529  28.391   5.555
 9634POPC   PO452440  17.476  28.382   5.855
 9634POPC   GL152441  17.547  28.357   6.155
 9634POPC   GL252442  17.660  28.414   6.155
 9634POPC   C1A52443  17.512  28.369   6.455
 9634POPC   D2A52444  17.554  28.349   6.755
 9634POPC   C3A52445  17.488  28.356   7.055
 9634POPC   C4A52446  17.543  28.381   7.355
 9634POPC   C1B52447  17.746  28.323   6.455
 9634POPC   C2B52448  17.782  28.383   6.755
 9634POPC   C3B52449  17.745  28.377   7.055
 9634POPC   C4B52450  17.751  28.334   7.355
 9635POPC   NC352451  41.549  32.285   5.555
 9635POPC   PO452452  41.559  32.235   5.855
 9635POPC   GL152453  41.592  32.296   6.155
 9635POPC   GL252454  41.488  32.319   6.155
 9635POPC   C1A52455  41.523  32.275   6.455
 9635POPC   D2A52456  41.517  32.284   6.755
 9635POPC   C3A52457  41.555  32.284   7.055
 9635POPC   C4A52458  41.531  32.270   7.355
 9635POPC   C1B52459  41.502  32.525   6.455
 9635POPC   C2B52460  41.517  32.446   6.755
 9635POPC   C3B52461  41.473  32.516   7.055
 9635POPC   C4B52462  41.500  32.465   7.355
 9636POPC   NC352463  37.677   5.114   5.555
 9636POPC   PO452464  37.691   5.104   5.855
 9636POPC   GL152465  37.682   5.135   6.155
 9636POPC   GL252466  37.619   4.975   6.155
 9636POPC   C1A52467  37.677   5.108   6.455
 9636POPC   D2A52468  37.719   5.137   6.755
 9636POPC   C3A52469  37.670   5.088   7.055
 9636POPC   C4A52470  37.698   5.099   7.355
 9636POPC   C1B52471  37.639   4.857   6.455
 9636POPC   C2B52472  37.610   4.827   6.755
 9636POPC   C3B52473  37.659   4.880   7.055
 9636POPC   C4B52474  37.612   4.892   7.355
 9637POPC   NC352475  10.482  38.412   5.555
 9637POPC   PO452476  10.561  38.449   5.855
 9637POPC   GL152477  10.498  38.418   6.155
 9637POPC   GL252478  10.501  38.608   6.155
 9637POPC   C1A52479  10.493  38.461   6.455
 9637POPC   D2A52480  10.559  38.430   6.755
 9637POPC   C3A52481  10.526  38.449   7.055
 9637POPC   C4A52482  10.505  38.449   7.355
 9637POPC   C1B52483  10.584  38.745   6.455
 9637POPC   C2B52484  10.579  38.714   6.755
 9637POPC   C3B52485  10.603  38.721   7.055
 9637POPC   C4B52486  10.529  38.720   7.355
 9638POPC   NC352487  30.654  25.223   5.555
 9638POPC   PO452488  30.660  25.267   5.855
 9638POPC   GL152489  30.722  25.311   6.155
 9638POPC   GL252490  30.770  25.356   6.155
 9638POPC   C1A52491  30.669  25.254   6.455
 9638POPC   D2A52492  30.692  25.301   6.755
 9638POPC   C3A52493  30.720  25.310   7.055
 9638POPC   C4A52494  30.707  25.235   7.355
 9638POPC   C1B52495  30.892  25.461   6.455
 9638POPC   C2B52496  30.833  25.444   6.755
 9638POPC   C3B52497  30.815  25.420   7.055
 9638POPC   C4B52498  30.858  25.487   7.355
 9639POPC   NC352499  40.755  13.672   5.555
 9639POPC   PO452500  40.817  13.578   5.855
 9639POPC   GL152501  40.763  13.632   6.155
 9639POPC   GL252502  40.830  13.474   6.155
 9639POPC   C1A52503  40.830  13.619   6.455
 9639POPC   D2A52504  40.809  13.612   6.755
 9639POPC   C3A52505  40.774  13.633   7.055
 9639POPC   C4A52506  40.813  13.632   7.355
 9639POPC   C1B52507  40.765  13.346   6.455
 9639POPC   C2B52508  40.785  13.422   6.755
 9639POPC   C3B52509  40.799  13.370   7.055
 9639POPC   C4B52510  40.772  13.393   7.355
 9640POPC   NC352511  37.669  36.093   5.555
 9640POPC   PO452512  37.693  36.128   5.855
 9640POPC   GL152513  37.672  36.148   6.155
 9640POPC   GL252514  37.785  36.139   6.155
 9640POPC   C1A52515  37.687  36.174   6.455
 9640POPC   D2A52516  37.690  36.128   6.755
 9640POPC   C3A52517  37.718  36.170   7.055
 9640POPC   C4A52518  37.721  36.153   7.355
 9640POPC   C1B52519  37.962  36.081   6.455
 9640POPC   C2B52520  37.962  36.071   6.755
 9640POPC   C3B52521  37.938  36.071   7.055
 9640POPC   C4B52522  37.900  36.137   7.355
 9641POPC   NC352523  36.116  37.682   5.555
 9641POPC   PO452524  36.086  37.670   5.855
 9641POPC   GL152525  36.141  37.672   6.155
 9641POPC   GL252526  36.203  37.839   6.155
 9641POPC   C1A52527  36.108  37.632   6.455
 9641POPC   D2A52528  36.138  37.671   6.755
 9641POPC   C3A52529  36.078  37.707   7.055
 9641POPC   C4A52530  36.102  37.644   7.355
 9641POPC   C1B52531  36.240  37.882   6.455
 9641POPC   C2B52532  36.214  37.883   6.755
 9641POPC   C3B52533  36.222  37.943   7.055
 9641POPC   C4B52534  36.225  37.897   7.355
 9642POPC   NC352535  27.567  11.286   5.555
 9642POPC   PO452536  27.601  11.261   5.855
 9642POPC   GL152537  27.615  11.252   6.155
 9642POPC   GL252538  27.598  11.173   6.155
 9642POPC   C1A52539  27.633  11.299   6.455
 9642POPC   D2A52540  27.617  11.298   6.755
 9642POPC   C3A52541  27.605  11.287   7.055
 9642POPC   C4A52542  27.609  11.276   7.355
 9642POPC   C1B52543  27.666  11.067   6.455
 9642POPC   C2B52544  27.726  11.087   6.755
 9642POPC   C3B52545  27.707  11.068   7.055
 9642POPC   C4B52546  27.695  11.046   7.355
 9643POPC   NC352547  18.254   5.068   5.555
 9643POPC   PO452548  18.278   5.089   5.855
 9643POPC   GL152549  18.254   5.102   6.155
 9643POPC   GL252550  18.410   5.020   6.155
 9643POPC   C1A52551  18.332   5.104   6.455
 9643POPC   D2A52552  18.247   5.059   6.755
 9643POPC   C3A52553  18.292   5.099   7.055
 9643POPC   C4A52554  18.246   5.053   7.355
 9643POPC   C1B52555  18.422   4.941   6.455
 9643POPC   C2B52556  18.491   4.906   6.755
 9643POPC   C3B52557  18.490   4.930   7.055
 9643POPC   C4B52558  18.448   4.935   7.355
 9644POPC   NC352559  27.555  42.309   5.555
 9644POPC   PO452560  27.631  42.365   5.855
 9644POPC   GL152561  27.601  42.336   6.155
 9644POPC   GL252562  27.483  42.419   6.155
 9644POPC   C1A52563  27.629  42.344   6.455
 9644POPC   D2A52564  27.605  42.354   6.755
 9644POPC   C3A52565  27.641  42.327   7.055
 9644POPC   C4A52566  27.626  42.286   7.355
 9644POPC   C1B52567  27.381  42.524   6.455
 9644POPC   C2B52568  27.343  42.517   6.755
 9644POPC   C3B52569  27.390  42.436   7.055
 9644POPC   C4B52570  27.405  42.516   7.355
 9645POPC   NC352571  36.905  22.173   5.555
 9645POPC   PO452572  36.888  22.165   5.855
 9645POPC   GL152573  36.933  22.191   6.155
 9645POPC   GL252574  36.828  22.195   6.155
 9645POPC   C1A52575  36.890  22.169   6.455
 9645POPC   D2A52576  36.865  22.192   6.755
 9645POPC   C3A52577  36.920  22.135   7.055
 9645POPC   C4A52578  36.855  22.200   7.355
 9645POPC   C1B52579  36.686  22.277   6.455
 9645POPC   C2B52580  36.656  22.272   6.755
 9645POPC   C3B52581  36.715  22.298   7.055
 9645POPC   C4B52582  36.710  22.237   7.355
 9646POPC   NC352583  39.957  33.766   5.555
 9646POPC   PO452584  40.044  33.755   5.855
 9646POPC   GL152585  40.027  33.775   6.155
 9646POPC   GL252586  39.875  33.728   6.155
 9646POPC   C1A52587  40.026  33.846   6.455
 9646POPC   D2A52588  39.999  33.800   6.755
 9646POPC   C3A52589  40.051  33.830   7.055
 9646POPC   C4A52590  40.039  33.844   7.355
 9646POPC   C1B52591  39.725  33.688   6.455
 9646POPC   C2B52592  39.794  33.683   6.755
 9646POPC   C3B52593  39.819  33.760   7.055
 9646POPC   C4B52594  39.800  33.737   7.355
 9647POPC   NC352595   8.172  28.339   5.555
 9647POPC   PO452596   8.230  28.319   5.855
 9647POPC   GL152597   8.217  28.348   6.155
 9647POPC   GL252598   8.047  28.328   6.155
 9647POPC   C1A52599   8.200  28.398   6.455
 9647POPC   D2A52600   8.241  28.411   6.755
 9647POPC   C3A52601   8.245  28.398   7.055
 9647POPC   C4A52602   8.219  28.324   7.355
 9647POPC   C1B52603   7.988  28.250   6.455
 9647POPC   C2B52604   7.995  28.218   6.755
 9647POPC   C3B52605   7.965  28.250   7.055
 9647POPC   C4B52606   7.962  28.206   7.355
 9648POPC   NC352607  43.114   1.214   5.555
 9648POPC   PO452608  43.099   1.191   5.855
 9648POPC   GL152609  43.135   1.262   6.155
 9648POPC   GL252610  43.120   1.090   6.155
 9648POPC   C1A52611  43.079   1.210   6.455
 9648POPC   D2A52612  43.120   1.226   6.755
 9648POPC   C3A52613  43.131   1.249   7.055
 9648POPC   C4A52614  43.140   1.187   7.355
 9648POPC   C1B52615  43.188   1.008   6.455
 9648POPC   C2B52616  43.228   0.943   6.755
 9648POPC   C3B52617  43.234   0.979   7.055
 9648POPC   C4B52618  43.181   0.948   7.355
 9649POPC   NC352619  24.453  37.656   5.555
 9649POPC   PO452620  24.503  37.690   5.855
 9649POPC   GL152621  24.486  37.722   6.155
 9649POPC   GL252622  24.640  37.736   6.155
 9649POPC   C1A52623  24.509  37.669   6.455
 9649POPC   D2A52624  24.460  37.654   6.755
 9649POPC   C3A52625  24.518  37.704   7.055
 9649POPC   C4A52626  24.510  37.692   7.355
 9649POPC   C1B52627  24.741  37.796   6.455
 9649POPC   C2B52628  24.728  37.794   6.755
 9649POPC   C3B52629  24.764  37.815   7.055
 9649POPC   C4B52630  24.756  37.782   7.355
 9650POPC   NC352631   6.622  30.683   5.555
 9650POPC   PO452632   6.614  30.680   5.855
 9650POPC   GL152633   6.676  30.724   6.155
 9650POPC   GL252634   6.572  30.654   6.155
 9650POPC   C1A52635   6.665  30.680   6.455
 9650POPC   D2A52636   6.635  30.714   6.755
 9650POPC   C3A52637   6.636  30.704   7.055
 9650POPC   C4A52638   6.661  30.727   7.355
 9650POPC   C1B52639   6.497  30.565   6.455
 9650POPC   C2B52640   6.457  30.571   6.755
 9650POPC   C3B52641   6.482  30.517   7.055
 9650POPC   C4B52642   6.452  30.531   7.355
 9651POPC   NC352643  15.203  18.278   5.555
 9651POPC   PO452644  15.190  18.263   5.855
 9651POPC   GL152645  15.219  18.302   6.155
 9651POPC   GL252646  15.285  18.220   6.155
 9651POPC   C1A52647  15.205  18.320   6.455
 9651POPC   D2A52648  15.174  18.312   6.755
 9651POPC   C3A52649  15.150  18.328   7.055
 9651POPC   C4A52650  15.207  18.272   7.355
 9651POPC   C1B52651  15.425  18.263   6.455
 9651POPC   C2B52652  15.415  18.245   6.755
 9651POPC   C3B52653  15.428  18.182   7.055
 9651POPC   C4B52654  15.402  18.210   7.355
 9652POPC   NC352655   6.609   9.016   5.555
 9652POPC   PO452656   6.658   8.987   5.855
 9652POPC   GL152657   6.624   8.950   6.155
 9652POPC   GL252658   6.494   8.925   6.155
 9652POPC   C1A52659   6.660   8.951   6.455
 9652POPC   D2A52660   6.623   8.938   6.755
 9652POPC   C3A52661   6.626   9.022   7.055
 9652POPC   C4A52662   6.598   8.930   7.355
 9652POPC   C1B52663   6.368   8.956   6.455
 9652POPC   C2B52664   6.373   9.003   6.755
 9652POPC   C3B52665   6.373   8.955   7.055
 9652POPC   C4B52666   6.419   8.937   7.355
 9653POPC   NC352667  35.310  11.259   5.555
 9653POPC   PO452668  35.377  11.262   5.855
 9653POPC   GL152669  35.369  11.324   6.155
 9653POPC   GL252670  35.240  11.259   6.155
 9653POPC   C1A52671  35.360  11.321   6.455
 9653POPC   D2A52672  35.393  11.340   6.755
 9653POPC   C3A52673  35.334  11.343   7.055
 9653POPC   C4A52674  35.399  11.259   7.355
 9653POPC   C1B52675  35.084  11.278   6.455
 9653POPC   C2B52676  35.095  11.287   6.755
 9653POPC   C3B52677  35.142  11.319   7.055
 9653POPC   C4B52678  35.059  11.228   7.355
 9654POPC   NC352679  15.924  26.048   5.555
 9654POPC   PO452680  15.982  26.089   5.855
 9654POPC   GL152681  15.968  25.994   6.155
 9654POPC   GL252682  15.877  26.100   6.155
 9654POPC   C1A52683  15.908  26.062   6.455
 9654POPC   D2A52684  15.968  26.086   6.755
 9654POPC   C3A52685  15.935  26.086   7.055
 9654POPC   C4A52686  15.934  26.088   7.355
 9654POPC   C1B52687  15.784  26.201   6.455
 9654POPC   C2B52688  15.748  26.192   6.755
 9654POPC   C3B52689  15.738  26.130   7.055
 9654POPC   C4B52690  15.782  26.214   7.355
 9655POPC   NC352691   3.581  15.136   5.555
 9655POPC   PO452692   3.531  15.193   5.855
 9655POPC   GL152693   3.571  15.222   6.155
 9655POPC   GL252694   3.628  15.057   6.155
 9655POPC   C1A52695   3.531  15.187   6.455
 9655POPC   D2A52696   3.549  15.214   6.755
 9655POPC   C3A52697   3.556  15.148   7.055
 9655POPC   C4A52698   3.531  15.156   7.355
 9655POPC   C1B52699   3.734  14.944   6.455
 9655POPC   C2B52700   3.638  14.969   6.755
 9655POPC   C3B52701   3.700  14.987   7.055
 9655POPC   C4B52702   3.659  14.998   7.355
 9656POPC   NC352703  36.144  25.259   5.555
 9656POPC   PO452704  36.119  25.269   5.855
 9656POPC   GL152705  36.083  25.275   6.155
 9656POPC   GL252706  36.111  25.172   6.155
 9656POPC   C1A52707  36.128  25.272   6.455
 9656POPC   D2A52708  36.114  25.234   6.755
 9656POPC   C3A52709  36.126  25.223   7.055
 9656POPC   C4A52710  36.125  25.252   7.355
 9656POPC   C1B52711  36.084  24.993   6.455
 9656POPC   C2B52712  36.043  24.997   6.755
 9656POPC   C3B52713  36.000  25.037   7.055
 9656POPC   C4B52714  36.044  25.016   7.355
 9657POPC   NC352715   1.958  24.497   5.555
 9657POPC   PO452716   1.958  24.518   5.855
 9657POPC   GL152717   1.980  24.466   6.155
 9657POPC   GL252718   2.122  24.415   6.155
 9657POPC   C1A52719   1.952  24.535   6.455
 9657POPC   D2A52720   1.977  24.483   6.755
 9657POPC   C3A52721   2.024  24.517   7.055
 9657POPC   C4A52722   1.941  24.498   7.355
 9657POPC   C1B52723   2.211  24.432   6.455
 9657POPC   C2B52724   2.253  24.375   6.755
 9657POPC   C3B52725   2.242  24.411   7.055
 9657POPC   C4B52726   2.231  24.379   7.355
 9658POPC   NC352727  44.675  23.665   5.555
 9658POPC   PO452728  44.628  23.720   5.855
 9658POPC   GL152729  44.675  23.749   6.155
 9658POPC   GL252730  44.566  23.846   6.155
 9658POPC   C1A52731  44.697  23.685   6.455
 9658POPC   D2A52732  44.664  23.717   6.755
 9658POPC   C3A52733  44.648  23.681   7.055
 9658POPC   C4A52734  44.657  23.721   7.355
 9658POPC   C1B52735  44.490  23.864   6.455
 9658POPC   C2B52736  44.509  23.939   6.755
 9658POPC   C3B52737  44.462  23.859   7.055
 9658POPC   C4B52738  44.531  23.897   7.355
 9659POPC   NC352739  17.528   6.606   5.555
 9659POPC   PO452740  17.504   6.619   5.855
 9659POPC   GL152741  17.476   6.650   6.155
 9659POPC   GL252742  17.470   6.783   6.155
 9659POPC   C1A52743  17.533   6.631   6.455
 9659POPC   D2A52744  17.554   6.646   6.755
 9659POPC   C3A52745  17.485   6.683   7.055
 9659POPC   C4A52746  17.532   6.683   7.355
 9659POPC   C1B52747  17.420   6.897   6.455
 9659POPC   C2B52748  17.419   6.918   6.755
 9659POPC   C3B52749  17.416   6.835   7.055
 9659POPC   C4B52750  17.461   6.907   7.355
 9660POPC   NC352751  35.313  44.625   5.555
 9660POPC   PO452752  35.388  44.662   5.855
 9660POPC   GL152753  35.330  44.708   6.155
 9660POPC   GL252754  35.466  44.670   6.155
 9660POPC   C1A52755  35.309  44.632   6.455
 9660POPC   D2A52756  35.306  44.622   6.755
 9660POPC   C3A52757  35.354  44.638   7.055
 9660POPC   C4A52758  35.322  44.664   7.355
 9660POPC   C1B52759  35.598  44.610   6.455
 9660POPC   C2B52760  35.606  44.679   6.755
 9660POPC   C3B52761  35.572  44.610   7.055
 9660POPC   C4B52762  35.554  44.628   7.355
 9661POPC   NC352763  16.702   5.827   5.555
 9661POPC   PO452764  16.722   5.859   5.855
 9661POPC   GL152765  16.726   5.840   6.155
 9661POPC   GL252766  16.793   5.956   6.155
 9661POPC   C1A52767  16.761   5.845   6.455
 9661POPC   D2A52768  16.725   5.825   6.755
 9661POPC   C3A52769  16.693   5.869   7.055
 9661POPC   C4A52770  16.739   5.829   7.355
 9661POPC   C1B52771  16.781   6.116   6.455
 9661POPC   C2B52772  16.756   6.117   6.755
 9661POPC   C3B52773  16.785   6.081   7.055
 9661POPC   C4B52774  16.769   6.098   7.355
 9662POPC   NC352775   5.881  12.026   5.555
 9662POPC   PO452776   5.838  12.082   5.855
 9662POPC   GL152777   5.833  12.053   6.155
 9662POPC   GL252778   5.752  12.036   6.155
 9662POPC   C1A52779   5.890  12.091   6.455
 9662POPC   D2A52780   5.832  12.124   6.755
 9662POPC   C3A52781   5.898  12.074   7.055
 9662POPC   C4A52782   5.888  12.027   7.355
 9662POPC   C1B52783   5.624  11.998   6.455
 9662POPC   C2B52784   5.669  11.947   6.755
 9662POPC   C3B52785   5.626  12.001   7.055
 9662POPC   C4B52786   5.594  11.986   7.355
 9663POPC   NC352787  31.470  24.481   5.555
 9663POPC   PO452788  31.467  24.513   5.855
 9663POPC   GL152789  31.514  24.440   6.155
 9663POPC   GL252790  31.350  24.473   6.155
 9663POPC   C1A52791  31.486  24.485   6.455
 9663POPC   D2A52792  31.454  24.490   6.755
 9663POPC   C3A52793  31.442  24.458   7.055
 9663POPC   C4A52794  31.468  24.522   7.355
 9663POPC   C1B52795  31.188  24.497   6.455
 9663POPC   C2B52796  31.260  24.578   6.755
 9663POPC   C3B52797  31.265  24.527   7.055
 9663POPC   C4B52798  31.178  24.539   7.355
 9664POPC   NC352799  36.913  28.366   5.555
 9664POPC   PO452800  36.885  28.332   5.855
 9664POPC   GL152801  36.892  28.378   6.155
 9664POPC   GL252802  36.906  28.291   6.155
 9664POPC   C1A52803  36.882  28.373   6.455
 9664POPC   D2A52804  36.878  28.335   6.755
 9664POPC   C3A52805  36.953  28.322   7.055
 9664POPC   C4A52806  36.921  28.346   7.355
 9664POPC   C1B52807  37.034  28.165   6.455
 9664POPC   C2B52808  37.016  28.142   6.755
 9664POPC   C3B52809  36.965  28.112   7.055
 9664POPC   C4B52810  37.027  28.187   7.355
 9665POPC   NC352811  33.827  41.558   5.555
 9665POPC   PO452812  33.799  41.571   5.855
 9665POPC   GL152813  33.834  41.515   6.155
 9665POPC   GL252814  33.915  41.519   6.155
 9665POPC   C1A52815  33.763  41.602   6.455
 9665POPC   D2A52816  33.787  41.574   6.755
 9665POPC   C3A52817  33.819  41.518   7.055
 9665POPC   C4A52818  33.847  41.517   7.355
 9665POPC   C1B52819  34.015  41.541   6.455
 9665POPC   C2B52820  34.037  41.525   6.755
 9665POPC   C3B52821  34.052  41.529   7.055
 9665POPC   C4B52822  34.059  41.463   7.355
 9666POPC   NC352823  35.386  13.586   5.555
 9666POPC   PO452824  35.322  13.675   5.855
 9666POPC   GL152825  35.366  13.624   6.155
 9666POPC   GL252826  35.333  13.777   6.155
 9666POPC   C1A52827  35.397  13.674   6.455
 9666POPC   D2A52828  35.333  13.581   6.755
 9666POPC   C3A52829  35.326  13.665   7.055
 9666POPC   C4A52830  35.368  13.633   7.355
 9666POPC   C1B52831  35.261  13.827   6.455
 9666POPC   C2B52832  35.321  13.881   6.755
 9666POPC   C3B52833  35.265  13.836   7.055
 9666POPC   C4B52834  35.288  13.857   7.355
 9667POPC   NC352835  39.260  42.370   5.555
 9667POPC   PO452836  39.251  42.312   5.855
 9667POPC   GL152837  39.181  42.351   6.155
 9667POPC   GL252838  39.395  42.333   6.155
 9667POPC   C1A52839  39.272  42.310   6.455
 9667POPC   D2A52840  39.280  42.289   6.755
 9667POPC   C3A52841  39.252  42.336   7.055
 9667POPC   C4A52842  39.239  42.311   7.355
 9667POPC   C1B52843  39.459  42.223   6.455
 9667POPC   C2B52844  39.515  42.245   6.755
 9667POPC   C3B52845  39.472  42.285   7.055
 9667POPC   C4B52846  39.455  42.240   7.355
 9668POPC   NC352847  16.766   2.738   5.555
 9668POPC   PO452848  16.736   2.791   5.855
 9668POPC   GL152849  16.771   2.801   6.155
 9668POPC   GL252850  16.895   2.689   6.155
 9668POPC   C1A52851  16.709   2.782   6.455
 9668POPC   D2A52852  16.682   2.730   6.755
 9668POPC   C3A52853  16.779   2.802   7.055
 9668POPC   C4A52854  16.752   2.797   7.355
 9668POPC   C1B52855  16.945   2.669   6.455
 9668POPC   C2B52856  16.931   2.729   6.755
 9668POPC   C3B52857  16.955   2.654   7.055
 9668POPC   C4B52858  16.923   2.722   7.355
 9669POPC   NC352859   1.973   5.904   5.555
 9669POPC   PO452860   1.957   5.899   5.855
 9669POPC   GL152861   1.992   5.854   6.155
 9669POPC   GL252862   2.067   5.770   6.155
 9669POPC   C1A52863   2.007   5.848   6.455
 9669POPC   D2A52864   2.040   5.885   6.755
 9669POPC   C3A52865   1.967   5.860   7.055
 9669POPC   C4A52866   1.981   5.851   7.355
 9669POPC   C1B52867   2.117   5.644   6.455
 9669POPC   C2B52868   2.092   5.667   6.755
 9669POPC   C3B52869   2.104   5.649   7.055
 9669POPC   C4B52870   2.139   5.605   7.355
 9670POPC   NC352871   2.776  42.360   5.555
 9670POPC   PO452872   2.720  42.376   5.855
 9670POPC   GL152873   2.765  42.287   6.155
 9670POPC   GL252874   2.814  42.171   6.155
 9670POPC   C1A52875   2.739  42.377   6.455
 9670POPC   D2A52876   2.754  42.366   6.755
 9670POPC   C3A52877   2.769  42.384   7.055
 9670POPC   C4A52878   2.718  42.291   7.355
 9670POPC   C1B52879   2.790  42.082   6.455
 9670POPC   C2B52880   2.852  42.089   6.755
 9670POPC   C3B52881   2.814  42.074   7.055
 9670POPC   C4B52882   2.858  42.054   7.355
 9671POPC   NC352883   6.677   0.407   5.555
 9671POPC   PO452884   6.634   0.436   5.855
 9671POPC   GL152885   6.625   0.477   6.155
 9671POPC   GL252886   6.704   0.311   6.155
 9671POPC   C1A52887   6.633   0.440   6.455
 9671POPC   D2A52888   6.668   0.426   6.755
 9671POPC   C3A52889   6.646   0.441   7.055
 9671POPC   C4A52890   6.639   0.449   7.355
 9671POPC   C1B52891   6.862   0.222   6.455
 9671POPC   C2B52892   6.774   0.283   6.755
 9671POPC   C3B52893   6.839   0.231   7.055
 9671POPC   C4B52894   6.857   0.258   7.355
 9672POPC   NC352895  15.906  44.663   5.555
 9672POPC   PO452896  16.005  44.638   5.855
 9672POPC   GL152897  15.911  44.691   6.155
 9672POPC   GL252898  16.055  44.660   6.155
 9672POPC   C1A52899  15.964  44.618   6.455
 9672POPC   D2A52900  15.972  44.705   6.755
 9672POPC   C3A52901  15.918  44.629   7.055
 9672POPC   C4A52902  15.955  44.629   7.355
 9672POPC   C1B52903  16.212  44.609   6.455
 9672POPC   C2B52904  16.182  44.530   6.755
 9672POPC   C3B52905  16.145  44.548   7.055
 9672POPC   C4B52906  16.143  44.624   7.355
 9673POPC   NC352907  11.306  11.282   5.555
 9673POPC   PO452908  11.279  11.326   5.855
 9673POPC   GL152909  11.331  11.254   6.155
 9673POPC   GL252910  11.255  11.161   6.155
 9673POPC   C1A52911  11.318  11.305   6.455
 9673POPC   D2A52912  11.279  11.311   6.755
 9673POPC   C3A52913  11.290  11.272   7.055
 9673POPC   C4A52914  11.291  11.277   7.355
 9673POPC   C1B52915  11.093  11.156   6.455
 9673POPC   C2B52916  11.180  11.153   6.755
 9673POPC   C3B52917  11.154  11.137   7.055
 9673POPC   C4B52918  11.133  11.100   7.355
 9674POPC   NC352919  15.912   1.945   5.555
 9674POPC   PO452920  15.946   2.000   5.855
 9674POPC   GL152921  15.991   2.013   6.155
 9674POPC   GL252922  15.893   2.097   6.155
 9674POPC   C1A52923  15.960   1.965   6.455
 9674POPC   D2A52924  15.959   1.952   6.755
 9674POPC   C3A52925  15.962   2.036   7.055
 9674POPC   C4A52926  15.966   1.984   7.355
 9674POPC   C1B52927  15.871   2.194   6.455
 9674POPC   C2B52928  15.859   2.180   6.755
 9674POPC   C3B52929  15.858   2.172   7.055
 9674POPC   C4B52930  15.833   2.247   7.355
 9675POPC   NC352931  37.649  20.621   5.555
 9675POPC   PO452932  37.663  20.592   5.855
 9675POPC   GL152933  37.706  20.617   6.155
 9675POPC   GL252934  37.605  20.650   6.155
 9675POPC   C1A52935  37.697  20.656   6.455
 9675POPC   D2A52936  37.692  20.568   6.755
 9675POPC   C3A52937  37.651  20.578   7.055
 9675POPC   C4A52938  37.696  20.627   7.355
 9675POPC   C1B52939  37.532  20.798   6.455
 9675POPC   C2B52940  37.536  20.768   6.755
 9675POPC   C3B52941  37.449  20.794   7.055
 9675POPC   C4B52942  37.485  20.775   7.355
 9676POPC   NC352943  37.662   6.606   5.555
 9676POPC   PO452944  37.716   6.607   5.855
 9676POPC   GL152945  37.670   6.654   6.155
 9676POPC   GL252946  37.595   6.548   6.155
 9676POPC   C1A52947  37.661   6.660   6.455
 9676POPC   D2A52948  37.695   6.661   6.755
 9676POPC   C3A52949  37.711   6.622   7.055
 9676POPC   C4A52950  37.654   6.652   7.355
 9676POPC   C1B52951  37.473   6.541   6.455
 9676POPC   C2B52952  37.487   6.562   6.755
 9676POPC   C3B52953  37.411   6.584   7.055
 9676POPC   C4B52954  37.455   6.579   7.355
 9677POPC   NC352955   0.399   9.700   5.555
 9677POPC   PO452956   0.409   9.764   5.855
 9677POPC   GL152957   0.393   9.798   6.155
 9677POPC   GL252958   0.308   9.677   6.155
 9677POPC   C1A52959   0.421   9.715   6.455
 9677POPC   D2A52960   0.450   9.760   6.755
 9677POPC   C3A52961   0.409   9.732   7.055
 9677POPC   C4A52962   0.392   9.798   7.355
 9677POPC   C1B52963   0.234   9.618   6.455
 9677POPC   C2B52964   0.193   9.675   6.755
 9677POPC   C3B52965   0.212   9.677   7.055
 9677POPC   C4B52966   0.244   9.639   7.355
 9678POPC   NC352967  44.671  34.545   5.555
 9678POPC   PO452968  44.652  34.586   5.855
 9678POPC   GL152969  44.612  34.610   6.155
 9678POPC   GL252970  44.662  34.441   6.155
 9678POPC   C1A52971  44.649  34.611   6.455
 9678POPC   D2A52972  44.688  34.608   6.755
 9678POPC   C3A52973  44.639  34.626   7.055
 9678POPC   C4A52974  44.691  34.589   7.355
 9678POPC   C1B52975  44.623  34.384   6.455
 9678POPC   C2B52976  44.584  34.366   6.755
 9678POPC   C3B52977  44.565  34.344   7.055
 9678POPC   C4B52978  44.601  34.325   7.355
 9679POPC   NC352979  43.121  21.405   5.555
 9679POPC   PO452980  43.103  21.388   5.855
 9679POPC   GL152981  43.101  21.377   6.155
 9679POPC   GL252982  43.225  21.354   6.155
 9679POPC   C1A52983  43.131  21.385   6.455
 9679POPC   D2A52984  43.155  21.381   6.755
 9679POPC   C3A52985  43.152  21.352   7.055
 9679POPC   C4A52986  43.065  21.374   7.355
 9679POPC   C1B52987  43.273  21.270   6.455
 9679POPC   C2B52988  43.338  21.199   6.755
 9679POPC   C3B52989  43.281  21.205   7.055
 9679POPC   C4B52990  43.292  21.204   7.355
 9680POPC   NC352991   5.078   6.644   5.555
 9680POPC   PO452992   5.068   6.605   5.855
 9680POPC   GL152993   5.115   6.688   6.155
 9680POPC   GL252994   5.207   6.734   6.155
 9680POPC   C1A52995   5.094   6.644   6.455
 9680POPC   D2A52996   5.099   6.605   6.755
 9680POPC   C3A52997   5.103   6.616   7.055
 9680POPC   C4A52998   5.133   6.609   7.355
 9680POPC   C1B52999   5.301   6.782   6.455
 9680POPC   C2B53000   5.343   6.732   6.755
 9680POPC   C3B53001   5.276   6.751   7.055
 9680POPC   C4B53002   5.351   6.710   7.355
 9681POPC   NC353003   1.223  22.175   5.555
 9681POPC   PO453004   1.254  22.205   5.855
 9681POPC   GL153005   1.242  22.184   6.155
 9681POPC   GL253006   1.267  22.030   6.155
 9681POPC   C1A53007   1.202  22.163   6.455
 9681POPC   D2A53008   1.236  22.200   6.755
 9681POPC   C3A53009   1.248  22.179   7.055
 9681POPC   C4A53010   1.174  22.135   7.355
 9681POPC   C1B53011   1.289  21.884   6.455
 9681POPC   C2B53012   1.253  21.956   6.755
 9681POPC   C3B53013   1.257  21.973   7.055
 9681POPC   C4B53014   1.266  21.901   7.355
 9682POPC   NC353015  15.139  21.366   5.555
 9682POPC   PO453016  15.155  21.368   5.855
 9682POPC   GL153017  15.137  21.414   6.155
 9682POPC   GL253018  15.057  21.335   6.155
 9682POPC   C1A53019  15.175  21.408   6.455
 9682POPC   D2A53020  15.187  21.369   6.755
 9682POPC   C3A53021  15.138  21.406   7.055
 9682POPC   C4A53022  15.223  21.385   7.355
 9682POPC   C1B53023  14.908  21.331   6.455
 9682POPC   C2B53024  14.989  21.305   6.755
 9682POPC   C3B53025  14.899  21.245   7.055
 9682POPC   C4B53026  14.908  21.275   7.355
 9683POPC   NC353027  39.206  24.454   5.555
 9683POPC   PO453028  39.249  24.520   5.855
 9683POPC   GL153029  39.244  24.466   6.155
 9683POPC   GL253030  39.276  24.335   6.155
 9683POPC   C1A53031  39.196  24.474   6.455
 9683POPC   D2A53032  39.182  24.474   6.755
 9683POPC   C3A53033  39.231  24.449   7.055
 9683POPC   C4A53034  39.203  24.501   7.355
 9683POPC   C1B53035  39.346  24.257   6.455
 9683POPC   C2B53036  39.296  24.258   6.755
 9683POPC   C3B53037  39.342  24.311   7.055
 9683POPC   C4B53038  39.331  24.292   7.355
 9684POPC   NC353039  34.570  29.892   5.555
 9684POPC   PO453040  34.554  29.885   5.855
 9684POPC   GL153041  34.574  29.945   6.155
 9684POPC   GL253042  34.567  30.073   6.155
 9684POPC   C1A53043  34.528  29.890   6.455
 9684POPC   D2A53044  34.582  29.892   6.755
 9684POPC   C3A53045  34.621  29.909   7.055
 9684POPC   C4A53046  34.592  29.903   7.355
 9684POPC   C1B53047  34.532  30.122   6.455
 9684POPC   C2B53048  34.518  30.200   6.755
 9684POPC   C3B53049  34.508  30.138   7.055
 9684POPC   C4B53050  34.584  30.175   7.355
 9685POPC   NC353051   1.244  43.870   5.555
 9685POPC   PO453052   1.219  43.842   5.855
 9685POPC   GL153053   1.178  43.917   6.155
 9685POPC   GL253054   1.062  43.812   6.155
 9685POPC   C1A53055   1.207  43.907   6.455
 9685POPC   D2A53056   1.238  43.856   6.755
 9685POPC   C3A53057   1.252  43.918   7.055
 9685POPC   C4A53058   1.249  43.854   7.355
 9685POPC   C1B53059   0.956  43.850   6.455
 9685POPC   C2B53060   0.981  43.839   6.755
 9685POPC   C3B53061   0.950  43.781   7.055
 9685POPC   C4B53062   0.940  43.767   7.355
 9686POPC   NC353063  34.530   3.529   5.555
 9686POPC   PO453064  34.542   3.513   5.855
 9686POPC   GL153065  34.527   3.519   6.155
 9686POPC   GL253066  34.473   3.601   6.155
 9686POPC   C1A53067  34.585   3.503   6.455
 9686POPC   D2A53068  34.579   3.535   6.755
 9686POPC   C3A53069  34.577   3.521   7.055
 9686POPC   C4A53070  34.625   3.515   7.355
 9686POPC   C1B53071  34.449   3.705   6.455
 9686POPC   C2B53072  34.405   3.754   6.755
 9686POPC   C3B53073  34.448   3.757   7.055
 9686POPC   C4B53074  34.401   3.729   7.355
 9687POPC   NC353075  15.203   3.550   5.555
 9687POPC   PO453076  15.165   3.518   5.855
 9687POPC   GL153077  15.195   3.559   6.155
 9687POPC   GL253078  15.062   3.688   6.155
 9687POPC   C1A53079  15.153   3.538   6.455
 9687POPC   D2A53080  15.168   3.514   6.755
 9687POPC   C3A53081  15.188   3.544   7.055
 9687POPC   C4A53082  15.130   3.549   7.355
 9687POPC   C1B53083  15.075   3.762   6.455
 9687POPC   C2B53084  14.997   3.742   6.755
 9687POPC   C3B53085  15.068   3.711   7.055
 9687POPC   C4B53086  15.026   3.731   7.355
 9688POPC   NC353087  39.215   5.093   5.555
 9688POPC   PO453088  39.191   5.045   5.855
 9688POPC   GL153089  39.188   5.045   6.155
 9688POPC   GL253090  39.378   5.174   6.155
 9688POPC   C1A53091  39.194   5.059   6.455
 9688POPC   D2A53092  39.193   5.070   6.755
 9688POPC   C3A53093  39.192   5.110   7.055
 9688POPC   C4A53094  39.220   5.119   7.355
 9688POPC   C1B53095  39.451   5.218   6.455
 9688POPC   C2B53096  39.461   5.234   6.755
 9688POPC   C3B53097  39.417   5.173   7.055
 9688POPC   C4B53098  39.499   5.236   7.355
 9689POPC   NC353099   4.304  41.509   5.555
 9689POPC   PO453100   4.314  41.580   5.855
 9689POPC   GL153101   4.274  41.606   6.155
 9689POPC   GL253102   4.455  41.511   6.155
 9689POPC   C1A53103   4.277  41.513   6.455
 9689POPC   D2A53104   4.303  41.580   6.755
 9689POPC   C3A53105   4.326  41.543   7.055
 9689POPC   C4A53106   4.323  41.515   7.355
 9689POPC   C1B53107   4.559  41.507   6.455
 9689POPC   C2B53108   4.592  41.500   6.755
 9689POPC   C3B53109   4.556  41.527   7.055
 9689POPC   C4B53110   4.537  41.470   7.355
 9690POPC   NC353111  29.139  39.254   5.555
 9690POPC   PO453112  29.106  39.280   5.855
 9690POPC   GL153113  29.189  39.269   6.155
 9690POPC   GL253114  29.101  39.164   6.155
 9690POPC   C1A53115  29.165  39.254   6.455
 9690POPC   D2A53116  29.157  39.204   6.755
 9690POPC   C3A53117  29.193  39.197   7.055
 9690POPC   C4A53118  29.119  39.279   7.355
 9690POPC   C1B53119  29.060  38.997   6.455
 9690POPC   C2B53120  29.045  39.010   6.755
 9690POPC   C3B53121  29.034  38.968   7.055
 9690POPC   C4B53122  29.046  39.025   7.355
 9691POPC   NC353123  21.400   8.237   5.555
 9691POPC   PO453124  21.431   8.213   5.855
 9691POPC   GL153125  21.404   8.205   6.155
 9691POPC   GL253126  21.405   8.103   6.155
 9691POPC   C1A53127  21.421   8.173   6.455
 9691POPC   D2A53128  21.390   8.215   6.755
 9691POPC   C3A53129  21.398   8.149   7.055
 9691POPC   C4A53130  21.385   8.181   7.355
 9691POPC   C1B53131  21.405   7.943   6.455
 9691POPC   C2B53132  21.394   7.938   6.755
 9691POPC   C3B53133  21.373   7.901   7.055
 9691POPC   C4B53134  21.350   7.958   7.355
 9692POPC   NC353135  42.343  36.099   5.555
 9692POPC   PO453136  42.316  36.112   5.855
 9692POPC   GL153137  42.301  36.118   6.155
 9692POPC   GL253138  42.331  36.015   6.155
 9692POPC   C1A53139  42.360  36.112   6.455
 9692POPC   D2A53140  42.339  36.113   6.755
 9692POPC   C3A53141  42.336  36.094   7.055
 9692POPC   C4A53142  42.353  36.119   7.355
 9692POPC   C1B53143  42.247  35.875   6.455
 9692POPC   C2B53144  42.310  35.897   6.755
 9692POPC   C3B53145  42.283  35.841   7.055
 9692POPC   C4B53146  42.279  35.839   7.355
 9693POPC   NC353147   4.322  18.255   5.555
 9693POPC   PO453148   4.313  18.327   5.855
 9693POPC   GL153149   4.360  18.249   6.155
 9693POPC   GL253150   4.454  18.254   6.155
 9693POPC   C1A53151   4.299  18.283   6.455
 9693POPC   D2A53152   4.291  18.283   6.755
 9693POPC   C3A53153   4.349  18.277   7.055
 9693POPC   C4A53154   4.278  18.290   7.355
 9693POPC   C1B53155   4.582  18.143   6.455
 9693POPC   C2B53156   4.502  18.190   6.755
 9693POPC   C3B53157   4.571  18.138   7.055
 9693POPC   C4B53158   4.561  18.129   7.355
 9694POPC   NC353159  14.395  19.845   5.555
 9694POPC   PO453160  14.440  19.809   5.855
 9694POPC   GL153161  14.422  19.830   6.155
 9694POPC   GL253162  14.244  19.892   6.155
 9694POPC   C1A53163  14.386  19.785   6.455
 9694POPC   D2A53164  14.451  19.869   6.755
 9694POPC   C3A53165  14.355  19.850   7.055
 9694POPC   C4A53166  14.396  19.838   7.355
 9694POPC   C1B53167  14.154  19.928   6.455
 9694POPC   C2B53168  14.147  19.921   6.755
 9694POPC   C3B53169  14.172  19.938   7.055
 9694POPC   C4B53170  14.178  19.895   7.355
 9695POPC   NC353171  36.876  26.826   5.555
 9695POPC   PO453172  36.948  26.834   5.855
 9695POPC   GL153173  36.874  26.798   6.155
 9695POPC   GL253174  36.919  26.898   6.155
 9695POPC   C1A53175  36.891  26.811   6.455
 9695POPC   D2A53176  36.912  26.853   6.755
 9695POPC   C3A53177  36.932  26.848   7.055
 9695POPC   C4A53178  36.918  26.828   7.355
 9695POPC   C1B53179  36.882  27.067   6.455
 9695POPC   C2B53180  36.882  27.085   6.755
 9695POPC   C3B53181  36.917  27.102   7.055
 9695POPC   C4B53182  36.842  27.058   7.355
 9696POPC   NC353183   3.494   8.172   5.555
 9696POPC   PO453184   3.518   8.186   5.855
 9696POPC   GL153185   3.587   8.151   6.155
 9696POPC   GL253186   3.625   8.069   6.155
 9696POPC   C1A53187   3.566   8.228   6.455
 9696POPC   D2A53188   3.590   8.215   6.755
 9696POPC   C3A53189   3.537   8.211   7.055
 9696POPC   C4A53190   3.581   8.157   7.355
 9696POPC   C1B53191   3.601   8.003   6.455
 9696POPC   C2B53192   3.692   8.004   6.755
 9696POPC   C3B53193   3.655   7.918   7.055
 9696POPC   C4B53194   3.632   7.962   7.355
 9697POPC   NC353195  10.496  16.686   5.555
 9697POPC   PO453196  10.535  16.697   5.855
 9697POPC   GL153197  10.567  16.733   6.155
 9697POPC   GL253198  10.415  16.705   6.155
 9697POPC   C1A53199  10.550  16.688   6.455
 9697POPC   D2A53200  10.520  16.749   6.755
 9697POPC   C3A53201  10.530  16.720   7.055
 9697POPC   C4A53202  10.482  16.717   7.355
 9697POPC   C1B53203  10.307  16.800   6.455
 9697POPC   C2B53204  10.251  16.754   6.755
 9697POPC   C3B53205  10.278  16.798   7.055
 9697POPC   C4B53206  10.312  16.738   7.355
 9698POPC   NC353207  12.113  43.877   5.555
 9698POPC   PO453208  12.107  43.882   5.855
 9698POPC   GL153209  12.046  43.929   6.155
 9698POPC   GL253210  11.960  43.830   6.155
 9698POPC   C1A53211  12.111  43.879   6.455
 9698POPC   D2A53212  12.070  43.914   6.755
 9698POPC   C3A53213  12.063  43.907   7.055
 9698POPC   C4A53214  12.034  43.857   7.355
 9698POPC   C1B53215  11.818  43.794   6.455
 9698POPC   C2B53216  11.892  43.784   6.755
 9698POPC   C3B53217  11.859  43.748   7.055
 9698POPC   C4B53218  11.858  43.746   7.355
 9699POPC   NC353219  39.997  32.285   5.555
 9699POPC   PO453220  40.043  32.281   5.855
 9699POPC   GL153221  39.977  32.291   6.155
 9699POPC   GL253222  39.876  32.238   6.155
 9699POPC   C1A53223  40.004  32.203   6.455
 9699POPC   D2A53224  39.982  32.283   6.755
 9699POPC   C3A53225  40.043  32.233   7.055
 9699POPC   C4A53226  40.035  32.245   7.355
 9699POPC   C1B53227  39.804  32.261   6.455
 9699POPC   C2B53228  39.770  32.185   6.755
 9699POPC   C3B53229  39.782  32.262   7.055
 9699POPC   C4B53230  39.739  32.195   7.355
 9700POPC   NC353231  26.854  23.762   5.555
 9700POPC   PO453232  26.814  23.669   5.855
 9700POPC   GL153233  26.796  23.680   6.155
 9700POPC   GL253234  26.753  23.786   6.155
 9700POPC   C1A53235  26.773  23.734   6.455
 9700POPC   D2A53236  26.807  23.705   6.755
 9700POPC   C3A53237  26.794  23.711   7.055
 9700POPC   C4A53238  26.780  23.731   7.355
 9700POPC   C1B53239  26.577  23.818   6.455
 9700POPC   C2B53240  26.554  23.867   6.755
 9700POPC   C3B53241  26.632  23.845   7.055
 9700POPC   C4B53242  26.625  23.883   7.355
 9701POPC   NC353243  32.236  36.173   5.555
 9701POPC   PO453244  32.249  36.171   5.855
 9701POPC   GL153245  32.249  36.105   6.155
 9701POPC   GL253246  32.224  35.996   6.155
 9701POPC   C1A53247  32.298  36.150   6.455
 9701POPC   D2A53248  32.264  36.147   6.755
 9701POPC   C3A53249  32.215  36.095   7.055
 9701POPC   C4A53250  32.235  36.137   7.355
 9701POPC   C1B53251  32.209  35.905   6.455
 9701POPC   C2B53252  32.217  35.910   6.755
 9701POPC   C3B53253  32.223  35.848   7.055
 9701POPC   C4B53254  32.254  35.904   7.355
 9702POPC   NC353255  16.715  44.636   5.555
 9702POPC   PO453256  16.720  44.710   5.855
 9702POPC   GL153257  16.740  44.655   6.155
 9702POPC   GL253258  16.882  44.607   6.155
 9702POPC   C1A53259  16.748  44.635   6.455
 9702POPC   D2A53260  16.772  44.666   6.755
 9702POPC   C3A53261  16.695  44.680   7.055
 9702POPC   C4A53262  16.756  44.635   7.355
 9702POPC   C1B53263  17.001  44.528   6.455
 9702POPC   C2B53264  16.968  44.556   6.755
 9702POPC   C3B53265  17.007  44.538   7.055
 9702POPC   C4B53266  16.969  44.595   7.355
 9703POPC   NC353267   3.544  21.337   5.555
 9703POPC   PO453268   3.544  21.388   5.855
 9703POPC   GL153269   3.524  21.351   6.155
 9703POPC   GL253270   3.504  21.453   6.155
 9703POPC   C1A53271   3.506  21.382   6.455
 9703POPC   D2A53272   3.555  21.409   6.755
 9703POPC   C3A53273   3.504  21.376   7.055
 9703POPC   C4A53274   3.550  21.408   7.355
 9703POPC   C1B53275   3.437  21.608   6.455
 9703POPC   C2B53276   3.480  21.637   6.755
 9703POPC   C3B53277   3.388  21.566   7.055
 9703POPC   C4B53278   3.400  21.573   7.355
 9704POPC   NC353279   0.394  42.342   5.555
 9704POPC   PO453280   0.476  42.346   5.855
 9704POPC   GL153281   0.413  42.343   6.155
 9704POPC   GL253282   0.317  42.223   6.155
 9704POPC   C1A53283   0.450  42.304   6.455
 9704POPC   D2A53284   0.487  42.370   6.755
 9704POPC   C3A53285   0.427  42.357   7.055
 9704POPC   C4A53286   0.392  42.358   7.355
 9704POPC   C1B53287   0.209  42.221   6.455
 9704POPC   C2B53288   0.197  42.221   6.755
 9704POPC   C3B53289   0.261  42.224   7.055
 9704POPC   C4B53290   0.194  42.188   7.355
 9705POPC   NC353291  16.771  32.296   5.555
 9705POPC   PO453292  16.765  32.267   5.855
 9705POPC   GL153293  16.698  32.283   6.155
 9705POPC   GL253294  16.855  32.307   6.155
 9705POPC   C1A53295  16.710  32.248   6.455
 9705POPC   D2A53296  16.686  32.214   6.755
 9705POPC   C3A53297  16.773  32.280   7.055
 9705POPC   C4A53298  16.778  32.215   7.355
 9705POPC   C1B53299  16.941  32.294   6.455
 9705POPC   C2B53300  16.928  32.299   6.755
 9705POPC   C3B53301  16.929  32.316   7.055
 9705POPC   C4B53302  16.977  32.381   7.355
 9706POPC   NC353303  40.020  36.858   5.555
 9706POPC   PO453304  39.963  36.885   5.855
 9706POPC   GL153305  39.974  36.860   6.155
 9706POPC   GL253306  39.892  36.778   6.155
 9706POPC   C1A53307  40.001  36.865   6.455
 9706POPC   D2A53308  39.979  36.920   6.755
 9706POPC   C3A53309  39.973  36.927   7.055
 9706POPC   C4A53310  40.056  36.880   7.355
 9706POPC   C1B53311  39.891  36.673   6.455
 9706POPC   C2B53312  39.845  36.725   6.755
 9706POPC   C3B53313  39.823  36.668   7.055
 9706POPC   C4B53314  39.858  36.662   7.355
 9707POPC   NC353315  17.505  19.016   5.555
 9707POPC   PO453316  17.537  19.103   5.855
 9707POPC   GL153317  17.543  19.036   6.155
 9707POPC   GL253318  17.611  19.069   6.155
 9707POPC   C1A53319  17.542  19.078   6.455
 9707POPC   D2A53320  17.528  19.095   6.755
 9707POPC   C3A53321  17.474  19.083   7.055
 9707POPC   C4A53322  17.489  19.087   7.355
 9707POPC   C1B53323  17.707  19.177   6.455
 9707POPC   C2B53324  17.756  19.175   6.755
 9707POPC   C3B53325  17.746  19.167   7.055
 9707POPC   C4B53326  17.719  19.120   7.355
 9708POPC   NC353327   8.970  18.317   5.555
 9708POPC   PO453328   8.958  18.309   5.855
 9708POPC   GL153329   8.947  18.294   6.155
 9708POPC   GL253330   8.933  18.443   6.155
 9708POPC   C1A53331   8.991  18.274   6.455
 9708POPC   D2A53332   9.015  18.296   6.755
 9708POPC   C3A53333   8.968  18.325   7.055
 9708POPC   C4A53334   9.003  18.282   7.355
 9708POPC   C1B53335   8.857  18.542   6.455
 9708POPC   C2B53336   8.901  18.482   6.755
 9708POPC   C3B53337   8.830  18.499   7.055
 9708POPC   C4B53338   8.881  18.476   7.355
 9709POPC   NC353339  34.606  11.326   5.555
 9709POPC   PO453340  34.585  11.339   5.855
 9709POPC   GL153341  34.588  11.281   6.155
 9709POPC   GL253342  34.494  11.421   6.155
 9709POPC   C1A53343  34.544  11.346   6.455
 9709POPC   D2A53344  34.602  11.283   6.755
 9709POPC   C3A53345  34.623  11.329   7.055
 9709POPC   C4A53346  34.601  11.292   7.355
 9709POPC   C1B53347  34.478  11.544   6.455
 9709POPC   C2B53348  34.441  11.531   6.755
 9709POPC   C3B53349  34.513  11.485   7.055
 9709POPC   C4B53350  34.434  11.554   7.355
 9710POPC   NC353351   4.361  33.816   5.555
 9710POPC   PO453352   4.343  33.807   5.855
 9710POPC   GL153353   4.322  33.795   6.155
 9710POPC   GL253354   4.454  33.887   6.155
 9710POPC   C1A53355   4.316  33.814   6.455
 9710POPC   D2A53356   4.316  33.752   6.755
 9710POPC   C3A53357   4.308  33.765   7.055
 9710POPC   C4A53358   4.357  33.776   7.355
 9710POPC   C1B53359   4.557  33.954   6.455
 9710POPC   C2B53360   4.505  33.899   6.755
 9710POPC   C3B53361   4.512  33.911   7.055
 9710POPC   C4B53362   4.564  33.934   7.355
 9711POPC   NC353363   8.184  40.737   5.555
 9711POPC   PO453364   8.163  40.749   5.855
 9711POPC   GL153365   8.238  40.829   6.155
 9711POPC   GL253366   8.114  40.873   6.155
 9711POPC   C1A53367   8.235  40.757   6.455
 9711POPC   D2A53368   8.175  40.805   6.755
 9711POPC   C3A53369   8.214  40.793   7.055
 9711POPC   C4A53370   8.233  40.767   7.355
 9711POPC   C1B53371   8.144  41.057   6.455
 9711POPC   C2B53372   8.054  41.038   6.755
 9711POPC   C3B53373   8.052  41.002   7.055
 9711POPC   C4B53374   8.105  40.999   7.355
 9712POPC   NC353375  36.112  14.372   5.555
 9712POPC   PO453376  36.137  14.448   5.855
 9712POPC   GL153377  36.157  14.396   6.155
 9712POPC   GL253378  36.145  14.236   6.155
 9712POPC   C1A53379  36.125  14.397   6.455
 9712POPC   D2A53380  36.117  14.423   6.755
 9712POPC   C3A53381  36.174  14.449   7.055
 9712POPC   C4A53382  36.137  14.415   7.355
 9712POPC   C1B53383  36.170  14.123   6.455
 9712POPC   C2B53384  36.226  14.197   6.755
 9712POPC   C3B53385  36.171  14.121   7.055
 9712POPC   C4B53386  36.206  14.182   7.355
 9713POPC   NC353387   2.808  43.105   5.555
 9713POPC   PO453388   2.742  43.088   5.855
 9713POPC   GL153389   2.717  43.079   6.155
 9713POPC   GL253390   2.853  43.116   6.155
 9713POPC   C1A53391   2.756  43.103   6.455
 9713POPC   D2A53392   2.719  43.102   6.755
 9713POPC   C3A53393   2.781  43.087   7.055
 9713POPC   C4A53394   2.806  43.088   7.355
 9713POPC   C1B53395   3.001  43.084   6.455
 9713POPC   C2B53396   2.971  43.050   6.755
 9713POPC   C3B53397   2.963  43.103   7.055
 9713POPC   C4B53398   2.966  43.069   7.355
 9714POPC   NC353399  18.332  43.074   5.555
 9714POPC   PO453400  18.313  43.160   5.855
 9714POPC   GL153401  18.309  43.125   6.155
 9714POPC   GL253402  18.371  43.245   6.155
 9714POPC   C1A53403  18.249  43.152   6.455
 9714POPC   D2A53404  18.265  43.131   6.755
 9714POPC   C3A53405  18.322  43.112   7.055
 9714POPC   C4A53406  18.258  43.076   7.355
 9714POPC   C1B53407  18.403  43.288   6.455
 9714POPC   C2B53408  18.459  43.348   6.755
 9714POPC   C3B53409  18.420  43.326   7.055
 9714POPC   C4B53410  18.453  43.334   7.355
 9715POPC   NC353411   5.844  43.091   5.555
 9715POPC   PO453412   5.910  43.118   5.855
 9715POPC   GL153413   5.857  43.084   6.155
 9715POPC   GL253414   5.862  43.234   6.155
 9715POPC   C1A53415   5.859  43.064   6.455
 9715POPC   D2A53416   5.832  43.108   6.755
 9715POPC   C3A53417   5.897  43.068   7.055
 9715POPC   C4A53418   5.880  43.062   7.355
 9715POPC   C1B53419   5.899  43.364   6.455
 9715POPC   C2B53420   5.916  43.366   6.755
 9715POPC   C3B53421   5.945  43.339   7.055
 9715POPC   C4B53422   5.964  43.374   7.355
 9716POPC   NC353423  15.948  40.777   5.555
 9716POPC   PO453424  15.955  40.794   5.855
 9716POPC   GL153425  15.947  40.736   6.155
 9716POPC   GL253426  16.109  40.747   6.155
 9716POPC   C1A53427  15.952  40.796   6.455
 9716POPC   D2A53428  15.963  40.826   6.755
 9716POPC   C3A53429  15.964  40.747   7.055
 9716POPC   C4A53430  15.971  40.762   7.355
 9716POPC   C1B53431  16.160  40.769   6.455
 9716POPC   C2B53432  16.211  40.788   6.755
 9716POPC   C3B53433  16.235  40.800   7.055
 9716POPC   C4B53434  16.224  40.782   7.355
 9717POPC   NC353435  20.569  42.382   5.555
 9717POPC   PO453436  20.588  42.289   5.855
 9717POPC   GL153437  20.658  42.342   6.155
 9717POPC   GL253438  20.455  42.254   6.155
 9717POPC   C1A53439  20.563  42.364   6.455
 9717POPC   D2A53440  20.621  42.382   6.755
 9717POPC   C3A53441  20.616  42.316   7.055
 9717POPC   C4A53442  20.585  42.349   7.355
 9717POPC   C1B53443  20.394  42.305   6.455
 9717POPC   C2B53444  20.328  42.214   6.755
 9717POPC   C3B53445  20.374  42.305   7.055
 9717POPC   C4B53446  20.337  42.284   7.355
 9718POPC   NC353447   6.617  25.306   5.555
 9718POPC   PO453448   6.619  25.251   5.855
 9718POPC   GL153449   6.691  25.314   6.155
 9718POPC   GL253450   6.584  25.130   6.155
 9718POPC   C1A53451   6.642  25.288   6.455
 9718POPC   D2A53452   6.595  25.287   6.755
 9718POPC   C3A53453   6.648  25.286   7.055
 9718POPC   C4A53454   6.598  25.247   7.355
 9718POPC   C1B53455   6.505  25.004   6.455
 9718POPC   C2B53456   6.565  25.028   6.755
 9718POPC   C3B53457   6.541  25.053   7.055
 9718POPC   C4B53458   6.533  25.019   7.355
 9719POPC   NC353459   9.007   5.858   5.555
 9719POPC   PO453460   8.999   5.865   5.855
 9719POPC   GL153461   8.962   5.875   6.155
 9719POPC   GL253462   9.079   5.990   6.155
 9719POPC   C1A53463   8.982   5.867   6.455
 9719POPC   D2A53464   8.930   5.828   6.755
 9719POPC   C3A53465   9.010   5.876   7.055
 9719POPC   C4A53466   8.925   5.859   7.355
 9719POPC   C1B53467   9.113   6.097   6.455
 9719POPC   C2B53468   9.081   6.087   6.755
 9719POPC   C3B53469   9.130   6.098   7.055
 9719POPC   C4B53470   9.092   6.058   7.355
 9720POPC   NC353471   1.944   7.465   5.555
 9720POPC   PO453472   1.954   7.448   5.855
 9720POPC   GL153473   2.030   7.379   6.155
 9720POPC   GL253474   1.854   7.410   6.155
 9720POPC   C1A53475   2.027   7.426   6.455
 9720POPC   D2A53476   1.999   7.397   6.755
 9720POPC   C3A53477   1.962   7.454   7.055
 9720POPC   C4A53478   1.961   7.393   7.355
 9720POPC   C1B53479   1.755   7.287   6.455
 9720POPC   C2B53480   1.723   7.275   6.755
 9720POPC   C3B53481   1.792   7.317   7.055
 9720POPC   C4B53482   1.810   7.281   7.355
 9721POPC   NC353483  19.034  12.053   5.555
 9721POPC   PO453484  19.103  12.089   5.855
 9721POPC   GL153485  19.027  12.075   6.155
 9721POPC   GL253486  18.954  12.161   6.155
 9721POPC   C1A53487  19.033  12.085   6.455
 9721POPC   D2A53488  19.087  12.124   6.755
 9721POPC   C3A53489  19.060  12.064   7.055
 9721POPC   C4A53490  19.073  12.095   7.355
 9721POPC   C1B53491  18.902  12.261   6.455
 9721POPC   C2B53492  18.887  12.272   6.755
 9721POPC   C3B53493  18.886  12.253   7.055
 9721POPC   C4B53494  18.915  12.326   7.355
 9722POPC   NC353495   8.182  13.581   5.555
 9722POPC   PO453496   8.151  13.645   5.855
 9722POPC   GL153497   8.181  13.677   6.155
 9722POPC   GL253498   8.130  13.762   6.155
 9722POPC   C1A53499   8.231  13.596   6.455
 9722POPC   D2A53500   8.187  13.650   6.755
 9722POPC   C3A53501   8.181  13.641   7.055
 9722POPC   C4A53502   8.237  13.640   7.355
 9722POPC   C1B53503   8.022  13.820   6.455
 9722POPC   C2B53504   8.075  13.871   6.755
 9722POPC   C3B53505   8.028  13.843   7.055
 9722POPC   C4B53506   8.110  13.820   7.355
 9723POPC   NC353507  10.499  18.259   5.555
 9723POPC   PO453508  10.483  18.298   5.855
 9723POPC   GL153509  10.495  18.328   6.155
 9723POPC   GL253510  10.574  18.207   6.155
 9723POPC   C1A53511  10.555  18.293   6.455
 9723POPC   D2A53512  10.478  18.330   6.755
 9723POPC   C3A53513  10.563  18.251   7.055
 9723POPC   C4A53514  10.516  18.268   7.355
 9723POPC   C1B53515  10.647  18.066   6.455
 9723POPC   C2B53516  10.628  18.026   6.755
 9723POPC   C3B53517  10.709  18.054   7.055
 9723POPC   C4B53518  10.647  18.034   7.355
 9724POPC   NC353519  25.234  44.620   5.555
 9724POPC   PO453520  25.228  44.618   5.855
 9724POPC   GL153521  25.241  44.645   6.155
 9724POPC   GL253522  25.365  44.752   6.155
 9724POPC   C1A53523  25.272  44.708   6.455
 9724POPC   D2A53524  25.251  44.696   6.755
 9724POPC   C3A53525  25.265  44.625   7.055
 9724POPC   C4A53526  25.277  44.614   7.355
 9724POPC   C1B53527  25.527  44.742   6.455
 9724POPC   C2B53528  25.526  44.789   6.755
 9724POPC   C3B53529  25.493  44.732   7.055
 9724POPC   C4B53530  25.523  44.769   7.355
 9725POPC   NC353531  38.455  29.925   5.555
 9725POPC   PO453532  38.479  29.944   5.855
 9725POPC   GL153533  38.491  29.959   6.155
 9725POPC   GL253534  38.513  29.991   6.155
 9725POPC   C1A53535  38.486  29.939   6.455
 9725POPC   D2A53536  38.453  29.946   6.755
 9725POPC   C3A53537  38.504  29.962   7.055
 9725POPC   C4A53538  38.473  29.906   7.355
 9725POPC   C1B53539  38.686  30.073   6.455
 9725POPC   C2B53540  38.711  30.077   6.755
 9725POPC   C3B53541  38.630  30.052   7.055
 9725POPC   C4B53542  38.711  30.086   7.355
 9726POPC   NC353543  44.656  31.477   5.555
 9726POPC   PO453544  44.656  31.457   5.855
 9726POPC   GL153545  44.662  31.423   6.155
 9726POPC   GL253546  44.499  31.457   6.155
 9726POPC   C1A53547  44.636  31.469   6.455
 9726POPC   D2A53548  44.645  31.437   6.755
 9726POPC   C3A53549  44.626  31.451   7.055
 9726POPC   C4A53550  44.709  31.460   7.355
 9726POPC   C1B53551  44.455  31.363   6.455
 9726POPC   C2B53552  44.450  31.368   6.755
 9726POPC   C3B53553  44.420  31.364   7.055
 9726POPC   C4B53554  44.408  31.421   7.355
 9727POPC   NC353555   6.656  42.351   5.555
 9727POPC   PO453556   6.627  42.357   5.855
 9727POPC   GL153557   6.599  42.370   6.155
 9727POPC   GL253558   6.683  42.434   6.155
 9727POPC   C1A53559   6.669  42.339   6.455
 9727POPC   D2A53560   6.626  42.375   6.755
 9727POPC   C3A53561   6.601  42.365   7.055
 9727POPC   C4A53562   6.612  42.320   7.355
 9727POPC   C1B53563   6.771  42.498   6.455
 9727POPC   C2B53564   6.790  42.551   6.755
 9727POPC   C3B53565   6.777  42.587   7.055
 9727POPC   C4B53566   6.795  42.520   7.355
 9728POPC   NC353567  40.762  40.050   5.555
 9728POPC   PO453568  40.803  40.037   5.855
 9728POPC   GL153569  40.792  39.966   6.155
 9728POPC   GL253570  40.749  39.851   6.155
 9728POPC   C1A53571  40.815  40.046   6.455
 9728POPC   D2A53572  40.770  40.003   6.755
 9728POPC   C3A53573  40.741  40.012   7.055
 9728POPC   C4A53574  40.757  40.034   7.355
 9728POPC   C1B53575  40.649  39.753   6.455
 9728POPC   C2B53576  40.647  39.801   6.755
 9728POPC   C3B53577  40.692  39.750   7.055
 9728POPC   C4B53578  40.712  39.735   7.355
 9729POPC   NC353579  35.314  36.174   5.555
 9729POPC   PO453580  35.371  36.078   5.855
 9729POPC   GL153581  35.389  36.148   6.155
 9729POPC   GL253582  35.452  36.091   6.155
 9729POPC   C1A53583  35.311  36.099   6.455
 9729POPC   D2A53584  35.350  36.121   6.755
 9729POPC   C3A53585  35.396  36.165   7.055
 9729POPC   C4A53586  35.333  36.100   7.355
 9729POPC   C1B53587  35.584  36.143   6.455
 9729POPC   C2B53588  35.613  36.141   6.755
 9729POPC   C3B53589  35.570  36.109   7.055
 9729POPC   C4B53590  35.589  36.174   7.355
 9730POPC   NC353591  17.533  31.434   5.555
 9730POPC   PO453592  17.483  31.449   5.855
 9730POPC   GL153593  17.485  31.434   6.155
 9730POPC   GL253594  17.550  31.390   6.155
 9730POPC   C1A53595  17.498  31.496   6.455
 9730POPC   D2A53596  17.540  31.504   6.755
 9730POPC   C3A53597  17.461  31.465   7.055
 9730POPC   C4A53598  17.535  31.514   7.355
 9730POPC   C1B53599  17.551  31.232   6.455
 9730POPC   C2B53600  17.564  31.193   6.755
 9730POPC   C3B53601  17.578  31.234   7.055
 9730POPC   C4B53602  17.590  31.239   7.355
 9731POPC   NC353603  33.819  29.163   5.555
 9731POPC   PO453604  33.847  29.142   5.855
 9731POPC   GL153605  33.831  29.183   6.155
 9731POPC   GL253606  33.814  29.246   6.155
 9731POPC   C1A53607  33.798  29.177   6.455
 9731POPC   D2A53608  33.778  29.177   6.755
 9731POPC   C3A53609  33.779  29.103   7.055
 9731POPC   C4A53610  33.790  29.172   7.355
 9731POPC   C1B53611  33.847  29.379   6.455
 9731POPC   C2B53612  33.816  29.407   6.755
 9731POPC   C3B53613  33.809  29.403   7.055
 9731POPC   C4B53614  33.793  29.440   7.355
 9732POPC   NC353615  40.012  32.994   5.555
 9732POPC   PO453616  39.977  33.023   5.855
 9732POPC   GL153617  39.972  33.068   6.155
 9732POPC   GL253618  40.004  32.947   6.155
 9732POPC   C1A53619  40.042  33.019   6.455
 9732POPC   D2A53620  40.026  32.988   6.755
 9732POPC   C3A53621  39.974  33.074   7.055
 9732POPC   C4A53622  40.008  33.028   7.355
 9732POPC   C1B53623  39.940  32.765   6.455
 9732POPC   C2B53624  39.928  32.790   6.755
 9732POPC   C3B53625  40.001  32.788   7.055
 9732POPC   C4B53626  39.933  32.779   7.355
 9733POPC   NC353627  14.444  26.035   5.555
 9733POPC   PO453628  14.435  26.029   5.855
 9733POPC   GL153629  14.427  26.060   6.155
 9733POPC   GL253630  14.355  25.968   6.155
 9733POPC   C1A53631  14.444  26.083   6.455
 9733POPC   D2A53632  14.393  26.013   6.755
 9733POPC   C3A53633  14.371  26.091   7.055
 9733POPC   C4A53634  14.371  26.079   7.355
 9733POPC   C1B53635  14.258  25.816   6.455
 9733POPC   C2B53636  14.268  25.778   6.755
 9733POPC   C3B53637  14.254  25.810   7.055
 9733POPC   C4B53638  14.244  25.845   7.355
 9734POPC   NC353639   8.238  27.581   5.555
 9734POPC   PO453640   8.201  27.636   5.855
 9734POPC   GL153641   8.190  27.574   6.155
 9734POPC   GL253642   8.084  27.505   6.155
 9734POPC   C1A53643   8.228  27.577   6.455
 9734POPC   D2A53644   8.234  27.611   6.755
 9734POPC   C3A53645   8.239  27.564   7.055
 9734POPC   C4A53646   8.243  27.579   7.355
 9734POPC   C1B53647   8.069  27.388   6.455
 9734POPC   C2B53648   8.066  27.447   6.755
 9734POPC   C3B53649   8.015  27.445   7.055
 9734POPC   C4B53650   7.984  27.372   7.355
 9735POPC   NC353651  26.054  19.868   5.555
 9735POPC   PO453652  26.060  19.816   5.855
 9735POPC   GL153653  26.031  19.813   6.155
 9735POPC   GL253654  25.952  19.674   6.155
 9735POPC   C1A53655  26.065  19.832   6.455
 9735POPC   D2A53656  26.055  19.874   6.755
 9735POPC   C3A53657  26.090  19.844   7.055
 9735POPC   C4A53658  26.047  19.849   7.355
 9735POPC   C1B53659  25.942  19.596   6.455
 9735POPC   C2B53660  25.992  19.639   6.755
 9735POPC   C3B53661  25.897  19.586   7.055
 9735POPC   C4B53662  25.927  19.646   7.355
 9736POPC   NC353663   3.503   6.693   5.555
 9736POPC   PO453664   3.499   6.653   5.855
 9736POPC   GL153665   3.529   6.618   6.155
 9736POPC   GL253666   3.562   6.542   6.155
 9736POPC   C1A53667   3.574   6.607   6.455
 9736POPC   D2A53668   3.562   6.644   6.755
 9736POPC   C3A53669   3.570   6.646   7.055
 9736POPC   C4A53670   3.568   6.653   7.355
 9736POPC   C1B53671   3.632   6.363   6.455
 9736POPC   C2B53672   3.621   6.442   6.755
 9736POPC   C3B53673   3.654   6.373   7.055
 9736POPC   C4B53674   3.645   6.396   7.355
 9737POPC   NC353675  40.760  36.912   5.555
 9737POPC   PO453676  40.796  36.894   5.855
 9737POPC   GL153677  40.829  36.948   6.155
 9737POPC   GL253678  40.672  36.777   6.155
 9737POPC   C1A53679  40.816  36.854   6.455
 9737POPC   D2A53680  40.807  36.854   6.755
 9737POPC   C3A53681  40.781  36.925   7.055
 9737POPC   C4A53682  40.762  36.935   7.355
 9737POPC   C1B53683  40.618  36.769   6.455
 9737POPC   C2B53684  40.598  36.768   6.755
 9737POPC   C3B53685  40.557  36.749   7.055
 9737POPC   C4B53686  40.602  36.700   7.355
 9738POPC   NC353687   2.008  23.680   5.555
 9738POPC   PO453688   2.028  23.746   5.855
 9738POPC   GL153689   1.967  23.763   6.155
 9738POPC   GL253690   1.874  23.639   6.155
 9738POPC   C1A53691   1.980  23.672   6.455
 9738POPC   D2A53692   1.975  23.739   6.755
 9738POPC   C3A53693   2.011  23.736   7.055
 9738POPC   C4A53694   1.941  23.718   7.355
 9738POPC   C1B53695   1.859  23.558   6.455
 9738POPC   C2B53696   1.866  23.561   6.755
 9738POPC   C3B53697   1.779  23.569   7.055
 9738POPC   C4B53698   1.865  23.551   7.355
 9739POPC   NC353699  37.639  42.376   5.555
 9739POPC   PO453700  37.668  42.309   5.855
 9739POPC   GL153701  37.722  42.325   6.155
 9739POPC   GL253702  37.691  42.474   6.155
 9739POPC   C1A53703  37.658  42.296   6.455
 9739POPC   D2A53704  37.641  42.328   6.755
 9739POPC   C3A53705  37.721  42.308   7.055
 9739POPC   C4A53706  37.652  42.330   7.355
 9739POPC   C1B53707  37.810  42.535   6.455
 9739POPC   C2B53708  37.765  42.570   6.755
 9739POPC   C3B53709  37.822  42.600   7.055
 9739POPC   C4B53710  37.769  42.558   7.355
 9740POPC   NC353711  42.291  37.667   5.555
 9740POPC   PO453712  42.384  37.684   5.855
 9740POPC   GL153713  42.361  37.658   6.155
 9740POPC   GL253714  42.375  37.798   6.155
 9740POPC   C1A53715  42.307  37.716   6.455
 9740POPC   D2A53716  42.367  37.653   6.755
 9740POPC   C3A53717  42.333  37.654   7.055
 9740POPC   C4A53718  42.357  37.721   7.355
 9740POPC   C1B53719  42.344  37.910   6.455
 9740POPC   C2B53720  42.384  37.918   6.755
 9740POPC   C3B53721  42.328  37.955   7.055
 9740POPC   C4B53722  42.372  37.904   7.355
 9741POPC   NC353723   2.772   4.316   5.555
 9741POPC   PO453724   2.786   4.288   5.855
 9741POPC   GL153725   2.805   4.317   6.155
 9741POPC   GL253726   2.746   4.159   6.155
 9741POPC   C1A53727   2.770   4.293   6.455
 9741POPC   D2A53728   2.733   4.331   6.755
 9741POPC   C3A53729   2.780   4.293   7.055
 9741POPC   C4A53730   2.775   4.289   7.355
 9741POPC   C1B53731   2.685   4.102   6.455
 9741POPC   C2B53732   2.730   4.058   6.755
 9741POPC   C3B53733   2.722   4.093   7.055
 9741POPC   C4B53734   2.699   4.095   7.355
 9742POPC   NC353735  10.499  25.242   5.555
 9742POPC   PO453736  10.547  25.293   5.855
 9742POPC   GL153737  10.493  25.315   6.155
 9742POPC   GL253738  10.676  25.166   6.155
 9742POPC   C1A53739  10.511  25.293   6.455
 9742POPC   D2A53740  10.561  25.313   6.755
 9742POPC   C3A53741  10.510  25.237   7.055
 9742POPC   C4A53742  10.521  25.309   7.355
 9742POPC   C1B53743  10.752  25.078   6.455
 9742POPC   C2B53744  10.702  25.140   6.755
 9742POPC   C3B53745  10.684  25.110   7.055
 9742POPC   C4B53746  10.754  25.126   7.355
 9743POPC   NC353747  29.919  16.704   5.555
 9743POPC   PO453748  29.882  16.770   5.855
 9743POPC   GL153749  29.951  16.756   6.155
 9743POPC   GL253750  29.817  16.693   6.155
 9743POPC   C1A53751  29.969  16.699   6.455
 9743POPC   D2A53752  29.893  16.737   6.755
 9743POPC   C3A53753  29.921  16.760   7.055
 9743POPC   C4A53754  29.919  16.725   7.355
 9743POPC   C1B53755  29.635  16.765   6.455
 9743POPC   C2B53756  29.713  16.781   6.755
 9743POPC   C3B53757  29.670  16.706   7.055
 9743POPC   C4B53758  29.687  16.767   7.355
 9744POPC   NC353759   7.446  36.935   5.555
 9744POPC   PO453760   7.408  36.950   5.855
 9744POPC   GL153761   7.417  36.913   6.155
 9744POPC   GL253762   7.319  36.968   6.155
 9744POPC   C1A53763   7.383  36.926   6.455
 9744POPC   D2A53764   7.462  36.897   6.755
 9744POPC   C3A53765   7.463  36.881   7.055
 9744POPC   C4A53766   7.456  36.895   7.355
 9744POPC   C1B53767   7.286  37.139   6.455
 9744POPC   C2B53768   7.307  37.077   6.755
 9744POPC   C3B53769   7.301  37.092   7.055
 9744POPC   C4B53770   7.242  37.158   7.355
 9745POPC   NC353771   9.017  20.561   5.555
 9745POPC   PO453772   8.974  20.653   5.855
 9745POPC   GL153773   8.942  20.648   6.155
 9745POPC   GL253774   8.978  20.476   6.155
 9745POPC   C1A53775   8.992  20.649   6.455
 9745POPC   D2A53776   9.018  20.579   6.755
 9745POPC   C3A53777   8.968  20.568   7.055
 9745POPC   C4A53778   8.937  20.655   7.355
 9745POPC   C1B53779   8.914  20.376   6.455
 9745POPC   C2B53780   8.932  20.407   6.755
 9745POPC   C3B53781   8.916  20.394   7.055
 9745POPC   C4B53782   8.864  20.372   7.355
 9746POPC   NC353783  13.657   1.264   5.555
 9746POPC   PO453784  13.618   1.241   5.855
 9746POPC   GL153785  13.668   1.221   6.155
 9746POPC   GL253786  13.560   1.073   6.155
 9746POPC   C1A53787  13.640   1.243   6.455
 9746POPC   D2A53788  13.654   1.237   6.755
 9746POPC   C3A53789  13.605   1.254   7.055
 9746POPC   C4A53790  13.665   1.246   7.355
 9746POPC   C1B53791  13.476   0.971   6.455
 9746POPC   C2B53792  13.525   0.938   6.755
 9746POPC   C3B53793  13.523   0.991   7.055
 9746POPC   C4B53794  13.518   1.033   7.355
 9747POPC   NC353795  43.104  13.592   5.555
 9747POPC   PO453796  43.089  13.648   5.855
 9747POPC   GL153797  43.082  13.605   6.155
 9747POPC   GL253798  43.275  13.587   6.155
 9747POPC   C1A53799  43.083  13.651   6.455
 9747POPC   D2A53800  43.083  13.652   6.755
 9747POPC   C3A53801  43.100  13.619   7.055
 9747POPC   C4A53802  43.105  13.598   7.355
 9747POPC   C1B53803  43.361  13.624   6.455
 9747POPC   C2B53804  43.385  13.674   6.755
 9747POPC   C3B53805  43.327  13.680   7.055
 9747POPC   C4B53806  43.312  13.675   7.355
 9748POPC   NC353807  11.313  12.872   5.555
 9748POPC   PO453808  11.299  12.889   5.855
 9748POPC   GL153809  11.292  12.806   6.155
 9748POPC   GL253810  11.222  12.818   6.155
 9748POPC   C1A53811  11.310  12.868   6.455
 9748POPC   D2A53812  11.340  12.848   6.755
 9748POPC   C3A53813  11.336  12.900   7.055
 9748POPC   C4A53814  11.336  12.878   7.355
 9748POPC   C1B53815  11.035  12.881   6.455
 9748POPC   C2B53816  11.010  12.836   6.755
 9748POPC   C3B53817  11.067  12.852   7.055
 9748POPC   C4B53818  11.049  12.914   7.355
 9749POPC   NC353819  20.637  28.404   5.555
 9749POPC   PO453820  20.635  28.418   5.855
 9749POPC   GL153821  20.643  28.326   6.155
 9749POPC   GL253822  20.564  28.463   6.155
 9749POPC   C1A53823  20.645  28.397   6.455
 9749POPC   D2A53824  20.653  28.418   6.755
 9749POPC   C3A53825  20.602  28.402   7.055
 9749POPC   C4A53826  20.584  28.413   7.355
 9749POPC   C1B53827  20.494  28.581   6.455
 9749POPC   C2B53828  20.519  28.615   6.755
 9749POPC   C3B53829  20.531  28.594   7.055
 9749POPC   C4B53830  20.517  28.563   7.355
 9750POPC   NC353831  18.285  39.254   5.555
 9750POPC   PO453832  18.259  39.197   5.855
 9750POPC   GL153833  18.236  39.262   6.155
 9750POPC   GL253834  18.212  39.207   6.155
 9750POPC   C1A53835  18.310  39.244   6.455
 9750POPC   D2A53836  18.284  39.191   6.755
 9750POPC   C3A53837  18.298  39.194   7.055
 9750POPC   C4A53838  18.234  39.208   7.355
 9750POPC   C1B53839  18.024  39.144   6.455
 9750POPC   C2B53840  18.093  39.103   6.755
 9750POPC   C3B53841  18.024  39.146   7.055
 9750POPC   C4B53842  18.063  39.092   7.355
 9751POPC   NC353843   7.449   2.739   5.555
 9751POPC   PO453844   7.417   2.784   5.855
 9751POPC   GL153845   7.435   2.803   6.155
 9751POPC   GL253846   7.337   2.633   6.155
 9751POPC   C1A53847   7.408   2.735   6.455
 9751POPC   D2A53848   7.456   2.732   6.755
 9751POPC   C3A53849   7.411   2.749   7.055
 9751POPC   C4A53850   7.460   2.747   7.355
 9751POPC   C1B53851   7.370   2.521   6.455
 9751POPC   C2B53852   7.371   2.571   6.755
 9751POPC   C3B53853   7.350   2.498   7.055
 9751POPC   C4B53854   7.341   2.552   7.355
 9752POPC   NC353855   4.328  32.244   5.555
 9752POPC   PO453856   4.348  32.256   5.855
 9752POPC   GL153857   4.275  32.278   6.155
 9752POPC   GL253858   4.326  32.381   6.155
 9752POPC   C1A53859   4.301  32.277   6.455
 9752POPC   D2A53860   4.283  32.254   6.755
 9752POPC   C3A53861   4.308  32.290   7.055
 9752POPC   C4A53862   4.340  32.283   7.355
 9752POPC   C1B53863   4.367  32.496   6.455
 9752POPC   C2B53864   4.366  32.467   6.755
 9752POPC   C3B53865   4.430  32.509   7.055
 9752POPC   C4B53866   4.404  32.459   7.355
 9753POPC   NC353867   5.136  40.764   5.555
 9753POPC   PO453868   5.051  40.813   5.855
 9753POPC   GL153869   5.048  40.800   6.155
 9753POPC   GL253870   5.101  40.665   6.155
 9753POPC   C1A53871   5.057  40.760   6.455
 9753POPC   D2A53872   5.121  40.738   6.755
 9753POPC   C3A53873   5.142  40.755   7.055
 9753POPC   C4A53874   5.097  40.809   7.355
 9753POPC   C1B53875   5.118  40.577   6.455
 9753POPC   C2B53876   5.130  40.536   6.755
 9753POPC   C3B53877   5.122  40.559   7.055
 9753POPC   C4B53878   5.145  40.549   7.355
 9754POPC   NC353879  18.303   8.199   5.555
 9754POPC   PO453880  18.269   8.151   5.855
 9754POPC   GL153881  18.279   8.164   6.155
 9754POPC   GL253882  18.386   8.280   6.155
 9754POPC   C1A53883  18.318   8.189   6.455
 9754POPC   D2A53884  18.251   8.153   6.755
 9754POPC   C3A53885  18.238   8.175   7.055
 9754POPC   C4A53886  18.333   8.220   7.355
 9754POPC   C1B53887  18.539   8.324   6.455
 9754POPC   C2B53888  18.443   8.379   6.755
 9754POPC   C3B53889  18.539   8.338   7.055
 9754POPC   C4B53890  18.444   8.368   7.355
 9755POPC   NC353891  27.607  40.784   5.555
 9755POPC   PO453892  27.605  40.810   5.855
 9755POPC   GL153893  27.609  40.736   6.155
 9755POPC   GL253894  27.697  40.804   6.155
 9755POPC   C1A53895  27.570  40.753   6.455
 9755POPC   D2A53896  27.578  40.800   6.755
 9755POPC   C3A53897  27.611  40.745   7.055
 9755POPC   C4A53898  27.568  40.797   7.355
 9755POPC   C1B53899  27.772  40.879   6.455
 9755POPC   C2B53900  27.861  40.903   6.755
 9755POPC   C3B53901  27.780  40.931   7.055
 9755POPC   C4B53902  27.781  40.884   7.355
 9756POPC   NC353903  31.473   9.012   5.555
 9756POPC   PO453904  31.474   8.996   5.855
 9756POPC   GL153905  31.464   8.958   6.155
 9756POPC   GL253906  31.636   9.010   6.155
 9756POPC   C1A53907  31.435   8.970   6.455
 9756POPC   D2A53908  31.442   8.968   6.755
 9756POPC   C3A53909  31.518   9.012   7.055
 9756POPC   C4A53910  31.485   8.991   7.355
 9756POPC   C1B53911  31.668   9.108   6.455
 9756POPC   C2B53912  31.704   9.095   6.755
 9756POPC   C3B53913  31.743   9.108   7.055
 9756POPC   C4B53914  31.747   9.071   7.355
 9757POPC   NC353915   8.980  17.530   5.555
 9757POPC   PO453916   8.986  17.548   5.855
 9757POPC   GL153917   8.933  17.465   6.155
 9757POPC   GL253918   9.045  17.589   6.155
 9757POPC   C1A53919   8.944  17.509   6.455
 9757POPC   D2A53920   8.980  17.491   6.755
 9757POPC   C3A53921   8.933  17.502   7.055
 9757POPC   C4A53922   8.981  17.544   7.355
 9757POPC   C1B53923   9.090  17.694   6.455
 9757POPC   C2B53924   9.120  17.745   6.755
 9757POPC   C3B53925   9.062  17.737   7.055
 9757POPC   C4B53926   9.112  17.771   7.355
 9758POPC   NC353927  21.360  39.992   5.555
 9758POPC   PO453928  21.433  40.011   5.855
 9758POPC   GL153929  21.415  39.964   6.155
 9758POPC   GL253930  21.227  39.958   6.155
 9758POPC   C1A53931  21.396  39.957   6.455
 9758POPC   D2A53932  21.342  39.982   6.755
 9758POPC   C3A53933  21.343  40.050   7.055
 9758POPC   C4A53934  21.422  40.033   7.355
 9758POPC   C1B53935  21.166  39.971   6.455
 9758POPC   C2B53936  21.133  39.956   6.755
 9758POPC   C3B53937  21.183  39.968   7.055
 9758POPC   C4B53938  21.168  39.959   7.355
 9759POPC   NC353939  31.480  39.272   5.555
 9759POPC   PO453940  31.446  39.197   5.855
 9759POPC   GL153941  31.474  39.185   6.155
 9759POPC   GL253942  31.571  39.241   6.155
 9759POPC   C1A53943  31.471  39.255   6.455
 9759POPC   D2A53944  31.484  39.242   6.755
 9759POPC   C3A53945  31.478  39.211   7.055
 9759POPC   C4A53946  31.514  39.250   7.355
 9759POPC   C1B53947  31.687  39.288   6.455
 9759POPC   C2B53948  31.695  39.315   6.755
 9759POPC   C3B53949  31.681  39.374   7.055
 9759POPC   C4B53950  31.716  39.303   7.355
 9760POPC   NC353951  20.621  41.569   5.555
 9760POPC   PO453952  20.613  41.601   5.855
 9760POPC   GL153953  20.618  41.557   6.155
 9760POPC   GL253954  20.639  41.465   6.155
 9760POPC   C1A53955  20.567  41.597   6.455
 9760POPC   D2A53956  20.604  41.534   6.755
 9760POPC   C3A53957  20.654  41.521   7.055
 9760POPC   C4A53958  20.611  41.533   7.355
 9760POPC   C1B53959  20.540  41.355   6.455
 9760POPC   C2B53960  20.576  41.347   6.755
 9760POPC   C3B53961  20.527  41.337   7.055
 9760POPC   C4B53962  20.526  41.351   7.355
 9761POPC   NC353963  30.726  14.421   5.555
 9761POPC   PO453964  30.733  14.361   5.855
 9761POPC   GL153965  30.690  14.365   6.155
 9761POPC   GL253966  30.621  14.324   6.155
 9761POPC   C1A53967  30.715  14.428   6.455
 9761POPC   D2A53968  30.719  14.428   6.755
 9761POPC   C3A53969  30.672  14.422   7.055
 9761POPC   C4A53970  30.648  14.415   7.355
 9761POPC   C1B53971  30.624  14.227   6.455
 9761POPC   C2B53972  30.612  14.178   6.755
 9761POPC   C3B53973  30.543  14.174   7.055
 9761POPC   C4B53974  30.621  14.168   7.355
 9762POPC   NC353975  18.290  42.352   5.555
 9762POPC   PO453976  18.255  42.301   5.855
 9762POPC   GL153977  18.307  42.381   6.155
 9762POPC   GL253978  18.415  42.404   6.155
 9762POPC   C1A53979  18.294  42.371   6.455
 9762POPC   D2A53980  18.289  42.305   6.755
 9762POPC   C3A53981  18.283  42.359   7.055
 9762POPC   C4A53982  18.307  42.326   7.355
 9762POPC   C1B53983  18.472  42.523   6.455
 9762POPC   C2B53984  18.478  42.468   6.755
 9762POPC   C3B53985  18.488  42.513   7.055
 9762POPC   C4B53986  18.436  42.528   7.355
 9763POPC   NC353987  40.054  39.279   5.555
 9763POPC   PO453988  40.009  39.273   5.855
 9763POPC   GL153989  39.985  39.193   6.155
 9763POPC   GL253990  40.132  39.221   6.155
 9763POPC   C1A53991  39.980  39.203   6.455
 9763POPC   D2A53992  40.054  39.250   6.755
 9763POPC   C3A53993  40.015  39.229   7.055
 9763POPC   C4A53994  39.983  39.226   7.355
 9763POPC   C1B53995  40.196  39.147   6.455
 9763POPC   C2B53996  40.213  39.184   6.755
 9763POPC   C3B53997  40.279  39.179   7.055
 9763POPC   C4B53998  40.196  39.178   7.355
 9764POPC   NC353999  29.119  26.805   5.555
 9764POPC   PO454000  29.136  26.827   5.855
 9764POPC   GL154001  29.110  26.848   6.155
 9764POPC   GL254002  29.069  26.886   6.155
 9764POPC   C1A54003  29.127  26.806   6.455
 9764POPC   D2A54004  29.103  26.845   6.755
 9764POPC   C3A54005  29.194  26.864   7.055
 9764POPC   C4A54006  29.159  26.860   7.355
 9764POPC   C1B54007  29.018  27.002   6.455
 9764POPC   C2B54008  29.034  27.072   6.755
 9764POPC   C3B54009  29.080  27.061   7.055
 9764POPC   C4B54010  29.070  27.028   7.355
 9765POPC   NC354011   4.338   3.564   5.555
 9765POPC   PO454012   4.285   3.522   5.855
 9765POPC   GL154013   4.356   3.525   6.155
 9765POPC   GL254014   4.428   3.612   6.155
 9765POPC   C1A54015   4.325   3.510   6.455
 9765POPC   D2A54016   4.329   3.523   6.755
 9765POPC   C3A54017   4.296   3.524   7.055
 9765POPC   C4A54018   4.329   3.577   7.355
 9765POPC   C1B54019   4.416   3.715   6.455
 9765POPC   C2B54020   4.495   3.729   6.755
 9765POPC   C3B54021   4.413   3.703   7.055
 9765POPC   C4B54022   4.479   3.793   7.355
 9766POPC   NC354023  39.975  43.892   5.555
 9766POPC   PO454024  40.053  43.903   5.855
 9766POPC   GL154025  40.018  43.842   6.155
 9766POPC   GL254026  40.067  43.804   6.155
 9766POPC   C1A54027  39.998  43.864   6.455
 9766POPC   D2A54028  40.051  43.859   6.755
 9766POPC   C3A54029  39.971  43.909   7.055
 9766POPC   C4A54030  40.024  43.894   7.355
 9766POPC   C1B54031  40.095  43.614   6.455
 9766POPC   C2B54032  40.058  43.672   6.755
 9766POPC   C3B54033  40.055  43.632   7.055
 9766POPC   C4B54034  40.058  43.643   7.355
 9767POPC   NC354035  34.533   2.766   5.555
 9767POPC   PO454036  34.594   2.717   5.855
 9767POPC   GL154037  34.565   2.752   6.155
 9767POPC   GL254038  34.561   2.919   6.155
 9767POPC   C1A54039  34.596   2.807   6.455
 9767POPC   D2A54040  34.593   2.736   6.755
 9767POPC   C3A54041  34.567   2.796   7.055
 9767POPC   C4A54042  34.574   2.802   7.355
 9767POPC   C1B54043  34.665   3.055   6.455
 9767POPC   C2B54044  34.612   2.977   6.755
 9767POPC   C3B54045  34.597   2.966   7.055
 9767POPC   C4B54046  34.609   2.974   7.355
 9768POPC   NC354047  11.299  30.662   5.555
 9768POPC   PO454048  11.252  30.734   5.855
 9768POPC   GL154049  11.252  30.739   6.155
 9768POPC   GL254050  11.440  30.629   6.155
 9768POPC   C1A54051  11.332  30.746   6.455
 9768POPC   D2A54052  11.259  30.733   6.755
 9768POPC   C3A54053  11.302  30.698   7.055
 9768POPC   C4A54054  11.319  30.744   7.355
 9768POPC   C1B54055  11.493  30.642   6.455
 9768POPC   C2B54056  11.564  30.576   6.755
 9768POPC   C3B54057  11.509  30.569   7.055
 9768POPC   C4B54058  11.505  30.646   7.355
 9769POPC   NC354059  33.039   9.002   5.555
 9769POPC   PO454060  33.062   8.945   5.855
 9769POPC   GL154061  32.985   9.003   6.155
 9769POPC   GL254062  33.036   9.129   6.155
 9769POPC   C1A54063  33.032   9.007   6.455
 9769POPC   D2A54064  32.999   9.011   6.755
 9769POPC   C3A54065  32.984   9.013   7.055
 9769POPC   C4A54066  33.050   8.977   7.355
 9769POPC   C1B54067  33.089   9.268   6.455
 9769POPC   C2B54068  33.054   9.199   6.755
 9769POPC   C3B54069  33.084   9.251   7.055
 9769POPC   C4B54070  32.999   9.199   7.355
 9770POPC   NC354071   5.903  12.814   5.555
 9770POPC   PO454072   5.886  12.828   5.855
 9770POPC   GL154073   5.834  12.900   6.155
 9770POPC   GL254074   5.785  12.895   6.155
 9770POPC   C1A54075   5.841  12.873   6.455
 9770POPC   D2A54076   5.821  12.845   6.755
 9770POPC   C3A54077   5.868  12.898   7.055
 9770POPC   C4A54078   5.902  12.809   7.355
 9770POPC   C1B54079   5.654  12.903   6.455
 9770POPC   C2B54080   5.667  12.979   6.755
 9770POPC   C3B54081   5.642  12.978   7.055
 9770POPC   C4B54082   5.669  12.970   7.355
 9771POPC   NC354083  22.982  22.126   5.555
 9771POPC   PO454084  22.922  22.117   5.855
 9771POPC   GL154085  22.952  22.168   6.155
 9771POPC   GL254086  23.034  22.295   6.155
 9771POPC   C1A54087  22.950  22.192   6.455
 9771POPC   D2A54088  22.927  22.204   6.755
 9771POPC   C3A54089  22.907  22.207   7.055
 9771POPC   C4A54090  22.971  22.208   7.355
 9771POPC   C1B54091  23.000  22.339   6.455
 9771POPC   C2B54092  23.085  22.345   6.755
 9771POPC   C3B54093  23.057  22.423   7.055
 9771POPC   C4B54094  23.085  22.356   7.355
 9772POPC   NC354095  39.249  10.544   5.555
 9772POPC   PO454096  39.214  10.483   5.855
 9772POPC   GL154097  39.246  10.514   6.155
 9772POPC   GL254098  39.104  10.488   6.155
 9772POPC   C1A54099  39.212  10.522   6.455
 9772POPC   D2A54100  39.245  10.566   6.755
 9772POPC   C3A54101  39.249  10.546   7.055
 9772POPC   C4A54102  39.218  10.562   7.355
 9772POPC   C1B54103  38.991  10.548   6.455
 9772POPC   C2B54104  38.945  10.569   6.755
 9772POPC   C3B54105  39.021  10.490   7.055
 9772POPC   C4B54106  39.010  10.554   7.355
 9773POPC   NC354107  14.431   5.080   5.555
 9773POPC   PO454108  14.452   5.137   5.855
 9773POPC   GL154109  14.405   5.075   6.155
 9773POPC   GL254110  14.261   5.205   6.155
 9773POPC   C1A54111  14.421   5.105   6.455
 9773POPC   D2A54112  14.356   5.087   6.755
 9773POPC   C3A54113  14.406   5.103   7.055
 9773POPC   C4A54114  14.429   5.074   7.355
 9773POPC   C1B54115  14.207   5.244   6.455
 9773POPC   C2B54116  14.185   5.273   6.755
 9773POPC   C3B54117  14.225   5.272   7.055
 9773POPC   C4B54118  14.224   5.220   7.355
 9774POPC   NC354119  10.533  15.996   5.555
 9774POPC   PO454120  10.488  16.002   5.855
 9774POPC   GL154121  10.552  15.962   6.155
 9774POPC   GL254122  10.568  15.875   6.155
 9774POPC   C1A54123  10.489  15.953   6.455
 9774POPC   D2A54124  10.531  15.945   6.755
 9774POPC   C3A54125  10.477  15.944   7.055
 9774POPC   C4A54126  10.500  15.939   7.355
 9774POPC   C1B54127  10.670  15.737   6.455
 9774POPC   C2B54128  10.633  15.783   6.755
 9774POPC   C3B54129  10.662  15.706   7.055
 9774POPC   C4B54130  10.644  15.743   7.355
 9775POPC   NC354131   9.742   5.868   5.555
 9775POPC   PO454132   9.705   5.883   5.855
 9775POPC   GL154133   9.702   5.913   6.155
 9775POPC   GL254134   9.739   6.029   6.155
 9775POPC   C1A54135   9.771   5.835   6.455
 9775POPC   D2A54136   9.708   5.828   6.755
 9775POPC   C3A54137   9.726   5.839   7.055
 9775POPC   C4A54138   9.750   5.908   7.355
 9775POPC   C1B54139   9.683   6.117   6.455
 9775POPC   C2B54140   9.635   6.077   6.755
 9775POPC   C3B54141   9.642   6.135   7.055
 9775POPC   C4B54142   9.672   6.153   7.355
 9776POPC   NC354143  29.120  15.939   5.555
 9776POPC   PO454144  29.107  15.974   5.855
 9776POPC   GL154145  29.122  15.941   6.155
 9776POPC   GL254146  29.013  15.891   6.155
 9776POPC   C1A54147  29.120  15.980   6.455
 9776POPC   D2A54148  29.192  15.939   6.755
 9776POPC   C3A54149  29.177  15.921   7.055
 9776POPC   C4A54150  29.111  15.979   7.355
 9776POPC   C1B54151  28.917  15.845   6.455
 9776POPC   C2B54152  28.930  15.891   6.755
 9776POPC   C3B54153  28.874  15.871   7.055
 9776POPC   C4B54154  28.929  15.900   7.355
 9777POPC   NC354155  26.049  11.329   5.555
 9777POPC   PO454156  26.038  11.314   5.855
 9777POPC   GL154157  26.048  11.266   6.155
 9777POPC   GL254158  26.145  11.229   6.155
 9777POPC   C1A54159  26.008  11.284   6.455
 9777POPC   D2A54160  26.080  11.310   6.755
 9777POPC   C3A54161  26.075  11.332   7.055
 9777POPC   C4A54162  26.066  11.288   7.355
 9777POPC   C1B54163  26.276  11.225   6.455
 9777POPC   C2B54164  26.263  11.211   6.755
 9777POPC   C3B54165  26.272  11.188   7.055
 9777POPC   C4B54166  26.319  11.230   7.355
 9778POPC   NC354167  15.980   4.339   5.555
 9778POPC   PO454168  15.940   4.292   5.855
 9778POPC   GL154169  15.990   4.287   6.155
 9778POPC   GL254170  15.931   4.227   6.155
 9778POPC   C1A54171  15.953   4.268   6.455
 9778POPC   D2A54172  15.976   4.357   6.755
 9778POPC   C3A54173  15.964   4.324   7.055
 9778POPC   C4A54174  16.003   4.363   7.355
 9778POPC   C1B54175  15.954   4.101   6.455
 9778POPC   C2B54176  15.979   4.063   6.755
 9778POPC   C3B54177  16.011   4.042   7.055
 9778POPC   C4B54178  15.950   4.070   7.355
 9779POPC   NC354179  36.858  43.142   5.555
 9779POPC   PO454180  36.940  43.105   5.855
 9779POPC   GL154181  36.921  43.083   6.155
 9779POPC   GL254182  36.934  43.030   6.155
 9779POPC   C1A54183  36.901  43.066   6.455
 9779POPC   D2A54184  36.877  43.150   6.755
 9779POPC   C3A54185  36.928  43.133   7.055
 9779POPC   C4A54186  36.874  43.121   7.355
 9779POPC   C1B54187  36.954  42.904   6.455
 9779POPC   C2B54188  36.908  42.858   6.755
 9779POPC   C3B54189  36.921  42.898   7.055
 9779POPC   C4B54190  36.990  42.838   7.355
 9780POPC   NC354191  37.652   3.530   5.555
 9780POPC   PO454192  37.710   3.557   5.855
 9780POPC   GL154193  37.685   3.530   6.155
 9780POPC   GL254194  37.673   3.462   6.155
 9780POPC   C1A54195  37.690   3.558   6.455
 9780POPC   D2A54196  37.650   3.526   6.755
 9780POPC   C3A54197  37.702   3.578   7.055
 9780POPC   C4A54198  37.637   3.573   7.355
 9780POPC   C1B54199  37.696   3.272   6.455
 9780POPC   C2B54200  37.703   3.249   6.755
 9780POPC   C3B54201  37.629   3.286   7.055
 9780POPC   C4B54202  37.637   3.328   7.355
 9781POPC   NC354203  22.947  40.804   5.555
 9781POPC   PO454204  22.941  40.761   5.855
 9781POPC   GL154205  22.959  40.769   6.155
 9781POPC   GL254206  23.060  40.657   6.155
 9781POPC   C1A54207  22.957  40.791   6.455
 9781POPC   D2A54208  22.915  40.823   6.755
 9781POPC   C3A54209  22.919  40.783   7.055
 9781POPC   C4A54210  22.947  40.768   7.355
 9781POPC   C1B54211  23.127  40.605   6.455
 9781POPC   C2B54212  23.053  40.563   6.755
 9781POPC   C3B54213  23.059  40.579   7.055
 9781POPC   C4B54214  23.058  40.591   7.355
 9782POPC   NC354215   4.296  37.699   5.555
 9782POPC   PO454216   4.272  37.722   5.855
 9782POPC   GL154217   4.337  37.654   6.155
 9782POPC   GL254218   4.245  37.714   6.155
 9782POPC   C1A54219   4.269  37.710   6.455
 9782POPC   D2A54220   4.308  37.634   6.755
 9782POPC   C3A54221   4.352  37.657   7.055
 9782POPC   C4A54222   4.330  37.680   7.355
 9782POPC   C1B54223   4.062  37.709   6.455
 9782POPC   C2B54224   4.037  37.792   6.755
 9782POPC   C3B54225   4.058  37.736   7.055
 9782POPC   C4B54226   4.052  37.730   7.355
 9783POPC   NC354227   3.535  33.776   5.555
 9783POPC   PO454228   3.553  33.751   5.855
 9783POPC   GL154229   3.550  33.829   6.155
 9783POPC   GL254230   3.455  33.875   6.155
 9783POPC   C1A54231   3.521  33.767   6.455
 9783POPC   D2A54232   3.528  33.803   6.755
 9783POPC   C3A54233   3.506  33.751   7.055
 9783POPC   C4A54234   3.584  33.806   7.355
 9783POPC   C1B54235   3.434  34.031   6.455
 9783POPC   C2B54236   3.437  34.039   6.755
 9783POPC   C3B54237   3.467  33.996   7.055
 9783POPC   C4B54238   3.422  33.987   7.355
 9784POPC   NC354239  26.036  44.671   5.555
 9784POPC   PO454240  26.055  44.672   5.855
 9784POPC   GL154241  26.040  44.699   6.155
 9784POPC   GL254242  26.126  44.617   6.155
 9784POPC   C1A54243  26.087  44.671   6.455
 9784POPC   D2A54244  26.042  44.658   6.755
 9784POPC   C3A54245  26.016  44.655   7.055
 9784POPC   C4A54246  26.065  44.690   7.355
 9784POPC   C1B54247  26.305  44.642   6.455
 9784POPC   C2B54248  26.279  44.681   6.755
 9784POPC   C3B54249  26.271  44.669   7.055
 9784POPC   C4B54250  26.306  44.631   7.355
 9785POPC   NC354251   9.753  39.191   5.555
 9785POPC   PO454252   9.774  39.230   5.855
 9785POPC   GL154253   9.781  39.218   6.155
 9785POPC   GL254254   9.674  39.391   6.155
 9785POPC   C1A54255   9.701  39.227   6.455
 9785POPC   D2A54256   9.708  39.250   6.755
 9785POPC   C3A54257   9.772  39.270   7.055
 9785POPC   C4A54258   9.771  39.238   7.355
 9785POPC   C1B54259   9.697  39.499   6.455
 9785POPC   C2B54260   9.708  39.429   6.755
 9785POPC   C3B54261   9.730  39.430   7.055
 9785POPC   C4B54262   9.667  39.432   7.355
 9786POPC   NC354263  42.372   4.333   5.555
 9786POPC   PO454264  42.336   4.350   5.855
 9786POPC   GL154265  42.349   4.366   6.155
 9786POPC   GL254266  42.370   4.407   6.155
 9786POPC   C1A54267  42.323   4.293   6.455
 9786POPC   D2A54268  42.321   4.339   6.755
 9786POPC   C3A54269  42.308   4.308   7.055
 9786POPC   C4A54270  42.294   4.308   7.355
 9786POPC   C1B54271  42.471   4.517   6.455
 9786POPC   C2B54272  42.508   4.470   6.755
 9786POPC   C3B54273  42.449   4.533   7.055
 9786POPC   C4B54274  42.465   4.498   7.355
 9787POPC   NC354275   8.946  39.266   5.555
 9787POPC   PO454276   8.995  39.248   5.855
 9787POPC   GL154277   8.999  39.268   6.155
 9787POPC   GL254278   8.898  39.138   6.155
 9787POPC   C1A54279   8.993  39.254   6.455
 9787POPC   D2A54280   9.006  39.267   6.755
 9787POPC   C3A54281   9.005  39.226   7.055
 9787POPC   C4A54282   9.013  39.276   7.355
 9787POPC   C1B54283   8.861  38.981   6.455
 9787POPC   C2B54284   8.911  39.029   6.755
 9787POPC   C3B54285   8.936  39.021   7.055
 9787POPC   C4B54286   8.872  39.036   7.355
 9788POPC   NC354287  41.590   3.561   5.555
 9788POPC   PO454288  41.510   3.531   5.855
 9788POPC   GL154289  41.517   3.514   6.155
 9788POPC   GL254290  41.643   3.589   6.155
 9788POPC   C1A54291  41.579   3.568   6.455
 9788POPC   D2A54292  41.513   3.499   6.755
 9788POPC   C3A54293  41.591   3.518   7.055
 9788POPC   C4A54294  41.595   3.532   7.355
 9788POPC   C1B54295  41.695   3.700   6.455
 9788POPC   C2B54296  41.754   3.713   6.755
 9788POPC   C3B54297  41.735   3.753   7.055
 9788POPC   C4B54298  41.732   3.686   7.355
 9789POPC   NC354299  16.692   9.000   5.555
 9789POPC   PO454300  16.741   8.948   5.855
 9789POPC   GL154301  16.724   9.008   6.155
 9789POPC   GL254302  16.779   8.910   6.155
 9789POPC   C1A54303  16.748   9.002   6.455
 9789POPC   D2A54304  16.728   8.976   6.755
 9789POPC   C3A54305  16.759   8.985   7.055
 9789POPC   C4A54306  16.692   9.021   7.355
 9789POPC   C1B54307  16.885   8.786   6.455
 9789POPC   C2B54308  16.866   8.767   6.755
 9789POPC   C3B54309  16.870   8.762   7.055
 9789POPC   C4B54310  16.799   8.707   7.355
 9790POPC   NC354311  21.409  25.293   5.555
 9790POPC   PO454312  21.416  25.253   5.855
 9790POPC   GL154313  21.397  25.226   6.155
 9790POPC   GL254314  21.545  25.274   6.155
 9790POPC   C1A54315  21.427  25.312   6.455
 9790POPC   D2A54316  21.394  25.252   6.755
 9790POPC   C3A54317  21.406  25.246   7.055
 9790POPC   C4A54318  21.371  25.267   7.355
 9790POPC   C1B54319  21.682  25.263   6.455
 9790POPC   C2B54320  21.682  25.280   6.755
 9790POPC   C3B54321  21.622  25.304   7.055
 9790POPC   C4B54322  21.587  25.341   7.355
 9791POPC   NC354323  26.773  26.822   5.555
 9791POPC   PO454324  26.835  26.825   5.855
 9791POPC   GL154325  26.784  26.772   6.155
 9791POPC   GL254326  26.973  26.781   6.155
 9791POPC   C1A54327  26.844  26.832   6.455
 9791POPC   D2A54328  26.784  26.866   6.755
 9791POPC   C3A54329  26.798  26.820   7.055
 9791POPC   C4A54330  26.805  26.854   7.355
 9791POPC   C1B54331  27.025  26.773   6.455
 9791POPC   C2B54332  27.090  26.802   6.755
 9791POPC   C3B54333  27.037  26.801   7.055
 9791POPC   C4B54334  27.062  26.860   7.355
 9792POPC   NC354335  17.522  13.595   5.555
 9792POPC   PO454336  17.527  13.605   5.855
 9792POPC   GL154337  17.498  13.664   6.155
 9792POPC   GL254338  17.596  13.610   6.155
 9792POPC   C1A54339  17.518  13.638   6.455
 9792POPC   D2A54340  17.468  13.594   6.755
 9792POPC   C3A54341  17.467  13.628   7.055
 9792POPC   C4A54342  17.499  13.578   7.355
 9792POPC   C1B54343  17.686  13.534   6.455
 9792POPC   C2B54344  17.745  13.477   6.755
 9792POPC   C3B54345  17.695  13.509   7.055
 9792POPC   C4B54346  17.709  13.458   7.355
 9793POPC   NC354347  15.952  43.063   5.555
 9793POPC   PO454348  15.925  43.104   5.855
 9793POPC   GL154349  15.966  43.076   6.155
 9793POPC   GL254350  15.974  43.015   6.155
 9793POPC   C1A54351  15.992  43.107   6.455
 9793POPC   D2A54352  15.917  43.088   6.755
 9793POPC   C3A54353  15.991  43.142   7.055
 9793POPC   C4A54354  15.995  43.101   7.355
 9793POPC   C1B54355  16.087  42.921   6.455
 9793POPC   C2B54356  15.988  42.912   6.755
 9793POPC   C3B54357  16.007  42.841   7.055
 9793POPC   C4B54358  16.032  42.853   7.355
 9794POPC   NC354359  13.596  10.486   5.555
 9794POPC   PO454360  13.632  10.507   5.855
 9794POPC   GL154361  13.579  10.491   6.155
 9794POPC   GL254362  13.528  10.621   6.155
 9794POPC   C1A54363  13.595  10.523   6.455
 9794POPC   D2A54364  13.660  10.526   6.755
 9794POPC   C3A54365  13.671  10.517   7.055
 9794POPC   C4A54366  13.611  10.558   7.355
 9794POPC   C1B54367  13.562  10.741   6.455
 9794POPC   C2B54368  13.573  10.724   6.755
 9794POPC   C3B54369  13.513  10.726   7.055
 9794POPC   C4B54370  13.574  10.763   7.355
 9795POPC   NC354371   5.911   2.752   5.555
 9795POPC   PO454372   5.880   2.731   5.855
 9795POPC   GL154373   5.834   2.746   6.155
 9795POPC   GL254374   6.006   2.724   6.155
 9795POPC   C1A54375   5.837   2.747   6.455
 9795POPC   D2A54376   5.899   2.762   6.755
 9795POPC   C3A54377   5.836   2.756   7.055
 9795POPC   C4A54378   5.918   2.801   7.355
 9795POPC   C1B54379   6.014   2.632   6.455
 9795POPC   C2B54380   6.095   2.619   6.755
 9795POPC   C3B54381   6.024   2.604   7.055
 9795POPC   C4B54382   6.071   2.567   7.355
 9796POPC   NC354383   9.781  16.755   5.555
 9796POPC   PO454384   9.718  16.698   5.855
 9796POPC   GL154385   9.792  16.753   6.155
 9796POPC   GL254386   9.653  16.593   6.155
 9796POPC   C1A54387   9.794  16.776   6.455
 9796POPC   D2A54388   9.703  16.769   6.755
 9796POPC   C3A54389   9.700  16.723   7.055
 9796POPC   C4A54390   9.728  16.722   7.355
 9796POPC   C1B54391   9.656  16.513   6.455
 9796POPC   C2B54392   9.656  16.462   6.755
 9796POPC   C3B54393   9.654  16.548   7.055
 9796POPC   C4B54394   9.628  16.478   7.355
 9797POPC   NC354395  13.645   8.226   5.555
 9797POPC   PO454396  13.607   8.152   5.855
 9797POPC   GL154397  13.609   8.221   6.155
 9797POPC   GL254398  13.698   8.077   6.155
 9797POPC   C1A54399  13.621   8.199   6.455
 9797POPC   D2A54400  13.648   8.216   6.755
 9797POPC   C3A54401  13.662   8.245   7.055
 9797POPC   C4A54402  13.655   8.187   7.355
 9797POPC   C1B54403  13.773   7.951   6.455
 9797POPC   C2B54404  13.749   7.967   6.755
 9797POPC   C3B54405  13.795   8.046   7.055
 9797POPC   C4B54406  13.741   8.031   7.355
 9798POPC   NC354407  12.860  44.637   5.555
 9798POPC   PO454408  12.819  44.620   5.855
 9798POPC   GL154409  12.818  44.667   6.155
 9798POPC   GL254410  12.985  44.714   6.155
 9798POPC   C1A54411  12.827  44.711   6.455
 9798POPC   D2A54412  12.894  44.656   6.755
 9798POPC   C3A54413  12.834  44.617   7.055
 9798POPC   C4A54414  12.831  44.637   7.355
 9798POPC   C1B54415  13.092  44.725   6.455
 9798POPC   C2B54416  13.125  44.709   6.755
 9798POPC   C3B54417  13.122  44.751   7.055
 9798POPC   C4B54418  13.046  44.726   7.355
 9799POPC   NC354419   1.173  26.773   5.555
 9799POPC   PO454420   1.251  26.774   5.855
 9799POPC   GL154421   1.207  26.816   6.155
 9799POPC   GL254422   1.066  26.854   6.155
 9799POPC   C1A54423   1.223  26.822   6.455
 9799POPC   D2A54424   1.199  26.832   6.755
 9799POPC   C3A54425   1.168  26.830   7.055
 9799POPC   C4A54426   1.221  26.767   7.355
 9799POPC   C1B54427   0.990  26.799   6.455
 9799POPC   C2B54428   0.931  26.840   6.755
 9799POPC   C3B54429   1.009  26.877   7.055
 9799POPC   C4B54430   1.014  26.872   7.355
 9800POPC   NC354431  36.121  40.819   5.555
 9800POPC   PO454432  36.112  40.817   5.855
 9800POPC   GL154433  36.122  40.817   6.155
 9800POPC   GL254434  36.010  40.698   6.155
 9800POPC   C1A54435  36.124  40.818   6.455
 9800POPC   D2A54436  36.137  40.785   6.755
 9800POPC   C3A54437  36.124  40.827   7.055
 9800POPC   C4A54438  36.170  40.825   7.355
 9800POPC   C1B54439  35.986  40.615   6.455
 9800POPC   C2B54440  35.929  40.567   6.755
 9800POPC   C3B54441  35.981  40.579   7.055
 9800POPC   C4B54442  35.980  40.595   7.355
 9801POPC   NC354443  13.663  12.110   5.555
 9801POPC   PO454444  13.675  12.102   5.855
 9801POPC   GL154445  13.666  12.068   6.155
 9801POPC   GL254446  13.676  12.221   6.155
 9801POPC   C1A54447  13.618  12.043   6.455
 9801POPC   D2A54448  13.660  12.061   6.755
 9801POPC   C3A54449  13.660  12.116   7.055
 9801POPC   C4A54450  13.625  12.093   7.355
 9801POPC   C1B54451  13.741  12.346   6.455
 9801POPC   C2B54452  13.695  12.336   6.755
 9801POPC   C3B54453  13.689  12.292   7.055
 9801POPC   C4B54454  13.674  12.348   7.355
 9802POPC   NC354455  13.622  43.902   5.555
 9802POPC   PO454456  13.655  43.893   5.855
 9802POPC   GL154457  13.642  43.906   6.155
 9802POPC   GL254458  13.505  43.883   6.155
 9802POPC   C1A54459  13.628  43.889   6.455
 9802POPC   D2A54460  13.659  43.890   6.755
 9802POPC   C3A54461  13.591  43.865   7.055
 9802POPC   C4A54462  13.607  43.899   7.355
 9802POPC   C1B54463  13.402  43.780   6.455
 9802POPC   C2B54464  13.373  43.875   6.755
 9802POPC   C3B54465  13.355  43.821   7.055
 9802POPC   C4B54466  13.364  43.802   7.355
 9803POPC   NC354467  38.413  26.789   5.555
 9803POPC   PO454468  38.450  26.845   5.855
 9803POPC   GL154469  38.406  26.769   6.155
 9803POPC   GL254470  38.611  26.840   6.155
 9803POPC   C1A54471  38.478  26.864   6.455
 9803POPC   D2A54472  38.503  26.866   6.755
 9803POPC   C3A54473  38.413  26.827   7.055
 9803POPC   C4A54474  38.423  26.774   7.355
 9803POPC   C1B54475  38.696  26.801   6.455
 9803POPC   C2B54476  38.693  26.828   6.755
 9803POPC   C3B54477  38.679  26.828   7.055
 9803POPC   C4B54478  38.656  26.818   7.355
 9804POPC   NC354479  31.488  42.329   5.555
 9804POPC   PO454480  31.508  42.292   5.855
 9804POPC   GL154481  31.440  42.342   6.155
 9804POPC   GL254482  31.395  42.402   6.155
 9804POPC   C1A54483  31.508  42.381   6.455
 9804POPC   D2A54484  31.437  42.336   6.755
 9804POPC   C3A54485  31.441  42.369   7.055
 9804POPC   C4A54486  31.494  42.300   7.355
 9804POPC   C1B54487  31.416  42.564   6.455
 9804POPC   C2B54488  31.377  42.536   6.755
 9804POPC   C3B54489  31.398  42.609   7.055
 9804POPC   C4B54490  31.348  42.608   7.355
 9805POPC   NC354491  16.747  12.841   5.555
 9805POPC   PO454492  16.681  12.860   5.855
 9805POPC   GL154493  16.700  12.876   6.155
 9805POPC   GL254494  16.620  12.957   6.155
 9805POPC   C1A54495  16.759  12.860   6.455
 9805POPC   D2A54496  16.772  12.887   6.755
 9805POPC   C3A54497  16.746  12.835   7.055
 9805POPC   C4A54498  16.729  12.809   7.355
 9805POPC   C1B54499  16.530  13.011   6.455
 9805POPC   C2B54500  16.503  12.974   6.755
 9805POPC   C3B54501  16.503  13.035   7.055
 9805POPC   C4B54502  16.578  13.025   7.355
 9806POPC   NC354503   6.639  21.367   5.555
 9806POPC   PO454504   6.622  21.340   5.855
 9806POPC   GL154505   6.643  21.343   6.155
 9806POPC   GL254506   6.535  21.439   6.155
 9806POPC   C1A54507   6.679  21.422   6.455
 9806POPC   D2A54508   6.677  21.435   6.755
 9806POPC   C3A54509   6.620  21.363   7.055
 9806POPC   C4A54510   6.646  21.364   7.355
 9806POPC   C1B54511   6.451  21.499   6.455
 9806POPC   C2B54512   6.433  21.416   6.755
 9806POPC   C3B54513   6.401  21.417   7.055
 9806POPC   C4B54514   6.408  21.449   7.355
 9807POPC   NC354515  28.334  33.838   5.555
 9807POPC   PO454516  28.334  33.794   5.855
 9807POPC   GL154517  28.390  33.757   6.155
 9807POPC   GL254518  28.202  33.792   6.155
 9807POPC   C1A54519  28.365  33.820   6.455
 9807POPC   D2A54520  28.359  33.811   6.755
 9807POPC   C3A54521  28.356  33.846   7.055
 9807POPC   C4A54522  28.417  33.823   7.355
 9807POPC   C1B54523  28.095  33.832   6.455
 9807POPC   C2B54524  28.162  33.837   6.755
 9807POPC   C3B54525  28.114  33.821   7.055
 9807POPC   C4B54526  28.140  33.875   7.355
 9808POPC   NC354527   9.000  29.113   5.555
 9808POPC   PO454528   9.013  29.095   5.855
 9808POPC   GL154529   8.960  29.164   6.155
 9808POPC   GL254530   9.118  29.132   6.155
 9808POPC   C1A54531   9.008  29.138   6.455
 9808POPC   D2A54532   8.947  29.100   6.755
 9808POPC   C3A54533   8.927  29.179   7.055
 9808POPC   C4A54534   8.983  29.104   7.355
 9808POPC   C1B54535   9.177  29.015   6.455
 9808POPC   C2B54536   9.223  29.026   6.755
 9808POPC   C3B54537   9.195  29.055   7.055
 9808POPC   C4B54538   9.185  29.015   7.355
 9809POPC   NC354539   0.401   8.166   5.555
 9809POPC   PO454540   0.444   8.230   5.855
 9809POPC   GL154541   0.483   8.147   6.155
 9809POPC   GL254542   0.572   8.231   6.155
 9809POPC   C1A54543   0.404   8.167   6.455
 9809POPC   D2A54544   0.476   8.243   6.755
 9809POPC   C3A54545   0.397   8.222   7.055
 9809POPC   C4A54546   0.437   8.243   7.355
 9809POPC   C1B54547   0.643   8.312   6.455
 9809POPC   C2B54548   0.698   8.253   6.755
 9809POPC   C3B54549   0.628   8.259   7.055
 9809POPC   C4B54550   0.695   8.257   7.355
 9810POPC   NC354551   7.423  11.255   5.555
 9810POPC   PO454552   7.411  11.255   5.855
 9810POPC   GL154553   7.446  11.305   6.155
 9810POPC   GL254554   7.507  11.347   6.155
 9810POPC   C1A54555   7.389  11.329   6.455
 9810POPC   D2A54556   7.371  11.300   6.755
 9810POPC   C3A54557   7.392  11.345   7.055
 9810POPC   C4A54558   7.424  11.281   7.355
 9810POPC   C1B54559   7.604  11.418   6.455
 9810POPC   C2B54560   7.596  11.434   6.755
 9810POPC   C3B54561   7.587  11.478   7.055
 9810POPC   C4B54562   7.639  11.416   7.355
 9811POPC   NC354563  10.539  23.761   5.555
 9811POPC   PO454564  10.543  23.711   5.855
 9811POPC   GL154565  10.477  23.676   6.155
 9811POPC   GL254566  10.415  23.634   6.155
 9811POPC   C1A54567  10.493  23.756   6.455
 9811POPC   D2A54568  10.487  23.762   6.755
 9811POPC   C3A54569  10.492  23.763   7.055
 9811POPC   C4A54570  10.565  23.692   7.355
 9811POPC   C1B54571  10.299  23.532   6.455
 9811POPC   C2B54572  10.302  23.555   6.755
 9811POPC   C3B54573  10.365  23.503   7.055
 9811POPC   C4B54574  10.302  23.553   7.355
 9812POPC   NC354575  39.261  31.510   5.555
 9812POPC   PO454576  39.213  31.484   5.855
 9812POPC   GL154577  39.254  31.442   6.155
 9812POPC   GL254578  39.347  31.557   6.155
 9812POPC   C1A54579  39.202  31.456   6.455
 9812POPC   D2A54580  39.258  31.512   6.755
 9812POPC   C3A54581  39.219  31.469   7.055
 9812POPC   C4A54582  39.235  31.463   7.355
 9812POPC   C1B54583  39.390  31.726   6.455
 9812POPC   C2B54584  39.407  31.714   6.755
 9812POPC   C3B54585  39.388  31.715   7.055
 9812POPC   C4B54586  39.380  31.706   7.355
 9813POPC   NC354587  20.635   5.867   5.555
 9813POPC   PO454588  20.626   5.892   5.855
 9813POPC   GL154589  20.612   5.886   6.155
 9813POPC   GL254590  20.526   5.892   6.155
 9813POPC   C1A54591  20.600   5.862   6.455
 9813POPC   D2A54592  20.583   5.916   6.755
 9813POPC   C3A54593  20.581   5.901   7.055
 9813POPC   C4A54594  20.574   5.823   7.355
 9813POPC   C1B54595  20.323   5.945   6.455
 9813POPC   C2B54596  20.410   5.953   6.755
 9813POPC   C3B54597  20.372   5.881   7.055
 9813POPC   C4B54598  20.328   5.965   7.355
 9814POPC   NC354599  40.816  22.127   5.555
 9814POPC   PO454600  40.791  22.146   5.855
 9814POPC   GL154601  40.746  22.147   6.155
 9814POPC   GL254602  40.756  22.064   6.155
 9814POPC   C1A54603  40.771  22.126   6.455
 9814POPC   D2A54604  40.742  22.158   6.755
 9814POPC   C3A54605  40.798  22.118   7.055
 9814POPC   C4A54606  40.791  22.153   7.355
 9814POPC   C1B54607  40.788  21.898   6.455
 9814POPC   C2B54608  40.798  21.961   6.755
 9814POPC   C3B54609  40.825  21.913   7.055
 9814POPC   C4B54610  40.863  21.866   7.355
 9815POPC   NC354611  20.606  19.814   5.555
 9815POPC   PO454612  20.580  19.803   5.855
 9815POPC   GL154613  20.561  19.852   6.155
 9815POPC   GL254614  20.464  19.911   6.155
 9815POPC   C1A54615  20.650  19.880   6.455
 9815POPC   D2A54616  20.593  19.819   6.755
 9815POPC   C3A54617  20.615  19.788   7.055
 9815POPC   C4A54618  20.563  19.823   7.355
 9815POPC   C1B54619  20.340  19.987   6.455
 9815POPC   C2B54620  20.394  19.957   6.755
 9815POPC   C3B54621  20.390  19.943   7.055
 9815POPC   C4B54622  20.404  19.923   7.355
 9816POPC   NC354623  42.304  34.554   5.555
 9816POPC   PO454624  42.327  34.558   5.855
 9816POPC   GL154625  42.353  34.545   6.155
 9816POPC   GL254626  42.439  34.622   6.155
 9816POPC   C1A54627  42.322  34.552   6.455
 9816POPC   D2A54628  42.300  34.590   6.755
 9816POPC   C3A54629  42.307  34.620   7.055
 9816POPC   C4A54630  42.317  34.572   7.355
 9816POPC   C1B54631  42.534  34.738   6.455
 9816POPC   C2B54632  42.493  34.774   6.755
 9816POPC   C3B54633  42.497  34.747   7.055
 9816POPC   C4B54634  42.533  34.703   7.355
 9817POPC   NC354635   4.327  42.320   5.555
 9817POPC   PO454636   4.298  42.367   5.855
 9817POPC   GL154637   4.343  42.320   6.155
 9817POPC   GL254638   4.286  42.435   6.155
 9817POPC   C1A54639   4.354  42.314   6.455
 9817POPC   D2A54640   4.284  42.347   6.755
 9817POPC   C3A54641   4.287  42.346   7.055
 9817POPC   C4A54642   4.345  42.324   7.355
 9817POPC   C1B54643   4.243  42.607   6.455
 9817POPC   C2B54644   4.269  42.576   6.755
 9817POPC   C3B54645   4.308  42.573   7.055
 9817POPC   C4B54646   4.273  42.561   7.355
 9818POPC   NC354647  38.457   0.409   5.555
 9818POPC   PO454648  38.490   0.393   5.855
 9818POPC   GL154649  38.417   0.428   6.155
 9818POPC   GL254650  38.343   0.396   6.155
 9818POPC   C1A54651  38.418   0.460   6.455
 9818POPC   D2A54652  38.454   0.446   6.755
 9818POPC   C3A54653  38.502   0.445   7.055
 9818POPC   C4A54654  38.476   0.454   7.355
 9818POPC   C1B54655  38.287   0.324   6.455
 9818POPC   C2B54656  38.266   0.309   6.755
 9818POPC   C3B54657  38.306   0.302   7.055
 9818POPC   C4B54658  38.309   0.260   7.355
 9819POPC   NC354659  41.519   7.456   5.555
 9819POPC   PO454660  41.567   7.440   5.855
 9819POPC   GL154661  41.562   7.395   6.155
 9819POPC   GL254662  41.706   7.417   6.155
 9819POPC   C1A54663  41.591   7.386   6.455
 9819POPC   D2A54664  41.553   7.402   6.755
 9819POPC   C3A54665  41.604   7.399   7.055
 9819POPC   C4A54666  41.524   7.432   7.355
 9819POPC   C1B54667  41.807   7.373   6.455
 9819POPC   C2B54668  41.813   7.420   6.755
 9819POPC   C3B54669  41.802   7.451   7.055
 9819POPC   C4B54670  41.800   7.438   7.355
 9820POPC   NC354671  24.461  20.648   5.555
 9820POPC   PO454672  24.532  20.600   5.855
 9820POPC   GL154673  24.491  20.619   6.155
 9820POPC   GL254674  24.650  20.577   6.155
 9820POPC   C1A54675  24.493  20.626   6.455
 9820POPC   D2A54676  24.494  20.597   6.755
 9820POPC   C3A54677  24.460  20.601   7.055
 9820POPC   C4A54678  24.482  20.591   7.355
 9820POPC   C1B54679  24.780  20.617   6.455
 9820POPC   C2B54680  24.731  20.619   6.755
 9820POPC   C3B54681  24.688  20.609   7.055
 9820POPC   C4B54682  24.748  20.595   7.355
 9821POPC   NC354683   4.317   7.432   5.555
 9821POPC   PO454684   4.346   7.425   5.855
 9821POPC   GL154685   4.344   7.410   6.155
 9821POPC   GL254686   4.213   7.438   6.155
 9821POPC   C1A54687   4.335   7.453   6.455
 9821POPC   D2A54688   4.280   7.447   6.755
 9821POPC   C3A54689   4.306   7.401   7.055
 9821POPC   C4A54690   4.318   7.413   7.355
 9821POPC   C1B54691   4.110   7.541   6.455
 9821POPC   C2B54692   4.112   7.503   6.755
 9821POPC   C3B54693   4.044   7.566   7.055
 9821POPC   C4B54694   4.112   7.543   7.355
 9822POPC   NC354695  22.902  25.222   5.555
 9822POPC   PO454696  22.920  25.266   5.855
 9822POPC   GL154697  22.918  25.224   6.155
 9822POPC   GL254698  22.833  25.248   6.155
 9822POPC   C1A54699  22.979  25.219   6.455
 9822POPC   D2A54700  22.888  25.272   6.755
 9822POPC   C3A54701  22.896  25.264   7.055
 9822POPC   C4A54702  22.940  25.295   7.355
 9822POPC   C1B54703  22.718  25.300   6.455
 9822POPC   C2B54704  22.692  25.244   6.755
 9822POPC   C3B54705  22.674  25.247   7.055
 9822POPC   C4B54706  22.657  25.245   7.355
 9823POPC   NC354707   5.119   2.737   5.555
 9823POPC   PO454708   5.116   2.733   5.855
 9823POPC   GL154709   5.061   2.730   6.155
 9823POPC   GL254710   5.077   2.609   6.155
 9823POPC   C1A54711   5.044   2.781   6.455
 9823POPC   D2A54712   5.134   2.752   6.755
 9823POPC   C3A54713   5.123   2.790   7.055
 9823POPC   C4A54714   5.076   2.719   7.355
 9823POPC   C1B54715   5.205   2.570   6.455
 9823POPC   C2B54716   5.177   2.520   6.755
 9823POPC   C3B54717   5.181   2.483   7.055
 9823POPC   C4B54718   5.172   2.479   7.355
 9824POPC   NC354719  19.071  39.263   5.555
 9824POPC   PO454720  19.037  39.261   5.855
 9824POPC   GL154721  19.017  39.250   6.155
 9824POPC   GL254722  19.193  39.277   6.155
 9824POPC   C1A54723  19.057  39.269   6.455
 9824POPC   D2A54724  19.014  39.236   6.755
 9824POPC   C3A54725  19.028  39.252   7.055
 9824POPC   C4A54726  19.029  39.191   7.355
 9824POPC   C1B54727  19.335  39.353   6.455
 9824POPC   C2B54728  19.260  39.283   6.755
 9824POPC   C3B54729  19.276  39.321   7.055
 9824POPC   C4B54730  19.274  39.314   7.355
 9825POPC   NC354731  28.337  25.307   5.555
 9825POPC   PO454732  28.385  25.217   5.855
 9825POPC   GL154733  28.409  25.305   6.155
 9825POPC   GL254734  28.337  25.157   6.155
 9825POPC   C1A54735  28.386  25.230   6.455
 9825POPC   D2A54736  28.367  25.299   6.755
 9825POPC   C3A54737  28.385  25.287   7.055
 9825POPC   C4A54738  28.356  25.281   7.355
 9825POPC   C1B54739  28.274  25.074   6.455
 9825POPC   C2B54740  28.246  25.071   6.755
 9825POPC   C3B54741  28.308  25.063   7.055
 9825POPC   C4B54742  28.252  24.992   7.355
 9826POPC   NC354743  26.067  27.545   5.555
 9826POPC   PO454744  26.013  27.571   5.855
 9826POPC   GL154745  26.087  27.554   6.155
 9826POPC   GL254746  26.015  27.449   6.155
 9826POPC   C1A54747  26.026  27.598   6.455
 9826POPC   D2A54748  26.069  27.555   6.755
 9826POPC   C3A54749  26.041  27.570   7.055
 9826POPC   C4A54750  26.022  27.574   7.355
 9826POPC   C1B54751  25.983  27.381   6.455
 9826POPC   C2B54752  25.985  27.378   6.755
 9826POPC   C3B54753  25.981  27.359   7.055
 9826POPC   C4B54754  26.029  27.377   7.355
 9827POPC   NC354755  12.030   1.959   5.555
 9827POPC   PO454756  12.041   2.008   5.855
 9827POPC   GL154757  12.039   1.967   6.155
 9827POPC   GL254758  11.938   2.025   6.155
 9827POPC   C1A54759  12.056   1.944   6.455
 9827POPC   D2A54760  12.048   1.983   6.755
 9827POPC   C3A54761  12.043   2.010   7.055
 9827POPC   C4A54762  12.097   1.980   7.355
 9827POPC   C1B54763  11.830   2.137   6.455
 9827POPC   C2B54764  11.798   2.042   6.755
 9827POPC   C3B54765  11.802   2.132   7.055
 9827POPC   C4B54766  11.825   2.058   7.355
 9828POPC   NC354767   5.893  20.637   5.555
 9828POPC   PO454768   5.823  20.606   5.855
 9828POPC   GL154769   5.828  20.618   6.155
 9828POPC   GL254770   6.008  20.599   6.155
 9828POPC   C1A54771   5.918  20.566   6.455
 9828POPC   D2A54772   5.896  20.624   6.755
 9828POPC   C3A54773   5.888  20.580   7.055
 9828POPC   C4A54774   5.916  20.650   7.355
 9828POPC   C1B54775   6.165  20.653   6.455
 9828POPC   C2B54776   6.114  20.575   6.755
 9828POPC   C3B54777   6.141  20.625   7.055
 9828POPC   C4B54778   6.168  20.655   7.355
 9829POPC   NC354779  22.151  24.511   5.555
 9829POPC   PO454780  22.170  24.452   5.855
 9829POPC   GL154781  22.136  24.479   6.155
 9829POPC   GL254782  22.058  24.574   6.155
 9829POPC   C1A54783  22.209  24.443   6.455
 9829POPC   D2A54784  22.200  24.520   6.755
 9829POPC   C3A54785  22.203  24.523   7.055
 9829POPC   C4A54786  22.158  24.485   7.355
 9829POPC   C1B54787  21.951  24.579   6.455
 9829POPC   C2B54788  21.982  24.626   6.755
 9829POPC   C3B54789  21.936  24.639   7.055
 9829POPC   C4B54790  21.921  24.633   7.355
 9830POPC   NC354791  26.862  12.884   5.555
 9830POPC   PO454792  26.795  12.807   5.855
 9830POPC   GL154793  26.814  12.900   6.155
 9830POPC   GL254794  26.651  12.879   6.155
 9830POPC   C1A54795  26.821  12.807   6.455
 9830POPC   D2A54796  26.815  12.843   6.755
 9830POPC   C3A54797  26.770  12.843   7.055
 9830POPC   C4A54798  26.793  12.861   7.355
 9830POPC   C1B54799  26.525  12.874   6.455
 9830POPC   C2B54800  26.531  12.833   6.755
 9830POPC   C3B54801  26.527  12.785   7.055
 9830POPC   C4B54802  26.603  12.862   7.355
 9831POPC   NC354803  37.684  21.359   5.555
 9831POPC   PO454804  37.700  21.421   5.855
 9831POPC   GL154805  37.713  21.419   6.155
 9831POPC   GL254806  37.840  21.394   6.155
 9831POPC   C1A54807  37.689  21.352   6.455
 9831POPC   D2A54808  37.688  21.405   6.755
 9831POPC   C3A54809  37.725  21.415   7.055
 9831POPC   C4A54810  37.652  21.371   7.355
 9831POPC   C1B54811  37.963  21.367   6.455
 9831POPC   C2B54812  37.884  21.319   6.755
 9831POPC   C3B54813  37.972  21.338   7.055
 9831POPC   C4B54814  37.968  21.356   7.355
 9832POPC   NC354815  42.306  42.327   5.555
 9832POPC   PO454816  42.384  42.330   5.855
 9832POPC   GL154817  42.384  42.352   6.155
 9832POPC   GL254818  42.238  42.443   6.155
 9832POPC   C1A54819  42.316  42.294   6.455
 9832POPC   D2A54820  42.359  42.341   6.755
 9832POPC   C3A54821  42.297  42.347   7.055
 9832POPC   C4A54822  42.325  42.348   7.355
 9832POPC   C1B54823  42.160  42.456   6.455
 9832POPC   C2B54824  42.164  42.448   6.755
 9832POPC   C3B54825  42.156  42.438   7.055
 9832POPC   C4B54826  42.120  42.507   7.355
 9833POPC   NC354827  13.657  22.160   5.555
 9833POPC   PO454828  13.631  22.152   5.855
 9833POPC   GL154829  13.672  22.158   6.155
 9833POPC   GL254830  13.722  22.252   6.155
 9833POPC   C1A54831  13.597  22.193   6.455
 9833POPC   D2A54832  13.601  22.130   6.755
 9833POPC   C3A54833  13.654  22.133   7.055
 9833POPC   C4A54834  13.580  22.202   7.355
 9833POPC   C1B54835  13.792  22.365   6.455
 9833POPC   C2B54836  13.777  22.393   6.755
 9833POPC   C3B54837  13.789  22.417   7.055
 9833POPC   C4B54838  13.766  22.407   7.355
 9834POPC   NC354839  36.861   5.894   5.555
 9834POPC   PO454840  36.910   5.890   5.855
 9834POPC   GL154841  36.862   5.867   6.155
 9834POPC   GL254842  36.984   5.999   6.155
 9834POPC   C1A54843  36.884   5.839   6.455
 9834POPC   D2A54844  36.910   5.850   6.755
 9834POPC   C3A54845  36.884   5.871   7.055
 9834POPC   C4A54846  36.891   5.863   7.355
 9834POPC   C1B54847  37.037   6.094   6.455
 9834POPC   C2B54848  37.069   6.084   6.755
 9834POPC   C3B54849  37.035   6.101   7.055
 9834POPC   C4B54850  37.108   6.060   7.355
 9835POPC   NC354851   6.608   3.586   5.555
 9835POPC   PO454852   6.660   3.519   5.855
 9835POPC   GL154853   6.638   3.520   6.155
 9835POPC   GL254854   6.562   3.646   6.155
 9835POPC   C1A54855   6.682   3.521   6.455
 9835POPC   D2A54856   6.684   3.500   6.755
 9835POPC   C3A54857   6.597   3.518   7.055
 9835POPC   C4A54858   6.667   3.536   7.355
 9835POPC   C1B54859   6.565   3.817   6.455
 9835POPC   C2B54860   6.581   3.739   6.755
 9835POPC   C3B54861   6.615   3.771   7.055
 9835POPC   C4B54862   6.594   3.810   7.355
 9836POPC   NC354863  12.061   5.840   5.555
 9836POPC   PO454864  12.048   5.856   5.855
 9836POPC   GL154865  12.068   5.847   6.155
 9836POPC   GL254866  11.907   5.867   6.155
 9836POPC   C1A54867  12.089   5.851   6.455
 9836POPC   D2A54868  12.054   5.834   6.755
 9836POPC   C3A54869  12.042   5.840   7.055
 9836POPC   C4A54870  12.075   5.884   7.355
 9836POPC   C1B54871  11.832   5.771   6.455
 9836POPC   C2B54872  11.878   5.773   6.755
 9836POPC   C3B54873  11.861   5.765   7.055
 9836POPC   C4B54874  11.853   5.850   7.355
 9837POPC   NC354875  18.250  34.601   5.555
 9837POPC   PO454876  18.249  34.537   5.855
 9837POPC   GL154877  18.284  34.544   6.155
 9837POPC   GL254878  18.352  34.629   6.155
 9837POPC   C1A54879  18.259  34.585   6.455
 9837POPC   D2A54880  18.307  34.544   6.755
 9837POPC   C3A54881  18.258  34.587   7.055
 9837POPC   C4A54882  18.329  34.564   7.355
 9837POPC   C1B54883  18.454  34.763   6.455
 9837POPC   C2B54884  18.428  34.767   6.755
 9837POPC   C3B54885  18.494  34.703   7.055
 9837POPC   C4B54886  18.471  34.790   7.355
 9838POPC   NC354887   2.039   0.461   5.555
 9838POPC   PO454888   1.952   0.470   5.855
 9838POPC   GL154889   1.992   0.399   6.155
 9838POPC   GL254890   1.827   0.459   6.155
 9838POPC   C1A54891   1.944   0.420   6.455
 9838POPC   D2A54892   1.976   0.388   6.755
 9838POPC   C3A54893   1.973   0.419   7.055
 9838POPC   C4A54894   2.025   0.436   7.355
 9838POPC   C1B54895   1.734   0.534   6.455
 9838POPC   C2B54896   1.784   0.508   6.755
 9838POPC   C3B54897   1.783   0.548   7.055
 9838POPC   C4B54898   1.716   0.463   7.355
 9839POPC   NC354899   8.210  44.690   5.555
 9839POPC   PO454900   8.215  44.650   5.855
 9839POPC   GL154901   8.225  44.686   6.155
 9839POPC   GL254902   8.035  44.591   6.155
 9839POPC   C1A54903   8.147  44.655   6.455
 9839POPC   D2A54904   8.219  44.619   6.755
 9839POPC   C3A54905   8.228  44.654   7.055
 9839POPC   C4A54906   8.157  44.699   7.355
 9839POPC   C1B54907   7.910  44.630   6.455
 9839POPC   C2B54908   7.920  44.564   6.755
 9839POPC   C3B54909   7.976  44.580   7.055
 9839POPC   C4B54910   8.002  44.604   7.355
 9840POPC   NC354911  35.343  25.261   5.555
 9840POPC   PO454912  35.388  25.228   5.855
 9840POPC   GL154913  35.384  25.273   6.155
 9840POPC   GL254914  35.403  25.367   6.155
 9840POPC   C1A54915  35.385  25.231   6.455
 9840POPC   D2A54916  35.383  25.286   6.755
 9840POPC   C3A54917  35.303  25.223   7.055
 9840POPC   C4A54918  35.325  25.301   7.355
 9840POPC   C1B54919  35.572  25.418   6.455
 9840POPC   C2B54920  35.509  25.477   6.755
 9840POPC   C3B54921  35.543  25.432   7.055
 9840POPC   C4B54922  35.496  25.453   7.355
 9841POPC   NC354923   6.672  37.717   5.555
 9841POPC   PO454924   6.688  37.681   5.855
 9841POPC   GL154925   6.625  37.650   6.155
 9841POPC   GL254926   6.541  37.676   6.155
 9841POPC   C1A54927   6.598  37.699   6.455
 9841POPC   D2A54928   6.688  37.647   6.755
 9841POPC   C3A54929   6.654  37.726   7.055
 9841POPC   C4A54930   6.670  37.667   7.355
 9841POPC   C1B54931   6.451  37.597   6.455
 9841POPC   C2B54932   6.449  37.567   6.755
 9841POPC   C3B54933   6.426  37.623   7.055
 9841POPC   C4B54934   6.412  37.558   7.355
 9842POPC   NC354935  12.060   2.771   5.555
 9842POPC   PO454936  12.042   2.791   5.855
 9842POPC   GL154937  12.074   2.740   6.155
 9842POPC   GL254938  12.197   2.689   6.155
 9842POPC   C1A54939  12.109   2.741   6.455
 9842POPC   D2A54940  12.062   2.812   6.755
 9842POPC   C3A54941  12.067   2.804   7.055
 9842POPC   C4A54942  12.092   2.765   7.355
 9842POPC   C1B54943  12.279   2.543   6.455
 9842POPC   C2B54944  12.217   2.608   6.755
 9842POPC   C3B54945  12.279   2.577   7.055
 9842POPC   C4B54946  12.298   2.577   7.355
 9843POPC   NC354947  29.151  25.307   5.555
 9843POPC   PO454948  29.165  25.224   5.855
 9843POPC   GL154949  29.120  25.259   6.155
 9843POPC   GL254950  29.226  25.100   6.155
 9843POPC   C1A54951  29.178  25.287   6.455
 9843POPC   D2A54952  29.117  25.289   6.755
 9843POPC   C3A54953  29.132  25.241   7.055
 9843POPC   C4A54954  29.187  25.295   7.355
 9843POPC   C1B54955  29.201  25.066   6.455
 9843POPC   C2B54956  29.206  25.000   6.755
 9843POPC   C3B54957  29.262  25.062   7.055
 9843POPC   C4B54958  29.230  25.022   7.355
 9844POPC   NC354959  16.718   8.216   5.555
 9844POPC   PO454960  16.742   8.172   5.855
 9844POPC   GL154961  16.734   8.158   6.155
 9844POPC   GL254962  16.803   8.337   6.155
 9844POPC   C1A54963  16.715   8.211   6.455
 9844POPC   D2A54964  16.711   8.184   6.755
 9844POPC   C3A54965  16.726   8.192   7.055
 9844POPC   C4A54966  16.746   8.192   7.355
 9844POPC   C1B54967  16.792   8.486   6.455
 9844POPC   C2B54968  16.817   8.481   6.755
 9844POPC   C3B54969  16.828   8.466   7.055
 9844POPC   C4B54970  16.798   8.486   7.355
 9845POPC   NC354971  29.153  34.529   5.555
 9845POPC   PO454972  29.144  34.532   5.855
 9845POPC   GL154973  29.153  34.576   6.155
 9845POPC   GL254974  29.178  34.481   6.155
 9845POPC   C1A54975  29.164  34.560   6.455
 9845POPC   D2A54976  29.127  34.540   6.755
 9845POPC   C3A54977  29.101  34.608   7.055
 9845POPC   C4A54978  29.120  34.600   7.355
 9845POPC   C1B54979  29.227  34.324   6.455
 9845POPC   C2B54980  29.278  34.346   6.755
 9845POPC   C3B54981  29.245  34.378   7.055
 9845POPC   C4B54982  29.234  34.328   7.355
 9846POPC   NC354983  15.963  29.941   5.555
 9846POPC   PO454984  15.917  29.955   5.855
 9846POPC   GL154985  15.959  29.906   6.155
 9846POPC   GL254986  15.856  29.972   6.155
 9846POPC   C1A54987  15.908  29.915   6.455
 9846POPC   D2A54988  15.919  29.898   6.755
 9846POPC   C3A54989  15.917  29.931   7.055
 9846POPC   C4A54990  15.947  29.875   7.355
 9846POPC   C1B54991  15.739  29.893   6.455
 9846POPC   C2B54992  15.736  29.977   6.755
 9846POPC   C3B54993  15.709  29.911   7.055
 9846POPC   C4B54994  15.728  29.974   7.355
 9847POPC   NC354995  17.533  16.728   5.555
 9847POPC   PO454996  17.519  16.726   5.855
 9847POPC   GL154997  17.492  16.710   6.155
 9847POPC   GL254998  17.341  16.731   6.155
 9847POPC   C1A54999  17.462  16.776   6.455
 9847POPC   D2A55000  17.502  16.704   6.755
 9847POPC   C3A55001  17.515  16.733   7.055
 9847POPC   C4A55002  17.497  16.683   7.355
 9847POPC   C1B55003  17.256  16.778   6.455
 9847POPC   C2B55004  17.263  16.798   6.755
 9847POPC   C3B55005  17.235  16.793   7.055
 9847POPC   C4B55006  17.297  16.812   7.355
 9848POPC   NC355007  14.415  28.415   5.555
 9848POPC   PO455008  14.364  28.383   5.855
 9848POPC   GL155009  14.451  28.376   6.155
 9848POPC   GL255010  14.374  28.493   6.155
 9848POPC   C1A55011  14.453  28.395   6.455
 9848POPC   D2A55012  14.446  28.384   6.755
 9848POPC   C3A55013  14.442  28.408   7.055
 9848POPC   C4A55014  14.400  28.328   7.355
 9848POPC   C1B55015  14.395  28.569   6.455
 9848POPC   C2B55016  14.369  28.634   6.755
 9848POPC   C3B55017  14.410  28.642   7.055
 9848POPC   C4B55018  14.408  28.649   7.355
 9849POPC   NC355019  19.833  29.190   5.555
 9849POPC   PO455020  19.795  29.125   5.855
 9849POPC   GL155021  19.800  29.106   6.155
 9849POPC   GL255022  19.672  29.217   6.155
 9849POPC   C1A55023  19.870  29.122   6.455
 9849POPC   D2A55024  19.864  29.177   6.755
 9849POPC   C3A55025  19.827  29.124   7.055
 9849POPC   C4A55026  19.813  29.135   7.355
 9849POPC   C1B55027  19.552  29.177   6.455
 9849POPC   C2B55028  19.638  29.244   6.755
 9849POPC   C3B55029  19.601  29.165   7.055
 9849POPC   C4B55030  19.603  29.198   7.355
 9850POPC   NC355031  36.155  10.572   5.555
 9850POPC   PO455032  36.140  10.540   5.855
 9850POPC   GL155033  36.165  10.478   6.155
 9850POPC   GL255034  35.998  10.448   6.155
 9850POPC   C1A55035  36.097  10.526   6.455
 9850POPC   D2A55036  36.172  10.569   6.755
 9850POPC   C3A55037  36.143  10.541   7.055
 9850POPC   C4A55038  36.131  10.521   7.355
 9850POPC   C1B55039  35.914  10.369   6.455
 9850POPC   C2B55040  35.974  10.305   6.755
 9850POPC   C3B55041  35.973  10.297   7.055
 9850POPC   C4B55042  35.984  10.362   7.355
 9851POPC   NC355043  15.928  19.087   5.555
 9851POPC   PO455044  15.972  19.039   5.855
 9851POPC   GL155045  15.979  19.020   6.155
 9851POPC   GL255046  16.033  19.141   6.155
 9851POPC   C1A55047  15.964  19.089   6.455
 9851POPC   D2A55048  15.909  19.018   6.755
 9851POPC   C3A55049  15.991  19.084   7.055
 9851POPC   C4A55050  15.928  19.037   7.355
 9851POPC   C1B55051  16.041  19.276   6.455
 9851POPC   C2B55052  16.074  19.253   6.755
 9851POPC   C3B55053  16.031  19.259   7.055
 9851POPC   C4B55054  16.039  19.334   7.355
 9852POPC   NC355055   8.980  38.475   5.555
 9852POPC   PO455056   8.946  38.440   5.855
 9852POPC   GL155057   8.964  38.457   6.155
 9852POPC   GL255058   8.956  38.530   6.155
 9852POPC   C1A55059   8.962  38.453   6.455
 9852POPC   D2A55060   8.977  38.466   6.755
 9852POPC   C3A55061   8.969  38.415   7.055
 9852POPC   C4A55062   8.942  38.462   7.355
 9852POPC   C1B55063   8.942  38.722   6.455
 9852POPC   C2B55064   8.939  38.661   6.755
 9852POPC   C3B55065   8.942  38.730   7.055
 9852POPC   C4B55066   8.899  38.666   7.355
 9853POPC   NC355067  15.968  19.857   5.555
 9853POPC   PO455068  15.942  19.812   5.855
 9853POPC   GL155069  15.947  19.875   6.155
 9853POPC   GL255070  15.793  19.910   6.155
 9853POPC   C1A55071  15.988  19.797   6.455
 9853POPC   D2A55072  15.920  19.859   6.755
 9853POPC   C3A55073  15.916  19.823   7.055
 9853POPC   C4A55074  15.958  19.831   7.355
 9853POPC   C1B55075  15.687  19.924   6.455
 9853POPC   C2B55076  15.728  19.954   6.755
 9853POPC   C3B55077  15.671  19.940   7.055
 9853POPC   C4B55078  15.731  19.873   7.355
 9854POPC   NC355079  23.755  39.276   5.555
 9854POPC   PO455080  23.729  39.220   5.855
 9854POPC   GL155081  23.726  39.218   6.155
 9854POPC   GL255082  23.659  39.094   6.155
 9854POPC   C1A55083  23.677  39.258   6.455
 9854POPC   D2A55084  23.734  39.188   6.755
 9854POPC   C3A55085  23.687  39.262   7.055
 9854POPC   C4A55086  23.762  39.276   7.355
 9854POPC   C1B55087  23.626  38.971   6.455
 9854POPC   C2B55088  23.640  38.996   6.755
 9854POPC   C3B55089  23.599  39.022   7.055
 9854POPC   C4B55090  23.684  38.980   7.355
 9855POPC   NC355091  16.001  23.695   5.555
 9855POPC   PO455092  15.973  23.712   5.855
 9855POPC   GL155093  15.950  23.666   6.155
 9855POPC   GL255094  15.871  23.597   6.155
 9855POPC   C1A55095  15.943  23.720   6.455
 9855POPC   D2A55096  15.966  23.754   6.755
 9855POPC   C3A55097  15.979  23.683   7.055
 9855POPC   C4A55098  15.959  23.709   7.355
 9855POPC   C1B55099  15.879  23.502   6.455
 9855POPC   C2B55100  15.860  23.512   6.755
 9855POPC   C3B55101  15.879  23.451   7.055
 9855POPC   C4B55102  15.862  23.449   7.355
 9856POPC   NC355103  35.359  28.366   5.555
 9856POPC   PO455104  35.376  28.393   5.855
 9856POPC   GL155105  35.395  28.416   6.155
 9856POPC   GL255106  35.398  28.428   6.155
 9856POPC   C1A55107  35.329  28.376   6.455
 9856POPC   D2A55108  35.376  28.330   6.755
 9856POPC   C3A55109  35.397  28.327   7.055
 9856POPC   C4A55110  35.373  28.341   7.355
 9856POPC   C1B55111  35.482  28.527   6.455
 9856POPC   C2B55112  35.551  28.534   6.755
 9856POPC   C3B55113  35.555  28.531   7.055
 9856POPC   C4B55114  35.496  28.584   7.355
 9857POPC   NC355115  36.149  39.959   5.555
 9857POPC   PO455116  36.116  40.048   5.855
 9857POPC   GL155117  36.094  40.017   6.155
 9857POPC   GL255118  36.023  39.971   6.155
 9857POPC   C1A55119  36.131  40.020   6.455
 9857POPC   D2A55120  36.094  40.025   6.755
 9857POPC   C3A55121  36.142  40.050   7.055
 9857POPC   C4A55122  36.143  40.028   7.355
 9857POPC   C1B55123  35.884  40.004   6.455
 9857POPC   C2B55124  35.875  39.951   6.755
 9857POPC   C3B55125  35.918  39.927   7.055
 9857POPC   C4B55126  35.857  39.942   7.355
 9858POPC   NC355127  20.645  24.443   5.555
 9858POPC   PO455128  20.592  24.442   5.855
 9858POPC   GL155129  20.657  24.525   6.155
 9858POPC   GL255130  20.669  24.328   6.155
 9858POPC   C1A55131  20.638  24.457   6.455
 9858POPC   D2A55132  20.575  24.448   6.755
 9858POPC   C3A55133  20.617  24.445   7.055
 9858POPC   C4A55134  20.648  24.457   7.355
 9858POPC   C1B55135  20.661  24.238   6.455
 9858POPC   C2B55136  20.675  24.247   6.755
 9858POPC   C3B55137  20.623  24.214   7.055
 9858POPC   C4B55138  20.617  24.257   7.355
 9859POPC   NC355139  40.017  41.541   5.555
 9859POPC   PO455140  40.005  41.561   5.855
 9859POPC   GL155141  39.990  41.517   6.155
 9859POPC   GL255142  39.976  41.478   6.155
 9859POPC   C1A55143  40.034  41.601   6.455
 9859POPC   D2A55144  39.978  41.528   6.755
 9859POPC   C3A55145  40.021  41.540   7.055
 9859POPC   C4A55146  39.967  41.586   7.355
 9859POPC   C1B55147  39.867  41.405   6.455
 9859POPC   C2B55148  39.849  41.313   6.755
 9859POPC   C3B55149  39.835  41.338   7.055
 9859POPC   C4B55150  39.900  41.318   7.355
 9860POPC   NC355151  18.328  28.405   5.555
 9860POPC   PO455152  18.254  28.379   5.855
 9860POPC   GL155153  18.317  28.335   6.155
 9860POPC   GL255154  18.265  28.235   6.155
 9860POPC   C1A55155  18.289  28.382   6.455
 9860POPC   D2A55156  18.261  28.403   6.755
 9860POPC   C3A55157  18.288  28.377   7.055
 9860POPC   C4A55158  18.270  28.348   7.355
 9860POPC   C1B55159  18.283  28.076   6.455
 9860POPC   C2B55160  18.234  28.117   6.755
 9860POPC   C3B55161  18.227  28.143   7.055
 9860POPC   C4B55162  18.250  28.114   7.355
 9861POPC   NC355163  36.927  16.684   5.555
 9861POPC   PO455164  36.894  16.686   5.855
 9861POPC   GL155165  36.916  16.709   6.155
 9861POPC   GL255166  36.949  16.665   6.155
 9861POPC   C1A55167  36.873  16.765   6.455
 9861POPC   D2A55168  36.933  16.765   6.755
 9861POPC   C3A55169  36.872  16.742   7.055
 9861POPC   C4A55170  36.935  16.757   7.355
 9861POPC   C1B55171  37.076  16.514   6.455
 9861POPC   C2B55172  37.055  16.499   6.755
 9861POPC   C3B55173  37.010  16.558   7.055
 9861POPC   C4B55174  37.094  16.572   7.355
 9862POPC   NC355175  43.862  35.349   5.555
 9862POPC   PO455176  43.837  35.391   5.855
 9862POPC   GL155177  43.868  35.343   6.155
 9862POPC   GL255178  43.938  35.232   6.155
 9862POPC   C1A55179  43.869  35.354   6.455
 9862POPC   D2A55180  43.893  35.325   6.755
 9862POPC   C3A55181  43.855  35.357   7.055
 9862POPC   C4A55182  43.860  35.322   7.355
 9862POPC   C1B55183  44.051  35.178   6.455
 9862POPC   C2B55184  44.030  35.120   6.755
 9862POPC   C3B55185  44.000  35.164   7.055
 9862POPC   C4B55186  44.023  35.160   7.355
 9863POPC   NC355187  34.612  32.282   5.555
 9863POPC   PO455188  34.549  32.274   5.855
 9863POPC   GL155189  34.553  32.258   6.155
 9863POPC   GL255190  34.741  32.255   6.155
 9863POPC   C1A55191  34.558  32.270   6.455
 9863POPC   D2A55192  34.602  32.213   6.755
 9863POPC   C3A55193  34.623  32.297   7.055
 9863POPC   C4A55194  34.546  32.269   7.355
 9863POPC   C1B55195  34.822  32.207   6.455
 9863POPC   C2B55196  34.816  32.211   6.755
 9863POPC   C3B55197  34.793  32.212   7.055
 9863POPC   C4B55198  34.846  32.190   7.355
 9864POPC   NC355199   5.081  30.682   5.555
 9864POPC   PO455200   5.045  30.647   5.855
 9864POPC   GL155201   5.137  30.667   6.155
 9864POPC   GL255202   5.214  30.610   6.155
 9864POPC   C1A55203   5.059  30.745   6.455
 9864POPC   D2A55204   5.048  30.681   6.755
 9864POPC   C3A55205   5.056  30.706   7.055
 9864POPC   C4A55206   5.118  30.659   7.355
 9864POPC   C1B55207   5.290  30.584   6.455
 9864POPC   C2B55208   5.302  30.574   6.755
 9864POPC   C3B55209   5.327  30.600   7.055
 9864POPC   C4B55210   5.295  30.560   7.355
 9865POPC   NC355211  36.158  33.757   5.555
 9865POPC   PO455212  36.141  33.760   5.855
 9865POPC   GL155213  36.104  33.774   6.155
 9865POPC   GL255214  36.111  33.655   6.155
 9865POPC   C1A55215  36.132  33.763   6.455
 9865POPC   D2A55216  36.103  33.790   6.755
 9865POPC   C3A55217  36.080  33.779   7.055
 9865POPC   C4A55218  36.169  33.803   7.355
 9865POPC   C1B55219  36.150  33.591   6.455
 9865POPC   C2B55220  36.201  33.605   6.755
 9865POPC   C3B55221  36.192  33.553   7.055
 9865POPC   C4B55222  36.223  33.530   7.355
 9866POPC   NC355223   1.167   7.433   5.555
 9866POPC   PO455224   1.168   7.420   5.855
 9866POPC   GL155225   1.209   7.383   6.155
 9866POPC   GL255226   1.273   7.301   6.155
 9866POPC   C1A55227   1.233   7.424   6.455
 9866POPC   D2A55228   1.177   7.372   6.755
 9866POPC   C3A55229   1.191   7.461   7.055
 9866POPC   C4A55230   1.198   7.428   7.355
 9866POPC   C1B55231   1.412   7.270   6.455
 9866POPC   C2B55232   1.414   7.204   6.755
 9866POPC   C3B55233   1.370   7.259   7.055
 9866POPC   C4B55234   1.408   7.216   7.355
 9867POPC   NC355235  38.487  22.172   5.555
 9867POPC   PO455236  38.496  22.178   5.855
 9867POPC   GL155237  38.463  22.128   6.155
 9867POPC   GL255238  38.447  22.295   6.155
 9867POPC   C1A55239  38.423  22.118   6.455
 9867POPC   D2A55240  38.493  22.141   6.755
 9867POPC   C3A55241  38.435  22.156   7.055
 9867POPC   C4A55242  38.483  22.166   7.355
 9867POPC   C1B55243  38.379  22.428   6.455
 9867POPC   C2B55244  38.308  22.355   6.755
 9867POPC   C3B55245  38.355  22.384   7.055
 9867POPC   C4B55246  38.326  22.405   7.355
 9868POPC   NC355247   2.782  12.071   5.555
 9868POPC   PO455248   2.751  12.055   5.855
 9868POPC   GL155249   2.747  12.123   6.155
 9868POPC   GL255250   2.924  12.075   6.155
 9868POPC   C1A55251   2.759  12.120   6.455
 9868POPC   D2A55252   2.773  12.046   6.755
 9868POPC   C3A55253   2.806  12.087   7.055
 9868POPC   C4A55254   2.805  12.090   7.355
 9868POPC   C1B55255   3.001  11.978   6.455
 9868POPC   C2B55256   2.962  11.987   6.755
 9868POPC   C3B55257   2.973  11.959   7.055
 9868POPC   C4B55258   2.986  11.972   7.355
 9869POPC   NC355259  24.523   5.851   5.555
 9869POPC   PO455260  24.525   5.881   5.855
 9869POPC   GL155261  24.504   5.913   6.155
 9869POPC   GL255262  24.629   5.783   6.155
 9869POPC   C1A55263  24.533   5.830   6.455
 9869POPC   D2A55264  24.441   5.838   6.755
 9869POPC   C3A55265  24.470   5.881   7.055
 9869POPC   C4A55266  24.510   5.842   7.355
 9869POPC   C1B55267  24.673   5.683   6.455
 9869POPC   C2B55268  24.651   5.718   6.755
 9869POPC   C3B55269  24.673   5.707   7.055
 9869POPC   C4B55270  24.673   5.726   7.355
 9870POPC   NC355271  30.690  19.812   5.555
 9870POPC   PO455272  30.720  19.812   5.855
 9870POPC   GL155273  30.652  19.800   6.155
 9870POPC   GL255274  30.840  19.809   6.155
 9870POPC   C1A55275  30.742  19.860   6.455
 9870POPC   D2A55276  30.734  19.873   6.755
 9870POPC   C3A55277  30.673  19.810   7.055
 9870POPC   C4A55278  30.661  19.882   7.355
 9870POPC   C1B55279  30.923  19.824   6.455
 9870POPC   C2B55280  30.907  19.838   6.755
 9870POPC   C3B55281  30.953  19.875   7.055
 9870POPC   C4B55282  30.946  19.869   7.355
 9871POPC   NC355283  40.827  12.862   5.555
 9871POPC   PO455284  40.743  12.888   5.855
 9871POPC   GL155285  40.735  12.854   6.155
 9871POPC   GL255286  40.733  12.748   6.155
 9871POPC   C1A55287  40.741  12.842   6.455
 9871POPC   D2A55288  40.747  12.883   6.755
 9871POPC   C3A55289  40.814  12.816   7.055
 9871POPC   C4A55290  40.759  12.896   7.355
 9871POPC   C1B55291  40.609  12.628   6.455
 9871POPC   C2B55292  40.605  12.719   6.755
 9871POPC   C3B55293  40.625  12.669   7.055
 9871POPC   C4B55294  40.579  12.665   7.355
 9872POPC   NC355295  43.111  33.025   5.555
 9872POPC   PO455296  43.095  33.036   5.855
 9872POPC   GL155297  43.087  33.017   6.155
 9872POPC   GL255298  43.164  33.136   6.155
 9872POPC   C1A55299  43.100  33.042   6.455
 9872POPC   D2A55300  43.087  33.050   6.755
 9872POPC   C3A55301  43.109  33.004   7.055
 9872POPC   C4A55302  43.088  32.991   7.355
 9872POPC   C1B55303  43.109  33.233   6.455
 9872POPC   C2B55304  43.175  33.288   6.755
 9872POPC   C3B55305  43.154  33.320   7.055
 9872POPC   C4B55306  43.112  33.264   7.355
 9873POPC   NC355307   3.532  14.446   5.555
 9873POPC   PO455308   3.579  14.403   5.855
 9873POPC   GL155309   3.529  14.426   6.155
 9873POPC   GL255310   3.560  14.528   6.155
 9873POPC   C1A55311   3.572  14.367   6.455
 9873POPC   D2A55312   3.515  14.366   6.755
 9873POPC   C3A55313   3.559  14.426   7.055
 9873POPC   C4A55314   3.565  14.431   7.355
 9873POPC   C1B55315   3.508  14.679   6.455
 9873POPC   C2B55316   3.530  14.660   6.755
 9873POPC   C3B55317   3.474  14.641   7.055
 9873POPC   C4B55318   3.462  14.614   7.355
 9874POPC   NC355319  11.339  39.966   5.555
 9874POPC   PO455320  11.305  40.052   5.855
 9874POPC   GL155321  11.300  40.011   6.155
 9874POPC   GL255322  11.454  40.066   6.155
 9874POPC   C1A55323  11.341  40.010   6.455
 9874POPC   D2A55324  11.331  39.969   6.755
 9874POPC   C3A55325  11.284  39.962   7.055
 9874POPC   C4A55326  11.349  40.054   7.355
 9874POPC   C1B55327  11.531  40.091   6.455
 9874POPC   C2B55328  11.504  40.024   6.755
 9874POPC   C3B55329  11.525  40.081   7.055
 9874POPC   C4B55330  11.554  40.089   7.355
 9875POPC   NC355331   8.990  23.723   5.555
 9875POPC   PO455332   8.932  23.692   5.855
 9875POPC   GL155333   8.979  23.738   6.155
 9875POPC   GL255334   9.018  23.645   6.155
 9875POPC   C1A55335   8.981  23.734   6.455
 9875POPC   D2A55336   8.923  23.693   6.755
 9875POPC   C3A55337   9.007  23.697   7.055
 9875POPC   C4A55338   8.932  23.748   7.355
 9875POPC   C1B55339   9.147  23.528   6.455
 9875POPC   C2B55340   9.157  23.566   6.755
 9875POPC   C3B55341   9.160  23.552   7.055
 9875POPC   C4B55342   9.168  23.491   7.355
 9876POPC   NC355343  27.563  12.839   5.555
 9876POPC   PO455344  27.568  12.838   5.855
 9876POPC   GL155345  27.589  12.879   6.155
 9876POPC   GL255346  27.517  12.935   6.155
 9876POPC   C1A55347  27.636  12.809   6.455
 9876POPC   D2A55348  27.626  12.879   6.755
 9876POPC   C3A55349  27.569  12.888   7.055
 9876POPC   C4A55350  27.641  12.873   7.355
 9876POPC   C1B55351  27.507  13.113   6.455
 9876POPC   C2B55352  27.470  13.067   6.755
 9876POPC   C3B55353  27.493  13.090   7.055
 9876POPC   C4B55354  27.463  13.068   7.355
 9877POPC   NC355355  35.306  34.532   5.555
 9877POPC   PO455356  35.376  34.531   5.855
 9877POPC   GL155357  35.394  34.582   6.155
 9877POPC   GL255358  35.464  34.541   6.155
 9877POPC   C1A55359  35.362  34.540   6.455
 9877POPC   D2A55360  35.370  34.615   6.755
 9877POPC   C3A55361  35.349  34.591   7.055
 9877POPC   C4A55362  35.397  34.537   7.355
 9877POPC   C1B55363  35.649  34.567   6.455
 9877POPC   C2B55364  35.610  34.614   6.755
 9877POPC   C3B55365  35.591  34.596   7.055
 9877POPC   C4B55366  35.591  34.553   7.355
 9878POPC   NC355367  28.408  22.912   5.555
 9878POPC   PO455368  28.368  22.947   5.855
 9878POPC   GL155369  28.375  22.893   6.155
 9878POPC   GL255370  28.495  22.906   6.155
 9878POPC   C1A55371  28.348  22.944   6.455
 9878POPC   D2A55372  28.347  22.967   6.755
 9878POPC   C3A55373  28.412  22.939   7.055
 9878POPC   C4A55374  28.409  22.888   7.355
 9878POPC   C1B55375  28.619  22.939   6.455
 9878POPC   C2B55376  28.599  22.892   6.755
 9878POPC   C3B55377  28.623  22.910   7.055
 9878POPC   C4B55378  28.578  22.980   7.355
 9879POPC   NC355379  21.411  19.084   5.555
 9879POPC   PO455380  21.388  19.089   5.855
 9879POPC   GL155381  21.340  19.033   6.155
 9879POPC   GL255382  21.485  19.077   6.155
 9879POPC   C1A55383  21.344  19.078   6.455
 9879POPC   D2A55384  21.431  19.058   6.755
 9879POPC   C3A55385  21.426  19.060   7.055
 9879POPC   C4A55386  21.411  19.034   7.355
 9879POPC   C1B55387  21.624  19.147   6.455
 9879POPC   C2B55388  21.633  19.120   6.755
 9879POPC   C3B55389  21.634  19.188   7.055
 9879POPC   C4B55390  21.667  19.115   7.355
 9880POPC   NC355391  21.384   6.648   5.555
 9880POPC   PO455392  21.398   6.688   5.855
 9880POPC   GL155393  21.378   6.678   6.155
 9880POPC   GL255394  21.310   6.741   6.155
 9880POPC   C1A55395  21.394   6.675   6.455
 9880POPC   D2A55396  21.386   6.665   6.755
 9880POPC   C3A55397  21.366   6.683   7.055
 9880POPC   C4A55398  21.371   6.670   7.355
 9880POPC   C1B55399  21.278   6.826   6.455
 9880POPC   C2B55400  21.319   6.828   6.755
 9880POPC   C3B55401  21.326   6.910   7.055
 9880POPC   C4B55402  21.282   6.863   7.355
 9881POPC   NC355403  39.992  12.844   5.555
 9881POPC   PO455404  40.039  12.865   5.855
 9881POPC   GL155405  40.039  12.898   6.155
 9881POPC   GL255406  39.957  12.698   6.155
 9881POPC   C1A55407  40.044  12.855   6.455
 9881POPC   D2A55408  40.010  12.846   6.755
 9881POPC   C3A55409  39.965  12.902   7.055
 9881POPC   C4A55410  40.032  12.866   7.355
 9881POPC   C1B55411  39.917  12.624   6.455
 9881POPC   C2B55412  39.911  12.605   6.755
 9881POPC   C3B55413  39.999  12.638   7.055
 9881POPC   C4B55414  39.997  12.642   7.355
 9882POPC   NC355415  37.687  29.944   5.555
 9882POPC   PO455416  37.712  29.902   5.855
 9882POPC   GL155417  37.649  29.873   6.155
 9882POPC   GL255418  37.816  30.034   6.155
 9882POPC   C1A55419  37.713  29.918   6.455
 9882POPC   D2A55420  37.647  29.911   6.755
 9882POPC   C3A55421  37.717  29.917   7.055
 9882POPC   C4A55422  37.663  29.934   7.355
 9882POPC   C1B55423  37.885  30.055   6.455
 9882POPC   C2B55424  37.898  30.139   6.755
 9882POPC   C3B55425  37.870  30.059   7.055
 9882POPC   C4B55426  37.871  30.088   7.355
 9883POPC   NC355427  43.127  19.020   5.555
 9883POPC   PO455428  43.095  19.039   5.855
 9883POPC   GL155429  43.144  19.023   6.155
 9883POPC   GL255430  43.014  19.020   6.155
 9883POPC   C1A55431  43.094  19.021   6.455
 9883POPC   D2A55432  43.096  19.104   6.755
 9883POPC   C3A55433  43.108  19.090   7.055
 9883POPC   C4A55434  43.125  19.040   7.355
 9883POPC   C1B55435  42.866  19.034   6.455
 9883POPC   C2B55436  42.857  19.064   6.755
 9883POPC   C3B55437  42.817  19.027   7.055
 9883POPC   C4B55438  42.861  19.059   7.355
 9884POPC   NC355439   9.733  17.537   5.555
 9884POPC   PO455440   9.767  17.472   5.855
 9884POPC   GL155441   9.767  17.531   6.155
 9884POPC   GL255442   9.835  17.572   6.155
 9884POPC   C1A55443   9.699  17.504   6.455
 9884POPC   D2A55444   9.712  17.491   6.755
 9884POPC   C3A55445   9.767  17.544   7.055
 9884POPC   C4A55446   9.779  17.532   7.355
 9884POPC   C1B55447   9.855  17.747   6.455
 9884POPC   C2B55448   9.858  17.731   6.755
 9884POPC   C3B55449   9.877  17.749   7.055
 9884POPC   C4B55450   9.945  17.736   7.355
 9885POPC   NC355451  15.957  31.443   5.555
 9885POPC   PO455452  16.001  31.519   5.855
 9885POPC   GL155453  15.939  31.467   6.155
 9885POPC   GL255454  15.962  31.602   6.155
 9885POPC   C1A55455  16.004  31.462   6.455
 9885POPC   D2A55456  15.908  31.446   6.755
 9885POPC   C3A55457  15.981  31.459   7.055
 9885POPC   C4A55458  15.938  31.435   7.355
 9885POPC   C1B55459  16.051  31.750   6.455
 9885POPC   C2B55460  16.059  31.756   6.755
 9885POPC   C3B55461  15.987  31.762   7.055
 9885POPC   C4B55462  16.063  31.720   7.355
 9886POPC   NC355463  35.345  16.745   5.555
 9886POPC   PO455464  35.358  16.780   5.855
 9886POPC   GL155465  35.384  16.733   6.155
 9886POPC   GL255466  35.229  16.740   6.155
 9886POPC   C1A55467  35.329  16.728   6.455
 9886POPC   D2A55468  35.304  16.721   6.755
 9886POPC   C3A55469  35.383  16.731   7.055
 9886POPC   C4A55470  35.391  16.745   7.355
 9886POPC   C1B55471  35.165  16.830   6.455
 9886POPC   C2B55472  35.083  16.838   6.755
 9886POPC   C3B55473  35.152  16.828   7.055
 9886POPC   C4B55474  35.067  16.849   7.355
 9887POPC   NC355475  39.189  30.665   5.555
 9887POPC   PO455476  39.217  30.701   5.855
 9887POPC   GL155477  39.271  30.697   6.155
 9887POPC   GL255478  39.189  30.541   6.155
 9887POPC   C1A55479  39.259  30.674   6.455
 9887POPC   D2A55480  39.198  30.678   6.755
 9887POPC   C3A55481  39.278  30.731   7.055
 9887POPC   C4A55482  39.261  30.721   7.355
 9887POPC   C1B55483  39.142  30.418   6.455
 9887POPC   C2B55484  39.194  30.406   6.755
 9887POPC   C3B55485  39.165  30.454   7.055
 9887POPC   C4B55486  39.205  30.486   7.355
 9888POPC   NC355487  42.364  38.502   5.555
 9888POPC   PO455488  42.298  38.454   5.855
 9888POPC   GL155489  42.360  38.425   6.155
 9888POPC   GL255490  42.281  38.363   6.155
 9888POPC   C1A55491  42.322  38.434   6.455
 9888POPC   D2A55492  42.364  38.440   6.755
 9888POPC   C3A55493  42.351  38.472   7.055
 9888POPC   C4A55494  42.352  38.495   7.355
 9888POPC   C1B55495  42.282  38.256   6.455
 9888POPC   C2B55496  42.227  38.180   6.755
 9888POPC   C3B55497  42.256  38.269   7.055
 9888POPC   C4B55498  42.285  38.254   7.355
 9889POPC   NC355499  29.913  41.573   5.555
 9889POPC   PO455500  29.907  41.581   5.855
 9889POPC   GL155501  29.893  41.510   6.155
 9889POPC   GL255502  29.906  41.406   6.155
 9889POPC   C1A55503  29.944  41.590   6.455
 9889POPC   D2A55504  29.930  41.577   6.755
 9889POPC   C3A55505  29.921  41.560   7.055
 9889POPC   C4A55506  29.960  41.553   7.355
 9889POPC   C1B55507  29.936  41.304   6.455
 9889POPC   C2B55508  29.951  41.299   6.755
 9889POPC   C3B55509  29.993  41.274   7.055
 9889POPC   C4B55510  29.961  41.335   7.355
 9890POPC   NC355511  30.698  39.270   5.555
 9890POPC   PO455512  30.705  39.263   5.855
 9890POPC   GL155513  30.683  39.213   6.155
 9890POPC   GL255514  30.619  39.117   6.155
 9890POPC   C1A55515  30.685  39.195   6.455
 9890POPC   D2A55516  30.650  39.247   6.755
 9890POPC   C3A55517  30.674  39.240   7.055
 9890POPC   C4A55518  30.707  39.226   7.355
 9890POPC   C1B55519  30.533  39.093   6.455
 9890POPC   C2B55520  30.523  39.072   6.755
 9890POPC   C3B55521  30.479  39.040   7.055
 9890POPC   C4B55522  30.566  39.000   7.355
 9891POPC   NC355523  28.367  19.812   5.555
 9891POPC   PO455524  28.321  19.848   5.855
 9891POPC   GL155525  28.385  19.881   6.155
 9891POPC   GL255526  28.425  19.919   6.155
 9891POPC   C1A55527  28.405  19.827   6.455
 9891POPC   D2A55528  28.386  19.793   6.755
 9891POPC   C3A55529  28.369  19.855   7.055
 9891POPC   C4A55530  28.327  19.820   7.355
 9891POPC   C1B55531  28.571  20.033   6.455
 9891POPC   C2B55532  28.610  20.029   6.755
 9891POPC   C3B55533  28.605  19.988   7.055
 9891POPC   C4B55534  28.593  19.971   7.355
 9892POPC   NC355535  33.757  32.220   5.555
 9892POPC   PO455536  33.833  32.286   5.855
 9892POPC   GL155537  33.796  32.209   6.155
 9892POPC   GL255538  33.665  32.247   6.155
 9892POPC   C1A55539  33.837  32.219   6.455
 9892POPC   D2A55540  33.848  32.223   6.755
 9892POPC   C3A55541  33.820  32.249   7.055
 9892POPC   C4A55542  33.771  32.259   7.355
 9892POPC   C1B55543  33.535  32.268   6.455
 9892POPC   C2B55544  33.578  32.275   6.755
 9892POPC   C3B55545  33.508  32.263   7.055
 9892POPC   C4B55546  33.540  32.255   7.355
 9893POPC   NC355547  19.859  16.685   5.555
 9893POPC   PO455548  19.829  16.708   5.855
 9893POPC   GL155549  19.793  16.755   6.155
 9893POPC   GL255550  19.760  16.644   6.155
 9893POPC   C1A55551  19.877  16.744   6.455
 9893POPC   D2A55552  19.807  16.718   6.755
 9893POPC   C3A55553  19.847  16.776   7.055
 9893POPC   C4A55554  19.840  16.698   7.355
 9893POPC   C1B55555  19.591  16.590   6.455
 9893POPC   C2B55556  19.626  16.611   6.755
 9893POPC   C3B55557  19.614  16.638   7.055
 9893POPC   C4B55558  19.597  16.649   7.355
 9894POPC   NC355559  29.167  21.351   5.555
 9894POPC   PO455560  29.163  21.404   5.855
 9894POPC   GL155561  29.144  21.364   6.155
 9894POPC   GL255562  29.017  21.422   6.155
 9894POPC   C1A55563  29.156  21.408   6.455
 9894POPC   D2A55564  29.130  21.417   6.755
 9894POPC   C3A55565  29.109  21.395   7.055
 9894POPC   C4A55566  29.192  21.431   7.355
 9894POPC   C1B55567  28.917  21.571   6.455
 9894POPC   C2B55568  28.985  21.544   6.755
 9894POPC   C3B55569  28.956  21.525   7.055
 9894POPC   C4B55570  28.989  21.568   7.355
 9895POPC   NC355571   6.638   8.201   5.555
 9895POPC   PO455572   6.681   8.246   5.855
 9895POPC   GL155573   6.651   8.169   6.155
 9895POPC   GL255574   6.808   8.236   6.155
 9895POPC   C1A55575   6.655   8.208   6.455
 9895POPC   D2A55576   6.635   8.223   6.755
 9895POPC   C3A55577   6.603   8.189   7.055
 9895POPC   C4A55578   6.655   8.237   7.355
 9895POPC   C1B55579   6.845   8.138   6.455
 9895POPC   C2B55580   6.939   8.231   6.755
 9895POPC   C3B55581   6.917   8.167   7.055
 9895POPC   C4B55582   6.876   8.178   7.355
 9896POPC   NC355583   8.972  15.909   5.555
 9896POPC   PO455584   8.936  15.969   5.855
 9896POPC   GL155585   8.973  15.931   6.155
 9896POPC   GL255586   9.084  16.044   6.155
 9896POPC   C1A55587   8.948  15.969   6.455
 9896POPC   D2A55588   8.999  15.991   6.755
 9896POPC   C3A55589   8.936  15.906   7.055
 9896POPC   C4A55590   8.940  15.928   7.355
 9896POPC   C1B55591   9.099  16.160   6.455
 9896POPC   C2B55592   9.125  16.181   6.755
 9896POPC   C3B55593   9.141  16.111   7.055
 9896POPC   C4B55594   9.126  16.128   7.355
 9897POPC   NC355595   7.395  39.212   5.555
 9897POPC   PO455596   7.379  39.262   5.855
 9897POPC   GL155597   7.374  39.191   6.155
 9897POPC   GL255598   7.526  39.234   6.155
 9897POPC   C1A55599   7.447  39.252   6.455
 9897POPC   D2A55600   7.465  39.238   6.755
 9897POPC   C3A55601   7.400  39.189   7.055
 9897POPC   C4A55602   7.394  39.212   7.355
 9897POPC   C1B55603   7.659  39.188   6.455
 9897POPC   C2B55604   7.658  39.203   6.755
 9897POPC   C3B55605   7.693  39.185   7.055
 9897POPC   C4B55606   7.693  39.139   7.355
 9898POPC   NC355607  18.326   8.944   5.555
 9898POPC   PO455608  18.273   9.007   5.855
 9898POPC   GL155609  18.244   8.980   6.155
 9898POPC   GL255610  18.195   9.064   6.155
 9898POPC   C1A55611  18.317   8.925   6.455
 9898POPC   D2A55612  18.261   8.988   6.755
 9898POPC   C3A55613  18.282   8.939   7.055
 9898POPC   C4A55614  18.238   8.949   7.355
 9898POPC   C1B55615  18.095   9.075   6.455
 9898POPC   C2B55616  18.038   9.066   6.755
 9898POPC   C3B55617  18.089   9.097   7.055
 9898POPC   C4B55618  18.010   9.078   7.355
 9899POPC   NC355619   4.315  22.929   5.555
 9899POPC   PO455620   4.274  22.925   5.855
 9899POPC   GL155621   4.295  22.948   6.155
 9899POPC   GL255622   4.241  22.961   6.155
 9899POPC   C1A55623   4.345  22.929   6.455
 9899POPC   D2A55624   4.287  22.945   6.755
 9899POPC   C3A55625   4.352  22.898   7.055
 9899POPC   C4A55626   4.321  22.948   7.355
 9899POPC   C1B55627   4.124  23.044   6.455
 9899POPC   C2B55628   4.082  23.053   6.755
 9899POPC   C3B55629   4.104  23.084   7.055
 9899POPC   C4B55630   4.114  23.091   7.355
 9900POPC   NC355631  15.907  13.639   5.555
 9900POPC   PO455632  15.922  13.661   5.855
 9900POPC   GL155633  15.963  13.608   6.155
 9900POPC   GL255634  15.977  13.768   6.155
 9900POPC   C1A55635  15.925  13.592   6.455
 9900POPC   D2A55636  15.986  13.675   6.755
 9900POPC   C3A55637  15.932  13.646   7.055
 9900POPC   C4A55638  15.992  13.590   7.355
 9900POPC   C1B55639  15.874  13.833   6.455
 9900POPC   C2B55640  15.860  13.896   6.755
 9900POPC   C3B55641  15.870  13.834   7.055
 9900POPC   C4B55642  15.892  13.835   7.355
 9901POPC   NC355643  42.291  21.410   5.555
 9901POPC   PO455644  42.328  21.429   5.855
 9901POPC   GL155645  42.369  21.393   6.155
 9901POPC   GL255646  42.192  21.428   6.155
 9901POPC   C1A55647  42.374  21.370   6.455
 9901POPC   D2A55648  42.307  21.367   6.755
 9901POPC   C3A55649  42.360  21.388   7.055
 9901POPC   C4A55650  42.326  21.347   7.355
 9901POPC   C1B55651  42.134  21.531   6.455
 9901POPC   C2B55652  42.127  21.561   6.755
 9901POPC   C3B55653  42.092  21.497   7.055
 9901POPC   C4B55654  42.170  21.530   7.355
 9902POPC   NC355655  29.097  11.288   5.555
 9902POPC   PO455656  29.188  11.293   5.855
 9902POPC   GL155657  29.115  11.346   6.155
 9902POPC   GL255658  29.074  11.379   6.155
 9902POPC   C1A55659  29.181  11.334   6.455
 9902POPC   D2A55660  29.114  11.253   6.755
 9902POPC   C3A55661  29.191  11.317   7.055
 9902POPC   C4A55662  29.191  11.321   7.355
 9902POPC   C1B55663  29.002  11.519   6.455
 9902POPC   C2B55664  28.977  11.543   6.755
 9902POPC   C3B55665  29.046  11.565   7.055
 9902POPC   C4B55666  29.040  11.545   7.355
 9903POPC   NC355667  44.614  25.314   5.555
 9903POPC   PO455668  44.701  25.219   5.855
 9903POPC   GL155669  44.706  25.252   6.155
 9903POPC   GL255670  44.715  25.354   6.155
 9903POPC   C1A55671  44.619  25.301   6.455
 9903POPC   D2A55672  44.625  25.239   6.755
 9903POPC   C3A55673  44.684  25.276   7.055
 9903POPC   C4A55674  44.683  25.273   7.355
 9903POPC   C1B55675  44.855  25.405   6.455
 9903POPC   C2B55676  44.827  25.446   6.755
 9903POPC   C3B55677  44.899  25.432   7.055
 9903POPC   C4B55678  44.872  25.389   7.355
 9904POPC   NC355679  17.493  33.765   5.555
 9904POPC   PO455680  17.506  33.787   5.855
 9904POPC   GL155681  17.537  33.819   6.155
 9904POPC   GL255682  17.616  33.850   6.155
 9904POPC   C1A55683  17.487  33.782   6.455
 9904POPC   D2A55684  17.509  33.751   6.755
 9904POPC   C3A55685  17.463  33.828   7.055
 9904POPC   C4A55686  17.481  33.778   7.355
 9904POPC   C1B55687  17.695  33.990   6.455
 9904POPC   C2B55688  17.719  33.941   6.755
 9904POPC   C3B55689  17.731  34.002   7.055
 9904POPC   C4B55690  17.677  34.010   7.355
 9905POPC   NC355691   9.770  22.907   5.555
 9905POPC   PO455692   9.779  22.977   5.855
 9905POPC   GL155693   9.712  22.971   6.155
 9905POPC   GL255694   9.618  22.861   6.155
 9905POPC   C1A55695   9.743  22.951   6.455
 9905POPC   D2A55696   9.728  22.919   6.755
 9905POPC   C3A55697   9.766  22.980   7.055
 9905POPC   C4A55698   9.786  22.895   7.355
 9905POPC   C1B55699   9.594  22.800   6.455
 9905POPC   C2B55700   9.531  22.751   6.755
 9905POPC   C3B55701   9.546  22.806   7.055
 9905POPC   C4B55702   9.565  22.779   7.355
 9906POPC   NC355703  34.612  31.497   5.555
 9906POPC   PO455704  34.536  31.473   5.855
 9906POPC   GL155705  34.526  31.459   6.155
 9906POPC   GL255706  34.644  31.347   6.155
 9906POPC   C1A55707  34.614  31.435   6.455
 9906POPC   D2A55708  34.589  31.481   6.755
 9906POPC   C3A55709  34.625  31.491   7.055
 9906POPC   C4A55710  34.572  31.518   7.355
 9906POPC   C1B55711  34.614  31.220   6.455
 9906POPC   C2B55712  34.675  31.272   6.755
 9906POPC   C3B55713  34.655  31.235   7.055
 9906POPC   C4B55714  34.655  31.226   7.355
 9907POPC   NC355715  12.818  20.632   5.555
 9907POPC   PO455716  12.805  20.653   5.855
 9907POPC   GL155717  12.854  20.574   6.155
 9907POPC   GL255718  12.931  20.560   6.155
 9907POPC   C1A55719  12.893  20.609   6.455
 9907POPC   D2A55720  12.846  20.632   6.755
 9907POPC   C3A55721  12.854  20.591   7.055
 9907POPC   C4A55722  12.822  20.648   7.355
 9907POPC   C1B55723  13.110  20.560   6.455
 9907POPC   C2B55724  13.033  20.540   6.755
 9907POPC   C3B55725  13.089  20.553   7.055
 9907POPC   C4B55726  13.049  20.507   7.355
 9908POPC   NC355727  28.325  12.060   5.555
 9908POPC   PO455728  28.336  12.040   5.855
 9908POPC   GL155729  28.358  12.068   6.155
 9908POPC   GL255730  28.323  12.206   6.155
 9908POPC   C1A55731  28.395  12.061   6.455
 9908POPC   D2A55732  28.342  12.097   6.755
 9908POPC   C3A55733  28.365  12.077   7.055
 9908POPC   C4A55734  28.349  12.109   7.355
 9908POPC   C1B55735  28.228  12.258   6.455
 9908POPC   C2B55736  28.228  12.283   6.755
 9908POPC   C3B55737  28.197  12.332   7.055
 9908POPC   C4B55738  28.257  12.272   7.355
 9909POPC   NC355739  36.151   7.445   5.555
 9909POPC   PO455740  36.108   7.397   5.855
 9909POPC   GL155741  36.130   7.468   6.155
 9909POPC   GL255742  36.201   7.500   6.155
 9909POPC   C1A55743  36.093   7.392   6.455
 9909POPC   D2A55744  36.102   7.449   6.755
 9909POPC   C3A55745  36.090   7.371   7.055
 9909POPC   C4A55746  36.177   7.379   7.355
 9909POPC   C1B55747  36.305   7.621   6.455
 9909POPC   C2B55748  36.347   7.607   6.755
 9909POPC   C3B55749  36.316   7.627   7.055
 9909POPC   C4B55750  36.328   7.588   7.355
 9910POPC   NC355751  36.931   8.227   5.555
 9910POPC   PO455752  36.886   8.234   5.855
 9910POPC   GL155753  36.912   8.215   6.155
 9910POPC   GL255754  36.888   8.356   6.155
 9910POPC   C1A55755  36.908   8.210   6.455
 9910POPC   D2A55756  36.877   8.213   6.755
 9910POPC   C3A55757  36.919   8.232   7.055
 9910POPC   C4A55758  36.877   8.189   7.355
 9910POPC   C1B55759  36.802   8.423   6.455
 9910POPC   C2B55760  36.850   8.467   6.755
 9910POPC   C3B55761  36.877   8.437   7.055
 9910POPC   C4B55762  36.813   8.392   7.355
 9911POPC   NC355763  20.651  36.922   5.555
 9911POPC   PO455764  20.591  36.894   5.855
 9911POPC   GL155765  20.625  36.913   6.155
 9911POPC   GL255766  20.522  36.999   6.155
 9911POPC   C1A55767  20.568  36.951   6.455
 9911POPC   D2A55768  20.637  36.905   6.755
 9911POPC   C3A55769  20.581  36.903   7.055
 9911POPC   C4A55770  20.582  36.951   7.355
 9911POPC   C1B55771  20.435  37.034   6.455
 9911POPC   C2B55772  20.406  37.085   6.755
 9911POPC   C3B55773  20.434  37.069   7.055
 9911POPC   C4B55774  20.378  37.034   7.355
 9912POPC   NC355775   0.391  14.369   5.555
 9912POPC   PO455776   0.391  14.372   5.855
 9912POPC   GL155777   0.399  14.413   6.155
 9912POPC   GL255778   0.310  14.467   6.155
 9912POPC   C1A55779   0.441  14.386   6.455
 9912POPC   D2A55780   0.414  14.388   6.755
 9912POPC   C3A55781   0.479  14.364   7.055
 9912POPC   C4A55782   0.473  14.385   7.355
 9912POPC   C1B55783   0.275  14.599   6.455
 9912POPC   C2B55784   0.255  14.552   6.755
 9912POPC   C3B55785   0.292  14.590   7.055
 9912POPC   C4B55786   0.275  14.538   7.355
 9913POPC   NC355787  30.667  34.592   5.555
 9913POPC   PO455788  30.723  34.581   5.855
 9913POPC   GL155789  30.658  34.591   6.155
 9913POPC   GL255790  30.613  34.465   6.155
 9913POPC   C1A55791  30.689  34.575   6.455
 9913POPC   D2A55792  30.706  34.535   6.755
 9913POPC   C3A55793  30.735  34.539   7.055
 9913POPC   C4A55794  30.733  34.570   7.355
 9913POPC   C1B55795  30.571  34.308   6.455
 9913POPC   C2B55796  30.532  34.319   6.755
 9913POPC   C3B55797  30.534  34.382   7.055
 9913POPC   C4B55798  30.557  34.312   7.355
 9914POPC   NC355799  38.439  10.501   5.555
 9914POPC   PO455800  38.503  10.499   5.855
 9914POPC   GL155801  38.409  10.495   6.155
 9914POPC   GL255802  38.348  10.576   6.155
 9914POPC   C1A55803  38.477  10.539   6.455
 9914POPC   D2A55804  38.457  10.569   6.755
 9914POPC   C3A55805  38.443  10.506   7.055
 9914POPC   C4A55806  38.412  10.520   7.355
 9914POPC   C1B55807  38.298  10.660   6.455
 9914POPC   C2B55808  38.211  10.664   6.755
 9914POPC   C3B55809  38.230  10.682   7.055
 9914POPC   C4B55810  38.210  10.684   7.355
 9915POPC   NC355811   1.255  44.635   5.555
 9915POPC   PO455812   1.242  44.696   5.855
 9915POPC   GL155813   1.192  44.641   6.155
 9915POPC   GL255814   1.100  44.592   6.155
 9915POPC   C1A55815   1.209  44.691   6.455
 9915POPC   D2A55816   1.174  44.665   6.755
 9915POPC   C3A55817   1.210  44.664   7.055
 9915POPC   C4A55818   1.233  44.669   7.355
 9915POPC   C1B55819   1.059  44.457   6.455
 9915POPC   C2B55820   1.075  44.521   6.755
 9915POPC   C3B55821   1.018  44.530   7.055
 9915POPC   C4B55822   1.052  44.461   7.355
 9916POPC   NC355823  20.585  17.499   5.555
 9916POPC   PO455824  20.584  17.543   5.855
 9916POPC   GL155825  20.588  17.481   6.155
 9916POPC   GL255826  20.618  17.418   6.155
 9916POPC   C1A55827  20.574  17.510   6.455
 9916POPC   D2A55828  20.579  17.490   6.755
 9916POPC   C3A55829  20.616  17.526   7.055
 9916POPC   C4A55830  20.573  17.478   7.355
 9916POPC   C1B55831  20.655  17.277   6.455
 9916POPC   C2B55832  20.648  17.262   6.755
 9916POPC   C3B55833  20.696  17.233   7.055
 9916POPC   C4B55834  20.675  17.219   7.355
 9917POPC   NC355835  38.436  12.900   5.555
 9917POPC   PO455836  38.461  12.840   5.855
 9917POPC   GL155837  38.489  12.874   6.155
 9917POPC   GL255838  38.612  12.841   6.155
 9917POPC   C1A55839  38.412  12.880   6.455
 9917POPC   D2A55840  38.411  12.887   6.755
 9917POPC   C3A55841  38.497  12.803   7.055
 9917POPC   C4A55842  38.465  12.869   7.355
 9917POPC   C1B55843  38.707  12.886   6.455
 9917POPC   C2B55844  38.749  12.874   6.755
 9917POPC   C3B55845  38.671  12.836   7.055
 9917POPC   C4B55846  38.678  12.830   7.355
 9918POPC   NC355847   6.639   1.227   5.555
 9918POPC   PO455848   6.614   1.234   5.855
 9918POPC   GL155849   6.692   1.200   6.155
 9918POPC   GL255850   6.710   1.100   6.155
 9918POPC   C1A55851   6.628   1.199   6.455
 9918POPC   D2A55852   6.672   1.233   6.755
 9918POPC   C3A55853   6.676   1.175   7.055
 9918POPC   C4A55854   6.666   1.224   7.355
 9918POPC   C1B55855   6.744   1.017   6.455
 9918POPC   C2B55856   6.725   0.958   6.755
 9918POPC   C3B55857   6.739   0.932   7.055
 9918POPC   C4B55858   6.773   1.022   7.355
 9919POPC   NC355859  34.549  26.815   5.555
 9919POPC   PO455860  34.612  26.827   5.855
 9919POPC   GL155861  34.621  26.850   6.155
 9919POPC   GL255862  34.677  26.732   6.155
 9919POPC   C1A55863  34.590  26.808   6.455
 9919POPC   D2A55864  34.611  26.803   6.755
 9919POPC   C3A55865  34.561  26.804   7.055
 9919POPC   C4A55866  34.585  26.780   7.355
 9919POPC   C1B55867  34.726  26.639   6.455
 9919POPC   C2B55868  34.698  26.647   6.755
 9919POPC   C3B55869  34.700  26.634   7.055
 9919POPC   C4B55870  34.694  26.641   7.355
 9920POPC   NC355871  34.574  37.640   5.555
 9920POPC   PO455872  34.623  37.681   5.855
 9920POPC   GL155873  34.532  37.650   6.155
 9920POPC   GL255874  34.592  37.783   6.155
 9920POPC   C1A55875  34.597  37.634   6.455
 9920POPC   D2A55876  34.610  37.677   6.755
 9920POPC   C3A55877  34.620  37.641   7.055
 9920POPC   C4A55878  34.588  37.683   7.355
 9920POPC   C1B55879  34.505  37.965   6.455
 9920POPC   C2B55880  34.571  37.913   6.755
 9920POPC   C3B55881  34.561  37.898   7.055
 9920POPC   C4B55882  34.552  37.938   7.355
 9921POPC   NC355883  12.826  12.070   5.555
 9921POPC   PO455884  12.827  12.120   5.855
 9921POPC   GL155885  12.867  12.032   6.155
 9921POPC   GL255886  12.779  11.969   6.155
 9921POPC   C1A55887  12.809  12.096   6.455
 9921POPC   D2A55888  12.829  12.035   6.755
 9921POPC   C3A55889  12.890  12.082   7.055
 9921POPC   C4A55890  12.869  12.041   7.355
 9921POPC   C1B55891  12.605  11.983   6.455
 9921POPC   C2B55892  12.669  11.946   6.755
 9921POPC   C3B55893  12.635  11.926   7.055
 9921POPC   C4B55894  12.658  11.981   7.355
 9922POPC   NC355895  12.039  16.004   5.555
 9922POPC   PO455896  12.101  15.917   5.855
 9922POPC   GL155897  12.080  15.983   6.155
 9922POPC   GL255898  12.006  15.799   6.155
 9922POPC   C1A55899  12.088  15.918   6.455
 9922POPC   D2A55900  12.042  15.919   6.755
 9922POPC   C3A55901  12.090  15.953   7.055
 9922POPC   C4A55902  12.068  16.004   7.355
 9922POPC   C1B55903  11.988  15.705   6.455
 9922POPC   C2B55904  11.956  15.761   6.755
 9922POPC   C3B55905  11.984  15.778   7.055
 9922POPC   C4B55906  11.959  15.752   7.355
 9923POPC   NC355907  39.198  13.617   5.555
 9923POPC   PO455908  39.192  13.665   5.855
 9923POPC   GL155909  39.183  13.593   6.155
 9923POPC   GL255910  39.189  13.699   6.155
 9923POPC   C1A55911  39.208  13.632   6.455
 9923POPC   D2A55912  39.280  13.636   6.755
 9923POPC   C3A55913  39.207  13.611   7.055
 9923POPC   C4A55914  39.279  13.655   7.355
 9923POPC   C1B55915  39.111  13.850   6.455
 9923POPC   C2B55916  39.050  13.849   6.755
 9923POPC   C3B55917  39.097  13.774   7.055
 9923POPC   C4B55918  39.091  13.776   7.355
 9924POPC   NC355919  28.367  26.062   5.555
 9924POPC   PO455920  28.381  26.069   5.855
 9924POPC   GL155921  28.382  26.059   6.155
 9924POPC   GL255922  28.229  26.063   6.155
 9924POPC   C1A55923  28.404  26.088   6.455
 9924POPC   D2A55924  28.354  25.996   6.755
 9924POPC   C3A55925  28.408  26.091   7.055
 9924POPC   C4A55926  28.384  26.022   7.355
 9924POPC   C1B55927  28.079  26.014   6.455
 9924POPC   C2B55928  28.098  25.986   6.755
 9924POPC   C3B55929  28.117  26.028   7.055
 9924POPC   C4B55930  28.118  25.984   7.355
 9925POPC   NC355931  36.944  26.087   5.555
 9925POPC   PO455932  36.855  26.061   5.855
 9925POPC   GL155933  36.929  25.994   6.155
 9925POPC   GL255934  36.823  26.151   6.155
 9925POPC   C1A55935  36.941  26.082   6.455
 9925POPC   D2A55936  36.872  26.006   6.755
 9925POPC   C3A55937  36.861  26.052   7.055
 9925POPC   C4A55938  36.936  26.075   7.355
 9925POPC   C1B55939  36.818  26.324   6.455
 9925POPC   C2B55940  36.793  26.229   6.755
 9925POPC   C3B55941  36.783  26.322   7.055
 9925POPC   C4B55942  36.768  26.323   7.355
 9926POPC   NC355943  27.557  41.599   5.555
 9926POPC   PO455944  27.638  41.563   5.855
 9926POPC   GL155945  27.560  41.590   6.155
 9926POPC   GL255946  27.708  41.611   6.155
 9926POPC   C1A55947  27.562  41.562   6.455
 9926POPC   D2A55948  27.610  41.590   6.755
 9926POPC   C3A55949  27.552  41.554   7.055
 9926POPC   C4A55950  27.555  41.523   7.355
 9926POPC   C1B55951  27.800  41.665   6.455
 9926POPC   C2B55952  27.776  41.649   6.755
 9926POPC   C3B55953  27.863  41.687   7.055
 9926POPC   C4B55954  27.816  41.703   7.355
 9927POPC   NC355955  18.259  30.745   5.555
 9927POPC   PO455956  18.246  30.667   5.855
 9927POPC   GL155957  18.254  30.652   6.155
 9927POPC   GL255958  18.302  30.576   6.155
 9927POPC   C1A55959  18.307  30.689   6.455
 9927POPC   D2A55960  18.323  30.746   6.755
 9927POPC   C3A55961  18.258  30.663   7.055
 9927POPC   C4A55962  18.309  30.715   7.355
 9927POPC   C1B55963  18.427  30.479   6.455
 9927POPC   C2B55964  18.396  30.473   6.755
 9927POPC   C3B55965  18.410  30.434   7.055
 9927POPC   C4B55966  18.374  30.441   7.355
 9928POPC   NC355967  42.327  41.537   5.555
 9928POPC   PO455968  42.293  41.543   5.855
 9928POPC   GL155969  42.383  41.544   6.155
 9928POPC   GL255970  42.240  41.566   6.155
 9928POPC   C1A55971  42.360  41.604   6.455
 9928POPC   D2A55972  42.352  41.519   6.755
 9928POPC   C3A55973  42.287  41.606   7.055
 9928POPC   C4A55974  42.379  41.572   7.355
 9928POPC   C1B55975  42.115  41.487   6.455
 9928POPC   C2B55976  42.107  41.477   6.755
 9928POPC   C3B55977  42.088  41.509   7.055
 9928POPC   C4B55978  42.063  41.527   7.355
 9929POPC   NC355979   7.428  13.670   5.555
 9929POPC   PO455980   7.437  13.665   5.855
 9929POPC   GL155981   7.462  13.648   6.155
 9929POPC   GL255982   7.534  13.619   6.155
 9929POPC   C1A55983   7.457  13.588   6.455
 9929POPC   D2A55984   7.403  13.672   6.755
 9929POPC   C3A55985   7.397  13.647   7.055
 9929POPC   C4A55986   7.372  13.671   7.355
 9929POPC   C1B55987   7.676  13.631   6.455
 9929POPC   C2B55988   7.622  13.691   6.755
 9929POPC   C3B55989   7.643  13.656   7.055
 9929POPC   C4B55990   7.715  13.642   7.355
 9930POPC   NC355991  22.908  19.059   5.555
 9930POPC   PO455992  22.966  19.025   5.855
 9930POPC   GL155993  22.921  19.044   6.155
 9930POPC   GL255994  23.075  19.124   6.155
 9930POPC   C1A55995  22.970  19.103   6.455
 9930POPC   D2A55996  22.947  19.024   6.755
 9930POPC   C3A55997  22.932  19.062   7.055
 9930POPC   C4A55998  22.944  19.070   7.355
 9930POPC   C1B55999  23.189  19.126   6.455
 9930POPC   C2B56000  23.200  19.140   6.755
 9930POPC   C3B56001  23.210  19.129   7.055
 9930POPC   C4B56002  23.126  19.143   7.355
 9931POPC   NC356003  13.640   5.823   5.555
 9931POPC   PO456004  13.663   5.903   5.855
 9931POPC   GL156005  13.592   5.885   6.155
 9931POPC   GL256006  13.777   5.902   6.155
 9931POPC   C1A56007  13.595   5.867   6.455
 9931POPC   D2A56008  13.642   5.901   6.755
 9931POPC   C3A56009  13.652   5.894   7.055
 9931POPC   C4A56010  13.639   5.917   7.355
 9931POPC   C1B56011  13.877   5.895   6.455
 9931POPC   C2B56012  13.847   5.902   6.755
 9931POPC   C3B56013  13.844   5.939   7.055
 9931POPC   C4B56014  13.868   5.865   7.355
 9932POPC   NC356015  38.440  42.343   5.555
 9932POPC   PO456016  38.473  42.291   5.855
 9932POPC   GL156017  38.478  42.321   6.155
 9932POPC   GL256018  38.408  42.428   6.155
 9932POPC   C1A56019  38.412  42.287   6.455
 9932POPC   D2A56020  38.438  42.357   6.755
 9932POPC   C3A56021  38.460  42.287   7.055
 9932POPC   C4A56022  38.420  42.330   7.355
 9932POPC   C1B56023  38.223  42.529   6.455
 9932POPC   C2B56024  38.250  42.527   6.755
 9932POPC   C3B56025  38.311  42.527   7.055
 9932POPC   C4B56026  38.265  42.516   7.355
 9933POPC   NC356027   0.447  44.643   5.555
 9933POPC   PO456028   0.475  44.628   5.855
 9933POPC   GL156029   0.431  44.641   6.155
 9933POPC   GL256030   0.523  44.812   6.155
 9933POPC   C1A56031   0.405  44.623   6.455
 9933POPC   D2A56032   0.416  44.688   6.755
 9933POPC   C3A56033   0.405  44.665   7.055
 9933POPC   C4A56034   0.442  44.671   7.355
 9933POPC   C1B56035   0.586  44.872   6.455
 9933POPC   C2B56036   0.509  44.913   6.755
 9933POPC   C3B56037   0.543  44.846   7.055
 9933POPC   C4B56038   0.587  44.847   7.355
 9934POPC   NC356039   5.833  39.990   5.555
 9934POPC   PO456040   5.873  40.054   5.855
 9934POPC   GL156041   5.905  39.970   6.155
 9934POPC   GL256042   5.774  40.000   6.155
 9934POPC   C1A56043   5.915  39.962   6.455
 9934POPC   D2A56044   5.845  39.989   6.755
 9934POPC   C3A56045   5.829  40.026   7.055
 9934POPC   C4A56046   5.899  40.049   7.355
 9934POPC   C1B56047   5.626  39.949   6.455
 9934POPC   C2B56048   5.645  39.974   6.755
 9934POPC   C3B56049   5.657  39.949   7.055
 9934POPC   C4B56050   5.640  39.996   7.355
 9935POPC   NC356051   5.858   7.381   5.555
 9935POPC   PO456052   5.916   7.450   5.855
 9935POPC   GL156053   5.845   7.383   6.155
 9935POPC   GL256054   5.988   7.417   6.155
 9935POPC   C1A56055   5.879   7.444   6.455
 9935POPC   D2A56056   5.914   7.452   6.755
 9935POPC   C3A56057   5.831   7.377   7.055
 9935POPC   C4A56058   5.874   7.438   7.355
 9935POPC   C1B56059   6.062   7.392   6.455
 9935POPC   C2B56060   6.133   7.377   6.755
 9935POPC   C3B56061   6.147   7.317   7.055
 9935POPC   C4B56062   6.094   7.353   7.355
 9936POPC   NC356063   8.219  30.705   5.555
 9936POPC   PO456064   8.199  30.679   5.855
 9936POPC   GL156065   8.186  30.652   6.155
 9936POPC   GL256066   8.145  30.646   6.155
 9936POPC   C1A56067   8.154  30.726   6.455
 9936POPC   D2A56068   8.210  30.674   6.755
 9936POPC   C3A56069   8.205  30.706   7.055
 9936POPC   C4A56070   8.228  30.680   7.355
 9936POPC   C1B56071   8.033  30.584   6.455
 9936POPC   C2B56072   7.954  30.579   6.755
 9936POPC   C3B56073   8.029  30.528   7.055
 9936POPC   C4B56074   7.958  30.579   7.355
 9937POPC   NC356075   1.979  12.835   5.555
 9937POPC   PO456076   2.035  12.803   5.855
 9937POPC   GL156077   2.010  12.856   6.155
 9937POPC   GL256078   1.896  12.819   6.155
 9937POPC   C1A56079   1.945  12.836   6.455
 9937POPC   D2A56080   1.960  12.861   6.755
 9937POPC   C3A56081   2.020  12.880   7.055
 9937POPC   C4A56082   1.954  12.873   7.355
 9937POPC   C1B56083   1.744  12.787   6.455
 9937POPC   C2B56084   1.782  12.803   6.755
 9937POPC   C3B56085   1.792  12.786   7.055
 9937POPC   C4B56086   1.735  12.768   7.355
 9938POPC   NC356087  37.665  35.397   5.555
 9938POPC   PO456088  37.672  35.395   5.855
 9938POPC   GL156089  37.669  35.312   6.155
 9938POPC   GL256090  37.733  35.448   6.155
 9938POPC   C1A56091  37.646  35.359   6.455
 9938POPC   D2A56092  37.713  35.302   6.755
 9938POPC   C3A56093  37.684  35.340   7.055
 9938POPC   C4A56094  37.683  35.336   7.355
 9938POPC   C1B56095  37.838  35.532   6.455
 9938POPC   C2B56096  37.862  35.561   6.755
 9938POPC   C3B56097  37.855  35.488   7.055
 9938POPC   C4B56098  37.839  35.552   7.355
 9939POPC   NC356099   7.435  19.037   5.555
 9939POPC   PO456100   7.394  19.032   5.855
 9939POPC   GL156101   7.405  19.089   6.155
 9939POPC   GL256102   7.529  18.944   6.155
 9939POPC   C1A56103   7.444  19.099   6.455
 9939POPC   D2A56104   7.398  19.025   6.755
 9939POPC   C3A56105   7.411  19.045   7.055
 9939POPC   C4A56106   7.425  19.106   7.355
 9939POPC   C1B56107   7.503  18.796   6.455
 9939POPC   C2B56108   7.556  18.850   6.755
 9939POPC   C3B56109   7.504  18.836   7.055
 9939POPC   C4B56110   7.575  18.829   7.355
 9940POPC   NC356111   7.410  19.853   5.555
 9940POPC   PO456112   7.374  19.824   5.855
 9940POPC   GL156113   7.379  19.838   6.155
 9940POPC   GL256114   7.351  19.891   6.155
 9940POPC   C1A56115   7.380  19.874   6.455
 9940POPC   D2A56116   7.425  19.809   6.755
 9940POPC   C3A56117   7.371  19.866   7.055
 9940POPC   C4A56118   7.449  19.816   7.355
 9940POPC   C1B56119   7.249  20.006   6.455
 9940POPC   C2B56120   7.301  20.015   6.755
 9940POPC   C3B56121   7.230  20.016   7.055
 9940POPC   C4B56122   7.266  20.060   7.355
 9941POPC   NC356123  40.759   2.772   5.555
 9941POPC   PO456124  40.808   2.781   5.855
 9941POPC   GL156125  40.778   2.806   6.155
 9941POPC   GL256126  40.649   2.894   6.155
 9941POPC   C1A56127  40.785   2.766   6.455
 9941POPC   D2A56128  40.758   2.752   6.755
 9941POPC   C3A56129  40.794   2.811   7.055
 9941POPC   C4A56130  40.765   2.735   7.355
 9941POPC   C1B56131  40.612   2.942   6.455
 9941POPC   C2B56132  40.575   2.977   6.755
 9941POPC   C3B56133  40.589   2.932   7.055
 9941POPC   C4B56134  40.593   2.913   7.355
 9942POPC   NC356135  36.927  44.662   5.555
 9942POPC   PO456136  36.952  44.699   5.855
 9942POPC   GL156137  36.856  44.671   6.155
 9942POPC   GL256138  37.073  44.683   6.155
 9942POPC   C1A56139  36.896  44.711   6.455
 9942POPC   D2A56140  36.891  44.641   6.755
 9942POPC   C3A56141  36.857  44.625   7.055
 9942POPC   C4A56142  36.875  44.625   7.355
 9942POPC   C1B56143  37.200  44.663   6.455
 9942POPC   C2B56144  37.190  44.662   6.755
 9942POPC   C3B56145  37.133  44.599   7.055
 9942POPC   C4B56146  37.154  44.603   7.355
 9943POPC   NC356147  15.954  29.182   5.555
 9943POPC   PO456148  16.000  29.130   5.855
 9943POPC   GL156149  15.936  29.160   6.155
 9943POPC   GL256150  15.861  29.038   6.155
 9943POPC   C1A56151  15.920  29.181   6.455
 9943POPC   D2A56152  16.000  29.138   6.755
 9943POPC   C3A56153  15.993  29.167   7.055
 9943POPC   C4A56154  15.913  29.157   7.355
 9943POPC   C1B56155  15.778  28.962   6.455
 9943POPC   C2B56156  15.738  28.952   6.755
 9943POPC   C3B56157  15.796  28.925   7.055
 9943POPC   C4B56158  15.824  28.932   7.355
 9944POPC   NC356159  25.251  21.388   5.555
 9944POPC   PO456160  25.254  21.386   5.855
 9944POPC   GL156161  25.234  21.378   6.155
 9944POPC   GL256162  25.289  21.304   6.155
 9944POPC   C1A56163  25.288  21.423   6.455
 9944POPC   D2A56164  25.295  21.354   6.755
 9944POPC   C3A56165  25.252  21.417   7.055
 9944POPC   C4A56166  25.270  21.356   7.355
 9944POPC   C1B56167  25.206  21.110   6.455
 9944POPC   C2B56168  25.235  21.174   6.755
 9944POPC   C3B56169  25.171  21.150   7.055
 9944POPC   C4B56170  25.220  21.145   7.355
 9945POPC   NC356171   6.681  12.065   5.555
 9945POPC   PO456172   6.629  12.054   5.855
 9945POPC   GL156173   6.602  12.109   6.155
 9945POPC   GL256174   6.503  12.178   6.155
 9945POPC   C1A56175   6.637  12.063   6.455
 9945POPC   D2A56176   6.687  12.066   6.755
 9945POPC   C3A56177   6.687  12.031   7.055
 9945POPC   C4A56178   6.674  12.069   7.355
 9945POPC   C1B56179   6.490  12.245   6.455
 9945POPC   C2B56180   6.495  12.257   6.755
 9945POPC   C3B56181   6.439  12.275   7.055
 9945POPC   C4B56182   6.489  12.276   7.355
 9946POPC   NC356183  25.993  39.200   5.555
 9946POPC   PO456184  26.081  39.236   5.855
 9946POPC   GL156185  26.069  39.218   6.155
 9946POPC   GL256186  25.988  39.149   6.155
 9946POPC   C1A56187  26.010  39.268   6.455
 9946POPC   D2A56188  26.089  39.268   6.755
 9946POPC   C3A56189  26.024  39.216   7.055
 9946POPC   C4A56190  26.015  39.272   7.355
 9946POPC   C1B56191  25.974  39.000   6.455
 9946POPC   C2B56192  25.939  39.035   6.755
 9946POPC   C3B56193  25.935  38.943   7.055
 9946POPC   C4B56194  25.939  38.957   7.355
 9947POPC   NC356195  20.650  16.769   5.555
 9947POPC   PO456196  20.589  16.778   5.855
 9947POPC   GL156197  20.596  16.766   6.155
 9947POPC   GL256198  20.749  16.769   6.155
 9947POPC   C1A56199  20.613  16.688   6.455
 9947POPC   D2A56200  20.645  16.742   6.755
 9947POPC   C3A56201  20.632  16.770   7.055
 9947POPC   C4A56202  20.604  16.725   7.355
 9947POPC   C1B56203  20.840  16.680   6.455
 9947POPC   C2B56204  20.848  16.723   6.755
 9947POPC   C3B56205  20.863  16.722   7.055
 9947POPC   C4B56206  20.814  16.771   7.355
 9948POPC   NC356207  27.602  32.258   5.555
 9948POPC   PO456208  27.583  32.210   5.855
 9948POPC   GL156209  27.585  32.218   6.155
 9948POPC   GL256210  27.723  32.356   6.155
 9948POPC   C1A56211  27.592  32.209   6.455
 9948POPC   D2A56212  27.581  32.242   6.755
 9948POPC   C3A56213  27.571  32.254   7.055
 9948POPC   C4A56214  27.573  32.252   7.355
 9948POPC   C1B56215  27.796  32.419   6.455
 9948POPC   C2B56216  27.768  32.390   6.755
 9948POPC   C3B56217  27.803  32.375   7.055
 9948POPC   C4B56218  27.769  32.424   7.355
 9949POPC   NC356219  42.317  43.913   5.555
 9949POPC   PO456220  42.303  43.935   5.855
 9949POPC   GL156221  42.303  43.866   6.155
 9949POPC   GL256222  42.258  43.973   6.155
 9949POPC   C1A56223  42.381  43.912   6.455
 9949POPC   D2A56224  42.292  43.876   6.755
 9949POPC   C3A56225  42.319  43.933   7.055
 9949POPC   C4A56226  42.288  43.845   7.355
 9949POPC   C1B56227  42.270  44.165   6.455
 9949POPC   C2B56228  42.262  44.168   6.755
 9949POPC   C3B56229  42.284  44.158   7.055
 9949POPC   C4B56230  42.225  44.114   7.355
 9950POPC   NC356231   4.327  26.859   5.555
 9950POPC   PO456232   4.298  26.797   5.855
 9950POPC   GL156233   4.273  26.772   6.155
 9950POPC   GL256234   4.206  26.938   6.155
 9950POPC   C1A56235   4.349  26.781   6.455
 9950POPC   D2A56236   4.284  26.805   6.755
 9950POPC   C3A56237   4.312  26.776   7.055
 9950POPC   C4A56238   4.323  26.829   7.355
 9950POPC   C1B56239   4.100  26.982   6.455
 9950POPC   C2B56240   4.105  27.026   6.755
 9950POPC   C3B56241   4.140  27.034   7.055
 9950POPC   C4B56242   4.108  26.965   7.355
 9951POPC   NC356243  17.494  12.072   5.555
 9951POPC   PO456244  17.501  12.076   5.855
 9951POPC   GL156245  17.538  12.071   6.155
 9951POPC   GL256246  17.637  12.135   6.155
 9951POPC   C1A56247  17.470  12.039   6.455
 9951POPC   D2A56248  17.500  12.112   6.755
 9951POPC   C3A56249  17.457  12.067   7.055
 9951POPC   C4A56250  17.461  12.036   7.355
 9951POPC   C1B56251  17.742  12.132   6.455
 9951POPC   C2B56252  17.802  12.152   6.755
 9951POPC   C3B56253  17.796  12.121   7.055
 9951POPC   C4B56254  17.714  12.089   7.355
 9952POPC   NC356255  17.523  22.934   5.555
 9952POPC   PO456256  17.517  22.949   5.855
 9952POPC   GL156257  17.457  22.936   6.155
 9952POPC   GL256258  17.608  23.025   6.155
 9952POPC   C1A56259  17.514  22.935   6.455
 9952POPC   D2A56260  17.543  22.941   6.755
 9952POPC   C3A56261  17.523  22.969   7.055
 9952POPC   C4A56262  17.460  22.975   7.355
 9952POPC   C1B56263  17.674  23.147   6.455
 9952POPC   C2B56264  17.639  23.172   6.755
 9952POPC   C3B56265  17.658  23.151   7.055
 9952POPC   C4B56266  17.588  23.180   7.355
 9953POPC   NC356267   5.881  39.251   5.555
 9953POPC   PO456268   5.845  39.251   5.855
 9953POPC   GL156269   5.874  39.246   6.155
 9953POPC   GL256270   5.747  39.324   6.155
 9953POPC   C1A56271   5.916  39.254   6.455
 9953POPC   D2A56272   5.917  39.259   6.755
 9953POPC   C3A56273   5.836  39.211   7.055
 9953POPC   C4A56274   5.831  39.247   7.355
 9953POPC   C1B56275   5.661  39.330   6.455
 9953POPC   C2B56276   5.622  39.288   6.755
 9953POPC   C3B56277   5.607  39.327   7.055
 9953POPC   C4B56278   5.630  39.313   7.355
 9954POPC   NC356279  33.788  25.268   5.555
 9954POPC   PO456280  33.807  25.224   5.855
 9954POPC   GL156281  33.766  25.271   6.155
 9954POPC   GL256282  33.734  25.403   6.155
 9954POPC   C1A56283  33.846  25.224   6.455
 9954POPC   D2A56284  33.848  25.305   6.755
 9954POPC   C3A56285  33.811  25.279   7.055
 9954POPC   C4A56286  33.817  25.261   7.355
 9954POPC   C1B56287  33.664  25.455   6.455
 9954POPC   C2B56288  33.624  25.521   6.755
 9954POPC   C3B56289  33.622  25.449   7.055
 9954POPC   C4B56290  33.678  25.475   7.355
 9955POPC   NC356291  38.456  38.505   5.555
 9955POPC   PO456292  38.426  38.425   5.855
 9955POPC   GL156293  38.411  38.454   6.155
 9955POPC   GL256294  38.500  38.586   6.155
 9955POPC   C1A56295  38.425  38.479   6.455
 9955POPC   D2A56296  38.470  38.478   6.755
 9955POPC   C3A56297  38.444  38.457   7.055
 9955POPC   C4A56298  38.424  38.475   7.355
 9955POPC   C1B56299  38.522  38.741   6.455
 9955POPC   C2B56300  38.498  38.674   6.755
 9955POPC   C3B56301  38.499  38.684   7.055
 9955POPC   C4B56302  38.505  38.704   7.355
 9956POPC   NC356303  26.852  24.442   5.555
 9956POPC   PO456304  26.767  24.454   5.855
 9956POPC   GL156305  26.820  24.509   6.155
 9956POPC   GL256306  26.695  24.398   6.155
 9956POPC   C1A56307  26.838  24.465   6.455
 9956POPC   D2A56308  26.777  24.501   6.755
 9956POPC   C3A56309  26.780  24.526   7.055
 9956POPC   C4A56310  26.811  24.466   7.355
 9956POPC   C1B56311  26.570  24.377   6.455
 9956POPC   C2B56312  26.606  24.346   6.755
 9956POPC   C3B56313  26.596  24.363   7.055
 9956POPC   C4B56314  26.562  24.355   7.355
 9957POPC   NC356315  33.758  15.219   5.555
 9957POPC   PO456316  33.767  15.226   5.855
 9957POPC   GL156317  33.756  15.180   6.155
 9957POPC   GL256318  33.694  15.065   6.155
 9957POPC   C1A56319  33.814  15.183   6.455
 9957POPC   D2A56320  33.835  15.192   6.755
 9957POPC   C3A56321  33.750  15.177   7.055
 9957POPC   C4A56322  33.816  15.186   7.355
 9957POPC   C1B56323  33.618  15.020   6.455
 9957POPC   C2B56324  33.608  15.024   6.755
 9957POPC   C3B56325  33.564  15.000   7.055
 9957POPC   C4B56326  33.643  15.066   7.355
 9958POPC   NC356327   8.179  33.015   5.555
 9958POPC   PO456328   8.150  32.976   5.855
 9958POPC   GL156329   8.230  33.058   6.155
 9958POPC   GL256330   8.282  32.885   6.155
 9958POPC   C1A56331   8.194  33.062   6.455
 9958POPC   D2A56332   8.148  33.071   6.755
 9958POPC   C3A56333   8.206  33.049   7.055
 9958POPC   C4A56334   8.243  32.990   7.355
 9958POPC   C1B56335   8.259  32.740   6.455
 9958POPC   C2B56336   8.286  32.742   6.755
 9958POPC   C3B56337   8.257  32.791   7.055
 9958POPC   C4B56338   8.255  32.769   7.355
 9959POPC   NC356339  33.031  36.125   5.555
 9959POPC   PO456340  32.983  36.094   5.855
 9959POPC   GL156341  33.029  36.109   6.155
 9959POPC   GL256342  33.119  36.246   6.155
 9959POPC   C1A56343  33.044  36.100   6.455
 9959POPC   D2A56344  33.064  36.104   6.755
 9959POPC   C3A56345  33.054  36.143   7.055
 9959POPC   C4A56346  33.047  36.172   7.355
 9959POPC   C1B56347  33.158  36.310   6.455
 9959POPC   C2B56348  33.149  36.340   6.755
 9959POPC   C3B56349  33.131  36.319   7.055
 9959POPC   C4B56350  33.148  36.399   7.355
 9960POPC   NC356351   5.915   5.132   5.555
 9960POPC   PO456352   5.912   5.098   5.855
 9960POPC   GL156353   5.869   5.053   6.155
 9960POPC   GL256354   5.823   5.155   6.155
 9960POPC   C1A56355   5.910   5.056   6.455
 9960POPC   D2A56356   5.902   5.122   6.755
 9960POPC   C3A56357   5.895   5.089   7.055
 9960POPC   C4A56358   5.916   5.125   7.355
 9960POPC   C1B56359   5.685   5.279   6.455
 9960POPC   C2B56360   5.692   5.293   6.755
 9960POPC   C3B56361   5.674   5.309   7.055
 9960POPC   C4B56362   5.692   5.287   7.355
 9961POPC   NC356363  20.599  40.800   5.555
 9961POPC   PO456364  20.598  40.767   5.855
 9961POPC   GL156365  20.568  40.824   6.155
 9961POPC   GL256366  20.482  40.849   6.155
 9961POPC   C1A56367  20.613  40.811   6.455
 9961POPC   D2A56368  20.629  40.807   6.755
 9961POPC   C3A56369  20.632  40.774   7.055
 9961POPC   C4A56370  20.645  40.735   7.355
 9961POPC   C1B56371  20.319  40.839   6.455
 9961POPC   C2B56372  20.321  40.874   6.755
 9961POPC   C3B56373  20.341  40.800   7.055
 9961POPC   C4B56374  20.358  40.875   7.355
 9962POPC   NC356375  27.593  26.809   5.555
 9962POPC   PO456376  27.546  26.856   5.855
 9962POPC   GL156377  27.544  26.796   6.155
 9962POPC   GL256378  27.695  26.725   6.155
 9962POPC   C1A56379  27.630  26.797   6.455
 9962POPC   D2A56380  27.561  26.814   6.755
 9962POPC   C3A56381  27.551  26.849   7.055
 9962POPC   C4A56382  27.558  26.805   7.355
 9962POPC   C1B56383  27.810  26.684   6.455
 9962POPC   C2B56384  27.788  26.661   6.755
 9962POPC   C3B56385  27.831  26.669   7.055
 9962POPC   C4B56386  27.819  26.665   7.355
 9963POPC   NC356387   9.709  19.860   5.555
 9963POPC   PO456388   9.778  19.845   5.855
 9963POPC   GL156389   9.717  19.824   6.155
 9963POPC   GL256390   9.817  19.741   6.155
 9963POPC   C1A56391   9.708  19.823   6.455
 9963POPC   D2A56392   9.774  19.785   6.755
 9963POPC   C3A56393   9.793  19.866   7.055
 9963POPC   C4A56394   9.712  19.788   7.355
 9963POPC   C1B56395   9.923  19.706   6.455
 9963POPC   C2B56396   9.946  19.700   6.755
 9963POPC   C3B56397   9.976  19.663   7.055
 9963POPC   C4B56398   9.891  19.673   7.355
 9964POPC   NC356399   8.935  14.427   5.555
 9964POPC   PO456400   8.923  14.393   5.855
 9964POPC   GL156401   8.967  14.448   6.155
 9964POPC   GL256402   9.040  14.327   6.155
 9964POPC   C1A56403   8.948  14.394   6.455
 9964POPC   D2A56404   9.017  14.442   6.755
 9964POPC   C3A56405   8.964  14.417   7.055
 9964POPC   C4A56406   8.963  14.423   7.355
 9964POPC   C1B56407   9.144  14.185   6.455
 9964POPC   C2B56408   9.177  14.242   6.755
 9964POPC   C3B56409   9.154  14.267   7.055
 9964POPC   C4B56410   9.100  14.253   7.355
 9965POPC   NC356411  11.270  43.077   5.555
 9965POPC   PO456412  11.256  43.102   5.855
 9965POPC   GL156413  11.284  43.065   6.155
 9965POPC   GL256414  11.176  43.122   6.155
 9965POPC   C1A56415  11.348  43.143   6.455
 9965POPC   D2A56416  11.274  43.120   6.755
 9965POPC   C3A56417  11.340  43.077   7.055
 9965POPC   C4A56418  11.261  43.108   7.355
 9965POPC   C1B56419  11.050  43.065   6.455
 9965POPC   C2B56420  11.085  43.054   6.755
 9965POPC   C3B56421  11.042  43.077   7.055
 9965POPC   C4B56422  11.026  43.086   7.355
 9966POPC   NC356423  16.765  26.053   5.555
 9966POPC   PO456424  16.700  26.075   5.855
 9966POPC   GL156425  16.737  26.011   6.155
 9966POPC   GL256426  16.772  26.187   6.155
 9966POPC   C1A56427  16.715  26.089   6.455
 9966POPC   D2A56428  16.682  26.033   6.755
 9966POPC   C3A56429  16.757  26.052   7.055
 9966POPC   C4A56430  16.750  26.076   7.355
 9966POPC   C1B56431  16.743  26.253   6.455
 9966POPC   C2B56432  16.751  26.326   6.755
 9966POPC   C3B56433  16.720  26.248   7.055
 9966POPC   C4B56434  16.707  26.250   7.355
 9967POPC   NC356435   4.327  34.565   5.555
 9967POPC   PO456436   4.293  34.620   5.855
 9967POPC   GL156437   4.363  34.565   6.155
 9967POPC   GL256438   4.437  34.567   6.155
 9967POPC   C1A56439   4.342  34.552   6.455
 9967POPC   D2A56440   4.364  34.543   6.755
 9967POPC   C3A56441   4.333  34.532   7.055
 9967POPC   C4A56442   4.305  34.567   7.355
 9967POPC   C1B56443   4.547  34.452   6.455
 9967POPC   C2B56444   4.538  34.452   6.755
 9967POPC   C3B56445   4.587  34.467   7.055
 9967POPC   C4B56446   4.588  34.458   7.355
 9968POPC   NC356447  18.271  35.336   5.555
 9968POPC   PO456448  18.235  35.304   5.855
 9968POPC   GL156449  18.310  35.358   6.155
 9968POPC   GL256450  18.427  35.423   6.155
 9968POPC   C1A56451  18.269  35.303   6.455
 9968POPC   D2A56452  18.314  35.310   6.755
 9968POPC   C3A56453  18.291  35.321   7.055
 9968POPC   C4A56454  18.317  35.363   7.355
 9968POPC   C1B56455  18.498  35.443   6.455
 9968POPC   C2B56456  18.460  35.536   6.755
 9968POPC   C3B56457  18.506  35.510   7.055
 9968POPC   C4B56458  18.523  35.481   7.355
 9969POPC   NC356459  37.706   5.901   5.555
 9969POPC   PO456460  37.712   5.861   5.855
 9969POPC   GL156461  37.694   5.918   6.155
 9969POPC   GL256462  37.586   5.711   6.155
 9969POPC   C1A56463  37.632   5.853   6.455
 9969POPC   D2A56464  37.630   5.846   6.755
 9969POPC   C3A56465  37.702   5.839   7.055
 9969POPC   C4A56466  37.692   5.835   7.355
 9969POPC   C1B56467  37.597   5.689   6.455
 9969POPC   C2B56468  37.536   5.692   6.755
 9969POPC   C3B56469  37.597   5.640   7.055
 9969POPC   C4B56470  37.568   5.644   7.355
 9970POPC   NC356471  21.356  41.592   5.555
 9970POPC   PO456472  21.425  41.537   5.855
 9970POPC   GL156473  21.388  41.532   6.155
 9970POPC   GL256474  21.287  41.559   6.155
 9970POPC   C1A56475  21.411  41.564   6.455
 9970POPC   D2A56476  21.349  41.595   6.755
 9970POPC   C3A56477  21.375  41.599   7.055
 9970POPC   C4A56478  21.373  41.586   7.355
 9970POPC   C1B56479  21.089  41.593   6.455
 9970POPC   C2B56480  21.096  41.582   6.755
 9970POPC   C3B56481  21.184  41.554   7.055
 9970POPC   C4B56482  21.132  41.602   7.355
 9971POPC   NC356483   5.858  37.677   5.555
 9971POPC   PO456484   5.914  37.702   5.855
 9971POPC   GL156485   5.894  37.659   6.155
 9971POPC   GL256486   5.935  37.795   6.155
 9971POPC   C1A56487   5.835  37.708   6.455
 9971POPC   D2A56488   5.846  37.709   6.755
 9971POPC   C3A56489   5.911  37.692   7.055
 9971POPC   C4A56490   5.877  37.720   7.355
 9971POPC   C1B56491   6.079  37.871   6.455
 9971POPC   C2B56492   6.086  37.843   6.755
 9971POPC   C3B56493   6.093  37.895   7.055
 9971POPC   C4B56494   6.002  37.854   7.355
 9972POPC   NC356495  42.368  39.266   5.555
 9972POPC   PO456496  42.373  39.228   5.855
 9972POPC   GL156497  42.321  39.261   6.155
 9972POPC   GL256498  42.218  39.100   6.155
 9972POPC   C1A56499  42.336  39.192   6.455
 9972POPC   D2A56500  42.361  39.238   6.755
 9972POPC   C3A56501  42.298  39.223   7.055
 9972POPC   C4A56502  42.380  39.278   7.355
 9972POPC   C1B56503  42.154  39.067   6.455
 9972POPC   C2B56504  42.140  39.060   6.755
 9972POPC   C3B56505  42.141  39.008   7.055
 9972POPC   C4B56506  42.118  39.016   7.355
 9973POPC   NC356507  12.057  42.381   5.555
 9973POPC   PO456508  12.031  42.334   5.855
 9973POPC   GL156509  12.049  42.354   6.155
 9973POPC   GL256510  12.028  42.263   6.155
 9973POPC   C1A56511  12.094  42.287   6.455
 9973POPC   D2A56512  12.054  42.296   6.755
 9973POPC   C3A56513  12.059  42.325   7.055
 9973POPC   C4A56514  12.056  42.384   7.355
 9973POPC   C1B56515  11.974  42.154   6.455
 9973POPC   C2B56516  11.981  42.069   6.755
 9973POPC   C3B56517  11.931  42.107   7.055
 9973POPC   C4B56518  11.979  42.116   7.355
 9974POPC   NC356519  24.445  41.530   5.555
 9974POPC   PO456520  24.525  41.519   5.855
 9974POPC   GL156521  24.534  41.580   6.155
 9974POPC   GL256522  24.453  41.607   6.155
 9974POPC   C1A56523  24.483  41.556   6.455
 9974POPC   D2A56524  24.539  41.587   6.755
 9974POPC   C3A56525  24.525  41.513   7.055
 9974POPC   C4A56526  24.441  41.579   7.355
 9974POPC   C1B56527  24.369  41.801   6.455
 9974POPC   C2B56528  24.338  41.739   6.755
 9974POPC   C3B56529  24.288  41.741   7.055
 9974POPC   C4B56530  24.342  41.770   7.355
 9975POPC   NC356531  41.560   8.206   5.555
 9975POPC   PO456532  41.532   8.211   5.855
 9975POPC   GL156533  41.521   8.201   6.155
 9975POPC   GL256534  41.683   8.221   6.155
 9975POPC   C1A56535  41.585   8.221   6.455
 9975POPC   D2A56536  41.599   8.193   6.755
 9975POPC   C3A56537  41.557   8.186   7.055
 9975POPC   C4A56538  41.579   8.177   7.355
 9975POPC   C1B56539  41.824   8.260   6.455
 9975POPC   C2B56540  41.799   8.210   6.755
 9975POPC   C3B56541  41.799   8.284   7.055
 9975POPC   C4B56542  41.848   8.243   7.355
 9976POPC   NC356543  27.556   8.166   5.555
 9976POPC   PO456544  27.553   8.208   5.855
 9976POPC   GL156545  27.602   8.160   6.155
 9976POPC   GL256546  27.521   8.157   6.155
 9976POPC   C1A56547  27.553   8.233   6.455
 9976POPC   D2A56548  27.556   8.223   6.755
 9976POPC   C3A56549  27.616   8.210   7.055
 9976POPC   C4A56550  27.584   8.184   7.355
 9976POPC   C1B56551  27.390   8.098   6.455
 9976POPC   C2B56552  27.415   8.033   6.755
 9976POPC   C3B56553  27.327   8.023   7.055
 9976POPC   C4B56554  27.379   8.098   7.355
 9977POPC   NC356555  22.194  19.089   5.555
 9977POPC   PO456556  22.147  19.027   5.855
 9977POPC   GL156557  22.196  19.041   6.155
 9977POPC   GL256558  22.024  18.991   6.155
 9977POPC   C1A56559  22.160  19.053   6.455
 9977POPC   D2A56560  22.117  19.085   6.755
 9977POPC   C3A56561  22.156  19.022   7.055
 9977POPC   C4A56562  22.118  19.108   7.355
 9977POPC   C1B56563  21.965  18.887   6.455
 9977POPC   C2B56564  21.937  18.940   6.755
 9977POPC   C3B56565  21.915  18.946   7.055
 9977POPC   C4B56566  21.985  18.939   7.355
 9978POPC   NC356567   8.971  26.079   5.555
 9978POPC   PO456568   9.007  26.054   5.855
 9978POPC   GL156569   8.961  26.059   6.155
 9978POPC   GL256570   9.005  26.152   6.155
 9978POPC   C1A56571   8.941  26.070   6.455
 9978POPC   D2A56572   8.956  26.027   6.755
 9978POPC   C3A56573   8.940  25.996   7.055
 9978POPC   C4A56574   8.945  26.028   7.355
 9978POPC   C1B56575   9.123  26.260   6.455
 9978POPC   C2B56576   9.101  26.234   6.755
 9978POPC   C3B56577   9.129  26.289   7.055
 9978POPC   C4B56578   9.093  26.282   7.355
 9979POPC   NC356579  42.296   6.606   5.555
 9979POPC   PO456580  42.333   6.680   5.855
 9979POPC   GL156581  42.352   6.596   6.155
 9979POPC   GL256582  42.276   6.480   6.155
 9979POPC   C1A56583  42.384   6.620   6.455
 9979POPC   D2A56584  42.339   6.616   6.755
 9979POPC   C3A56585  42.368   6.653   7.055
 9979POPC   C4A56586  42.307   6.683   7.355
 9979POPC   C1B56587  42.263   6.349   6.455
 9979POPC   C2B56588  42.265   6.389   6.755
 9979POPC   C3B56589  42.281   6.403   7.055
 9979POPC   C4B56590  42.330   6.364   7.355
 9980POPC   NC356591  36.085  43.861   5.555
 9980POPC   PO456592  36.112  43.850   5.855
 9980POPC   GL156593  36.106  43.930   6.155
 9980POPC   GL256594  36.041  43.807   6.155
 9980POPC   C1A56595  36.152  43.933   6.455
 9980POPC   D2A56596  36.149  43.881   6.755
 9980POPC   C3A56597  36.103  43.837   7.055
 9980POPC   C4A56598  36.107  43.878   7.355
 9980POPC   C1B56599  36.003  43.722   6.455
 9980POPC   C2B56600  35.945  43.643   6.755
 9980POPC   C3B56601  35.989  43.725   7.055
 9980POPC   C4B56602  35.994  43.673   7.355
 9981POPC   NC356603  36.941  12.051   5.555
 9981POPC   PO456604  36.887  12.051   5.855
 9981POPC   GL156605  36.900  12.030   6.155
 9981POPC   GL256606  36.780  12.083   6.155
 9981POPC   C1A56607  36.916  12.075   6.455
 9981POPC   D2A56608  36.886  12.096   6.755
 9981POPC   C3A56609  36.907  12.048   7.055
 9981POPC   C4A56610  36.952  12.053   7.355
 9981POPC   C1B56611  36.660  12.189   6.455
 9981POPC   C2B56612  36.682  12.205   6.755
 9981POPC   C3B56613  36.659  12.181   7.055
 9981POPC   C4B56614  36.662  12.196   7.355
 9982POPC   NC356615   9.785   8.209   5.555
 9982POPC   PO456616   9.774   8.243   5.855
 9982POPC   GL156617   9.792   8.208   6.155
 9982POPC   GL256618   9.738   8.285   6.155
 9982POPC   C1A56619   9.762   8.153   6.455
 9982POPC   D2A56620   9.774   8.178   6.755
 9982POPC   C3A56621   9.791   8.209   7.055
 9982POPC   C4A56622   9.774   8.179   7.355
 9982POPC   C1B56623   9.785   8.465   6.455
 9982POPC   C2B56624   9.842   8.475   6.755
 9982POPC   C3B56625   9.806   8.461   7.055
 9982POPC   C4B56626   9.853   8.400   7.355
 9983POPC   NC356627   5.105  33.034   5.555
 9983POPC   PO456628   5.074  33.047   5.855
 9983POPC   GL156629   5.073  33.056   6.155
 9983POPC   GL256630   5.024  33.117   6.155
 9983POPC   C1A56631   5.119  33.060   6.455
 9983POPC   D2A56632   5.101  33.026   6.755
 9983POPC   C3A56633   5.047  33.001   7.055
 9983POPC   C4A56634   5.089  33.041   7.355
 9983POPC   C1B56635   5.011  33.229   6.455
 9983POPC   C2B56636   5.018  33.243   6.755
 9983POPC   C3B56637   5.053  33.284   7.055
 9983POPC   C4B56638   5.013  33.295   7.355
 9984POPC   NC356639   9.741  43.151   5.555
 9984POPC   PO456640   9.703  43.130   5.855
 9984POPC   GL156641   9.750  43.158   6.155
 9984POPC   GL256642   9.633  43.247   6.155
 9984POPC   C1A56643   9.752  43.103   6.455
 9984POPC   D2A56644   9.752  43.154   6.755
 9984POPC   C3A56645   9.757  43.132   7.055
 9984POPC   C4A56646   9.716  43.154   7.355
 9984POPC   C1B56647   9.635  43.260   6.455
 9984POPC   C2B56648   9.556  43.260   6.755
 9984POPC   C3B56649   9.621  43.333   7.055
 9984POPC   C4B56650   9.604  43.313   7.355
 9985POPC   NC356651  16.715  22.168   5.555
 9985POPC   PO456652  16.760  22.201   5.855
 9985POPC   GL156653  16.739  22.134   6.155
 9985POPC   GL256654  16.663  22.074   6.155
 9985POPC   C1A56655  16.694  22.177   6.455
 9985POPC   D2A56656  16.721  22.136   6.755
 9985POPC   C3A56657  16.717  22.173   7.055
 9985POPC   C4A56658  16.742  22.203   7.355
 9985POPC   C1B56659  16.502  21.978   6.455
 9985POPC   C2B56660  16.556  21.996   6.755
 9985POPC   C3B56661  16.531  22.028   7.055
 9985POPC   C4B56662  16.479  21.993   7.355
 9986POPC   NC356663  22.951  38.445   5.555
 9986POPC   PO456664  22.953  38.430   5.855
 9986POPC   GL156665  22.960  38.505   6.155
 9986POPC   GL256666  22.830  38.434   6.155
 9986POPC   C1A56667  22.908  38.426   6.455
 9986POPC   D2A56668  22.892  38.504   6.755
 9986POPC   C3A56669  22.985  38.491   7.055
 9986POPC   C4A56670  22.941  38.462   7.355
 9986POPC   C1B56671  22.714  38.455   6.455
 9986POPC   C2B56672  22.656  38.543   6.755
 9986POPC   C3B56673  22.727  38.499   7.055
 9986POPC   C4B56674  22.645  38.550   7.355
 9987POPC   NC356675  43.092  33.812   5.555
 9987POPC   PO456676  43.132  33.819   5.855
 9987POPC   GL156677  43.135  33.835   6.155
 9987POPC   GL256678  43.030  33.828   6.155
 9987POPC   C1A56679  43.136  33.792   6.455
 9987POPC   D2A56680  43.156  33.815   6.755
 9987POPC   C3A56681  43.105  33.820   7.055
 9987POPC   C4A56682  43.111  33.806   7.355
 9987POPC   C1B56683  42.854  33.755   6.455
 9987POPC   C2B56684  42.818  33.809   6.755
 9987POPC   C3B56685  42.814  33.762   7.055
 9987POPC   C4B56686  42.837  33.766   7.355
 9988POPC   NC356687  12.046  44.674   5.555
 9988POPC   PO456688  12.053  44.659   5.855
 9988POPC   GL156689  12.064  44.677   6.155
 9988POPC   GL256690  12.076  44.549   6.155
 9988POPC   C1A56691  12.064  44.673   6.455
 9988POPC   D2A56692  12.028  44.680   6.755
 9988POPC   C3A56693  12.052  44.618   7.055
 9988POPC   C4A56694  12.093  44.621   7.355
 9988POPC   C1B56695  12.107  44.459   6.455
 9988POPC   C2B56696  12.143  44.424   6.755
 9988POPC   C3B56697  12.113  44.366   7.055
 9988POPC   C4B56698  12.073  44.413   7.355
 9989POPC   NC356699   7.458  41.591   5.555
 9989POPC   PO456700   7.409  41.560   5.855
 9989POPC   GL156701   7.420  41.578   6.155
 9989POPC   GL256702   7.274  41.599   6.155
 9989POPC   C1A56703   7.401  41.570   6.455
 9989POPC   D2A56704   7.404  41.607   6.755
 9989POPC   C3A56705   7.464  41.516   7.055
 9989POPC   C4A56706   7.404  41.565   7.355
 9989POPC   C1B56707   7.209  41.665   6.455
 9989POPC   C2B56708   7.249  41.660   6.755
 9989POPC   C3B56709   7.180  41.739   7.055
 9989POPC   C4B56710   7.242  41.667   7.355
 9990POPC   NC356711  15.994   9.798   5.555
 9990POPC   PO456712  15.945   9.775   5.855
 9990POPC   GL156713  15.990   9.733   6.155
 9990POPC   GL256714  15.980   9.896   6.155
 9990POPC   C1A56715  15.948   9.713   6.455
 9990POPC   D2A56716  15.910   9.789   6.755
 9990POPC   C3A56717  15.922   9.771   7.055
 9990POPC   C4A56718  15.941   9.706   7.355
 9990POPC   C1B56719  15.880   9.952   6.455
 9990POPC   C2B56720  15.948  10.019   6.755
 9990POPC   C3B56721  15.959  10.003   7.055
 9990POPC   C4B56722  15.921   9.988   7.355
 9991POPC   NC356723   5.127   4.298   5.555
 9991POPC   PO456724   5.052   4.314   5.855
 9991POPC   GL156725   5.114   4.293   6.155
 9991POPC   GL256726   5.170   4.259   6.155
 9991POPC   C1A56727   5.086   4.297   6.455
 9991POPC   D2A56728   5.100   4.331   6.755
 9991POPC   C3A56729   5.095   4.354   7.055
 9991POPC   C4A56730   5.067   4.275   7.355
 9991POPC   C1B56731   5.384   4.217   6.455
 9991POPC   C2B56732   5.293   4.216   6.755
 9991POPC   C3B56733   5.356   4.233   7.055
 9991POPC   C4B56734   5.359   4.225   7.355
 9992POPC   NC356735  40.783  14.378   5.555
 9992POPC   PO456736  40.796  14.414   5.855
 9992POPC   GL156737  40.819  14.363   6.155
 9992POPC   GL256738  40.786  14.535   6.155
 9992POPC   C1A56739  40.799  14.375   6.455
 9992POPC   D2A56740  40.831  14.450   6.755
 9992POPC   C3A56741  40.763  14.452   7.055
 9992POPC   C4A56742  40.788  14.441   7.355
 9992POPC   C1B56743  40.846  14.598   6.455
 9992POPC   C2B56744  40.868  14.614   6.755
 9992POPC   C3B56745  40.821  14.646   7.055
 9992POPC   C4B56746  40.906  14.632   7.355
 9993POPC   NC356747  32.242  37.642   5.555
 9993POPC   PO456748  32.275  37.639   5.855
 9993POPC   GL156749  32.202  37.727   6.155
 9993POPC   GL256750  32.226  37.577   6.155
 9993POPC   C1A56751  32.239  37.684   6.455
 9993POPC   D2A56752  32.220  37.647   6.755
 9993POPC   C3A56753  32.238  37.665   7.055
 9993POPC   C4A56754  32.228  37.686   7.355
 9993POPC   C1B56755  32.179  37.480   6.455
 9993POPC   C2B56756  32.169  37.458   6.755
 9993POPC   C3B56757  32.202  37.458   7.055
 9993POPC   C4B56758  32.263  37.464   7.355
 9994POPC   NC356759  12.100  14.405   5.555
 9994POPC   PO456760  12.058  14.367   5.855
 9994POPC   GL156761  12.110  14.439   6.155
 9994POPC   GL256762  12.014  14.526   6.155
 9994POPC   C1A56763  12.058  14.366   6.455
 9994POPC   D2A56764  12.080  14.410   6.755
 9994POPC   C3A56765  12.083  14.394   7.055
 9994POPC   C4A56766  12.036  14.408   7.355
 9994POPC   C1B56767  11.910  14.573   6.455
 9994POPC   C2B56768  11.911  14.658   6.755
 9994POPC   C3B56769  11.962  14.593   7.055
 9994POPC   C4B56770  11.989  14.620   7.355
 9995POPC   NC356771  31.440  15.954   5.555
 9995POPC   PO456772  31.426  15.953   5.855
 9995POPC   GL156773  31.495  15.921   6.155
 9995POPC   GL256774  31.404  15.787   6.155
 9995POPC   C1A56775  31.457  15.961   6.455
 9995POPC   D2A56776  31.468  15.992   6.755
 9995POPC   C3A56777  31.466  15.920   7.055
 9995POPC   C4A56778  31.518  15.971   7.355
 9995POPC   C1B56779  31.413  15.710   6.455
 9995POPC   C2B56780  31.426  15.755   6.755
 9995POPC   C3B56781  31.432  15.702   7.055
 9995POPC   C4B56782  31.369  15.694   7.355
 9996POPC   NC356783  12.896  16.753   5.555
 9996POPC   PO456784  12.826  16.688   5.855
 9996POPC   GL156785  12.874  16.769   6.155
 9996POPC   GL256786  13.005  16.637   6.155
 9996POPC   C1A56787  12.870  16.683   6.455
 9996POPC   D2A56788  12.836  16.709   6.755
 9996POPC   C3A56789  12.887  16.701   7.055
 9996POPC   C4A56790  12.839  16.720   7.355
 9996POPC   C1B56791  13.032  16.599   6.455
 9996POPC   C2B56792  13.083  16.612   6.755
 9996POPC   C3B56793  13.041  16.609   7.055
 9996POPC   C4B56794  13.078  16.628   7.355
 9997POPC   NC356795  25.262  43.103   5.555
 9997POPC   PO456796  25.225  43.146   5.855
 9997POPC   GL156797  25.247  43.099   6.155
 9997POPC   GL256798  25.173  43.072   6.155
 9997POPC   C1A56799  25.268  43.137   6.455
 9997POPC   D2A56800  25.256  43.095   6.755
 9997POPC   C3A56801  25.227  43.138   7.055
 9997POPC   C4A56802  25.236  43.102   7.355
 9997POPC   C1B56803  25.060  43.046   6.455
 9997POPC   C2B56804  25.059  43.028   6.755
 9997POPC   C3B56805  25.062  43.004   7.055
 9997POPC   C4B56806  25.029  43.041   7.355
 9998POPC   NC356807   9.010  12.874   5.555
 9998POPC   PO456808   8.936  12.804   5.855
 9998POPC   GL156809   8.931  12.825   6.155
 9998POPC   GL256810   8.958  12.684   6.155
 9998POPC   C1A56811   8.976  12.849   6.455
 9998POPC   D2A56812   8.970  12.862   6.755
 9998POPC   C3A56813   8.936  12.858   7.055
 9998POPC   C4A56814   8.954  12.865   7.355
 9998POPC   C1B56815   8.938  12.573   6.455
 9998POPC   C2B56816   8.911  12.658   6.755
 9998POPC   C3B56817   8.870  12.604   7.055
 9998POPC   C4B56818   8.911  12.591   7.355
 9999POPC   NC356819  10.494  44.674   5.555
 9999POPC   PO456820  10.534  44.696   5.855
 9999POPC   GL156821  10.557  44.674   6.155
 9999POPC   GL256822  10.538  44.569   6.155
 9999POPC   C1A56823  10.504  44.687   6.455
 9999POPC   D2A56824  10.519  44.678   6.755
 9999POPC   C3A56825  10.528  44.687   7.055
 9999POPC   C4A56826  10.492  44.692   7.355
 9999POPC   C1B56827  10.470  44.410   6.455
 9999POPC   C2B56828  10.528  44.448   6.755
 9999POPC   C3B56829  10.526  44.435   7.055
 9999POPC   C4B56830  10.499  44.418   7.355
10000POPC   NC356831  24.497  25.272   5.555
10000POPC   PO456832  24.446  25.222   5.855
10000POPC   GL156833  24.472  25.245   6.155
10000POPC   GL256834  24.455  25.140   6.155
10000POPC   C1A56835  24.488  25.294   6.455
10000POPC   D2A56836  24.452  25.256   6.755
10000POPC   C3A56837  24.536  25.241   7.055
10000POPC   C4A56838  24.464  25.293   7.355
10000POPC   C1B56839  24.527  24.968   6.455
10000POPC   C2B56840  24.547  24.968   6.755
10000POPC   C3B56841  24.527  25.035   7.055
10000POPC   C4B56842  24.462  25.007   7.355
10001POPC   NC356843  14.453  30.650   5.555
10001POPC   PO456844  14.361  30.738   5.855
10001POPC   GL156845  14.448  30.715   6.155
10001POPC   GL256846  14.466  30.579   6.155
10001POPC   C1A56847  14.379  30.653   6.455
10001POPC   D2A56848  14.395  30.696   6.755
10001POPC   C3A56849  14.367  30.682   7.055
10001POPC   C4A56850  14.358  30.666   7.355
10001POPC   C1B56851  14.549  30.568   6.455
10001POPC   C2B56852  14.587  30.491   6.755
10001POPC   C3B56853  14.560  30.497   7.055
10001POPC   C4B56854  14.590  30.552   7.355
10002POPC   NC356855  25.264  22.983   5.555
10002POPC   PO456856  25.250  22.957   5.855
10002POPC   GL156857  25.238  22.929   6.155
10002POPC   GL256858  25.171  22.925   6.155
10002POPC   C1A56859  25.280  22.945   6.455
10002POPC   D2A56860  25.284  22.889   6.755
10002POPC   C3A56861  25.295  22.977   7.055
10002POPC   C4A56862  25.294  22.941   7.355
10002POPC   C1B56863  25.066  22.826   6.455
10002POPC   C2B56864  24.996  22.806   6.755
10002POPC   C3B56865  24.990  22.838   7.055
10002POPC   C4B56866  25.043  22.794   7.355
10003POPC   NC356867  25.274  20.620   5.555
10003POPC   PO456868  25.227  20.624   5.855
10003POPC   GL156869  25.296  20.576   6.155
10003POPC   GL256870  25.269  20.502   6.155
10003POPC   C1A56871  25.257  20.593   6.455
10003POPC   D2A56872  25.234  20.599   6.755
10003POPC   C3A56873  25.306  20.570   7.055
10003POPC   C4A56874  25.309  20.639   7.355
10003POPC   C1B56875  25.203  20.382   6.455
10003POPC   C2B56876  25.217  20.318   6.755
10003POPC   C3B56877  25.242  20.411   7.055
10003POPC   C4B56878  25.194  20.403   7.355
10004POPC   NC356879  40.774  17.466   5.555
10004POPC   PO456880  40.758  17.516   5.855
10004POPC   GL156881  40.825  17.499   6.155
10004POPC   GL256882  40.868  17.381   6.155
10004POPC   C1A56883  40.808  17.488   6.455
10004POPC   D2A56884  40.819  17.543   6.755
10004POPC   C3A56885  40.800  17.532   7.055
10004POPC   C4A56886  40.776  17.464   7.355
10004POPC   C1B56887  40.985  17.374   6.455
10004POPC   C2B56888  40.985  17.358   6.755
10004POPC   C3B56889  41.006  17.364   7.055
10004POPC   C4B56890  40.978  17.358   7.355
10005POPC   NC356891  37.715  22.962   5.555
10005POPC   PO456892  37.709  22.974   5.855
10005POPC   GL156893  37.652  22.956   6.155
10005POPC   GL256894  37.641  23.101   6.155
10005POPC   C1A56895  37.686  22.970   6.455
10005POPC   D2A56896  37.676  22.913   6.755
10005POPC   C3A56897  37.656  22.977   7.055
10005POPC   C4A56898  37.658  22.939   7.355
10005POPC   C1B56899  37.718  23.153   6.455
10005POPC   C2B56900  37.671  23.184   6.755
10005POPC   C3B56901  37.729  23.163   7.055
10005POPC   C4B56902  37.739  23.191   7.355
10006POPC   NC356903  40.736  32.287   5.555
10006POPC   PO456904  40.743  32.274   5.855
10006POPC   GL156905  40.748  32.239   6.155
10006POPC   GL256906  40.821  32.386   6.155
10006POPC   C1A56907  40.829  32.238   6.455
10006POPC   D2A56908  40.826  32.281   6.755
10006POPC   C3A56909  40.828  32.259   7.055
10006POPC   C4A56910  40.818  32.250   7.355
10006POPC   C1B56911  40.929  32.490   6.455
10006POPC   C2B56912  40.927  32.461   6.755
10006POPC   C3B56913  40.881  32.410   7.055
10006POPC   C4B56914  40.924  32.467   7.355
10007POPC   NC356915  17.512   5.862   5.555
10007POPC   PO456916  17.492   5.901   5.855
10007POPC   GL156917  17.494   5.886   6.155
10007POPC   GL256918  17.517   5.727   6.155
10007POPC   C1A56919  17.502   5.888   6.455
10007POPC   D2A56920  17.530   5.864   6.755
10007POPC   C3A56921  17.490   5.847   7.055
10007POPC   C4A56922  17.465   5.858   7.355
10007POPC   C1B56923  17.590   5.681   6.455
10007POPC   C2B56924  17.594   5.625   6.755
10007POPC   C3B56925  17.579   5.647   7.055
10007POPC   C4B56926  17.575   5.675   7.355
10008POPC   NC356927  40.043  22.986   5.555
10008POPC   PO456928  39.964  22.944   5.855
10008POPC   GL156929  40.018  22.918   6.155
10008POPC   GL256930  40.000  22.839   6.155
10008POPC   C1A56931  40.047  22.942   6.455
10008POPC   D2A56932  40.009  22.976   6.755
10008POPC   C3A56933  40.039  22.939   7.055
10008POPC   C4A56934  39.968  22.968   7.355
10008POPC   C1B56935  40.045  22.720   6.455
10008POPC   C2B56936  40.039  22.679   6.755
10008POPC   C3B56937  40.079  22.723   7.055
10008POPC   C4B56938  40.074  22.686   7.355
10009POPC   NC356939  14.415  15.188   5.555
10009POPC   PO456940  14.379  15.227   5.855
10009POPC   GL156941  14.361  15.183   6.155
10009POPC   GL256942  14.289  15.157   6.155
10009POPC   C1A56943  14.359  15.221   6.455
10009POPC   D2A56944  14.360  15.196   6.755
10009POPC   C3A56945  14.412  15.175   7.055
10009POPC   C4A56946  14.357  15.182   7.355
10009POPC   C1B56947  14.202  15.016   6.455
10009POPC   C2B56948  14.164  15.087   6.755
10009POPC   C3B56949  14.235  15.058   7.055
10009POPC   C4B56950  14.176  15.083   7.355
10010POPC   NC356951  36.912  35.400   5.555
10010POPC   PO456952  36.920  35.398   5.855
10010POPC   GL156953  36.882  35.377   6.155
10010POPC   GL256954  36.987  35.324   6.155
10010POPC   C1A56955  36.926  35.331   6.455
10010POPC   D2A56956  36.872  35.352   6.755
10010POPC   C3A56957  36.878  35.320   7.055
10010POPC   C4A56958  36.919  35.381   7.355
10010POPC   C1B56959  37.151  35.169   6.455
10010POPC   C2B56960  37.118  35.176   6.755
10010POPC   C3B56961  37.079  35.231   7.055
10010POPC   C4B56962  37.121  35.238   7.355
10011POPC   NC356963  40.049   9.000   5.555
10011POPC   PO456964  39.981   8.979   5.855
10011POPC   GL156965  39.998   8.956   6.155
10011POPC   GL256966  39.873   8.947   6.155
10011POPC   C1A56967  39.979   8.955   6.455
10011POPC   D2A56968  39.977   8.952   6.755
10011POPC   C3A56969  40.051   9.009   7.055
10011POPC   C4A56970  40.041   8.938   7.355
10011POPC   C1B56971  39.784   8.805   6.455
10011POPC   C2B56972  39.793   8.839   6.755
10011POPC   C3B56973  39.775   8.793   7.055
10011POPC   C4B56974  39.826   8.821   7.355
10012POPC   NC356975  28.364   8.236   5.555
10012POPC   PO456976  28.412   8.214   5.855
10012POPC   GL156977  28.322   8.236   6.155
10012POPC   GL256978  28.219   8.220   6.155
10012POPC   C1A56979  28.389   8.229   6.455
10012POPC   D2A56980  28.365   8.207   6.755
10012POPC   C3A56981  28.351   8.149   7.055
10012POPC   C4A56982  28.394   8.204   7.355
10012POPC   C1B56983  28.146   8.249   6.455
10012POPC   C2B56984  28.104   8.269   6.755
10012POPC   C3B56985  28.091   8.280   7.055
10012POPC   C4B56986  28.108   8.296   7.355
10013POPC   NC356987  11.282   2.789   5.555
10013POPC   PO456988  11.327   2.805   5.855
10013POPC   GL156989  11.282   2.795   6.155
10013POPC   GL256990  11.271   2.650   6.155
10013POPC   C1A56991  11.266   2.802   6.455
10013POPC   D2A56992  11.285   2.811   6.755
10013POPC   C3A56993  11.318   2.812   7.055
10013POPC   C4A56994  11.348   2.808   7.355
10013POPC   C1B56995  11.168   2.567   6.455
10013POPC   C2B56996  11.155   2.595   6.755
10013POPC   C3B56997  11.139   2.592   7.055
10013POPC   C4B56998  11.136   2.544   7.355
10014POPC   NC356999  33.060  23.749   5.555
10014POPC   PO457000  33.062  23.728   5.855
10014POPC   GL157001  33.042  23.741   6.155
10014POPC   GL257002  32.973  23.762   6.155
10014POPC   C1A57003  33.039  23.671   6.455
10014POPC   D2A57004  33.044  23.680   6.755
10014POPC   C3A57005  33.005  23.669   7.055
10014POPC   C4A57006  33.006  23.761   7.355
10014POPC   C1B57007  32.860  23.931   6.455
10014POPC   C2B57008  32.838  23.937   6.755
10014POPC   C3B57009  32.854  23.844   7.055
10014POPC   C4B57010  32.863  23.873   7.355
10015POPC   NC357011  15.161  12.859   5.555
10015POPC   PO457012  15.198  12.811   5.855
10015POPC   GL157013  15.211  12.828   6.155
10015POPC   GL257014  15.142  12.730   6.155
10015POPC   C1A57015  15.137  12.878   6.455
10015POPC   D2A57016  15.208  12.811   6.755
10015POPC   C3A57017  15.154  12.867   7.055
10015POPC   C4A57018  15.137  12.824   7.355
10015POPC   C1B57019  15.186  12.627   6.455
10015POPC   C2B57020  15.156  12.603   6.755
10015POPC   C3B57021  15.140  12.627   7.055
10015POPC   C4B57022  15.122  12.629   7.355
10016POPC   NC357023  39.185   2.728   5.555
10016POPC   PO457024  39.184   2.717   5.855
10016POPC   GL157025  39.242   2.776   6.155
10016POPC   GL257026  39.317   2.627   6.155
10016POPC   C1A57027  39.248   2.769   6.455
10016POPC   D2A57028  39.194   2.789   6.755
10016POPC   C3A57029  39.274   2.776   7.055
10016POPC   C4A57030  39.212   2.804   7.355
10016POPC   C1B57031  39.342   2.509   6.455
10016POPC   C2B57032  39.355   2.535   6.755
10016POPC   C3B57033  39.272   2.482   7.055
10016POPC   C4B57034  39.314   2.569   7.355
10017POPC   NC357035  11.269  25.221   5.555
10017POPC   PO457036  11.264  25.259   5.855
10017POPC   GL157037  11.269  25.234   6.155
10017POPC   GL257038  11.270  25.167   6.155
10017POPC   C1A57039  11.274  25.256   6.455
10017POPC   D2A57040  11.269  25.286   6.755
10017POPC   C3A57041  11.331  25.240   7.055
10017POPC   C4A57042  11.284  25.293   7.355
10017POPC   C1B57043  11.259  25.033   6.455
10017POPC   C2B57044  11.201  25.057   6.755
10017POPC   C3B57045  11.263  25.046   7.055
10017POPC   C4B57046  11.209  24.992   7.355
10018POPC   NC357047  16.776  22.904   5.555
10018POPC   PO457048  16.717  22.894   5.855
10018POPC   GL157049  16.695  22.964   6.155
10018POPC   GL257050  16.829  23.036   6.155
10018POPC   C1A57051  16.717  22.916   6.455
10018POPC   D2A57052  16.710  22.978   6.755
10018POPC   C3A57053  16.727  22.956   7.055
10018POPC   C4A57054  16.730  22.926   7.355
10018POPC   C1B57055  16.974  23.084   6.455
10018POPC   C2B57056  16.993  23.110   6.755
10018POPC   C3B57057  16.957  23.034   7.055
10018POPC   C4B57058  16.975  23.102   7.355
10019POPC   NC357059   8.156  37.696   5.555
10019POPC   PO457060   8.229  37.645   5.855
10019POPC   GL157061   8.163  37.675   6.155
10019POPC   GL257062   8.326  37.681   6.155
10019POPC   C1A57063   8.191  37.726   6.455
10019POPC   D2A57064   8.160  37.677   6.755
10019POPC   C3A57065   8.195  37.701   7.055
10019POPC   C4A57066   8.158  37.637   7.355
10019POPC   C1B57067   8.462  37.730   6.455
10019POPC   C2B57068   8.428  37.670   6.755
10019POPC   C3B57069   8.416  37.721   7.055
10019POPC   C4B57070   8.451  37.706   7.355
10020POPC   NC357071  10.514  22.137   5.555
10020POPC   PO457072  10.520  22.211   5.855
10020POPC   GL157073  10.561  22.155   6.155
10020POPC   GL257074  10.349  22.128   6.155
10020POPC   C1A57075  10.562  22.192   6.455
10020POPC   D2A57076  10.549  22.188   6.755
10020POPC   C3A57077  10.519  22.211   7.055
10020POPC   C4A57078  10.516  22.155   7.355
10020POPC   C1B57079  10.300  22.137   6.455
10020POPC   C2B57080  10.242  22.183   6.755
10020POPC   C3B57081  10.270  22.191   7.055
10020POPC   C4B57082  10.255  22.184   7.355
10021POPC   NC357083  29.965  35.393   5.555
10021POPC   PO457084  29.964  35.351   5.855
10021POPC   GL157085  29.893  35.337   6.155
10021POPC   GL257086  29.863  35.282   6.155
10021POPC   C1A57087  29.882  35.387   6.455
10021POPC   D2A57088  29.938  35.364   6.755
10021POPC   C3A57089  29.871  35.393   7.055
10021POPC   C4A57090  29.960  35.354   7.355
10021POPC   C1B57091  29.877  35.089   6.455
10021POPC   C2B57092  29.886  35.116   6.755
10021POPC   C3B57093  29.882  35.114   7.055
10021POPC   C4B57094  29.886  35.102   7.355
10022POPC   NC357095   4.307  29.960   5.555
10022POPC   PO457096   4.323  29.952   5.855
10022POPC   GL157097   4.270  29.934   6.155
10022POPC   GL257098   4.336  29.852   6.155
10022POPC   C1A57099   4.306  29.876   6.455
10022POPC   D2A57100   4.345  29.882   6.755
10022POPC   C3A57101   4.270  29.952   7.055
10022POPC   C4A57102   4.332  29.932   7.355
10022POPC   C1B57103   4.395  29.701   6.455
10022POPC   C2B57104   4.463  29.723   6.755
10022POPC   C3B57105   4.393  29.700   7.055
10022POPC   C4B57106   4.416  29.728   7.355
10023POPC   NC357107   1.253  42.314   5.555
10023POPC   PO457108   1.182  42.331   5.855
10023POPC   GL157109   1.196  42.322   6.155
10023POPC   GL257110   1.136  42.368   6.155
10023POPC   C1A57111   1.190  42.350   6.455
10023POPC   D2A57112   1.189  42.378   6.755
10023POPC   C3A57113   1.237  42.286   7.055
10023POPC   C4A57114   1.250  42.290   7.355
10023POPC   C1B57115   1.025  42.462   6.455
10023POPC   C2B57116   0.987  42.486   6.755
10023POPC   C3B57117   1.019  42.476   7.055
10023POPC   C4B57118   1.008  42.417   7.355
10024POPC   NC357119  41.572  29.879   5.555
10024POPC   PO457120  41.594  29.916   5.855
10024POPC   GL157121  41.566  29.872   6.155
10024POPC   GL257122  41.577  29.798   6.155
10024POPC   C1A57123  41.593  29.935   6.455
10024POPC   D2A57124  41.525  29.899   6.755
10024POPC   C3A57125  41.573  29.965   7.055
10024POPC   C4A57126  41.516  29.936   7.355
10024POPC   C1B57127  41.652  29.692   6.455
10024POPC   C2B57128  41.616  29.672   6.755
10024POPC   C3B57129  41.598  29.635   7.055
10024POPC   C4B57130  41.651  29.648   7.355
10025POPC   NC357131  40.018  34.594   5.555
10025POPC   PO457132  40.035  34.561   5.855
10025POPC   GL157133  39.960  34.550   6.155
10025POPC   GL257134  40.064  34.703   6.155
10025POPC   C1A57135  39.981  34.543   6.455
10025POPC   D2A57136  40.000  34.533   6.755
10025POPC   C3A57137  40.018  34.569   7.055
10025POPC   C4A57138  40.035  34.541   7.355
10025POPC   C1B57139  40.029  34.825   6.455
10025POPC   C2B57140  40.074  34.874   6.755
10025POPC   C3B57141  40.054  34.805   7.055
10025POPC   C4B57142  40.026  34.813   7.355
10026POPC   NC357143  36.913  39.986   5.555
10026POPC   PO457144  36.862  40.040   5.855
10026POPC   GL157145  36.855  39.974   6.155
10026POPC   GL257146  37.012  40.010   6.155
10026POPC   C1A57147  36.930  40.032   6.455
10026POPC   D2A57148  36.933  39.969   6.755
10026POPC   C3A57149  36.895  39.969   7.055
10026POPC   C4A57150  36.952  40.015   7.355
10026POPC   C1B57151  37.136  40.109   6.455
10026POPC   C2B57152  37.185  40.069   6.755
10026POPC   C3B57153  37.114  40.048   7.055
10026POPC   C4B57154  37.138  40.062   7.355
10027POPC   NC357155   2.021  12.068   5.555
10027POPC   PO457156   1.961  12.125   5.855
10027POPC   GL157157   2.014  12.087   6.155
10027POPC   GL257158   1.994  12.186   6.155
10027POPC   C1A57159   1.971  12.124   6.455
10027POPC   D2A57160   2.024  12.125   6.755
10027POPC   C3A57161   1.967  12.082   7.055
10027POPC   C4A57162   2.039  12.106   7.355
10027POPC   C1B57163   1.972  12.351   6.455
10027POPC   C2B57164   1.958  12.299   6.755
10027POPC   C3B57165   1.976  12.312   7.055
10027POPC   C4B57166   1.909  12.371   7.355
10028POPC   NC357167  17.471  42.369   5.555
10028POPC   PO457168  17.549  42.347   5.855
10028POPC   GL157169  17.552  42.362   6.155
10028POPC   GL257170  17.663  42.428   6.155
10028POPC   C1A57171  17.497  42.286   6.455
10028POPC   D2A57172  17.487  42.370   6.755
10028POPC   C3A57173  17.502  42.285   7.055
10028POPC   C4A57174  17.553  42.321   7.355
10028POPC   C1B57175  17.713  42.413   6.455
10028POPC   C2B57176  17.785  42.473   6.755
10028POPC   C3B57177  17.767  42.465   7.055
10028POPC   C4B57178  17.773  42.389   7.355
10029POPC   NC357179  34.537  10.485   5.555
10029POPC   PO457180  34.576  10.534   5.855
10029POPC   GL157181  34.546  10.550   6.155
10029POPC   GL257182  34.438  10.487   6.155
10029POPC   C1A57183  34.540  10.523   6.455
10029POPC   D2A57184  34.614  10.480   6.755
10029POPC   C3A57185  34.546  10.515   7.055
10029POPC   C4A57186  34.621  10.537   7.355
10029POPC   C1B57187  34.333  10.518   6.455
10029POPC   C2B57188  34.350  10.449   6.755
10029POPC   C3B57189  34.368  10.514   7.055
10029POPC   C4B57190  34.317  10.481   7.355
10030POPC   NC357191  26.776  20.633   5.555
10030POPC   PO457192  26.861  20.622   5.855
10030POPC   GL157193  26.770  20.621   6.155
10030POPC   GL257194  26.690  20.687   6.155
10030POPC   C1A57195  26.788  20.657   6.455
10030POPC   D2A57196  26.820  20.593   6.755
10030POPC   C3A57197  26.792  20.611   7.055
10030POPC   C4A57198  26.785  20.653   7.355
10030POPC   C1B57199  26.564  20.737   6.455
10030POPC   C2B57200  26.584  20.734   6.755
10030POPC   C3B57201  26.608  20.759   7.055
10030POPC   C4B57202  26.576  20.716   7.355
10031POPC   NC357203  24.496  19.810   5.555
10031POPC   PO457204  24.442  19.791   5.855
10031POPC   GL157205  24.496  19.823   6.155
10031POPC   GL257206  24.513  19.661   6.155
10031POPC   C1A57207  24.475  19.820   6.455
10031POPC   D2A57208  24.523  19.873   6.755
10031POPC   C3A57209  24.531  19.788   7.055
10031POPC   C4A57210  24.468  19.849   7.355
10031POPC   C1B57211  24.485  19.544   6.455
10031POPC   C2B57212  24.551  19.546   6.755
10031POPC   C3B57213  24.523  19.582   7.055
10031POPC   C4B57214  24.475  19.545   7.355
10032POPC   NC357215  39.270  44.673   5.555
10032POPC   PO457216  39.239  44.687   5.855
10032POPC   GL157217  39.189  44.630   6.155
10032POPC   GL257218  39.308  44.650   6.155
10032POPC   C1A57219  39.238  44.675   6.455
10032POPC   D2A57220  39.196  44.622   6.755
10032POPC   C3A57221  39.267  44.624   7.055
10032POPC   C4A57222  39.280  44.663   7.355
10032POPC   C1B57223  39.442  44.652   6.455
10032POPC   C2B57224  39.487  44.638   6.755
10032POPC   C3B57225  39.458  44.677   7.055
10032POPC   C4B57226  39.482  44.717   7.355
10033POPC   NC357227  11.280   9.699   5.555
10033POPC   PO457228  11.341   9.791   5.855
10033POPC   GL157229  11.260   9.717   6.155
10033POPC   GL257230  11.201   9.793   6.155
10033POPC   C1A57231  11.309   9.714   6.455
10033POPC   D2A57232  11.346   9.740   6.755
10033POPC   C3A57233  11.318   9.790   7.055
10033POPC   C4A57234  11.283   9.749   7.355
10033POPC   C1B57235  11.117   9.941   6.455
10033POPC   C2B57236  11.165   9.954   6.755
10033POPC   C3B57237  11.168   9.964   7.055
10033POPC   C4B57238  11.095   9.951   7.355
10034POPC   NC357239   1.942   1.217   5.555
10034POPC   PO457240   1.982   1.217   5.855
10034POPC   GL157241   1.945   1.244   6.155
10034POPC   GL257242   2.033   1.306   6.155
10034POPC   C1A57243   1.964   1.189   6.455
10034POPC   D2A57244   1.960   1.225   6.755
10034POPC   C3A57245   2.015   1.248   7.055
10034POPC   C4A57246   2.018   1.240   7.355
10034POPC   C1B57247   2.039   1.427   6.455
10034POPC   C2B57248   2.060   1.447   6.755
10034POPC   C3B57249   1.979   1.495   7.055
10034POPC   C4B57250   1.988   1.429   7.355
10035POPC   NC357251  16.751  31.455   5.555
10035POPC   PO457252  16.693  31.426   5.855
10035POPC   GL157253  16.758  31.503   6.155
10035POPC   GL257254  16.797  31.410   6.155
10035POPC   C1A57255  16.681  31.486   6.455
10035POPC   D2A57256  16.749  31.470   6.755
10035POPC   C3A57257  16.695  31.507   7.055
10035POPC   C4A57258  16.764  31.444   7.355
10035POPC   C1B57259  16.997  31.409   6.455
10035POPC   C2B57260  16.935  31.344   6.755
10035POPC   C3B57261  17.003  31.362   7.055
10035POPC   C4B57262  16.993  31.337   7.355
10036POPC   NC357263   7.424  15.975   5.555
10036POPC   PO457264   7.394  15.909   5.855
10036POPC   GL157265   7.426  15.984   6.155
10036POPC   GL257266   7.298  15.862   6.155
10036POPC   C1A57267   7.459  15.909   6.455
10036POPC   D2A57268   7.412  15.997   6.755
10036POPC   C3A57269   7.405  15.970   7.055
10036POPC   C4A57270   7.422  15.955   7.355
10036POPC   C1B57271   7.177  15.821   6.455
10036POPC   C2B57272   7.154  15.803   6.755
10036POPC   C3B57273   7.226  15.857   7.055
10036POPC   C4B57274   7.173  15.821   7.355
10037POPC   NC357275  35.332  43.097   5.555
10037POPC   PO457276  35.304  43.141   5.855
10037POPC   GL157277  35.401  43.140   6.155
10037POPC   GL257278  35.486  43.209   6.155
10037POPC   C1A57279  35.388  43.073   6.455
10037POPC   D2A57280  35.345  43.113   6.755
10037POPC   C3A57281  35.353  43.067   7.055
10037POPC   C4A57282  35.310  43.085   7.355
10037POPC   C1B57283  35.609  43.170   6.455
10037POPC   C2B57284  35.542  43.184   6.755
10037POPC   C3B57285  35.618  43.182   7.055
10037POPC   C4B57286  35.607  43.214   7.355
10038POPC   NC357287  11.306  13.594   5.555
10038POPC   PO457288  11.291  13.611   5.855
10038POPC   GL157289  11.313  13.677   6.155
10038POPC   GL257290  11.395  13.565   6.155
10038POPC   C1A57291  11.250  13.650   6.455
10038POPC   D2A57292  11.330  13.601   6.755
10038POPC   C3A57293  11.328  13.653   7.055
10038POPC   C4A57294  11.328  13.634   7.355
10038POPC   C1B57295  11.511  13.563   6.455
10038POPC   C2B57296  11.499  13.566   6.755
10038POPC   C3B57297  11.489  13.482   7.055
10038POPC   C4B57298  11.476  13.470   7.355
10039POPC   NC357299  39.986  29.114   5.555
10039POPC   PO457300  40.010  29.179   5.855
10039POPC   GL157301  40.022  29.188   6.155
10039POPC   GL257302  40.107  29.040   6.155
10039POPC   C1A57303  40.007  29.140   6.455
10039POPC   D2A57304  39.996  29.183   6.755
10039POPC   C3A57305  40.052  29.154   7.055
10039POPC   C4A57306  40.039  29.186   7.355
10039POPC   C1B57307  40.218  29.016   6.455
10039POPC   C2B57308  40.194  29.039   6.755
10039POPC   C3B57309  40.230  29.053   7.055
10039POPC   C4B57310  40.227  29.056   7.355
10040POPC   NC357311  25.290   1.970   5.555
10040POPC   PO457312  25.251   1.951   5.855
10040POPC   GL157313  25.249   1.996   6.155
10040POPC   GL257314  25.383   2.014   6.155
10040POPC   C1A57315  25.301   1.975   6.455
10040POPC   D2A57316  25.287   2.011   6.755
10040POPC   C3A57317  25.235   1.973   7.055
10040POPC   C4A57318  25.298   2.037   7.355
10040POPC   C1B57319  25.486   2.162   6.455
10040POPC   C2B57320  25.507   2.131   6.755
10040POPC   C3B57321  25.497   2.128   7.055
10040POPC   C4B57322  25.500   2.146   7.355
10041POPC   NC357323   5.855  26.044   5.555
10041POPC   PO457324   5.867  26.015   5.855
10041POPC   GL157325   5.907  26.028   6.155
10041POPC   GL257326   5.964  26.006   6.155
10041POPC   C1A57327   5.827  26.031   6.455
10041POPC   D2A57328   5.882  26.064   6.755
10041POPC   C3A57329   5.878  26.002   7.055
10041POPC   C4A57330   5.825  26.066   7.355
10041POPC   C1B57331   6.137  25.937   6.455
10041POPC   C2B57332   6.129  25.922   6.755
10041POPC   C3B57333   6.137  25.922   7.055
10041POPC   C4B57334   6.087  26.005   7.355
10042POPC   NC357335   6.663  40.747   5.555
10042POPC   PO457336   6.597  40.744   5.855
10042POPC   GL157337   6.636  40.820   6.155
10042POPC   GL257338   6.494  40.797   6.155
10042POPC   C1A57339   6.627  40.774   6.455
10042POPC   D2A57340   6.623  40.755   6.755
10042POPC   C3A57341   6.682  40.793   7.055
10042POPC   C4A57342   6.667  40.811   7.355
10042POPC   C1B57343   6.403  40.871   6.455
10042POPC   C2B57344   6.420  40.809   6.755
10042POPC   C3B57345   6.389  40.884   7.055
10042POPC   C4B57346   6.440  40.827   7.355
10043POPC   NC357347   1.993  13.603   5.555
10043POPC   PO457348   1.953  13.668   5.855
10043POPC   GL157349   1.990  13.587   6.155
10043POPC   GL257350   1.998  13.729   6.155
10043POPC   C1A57351   1.967  13.656   6.455
10043POPC   D2A57352   2.033  13.605   6.755
10043POPC   C3A57353   1.998  13.590   7.055
10043POPC   C4A57354   2.028  13.617   7.355
10043POPC   C1B57355   1.984  13.831   6.455
10043POPC   C2B57356   1.970  13.835   6.755
10043POPC   C3B57357   2.014  13.838   7.055
10043POPC   C4B57358   2.022  13.912   7.355
10044POPC   NC357359  16.697  17.553   5.555
10044POPC   PO457360  16.731  17.494   5.855
10044POPC   GL157361  16.696  17.477   6.155
10044POPC   GL257362  16.666  17.445   6.155
10044POPC   C1A57363  16.743  17.486   6.455
10044POPC   D2A57364  16.734  17.479   6.755
10044POPC   C3A57365  16.687  17.509   7.055
10044POPC   C4A57366  16.748  17.541   7.355
10044POPC   C1B57367  16.455  17.400   6.455
10044POPC   C2B57368  16.516  17.443   6.755
10044POPC   C3B57369  16.521  17.423   7.055
10044POPC   C4B57370  16.527  17.430   7.355
10045POPC   NC357371  34.543  42.349   5.555
10045POPC   PO457372  34.562  42.348   5.855
10045POPC   GL157373  34.625  42.355   6.155
10045POPC   GL257374  34.642  42.275   6.155
10045POPC   C1A57375  34.527  42.317   6.455
10045POPC   D2A57376  34.535  42.383   6.755
10045POPC   C3A57377  34.535  42.348   7.055
10045POPC   C4A57378  34.624  42.380   7.355
10045POPC   C1B57379  34.657  42.104   6.455
10045POPC   C2B57380  34.708  42.082   6.755
10045POPC   C3B57381  34.654  42.106   7.055
10045POPC   C4B57382  34.699  42.098   7.355
10046POPC   NC357383  20.645  37.656   5.555
10046POPC   PO457384  20.612  37.699   5.855
10046POPC   GL157385  20.591  37.674   6.155
10046POPC   GL257386  20.696  37.544   6.155
10046POPC   C1A57387  20.585  37.657   6.455
10046POPC   D2A57388  20.619  37.695   6.755
10046POPC   C3A57389  20.584  37.650   7.055
10046POPC   C4A57390  20.588  37.683   7.355
10046POPC   C1B57391  20.693  37.434   6.455
10046POPC   C2B57392  20.653  37.464   6.755
10046POPC   C3B57393  20.721  37.474   7.055
10046POPC   C4B57394  20.681  37.464   7.355
10047POPC   NC357395   8.218   0.426   5.555
10047POPC   PO457396   8.236   0.411   5.855
10047POPC   GL157397   8.237   0.407   6.155
10047POPC   GL257398   8.320   0.386   6.155
10047POPC   C1A57399   8.212   0.393   6.455
10047POPC   D2A57400   8.162   0.454   6.755
10047POPC   C3A57401   8.177   0.461   7.055
10047POPC   C4A57402   8.243   0.479   7.355
10047POPC   C1B57403   8.416   0.262   6.455
10047POPC   C2B57404   8.339   0.314   6.755
10047POPC   C3B57405   8.401   0.311   7.055
10047POPC   C4B57406   8.348   0.266   7.355
10048POPC   NC357407  39.236  12.823   5.555
10048POPC   PO457408  39.196  12.866   5.855
10048POPC   GL157409  39.227  12.805   6.155
10048POPC   GL257410  39.179  13.006   6.155
10048POPC   C1A57411  39.190  12.812   6.455
10048POPC   D2A57412  39.201  12.821   6.755
10048POPC   C3A57413  39.219  12.878   7.055
10048POPC   C4A57414  39.190  12.864   7.355
10048POPC   C1B57415  39.110  13.089   6.455
10048POPC   C2B57416  39.132  13.118   6.755
10048POPC   C3B57417  39.146  13.042   7.055
10048POPC   C4B57418  39.118  13.062   7.355
10049POPC   NC357419   7.381  36.127   5.555
10049POPC   PO457420   7.421  36.121   5.855
10049POPC   GL157421   7.437  36.137   6.155
10049POPC   GL257422   7.301  36.175   6.155
10049POPC   C1A57423   7.388  36.147   6.455
10049POPC   D2A57424   7.452  36.160   6.755
10049POPC   C3A57425   7.428  36.146   7.055
10049POPC   C4A57426   7.416  36.142   7.355
10049POPC   C1B57427   7.251  36.267   6.455
10049POPC   C2B57428   7.241  36.321   6.755
10049POPC   C3B57429   7.210  36.281   7.055
10049POPC   C4B57430   7.218  36.347   7.355
10050POPC   NC357431   9.780  29.163   5.555
10050POPC   PO457432   9.766  29.122   5.855
10050POPC   GL157433   9.699  29.151   6.155
10050POPC   GL257434   9.629  29.256   6.155
10050POPC   C1A57435   9.741  29.131   6.455
10050POPC   D2A57436   9.722  29.159   6.755
10050POPC   C3A57437   9.719  29.115   7.055
10050POPC   C4A57438   9.705  29.174   7.355
10050POPC   C1B57439   9.573  29.333   6.455
10050POPC   C2B57440   9.641  29.318   6.755
10050POPC   C3B57441   9.645  29.373   7.055
10050POPC   C4B57442   9.584  29.336   7.355
10051POPC   NC357443  39.239  36.858   5.555
10051POPC   PO457444  39.211  36.854   5.855
10051POPC   GL157445  39.247  36.951   6.155
10051POPC   GL257446  39.322  36.973   6.155
10051POPC   C1A57447  39.273  36.875   6.455
10051POPC   D2A57448  39.181  36.940   6.755
10051POPC   C3A57449  39.269  36.880   7.055
10051POPC   C4A57450  39.281  36.888   7.355
10051POPC   C1B57451  39.371  37.143   6.455
10051POPC   C2B57452  39.394  37.084   6.755
10051POPC   C3B57453  39.365  37.083   7.055
10051POPC   C4B57454  39.382  37.123   7.355
10052POPC   NC357455   9.791  33.073   5.555
10052POPC   PO457456   9.754  33.030   5.855
10052POPC   GL157457   9.783  33.044   6.155
10052POPC   GL257458   9.671  32.939   6.155
10052POPC   C1A57459   9.728  33.015   6.455
10052POPC   D2A57460   9.788  33.040   6.755
10052POPC   C3A57461   9.762  33.059   7.055
10052POPC   C4A57462   9.795  33.042   7.355
10052POPC   C1B57463   9.527  32.904   6.455
10052POPC   C2B57464   9.517  32.907   6.755
10052POPC   C3B57465   9.517  32.867   7.055
10052POPC   C4B57466   9.582  32.892   7.355
10053POPC   NC357467   1.970   3.522   5.555
10053POPC   PO457468   2.014   3.513   5.855
10053POPC   GL157469   2.039   3.502   6.155
10053POPC   GL257470   2.021   3.408   6.155
10053POPC   C1A57471   2.022   3.496   6.455
10053POPC   D2A57472   1.954   3.516   6.755
10053POPC   C3A57473   2.003   3.562   7.055
10053POPC   C4A57474   1.964   3.528   7.355
10053POPC   C1B57475   2.005   3.327   6.455
10053POPC   C2B57476   1.947   3.330   6.755
10053POPC   C3B57477   1.966   3.242   7.055
10053POPC   C4B57478   2.006   3.317   7.355
10054POPC   NC357479   4.310  15.201   5.555
10054POPC   PO457480   4.290  15.177   5.855
10054POPC   GL157481   4.347  15.196   6.155
10054POPC   GL257482   4.312  15.030   6.155
10054POPC   C1A57483   4.277  15.173   6.455
10054POPC   D2A57484   4.274  15.221   6.755
10054POPC   C3A57485   4.290  15.215   7.055
10054POPC   C4A57486   4.339  15.157   7.355
10054POPC   C1B57487   4.229  14.909   6.455
10054POPC   C2B57488   4.179  14.994   6.755
10054POPC   C3B57489   4.239  14.967   7.055
10054POPC   C4B57490   4.193  14.933   7.355
10055POPC   NC357491  39.999   2.796   5.555
10055POPC   PO457492  40.041   2.745   5.855
10055POPC   GL157493  39.970   2.721   6.155
10055POPC   GL257494  40.070   2.673   6.155
10055POPC   C1A57495  40.021   2.815   6.455
10055POPC   D2A57496  40.051   2.720   6.755
10055POPC   C3A57497  40.054   2.794   7.055
10055POPC   C4A57498  40.004   2.762   7.355
10055POPC   C1B57499  40.183   2.540   6.455
10055POPC   C2B57500  40.163   2.556   6.755
10055POPC   C3B57501  40.212   2.630   7.055
10055POPC   C4B57502  40.156   2.556   7.355
10056POPC   NC357503  27.591   2.809   5.555
10056POPC   PO457504  27.606   2.752   5.855
10056POPC   GL157505  27.565   2.723   6.155
10056POPC   GL257506  27.641   2.604   6.155
10056POPC   C1A57507  27.560   2.736   6.455
10056POPC   D2A57508  27.626   2.745   6.755
10056POPC   C3A57509  27.570   2.760   7.055
10056POPC   C4A57510  27.567   2.726   7.355
10056POPC   C1B57511  27.658   2.505   6.455
10056POPC   C2B57512  27.673   2.537   6.755
10056POPC   C3B57513  27.581   2.541   7.055
10056POPC   C4B57514  27.614   2.479   7.355
10057POPC   NC357515  43.108  27.616   5.555
10057POPC   PO457516  43.097  27.619   5.855
10057POPC   GL157517  43.132  27.643   6.155
10057POPC   GL257518  43.167  27.704   6.155
10057POPC   C1A57519  43.148  27.583   6.455
10057POPC   D2A57520  43.083  27.572   6.755
10057POPC   C3A57521  43.065  27.578   7.055
10057POPC   C4A57522  43.117  27.578   7.355
10057POPC   C1B57523  43.242  27.793   6.455
10057POPC   C2B57524  43.262  27.803   6.755
10057POPC   C3B57525  43.240  27.794   7.055
10057POPC   C4B57526  43.260  27.771   7.355
10058POPC   NC357527   9.000  22.913   5.555
10058POPC   PO457528   8.994  22.893   5.855
10058POPC   GL157529   8.969  22.950   6.155
10058POPC   GL257530   8.887  23.010   6.155
10058POPC   C1A57531   8.983  22.932   6.455
10058POPC   D2A57532   8.996  22.905   6.755
10058POPC   C3A57533   8.973  22.921   7.055
10058POPC   C4A57534   9.016  22.981   7.355
10058POPC   C1B57535   8.819  23.131   6.455
10058POPC   C2B57536   8.854  23.165   6.755
10058POPC   C3B57537   8.813  23.143   7.055
10058POPC   C4B57538   8.813  23.195   7.355
10059POPC   NC357539  37.717  13.581   5.555
10059POPC   PO457540  37.667  13.597   5.855
10059POPC   GL157541  37.641  13.585   6.155
10059POPC   GL257542  37.797  13.645   6.155
10059POPC   C1A57543  37.729  13.611   6.455
10059POPC   D2A57544  37.676  13.637   6.755
10059POPC   C3A57545  37.630  13.645   7.055
10059POPC   C4A57546  37.664  13.595   7.355
10059POPC   C1B57547  37.921  13.617   6.455
10059POPC   C2B57548  37.891  13.625   6.755
10059POPC   C3B57549  37.896  13.619   7.055
10059POPC   C4B57550  37.893  13.657   7.355
10060POPC   NC357551  28.373  15.186   5.555
10060POPC   PO457552  28.320  15.152   5.855
10060POPC   GL157553  28.327  15.148   6.155
10060POPC   GL257554  28.429  15.334   6.155
10060POPC   C1A57555  28.415  15.159   6.455
10060POPC   D2A57556  28.364  15.175   6.755
10060POPC   C3A57557  28.383  15.225   7.055
10060POPC   C4A57558  28.332  15.152   7.355
10060POPC   C1B57559  28.511  15.427   6.455
10060POPC   C2B57560  28.501  15.383   6.755
10060POPC   C3B57561  28.483  15.352   7.055
10060POPC   C4B57562  28.548  15.413   7.355
10061POPC   NC357563   0.428  13.605   5.555
10061POPC   PO457564   0.487  13.676   5.855
10061POPC   GL157565   0.469  13.653   6.155
10061POPC   GL257566   0.524  13.613   6.155
10061POPC   C1A57567   0.397  13.656   6.455
10061POPC   D2A57568   0.488  13.612   6.755
10061POPC   C3A57569   0.398  13.655   7.055
10061POPC   C4A57570   0.431  13.611   7.355
10061POPC   C1B57571   0.700  13.691   6.455
10061POPC   C2B57572   0.681  13.688   6.755
10061POPC   C3B57573   0.721  13.666   7.055
10061POPC   C4B57574   0.657  13.637   7.355
10062POPC   NC357575  12.100  32.242   5.555
10062POPC   PO457576  12.045  32.266   5.855
10062POPC   GL157577  12.057  32.252   6.155
10062POPC   GL257578  11.948  32.173   6.155
10062POPC   C1A57579  12.104  32.207   6.455
10062POPC   D2A57580  12.098  32.253   6.755
10062POPC   C3A57581  12.118  32.265   7.055
10062POPC   C4A57582  12.063  32.224   7.355
10062POPC   C1B57583  11.836  32.113   6.455
10062POPC   C2B57584  11.837  32.131   6.755
10062POPC   C3B57585  11.851  32.164   7.055
10062POPC   C4B57586  11.854  32.189   7.355
10063POPC   NC357587  26.047   7.387   5.555
10063POPC   PO457588  26.050   7.388   5.855
10063POPC   GL157589  26.024   7.400   6.155
10063POPC   GL257590  26.032   7.281   6.155
10063POPC   C1A57591  26.010   7.469   6.455
10063POPC   D2A57592  26.060   7.376   6.755
10063POPC   C3A57593  26.051   7.405   7.055
10063POPC   C4A57594  26.044   7.394   7.355
10063POPC   C1B57595  26.038   7.153   6.455
10063POPC   C2B57596  26.023   7.210   6.755
10063POPC   C3B57597  26.025   7.167   7.055
10063POPC   C4B57598  26.042   7.149   7.355
10064POPC   NC357599   5.078  43.925   5.555
10064POPC   PO457600   5.124  43.929   5.855
10064POPC   GL157601   5.120  43.894   6.155
10064POPC   GL257602   5.041  43.819   6.155
10064POPC   C1A57603   5.090  43.904   6.455
10064POPC   D2A57604   5.139  43.935   6.755
10064POPC   C3A57605   5.142  43.843   7.055
10064POPC   C4A57606   5.071  43.914   7.355
10064POPC   C1B57607   4.897  43.707   6.455
10064POPC   C2B57608   4.867  43.734   6.755
10064POPC   C3B57609   4.934  43.703   7.055
10064POPC   C4B57610   4.861  43.688   7.355
10065POPC   NC357611  33.822  12.110   5.555
10065POPC   PO457612  33.772  12.097   5.855
10065POPC   GL157613  33.779  12.077   6.155
10065POPC   GL257614  33.911  12.022   6.155
10065POPC   C1A57615  33.847  12.124   6.455
10065POPC   D2A57616  33.823  12.056   6.755
10065POPC   C3A57617  33.760  12.107   7.055
10065POPC   C4A57618  33.769  12.048   7.355
10065POPC   C1B57619  34.005  12.018   6.455
10065POPC   C2B57620  34.045  12.031   6.755
10065POPC   C3B57621  34.065  12.099   7.055
10065POPC   C4B57622  34.031  12.080   7.355
10066POPC   NC357623  12.890   5.852   5.555
10066POPC   PO457624  12.851   5.908   5.855
10066POPC   GL157625  12.831   5.876   6.155
10066POPC   GL257626  12.970   5.982   6.155
10066POPC   C1A57627  12.886   5.828   6.455
10066POPC   D2A57628  12.892   5.911   6.755
10066POPC   C3A57629  12.867   5.906   7.055
10066POPC   C4A57630  12.900   5.898   7.355
10066POPC   C1B57631  13.008   6.042   6.455
10066POPC   C2B57632  13.008   6.004   6.755
10066POPC   C3B57633  13.017   6.026   7.055
10066POPC   C4B57634  13.049   6.053   7.355
10067POPC   NC357635   5.048  44.696   5.555
10067POPC   PO457636   5.131  44.709   5.855
10067POPC   GL157637   5.139  44.644   6.155
10067POPC   GL257638   4.986  44.704   6.155
10067POPC   C1A57639   5.124  44.667   6.455
10067POPC   D2A57640   5.073  44.626   6.755
10067POPC   C3A57641   5.058  44.688   7.055
10067POPC   C4A57642   5.071  44.645   7.355
10067POPC   C1B57643   4.848  44.760   6.455
10067POPC   C2B57644   4.844  44.731   6.755
10067POPC   C3B57645   4.904  44.718   7.055
10067POPC   C4B57646   4.891  44.709   7.355
10068POPC   NC357647   6.620  20.569   5.555
10068POPC   PO457648   6.627  20.653   5.855
10068POPC   GL157649   6.660  20.633   6.155
10068POPC   GL257650   6.646  20.529   6.155
10068POPC   C1A57651   6.635  20.610   6.455
10068POPC   D2A57652   6.675  20.609   6.755
10068POPC   C3A57653   6.638  20.646   7.055
10068POPC   C4A57654   6.657  20.607   7.355
10068POPC   C1B57655   6.615  20.351   6.455
10068POPC   C2B57656   6.591  20.389   6.755
10068POPC   C3B57657   6.553  20.379   7.055
10068POPC   C4B57658   6.584  20.386   7.355
10069POPC   NC357659  19.799  36.136   5.555
10069POPC   PO457660  19.833  36.083   5.855
10069POPC   GL157661  19.854  36.110   6.155
10069POPC   GL257662  19.953  36.140   6.155
10069POPC   C1A57663  19.852  36.116   6.455
10069POPC   D2A57664  19.828  36.148   6.755
10069POPC   C3A57665  19.871  36.166   7.055
10069POPC   C4A57666  19.786  36.177   7.355
10069POPC   C1B57667  20.123  36.168   6.455
10069POPC   C2B57668  20.103  36.193   6.755
10069POPC   C3B57669  20.064  36.220   7.055
10069POPC   C4B57670  20.063  36.215   7.355
10070POPC   NC357671   8.939  34.532   5.555
10070POPC   PO457672   9.002  34.620   5.855
10070POPC   GL157673   8.963  34.540   6.155
10070POPC   GL257674   8.892  34.519   6.155
10070POPC   C1A57675   8.986  34.553   6.455
10070POPC   D2A57676   8.991  34.541   6.755
10070POPC   C3A57677   8.944  34.564   7.055
10070POPC   C4A57678   8.984  34.567   7.355
10070POPC   C1B57679   8.705  34.600   6.455
10070POPC   C2B57680   8.680  34.521   6.755
10070POPC   C3B57681   8.720  34.543   7.055
10070POPC   C4B57682   8.737  34.589   7.355
10071POPC   NC357683  13.594   6.612   5.555
10071POPC   PO457684  13.627   6.674   5.855
10071POPC   GL157685  13.655   6.615   6.155
10071POPC   GL257686  13.537   6.635   6.155
10071POPC   C1A57687  13.656   6.646   6.455
10071POPC   D2A57688  13.644   6.598   6.755
10071POPC   C3A57689  13.612   6.652   7.055
10071POPC   C4A57690  13.619   6.619   7.355
10071POPC   C1B57691  13.402   6.565   6.455
10071POPC   C2B57692  13.443   6.542   6.755
10071POPC   C3B57693  13.408   6.531   7.055
10071POPC   C4B57694  13.440   6.597   7.355
10072POPC   NC357695  21.383  39.206   5.555
10072POPC   PO457696  21.401  39.194   5.855
10072POPC   GL157697  21.341  39.210   6.155
10072POPC   GL257698  21.373  39.078   6.155
10072POPC   C1A57699  21.407  39.278   6.455
10072POPC   D2A57700  21.377  39.265   6.755
10072POPC   C3A57701  21.424  39.208   7.055
10072POPC   C4A57702  21.409  39.264   7.355
10072POPC   C1B57703  21.382  38.955   6.455
10072POPC   C2B57704  21.450  38.964   6.755
10072POPC   C3B57705  21.433  38.957   7.055
10072POPC   C4B57706  21.454  39.019   7.355
10073POPC   NC357707   2.027  33.044   5.555
10073POPC   PO457708   1.952  32.997   5.855
10073POPC   GL157709   2.038  33.051   6.155
10073POPC   GL257710   1.903  32.984   6.155
10073POPC   C1A57711   2.033  33.065   6.455
10073POPC   D2A57712   2.030  33.024   6.755
10073POPC   C3A57713   2.002  33.000   7.055
10073POPC   C4A57714   1.943  32.990   7.355
10073POPC   C1B57715   1.732  33.025   6.455
10073POPC   C2B57716   1.702  33.000   6.755
10073POPC   C3B57717   1.717  32.968   7.055
10073POPC   C4B57718   1.769  33.017   7.355
10074POPC   NC357719  25.995  36.089   5.555
10074POPC   PO457720  26.020  36.145   5.855
10074POPC   GL157721  26.015  36.078   6.155
10074POPC   GL257722  26.173  36.219   6.155
10074POPC   C1A57723  26.030  36.121   6.455
10074POPC   D2A57724  26.083  36.163   6.755
10074POPC   C3A57725  26.073  36.123   7.055
10074POPC   C4A57726  26.057  36.154   7.355
10074POPC   C1B57727  26.297  36.182   6.455
10074POPC   C2B57728  26.312  36.225   6.755
10074POPC   C3B57729  26.261  36.201   7.055
10074POPC   C4B57730  26.255  36.174   7.355
10075POPC   NC357731  18.307  16.779   5.555
10075POPC   PO457732  18.240  16.712   5.855
10075POPC   GL157733  18.284  16.769   6.155
10075POPC   GL257734  18.131  16.723   6.155
10075POPC   C1A57735  18.332  16.775   6.455
10075POPC   D2A57736  18.288  16.758   6.755
10075POPC   C3A57737  18.238  16.694   7.055
10075POPC   C4A57738  18.274  16.705   7.355
10075POPC   C1B57739  18.071  16.747   6.455
10075POPC   C2B57740  18.064  16.708   6.755
10075POPC   C3B57741  18.052  16.723   7.055
10075POPC   C4B57742  18.075  16.700   7.355
10076POPC   NC357743  28.392   7.389   5.555
10076POPC   PO457744  28.384   7.383   5.855
10076POPC   GL157745  28.355   7.387   6.155
10076POPC   GL257746  28.282   7.388   6.155
10076POPC   C1A57747  28.398   7.456   6.455
10076POPC   D2A57748  28.324   7.374   6.755
10076POPC   C3A57749  28.351   7.375   7.055
10076POPC   C4A57750  28.385   7.402   7.355
10076POPC   C1B57751  28.176   7.319   6.455
10076POPC   C2B57752  28.183   7.337   6.755
10076POPC   C3B57753  28.192   7.264   7.055
10076POPC   C4B57754  28.127   7.297   7.355
10077POPC   NC357755   2.726  23.734   5.555
10077POPC   PO457756   2.768  23.679   5.855
10077POPC   GL157757   2.796  23.755   6.155
10077POPC   GL257758   2.821  23.797   6.155
10077POPC   C1A57759   2.754  23.760   6.455
10077POPC   D2A57760   2.751  23.731   6.755
10077POPC   C3A57761   2.794  23.719   7.055
10077POPC   C4A57762   2.758  23.730   7.355
10077POPC   C1B57763   2.939  23.904   6.455
10077POPC   C2B57764   2.915  23.917   6.755
10077POPC   C3B57765   2.923  23.955   7.055
10077POPC   C4B57766   2.926  23.917   7.355
10078POPC   NC357767  26.025   2.761   5.555
10078POPC   PO457768  26.028   2.767   5.855
10078POPC   GL157769  26.000   2.792   6.155
10078POPC   GL257770  26.160   2.813   6.155
10078POPC   C1A57771  26.057   2.806   6.455
10078POPC   D2A57772  25.999   2.736   6.755
10078POPC   C3A57773  26.065   2.751   7.055
10078POPC   C4A57774  26.057   2.767   7.355
10078POPC   C1B57775  26.249   2.830   6.455
10078POPC   C2B57776  26.302   2.874   6.755
10078POPC   C3B57777  26.318   2.879   7.055
10078POPC   C4B57778  26.281   2.849   7.355
10079POPC   NC357779  14.396   1.191   5.555
10079POPC   PO457780  14.425   1.192   5.855
10079POPC   GL157781  14.438   1.221   6.155
10079POPC   GL257782  14.280   1.283   6.155
10079POPC   C1A57783  14.374   1.208   6.455
10079POPC   D2A57784  14.368   1.217   6.755
10079POPC   C3A57785  14.373   1.235   7.055
10079POPC   C4A57786  14.453   1.207   7.355
10079POPC   C1B57787  14.240   1.397   6.455
10079POPC   C2B57788  14.214   1.365   6.755
10079POPC   C3B57789  14.246   1.361   7.055
10079POPC   C4B57790  14.217   1.332   7.355
10080POPC   NC357791  33.017  44.666   5.555
10080POPC   PO457792  33.021  44.662   5.855
10080POPC   GL157793  33.042  44.655   6.155
10080POPC   GL257794  33.096  44.549   6.155
10080POPC   C1A57795  33.060  44.624   6.455
10080POPC   D2A57796  33.006  44.637   6.755
10080POPC   C3A57797  33.045  44.674   7.055
10080POPC   C4A57798  33.027  44.709   7.355
10080POPC   C1B57799  33.192  44.493   6.455
10080POPC   C2B57800  33.175  44.539   6.755
10080POPC   C3B57801  33.205  44.465   7.055
10080POPC   C4B57802  33.185  44.463   7.355
10081POPC   NC357803   4.327  13.675   5.555
10081POPC   PO457804   4.297  13.673   5.855
10081POPC   GL157805   4.310  13.612   6.155
10081POPC   GL257806   4.234  13.715   6.155
10081POPC   C1A57807   4.301  13.587   6.455
10081POPC   D2A57808   4.283  13.631   6.755
10081POPC   C3A57809   4.326  13.597   7.055
10081POPC   C4A57810   4.359  13.638   7.355
10081POPC   C1B57811   4.118  13.712   6.455
10081POPC   C2B57812   4.062  13.716   6.755
10081POPC   C3B57813   4.074  13.698   7.055
10081POPC   C4B57814   4.118  13.676   7.355
10082POPC   NC357815  43.886  29.921   5.555
10082POPC   PO457816  43.921  29.897   5.855
10082POPC   GL157817  43.863  29.875   6.155
10082POPC   GL257818  43.947  30.014   6.155
10082POPC   C1A57819  43.885  29.890   6.455
10082POPC   D2A57820  43.838  29.962   6.755
10082POPC   C3A57821  43.931  29.886   7.055
10082POPC   C4A57822  43.906  29.892   7.355
10082POPC   C1B57823  43.993  30.146   6.455
10082POPC   C2B57824  43.951  30.188   6.755
10082POPC   C3B57825  44.005  30.147   7.055
10082POPC   C4B57826  44.011  30.120   7.355
10083POPC   NC357827  36.083  31.503   5.555
10083POPC   PO457828  36.129  31.492   5.855
10083POPC   GL157829  36.156  31.518   6.155
10083POPC   GL257830  36.108  31.408   6.155
10083POPC   C1A57831  36.081  31.486   6.455
10083POPC   D2A57832  36.112  31.483   6.755
10083POPC   C3A57833  36.145  31.498   7.055
10083POPC   C4A57834  36.131  31.455   7.355
10083POPC   C1B57835  36.024  31.261   6.455
10083POPC   C2B57836  35.982  31.217   6.755
10083POPC   C3B57837  35.992  31.241   7.055
10083POPC   C4B57838  36.060  31.208   7.355
10084POPC   NC357839  14.448  23.745   5.555
10084POPC   PO457840  14.433  23.762   5.855
10084POPC   GL157841  14.441  23.758   6.155
10084POPC   GL257842  14.409  23.790   6.155
10084POPC   C1A57843  14.451  23.736   6.455
10084POPC   D2A57844  14.438  23.736   6.755
10084POPC   C3A57845  14.381  23.754   7.055
10084POPC   C4A57846  14.416  23.744   7.355
10084POPC   C1B57847  14.474  23.971   6.455
10084POPC   C2B57848  14.395  23.963   6.755
10084POPC   C3B57849  14.410  23.995   7.055
10084POPC   C4B57850  14.389  23.989   7.355
10085POPC   NC357851  35.368  31.449   5.555
10085POPC   PO457852  35.337  31.521   5.855
10085POPC   GL157853  35.385  31.463   6.155
10085POPC   GL257854  35.453  31.439   6.155
10085POPC   C1A57855  35.386  31.433   6.455
10085POPC   D2A57856  35.380  31.450   6.755
10085POPC   C3A57857  35.330  31.451   7.055
10085POPC   C4A57858  35.312  31.467   7.355
10085POPC   C1B57859  35.596  31.464   6.455
10085POPC   C2B57860  35.611  31.434   6.755
10085POPC   C3B57861  35.582  31.460   7.055
10085POPC   C4B57862  35.554  31.495   7.355
10086POPC   NC357863   1.953   8.242   5.555
10086POPC   PO457864   1.959   8.230   5.855
10086POPC   GL157865   2.031   8.179   6.155
10086POPC   GL257866   1.883   8.309   6.155
10086POPC   C1A57867   1.972   8.157   6.455
10086POPC   D2A57868   2.005   8.182   6.755
10086POPC   C3A57869   1.999   8.163   7.055
10086POPC   C4A57870   1.976   8.241   7.355
10086POPC   C1B57871   1.899   8.408   6.455
10086POPC   C2B57872   1.896   8.406   6.755
10086POPC   C3B57873   1.832   8.403   7.055
10086POPC   C4B57874   1.853   8.406   7.355
10087POPC   NC357875   6.685   4.267   5.555
10087POPC   PO457876   6.663   4.303   5.855
10087POPC   GL157877   6.616   4.362   6.155
10087POPC   GL257878   6.761   4.356   6.155
10087POPC   C1A57879   6.618   4.280   6.455
10087POPC   D2A57880   6.654   4.356   6.755
10087POPC   C3A57881   6.636   4.279   7.055
10087POPC   C4A57882   6.635   4.352   7.355
10087POPC   C1B57883   6.887   4.316   6.455
10087POPC   C2B57884   6.909   4.304   6.755
10087POPC   C3B57885   6.894   4.322   7.055
10087POPC   C4B57886   6.900   4.381   7.355
10088POPC   NC357887  12.891  43.103   5.555
10088POPC   PO457888  12.845  43.129   5.855
10088POPC   GL157889  12.841  43.136   6.155
10088POPC   GL257890  12.950  43.172   6.155
10088POPC   C1A57891  12.851  43.114   6.455
10088POPC   D2A57892  12.858  43.158   6.755
10088POPC   C3A57893  12.874  43.122   7.055
10088POPC   C4A57894  12.811  43.091   7.355
10088POPC   C1B57895  13.080  43.277   6.455
10088POPC   C2B57896  13.044  43.307   6.755
10088POPC   C3B57897  13.014  43.287   7.055
10088POPC   C4B57898  13.018  43.322   7.355
10089POPC   NC357899  10.574  30.733   5.555
10089POPC   PO457900  10.543  30.689   5.855
10089POPC   GL157901  10.495  30.706   6.155
10089POPC   GL257902  10.535  30.854   6.155
10089POPC   C1A57903  10.485  30.666   6.455
10089POPC   D2A57904  10.522  30.695   6.755
10089POPC   C3A57905  10.520  30.708   7.055
10089POPC   C4A57906  10.487  30.730   7.355
10089POPC   C1B57907  10.466  30.958   6.455
10089POPC   C2B57908  10.473  30.886   6.755
10089POPC   C3B57909  10.497  30.979   7.055
10089POPC   C4B57910  10.408  30.956   7.355
10090POPC   NC357911  27.630   8.929   5.555
10090POPC   PO457912  27.606   8.933   5.855
10090POPC   GL157913  27.630   8.949   6.155
10090POPC   GL257914  27.637   9.093   6.155
10090POPC   C1A57915  27.626   8.950   6.455
10090POPC   D2A57916  27.601   8.995   6.755
10090POPC   C3A57917  27.564   8.982   7.055
10090POPC   C4A57918  27.569   8.986   7.355
10090POPC   C1B57919  27.705   9.262   6.455
10090POPC   C2B57920  27.683   9.193   6.755
10090POPC   C3B57921  27.642   9.204   7.055
10090POPC   C4B57922  27.703   9.184   7.355
10091POPC   NC357923  43.889  22.141   5.555
10091POPC   PO457924  43.840  22.212   5.855
10091POPC   GL157925  43.842  22.210   6.155
10091POPC   GL257926  43.915  22.285   6.155
10091POPC   C1A57927  43.934  22.186   6.455
10091POPC   D2A57928  43.897  22.157   6.755
10091POPC   C3A57929  43.871  22.208   7.055
10091POPC   C4A57930  43.898  22.178   7.355
10091POPC   C1B57931  43.988  22.415   6.455
10091POPC   C2B57932  43.971  22.429   6.755
10091POPC   C3B57933  43.902  22.446   7.055
10091POPC   C4B57934  43.921  22.455   7.355
10092POPC   NC357935  28.372  39.961   5.555
10092POPC   PO457936  28.323  40.018   5.855
10092POPC   GL157937  28.339  39.960   6.155
10092POPC   GL257938  28.482  40.018   6.155
10092POPC   C1A57939  28.374  39.986   6.455
10092POPC   D2A57940  28.365  40.038   6.755
10092POPC   C3A57941  28.357  40.020   7.055
10092POPC   C4A57942  28.382  40.056   7.355
10092POPC   C1B57943  28.623  39.962   6.455
10092POPC   C2B57944  28.637  39.941   6.755
10092POPC   C3B57945  28.585  39.956   7.055
10092POPC   C4B57946  28.596  39.999   7.355
10093POPC   NC357947  23.690  26.784   5.555
10093POPC   PO457948  23.751  26.822   5.855
10093POPC   GL157949  23.681  26.863   6.155
10093POPC   GL257950  23.575  26.855   6.155
10093POPC   C1A57951  23.746  26.829   6.455
10093POPC   D2A57952  23.749  26.775   6.755
10093POPC   C3A57953  23.698  26.848   7.055
10093POPC   C4A57954  23.740  26.857   7.355
10093POPC   C1B57955  23.500  26.886   6.455
10093POPC   C2B57956  23.488  26.888   6.755
10093POPC   C3B57957  23.447  26.879   7.055
10093POPC   C4B57958  23.509  26.862   7.355
10094POPC   NC357959  12.104  39.244   5.555
10094POPC   PO457960  12.097  39.272   5.855
10094POPC   GL157961  12.067  39.232   6.155
10094POPC   GL257962  12.203  39.223   6.155
10094POPC   C1A57963  12.036  39.247   6.455
10094POPC   D2A57964  12.061  39.190   6.755
10094POPC   C3A57965  12.047  39.193   7.055
10094POPC   C4A57966  12.058  39.188   7.355
10094POPC   C1B57967  12.341  39.348   6.455
10094POPC   C2B57968  12.297  39.320   6.755
10094POPC   C3B57969  12.316  39.298   7.055
10094POPC   C4B57970  12.332  39.348   7.355
10095POPC   NC357971  42.381   1.247   5.555
10095POPC   PO457972  42.310   1.218   5.855
10095POPC   GL157973  42.322   1.229   6.155
10095POPC   GL257974  42.257   1.137   6.155
10095POPC   C1A57975  42.337   1.205   6.455
10095POPC   D2A57976  42.376   1.180   6.755
10095POPC   C3A57977  42.309   1.253   7.055
10095POPC   C4A57978  42.292   1.213   7.355
10095POPC   C1B57979  42.239   1.024   6.455
10095POPC   C2B57980  42.241   0.973   6.755
10095POPC   C3B57981  42.234   0.999   7.055
10095POPC   C4B57982  42.242   0.956   7.355
10096POPC   NC357983  29.167   8.957   5.555
10096POPC   PO457984  29.103   8.926   5.855
10096POPC   GL157985  29.113   8.988   6.155
10096POPC   GL257986  29.259   8.850   6.155
10096POPC   C1A57987  29.098   8.979   6.455
10096POPC   D2A57988  29.116   8.931   6.755
10096POPC   C3A57989  29.154   8.993   7.055
10096POPC   C4A57990  29.172   8.925   7.355
10096POPC   C1B57991  29.350   8.759   6.455
10096POPC   C2B57992  29.299   8.739   6.755
10096POPC   C3B57993  29.311   8.787   7.055
10096POPC   C4B57994  29.266   8.746   7.355
10097POPC   NC357995  15.211  32.207   5.555
10097POPC   PO457996  15.172  32.288   5.855
10097POPC   GL157997  15.131  32.279   6.155
10097POPC   GL257998  15.126  32.123   6.155
10097POPC   C1A57999  15.177  32.213   6.455
10097POPC   D2A58000  15.216  32.256   6.755
10097POPC   C3A58001  15.220  32.294   7.055
10097POPC   C4A58002  15.162  32.212   7.355
10097POPC   C1B58003  15.130  32.025   6.455
10097POPC   C2B58004  15.179  32.038   6.755
10097POPC   C3B58005  15.147  32.008   7.055
10097POPC   C4B58006  15.215  31.973   7.355
10098POPC   NC358007  39.260  35.328   5.555
10098POPC   PO458008  39.260  35.323   5.855
10098POPC   GL158009  39.195  35.318   6.155
10098POPC   GL258010  39.228  35.243   6.155
10098POPC   C1A58011  39.205  35.313   6.455
10098POPC   D2A58012  39.184  35.366   6.755
10098POPC   C3A58013  39.186  35.345   7.055
10098POPC   C4A58014  39.203  35.325   7.355
10098POPC   C1B58015  39.352  35.155   6.455
10098POPC   C2B58016  39.322  35.088   6.755
10098POPC   C3B58017  39.316  35.145   7.055
10098POPC   C4B58018  39.279  35.168   7.355
10099POPC   NC358019  26.841  39.204   5.555
10099POPC   PO458020  26.826  39.230   5.855
10099POPC   GL158021  26.853  39.194   6.155
10099POPC   GL258022  26.916  39.201   6.155
10099POPC   C1A58023  26.854  39.212   6.455
10099POPC   D2A58024  26.859  39.266   6.755
10099POPC   C3A58025  26.814  39.191   7.055
10099POPC   C4A58026  26.821  39.224   7.355
10099POPC   C1B58027  27.030  39.106   6.455
10099POPC   C2B58028  27.019  39.151   6.755
10099POPC   C3B58029  27.072  39.178   7.055
10099POPC   C4B58030  27.067  39.157   7.355
10100POPC   NC358031  40.045  44.699   5.555
10100POPC   PO458032  39.977  44.631   5.855
10100POPC   GL158033  40.004  44.644   6.155
10100POPC   GL258034  40.111  44.561   6.155
10100POPC   C1A58035  39.975  44.696   6.455
10100POPC   D2A58036  40.050  44.674   6.755
10100POPC   C3A58037  40.033  44.697   7.055
10100POPC   C4A58038  40.049  44.668   7.355
10100POPC   C1B58039  40.166  44.439   6.455
10100POPC   C2B58040  40.185  44.438   6.755
10100POPC   C3B58041  40.216  44.481   7.055
10100POPC   C4B58042  40.132  44.492   7.355
10101POPC   NC358043  10.571  36.144   5.555
10101POPC   PO458044  10.493  36.153   5.855
10101POPC   GL158045  10.477  36.128   6.155
10101POPC   GL258046  10.594  36.025   6.155
10101POPC   C1A58047  10.545  36.170   6.455
10101POPC   D2A58048  10.527  36.143   6.755
10101POPC   C3A58049  10.573  36.152   7.055
10101POPC   C4A58050  10.541  36.080   7.355
10101POPC   C1B58051  10.692  35.926   6.455
10101POPC   C2B58052  10.715  35.911   6.755
10101POPC   C3B58053  10.748  35.963   7.055
10101POPC   C4B58054  10.756  35.985   7.355
10102POPC   NC358055  24.514   6.600   5.555
10102POPC   PO458056  24.458   6.673   5.855
10102POPC   GL158057  24.533   6.656   6.155
10102POPC   GL258058  24.401   6.608   6.155
10102POPC   C1A58059  24.514   6.682   6.455
10102POPC   D2A58060  24.482   6.602   6.755
10102POPC   C3A58061  24.508   6.637   7.055
10102POPC   C4A58062  24.458   6.642   7.355
10102POPC   C1B58063  24.277   6.579   6.455
10102POPC   C2B58064  24.243   6.618   6.755
10102POPC   C3B58065  24.280   6.526   7.055
10102POPC   C4B58066  24.223   6.610   7.355
10103POPC   NC358067  17.485  26.834   5.555
10103POPC   PO458068  17.496  26.772   5.855
10103POPC   GL158069  17.520  26.853   6.155
10103POPC   GL258070  17.632  26.725   6.155
10103POPC   C1A58071  17.526  26.835   6.455
10103POPC   D2A58072  17.540  26.816   6.755
10103POPC   C3A58073  17.487  26.773   7.055
10103POPC   C4A58074  17.556  26.858   7.355
10103POPC   C1B58075  17.618  26.658   6.455
10103POPC   C2B58076  17.668  26.606   6.755
10103POPC   C3B58077  17.703  26.575   7.055
10103POPC   C4B58078  17.684  26.617   7.355
10104POPC   NC358079   6.609  43.082   5.555
10104POPC   PO458080   6.669  43.101   5.855
10104POPC   GL158081   6.597  43.124   6.155
10104POPC   GL258082   6.631  43.240   6.155
10104POPC   C1A58083   6.641  43.074   6.455
10104POPC   D2A58084   6.619  43.092   6.755
10104POPC   C3A58085   6.676  43.112   7.055
10104POPC   C4A58086   6.613  43.145   7.355
10104POPC   C1B58087   6.524  43.368   6.455
10104POPC   C2B58088   6.530  43.340   6.755
10104POPC   C3B58089   6.519  43.357   7.055
10104POPC   C4B58090   6.507  43.356   7.355
10105POPC   NC358091  15.213  25.255   5.555
10105POPC   PO458092  15.184  25.238   5.855
10105POPC   GL158093  15.136  25.308   6.155
10105POPC   GL258094  15.091  25.221   6.155
10105POPC   C1A58095  15.137  25.220   6.455
10105POPC   D2A58096  15.165  25.291   6.755
10105POPC   C3A58097  15.192  25.235   7.055
10105POPC   C4A58098  15.190  25.236   7.355
10105POPC   C1B58099  15.031  25.035   6.455
10105POPC   C2B58100  15.043  25.119   6.755
10105POPC   C3B58101  15.010  25.119   7.055
10105POPC   C4B58102  15.052  25.061   7.355
10106POPC   NC358103  25.999  14.440   5.555
10106POPC   PO458104  26.046  14.372   5.855
10106POPC   GL158105  26.052  14.409   6.155
10106POPC   GL258106  26.044  14.548   6.155
10106POPC   C1A58107  26.010  14.418   6.455
10106POPC   D2A58108  26.060  14.404   6.755
10106POPC   C3A58109  26.030  14.430   7.055
10106POPC   C4A58110  26.011  14.451   7.355
10106POPC   C1B58111  26.039  14.659   6.455
10106POPC   C2B58112  26.038  14.665   6.755
10106POPC   C3B58113  26.055  14.623   7.055
10106POPC   C4B58114  26.108  14.657   7.355
10107POPC   NC358115  39.209   4.299   5.555
10107POPC   PO458116  39.280   4.303   5.855
10107POPC   GL158117  39.186   4.275   6.155
10107POPC   GL258118  39.322   4.403   6.155
10107POPC   C1A58119  39.258   4.352   6.455
10107POPC   D2A58120  39.214   4.310   6.755
10107POPC   C3A58121  39.242   4.280   7.055
10107POPC   C4A58122  39.203   4.342   7.355
10107POPC   C1B58123  39.368   4.480   6.455
10107POPC   C2B58124  39.379   4.532   6.755
10107POPC   C3B58125  39.402   4.449   7.055
10107POPC   C4B58126  39.375   4.448   7.355
10108POPC   NC358127   9.738  36.106   5.555
10108POPC   PO458128   9.761  36.087   5.855
10108POPC   GL158129   9.769  36.100   6.155
10108POPC   GL258130   9.676  36.192   6.155
10108POPC   C1A58131   9.779  36.173   6.455
10108POPC   D2A58132   9.738  36.161   6.755
10108POPC   C3A58133   9.723  36.116   7.055
10108POPC   C4A58134   9.742  36.088   7.355
10108POPC   C1B58135   9.597  36.286   6.455
10108POPC   C2B58136   9.575  36.353   6.755
10108POPC   C3B58137   9.560  36.351   7.055
10108POPC   C4B58138   9.586  36.303   7.355
10109POPC   NC358139  29.932  32.260   5.555
10109POPC   PO458140  29.873  32.272   5.855
10109POPC   GL158141  29.889  32.283   6.155
10109POPC   GL258142  29.985  32.340   6.155
10109POPC   C1A58143  29.889  32.262   6.455
10109POPC   D2A58144  29.910  32.204   6.755
10109POPC   C3A58145  29.916  32.247   7.055
10109POPC   C4A58146  29.970  32.282   7.355
10109POPC   C1B58147  29.996  32.527   6.455
10109POPC   C2B58148  30.001  32.535   6.755
10109POPC   C3B58149  30.003  32.508   7.055
10109POPC   C4B58150  29.997  32.506   7.355
10110POPC   NC358151  12.068  12.896   5.555
10110POPC   PO458152  12.086  12.849   5.855
10110POPC   GL158153  12.093  12.849   6.155
10110POPC   GL258154  12.051  12.771   6.155
10110POPC   C1A58155  12.058  12.886   6.455
10110POPC   D2A58156  12.074  12.809   6.755
10110POPC   C3A58157  12.046  12.813   7.055
10110POPC   C4A58158  12.085  12.803   7.355
10110POPC   C1B58159  12.135  12.555   6.455
10110POPC   C2B58160  12.105  12.648   6.755
10110POPC   C3B58161  12.107  12.588   7.055
10110POPC   C4B58162  12.086  12.610   7.355
10111POPC   NC358163  26.839  29.883   5.555
10111POPC   PO458164  26.855  29.914   5.855
10111POPC   GL158165  26.824  29.927   6.155
10111POPC   GL258166  26.926  29.999   6.155
10111POPC   C1A58167  26.801  29.880   6.455
10111POPC   D2A58168  26.801  29.916   6.755
10111POPC   C3A58169  26.777  29.961   7.055
10111POPC   C4A58170  26.799  29.945   7.355
10111POPC   C1B58171  26.980  30.126   6.455
10111POPC   C2B58172  26.963  30.060   6.755
10111POPC   C3B58173  26.967  30.136   7.055
10111POPC   C4B58174  27.050  30.130   7.355
10112POPC   NC358175   8.228  29.155   5.555
10112POPC   PO458176   8.206  29.138   5.855
10112POPC   GL158177   8.166  29.101   6.155
10112POPC   GL258178   8.124  29.255   6.155
10112POPC   C1A58179   8.219  29.098   6.455
10112POPC   D2A58180   8.153  29.158   6.755
10112POPC   C3A58181   8.240  29.126   7.055
10112POPC   C4A58182   8.168  29.147   7.355
10112POPC   C1B58183   8.041  29.373   6.455
10112POPC   C2B58184   8.048  29.387   6.755
10112POPC   C3B58185   8.050  29.333   7.055
10112POPC   C4B58186   8.074  29.377   7.355
10113POPC   NC358187   8.175  39.202   5.555
10113POPC   PO458188   8.201  39.249   5.855
10113POPC   GL158189   8.215  39.236   6.155
10113POPC   GL258190   8.290  39.377   6.155
10113POPC   C1A58191   8.238  39.188   6.455
10113POPC   D2A58192   8.160  39.186   6.755
10113POPC   C3A58193   8.180  39.214   7.055
10113POPC   C4A58194   8.165  39.204   7.355
10113POPC   C1B58195   8.339  39.412   6.455
10113POPC   C2B58196   8.326  39.490   6.755
10113POPC   C3B58197   8.300  39.409   7.055
10113POPC   C4B58198   8.328  39.404   7.355
10114POPC   NC358199  30.738  42.327   5.555
10114POPC   PO458200  30.681  42.295   5.855
10114POPC   GL158201  30.712  42.346   6.155
10114POPC   GL258202  30.623  42.233   6.155
10114POPC   C1A58203  30.672  42.289   6.455
10114POPC   D2A58204  30.655  42.315   6.755
10114POPC   C3A58205  30.701  42.367   7.055
10114POPC   C4A58206  30.694  42.352   7.355
10114POPC   C1B58207  30.511  42.125   6.455
10114POPC   C2B58208  30.516  42.167   6.755
10114POPC   C3B58209  30.533  42.167   7.055
10114POPC   C4B58210  30.563  42.134   7.355
10115POPC   NC358211  38.448  22.906   5.555
10115POPC   PO458212  38.449  22.965   5.855
10115POPC   GL158213  38.474  22.919   6.155
10115POPC   GL258214  38.293  22.966   6.155
10115POPC   C1A58215  38.448  22.934   6.455
10115POPC   D2A58216  38.408  22.954   6.755
10115POPC   C3A58217  38.453  22.941   7.055
10115POPC   C4A58218  38.440  22.988   7.355
10115POPC   C1B58219  38.223  23.045   6.455
10115POPC   C2B58220  38.229  23.047   6.755
10115POPC   C3B58221  38.179  22.983   7.055
10115POPC   C4B58222  38.207  22.963   7.355
10116POPC   NC358223  28.383  10.540   5.555
10116POPC   PO458224  28.346  10.489   5.855
10116POPC   GL158225  28.407  10.504   6.155
10116POPC   GL258226  28.314  10.464   6.155
10116POPC   C1A58227  28.331  10.547   6.455
10116POPC   D2A58228  28.361  10.529   6.755
10116POPC   C3A58229  28.419  10.480   7.055
10116POPC   C4A58230  28.370  10.516   7.355
10116POPC   C1B58231  28.119  10.410   6.455
10116POPC   C2B58232  28.183  10.420   6.755
10116POPC   C3B58233  28.204  10.328   7.055
10116POPC   C4B58234  28.118  10.379   7.355
10117POPC   NC358235  38.483  13.633   5.555
10117POPC   PO458236  38.445  13.598   5.855
10117POPC   GL158237  38.484  13.621   6.155
10117POPC   GL258238  38.545  13.720   6.155
10117POPC   C1A58239  38.407  13.668   6.455
10117POPC   D2A58240  38.424  13.628   6.755
10117POPC   C3A58241  38.419  13.589   7.055
10117POPC   C4A58242  38.460  13.669   7.355
10117POPC   C1B58243  38.644  13.794   6.455
10117POPC   C2B58244  38.616  13.792   6.755
10117POPC   C3B58245  38.647  13.764   7.055
10117POPC   C4B58246  38.616  13.847   7.355
10118POPC   NC358247  27.587  36.155   5.555
10118POPC   PO458248  27.632  36.102   5.855
10118POPC   GL158249  27.616  36.149   6.155
10118POPC   GL258250  27.618  36.061   6.155
10118POPC   C1A58251  27.572  36.166   6.455
10118POPC   D2A58252  27.593  36.154   6.755
10118POPC   C3A58253  27.630  36.112   7.055
10118POPC   C4A58254  27.595  36.159   7.355
10118POPC   C1B58255  27.770  35.877   6.455
10118POPC   C2B58256  27.743  35.968   6.755
10118POPC   C3B58257  27.737  35.913   7.055
10118POPC   C4B58258  27.707  35.907   7.355
10119POPC   NC358259  43.155  29.899   5.555
10119POPC   PO458260  43.104  29.965   5.855
10119POPC   GL158261  43.127  29.964   6.155
10119POPC   GL258262  43.175  29.987   6.155
10119POPC   C1A58263  43.103  29.963   6.455
10119POPC   D2A58264  43.069  29.930   6.755
10119POPC   C3A58265  43.150  29.957   7.055
10119POPC   C4A58266  43.147  29.905   7.355
10119POPC   C1B58267  43.340  30.062   6.455
10119POPC   C2B58268  43.289  30.082   6.755
10119POPC   C3B58269  43.278  30.051   7.055
10119POPC   C4B58270  43.267  30.133   7.355
10120POPC   NC358271   7.411  22.939   5.555
10120POPC   PO458272   7.418  22.982   5.855
10120POPC   GL158273   7.403  22.903   6.155
10120POPC   GL258274   7.515  22.917   6.155
10120POPC   C1A58275   7.448  22.932   6.455
10120POPC   D2A58276   7.371  22.890   6.755
10120POPC   C3A58277   7.439  22.941   7.055
10120POPC   C4A58278   7.459  22.941   7.355
10120POPC   C1B58279   7.663  22.788   6.455
10120POPC   C2B58280   7.628  22.775   6.755
10120POPC   C3B58281   7.651  22.831   7.055
10120POPC   C4B58282   7.618  22.824   7.355
10121POPC   NC358283  19.855  12.816   5.555
10121POPC   PO458284  19.881  12.839   5.855
10121POPC   GL158285  19.808  12.818   6.155
10121POPC   GL258286  19.670  12.872   6.155
10121POPC   C1A58287  19.816  12.902   6.455
10121POPC   D2A58288  19.786  12.882   6.755
10121POPC   C3A58289  19.846  12.836   7.055
10121POPC   C4A58290  19.830  12.832   7.355
10121POPC   C1B58291  19.567  12.926   6.455
10121POPC   C2B58292  19.618  12.871   6.755
10121POPC   C3B58293  19.603  12.882   7.055
10121POPC   C4B58294  19.577  12.964   7.355
10122POPC   NC358295  41.607  15.979   5.555
10122POPC   PO458296  41.578  15.981   5.855
10122POPC   GL158297  41.518  15.977   6.155
10122POPC   GL258298  41.692  15.924   6.155
10122POPC   C1A58299  41.606  15.924   6.455
10122POPC   D2A58300  41.554  15.924   6.755
10122POPC   C3A58301  41.594  15.941   7.055
10122POPC   C4A58302  41.541  15.911   7.355
10122POPC   C1B58303  41.788  15.896   6.455
10122POPC   C2B58304  41.761  15.883   6.755
10122POPC   C3B58305  41.840  15.874   7.055
10122POPC   C4B58306  41.752  15.937   7.355
10123POPC   NC358307   6.669  29.876   5.555
10123POPC   PO458308   6.649  29.921   5.855
10123POPC   GL158309   6.691  29.965   6.155
10123POPC   GL258310   6.605  29.778   6.155
10123POPC   C1A58311   6.611  29.955   6.455
10123POPC   D2A58312   6.663  29.954   6.755
10123POPC   C3A58313   6.691  29.896   7.055
10123POPC   C4A58314   6.625  29.969   7.355
10123POPC   C1B58315   6.601  29.705   6.455
10123POPC   C2B58316   6.578  29.704   6.755
10123POPC   C3B58317   6.564  29.663   7.055
10123POPC   C4B58318   6.623  29.707   7.355
10124POPC   NC358319   8.931  22.115   5.555
10124POPC   PO458320   8.963  22.156   5.855
10124POPC   GL158321   8.971  22.143   6.155
10124POPC   GL258322   8.982  22.248   6.155
10124POPC   C1A58323   9.019  22.139   6.455
10124POPC   D2A58324   8.954  22.176   6.755
10124POPC   C3A58325   8.937  22.113   7.055
10124POPC   C4A58326   8.947  22.149   7.355
10124POPC   C1B58327   8.963  22.361   6.455
10124POPC   C2B58328   9.040  22.375   6.755
10124POPC   C3B58329   8.992  22.438   7.055
10124POPC   C4B58330   9.004  22.383   7.355
10125POPC   NC358331  29.163   9.791   5.555
10125POPC   PO458332  29.121   9.733   5.855
10125POPC   GL158333  29.183   9.730   6.155
10125POPC   GL258334  29.178   9.870   6.155
10125POPC   C1A58335  29.179   9.734   6.455
10125POPC   D2A58336  29.133   9.737   6.755
10125POPC   C3A58337  29.157   9.762   7.055
10125POPC   C4A58338  29.096   9.717   7.355
10125POPC   C1B58339  29.213   9.959   6.455
10125POPC   C2B58340  29.256  10.021   6.755
10125POPC   C3B58341  29.214   9.933   7.055
10125POPC   C4B58342  29.260   9.985   7.355
10126POPC   NC358343  28.418  23.693   5.555
10126POPC   PO458344  28.352  23.738   5.855
10126POPC   GL158345  28.331  23.679   6.155
10126POPC   GL258346  28.531  23.782   6.155
10126POPC   C1A58347  28.372  23.725   6.455
10126POPC   D2A58348  28.322  23.741   6.755
10126POPC   C3A58349  28.329  23.726   7.055
10126POPC   C4A58350  28.375  23.692   7.355
10126POPC   C1B58351  28.658  23.734   6.455
10126POPC   C2B58352  28.637  23.750   6.755
10126POPC   C3B58353  28.570  23.767   7.055
10126POPC   C4B58354  28.582  23.801   7.355
10127POPC   NC358355  15.161  40.045   5.555
10127POPC   PO458356  15.138  40.043   5.855
10127POPC   GL158357  15.222  40.036   6.155
10127POPC   GL258358  15.194  39.887   6.155
10127POPC   C1A58359  15.175  40.028   6.455
10127POPC   D2A58360  15.221  40.029   6.755
10127POPC   C3A58361  15.145  40.021   7.055
10127POPC   C4A58362  15.211  39.963   7.355
10127POPC   C1B58363  15.128  39.779   6.455
10127POPC   C2B58364  15.164  39.729   6.755
10127POPC   C3B58365  15.187  39.724   7.055
10127POPC   C4B58366  15.137  39.749   7.355
10128POPC   NC358367  39.184  22.114   5.555
10128POPC   PO458368  39.219  22.138   5.855
10128POPC   GL158369  39.188  22.193   6.155
10128POPC   GL258370  39.131  22.199   6.155
10128POPC   C1A58371  39.246  22.160   6.455
10128POPC   D2A58372  39.265  22.118   6.755
10128POPC   C3A58373  39.191  22.168   7.055
10128POPC   C4A58374  39.187  22.124   7.355
10128POPC   C1B58375  39.051  22.278   6.455
10128POPC   C2B58376  39.037  22.273   6.755
10128POPC   C3B58377  38.993  22.282   7.055
10128POPC   C4B58378  39.033  22.314   7.355
10129POPC   NC358379  15.221  42.353   5.555
10129POPC   PO458380  15.215  42.363   5.855
10129POPC   GL158381  15.193  42.297   6.155
10129POPC   GL258382  15.049  42.202   6.155
10129POPC   C1A58383  15.218  42.363   6.455
10129POPC   D2A58384  15.200  42.309   6.755
10129POPC   C3A58385  15.141  42.364   7.055
10129POPC   C4A58386  15.180  42.312   7.355
10129POPC   C1B58387  14.966  42.142   6.455
10129POPC   C2B58388  14.962  42.135   6.755
10129POPC   C3B58389  15.014  42.158   7.055
10129POPC   C4B58390  15.025  42.192   7.355
10130POPC   NC358391  12.089   6.625   5.555
10130POPC   PO458392  12.051   6.684   5.855
10130POPC   GL158393  12.120   6.677   6.155
10130POPC   GL258394  12.021   6.557   6.155
10130POPC   C1A58395  12.062   6.655   6.455
10130POPC   D2A58396  12.028   6.658   6.755
10130POPC   C3A58397  12.043   6.659   7.055
10130POPC   C4A58398  12.032   6.687   7.355
10130POPC   C1B58399  11.934   6.428   6.455
10130POPC   C2B58400  11.967   6.428   6.755
10130POPC   C3B58401  11.928   6.465   7.055
10130POPC   C4B58402  11.888   6.410   7.355
10131POPC   NC358403  36.935  38.453   5.555
10131POPC   PO458404  36.876  38.460   5.855
10131POPC   GL158405  36.863  38.504   6.155
10131POPC   GL258406  37.015  38.423   6.155
10131POPC   C1A58407  36.892  38.475   6.455
10131POPC   D2A58408  36.915  38.487   6.755
10131POPC   C3A58409  36.900  38.454   7.055
10131POPC   C4A58410  36.902  38.496   7.355
10131POPC   C1B58411  37.176  38.533   6.455
10131POPC   C2B58412  37.152  38.511   6.755
10131POPC   C3B58413  37.108  38.513   7.055
10131POPC   C4B58414  37.149  38.463   7.355
10132POPC   NC358415  33.753  33.016   5.555
10132POPC   PO458416  33.804  33.048   5.855
10132POPC   GL158417  33.837  33.031   6.155
10132POPC   GL258418  33.886  33.104   6.155
10132POPC   C1A58419  33.840  32.987   6.455
10132POPC   D2A58420  33.822  32.998   6.755
10132POPC   C3A58421  33.820  33.047   7.055
10132POPC   C4A58422  33.753  33.074   7.355
10132POPC   C1B58423  33.876  33.247   6.455
10132POPC   C2B58424  33.849  33.272   6.755
10132POPC   C3B58425  33.853  33.254   7.055
10132POPC   C4B58426  33.922  33.301   7.355
10133POPC   NC358427  21.361  22.142   5.555
10133POPC   PO458428  21.398  22.211   5.855
10133POPC   GL158429  21.346  22.149   6.155
10133POPC   GL258430  21.299  22.148   6.155
10133POPC   C1A58431  21.433  22.185   6.455
10133POPC   D2A58432  21.400  22.135   6.755
10133POPC   C3A58433  21.367  22.183   7.055
10133POPC   C4A58434  21.431  22.181   7.355
10133POPC   C1B58435  21.152  22.132   6.455
10133POPC   C2B58436  21.164  22.052   6.755
10133POPC   C3B58437  21.151  22.110   7.055
10133POPC   C4B58438  21.173  22.113   7.355
10134POPC   NC358439   0.483  43.888   5.555
10134POPC   PO458440   0.458  43.871   5.855
10134POPC   GL158441   0.428  43.930   6.155
10134POPC   GL258442   0.350  43.955   6.155
10134POPC   C1A58443   0.455  43.842   6.455
10134POPC   D2A58444   0.456  43.850   6.755
10134POPC   C3A58445   0.428  43.927   7.055
10134POPC   C4A58446   0.436  43.857   7.355
10134POPC   C1B58447   0.240  44.035   6.455
10134POPC   C2B58448   0.268  44.099   6.755
10134POPC   C3B58449   0.234  44.010   7.055
10134POPC   C4B58450   0.233  44.075   7.355
10135POPC   NC358451   5.873  42.382   5.555
10135POPC   PO458452   5.849  42.287   5.855
10135POPC   GL158453   5.885  42.340   6.155
10135POPC   GL258454   5.887  42.180   6.155
10135POPC   C1A58455   5.882  42.370   6.455
10135POPC   D2A58456   5.865  42.348   6.755
10135POPC   C3A58457   5.822  42.323   7.055
10135POPC   C4A58458   5.915  42.293   7.355
10135POPC   C1B58459   5.910  42.092   6.455
10135POPC   C2B58460   5.912  42.118   6.755
10135POPC   C3B58461   5.884  42.058   7.055
10135POPC   C4B58462   5.862  42.128   7.355
10136POPC   NC358463  38.448  41.566   5.555
10136POPC   PO458464  38.483  41.603   5.855
10136POPC   GL158465  38.477  41.572   6.155
10136POPC   GL258466  38.526  41.724   6.155
10136POPC   C1A58467  38.416  41.533   6.455
10136POPC   D2A58468  38.414  41.514   6.755
10136POPC   C3A58469  38.431  41.525   7.055
10136POPC   C4A58470  38.486  41.588   7.355
10136POPC   C1B58471  38.541  41.817   6.455
10136POPC   C2B58472  38.520  41.822   6.755
10136POPC   C3B58473  38.477  41.829   7.055
10136POPC   C4B58474  38.542  41.800   7.355
10137POPC   NC358475  26.016  28.402   5.555
10137POPC   PO458476  26.050  28.397   5.855
10137POPC   GL158477  26.065  28.408   6.155
10137POPC   GL258478  25.943  28.347   6.155
10137POPC   C1A58479  26.027  28.354   6.455
10137POPC   D2A58480  26.052  28.381   6.755
10137POPC   C3A58481  25.998  28.388   7.055
10137POPC   C4A58482  26.016  28.387   7.355
10137POPC   C1B58483  25.811  28.381   6.455
10137POPC   C2B58484  25.832  28.442   6.755
10137POPC   C3B58485  25.814  28.465   7.055
10137POPC   C4B58486  25.804  28.390   7.355
10138POPC   NC358487  18.327   5.846   5.555
10138POPC   PO458488  18.308   5.830   5.855
10138POPC   GL158489  18.305   5.831   6.155
10138POPC   GL258490  18.205   5.822   6.155
10138POPC   C1A58491  18.325   5.889   6.455
10138POPC   D2A58492  18.297   5.902   6.755
10138POPC   C3A58493  18.316   5.888   7.055
10138POPC   C4A58494  18.245   5.847   7.355
10138POPC   C1B58495  18.071   5.797   6.455
10138POPC   C2B58496  18.074   5.755   6.755
10138POPC   C3B58497  18.041   5.775   7.055
10138POPC   C4B58498  18.083   5.743   7.355
10139POPC   NC358499  37.724  30.657   5.555
10139POPC   PO458500  37.692  30.719   5.855
10139POPC   GL158501  37.664  30.661   6.155
10139POPC   GL258502  37.578  30.672   6.155
10139POPC   C1A58503  37.715  30.660   6.455
10139POPC   D2A58504  37.719  30.741   6.755
10139POPC   C3A58505  37.672  30.737   7.055
10139POPC   C4A58506  37.729  30.735   7.355
10139POPC   C1B58507  37.403  30.588   6.455
10139POPC   C2B58508  37.474  30.655   6.755
10139POPC   C3B58509  37.415  30.623   7.055
10139POPC   C4B58510  37.393  30.621   7.355
10140POPC   NC358511  36.085   1.981   5.555
10140POPC   PO458512  36.156   2.006   5.855
10140POPC   GL158513  36.117   1.946   6.155
10140POPC   GL258514  36.217   1.878   6.155
10140POPC   C1A58515  36.142   2.012   6.455
10140POPC   D2A58516  36.142   1.991   6.755
10140POPC   C3A58517  36.144   2.025   7.055
10140POPC   C4A58518  36.110   1.997   7.355
10140POPC   C1B58519  36.297   1.835   6.455
10140POPC   C2B58520  36.367   1.838   6.755
10140POPC   C3B58521  36.345   1.797   7.055
10140POPC   C4B58522  36.369   1.866   7.355
10141POPC   NC358523  14.414   4.286   5.555
10141POPC   PO458524  14.423   4.280   5.855
10141POPC   GL158525  14.385   4.304   6.155
10141POPC   GL258526  14.451   4.483   6.155
10141POPC   C1A58527  14.398   4.300   6.455
10141POPC   D2A58528  14.432   4.303   6.755
10141POPC   C3A58529  14.369   4.353   7.055
10141POPC   C4A58530  14.420   4.350   7.355
10141POPC   C1B58531  14.494   4.564   6.455
10141POPC   C2B58532  14.419   4.586   6.755
10141POPC   C3B58533  14.502   4.548   7.055
10141POPC   C4B58534  14.456   4.593   7.355
10142POPC   NC358535  14.386  17.529   5.555
10142POPC   PO458536  14.437  17.476   5.855
10142POPC   GL158537  14.388  17.528   6.155
10142POPC   GL258538  14.356  17.389   6.155
10142POPC   C1A58539  14.380  17.530   6.455
10142POPC   D2A58540  14.364  17.532   6.755
10142POPC   C3A58541  14.366  17.465   7.055
10142POPC   C4A58542  14.419  17.550   7.355
10142POPC   C1B58543  14.313  17.257   6.455
10142POPC   C2B58544  14.328  17.309   6.755
10142POPC   C3B58545  14.276  17.305   7.055
10142POPC   C4B58546  14.323  17.279   7.355
10143POPC   NC358547  43.909   8.987   5.555
10143POPC   PO458548  43.847   8.946   5.855
10143POPC   GL158549  43.838   8.982   6.155
10143POPC   GL258550  43.995   8.988   6.155
10143POPC   C1A58551  43.886   9.004   6.455
10143POPC   D2A58552  43.841   8.968   6.755
10143POPC   C3A58553  43.884   8.947   7.055
10143POPC   C4A58554  43.844   9.007   7.355
10143POPC   C1B58555  44.155   8.938   6.455
10143POPC   C2B58556  44.130   8.902   6.755
10143POPC   C3B58557  44.164   8.900   7.055
10143POPC   C4B58558  44.179   8.977   7.355
10144POPC   NC358559  25.220  24.442   5.555
10144POPC   PO458560  25.275  24.445   5.855
10144POPC   GL158561  25.271  24.506   6.155
10144POPC   GL258562  25.157  24.556   6.155
10144POPC   C1A58563  25.257  24.515   6.455
10144POPC   D2A58564  25.282  24.486   6.755
10144POPC   C3A58565  25.291  24.443   7.055
10144POPC   C4A58566  25.275  24.532   7.355
10144POPC   C1B58567  25.168  24.711   6.455
10144POPC   C2B58568  25.093  24.723   6.755
10144POPC   C3B58569  25.179  24.654   7.055
10144POPC   C4B58570  25.150  24.699   7.355
10145POPC   NC358571   1.941  43.114   5.555
10145POPC   PO458572   2.021  43.150   5.855
10145POPC   GL158573   1.965  43.133   6.155
10145POPC   GL258574   2.138  43.048   6.155
10145POPC   C1A58575   2.017  43.070   6.455
10145POPC   D2A58576   2.019  43.084   6.755
10145POPC   C3A58577   1.943  43.145   7.055
10145POPC   C4A58578   2.027  43.153   7.355
10145POPC   C1B58579   2.244  42.958   6.455
10145POPC   C2B58580   2.199  42.950   6.755
10145POPC   C3B58581   2.182  43.029   7.055
10145POPC   C4B58582   2.239  43.016   7.355
10146POPC   NC358583  39.974   1.947   5.555
10146POPC   PO458584  39.978   2.024   5.855
10146POPC   GL158585  40.015   2.007   6.155
10146POPC   GL258586  39.920   2.100   6.155
10146POPC   C1A58587  39.988   2.036   6.455
10146POPC   D2A58588  40.027   1.977   6.755
10146POPC   C3A58589  39.980   2.028   7.055
10146POPC   C4A58590  40.046   2.004   7.355
10146POPC   C1B58591  39.863   2.127   6.455
10146POPC   C2B58592  39.814   2.215   6.755
10146POPC   C3B58593  39.823   2.141   7.055
10146POPC   C4B58594  39.849   2.127   7.355
10147POPC   NC358595  15.219  22.175   5.555
10147POPC   PO458596  15.130  22.209   5.855
10147POPC   GL158597  15.142  22.115   6.155
10147POPC   GL258598  15.043  22.215   6.155
10147POPC   C1A58599  15.216  22.163   6.455
10147POPC   D2A58600  15.131  22.177   6.755
10147POPC   C3A58601  15.170  22.152   7.055
10147POPC   C4A58602  15.192  22.176   7.355
10147POPC   C1B58603  14.954  22.371   6.455
10147POPC   C2B58604  14.947  22.343   6.755
10147POPC   C3B58605  14.971  22.350   7.055
10147POPC   C4B58606  15.038  22.324   7.355
10148POPC   NC358607   5.079  12.839   5.555
10148POPC   PO458608   5.046  12.864   5.855
10148POPC   GL158609   5.110  12.885   6.155
10148POPC   GL258610   5.011  12.905   6.155
10148POPC   C1A58611   5.060  12.865   6.455
10148POPC   D2A58612   5.066  12.842   6.755
10148POPC   C3A58613   5.137  12.899   7.055
10148POPC   C4A58614   5.081  12.812   7.355
10148POPC   C1B58615   4.948  13.068   6.455
10148POPC   C2B58616   4.943  12.989   6.755
10148POPC   C3B58617   4.935  13.081   7.055
10148POPC   C4B58618   4.946  13.073   7.355
10149POPC   NC358619  18.285  11.320   5.555
10149POPC   PO458620  18.326  11.281   5.855
10149POPC   GL158621  18.322  11.289   6.155
10149POPC   GL258622  18.129  11.292   6.155
10149POPC   C1A58623  18.286  11.342   6.455
10149POPC   D2A58624  18.259  11.340   6.755
10149POPC   C3A58625  18.302  11.289   7.055
10149POPC   C4A58626  18.322  11.260   7.355
10149POPC   C1B58627  18.064  11.311   6.455
10149POPC   C2B58628  18.005  11.263   6.755
10149POPC   C3B58629  18.016  11.310   7.055
10149POPC   C4B58630  17.983  11.329   7.355
10150POPC   NC358631  40.829  21.407   5.555
10150POPC   PO458632  40.778  21.352   5.855
10150POPC   GL158633  40.762  21.393   6.155
10150POPC   GL258634  40.628  21.465   6.155
10150POPC   C1A58635  40.758  21.356   6.455
10150POPC   D2A58636  40.814  21.401   6.755
10150POPC   C3A58637  40.790  21.338   7.055
10150POPC   C4A58638  40.779  21.384   7.355
10150POPC   C1B58639  40.571  21.478   6.455
10150POPC   C2B58640  40.610  21.496   6.755
10150POPC   C3B58641  40.513  21.460   7.055
10150POPC   C4B58642  40.596  21.526   7.355
10151POPC   NC358643  27.544  10.493   5.555
10151POPC   PO458644  27.588  10.562   5.855
10151POPC   GL158645  27.635  10.502   6.155
10151POPC   GL258646  27.508  10.576   6.155
10151POPC   C1A58647  27.572  10.496   6.455
10151POPC   D2A58648  27.546  10.518   6.755
10151POPC   C3A58649  27.571  10.545   7.055
10151POPC   C4A58650  27.641  10.500   7.355
10151POPC   C1B58651  27.360  10.577   6.455
10151POPC   C2B58652  27.302  10.606   6.755
10151POPC   C3B58653  27.312  10.636   7.055
10151POPC   C4B58654  27.336  10.627   7.355
10152POPC   NC358655  43.926   5.088   5.555
10152POPC   PO458656  43.936   5.109   5.855
10152POPC   GL158657  43.863   5.090   6.155
10152POPC   GL258658  43.865   5.207   6.155
10152POPC   C1A58659  43.839   5.110   6.455
10152POPC   D2A58660  43.879   5.090   6.755
10152POPC   C3A58661  43.920   5.106   7.055
10152POPC   C4A58662  43.931   5.077   7.355
10152POPC   C1B58663  43.861   5.343   6.455
10152POPC   C2B58664  43.826   5.356   6.755
10152POPC   C3B58665  43.860   5.319   7.055
10152POPC   C4B58666  43.868   5.335   7.355
10153POPC   NC358667  36.165  17.506   5.555
10153POPC   PO458668  36.128  17.490   5.855
10153POPC   GL158669  36.111  17.519   6.155
10153POPC   GL258670  36.078  17.569   6.155
10153POPC   C1A58671  36.155  17.468   6.455
10153POPC   D2A58672  36.086  17.537   6.755
10153POPC   C3A58673  36.116  17.545   7.055
10153POPC   C4A58674  36.175  17.511   7.355
10153POPC   C1B58675  35.970  17.680   6.455
10153POPC   C2B58676  35.968  17.733   6.755
10153POPC   C3B58677  35.946  17.736   7.055
10153POPC   C4B58678  36.010  17.666   7.355
10154POPC   NC358679  39.250   9.748   5.555
10154POPC   PO458680  39.233   9.791   5.855
10154POPC   GL158681  39.231   9.724   6.155
10154POPC   GL258682  39.366   9.881   6.155
10154POPC   C1A58683  39.246   9.755   6.455
10154POPC   D2A58684  39.251   9.714   6.755
10154POPC   C3A58685  39.189   9.709   7.055
10154POPC   C4A58686  39.232   9.769   7.355
10154POPC   C1B58687  39.387   9.955   6.455
10154POPC   C2B58688  39.397   9.921   6.755
10154POPC   C3B58689  39.403   9.975   7.055
10154POPC   C4B58690  39.394   9.910   7.355
10155POPC   NC358691   6.619  23.709   5.555
10155POPC   PO458692   6.601  23.744   5.855
10155POPC   GL158693   6.679  23.666   6.155
10155POPC   GL258694   6.604  23.555   6.155
10155POPC   C1A58695   6.677  23.715   6.455
10155POPC   D2A58696   6.684  23.743   6.755
10155POPC   C3A58697   6.660  23.708   7.055
10155POPC   C4A58698   6.648  23.736   7.355
10155POPC   C1B58699   6.681  23.470   6.455
10155POPC   C2B58700   6.651  23.513   6.755
10155POPC   C3B58701   6.654  23.470   7.055
10155POPC   C4B58702   6.637  23.456   7.355
10156POPC   NC358703  25.252  10.500   5.555
10156POPC   PO458704  25.284  10.525   5.855
10156POPC   GL158705  25.308  10.485   6.155
10156POPC   GL258706  25.200  10.446   6.155
10156POPC   C1A58707  25.268  10.488   6.455
10156POPC   D2A58708  25.288  10.537   6.755
10156POPC   C3A58709  25.223  10.480   7.055
10156POPC   C4A58710  25.283  10.560   7.355
10156POPC   C1B58711  25.153  10.341   6.455
10156POPC   C2B58712  25.127  10.282   6.755
10156POPC   C3B58713  25.151  10.309   7.055
10156POPC   C4B58714  25.100  10.351   7.355
10157POPC   NC358715  43.092  16.731   5.555
10157POPC   PO458716  43.093  16.765   5.855
10157POPC   GL158717  43.115  16.768   6.155
10157POPC   GL258718  43.031  16.831   6.155
10157POPC   C1A58719  43.139  16.740   6.455
10157POPC   D2A58720  43.092  16.778   6.755
10157POPC   C3A58721  43.091  16.703   7.055
10157POPC   C4A58722  43.143  16.761   7.355
10157POPC   C1B58723  42.888  16.845   6.455
10157POPC   C2B58724  42.870  16.879   6.755
10157POPC   C3B58725  42.921  16.881   7.055
10157POPC   C4B58726  42.906  16.919   7.355
10158POPC   NC358727  12.122  21.404   5.555
10158POPC   PO458728  12.082  21.351   5.855
10158POPC   GL158729  12.090  21.341   6.155
10158POPC   GL258730  12.027  21.311   6.155
10158POPC   C1A58731  12.043  21.434   6.455
10158POPC   D2A58732  12.040  21.355   6.755
10158POPC   C3A58733  12.028  21.372   7.055
10158POPC   C4A58734  12.104  21.380   7.355
10158POPC   C1B58735  11.969  21.113   6.455
10158POPC   C2B58736  11.964  21.115   6.755
10158POPC   C3B58737  11.981  21.118   7.055
10158POPC   C4B58738  11.968  21.184   7.355
10159POPC   NC358739  43.136   4.355   5.555
10159POPC   PO458740  43.081   4.343   5.855
10159POPC   GL158741  43.093   4.331   6.155
10159POPC   GL258742  43.228   4.279   6.155
10159POPC   C1A58743  43.137   4.270   6.455
10159POPC   D2A58744  43.096   4.341   6.755
10159POPC   C3A58745  43.105   4.344   7.055
10159POPC   C4A58746  43.078   4.364   7.355
10159POPC   C1B58747  43.357   4.214   6.455
10159POPC   C2B58748  43.370   4.245   6.755
10159POPC   C3B58749  43.293   4.267   7.055
10159POPC   C4B58750  43.317   4.236   7.355
10160POPC   NC358751  19.013  24.495   5.555
10160POPC   PO458752  19.014  24.487   5.855
10160POPC   GL158753  19.020  24.498   6.155
10160POPC   GL258754  19.052  24.568   6.155
10160POPC   C1A58755  19.080  24.442   6.455
10160POPC   D2A58756  19.100  24.517   6.755
10160POPC   C3A58757  19.058  24.531   7.055
10160POPC   C4A58758  19.022  24.466   7.355
10160POPC   C1B58759  18.931  24.742   6.455
10160POPC   C2B58760  18.985  24.712   6.755
10160POPC   C3B58761  18.944  24.699   7.055
10160POPC   C4B58762  18.991  24.769   7.355
10161POPC   NC358763  15.160  20.587   5.555
10161POPC   PO458764  15.221  20.587   5.855
10161POPC   GL158765  15.175  20.638   6.155
10161POPC   GL258766  15.054  20.473   6.155
10161POPC   C1A58767  15.129  20.647   6.455
10161POPC   D2A58768  15.186  20.611   6.755
10161POPC   C3A58769  15.213  20.631   7.055
10161POPC   C4A58770  15.182  20.651   7.355
10161POPC   C1B58771  14.967  20.376   6.455
10161POPC   C2B58772  14.984  20.428   6.755
10161POPC   C3B58773  15.031  20.458   7.055
10161POPC   C4B58774  15.011  20.385   7.355
10162POPC   NC358775  26.058   5.087   5.555
10162POPC   PO458776  26.074   5.114   5.855
10162POPC   GL158777  25.993   5.043   6.155
10162POPC   GL258778  26.108   5.013   6.155
10162POPC   C1A58779  26.049   5.117   6.455
10162POPC   D2A58780  26.091   5.061   6.755
10162POPC   C3A58781  26.019   5.102   7.055
10162POPC   C4A58782  26.075   5.125   7.355
10162POPC   C1B58783  26.266   4.974   6.455
10162POPC   C2B58784  26.249   4.960   6.755
10162POPC   C3B58785  26.216   4.890   7.055
10162POPC   C4B58786  26.195   4.950   7.355
10163POPC   NC358787  16.772  23.755   5.555
10163POPC   PO458788  16.719  23.685   5.855
10163POPC   GL158789  16.732  23.695   6.155
10163POPC   GL258790  16.685  23.787   6.155
10163POPC   C1A58791  16.721  23.705   6.455
10163POPC   D2A58792  16.718  23.712   6.755
10163POPC   C3A58793  16.749  23.697   7.055
10163POPC   C4A58794  16.738  23.744   7.355
10163POPC   C1B58795  16.554  23.962   6.455
10163POPC   C2B58796  16.615  23.923   6.755
10163POPC   C3B58797  16.543  23.871   7.055
10163POPC   C4B58798  16.536  23.908   7.355
10164POPC   NC358799  43.872  12.831   5.555
10164POPC   PO458800  43.886  12.819   5.855
10164POPC   GL158801  43.922  12.818   6.155
10164POPC   GL258802  43.720  12.856   6.155
10164POPC   C1A58803  43.839  12.871   6.455
10164POPC   D2A58804  43.899  12.881   6.755
10164POPC   C3A58805  43.869  12.849   7.055
10164POPC   C4A58806  43.904  12.892   7.355
10164POPC   C1B58807  43.596  12.934   6.455
10164POPC   C2B58808  43.675  12.936   6.755
10164POPC   C3B58809  43.626  12.863   7.055
10164POPC   C4B58810  43.598  12.884   7.355
10165POPC   NC358811  43.879   6.629   5.555
10165POPC   PO458812  43.874   6.620   5.855
10165POPC   GL158813  43.855   6.689   6.155
10165POPC   GL258814  43.798   6.602   6.155
10165POPC   C1A58815  43.897   6.636   6.455
10165POPC   D2A58816  43.921   6.660   6.755
10165POPC   C3A58817  43.879   6.629   7.055
10165POPC   C4A58818  43.927   6.654   7.355
10165POPC   C1B58819  43.658   6.498   6.455
10165POPC   C2B58820  43.685   6.508   6.755
10165POPC   C3B58821  43.722   6.514   7.055
10165POPC   C4B58822  43.668   6.496   7.355
10166POPC   NC358823  15.914  16.766   5.555
10166POPC   PO458824  15.911  16.770   5.855
10166POPC   GL158825  15.961  16.736   6.155
10166POPC   GL258826  15.873  16.723   6.155
10166POPC   C1A58827  15.923  16.752   6.455
10166POPC   D2A58828  15.950  16.749   6.755
10166POPC   C3A58829  15.908  16.755   7.055
10166POPC   C4A58830  15.966  16.721   7.355
10166POPC   C1B58831  15.733  16.712   6.455
10166POPC   C2B58832  15.757  16.695   6.755
10166POPC   C3B58833  15.667  16.692   7.055
10166POPC   C4B58834  15.714  16.717   7.355
10167POPC   NC358835  19.820  21.432   5.555
10167POPC   PO458836  19.786  21.338   5.855
10167POPC   GL158837  19.876  21.393   6.155
10167POPC   GL258838  19.974  21.415   6.155
10167POPC   C1A58839  19.821  21.394   6.455
10167POPC   D2A58840  19.838  21.423   6.755
10167POPC   C3A58841  19.848  21.368   7.055
10167POPC   C4A58842  19.813  21.337   7.355
10167POPC   C1B58843  20.126  21.376   6.455
10167POPC   C2B58844  20.123  21.391   6.755
10167POPC   C3B58845  20.036  21.355   7.055
10167POPC   C4B58846  20.065  21.399   7.355
10168POPC   NC358847  32.245  42.340   5.555
10168POPC   PO458848  32.288  42.303   5.855
10168POPC   GL158849  32.260  42.357   6.155
10168POPC   GL258850  32.270  42.472   6.155
10168POPC   C1A58851  32.296  42.308   6.455
10168POPC   D2A58852  32.257  42.299   6.755
10168POPC   C3A58853  32.216  42.368   7.055
10168POPC   C4A58854  32.207  42.380   7.355
10168POPC   C1B58855  32.384  42.550   6.455
10168POPC   C2B58856  32.380  42.597   6.755
10168POPC   C3B58857  32.351  42.599   7.055
10168POPC   C4B58858  32.320  42.593   7.355
10169POPC   NC358859  22.943  24.529   5.555
10169POPC   PO458860  22.944  24.455   5.855
10169POPC   GL158861  22.907  24.484   6.155
10169POPC   GL258862  22.959  24.371   6.155
10169POPC   C1A58863  22.928  24.523   6.455
10169POPC   D2A58864  22.974  24.464   6.755
10169POPC   C3A58865  22.900  24.516   7.055
10169POPC   C4A58866  22.915  24.520   7.355
10169POPC   C1B58867  22.932  24.238   6.455
10169POPC   C2B58868  22.957  24.232   6.755
10169POPC   C3B58869  23.011  24.251   7.055
10169POPC   C4B58870  22.968  24.216   7.355
10170POPC   NC358871   9.009  33.807   5.555
10170POPC   PO458872   8.993  33.787   5.855
10170POPC   GL158873   8.939  33.760   6.155
10170POPC   GL258874   8.989  33.883   6.155
10170POPC   C1A58875   8.952  33.772   6.455
10170POPC   D2A58876   8.977  33.784   6.755
10170POPC   C3A58877   8.979  33.789   7.055
10170POPC   C4A58878   8.989  33.829   7.355
10170POPC   C1B58879   9.118  34.066   6.455
10170POPC   C2B58880   9.035  34.020   6.755
10170POPC   C3B58881   9.088  34.055   7.055
10170POPC   C4B58882   9.037  33.990   7.355
10171POPC   NC358883  29.879  40.819   5.555
10171POPC   PO458884  29.924  40.805   5.855
10171POPC   GL158885  29.918  40.768   6.155
10171POPC   GL258886  29.889  40.637   6.155
10171POPC   C1A58887  29.907  40.765   6.455
10171POPC   D2A58888  29.871  40.822   6.755
10171POPC   C3A58889  29.915  40.806   7.055
10171POPC   C4A58890  29.932  40.813   7.355
10171POPC   C1B58891  29.947  40.510   6.455
10171POPC   C2B58892  29.910  40.567   6.755
10171POPC   C3B58893  29.955  40.572   7.055
10171POPC   C4B58894  29.941  40.492   7.355
10172POPC   NC358895  11.270   5.068   5.555
10172POPC   PO458896  11.332   5.073   5.855
10172POPC   GL158897  11.253   5.079   6.155
10172POPC   GL258898  11.286   5.199   6.155
10172POPC   C1A58899  11.329   5.112   6.455
10172POPC   D2A58900  11.319   5.050   6.755
10172POPC   C3A58901  11.307   5.103   7.055
10172POPC   C4A58902  11.303   5.114   7.355
10172POPC   C1B58903  11.219   5.375   6.455
10172POPC   C2B58904  11.232   5.372   6.755
10172POPC   C3B58905  11.285   5.338   7.055
10172POPC   C4B58906  11.218   5.359   7.355
10173POPC   NC358907  23.665   2.019   5.555
10173POPC   PO458908  23.722   1.991   5.855
10173POPC   GL158909  23.714   1.994   6.155
10173POPC   GL258910  23.719   1.847   6.155
10173POPC   C1A58911  23.724   1.971   6.455
10173POPC   D2A58912  23.742   2.016   6.755
10173POPC   C3A58913  23.727   1.968   7.055
10173POPC   C4A58914  23.679   1.966   7.355
10173POPC   C1B58915  23.648   1.789   6.455
10173POPC   C2B58916  23.642   1.763   6.755
10173POPC   C3B58917  23.593   1.784   7.055
10173POPC   C4B58918  23.648   1.776   7.355
10174POPC   NC358919  18.332  40.805   5.555
10174POPC   PO458920  18.262  40.753   5.855
10174POPC   GL158921  18.308  40.832   6.155
10174POPC   GL258922  18.358  40.779   6.155
10174POPC   C1A58923  18.311  40.757   6.455
10174POPC   D2A58924  18.262  40.733   6.755
10174POPC   C3A58925  18.267  40.814   7.055
10174POPC   C4A58926  18.246  40.805   7.355
10174POPC   C1B58927  18.550  40.706   6.455
10174POPC   C2B58928  18.563  40.767   6.755
10174POPC   C3B58929  18.522  40.694   7.055
10174POPC   C4B58930  18.562  40.749   7.355
10175POPC   NC358931  11.258  32.232   5.555
10175POPC   PO458932  11.294  32.214   5.855
10175POPC   GL158933  11.337  32.220   6.155
10175POPC   GL258934  11.246  32.380   6.155
10175POPC   C1A58935  11.348  32.272   6.455
10175POPC   D2A58936  11.329  32.282   6.755
10175POPC   C3A58937  11.257  32.260   7.055
10175POPC   C4A58938  11.316  32.243   7.355
10175POPC   C1B58939  11.201  32.467   6.455
10175POPC   C2B58940  11.175  32.421   6.755
10175POPC   C3B58941  11.166  32.424   7.055
10175POPC   C4B58942  11.181  32.451   7.355
10176POPC   NC358943   5.828  44.670   5.555
10176POPC   PO458944   5.845  44.698   5.855
10176POPC   GL158945   5.847  44.677   6.155
10176POPC   GL258946   5.701  44.627   6.155
10176POPC   C1A58947   5.833  44.687   6.455
10176POPC   D2A58948   5.892  44.649   6.755
10176POPC   C3A58949   5.840  44.684   7.055
10176POPC   C4A58950   5.901  44.637   7.355
10176POPC   C1B58951   5.663  44.541   6.455
10176POPC   C2B58952   5.595  44.630   6.755
10176POPC   C3B58953   5.651  44.569   7.055
10176POPC   C4B58954   5.601  44.614   7.355
10177POPC   NC358955  19.809   2.723   5.555
10177POPC   PO458956  19.857   2.739   5.855
10177POPC   GL158957  19.816   2.737   6.155
10177POPC   GL258958  19.884   2.625   6.155
10177POPC   C1A58959  19.803   2.759   6.455
10177POPC   D2A58960  19.814   2.791   6.755
10177POPC   C3A58961  19.882   2.789   7.055
10177POPC   C4A58962  19.870   2.739   7.355
10177POPC   C1B58963  19.898   2.523   6.455
10177POPC   C2B58964  19.918   2.540   6.755
10177POPC   C3B58965  19.894   2.531   7.055
10177POPC   C4B58966  19.866   2.510   7.355
10178POPC   NC358967  11.314  43.846   5.555
10178POPC   PO458968  11.313  43.843   5.855
10178POPC   GL158969  11.270  43.907   6.155
10178POPC   GL258970  11.144  43.960   6.155
10178POPC   C1A58971  11.260  43.871   6.455
10178POPC   D2A58972  11.350  43.932   6.755
10178POPC   C3A58973  11.324  43.858   7.055
10178POPC   C4A58974  11.266  43.933   7.355
10178POPC   C1B58975  11.105  43.993   6.455
10178POPC   C2B58976  11.044  44.000   6.755
10178POPC   C3B58977  11.039  44.034   7.055
10178POPC   C4B58978  11.130  44.023   7.355
10179POPC   NC358979  25.307   6.643   5.555
10179POPC   PO458980  25.271   6.660   5.855
10179POPC   GL158981  25.242   6.664   6.155
10179POPC   GL258982  25.112   6.663   6.155
10179POPC   C1A58983  25.257   6.686   6.455
10179POPC   D2A58984  25.289   6.674   6.755
10179POPC   C3A58985  25.296   6.640   7.055
10179POPC   C4A58986  25.293   6.670   7.355
10179POPC   C1B58987  25.044   6.700   6.455
10179POPC   C2B58988  25.027   6.743   6.755
10179POPC   C3B58989  25.020   6.760   7.055
10179POPC   C4B58990  25.041   6.704   7.355
10180POPC   NC358991  33.060  26.032   5.555
10180POPC   PO458992  33.025  26.031   5.855
10180POPC   GL158993  33.014  26.067   6.155
10180POPC   GL258994  33.025  26.199   6.155
10180POPC   C1A58995  33.043  26.000   6.455
10180POPC   D2A58996  33.035  26.056   6.755
10180POPC   C3A58997  33.018  25.998   7.055
10180POPC   C4A58998  32.976  26.048   7.355
10180POPC   C1B58999  33.067  26.245   6.455
10180POPC   C2B59000  33.011  26.263   6.755
10180POPC   C3B59001  33.099  26.289   7.055
10180POPC   C4B59002  33.068  26.268   7.355
10181POPC   NC359003  10.552  27.638   5.555
10181POPC   PO459004  10.526  27.582   5.855
10181POPC   GL159005  10.561  27.610   6.155
10181POPC   GL259006  10.509  27.739   6.155
10181POPC   C1A59007  10.573  27.591   6.455
10181POPC   D2A59008  10.558  27.582   6.755
10181POPC   C3A59009  10.517  27.596   7.055
10181POPC   C4A59010  10.499  27.590   7.355
10181POPC   C1B59011  10.472  27.801   6.455
10181POPC   C2B59012  10.435  27.794   6.755
10181POPC   C3B59013  10.388  27.803   7.055
10181POPC   C4B59014  10.434  27.827   7.355
10182POPC   NC359015  30.685  40.830   5.555
10182POPC   PO459016  30.679  40.827   5.855
10182POPC   GL159017  30.694  40.831   6.155
10182POPC   GL259018  30.805  40.883   6.155
10182POPC   C1A59019  30.693  40.826   6.455
10182POPC   D2A59020  30.724  40.795   6.755
10182POPC   C3A59021  30.685  40.749   7.055
10182POPC   C4A59022  30.685  40.812   7.355
10182POPC   C1B59023  30.815  40.950   6.455
10182POPC   C2B59024  30.869  40.974   6.755
10182POPC   C3B59025  30.811  40.966   7.055
10182POPC   C4B59026  30.808  40.992   7.355
10183POPC   NC359027  23.758   5.828   5.555
10183POPC   PO459028  23.724   5.890   5.855
10183POPC   GL159029  23.757   5.861   6.155
10183POPC   GL259030  23.660   5.943   6.155
10183POPC   C1A59031  23.680   5.884   6.455
10183POPC   D2A59032  23.753   5.910   6.755
10183POPC   C3A59033  23.720   5.915   7.055
10183POPC   C4A59034  23.707   5.893   7.355
10183POPC   C1B59035  23.596   6.072   6.455
10183POPC   C2B59036  23.607   6.066   6.755
10183POPC   C3B59037  23.658   6.068   7.055
10183POPC   C4B59038  23.586   6.122   7.355
10184POPC   NC359039  19.055  10.495   5.555
10184POPC   PO459040  19.090  10.513   5.855
10184POPC   GL159041  19.097  10.574   6.155
10184POPC   GL259042  18.917  10.645   6.155
10184POPC   C1A59043  19.072  10.506   6.455
10184POPC   D2A59044  19.101  10.543   6.755
10184POPC   C3A59045  19.028  10.542   7.055
10184POPC   C4A59046  19.064  10.536   7.355
10184POPC   C1B59047  18.859  10.650   6.455
10184POPC   C2B59048  18.850  10.638   6.755
10184POPC   C3B59049  18.841  10.653   7.055
10184POPC   C4B59050  18.900  10.679   7.355
10185POPC   NC359051  26.086  19.050   5.555
10185POPC   PO459052  26.051  19.021   5.855
10185POPC   GL159053  26.053  19.062   6.155
10185POPC   GL259054  26.178  19.014   6.155
10185POPC   C1A59055  26.086  19.057   6.455
10185POPC   D2A59056  26.044  19.075   6.755
10185POPC   C3A59057  26.052  19.032   7.055
10185POPC   C4A59058  26.055  19.093   7.355
10185POPC   C1B59059  26.271  19.018   6.455
10185POPC   C2B59060  26.290  18.937   6.755
10185POPC   C3B59061  26.278  18.993   7.055
10185POPC   C4B59062  26.292  18.953   7.355
10186POPC   NC359063  25.252  34.567   5.555
10186POPC   PO459064  25.229  34.528   5.855
10186POPC   GL159065  25.228  34.555   6.155
10186POPC   GL259066  25.166  34.510   6.155
10186POPC   C1A59067  25.251  34.613   6.455
10186POPC   D2A59068  25.291  34.612   6.755
10186POPC   C3A59069  25.285  34.624   7.055
10186POPC   C4A59070  25.264  34.535   7.355
10186POPC   C1B59071  25.072  34.361   6.455
10186POPC   C2B59072  25.141  34.335   6.755
10186POPC   C3B59073  25.102  34.390   7.055
10186POPC   C4B59074  25.078  34.372   7.355
10187POPC   NC359075  40.034  22.164   5.555
10187POPC   PO459076  40.042  22.198   5.855
10187POPC   GL159077  40.008  22.180   6.155
10187POPC   GL259078  40.115  22.171   6.155
10187POPC   C1A59079  40.024  22.140   6.455
10187POPC   D2A59080  40.004  22.123   6.755
10187POPC   C3A59081  39.959  22.212   7.055
10187POPC   C4A59082  40.024  22.207   7.355
10187POPC   C1B59083  40.264  22.172   6.455
10187POPC   C2B59084  40.262  22.146   6.755
10187POPC   C3B59085  40.255  22.169   7.055
10187POPC   C4B59086  40.218  22.203   7.355
10188POPC   NC359087  22.194  38.415   5.555
10188POPC   PO459088  22.192  38.431   5.855
10188POPC   GL159089  22.141  38.416   6.155
10188POPC   GL259090  22.061  38.501   6.155
10188POPC   C1A59091  22.161  38.407   6.455
10188POPC   D2A59092  22.164  38.447   6.755
10188POPC   C3A59093  22.186  38.427   7.055
10188POPC   C4A59094  22.138  38.450   7.355
10188POPC   C1B59095  21.926  38.439   6.455
10188POPC   C2B59096  21.925  38.463   6.755
10188POPC   C3B59097  21.901  38.463   7.055
10188POPC   C4B59098  21.935  38.507   7.355
10189POPC   NC359099  18.273  12.049   5.555
10189POPC   PO459100  18.318  12.102   5.855
10189POPC   GL159101  18.235  12.126   6.155
10189POPC   GL259102  18.168  12.085   6.155
10189POPC   C1A59103  18.301  12.113   6.455
10189POPC   D2A59104  18.256  12.082   6.755
10189POPC   C3A59105  18.253  12.107   7.055
10189POPC   C4A59106  18.284  12.065   7.355
10189POPC   C1B59107  17.998  12.093   6.455
10189POPC   C2B59108  18.080  12.048   6.755
10189POPC   C3B59109  18.053  12.025   7.055
10189POPC   C4B59110  18.071  12.080   7.355
10190POPC   NC359111  44.703  19.067   5.555
10190POPC   PO459112  44.693  19.098   5.855
10190POPC   GL159113  44.695  19.038   6.155
10190POPC   GL259114  44.511  19.074   6.155
10190POPC   C1A59115  44.670  19.097   6.455
10190POPC   D2A59116  44.639  19.066   6.755
10190POPC   C3A59117  44.680  19.068   7.055
10190POPC   C4A59118  44.701  19.077   7.355
10190POPC   C1B59119  44.417  19.092   6.455
10190POPC   C2B59120  44.411  19.093   6.755
10190POPC   C3B59121  44.419  19.128   7.055
10190POPC   C4B59122  44.441  19.124   7.355
10191POPC   NC359123  26.005   4.342   5.555
10191POPC   PO459124  26.066   4.334   5.855
10191POPC   GL159125  26.016   4.364   6.155
10191POPC   GL259126  26.032   4.462   6.155
10191POPC   C1A59127  26.001   4.329   6.455
10191POPC   D2A59128  26.043   4.283   6.755
10191POPC   C3A59129  26.042   4.289   7.055
10191POPC   C4A59130  26.004   4.320   7.355
10191POPC   C1B59131  25.983   4.591   6.455
10191POPC   C2B59132  25.978   4.595   6.755
10191POPC   C3B59133  25.928   4.513   7.055
10191POPC   C4B59134  25.983   4.532   7.355
10192POPC   NC359135  29.934  11.329   5.555
10192POPC   PO459136  29.917  11.339   5.855
10192POPC   GL159137  29.921  11.269   6.155
10192POPC   GL259138  30.071  11.279   6.155
10192POPC   C1A59139  29.930  11.331   6.455
10192POPC   D2A59140  29.934  11.338   6.755
10192POPC   C3A59141  29.949  11.307   7.055
10192POPC   C4A59142  29.901  11.291   7.355
10192POPC   C1B59143  30.168  11.169   6.455
10192POPC   C2B59144  30.112  11.250   6.755
10192POPC   C3B59145  30.200  11.208   7.055
10192POPC   C4B59146  30.138  11.258   7.355
10193POPC   NC359147  19.032  27.641   5.555
10193POPC   PO459148  19.066  27.587   5.855
10193POPC   GL159149  19.036  27.558   6.155
10193POPC   GL259150  19.032  27.512   6.155
10193POPC   C1A59151  19.027  27.606   6.455
10193POPC   D2A59152  19.094  27.575   6.755
10193POPC   C3A59153  19.042  27.567   7.055
10193POPC   C4A59154  19.037  27.572   7.355
10193POPC   C1B59155  18.897  27.407   6.455
10193POPC   C2B59156  18.870  27.442   6.755
10193POPC   C3B59157  18.874  27.443   7.055
10193POPC   C4B59158  18.902  27.350   7.355
10194POPC   NC359159  33.007  38.446   5.555
10194POPC   PO459160  33.070  38.473   5.855
10194POPC   GL159161  33.007  38.414   6.155
10194POPC   GL259162  33.110  38.337   6.155
10194POPC   C1A59163  33.041  38.412   6.455
10194POPC   D2A59164  33.050  38.451   6.755
10194POPC   C3A59165  33.049  38.500   7.055
10194POPC   C4A59166  33.010  38.500   7.355
10194POPC   C1B59167  33.257  38.328   6.455
10194POPC   C2B59168  33.199  38.263   6.755
10194POPC   C3B59169  33.260  38.276   7.055
10194POPC   C4B59170  33.188  38.342   7.355
10195POPC   NC359171  20.655   7.414   5.555
10195POPC   PO459172  20.622   7.409   5.855
10195POPC   GL159173  20.590   7.439   6.155
10195POPC   GL259174  20.642   7.543   6.155
10195POPC   C1A59175  20.593   7.396   6.455
10195POPC   D2A59176  20.646   7.425   6.755
10195POPC   C3A59177  20.611   7.463   7.055
10195POPC   C4A59178  20.622   7.434   7.355
10195POPC   C1B59179  20.650   7.650   6.455
10195POPC   C2B59180  20.663   7.664   6.755
10195POPC   C3B59181  20.664   7.677   7.055
10195POPC   C4B59182  20.701   7.611   7.355
10196POPC   NC359183  29.919  14.374   5.555
10196POPC   PO459184  29.877  14.394   5.855
10196POPC   GL159185  29.945  14.402   6.155
10196POPC   GL259186  29.819  14.352   6.155
10196POPC   C1A59187  29.962  14.434   6.455
10196POPC   D2A59188  29.883  14.392   6.755
10196POPC   C3A59189  29.964  14.391   7.055
10196POPC   C4A59190  29.958  14.379   7.355
10196POPC   C1B59191  29.726  14.234   6.455
10196POPC   C2B59192  29.752  14.236   6.755
10196POPC   C3B59193  29.781  14.209   7.055
10196POPC   C4B59194  29.777  14.212   7.355
10197POPC   NC359195   9.788  13.673   5.555
10197POPC   PO459196   9.753  13.658   5.855
10197POPC   GL159197   9.740  13.600   6.155
10197POPC   GL259198   9.646  13.634   6.155
10197POPC   C1A59199   9.764  13.617   6.455
10197POPC   D2A59200   9.777  13.661   6.755
10197POPC   C3A59201   9.759  13.606   7.055
10197POPC   C4A59202   9.725  13.607   7.355
10197POPC   C1B59203   9.497  13.674   6.455
10197POPC   C2B59204   9.501  13.591   6.755
10197POPC   C3B59205   9.484  13.611   7.055
10197POPC   C4B59206   9.526  13.633   7.355
10198POPC   NC359207  27.632   5.119   5.555
10198POPC   PO459208  27.585   5.043   5.855
10198POPC   GL159209  27.576   5.052   6.155
10198POPC   GL259210  27.448   5.166   6.155
10198POPC   C1A59211  27.546   5.106   6.455
10198POPC   D2A59212  27.565   5.063   6.755
10198POPC   C3A59213  27.591   5.134   7.055
10198POPC   C4A59214  27.552   5.112   7.355
10198POPC   C1B59215  27.347   5.179   6.455
10198POPC   C2B59216  27.402   5.212   6.755
10198POPC   C3B59217  27.384   5.141   7.055
10198POPC   C4B59218  27.364   5.175   7.355
10199POPC   NC359219   9.747   7.386   5.555
10199POPC   PO459220   9.744   7.393   5.855
10199POPC   GL159221   9.740   7.433   6.155
10199POPC   GL259222   9.753   7.496   6.155
10199POPC   C1A59223   9.781   7.431   6.455
10199POPC   D2A59224   9.703   7.435   6.755
10199POPC   C3A59225   9.712   7.440   7.055
10199POPC   C4A59226   9.780   7.458   7.355
10199POPC   C1B59227   9.750   7.651   6.455
10199POPC   C2B59228   9.787   7.662   6.755
10199POPC   C3B59229   9.805   7.709   7.055
10199POPC   C4B59230   9.726   7.671   7.355
10200POPC   NC359231  22.194  43.141   5.555
10200POPC   PO459232  22.192  43.082   5.855
10200POPC   GL159233  22.132  43.147   6.155
10200POPC   GL259234  22.096  43.094   6.155
10200POPC   C1A59235  22.163  43.116   6.455
10200POPC   D2A59236  22.185  43.087   6.755
10200POPC   C3A59237  22.147  43.118   7.055
10200POPC   C4A59238  22.137  43.085   7.355
10200POPC   C1B59239  21.951  42.950   6.455
10200POPC   C2B59240  21.996  42.960   6.755
10200POPC   C3B59241  21.912  42.944   7.055
10200POPC   C4B59242  21.946  42.959   7.355
10201POPC   NC359243  33.833  12.832   5.555
10201POPC   PO459244  33.848  12.887   5.855
10201POPC   GL159245  33.801  12.896   6.155
10201POPC   GL259246  33.709  12.831   6.155
10201POPC   C1A59247  33.791  12.891   6.455
10201POPC   D2A59248  33.818  12.873   6.755
10201POPC   C3A59249  33.830  12.890   7.055
10201POPC   C4A59250  33.766  12.870   7.355
10201POPC   C1B59251  33.635  12.668   6.455
10201POPC   C2B59252  33.618  12.717   6.755
10201POPC   C3B59253  33.561  12.741   7.055
10201POPC   C4B59254  33.607  12.698   7.355
10202POPC   NC359255  16.687  20.569   5.555
10202POPC   PO459256  16.744  20.591   5.855
10202POPC   GL159257  16.720  20.605   6.155
10202POPC   GL259258  16.870  20.612   6.155
10202POPC   C1A59259  16.700  20.626   6.455
10202POPC   D2A59260  16.700  20.590   6.755
10202POPC   C3A59261  16.710  20.641   7.055
10202POPC   C4A59262  16.778  20.606   7.355
10202POPC   C1B59263  16.963  20.632   6.455
10202POPC   C2B59264  16.956  20.701   6.755
10202POPC   C3B59265  17.000  20.702   7.055
10202POPC   C4B59266  17.017  20.672   7.355
10203POPC   NC359267   8.968  24.531   5.555
10203POPC   PO459268   8.952  24.467   5.855
10203POPC   GL159269   8.931  24.500   6.155
10203POPC   GL259270   9.116  24.572   6.155
10203POPC   C1A59271   9.000  24.441   6.455
10203POPC   D2A59272   8.966  24.512   6.755
10203POPC   C3A59273   8.988  24.539   7.055
10203POPC   C4A59274   8.953  24.489   7.355
10203POPC   C1B59275   9.225  24.584   6.455
10203POPC   C2B59276   9.222  24.658   6.755
10203POPC   C3B59277   9.183  24.598   7.055
10203POPC   C4B59278   9.232  24.576   7.355
10204POPC   NC359279  19.817  33.759   5.555
10204POPC   PO459280  19.878  33.757   5.855
10204POPC   GL159281  19.811  33.763   6.155
10204POPC   GL259282  19.733  33.904   6.155
10204POPC   C1A59283  19.853  33.814   6.455
10204POPC   D2A59284  19.827  33.820   6.755
10204POPC   C3A59285  19.794  33.810   7.055
10204POPC   C4A59286  19.835  33.782   7.355
10204POPC   C1B59287  19.684  34.023   6.455
10204POPC   C2B59288  19.647  34.003   6.755
10204POPC   C3B59289  19.645  33.972   7.055
10204POPC   C4B59290  19.711  34.040   7.355
10205POPC   NC359291   7.420  22.187   5.555
10205POPC   PO459292   7.390  22.192   5.855
10205POPC   GL159293   7.375  22.195   6.155
10205POPC   GL259294   7.405  22.255   6.155
10205POPC   C1A59295   7.375  22.161   6.455
10205POPC   D2A59296   7.398  22.145   6.755
10205POPC   C3A59297   7.468  22.141   7.055
10205POPC   C4A59298   7.432  22.197   7.355
10205POPC   C1B59299   7.460  22.362   6.455
10205POPC   C2B59300   7.443  22.401   6.755
10205POPC   C3B59301   7.493  22.443   7.055
10205POPC   C4B59302   7.416  22.436   7.355
10206POPC   NC359303  43.872   5.832   5.555
10206POPC   PO459304  43.922   5.907   5.855
10206POPC   GL159305  43.839   5.901   6.155
10206POPC   GL259306  44.017   5.780   6.155
10206POPC   C1A59307  43.935   5.892   6.455
10206POPC   D2A59308  43.927   5.901   6.755
10206POPC   C3A59309  43.868   5.821   7.055
10206POPC   C4A59310  43.864   5.850   7.355
10206POPC   C1B59311  44.055   5.698   6.455
10206POPC   C2B59312  44.072   5.749   6.755
10206POPC   C3B59313  44.066   5.753   7.055
10206POPC   C4B59314  44.105   5.778   7.355
10207POPC   NC359315  34.528  15.199   5.555
10207POPC   PO459316  34.613  15.190   5.855
10207POPC   GL159317  34.560  15.166   6.155
10207POPC   GL259318  34.674  15.307   6.155
10207POPC   C1A59319  34.536  15.228   6.455
10207POPC   D2A59320  34.557  15.211   6.755
10207POPC   C3A59321  34.536  15.167   7.055
10207POPC   C4A59322  34.531  15.165   7.355
10207POPC   C1B59323  34.797  15.390   6.455
10207POPC   C2B59324  34.746  15.395   6.755
10207POPC   C3B59325  34.769  15.337   7.055
10207POPC   C4B59326  34.799  15.373   7.355
10208POPC   NC359327  19.815  19.825   5.555
10208POPC   PO459328  19.787  19.814   5.855
10208POPC   GL159329  19.878  19.866   6.155
10208POPC   GL259330  19.685  19.782   6.155
10208POPC   C1A59331  19.827  19.826   6.455
10208POPC   D2A59332  19.809  19.865   6.755
10208POPC   C3A59333  19.869  19.796   7.055
10208POPC   C4A59334  19.811  19.849   7.355
10208POPC   C1B59335  19.606  19.732   6.455
10208POPC   C2B59336  19.599  19.792   6.755
10208POPC   C3B59337  19.593  19.769   7.055
10208POPC   C4B59338  19.562  19.699   7.355
10209POPC   NC359339  15.143  24.500   5.555
10209POPC   PO459340  15.164  24.461   5.855
10209POPC   GL159341  15.176  24.488   6.155
10209POPC   GL259342  15.137  24.412   6.155
10209POPC   C1A59343  15.192  24.444   6.455
10209POPC   D2A59344  15.142  24.523   6.755
10209POPC   C3A59345  15.171  24.471   7.055
10209POPC   C4A59346  15.207  24.500   7.355
10209POPC   C1B59347  15.056  24.232   6.455
10209POPC   C2B59348  15.131  24.203   6.755
10209POPC   C3B59349  15.128  24.281   7.055
10209POPC   C4B59350  15.144  24.242   7.355
10210POPC   NC359351   5.069  18.279   5.555
10210POPC   PO459352   5.140  18.289   5.855
10210POPC   GL159353   5.118  18.237   6.155
10210POPC   GL259354   5.072  18.422   6.155
10210POPC   C1A59355   5.118  18.268   6.455
10210POPC   D2A59356   5.115  18.272   6.755
10210POPC   C3A59357   5.126  18.241   7.055
10210POPC   C4A59358   5.051  18.250   7.355
10210POPC   C1B59359   5.016  18.513   6.455
10210POPC   C2B59360   4.943  18.484   6.755
10210POPC   C3B59361   5.018  18.498   7.055
10210POPC   C4B59362   4.993  18.479   7.355
10211POPC   NC359363   6.601  41.582   5.555
10211POPC   PO459364   6.663  41.521   5.855
10211POPC   GL159365   6.603  41.564   6.155
10211POPC   GL259366   6.560  41.571   6.155
10211POPC   C1A59367   6.649  41.549   6.455
10211POPC   D2A59368   6.661  41.538   6.755
10211POPC   C3A59369   6.662  41.519   7.055
10211POPC   C4A59370   6.636  41.521   7.355
10211POPC   C1B59371   6.356  41.562   6.455
10211POPC   C2B59372   6.401  41.631   6.755
10211POPC   C3B59373   6.443  41.619   7.055
10211POPC   C4B59374   6.381  41.554   7.355
10212POPC   NC359375  41.579  25.235   5.555
10212POPC   PO459376  41.535  25.281   5.855
10212POPC   GL159377  41.544  25.270   6.155
10212POPC   GL259378  41.462  25.245   6.155
10212POPC   C1A59379  41.517  25.220   6.455
10212POPC   D2A59380  41.532  25.255   6.755
10212POPC   C3A59381  41.516  25.246   7.055
10212POPC   C4A59382  41.606  25.265   7.355
10212POPC   C1B59383  41.309  25.096   6.455
10212POPC   C2B59384  41.314  25.117   6.755
10212POPC   C3B59385  41.375  25.112   7.055
10212POPC   C4B59386  41.388  25.137   7.355
10213POPC   NC359387  43.127   8.240   5.555
10213POPC   PO459388  43.099   8.233   5.855
10213POPC   GL159389  43.134   8.198   6.155
10213POPC   GL259390  43.213   8.223   6.155
10213POPC   C1A59391  43.153   8.199   6.455
10213POPC   D2A59392  43.097   8.215   6.755
10213POPC   C3A59393  43.079   8.172   7.055
10213POPC   C4A59394  43.120   8.234   7.355
10213POPC   C1B59395  43.400   8.118   6.455
10213POPC   C2B59396  43.392   8.205   6.755
10213POPC   C3B59397  43.381   8.146   7.055
10213POPC   C4B59398  43.389   8.164   7.355
10214POPC   NC359399  40.022  11.265   5.555
10214POPC   PO459400  39.959  11.260   5.855
10214POPC   GL159401  40.050  11.265   6.155
10214POPC   GL259402  39.921  11.376   6.155
10214POPC   C1A59403  40.026  11.276   6.455
10214POPC   D2A59404  39.979  11.320   6.755
10214POPC   C3A59405  39.962  11.283   7.055
10214POPC   C4A59406  40.048  11.305   7.355
10214POPC   C1B59407  39.904  11.539   6.455
10214POPC   C2B59408  39.898  11.484   6.755
10214POPC   C3B59409  39.830  11.458   7.055
10214POPC   C4B59410  39.860  11.497   7.355
10215POPC   NC359411  20.626  43.907   5.555
10215POPC   PO459412  20.611  43.850   5.855
10215POPC   GL159413  20.578  43.863   6.155
10215POPC   GL259414  20.493  43.806   6.155
10215POPC   C1A59415  20.604  43.873   6.455
10215POPC   D2A59416  20.585  43.903   6.755
10215POPC   C3A59417  20.570  43.875   7.055
10215POPC   C4A59418  20.611  43.876   7.355
10215POPC   C1B59419  20.467  43.737   6.455
10215POPC   C2B59420  20.417  43.681   6.755
10215POPC   C3B59421  20.445  43.739   7.055
10215POPC   C4B59422  20.406  43.744   7.355
10216POPC   NC359423  10.517   9.773   5.555
10216POPC   PO459424  10.492   9.739   5.855
10216POPC   GL159425  10.555   9.710   6.155
10216POPC   GL259426  10.692   9.729   6.155
10216POPC   C1A59427  10.523   9.794   6.455
10216POPC   D2A59428  10.567   9.731   6.755
10216POPC   C3A59429  10.492   9.729   7.055
10216POPC   C4A59430  10.518   9.736   7.355
10216POPC   C1B59431  10.799   9.712   6.455
10216POPC   C2B59432  10.800   9.709   6.755
10216POPC   C3B59433  10.807   9.679   7.055
10216POPC   C4B59434  10.806   9.642   7.355
10217POPC   NC359435   7.411   3.536   5.555
10217POPC   PO459436   7.407   3.537   5.855
10217POPC   GL159437   7.385   3.569   6.155
10217POPC   GL259438   7.451   3.390   6.155
10217POPC   C1A59439   7.371   3.552   6.455
10217POPC   D2A59440   7.448   3.556   6.755
10217POPC   C3A59441   7.466   3.542   7.055
10217POPC   C4A59442   7.403   3.493   7.355
10217POPC   C1B59443   7.381   3.339   6.455
10217POPC   C2B59444   7.442   3.339   6.755
10217POPC   C3B59445   7.432   3.305   7.055
10217POPC   C4B59446   7.383   3.339   7.355
10218POPC   NC359447  30.653  21.349   5.555
10218POPC   PO459448  30.742  21.365   5.855
10218POPC   GL159449  30.724  21.394   6.155
10218POPC   GL259450  30.757  21.541   6.155
10218POPC   C1A59451  30.702  21.426   6.455
10218POPC   D2A59452  30.701  21.362   6.755
10218POPC   C3A59453  30.660  21.432   7.055
10218POPC   C4A59454  30.743  21.359   7.355
10218POPC   C1B59455  30.731  21.653   6.455
10218POPC   C2B59456  30.770  21.657   6.755
10218POPC   C3B59457  30.713  21.613   7.055
10218POPC   C4B59458  30.759  21.607   7.355
10219POPC   NC359459  43.094   8.998   5.555
10219POPC   PO459460  43.107   8.952   5.855
10219POPC   GL159461  43.093   8.956   6.155
10219POPC   GL259462  42.962   8.930   6.155
10219POPC   C1A59463  43.073   8.954   6.455
10219POPC   D2A59464  43.067   9.006   6.755
10219POPC   C3A59465  43.111   8.990   7.055
10219POPC   C4A59466  43.107   8.957   7.355
10219POPC   C1B59467  42.907   8.934   6.455
10219POPC   C2B59468  42.867   8.971   6.755
10219POPC   C3B59469  42.865   8.940   7.055
10219POPC   C4B59470  42.837   8.936   7.355
10220POPC   NC359471  29.180  16.681   5.555
10220POPC   PO459472  29.149  16.766   5.855
10220POPC   GL159473  29.137  16.744   6.155
10220POPC   GL259474  29.104  16.804   6.155
10220POPC   C1A59475  29.141  16.704   6.455
10220POPC   D2A59476  29.194  16.748   6.755
10220POPC   C3A59477  29.115  16.753   7.055
10220POPC   C4A59478  29.139  16.692   7.355
10220POPC   C1B59479  29.111  17.015   6.455
10220POPC   C2B59480  29.082  16.988   6.755
10220POPC   C3B59481  29.086  16.992   7.055
10220POPC   C4B59482  29.062  16.951   7.355
10221POPC   NC359483  17.537  43.104   5.555
10221POPC   PO459484  17.480  43.063   5.855
10221POPC   GL159485  17.535  43.101   6.155
10221POPC   GL259486  17.376  43.167   6.155
10221POPC   C1A59487  17.549  43.084   6.455
10221POPC   D2A59488  17.482  43.086   6.755
10221POPC   C3A59489  17.474  43.130   7.055
10221POPC   C4A59490  17.458  43.061   7.355
10221POPC   C1B59491  17.279  43.215   6.455
10221POPC   C2B59492  17.275  43.204   6.755
10221POPC   C3B59493  17.340  43.226   7.055
10221POPC   C4B59494  17.246  43.249   7.355
10222POPC   NC359495  22.977  10.486   5.555
10222POPC   PO459496  22.928  10.542   5.855
10222POPC   GL159497  22.963  10.495   6.155
10222POPC   GL259498  23.076  10.550   6.155
10222POPC   C1A59499  22.952  10.523   6.455
10222POPC   D2A59500  22.925  10.562   6.755
10222POPC   C3A59501  22.972  10.513   7.055
10222POPC   C4A59502  22.930  10.549   7.355
10222POPC   C1B59503  23.138  10.558   6.455
10222POPC   C2B59504  23.157  10.604   6.755
10222POPC   C3B59505  23.197  10.562   7.055
10222POPC   C4B59506  23.145  10.595   7.355
10223POPC   NC359507  21.395  11.264   5.555
10223POPC   PO459508  21.339  11.339   5.855
10223POPC   GL159509  21.342  11.317   6.155
10223POPC   GL259510  21.331  11.202   6.155
10223POPC   C1A59511  21.387  11.266   6.455
10223POPC   D2A59512  21.411  11.276   6.755
10223POPC   C3A59513  21.379  11.343   7.055
10223POPC   C4A59514  21.368  11.327   7.355
10223POPC   C1B59515  21.294  11.116   6.455
10223POPC   C2B59516  21.214  11.083   6.755
10223POPC   C3B59517  21.212  11.076   7.055
10223POPC   C4B59518  21.273  11.054   7.355
10224POPC   NC359519   4.311  16.699   5.555
10224POPC   PO459520   4.306  16.697   5.855
10224POPC   GL159521   4.279  16.759   6.155
10224POPC   GL259522   4.302  16.888   6.155
10224POPC   C1A59523   4.302  16.721   6.455
10224POPC   D2A59524   4.362  16.710   6.755
10224POPC   C3A59525   4.288  16.703   7.055
10224POPC   C4A59526   4.314  16.760   7.355
10224POPC   C1B59527   4.189  16.976   6.455
10224POPC   C2B59528   4.235  16.924   6.755
10224POPC   C3B59529   4.184  16.996   7.055
10224POPC   C4B59530   4.168  16.934   7.355
10225POPC   NC359531  38.484  21.432   5.555
10225POPC   PO459532  38.421  21.413   5.855
10225POPC   GL159533  38.484  21.435   6.155
10225POPC   GL259534  38.556  21.385   6.155
10225POPC   C1A59535  38.462  21.414   6.455
10225POPC   D2A59536  38.491  21.434   6.755
10225POPC   C3A59537  38.493  21.388   7.055
10225POPC   C4A59538  38.489  21.401   7.355
10225POPC   C1B59539  38.750  21.408   6.455
10225POPC   C2B59540  38.723  21.403   6.755
10225POPC   C3B59541  38.665  21.443   7.055
10225POPC   C4B59542  38.685  21.387   7.355
10226POPC   NC359543  26.003  37.703   5.555
10226POPC   PO459544  26.084  37.674   5.855
10226POPC   GL159545  26.052  37.729   6.155
10226POPC   GL259546  26.046  37.560   6.155
10226POPC   C1A59547  26.041  37.702   6.455
10226POPC   D2A59548  26.013  37.706   6.755
10226POPC   C3A59549  26.069  37.632   7.055
10226POPC   C4A59550  26.015  37.706   7.355
10226POPC   C1B59551  25.993  37.447   6.455
10226POPC   C2B59552  26.019  37.440   6.755
10226POPC   C3B59553  25.991  37.394   7.055
10226POPC   C4B59554  25.922  37.453   7.355
10227POPC   NC359555   5.856  36.124   5.555
10227POPC   PO459556   5.893  36.138   5.855
10227POPC   GL159557   5.856  36.130   6.155
10227POPC   GL259558   5.976  35.981   6.155
10227POPC   C1A59559   5.900  36.141   6.455
10227POPC   D2A59560   5.856  36.140   6.755
10227POPC   C3A59561   5.823  36.108   7.055
10227POPC   C4A59562   5.892  36.148   7.355
10227POPC   C1B59563   6.041  35.964   6.455
10227POPC   C2B59564   5.963  35.962   6.755
10227POPC   C3B59565   5.981  35.967   7.055
10227POPC   C4B59566   6.021  35.958   7.355
10228POPC   NC359567  10.497   8.206   5.555
10228POPC   PO459568  10.546   8.195   5.855
10228POPC   GL159569  10.515   8.196   6.155
10228POPC   GL259570  10.552   8.304   6.155
10228POPC   C1A59571  10.517   8.185   6.455
10228POPC   D2A59572  10.524   8.217   6.755
10228POPC   C3A59573  10.508   8.179   7.055
10228POPC   C4A59574  10.566   8.213   7.355
10228POPC   C1B59575  10.583   8.417   6.455
10228POPC   C2B59576  10.612   8.401   6.755
10228POPC   C3B59577  10.571   8.395   7.055
10228POPC   C4B59578  10.591   8.454   7.355
10229POPC   NC359579   3.537  32.252   5.555
10229POPC   PO459580   3.518  32.234   5.855
10229POPC   GL159581   3.582  32.269   6.155
10229POPC   GL259582   3.384  32.250   6.155
10229POPC   C1A59583   3.531  32.280   6.455
10229POPC   D2A59584   3.527  32.229   6.755
10229POPC   C3A59585   3.546  32.234   7.055
10229POPC   C4A59586   3.571  32.219   7.355
10229POPC   C1B59587   3.265  32.229   6.455
10229POPC   C2B59588   3.347  32.166   6.755
10229POPC   C3B59589   3.288  32.190   7.055
10229POPC   C4B59590   3.260  32.212   7.355
10230POPC   NC359591  36.144  42.325   5.555
10230POPC   PO459592  36.155  42.326   5.855
10230POPC   GL159593  36.080  42.287   6.155
10230POPC   GL259594  36.234  42.444   6.155
10230POPC   C1A59595  36.097  42.353   6.455
10230POPC   D2A59596  36.080  42.347   6.755
10230POPC   C3A59597  36.148  42.319   7.055
10230POPC   C4A59598  36.098  42.378   7.355
10230POPC   C1B59599  36.313  42.497   6.455
10230POPC   C2B59600  36.337  42.548   6.755
10230POPC   C3B59601  36.289  42.538   7.055
10230POPC   C4B59602  36.284  42.471   7.355
10231POPC   NC359603  16.775  41.581   5.555
10231POPC   PO459604  16.735  41.563   5.855
10231POPC   GL159605  16.743  41.537   6.155
10231POPC   GL259606  16.624  41.511   6.155
10231POPC   C1A59607  16.720  41.575   6.455
10231POPC   D2A59608  16.734  41.571   6.755
10231POPC   C3A59609  16.778  41.604   7.055
10231POPC   C4A59610  16.769  41.588   7.355
10231POPC   C1B59611  16.488  41.550   6.455
10231POPC   C2B59612  16.483  41.559   6.755
10231POPC   C3B59613  16.438  41.528   7.055
10231POPC   C4B59614  16.443  41.499   7.355
10232POPC   NC359615  15.164  23.756   5.555
10232POPC   PO459616  15.214  23.664   5.855
10232POPC   GL159617  15.226  23.729   6.155
10232POPC   GL259618  15.245  23.552   6.155
10232POPC   C1A59619  15.134  23.739   6.455
10232POPC   D2A59620  15.136  23.701   6.755
10232POPC   C3A59621  15.207  23.731   7.055
10232POPC   C4A59622  15.221  23.751   7.355
10232POPC   C1B59623  15.268  23.522   6.455
10232POPC   C2B59624  15.262  23.494   6.755
10232POPC   C3B59625  15.205  23.510   7.055
10232POPC   C4B59626  15.226  23.520   7.355
10233POPC   NC359627   6.597  18.253   5.555
10233POPC   PO459628   6.647  18.314   5.855
10233POPC   GL159629   6.627  18.311   6.155
10233POPC   GL259630   6.667  18.133   6.155
10233POPC   C1A59631   6.693  18.279   6.455
10233POPC   D2A59632   6.656  18.268   6.755
10233POPC   C3A59633   6.604  18.317   7.055
10233POPC   C4A59634   6.607  18.317   7.355
10233POPC   C1B59635   6.729  18.072   6.455
10233POPC   C2B59636   6.685  18.053   6.755
10233POPC   C3B59637   6.667  18.000   7.055
10233POPC   C4B59638   6.656  18.005   7.355
10234POPC   NC359639  13.597  11.278   5.555
10234POPC   PO459640  13.607  11.349   5.855
10234POPC   GL159641  13.589  11.265   6.155
10234POPC   GL259642  13.541  11.325   6.155
10234POPC   C1A59643  13.607  11.283   6.455
10234POPC   D2A59644  13.670  11.328   6.755
10234POPC   C3A59645  13.677  11.250   7.055
10234POPC   C4A59646  13.592  11.328   7.355
10234POPC   C1B59647  13.427  11.442   6.455
10234POPC   C2B59648  13.430  11.407   6.755
10234POPC   C3B59649  13.394  11.408   7.055
10234POPC   C4B59650  13.457  11.450   7.355
10235POPC   NC359651   1.260   8.209   5.555
10235POPC   PO459652   1.252   8.246   5.855
10235POPC   GL159653   1.257   8.166   6.155
10235POPC   GL259654   1.153   8.080   6.155
10235POPC   C1A59655   1.189   8.226   6.455
10235POPC   D2A59656   1.217   8.209   6.755
10235POPC   C3A59657   1.205   8.176   7.055
10235POPC   C4A59658   1.207   8.244   7.355
10235POPC   C1B59659   1.143   7.905   6.455
10235POPC   C2B59660   1.185   7.972   6.755
10235POPC   C3B59661   1.136   7.977   7.055
10235POPC   C4B59662   1.192   7.928   7.355
10236POPC   NC359663  20.635   9.768   5.555
10236POPC   PO459664  20.614   9.745   5.855
10236POPC   GL159665  20.636   9.780   6.155
10236POPC   GL259666  20.686   9.841   6.155
10236POPC   C1A59667  20.604   9.729   6.455
10236POPC   D2A59668  20.656   9.766   6.755
10236POPC   C3A59669  20.595   9.794   7.055
10236POPC   C4A59670  20.603   9.742   7.355
10236POPC   C1B59671  20.719   9.980   6.455
10236POPC   C2B59672  20.762   9.973   6.755
10236POPC   C3B59673  20.768   9.997   7.055
10236POPC   C4B59674  20.687   9.947   7.355
10237POPC   NC359675   5.827  29.113   5.555
10237POPC   PO459676   5.821  29.142   5.855
10237POPC   GL159677   5.843  29.123   6.155
10237POPC   GL259678   5.967  29.211   6.155
10237POPC   C1A59679   5.862  29.177   6.455
10237POPC   D2A59680   5.877  29.145   6.755
10237POPC   C3A59681   5.853  29.123   7.055
10237POPC   C4A59682   5.828  29.170   7.355
10237POPC   C1B59683   6.012  29.354   6.455
10237POPC   C2B59684   6.019  29.314   6.755
10237POPC   C3B59685   6.026  29.328   7.055
10237POPC   C4B59686   6.051  29.309   7.355
10238POPC   NC359687   9.758  38.408   5.555
10238POPC   PO459688   9.773  38.501   5.855
10238POPC   GL159689   9.728  38.487   6.155
10238POPC   GL259690   9.780  38.362   6.155
10238POPC   C1A59691   9.710  38.486   6.455
10238POPC   D2A59692   9.739  38.447   6.755
10238POPC   C3A59693   9.702  38.406   7.055
10238POPC   C4A59694   9.765  38.438   7.355
10238POPC   C1B59695   9.745  38.219   6.455
10238POPC   C2B59696   9.726  38.182   6.755
10238POPC   C3B59697   9.761  38.174   7.055
10238POPC   C4B59698   9.682  38.187   7.355
10239POPC   NC359699  25.307  26.067   5.555
10239POPC   PO459700  25.222  26.044   5.855
10239POPC   GL159701  25.228  26.052   6.155
10239POPC   GL259702  25.260  26.158   6.155
10239POPC   C1A59703  25.259  26.007   6.455
10239POPC   D2A59704  25.262  26.065   6.755
10239POPC   C3A59705  25.283  26.059   7.055
10239POPC   C4A59706  25.254  26.031   7.355
10239POPC   C1B59707  25.220  26.245   6.455
10239POPC   C2B59708  25.214  26.267   6.755
10239POPC   C3B59709  25.194  26.273   7.055
10239POPC   C4B59710  25.235  26.258   7.355
10240POPC   NC359711  36.143   4.314   5.555
10240POPC   PO459712  36.160   4.299   5.855
10240POPC   GL159713  36.079   4.299   6.155
10240POPC   GL259714  36.061   4.456   6.155
10240POPC   C1A59715  36.158   4.270   6.455
10240POPC   D2A59716  36.093   4.287   6.755
10240POPC   C3A59717  36.162   4.364   7.055
10240POPC   C4A59718  36.137   4.359   7.355
10240POPC   C1B59719  36.000   4.511   6.455
10240POPC   C2B59720  35.977   4.563   6.755
10240POPC   C3B59721  36.008   4.535   7.055
10240POPC   C4B59722  35.997   4.578   7.355
10241POPC   NC359723  27.549  39.276   5.555
10241POPC   PO459724  27.620  39.209   5.855
10241POPC   GL159725  27.627  39.193   6.155
10241POPC   GL259726  27.582  39.295   6.155
10241POPC   C1A59727  27.626  39.196   6.455
10241POPC   D2A59728  27.583  39.195   6.755
10241POPC   C3A59729  27.562  39.188   7.055
10241POPC   C4A59730  27.563  39.244   7.355
10241POPC   C1B59731  27.444  39.494   6.455
10241POPC   C2B59732  27.519  39.436   6.755
10241POPC   C3B59733  27.497  39.489   7.055
10241POPC   C4B59734  27.477  39.443   7.355
10242POPC   NC359735  26.832  25.269   5.555
10242POPC   PO459736  26.820  25.227   5.855
10242POPC   GL159737  26.784  25.281   6.155
10242POPC   GL259738  26.856  25.342   6.155
10242POPC   C1A59739  26.852  25.254   6.455
10242POPC   D2A59740  26.823  25.292   6.755
10242POPC   C3A59741  26.774  25.304   7.055
10242POPC   C4A59742  26.824  25.266   7.355
10242POPC   C1B59743  26.843  25.516   6.455
10242POPC   C2B59744  26.881  25.477   6.755
10242POPC   C3B59745  26.854  25.476   7.055
10242POPC   C4B59746  26.880  25.561   7.355
10243POPC   NC359747  12.821   6.613   5.555
10243POPC   PO459748  12.824   6.602   5.855
10243POPC   GL159749  12.841   6.637   6.155
10243POPC   GL259750  12.924   6.536   6.155
10243POPC   C1A59751  12.865   6.629   6.455
10243POPC   D2A59752  12.898   6.626   6.755
10243POPC   C3A59753  12.834   6.680   7.055
10243POPC   C4A59754  12.872   6.682   7.355
10243POPC   C1B59755  12.968   6.406   6.455
10243POPC   C2B59756  12.961   6.406   6.755
10243POPC   C3B59757  12.956   6.417   7.055
10243POPC   C4B59758  12.911   6.453   7.355
10244POPC   NC359759  10.558  40.023   5.555
10244POPC   PO459760  10.527  40.000   5.855
10244POPC   GL159761  10.505  40.034   6.155
10244POPC   GL259762  10.387  40.063   6.155
10244POPC   C1A59763  10.517  40.019   6.455
10244POPC   D2A59764  10.561  40.026   6.755
10244POPC   C3A59765  10.526  39.999   7.055
10244POPC   C4A59766  10.502  40.013   7.355
10244POPC   C1B59767  10.314  40.091   6.455
10244POPC   C2B59768  10.291  40.115   6.755
10244POPC   C3B59769  10.268  40.084   7.055
10244POPC   C4B59770  10.325  40.069   7.355
10245POPC   NC359771  22.133  36.945   5.555
10245POPC   PO459772  22.141  36.869   5.855
10245POPC   GL159773  22.197  36.861   6.155
10245POPC   GL259774  22.266  36.840   6.155
10245POPC   C1A59775  22.165  36.950   6.455
10245POPC   D2A59776  22.177  36.862   6.755
10245POPC   C3A59777  22.182  36.927   7.055
10245POPC   C4A59778  22.143  36.876   7.355
10245POPC   C1B59779  22.370  36.802   6.455
10245POPC   C2B59780  22.368  36.728   6.755
10245POPC   C3B59781  22.354  36.728   7.055
10245POPC   C4B59782  22.415  36.797   7.355
10246POPC   NC359783  39.192  20.617   5.555
10246POPC   PO459784  39.281  20.612   5.855
10246POPC   GL159785  39.272  20.564   6.155
10246POPC   GL259786  39.333  20.567   6.155
10246POPC   C1A59787  39.257  20.590   6.455
10246POPC   D2A59788  39.229  20.627   6.755
10246POPC   C3A59789  39.198  20.594   7.055
10246POPC   C4A59790  39.275  20.652   7.355
10246POPC   C1B59791  39.527  20.610   6.455
10246POPC   C2B59792  39.467  20.594   6.755
10246POPC   C3B59793  39.514  20.601   7.055
10246POPC   C4B59794  39.445  20.602   7.355
10247POPC   NC359795  39.215  27.612   5.555
10247POPC   PO459796  39.246  27.574   5.855
10247POPC   GL159797  39.275  27.637   6.155
10247POPC   GL259798  39.267  27.703   6.155
10247POPC   C1A59799  39.185  27.597   6.455
10247POPC   D2A59800  39.194  27.571   6.755
10247POPC   C3A59801  39.267  27.553   7.055
10247POPC   C4A59802  39.266  27.612   7.355
10247POPC   C1B59803  39.381  27.837   6.455
10247POPC   C2B59804  39.333  27.814   6.755
10247POPC   C3B59805  39.418  27.758   7.055
10247POPC   C4B59806  39.388  27.803   7.355
10248POPC   NC359807   5.905   8.223   5.555
10248POPC   PO459808   5.828   8.212   5.855
10248POPC   GL159809   5.907   8.213   6.155
10248POPC   GL259810   5.885   8.328   6.155
10248POPC   C1A59811   5.868   8.184   6.455
10248POPC   D2A59812   5.879   8.202   6.755
10248POPC   C3A59813   5.843   8.224   7.055
10248POPC   C4A59814   5.911   8.183   7.355
10248POPC   C1B59815   5.920   8.453   6.455
10248POPC   C2B59816   5.880   8.429   6.755
10248POPC   C3B59817   5.882   8.443   7.055
10248POPC   C4B59818   5.869   8.471   7.355
10249POPC   NC359819  25.252  25.279   5.555
10249POPC   PO459820  25.307  25.287   5.855
10249POPC   GL159821  25.258  25.306   6.155
10249POPC   GL259822  25.119  25.258   6.155
10249POPC   C1A59823  25.229  25.309   6.455
10249POPC   D2A59824  25.276  25.292   6.755
10249POPC   C3A59825  25.230  25.255   7.055
10249POPC   C4A59826  25.300  25.228   7.355
10249POPC   C1B59827  25.049  25.313   6.455
10249POPC   C2B59828  24.986  25.302   6.755
10249POPC   C3B59829  25.073  25.320   7.055
10249POPC   C4B59830  24.979  25.347   7.355
10250POPC   NC359831  16.709  13.678   5.555
10250POPC   PO459832  16.709  13.625   5.855
10250POPC   GL159833  16.768  13.588   6.155
10250POPC   GL259834  16.693  13.744   6.155
10250POPC   C1A59835  16.692  13.627   6.455
10250POPC   D2A59836  16.773  13.585   6.755
10250POPC   C3A59837  16.747  13.658   7.055
10250POPC   C4A59838  16.764  13.648   7.355
10250POPC   C1B59839  16.696  13.848   6.455
10250POPC   C2B59840  16.702  13.852   6.755
10250POPC   C3B59841  16.742  13.923   7.055
10250POPC   C4B59842  16.747  13.872   7.355
10251POPC   NC359843   2.791  11.313   5.555
10251POPC   PO459844   2.814  11.282   5.855
10251POPC   GL159845   2.742  11.322   6.155
10251POPC   GL259846   2.612  11.323   6.155
10251POPC   C1A59847   2.736  11.285   6.455
10251POPC   D2A59848   2.812  11.334   6.755
10251POPC   C3A59849   2.785  11.305   7.055
10251POPC   C4A59850   2.767  11.259   7.355
10251POPC   C1B59851   2.527  11.295   6.455
10251POPC   C2B59852   2.514  11.291   6.755
10251POPC   C3B59853   2.552  11.316   7.055
10251POPC   C4B59854   2.515  11.318   7.355
10252POPC   NC359855  17.534  40.020   5.555
10252POPC   PO459856  17.488  40.048   5.855
10252POPC   GL159857  17.527  40.045   6.155
10252POPC   GL259858  17.448  39.918   6.155
10252POPC   C1A59859  17.499  40.025   6.455
10252POPC   D2A59860  17.505  40.029   6.755
10252POPC   C3A59861  17.513  39.973   7.055
10252POPC   C4A59862  17.475  40.027   7.355
10252POPC   C1B59863  17.313  39.857   6.455
10252POPC   C2B59864  17.277  39.830   6.755
10252POPC   C3B59865  17.278  39.827   7.055
10252POPC   C4B59866  17.317  39.907   7.355
10253POPC   NC359867   9.725  14.414   5.555
10253POPC   PO459868   9.716  14.394   5.855
10253POPC   GL159869   9.739  14.406   6.155
10253POPC   GL259870   9.687  14.352   6.155
10253POPC   C1A59871   9.733  14.420   6.455
10253POPC   D2A59872   9.723  14.441   6.755
10253POPC   C3A59873   9.771  14.376   7.055
10253POPC   C4A59874   9.719  14.404   7.355
10253POPC   C1B59875   9.573  14.201   6.455
10253POPC   C2B59876   9.534  14.205   6.755
10253POPC   C3B59877   9.624  14.203   7.055
10253POPC   C4B59878   9.582  14.230   7.355
10254POPC   NC359879   3.508  10.559   5.555
10254POPC   PO459880   3.503  10.571   5.855
10254POPC   GL159881   3.533  10.539   6.155
10254POPC   GL259882   3.460  10.491   6.155
10254POPC   C1A59883   3.495  10.512   6.455
10254POPC   D2A59884   3.536  10.521   6.755
10254POPC   C3A59885   3.505  10.525   7.055
10254POPC   C4A59886   3.529  10.542   7.355
10254POPC   C1B59887   3.255  10.500   6.455
10254POPC   C2B59888   3.316  10.466   6.755
10254POPC   C3B59889   3.322  10.491   7.055
10254POPC   C4B59890   3.269  10.443   7.355
10255POPC   NC359891   8.211   8.190   5.555
10255POPC   PO459892   8.153   8.236   5.855
10255POPC   GL159893   8.155   8.223   6.155
10255POPC   GL259894   8.279   8.043   6.155
10255POPC   C1A59895   8.183   8.165   6.455
10255POPC   D2A59896   8.208   8.212   6.755
10255POPC   C3A59897   8.187   8.217   7.055
10255POPC   C4A59898   8.212   8.230   7.355
10255POPC   C1B59899   8.288   7.938   6.455
10255POPC   C2B59900   8.371   8.006   6.755
10255POPC   C3B59901   8.316   8.035   7.055
10255POPC   C4B59902   8.376   7.961   7.355
10256POPC   NC359903  19.053  22.121   5.555
10256POPC   PO459904  19.014  22.143   5.855
10256POPC   GL159905  19.032  22.156   6.155
10256POPC   GL259906  18.975  22.292   6.155
10256POPC   C1A59907  19.095  22.145   6.455
10256POPC   D2A59908  19.035  22.180   6.755
10256POPC   C3A59909  19.086  22.162   7.055
10256POPC   C4A59910  19.056  22.188   7.355
10256POPC   C1B59911  18.904  22.417   6.455
10256POPC   C2B59912  18.915  22.362   6.755
10256POPC   C3B59913  18.970  22.367   7.055
10256POPC   C4B59914  18.905  22.340   7.355
10257POPC   NC359915  36.909   2.772   5.555
10257POPC   PO459916  36.857   2.738   5.855
10257POPC   GL159917  36.880   2.802   6.155
10257POPC   GL259918  36.892   2.920   6.155
10257POPC   C1A59919  36.857   2.724   6.455
10257POPC   D2A59920  36.916   2.752   6.755
10257POPC   C3A59921  36.919   2.760   7.055
10257POPC   C4A59922  36.897   2.738   7.355
10257POPC   C1B59923  36.943   3.045   6.455
10257POPC   C2B59924  36.915   3.021   6.755
10257POPC   C3B59925  36.900   3.045   7.055
10257POPC   C4B59926  36.924   3.060   7.355
10258POPC   NC359927  15.212  14.405   5.555
10258POPC   PO459928  15.223  14.365   5.855
10258POPC   GL159929  15.191  14.412   6.155
10258POPC   GL259930  15.263  14.393   6.155
10258POPC   C1A59931  15.210  14.425   6.455
10258POPC   D2A59932  15.205  14.396   6.755
10258POPC   C3A59933  15.182  14.440   7.055
10258POPC   C4A59934  15.133  14.430   7.355
10258POPC   C1B59935  15.478  14.352   6.455
10258POPC   C2B59936  15.447  14.408   6.755
10258POPC   C3B59937  15.433  14.358   7.055
10258POPC   C4B59938  15.433  14.420   7.355
10259POPC   NC359939  28.409  41.511   5.555
10259POPC   PO459940  28.377  41.584   5.855
10259POPC   GL159941  28.335  41.570   6.155
10259POPC   GL259942  28.370  41.482   6.155
10259POPC   C1A59943  28.411  41.512   6.455
10259POPC   D2A59944  28.343  41.551   6.755
10259POPC   C3A59945  28.408  41.551   7.055
10259POPC   C4A59946  28.370  41.597   7.355
10259POPC   C1B59947  28.286  41.357   6.455
10259POPC   C2B59948  28.311  41.305   6.755
10259POPC   C3B59949  28.326  41.322   7.055
10259POPC   C4B59950  28.329  41.320   7.355
10260POPC   NC359951  15.941  25.258   5.555
10260POPC   PO459952  15.906  25.264   5.855
10260POPC   GL159953  15.951  25.222   6.155
10260POPC   GL259954  16.103  25.261   6.155
10260POPC   C1A59955  15.924  25.257   6.455
10260POPC   D2A59956  15.992  25.313   6.755
10260POPC   C3A59957  15.988  25.274   7.055
10260POPC   C4A59958  15.942  25.271   7.355
10260POPC   C1B59959  16.186  25.146   6.455
10260POPC   C2B59960  16.219  25.182   6.755
10260POPC   C3B59961  16.187  25.168   7.055
10260POPC   C4B59962  16.238  25.216   7.355
10261POPC   NC359963  43.117  32.293   5.555
10261POPC   PO459964  43.133  32.243   5.855
10261POPC   GL159965  43.115  32.265   6.155
10261POPC   GL259966  42.971  32.260   6.155
10261POPC   C1A59967  43.098  32.273   6.455
10261POPC   D2A59968  43.070  32.280   6.755
10261POPC   C3A59969  43.137  32.224   7.055
10261POPC   C4A59970  43.121  32.291   7.355
10261POPC   C1B59971  42.826  32.316   6.455
10261POPC   C2B59972  42.837  32.296   6.755
10261POPC   C3B59973  42.902  32.248   7.055
10261POPC   C4B59974  42.882  32.316   7.355
10262POPC   NC359975  37.651  18.275   5.555
10262POPC   PO459976  37.707  18.276   5.855
10262POPC   GL159977  37.674  18.260   6.155
10262POPC   GL259978  37.719  18.371   6.155
10262POPC   C1A59979  37.645  18.290   6.455
10262POPC   D2A59980  37.695  18.233   6.755
10262POPC   C3A59981  37.684  18.266   7.055
10262POPC   C4A59982  37.657  18.306   7.355
10262POPC   C1B59983  37.709  18.509   6.455
10262POPC   C2B59984  37.751  18.538   6.755
10262POPC   C3B59985  37.747  18.573   7.055
10262POPC   C4B59986  37.721  18.537   7.355
10263POPC   NC359987  14.417  26.798   5.555
10263POPC   PO459988  14.403  26.862   5.855
10263POPC   GL159989  14.444  26.795   6.155
10263POPC   GL259990  14.356  26.731   6.155
10263POPC   C1A59991  14.401  26.866   6.455
10263POPC   D2A59992  14.389  26.845   6.755
10263POPC   C3A59993  14.433  26.863   7.055
10263POPC   C4A59994  14.406  26.790   7.355
10263POPC   C1B59995  14.264  26.595   6.455
10263POPC   C2B59996  14.238  26.597   6.755
10263POPC   C3B59997  14.241  26.584   7.055
10263POPC   C4B59998  14.288  26.643   7.355
10264POPC   NC359999  13.652  15.214   5.555
10264POPC   PO460000  13.666  15.185   5.855
10264POPC   GL160001  13.673  15.207   6.155
10264POPC   GL260002  13.732  15.241   6.155
10264POPC   C1A60003  13.608  15.186   6.455
10264POPC   D2A60004  13.605  15.191   6.755
10264POPC   C3A60005  13.661  15.224   7.055
10264POPC   C4A60006  13.581  15.220   7.355
10264POPC   C1B60007  13.921  15.207   6.455
10264POPC   C2B60008  13.871  15.230   6.755
10264POPC   C3B60009  13.919  15.266   7.055
10264POPC   C4B60010  13.857  15.205   7.355
10265POPC   NC360011  35.314   1.994   5.555
10265POPC   PO460012  35.312   2.009   5.855
10265POPC   GL160013  35.350   2.016   6.155
10265POPC   GL260014  35.316   1.856   6.155
10265POPC   C1A60015  35.319   1.970   6.455
10265POPC   D2A60016  35.339   1.981   6.755
10265POPC   C3A60017  35.330   2.031   7.055
10265POPC   C4A60018  35.340   1.946   7.355
10265POPC   C1B60019  35.375   1.697   6.455
10265POPC   C2B60020  35.363   1.753   6.755
10265POPC   C3B60021  35.416   1.728   7.055
10265POPC   C4B60022  35.368   1.783   7.355
10266POPC   NC360023  17.512  20.651   5.555
10266POPC   PO460024  17.525  20.577   5.855
10266POPC   GL160025  17.499  20.577   6.155
10266POPC   GL260026  17.509  20.480   6.155
10266POPC   C1A60027  17.464  20.599   6.455
10266POPC   D2A60028  17.470  20.629   6.755
10266POPC   C3A60029  17.552  20.623   7.055
10266POPC   C4A60030  17.528  20.585   7.355
10266POPC   C1B60031  17.605  20.428   6.455
10266POPC   C2B60032  17.606  20.419   6.755
10266POPC   C3B60033  17.554  20.357   7.055
10266POPC   C4B60034  17.632  20.398   7.355
10267POPC   NC360035   3.521   8.947   5.555
10267POPC   PO460036   3.542   9.017   5.855
10267POPC   GL160037   3.554   8.988   6.155
10267POPC   GL260038   3.631   8.947   6.155
10267POPC   C1A60039   3.549   8.924   6.455
10267POPC   D2A60040   3.574   8.950   6.755
10267POPC   C3A60041   3.540   8.953   7.055
10267POPC   C4A60042   3.543   8.989   7.355
10267POPC   C1B60043   3.791   8.933   6.455
10267POPC   C2B60044   3.754   8.944   6.755
10267POPC   C3B60045   3.764   8.887   7.055
10267POPC   C4B60046   3.785   8.920   7.355
10268POPC   NC360047  42.362   5.104   5.555
10268POPC   PO460048  42.285   5.077   5.855
10268POPC   GL160049  42.305   5.131   6.155
10268POPC   GL260050  42.344   5.203   6.155
10268POPC   C1A60051  42.295   5.078   6.455
10268POPC   D2A60052  42.292   5.090   6.755
10268POPC   C3A60053  42.299   5.060   7.055
10268POPC   C4A60054  42.353   5.075   7.355
10268POPC   C1B60055  42.319   5.349   6.455
10268POPC   C2B60056  42.297   5.294   6.755
10268POPC   C3B60057  42.302   5.329   7.055
10268POPC   C4B60058  42.386   5.335   7.355
10269POPC   NC360059  32.260   9.722   5.555
10269POPC   PO460060  32.262   9.710   5.855
10269POPC   GL160061  32.268   9.719   6.155
10269POPC   GL260062  32.392   9.724   6.155
10269POPC   C1A60063  32.277   9.718   6.455
10269POPC   D2A60064  32.290   9.758   6.755
10269POPC   C3A60065  32.282   9.775   7.055
10269POPC   C4A60066  32.236   9.768   7.355
10269POPC   C1B60067  32.515   9.618   6.455
10269POPC   C2B60068  32.477   9.615   6.755
10269POPC   C3B60069  32.486   9.619   7.055
10269POPC   C4B60070  32.484   9.692   7.355
10270POPC   NC360071   7.430   8.238   5.555
10270POPC   PO460072   7.434   8.205   5.855
10270POPC   GL160073   7.456   8.160   6.155
10270POPC   GL260074   7.583   8.261   6.155
10270POPC   C1A60075   7.436   8.186   6.455
10270POPC   D2A60076   7.429   8.240   6.755
10270POPC   C3A60077   7.471   8.164   7.055
10270POPC   C4A60078   7.414   8.235   7.355
10270POPC   C1B60079   7.648   8.268   6.455
10270POPC   C2B60080   7.700   8.219   6.755
10270POPC   C3B60081   7.667   8.186   7.055
10270POPC   C4B60082   7.696   8.225   7.355
10271POPC   NC360083  13.674  30.706   5.555
10271POPC   PO460084  13.592  30.679   5.855
10271POPC   GL160085  13.606  30.726   6.155
10271POPC   GL260086  13.515  30.677   6.155
10271POPC   C1A60087  13.654  30.745   6.455
10271POPC   D2A60088  13.660  30.715   6.755
10271POPC   C3A60089  13.649  30.716   7.055
10271POPC   C4A60090  13.629  30.684   7.355
10271POPC   C1B60091  13.414  30.582   6.455
10271POPC   C2B60092  13.416  30.574   6.755
10271POPC   C3B60093  13.414  30.621   7.055
10271POPC   C4B60094  13.381  30.613   7.355
10272POPC   NC360095  40.047  15.151   5.555
10272POPC   PO460096  39.988  15.200   5.855
10272POPC   GL160097  40.021  15.221   6.155
10272POPC   GL260098  39.935  15.248   6.155
10272POPC   C1A60099  39.973  15.190   6.455
10272POPC   D2A60100  39.992  15.169   6.755
10272POPC   C3A60101  40.017  15.226   7.055
10272POPC   C4A60102  40.022  15.223   7.355
10272POPC   C1B60103  39.839  15.408   6.455
10272POPC   C2B60104  39.843  15.393   6.755
10272POPC   C3B60105  39.887  15.396   7.055
10272POPC   C4B60106  39.820  15.387   7.355
10273POPC   NC360107  35.373  41.557   5.555
10273POPC   PO460108  35.390  41.603   5.855
10273POPC   GL160109  35.366  41.580   6.155
10273POPC   GL260110  35.445  41.500   6.155
10273POPC   C1A60111  35.317  41.514   6.455
10273POPC   D2A60112  35.376  41.510   6.755
10273POPC   C3A60113  35.353  41.509   7.055
10273POPC   C4A60114  35.336  41.529   7.355
10273POPC   C1B60115  35.646  41.501   6.455
10273POPC   C2B60116  35.637  41.553   6.755
10273POPC   C3B60117  35.611  41.543   7.055
10273POPC   C4B60118  35.614  41.532   7.355
10274POPC   NC360119  22.199  35.359   5.555
10274POPC   PO460120  22.150  35.373   5.855
10274POPC   GL160121  22.126  35.398   6.155
10274POPC   GL260122  22.075  35.274   6.155
10274POPC   C1A60123  22.192  35.356   6.455
10274POPC   D2A60124  22.151  35.375   6.755
10274POPC   C3A60125  22.198  35.343   7.055
10274POPC   C4A60126  22.126  35.353   7.355
10274POPC   C1B60127  21.977  35.150   6.455
10274POPC   C2B60128  21.993  35.131   6.755
10274POPC   C3B60129  22.011  35.181   7.055
10274POPC   C4B60130  22.017  35.156   7.355
10275POPC   NC360131  39.186  29.121   5.555
10275POPC   PO460132  39.212  29.170   5.855
10275POPC   GL160133  39.277  29.163   6.155
10275POPC   GL260134  39.274  29.098   6.155
10275POPC   C1A60135  39.186  29.162   6.455
10275POPC   D2A60136  39.267  29.187   6.755
10275POPC   C3A60137  39.233  29.142   7.055
10275POPC   C4A60138  39.219  29.181   7.355
10275POPC   C1B60139  39.439  28.936   6.455
10275POPC   C2B60140  39.385  29.005   6.755
10275POPC   C3B60141  39.393  28.950   7.055
10275POPC   C4B60142  39.398  28.931   7.355
10276POPC   NC360143   8.193  26.824   5.555
10276POPC   PO460144   8.163  26.826   5.855
10276POPC   GL160145   8.208  26.790   6.155
10276POPC   GL260146   8.240  26.742   6.155
10276POPC   C1A60147   8.223  26.828   6.455
10276POPC   D2A60148   8.190  26.813   6.755
10276POPC   C3A60149   8.171  26.824   7.055
10276POPC   C4A60150   8.231  26.779   7.355
10276POPC   C1B60151   8.232  26.571   6.455
10276POPC   C2B60152   8.290  26.551   6.755
10276POPC   C3B60153   8.290  26.554   7.055
10276POPC   C4B60154   8.289  26.607   7.355
10277POPC   NC360155  19.069  40.786   5.555
10277POPC   PO460156  19.038  40.796   5.855
10277POPC   GL160157  19.063  40.824   6.155
10277POPC   GL260158  18.951  40.829   6.155
10277POPC   C1A60159  19.088  40.781   6.455
10277POPC   D2A60160  19.079  40.785   6.755
10277POPC   C3A60161  19.094  40.734   7.055
10277POPC   C4A60162  19.048  40.821   7.355
10277POPC   C1B60163  18.836  40.847   6.455
10277POPC   C2B60164  18.792  40.861   6.755
10277POPC   C3B60165  18.813  40.881   7.055
10277POPC   C4B60166  18.789  40.866   7.355
10278POPC   NC360167   2.780   8.227   5.555
10278POPC   PO460168   2.721   8.201   5.855
10278POPC   GL160169   2.782   8.230   6.155
10278POPC   GL260170   2.643   8.302   6.155
10278POPC   C1A60171   2.716   8.188   6.455
10278POPC   D2A60172   2.803   8.206   6.755
10278POPC   C3A60173   2.781   8.190   7.055
10278POPC   C4A60174   2.727   8.187   7.355
10278POPC   C1B60175   2.603   8.377   6.455
10278POPC   C2B60176   2.594   8.421   6.755
10278POPC   C3B60177   2.571   8.356   7.055
10278POPC   C4B60178   2.631   8.415   7.355
10279POPC   NC360179  17.481  32.979   5.555
10279POPC   PO460180  17.520  33.045   5.855
10279POPC   GL160181  17.538  33.048   6.155
10279POPC   GL260182  17.581  33.124   6.155
10279POPC   C1A60183  17.549  32.985   6.455
10279POPC   D2A60184  17.473  33.050   6.755
10279POPC   C3A60185  17.530  33.015   7.055
10279POPC   C4A60186  17.550  33.062   7.355
10279POPC   C1B60187  17.727  33.134   6.455
10279POPC   C2B60188  17.736  33.195   6.755
10279POPC   C3B60189  17.663  33.217   7.055
10279POPC   C4B60190  17.679  33.151   7.355
10280POPC   NC360191  35.357   4.301   5.555
10280POPC   PO460192  35.322   4.318   5.855
10280POPC   GL160193  35.309   4.336   6.155
10280POPC   GL260194  35.288   4.386   6.155
10280POPC   C1A60195  35.384   4.286   6.455
10280POPC   D2A60196  35.309   4.268   6.755
10280POPC   C3A60197  35.364   4.288   7.055
10280POPC   C4A60198  35.312   4.362   7.355
10280POPC   C1B60199  35.131   4.489   6.455
10280POPC   C2B60200  35.191   4.476   6.755
10280POPC   C3B60201  35.121   4.438   7.055
10280POPC   C4B60202  35.142   4.464   7.355
10281POPC   NC360203  11.263   4.346   5.555
10281POPC   PO460204  11.349   4.294   5.855
10281POPC   GL160205  11.323   4.271   6.155
10281POPC   GL260206  11.387   4.239   6.155
10281POPC   C1A60207  11.334   4.364   6.455
10281POPC   D2A60208  11.290   4.336   6.755
10281POPC   C3A60209  11.316   4.302   7.055
10281POPC   C4A60210  11.324   4.337   7.355
10281POPC   C1B60211  11.527   4.232   6.455
10281POPC   C2B60212  11.484   4.178   6.755
10281POPC   C3B60213  11.531   4.228   7.055
10281POPC   C4B60214  11.564   4.215   7.355
10282POPC   NC360215  16.000   3.511   5.555
10282POPC   PO460216  15.932   3.508   5.855
10282POPC   GL160217  15.932   3.502   6.155
10282POPC   GL260218  16.000   3.419   6.155
10282POPC   C1A60219  15.965   3.514   6.455
10282POPC   D2A60220  15.912   3.534   6.755
10282POPC   C3A60221  15.958   3.547   7.055
10282POPC   C4A60222  15.956   3.501   7.355
10282POPC   C1B60223  16.010   3.339   6.455
10282POPC   C2B60224  15.997   3.291   6.755
10282POPC   C3B60225  15.996   3.285   7.055
10282POPC   C4B60226  15.922   3.249   7.355
10283POPC   NC360227  10.563  43.116   5.555
10283POPC   PO460228  10.511  43.149   5.855
10283POPC   GL160229  10.485  43.159   6.155
10283POPC   GL260230  10.540  43.011   6.155
10283POPC   C1A60231  10.542  43.159   6.455
10283POPC   D2A60232  10.552  43.079   6.755
10283POPC   C3A60233  10.511  43.072   7.055
10283POPC   C4A60234  10.530  43.109   7.355
10283POPC   C1B60235  10.602  42.889   6.455
10283POPC   C2B60236  10.518  42.820   6.755
10283POPC   C3B60237  10.529  42.826   7.055
10283POPC   C4B60238  10.562  42.910   7.355
10284POPC   NC360239   7.439   1.962   5.555
10284POPC   PO460240   7.434   1.940   5.855
10284POPC   GL160241   7.414   1.996   6.155
10284POPC   GL260242   7.426   1.845   6.155
10284POPC   C1A60243   7.451   1.996   6.455
10284POPC   D2A60244   7.444   2.037   6.755
10284POPC   C3A60245   7.419   2.003   7.055
10284POPC   C4A60246   7.411   1.954   7.355
10284POPC   C1B60247   7.425   1.700   6.455
10284POPC   C2B60248   7.363   1.751   6.755
10284POPC   C3B60249   7.423   1.739   7.055
10284POPC   C4B60250   7.342   1.753   7.355
10285POPC   NC360251  18.245   6.686   5.555
10285POPC   PO460252  18.237   6.648   5.855
10285POPC   GL160253  18.283   6.604   6.155
10285POPC   GL260254  18.294   6.705   6.155
10285POPC   C1A60255  18.330   6.647   6.455
10285POPC   D2A60256  18.243   6.637   6.755
10285POPC   C3A60257  18.289   6.667   7.055
10285POPC   C4A60258  18.245   6.619   7.355
10285POPC   C1B60259  18.352   6.869   6.455
10285POPC   C2B60260  18.395   6.891   6.755
10285POPC   C3B60261  18.364   6.828   7.055
10285POPC   C4B60262  18.440   6.816   7.355
10286POPC   NC360263  41.589   4.365   5.555
10286POPC   PO460264  41.522   4.332   5.855
10286POPC   GL160265  41.543   4.276   6.155
10286POPC   GL260266  41.492   4.384   6.155
10286POPC   C1A60267  41.512   4.288   6.455
10286POPC   D2A60268  41.606   4.309   6.755
10286POPC   C3A60269  41.547   4.338   7.055
10286POPC   C4A60270  41.580   4.326   7.355
10286POPC   C1B60271  41.395   4.455   6.455
10286POPC   C2B60272  41.352   4.510   6.755
10286POPC   C3B60273  41.435   4.466   7.055
10286POPC   C4B60274  41.353   4.511   7.355
10287POPC   NC360275   5.082  15.143   5.555
10287POPC   PO460276   5.059  15.169   5.855
10287POPC   GL160277   5.079  15.152   6.155
10287POPC   GL260278   5.192  15.332   6.155
10287POPC   C1A60279   5.056  15.196   6.455
10287POPC   D2A60280   5.138  15.161   6.755
10287POPC   C3A60281   5.051  15.179   7.055
10287POPC   C4A60282   5.087  15.176   7.355
10287POPC   C1B60283   5.185  15.392   6.455
10287POPC   C2B60284   5.254  15.399   6.755
10287POPC   C3B60285   5.184  15.368   7.055
10287POPC   C4B60286   5.219  15.422   7.355
10288POPC   NC360287  39.225   5.875   5.555
10288POPC   PO460288  39.226   5.845   5.855
10288POPC   GL160289  39.183   5.829   6.155
10288POPC   GL260290  39.141   5.829   6.155
10288POPC   C1A60291  39.250   5.909   6.455
10288POPC   D2A60292  39.202   5.902   6.755
10288POPC   C3A60293  39.211   5.889   7.055
10288POPC   C4A60294  39.272   5.864   7.355
10288POPC   C1B60295  39.028   5.832   6.455
10288POPC   C2B60296  38.956   5.791   6.755
10288POPC   C3B60297  38.937   5.856   7.055
10288POPC   C4B60298  38.960   5.825   7.355
10289POPC   NC360299  21.384   7.468   5.555
10289POPC   PO460300  21.433   7.406   5.855
10289POPC   GL160301  21.352   7.408   6.155
10289POPC   GL260302  21.359   7.525   6.155
10289POPC   C1A60303  21.353   7.458   6.455
10289POPC   D2A60304  21.358   7.436   6.755
10289POPC   C3A60305  21.383   7.456   7.055
10289POPC   C4A60306  21.433   7.398   7.355
10289POPC   C1B60307  21.419   7.639   6.455
10289POPC   C2B60308  21.437   7.711   6.755
10289POPC   C3B60309  21.465   7.703   7.055
10289POPC   C4B60310  21.422   7.635   7.355
10290POPC   NC360311  40.772  24.466   5.555
10290POPC   PO460312  40.822  24.508   5.855
10290POPC   GL160313  40.758  24.463   6.155
10290POPC   GL260314  40.703  24.551   6.155
10290POPC   C1A60315  40.751  24.525   6.455
10290POPC   D2A60316  40.811  24.495   6.755
10290POPC   C3A60317  40.813  24.446   7.055
10290POPC   C4A60318  40.779  24.534   7.355
10290POPC   C1B60319  40.514  24.507   6.455
10290POPC   C2B60320  40.498  24.556   6.755
10290POPC   C3B60321  40.539  24.511   7.055
10290POPC   C4B60322  40.493  24.556   7.355
10291POPC   NC360323   9.720  40.006   5.555
10291POPC   PO460324   9.781  40.033   5.855
10291POPC   GL160325   9.760  40.022   6.155
10291POPC   GL260326   9.767  39.842   6.155
10291POPC   C1A60327   9.783  39.970   6.455
10291POPC   D2A60328   9.763  40.035   6.755
10291POPC   C3A60329   9.768  40.031   7.055
10291POPC   C4A60330   9.782  39.967   7.355
10291POPC   C1B60331   9.783  39.720   6.455
10291POPC   C2B60332   9.735  39.805   6.755
10291POPC   C3B60333   9.776  39.753   7.055
10291POPC   C4B60334   9.764  39.742   7.355
10292POPC   NC360335  31.519  13.675   5.555
10292POPC   PO460336  31.505  13.641   5.855
10292POPC   GL160337  31.444  13.629   6.155
10292POPC   GL260338  31.531  13.570   6.155
10292POPC   C1A60339  31.517  13.642   6.455
10292POPC   D2A60340  31.503  13.603   6.755
10292POPC   C3A60341  31.434  13.632   7.055
10292POPC   C4A60342  31.436  13.598   7.355
10292POPC   C1B60343  31.684  13.445   6.455
10292POPC   C2B60344  31.643  13.510   6.755
10292POPC   C3B60345  31.707  13.495   7.055
10292POPC   C4B60346  31.682  13.522   7.355
10293POPC   NC360347  38.433   5.828   5.555
10293POPC   PO460348  38.421   5.821   5.855
10293POPC   GL160349  38.438   5.897   6.155
10293POPC   GL260350  38.348   5.747   6.155
10293POPC   C1A60351  38.445   5.894   6.455
10293POPC   D2A60352  38.447   5.886   6.755
10293POPC   C3A60353  38.488   5.902   7.055
10293POPC   C4A60354  38.498   5.909   7.355
10293POPC   C1B60355  38.310   5.679   6.455
10293POPC   C2B60356  38.377   5.642   6.755
10293POPC   C3B60357  38.311   5.665   7.055
10293POPC   C4B60358  38.359   5.615   7.355
10294POPC   NC360359   5.846  31.484   5.555
10294POPC   PO460360   5.850  31.438   5.855
10294POPC   GL160361   5.827  31.426   6.155
10294POPC   GL260362   5.952  31.629   6.155
10294POPC   C1A60363   5.823  31.443   6.455
10294POPC   D2A60364   5.861  31.480   6.755
10294POPC   C3A60365   5.897  31.509   7.055
10294POPC   C4A60366   5.861  31.463   7.355
10294POPC   C1B60367   6.006  31.703   6.455
10294POPC   C2B60368   6.003  31.714   6.755
10294POPC   C3B60369   5.985  31.673   7.055
10294POPC   C4B60370   6.024  31.735   7.355
10295POPC   NC360371   8.222  36.912   5.555
10295POPC   PO460372   8.149  36.873   5.855
10295POPC   GL160373   8.183  36.873   6.155
10295POPC   GL260374   8.303  37.011   6.155
10295POPC   C1A60375   8.227  36.919   6.455
10295POPC   D2A60376   8.226  36.910   6.755
10295POPC   C3A60377   8.170  36.875   7.055
10295POPC   C4A60378   8.210  36.908   7.355
10295POPC   C1B60379   8.302  37.090   6.455
10295POPC   C2B60380   8.296  37.092   6.755
10295POPC   C3B60381   8.332  37.133   7.055
10295POPC   C4B60382   8.340  37.130   7.355
10296POPC   NC360383   8.153   6.613   5.555
10296POPC   PO460384   8.181   6.632   5.855
10296POPC   GL160385   8.219   6.653   6.155
10296POPC   GL260386   8.193   6.723   6.155
10296POPC   C1A60387   8.186   6.638   6.455
10296POPC   D2A60388   8.223   6.600   6.755
10296POPC   C3A60389   8.185   6.642   7.055
10296POPC   C4A60390   8.168   6.606   7.355
10296POPC   C1B60391   8.289   6.918   6.455
10296POPC   C2B60392   8.213   6.932   6.755
10296POPC   C3B60393   8.270   6.847   7.055
10296POPC   C4B60394   8.290   6.927   7.355
10297POPC   NC360395  33.046  43.159   5.555
10297POPC   PO460396  32.977  43.121   5.855
10297POPC   GL160397  33.047  43.066   6.155
10297POPC   GL260398  33.082  43.039   6.155
10297POPC   C1A60399  33.000  43.076   6.455
10297POPC   D2A60400  32.979  43.106   6.755
10297POPC   C3A60401  33.065  43.061   7.055
10297POPC   C4A60402  33.008  43.133   7.355
10297POPC   C1B60403  33.232  42.966   6.455
10297POPC   C2B60404  33.239  42.970   6.755
10297POPC   C3B60405  33.193  42.945   7.055
10297POPC   C4B60406  33.259  42.926   7.355
10298POPC   NC360407  39.973   9.704   5.555
10298POPC   PO460408  39.970   9.720   5.855
10298POPC   GL160409  40.040   9.726   6.155
10298POPC   GL260410  40.149   9.748   6.155
10298POPC   C1A60411  40.049   9.713   6.455
10298POPC   D2A60412  40.025   9.776   6.755
10298POPC   C3A60413  40.008   9.721   7.055
10298POPC   C4A60414  40.048   9.795   7.355
10298POPC   C1B60415  40.290   9.812   6.455
10298POPC   C2B60416  40.292   9.785   6.755
10298POPC   C3B60417  40.224   9.720   7.055
10298POPC   C4B60418  40.289   9.733   7.355
10299POPC   NC360419  43.091  41.565   5.555
10299POPC   PO460420  43.131  41.570   5.855
10299POPC   GL160421  43.129  41.589   6.155
10299POPC   GL260422  43.129  41.633   6.155
10299POPC   C1A60423  43.100  41.588   6.455
10299POPC   D2A60424  43.100  41.578   6.755
10299POPC   C3A60425  43.130  41.550   7.055
10299POPC   C4A60426  43.093  41.527   7.355
10299POPC   C1B60427  43.255  41.814   6.455
10299POPC   C2B60428  43.183  41.795   6.755
10299POPC   C3B60429  43.203  41.773   7.055
10299POPC   C4B60430  43.208  41.777   7.355
10300POPC   NC360431   8.971  43.900   5.555
10300POPC   PO460432   8.946  43.934   5.855
10300POPC   GL160433   8.982  43.849   6.155
10300POPC   GL260434   9.053  43.902   6.155
10300POPC   C1A60435   8.952  43.854   6.455
10300POPC   D2A60436   8.961  43.917   6.755
10300POPC   C3A60437   8.924  43.882   7.055
10300POPC   C4A60438   9.003  43.894   7.355
10300POPC   C1B60439   9.269  43.959   6.455
10300POPC   C2B60440   9.261  43.921   6.755
10300POPC   C3B60441   9.204  43.959   7.055
10300POPC   C4B60442   9.242  43.914   7.355
10301POPC   NC360443  40.001   8.227   5.555
10301POPC   PO460444  39.989   8.212   5.855
10301POPC   GL160445  39.991   8.155   6.155
10301POPC   GL260446  39.990   8.317   6.155
10301POPC   C1A60447  40.044   8.161   6.455
10301POPC   D2A60448  40.046   8.199   6.755
10301POPC   C3A60449  40.031   8.177   7.055
10301POPC   C4A60450  39.967   8.179   7.355
10301POPC   C1B60451  40.097   8.395   6.455
10301POPC   C2B60452  40.071   8.490   6.755
10301POPC   C3B60453  40.070   8.457   7.055
10301POPC   C4B60454  40.063   8.423   7.355
10302POPC   NC360455  18.255  19.058   5.555
10302POPC   PO460456  18.263  19.068   5.855
10302POPC   GL160457  18.249  19.024   6.155
10302POPC   GL260458  18.408  19.170   6.155
10302POPC   C1A60459  18.306  19.085   6.455
10302POPC   D2A60460  18.321  19.050   6.755
10302POPC   C3A60461  18.278  19.103   7.055
10302POPC   C4A60462  18.282  19.044   7.355
10302POPC   C1B60463  18.518  19.182   6.455
10302POPC   C2B60464  18.464  19.170   6.755
10302POPC   C3B60465  18.527  19.168   7.055
10302POPC   C4B60466  18.534  19.156   7.355
10303POPC   NC360467  25.216  39.206   5.555
10303POPC   PO460468  25.286  39.200   5.855
10303POPC   GL160469  25.257  39.194   6.155
10303POPC   GL260470  25.178  39.301   6.155
10303POPC   C1A60471  25.305  39.253   6.455
10303POPC   D2A60472  25.284  39.202   6.755
10303POPC   C3A60473  25.299  39.222   7.055
10303POPC   C4A60474  25.295  39.195   7.355
10303POPC   C1B60475  25.144  39.468   6.455
10303POPC   C2B60476  25.131  39.443   6.755
10303POPC   C3B60477  25.127  39.461   7.055
10303POPC   C4B60478  25.164  39.419   7.355
10304POPC   NC360479  21.375  40.748   5.555
10304POPC   PO460480  21.396  40.737   5.855
10304POPC   GL160481  21.369  40.819   6.155
10304POPC   GL260482  21.549  40.838   6.155
10304POPC   C1A60483  21.377  40.806   6.455
10304POPC   D2A60484  21.375  40.796   6.755
10304POPC   C3A60485  21.393  40.777   7.055
10304POPC   C4A60486  21.389  40.829   7.355
10304POPC   C1B60487  21.627  40.823   6.455
10304POPC   C2B60488  21.616  40.778   6.755
10304POPC   C3B60489  21.667  40.835   7.055
10304POPC   C4B60490  21.625  40.805   7.355
10305POPC   NC360491  43.159  36.124   5.555
10305POPC   PO460492  43.149  36.150   5.855
10305POPC   GL160493  43.070  36.094   6.155
10305POPC   GL260494  43.170  36.042   6.155
10305POPC   C1A60495  43.115  36.110   6.455
10305POPC   D2A60496  43.074  36.169   6.755
10305POPC   C3A60497  43.079  36.105   7.055
10305POPC   C4A60498  43.139  36.117   7.355
10305POPC   C1B60499  43.241  35.901   6.455
10305POPC   C2B60500  43.314  35.975   6.755
10305POPC   C3B60501  43.286  35.984   7.055
10305POPC   C4B60502  43.257  35.947   7.355
10306POPC   NC360503  23.729  12.111   5.555
10306POPC   PO460504  23.683  12.074   5.855
10306POPC   GL160505  23.678  12.083   6.155
10306POPC   GL260506  23.827  11.944   6.155
10306POPC   C1A60507  23.667  12.113   6.455
10306POPC   D2A60508  23.705  12.067   6.755
10306POPC   C3A60509  23.704  12.106   7.055
10306POPC   C4A60510  23.745  12.039   7.355
10306POPC   C1B60511  23.923  11.861   6.455
10306POPC   C2B60512  23.858  11.922   6.755
10306POPC   C3B60513  23.876  11.881   7.055
10306POPC   C4B60514  23.851  11.890   7.355
10307POPC   NC360515  36.931  14.439   5.555
10307POPC   PO460516  36.868  14.378   5.855
10307POPC   GL160517  36.930  14.410   6.155
10307POPC   GL260518  36.754  14.481   6.155
10307POPC   C1A60519  36.862  14.368   6.455
10307POPC   D2A60520  36.874  14.386   6.755
10307POPC   C3A60521  36.908  14.354   7.055
10307POPC   C4A60522  36.914  14.366   7.355
10307POPC   C1B60523  36.651  14.533   6.455
10307POPC   C2B60524  36.658  14.478   6.755
10307POPC   C3B60525  36.718  14.547   7.055
10307POPC   C4B60526  36.679  14.498   7.355
10308POPC   NC360527  42.310   2.772   5.555
10308POPC   PO460528  42.348   2.757   5.855
10308POPC   GL160529  42.329   2.747   6.155
10308POPC   GL260530  42.285   2.888   6.155
10308POPC   C1A60531  42.369   2.809   6.455
10308POPC   D2A60532  42.381   2.738   6.755
10308POPC   C3A60533  42.333   2.805   7.055
10308POPC   C4A60534  42.318   2.743   7.355
10308POPC   C1B60535  42.185   2.954   6.455
10308POPC   C2B60536  42.118   2.953   6.755
10308POPC   C3B60537  42.156   2.943   7.055
10308POPC   C4B60538  42.180   2.921   7.355
10309POPC   NC360539  22.134  37.635   5.555
10309POPC   PO460540  22.140  37.727   5.855
10309POPC   GL160541  22.132  37.705   6.155
10309POPC   GL260542  22.119  37.571   6.155
10309POPC   C1A60543  22.146  37.697   6.455
10309POPC   D2A60544  22.162  37.640   6.755
10309POPC   C3A60545  22.156  37.724   7.055
10309POPC   C4A60546  22.131  37.681   7.355
10309POPC   C1B60547  22.201  37.390   6.455
10309POPC   C2B60548  22.159  37.414   6.755
10309POPC   C3B60549  22.127  37.432   7.055
10309POPC   C4B60550  22.129  37.452   7.355
10310POPC   NC360551  43.856  12.126   5.555
10310POPC   PO460552  43.843  12.118   5.855
10310POPC   GL160553  43.873  12.060   6.155
10310POPC   GL260554  44.060  12.022   6.155
10310POPC   C1A60555  43.895  12.033   6.455
10310POPC   D2A60556  43.880  12.080   6.755
10310POPC   C3A60557  43.857  12.076   7.055
10310POPC   C4A60558  43.859  12.107   7.355
10310POPC   C1B60559  44.176  12.027   6.455
10310POPC   C2B60560  44.101  12.089   6.755
10310POPC   C3B60561  44.173  12.100   7.055
10310POPC   C4B60562  44.167  12.059   7.355
10311POPC   NC360563   9.736   5.128   5.555
10311POPC   PO460564   9.782   5.062   5.855
10311POPC   GL160565   9.789   5.065   6.155
10311POPC   GL260566   9.647   5.045   6.155
10311POPC   C1A60567   9.764   5.065   6.455
10311POPC   D2A60568   9.762   5.104   6.755
10311POPC   C3A60569   9.752   5.136   7.055
10311POPC   C4A60570   9.728   5.057   7.355
10311POPC   C1B60571   9.520   4.933   6.455
10311POPC   C2B60572   9.551   4.986   6.755
10311POPC   C3B60573   9.530   4.922   7.055
10311POPC   C4B60574   9.509   4.984   7.355
10312POPC   NC360575  43.138  12.122   5.555
10312POPC   PO460576  43.148  12.072   5.855
10312POPC   GL160577  43.112  12.041   6.155
10312POPC   GL260578  43.127  12.160   6.155
10312POPC   C1A60579  43.099  12.090   6.455
10312POPC   D2A60580  43.068  12.056   6.755
10312POPC   C3A60581  43.118  12.049   7.055
10312POPC   C4A60582  43.090  12.065   7.355
10312POPC   C1B60583  43.173  12.272   6.455
10312POPC   C2B60584  43.199  12.287   6.755
10312POPC   C3B60585  43.231  12.311   7.055
10312POPC   C4B60586  43.255  12.272   7.355
10313POPC   NC360587  15.186   7.417   5.555
10313POPC   PO460588  15.136   7.387   5.855
10313POPC   GL160589  15.170   7.390   6.155
10313POPC   GL260590  15.271   7.423   6.155
10313POPC   C1A60591  15.167   7.447   6.455
10313POPC   D2A60592  15.143   7.390   6.755
10313POPC   C3A60593  15.197   7.466   7.055
10313POPC   C4A60594  15.211   7.451   7.355
10313POPC   C1B60595  15.368   7.325   6.455
10313POPC   C2B60596  15.414   7.277   6.755
10313POPC   C3B60597  15.378   7.308   7.055
10313POPC   C4B60598  15.403   7.331   7.355
10314POPC   NC360599  13.645  19.869   5.555
10314POPC   PO460600  13.596  19.819   5.855
10314POPC   GL160601  13.590  19.845   6.155
10314POPC   GL260602  13.751  19.858   6.155
10314POPC   C1A60603  13.653  19.845   6.455
10314POPC   D2A60604  13.628  19.853   6.755
10314POPC   C3A60605  13.637  19.793   7.055
10314POPC   C4A60606  13.607  19.870   7.355
10314POPC   C1B60607  13.844  19.984   6.455
10314POPC   C2B60608  13.848  19.962   6.755
10314POPC   C3B60609  13.886  19.923   7.055
10314POPC   C4B60610  13.844  19.948   7.355
10315POPC   NC360611  23.730  43.077   5.555
10315POPC   PO460612  23.739  43.142   5.855
10315POPC   GL160613  23.761  43.142   6.155
10315POPC   GL260614  23.632  42.996   6.155
10315POPC   C1A60615  23.702  43.130   6.455
10315POPC   D2A60616  23.740  43.140   6.755
10315POPC   C3A60617  23.721  43.068   7.055
10315POPC   C4A60618  23.684  43.074   7.355
10315POPC   C1B60619  23.586  42.851   6.455
10315POPC   C2B60620  23.580  42.836   6.755
10315POPC   C3B60621  23.599  42.864   7.055
10315POPC   C4B60622  23.630  42.879   7.355
10316POPC   NC360623  41.571   2.032   5.555
10316POPC   PO460624  41.566   2.033   5.855
10316POPC   GL160625  41.565   1.969   6.155
10316POPC   GL260626  41.412   1.904   6.155
10316POPC   C1A60627  41.578   1.993   6.455
10316POPC   D2A60628  41.555   2.018   6.755
10316POPC   C3A60629  41.516   1.941   7.055
10316POPC   C4A60630  41.534   1.969   7.355
10316POPC   C1B60631  41.322   1.874   6.455
10316POPC   C2B60632  41.336   1.860   6.755
10316POPC   C3B60633  41.291   1.835   7.055
10316POPC   C4B60634  41.323   1.922   7.355
10317POPC   NC360635  12.118  23.734   5.555
10317POPC   PO460636  12.065  23.747   5.855
10317POPC   GL160637  12.079  23.739   6.155
10317POPC   GL260638  12.081  23.848   6.155
10317POPC   C1A60639  12.056  23.676   6.455
10317POPC   D2A60640  12.058  23.753   6.755
10317POPC   C3A60641  12.102  23.740   7.055
10317POPC   C4A60642  12.057  23.739   7.355
10317POPC   C1B60643  12.030  23.968   6.455
10317POPC   C2B60644  12.016  23.935   6.755
10317POPC   C3B60645  12.043  23.919   7.055
10317POPC   C4B60646  12.022  23.919   7.355
10318POPC   NC360647  36.859  23.671   5.555
10318POPC   PO460648  36.926  23.748   5.855
10318POPC   GL160649  36.908  23.745   6.155
10318POPC   GL260650  37.021  23.717   6.155
10318POPC   C1A60651  36.892  23.679   6.455
10318POPC   D2A60652  36.949  23.711   6.755
10318POPC   C3A60653  36.943  23.668   7.055
10318POPC   C4A60654  36.944  23.691   7.355
10318POPC   C1B60655  37.155  23.620   6.455
10318POPC   C2B60656  37.103  23.636   6.755
10318POPC   C3B60657  37.100  23.647   7.055
10318POPC   C4B60658  37.124  23.662   7.355
10319POPC   NC360659  32.990  15.189   5.555
10319POPC   PO460660  33.000  15.194   5.855
10319POPC   GL160661  33.049  15.159   6.155
10319POPC   GL260662  33.139  15.192   6.155
10319POPC   C1A60663  32.993  15.151   6.455
10319POPC   D2A60664  32.989  15.225   6.755
10319POPC   C3A60665  33.067  15.229   7.055
10319POPC   C4A60666  32.986  15.215   7.355
10319POPC   C1B60667  33.291  15.185   6.455
10319POPC   C2B60668  33.308  15.231   6.755
10319POPC   C3B60669  33.317  15.192   7.055
10319POPC   C4B60670  33.310  15.235   7.355
10320POPC   NC360671  39.246  18.255   5.555
10320POPC   PO460672  39.263  18.302   5.855
10320POPC   GL160673  39.217  18.289   6.155
10320POPC   GL260674  39.366  18.196   6.155
10320POPC   C1A60675  39.263  18.312   6.455
10320POPC   D2A60676  39.240  18.261   6.755
10320POPC   C3A60677  39.258  18.290   7.055
10320POPC   C4A60678  39.250  18.283   7.355
10320POPC   C1B60679  39.471  18.125   6.455
10320POPC   C2B60680  39.417  18.183   6.755
10320POPC   C3B60681  39.434  18.166   7.055
10320POPC   C4B60682  39.492  18.114   7.355
10321POPC   NC360683  13.625  20.658   5.555
10321POPC   PO460684  13.654  20.606   5.855
10321POPC   GL160685  13.673  20.602   6.155
10321POPC   GL260686  13.558  20.639   6.155
10321POPC   C1A60687  13.611  20.590   6.455
10321POPC   D2A60688  13.594  20.562   6.755
10321POPC   C3A60689  13.581  20.572   7.055
10321POPC   C4A60690  13.585  20.637   7.355
10321POPC   C1B60691  13.425  20.789   6.455
10321POPC   C2B60692  13.415  20.759   6.755
10321POPC   C3B60693  13.434  20.772   7.055
10321POPC   C4B60694  13.470  20.760   7.355
10322POPC   NC360695  24.509   8.956   5.555
10322POPC   PO460696  24.529   9.000   5.855
10322POPC   GL160697  24.532   8.983   6.155
10322POPC   GL260698  24.540   8.807   6.155
10322POPC   C1A60699  24.521   8.970   6.455
10322POPC   D2A60700  24.498   8.963   6.755
10322POPC   C3A60701  24.538   8.939   7.055
10322POPC   C4A60702  24.462   8.940   7.355
10322POPC   C1B60703  24.461   8.752   6.455
10322POPC   C2B60704  24.455   8.729   6.755
10322POPC   C3B60705  24.476   8.760   7.055
10322POPC   C4B60706  24.492   8.756   7.355
10323POPC   NC360707  39.222  28.347   5.555
10323POPC   PO460708  39.218  28.412   5.855
10323POPC   GL160709  39.222  28.370   6.155
10323POPC   GL260710  39.191  28.497   6.155
10323POPC   C1A60711  39.216  28.330   6.455
10323POPC   D2A60712  39.216  28.358   6.755
10323POPC   C3A60713  39.217  28.405   7.055
10323POPC   C4A60714  39.239  28.400   7.355
10323POPC   C1B60715  39.173  28.568   6.455
10323POPC   C2B60716  39.167  28.591   6.755
10323POPC   C3B60717  39.143  28.584   7.055
10323POPC   C4B60718  39.205  28.575   7.355
10324POPC   NC360719   8.209  24.516   5.555
10324POPC   PO460720   8.236  24.449   5.855
10324POPC   GL160721   8.206  24.451   6.155
10324POPC   GL260722   8.175  24.397   6.155
10324POPC   C1A60723   8.188  24.499   6.455
10324POPC   D2A60724   8.192  24.501   6.755
10324POPC   C3A60725   8.168  24.478   7.055
10324POPC   C4A60726   8.189  24.459   7.355
10324POPC   C1B60727   8.191  24.228   6.455
10324POPC   C2B60728   8.260  24.268   6.755
10324POPC   C3B60729   8.267  24.203   7.055
10324POPC   C4B60730   8.179  24.259   7.355
10325POPC   NC360731  30.660  24.495   5.555
10325POPC   PO460732  30.713  24.490   5.855
10325POPC   GL160733  30.674  24.485   6.155
10325POPC   GL260734  30.525  24.535   6.155
10325POPC   C1A60735  30.743  24.453   6.455
10325POPC   D2A60736  30.657  24.510   6.755
10325POPC   C3A60737  30.681  24.471   7.055
10325POPC   C4A60738  30.650  24.537   7.355
10325POPC   C1B60739  30.401  24.495   6.455
10325POPC   C2B60740  30.496  24.459   6.755
10325POPC   C3B60741  30.486  24.513   7.055
10325POPC   C4B60742  30.429  24.512   7.355
10326POPC   NC360743  24.512  43.848   5.555
10326POPC   PO460744  24.507  43.876   5.855
10326POPC   GL160745  24.446  43.902   6.155
10326POPC   GL260746  24.374  43.974   6.155
10326POPC   C1A60747  24.493  43.922   6.455
10326POPC   D2A60748  24.460  43.936   6.755
10326POPC   C3A60749  24.525  43.874   7.055
10326POPC   C4A60750  24.515  43.911   7.355
10326POPC   C1B60751  24.346  44.094   6.455
10326POPC   C2B60752  24.289  44.090   6.755
10326POPC   C3B60753  24.299  44.037   7.055
10326POPC   C4B60754  24.287  44.095   7.355
10327POPC   NC360755  34.563  39.221   5.555
10327POPC   PO460756  34.611  39.260   5.855
10327POPC   GL160757  34.615  39.212   6.155
10327POPC   GL260758  34.643  39.139   6.155
10327POPC   C1A60759  34.590  39.227   6.455
10327POPC   D2A60760  34.537  39.249   6.755
10327POPC   C3A60761  34.578  39.275   7.055
10327POPC   C4A60762  34.554  39.247   7.355
10327POPC   C1B60763  34.671  38.957   6.455
10327POPC   C2B60764  34.657  39.012   6.755
10327POPC   C3B60765  34.660  38.951   7.055
10327POPC   C4B60766  34.586  38.997   7.355
10328POPC   NC360767  27.635  14.424   5.555
10328POPC   PO460768  27.553  14.369   5.855
10328POPC   GL160769  27.593  14.375   6.155
10328POPC   GL260770  27.715  14.372   6.155
10328POPC   C1A60771  27.552  14.416   6.455
10328POPC   D2A60772  27.599  14.445   6.755
10328POPC   C3A60773  27.617  14.369   7.055
10328POPC   C4A60774  27.611  14.370   7.355
10328POPC   C1B60775  27.799  14.330   6.455
10328POPC   C2B60776  27.859  14.290   6.755
10328POPC   C3B60777  27.836  14.324   7.055
10328POPC   C4B60778  27.825  14.283   7.355
10329POPC   NC360779  41.587  21.406   5.555
10329POPC   PO460780  41.544  21.429   5.855
10329POPC   GL160781  41.596  21.416   6.155
10329POPC   GL260782  41.470  21.338   6.155
10329POPC   C1A60783  41.567  21.431   6.455
10329POPC   D2A60784  41.563  21.387   6.755
10329POPC   C3A60785  41.512  21.385   7.055
10329POPC   C4A60786  41.560  21.346   7.355
10329POPC   C1B60787  41.334  21.253   6.455
10329POPC   C2B60788  41.330  21.278   6.755
10329POPC   C3B60789  41.291  21.294   7.055
10329POPC   C4B60790  41.379  21.298   7.355
10330POPC   NC360791  42.285  22.978   5.555
10330POPC   PO460792  42.307  22.932   5.855
10330POPC   GL160793  42.375  22.900   6.155
10330POPC   GL260794  42.416  23.086   6.155
10330POPC   C1A60795  42.295  22.951   6.455
10330POPC   D2A60796  42.305  22.899   6.755
10330POPC   C3A60797  42.302  22.961   7.055
10330POPC   C4A60798  42.320  22.966   7.355
10330POPC   C1B60799  42.359  23.171   6.455
10330POPC   C2B60800  42.444  23.169   6.755
10330POPC   C3B60801  42.369  23.167   7.055
10330POPC   C4B60802  42.409  23.184   7.355
10331POPC   NC360803  12.851   1.960   5.555
10331POPC   PO460804  12.859   2.016   5.855
10331POPC   GL160805  12.829   1.991   6.155
10331POPC   GL260806  12.945   1.925   6.155
10331POPC   C1A60807  12.829   1.943   6.455
10331POPC   D2A60808  12.878   1.996   6.755
10331POPC   C3A60809  12.818   1.977   7.055
10331POPC   C4A60810  12.817   1.962   7.355
10331POPC   C1B60811  12.978   1.767   6.455
10331POPC   C2B60812  12.978   1.741   6.755
10331POPC   C3B60813  12.969   1.751   7.055
10331POPC   C4B60814  12.958   1.817   7.355
10332POPC   NC360815  16.727  21.420   5.555
10332POPC   PO460816  16.767  21.374   5.855
10332POPC   GL160817  16.767  21.370   6.155
10332POPC   GL260818  16.665  21.269   6.155
10332POPC   C1A60819  16.747  21.404   6.455
10332POPC   D2A60820  16.731  21.377   6.755
10332POPC   C3A60821  16.779  21.432   7.055
10332POPC   C4A60822  16.708  21.392   7.355
10332POPC   C1B60823  16.613  21.120   6.455
10332POPC   C2B60824  16.622  21.111   6.755
10332POPC   C3B60825  16.617  21.150   7.055
10332POPC   C4B60826  16.692  21.173   7.355
10333POPC   NC360827  28.366  22.155   5.555
10333POPC   PO460828  28.381  22.145   5.855
10333POPC   GL160829  28.385  22.125   6.155
10333POPC   GL260830  28.461  22.227   6.155
10333POPC   C1A60831  28.326  22.209   6.455
10333POPC   D2A60832  28.385  22.119   6.755
10333POPC   C3A60833  28.364  22.122   7.055
10333POPC   C4A60834  28.356  22.170   7.355
10333POPC   C1B60835  28.532  22.378   6.455
10333POPC   C2B60836  28.527  22.380   6.755
10333POPC   C3B60837  28.447  22.356   7.055
10333POPC   C4B60838  28.530  22.416   7.355
10334POPC   NC360839  12.879  41.526   5.555
10334POPC   PO460840  12.847  41.545   5.855
10334POPC   GL160841  12.870  41.564   6.155
10334POPC   GL260842  12.787  41.463   6.155
10334POPC   C1A60843  12.803  41.582   6.455
10334POPC   D2A60844  12.864  41.532   6.755
10334POPC   C3A60845  12.899  41.571   7.055
10334POPC   C4A60846  12.898  41.582   7.355
10334POPC   C1B60847  12.718  41.360   6.455
10334POPC   C2B60848  12.740  41.292   6.755
10334POPC   C3B60849  12.775  41.289   7.055
10334POPC   C4B60850  12.768  41.379   7.355
10335POPC   NC360851  43.138  31.519   5.555
10335POPC   PO460852  43.088  31.423   5.855
10335POPC   GL160853  43.099  31.504   6.155
10335POPC   GL260854  43.045  31.615   6.155
10335POPC   C1A60855  43.062  31.487   6.455
10335POPC   D2A60856  43.158  31.509   6.755
10335POPC   C3A60857  43.083  31.494   7.055
10335POPC   C4A60858  43.110  31.461   7.355
10335POPC   C1B60859  43.015  31.673   6.455
10335POPC   C2B60860  43.078  31.684   6.755
10335POPC   C3B60861  43.078  31.740   7.055
10335POPC   C4B60862  43.062  31.674   7.355
10336POPC   NC360863  26.815   4.349   5.555
10336POPC   PO460864  26.812   4.337   5.855
10336POPC   GL160865  26.858   4.273   6.155
10336POPC   GL260866  26.866   4.389   6.155
10336POPC   C1A60867  26.844   4.362   6.455
10336POPC   D2A60868  26.832   4.302   6.755
10336POPC   C3A60869  26.770   4.304   7.055
10336POPC   C4A60870  26.818   4.268   7.355
10336POPC   C1B60871  26.889   4.497   6.455
10336POPC   C2B60872  26.946   4.593   6.755
10336POPC   C3B60873  26.928   4.518   7.055
10336POPC   C4B60874  26.926   4.558   7.355
10337POPC   NC360875  41.548  41.543   5.555
10337POPC   PO460876  41.578  41.510   5.855
10337POPC   GL160877  41.526  41.559   6.155
10337POPC   GL260878  41.628  41.666   6.155
10337POPC   C1A60879  41.537  41.515   6.455
10337POPC   D2A60880  41.548  41.608   6.755
10337POPC   C3A60881  41.539  41.557   7.055
10337POPC   C4A60882  41.523  41.518   7.355
10337POPC   C1B60883  41.720  41.659   6.455
10337POPC   C2B60884  41.786  41.726   6.755
10337POPC   C3B60885  41.779  41.660   7.055
10337POPC   C4B60886  41.781  41.670   7.355
10338POPC   NC360887  37.698  14.371   5.555
10338POPC   PO460888  37.635  14.374   5.855
10338POPC   GL160889  37.696  14.408   6.155
10338POPC   GL260890  37.535  14.513   6.155
10338POPC   C1A60891  37.687  14.428   6.455
10338POPC   D2A60892  37.727  14.365   6.755
10338POPC   C3A60893  37.714  14.416   7.055
10338POPC   C4A60894  37.659  14.432   7.355
10338POPC   C1B60895  37.458  14.540   6.455
10338POPC   C2B60896  37.492  14.487   6.755
10338POPC   C3B60897  37.468  14.554   7.055
10338POPC   C4B60898  37.417  14.502   7.355
10339POPC   NC360899   2.017  10.487   5.555
10339POPC   PO460900   1.992  10.548   5.855
10339POPC   GL160901   1.994  10.553   6.155
10339POPC   GL260902   1.917  10.450   6.155
10339POPC   C1A60903   1.943  10.562   6.455
10339POPC   D2A60904   1.947  10.549   6.755
10339POPC   C3A60905   2.036  10.490   7.055
10339POPC   C4A60906   2.039  10.526   7.355
10339POPC   C1B60907   1.782  10.347   6.455
10339POPC   C2B60908   1.813  10.291   6.755
10339POPC   C3B60909   1.835  10.297   7.055
10339POPC   C4B60910   1.811  10.326   7.355
10340POPC   NC360911   5.109  21.417   5.555
10340POPC   PO460912   5.114  21.383   5.855
10340POPC   GL160913   5.104  21.338   6.155
10340POPC   GL260914   4.980  21.349   6.155
10340POPC   C1A60915   5.074  21.411   6.455
10340POPC   D2A60916   5.087  21.434   6.755
10340POPC   C3A60917   5.053  21.434   7.055
10340POPC   C4A60918   5.048  21.339   7.355
10340POPC   C1B60919   4.854  21.260   6.455
10340POPC   C2B60920   4.823  21.247   6.755
10340POPC   C3B60921   4.833  21.272   7.055
10340POPC   C4B60922   4.904  21.306   7.355
10341POPC   NC360923  43.100   5.098   5.555
10341POPC   PO460924  43.070   5.105   5.855
10341POPC   GL160925  43.135   5.119   6.155
10341POPC   GL260926  42.943   5.036   6.155
10341POPC   C1A60927  43.081   5.084   6.455
10341POPC   D2A60928  43.151   5.070   6.755
10341POPC   C3A60929  43.070   5.046   7.055
10341POPC   C4A60930  43.110   5.090   7.355
10341POPC   C1B60931  42.844   5.029   6.455
10341POPC   C2B60932  42.878   5.102   6.755
10341POPC   C3B60933  42.816   5.099   7.055
10341POPC   C4B60934  42.831   5.050   7.355
10342POPC   NC360935  27.590  31.477   5.555
10342POPC   PO460936  27.566  31.432   5.855
10342POPC   GL160937  27.637  31.503   6.155
10342POPC   GL260938  27.463  31.481   6.155
10342POPC   C1A60939  27.639  31.478   6.455
10342POPC   D2A60940  27.603  31.431   6.755
10342POPC   C3A60941  27.595  31.486   7.055
10342POPC   C4A60942  27.578  31.508   7.355
10342POPC   C1B60943  27.320  31.426   6.455
10342POPC   C2B60944  27.344  31.359   6.755
10342POPC   C3B60945  27.311  31.427   7.055
10342POPC   C4B60946  27.394  31.428   7.355
10343POPC   NC360947  18.268  12.873   5.555
10343POPC   PO460948  18.260  12.826   5.855
10343POPC   GL160949  18.240  12.821   6.155
10343POPC   GL260950  18.280  12.690   6.155
10343POPC   C1A60951  18.235  12.898   6.455
10343POPC   D2A60952  18.314  12.846   6.755
10343POPC   C3A60953  18.244  12.892   7.055
10343POPC   C4A60954  18.235  12.842   7.355
10343POPC   C1B60955  18.174  12.653   6.455
10343POPC   C2B60956  18.234  12.610   6.755
10343POPC   C3B60957  18.233  12.569   7.055
10343POPC   C4B60958  18.172  12.639   7.355
10344POPC   NC360959  41.589  30.659   5.555
10344POPC   PO460960  41.526  30.653   5.855
10344POPC   GL160961  41.519  30.740   6.155
10344POPC   GL260962  41.475  30.643   6.155
10344POPC   C1A60963  41.549  30.666   6.455
10344POPC   D2A60964  41.573  30.649   6.755
10344POPC   C3A60965  41.539  30.688   7.055
10344POPC   C4A60966  41.588  30.674   7.355
10344POPC   C1B60967  41.342  30.697   6.455
10344POPC   C2B60968  41.267  30.640   6.755
10344POPC   C3B60969  41.357  30.710   7.055
10344POPC   C4B60970  41.280  30.645   7.355
10345POPC   NC360971  12.041  39.969   5.555
10345POPC   PO460972  12.036  39.990   5.855
10345POPC   GL160973  12.107  40.017   6.155
10345POPC   GL260974  12.064  39.924   6.155
10345POPC   C1A60975  12.029  40.006   6.455
10345POPC   D2A60976  12.088  39.966   6.755
10345POPC   C3A60977  12.092  39.984   7.055
10345POPC   C4A60978  12.058  40.023   7.355
10345POPC   C1B60979  12.165  39.773   6.455
10345POPC   C2B60980  12.162  39.785   6.755
10345POPC   C3B60981  12.132  39.746   7.055
10345POPC   C4B60982  12.149  39.765   7.355
10346POPC   NC360983  22.200  36.128   5.555
10346POPC   PO460984  22.187  36.133   5.855
10346POPC   GL160985  22.183  36.110   6.155
10346POPC   GL260986  22.016  36.122   6.155
10346POPC   C1A60987  22.123  36.091   6.455
10346POPC   D2A60988  22.161  36.116   6.755
10346POPC   C3A60989  22.203  36.108   7.055
10346POPC   C4A60990  22.166  36.134   7.355
10346POPC   C1B60991  21.869  36.151   6.455
10346POPC   C2B60992  21.887  36.120   6.755
10346POPC   C3B60993  21.945  36.055   7.055
10346POPC   C4B60994  21.948  36.061   7.355
10347POPC   NC360995  27.588  13.605   5.555
10347POPC   PO460996  27.606  13.602   5.855
10347POPC   GL160997  27.551  13.658   6.155
10347POPC   GL260998  27.682  13.534   6.155
10347POPC   C1A60999  27.556  13.604   6.455
10347POPC   D2A61000  27.550  13.601   6.755
10347POPC   C3A61001  27.612  13.624   7.055
10347POPC   C4A61002  27.550  13.622   7.355
10347POPC   C1B61003  27.698  13.426   6.455
10347POPC   C2B61004  27.759  13.417   6.755
10347POPC   C3B61005  27.760  13.390   7.055
10347POPC   C4B61006  27.711  13.380   7.355
10348POPC   NC361007  10.558   4.331   5.555
10348POPC   PO461008  10.561   4.270   5.855
10348POPC   GL161009  10.561   4.361   6.155
10348POPC   GL261010  10.426   4.235   6.155
10348POPC   C1A61011  10.529   4.347   6.455
10348POPC   D2A61012  10.508   4.299   6.755
10348POPC   C3A61013  10.559   4.284   7.055
10348POPC   C4A61014  10.564   4.362   7.355
10348POPC   C1B61015  10.300   4.114   6.455
10348POPC   C2B61016  10.337   4.147   6.755
10348POPC   C3B61017  10.307   4.102   7.055
10348POPC   C4B61018  10.384   4.096   7.355
10349POPC   NC361019  17.493  23.739   5.555
10349POPC   PO461020  17.501  23.741   5.855
10349POPC   GL161021  17.476  23.735   6.155
10349POPC   GL261022  17.647  23.757   6.155
10349POPC   C1A61023  17.546  23.754   6.455
10349POPC   D2A61024  17.541  23.749   6.755
10349POPC   C3A61025  17.463  23.709   7.055
10349POPC   C4A61026  17.468  23.697   7.355
10349POPC   C1B61027  17.684  23.851   6.455
10349POPC   C2B61028  17.714  23.895   6.755
10349POPC   C3B61029  17.757  23.856   7.055
10349POPC   C4B61030  17.712  23.831   7.355
10350POPC   NC361031  25.288  43.914   5.555
10350POPC   PO461032  25.236  43.911   5.855
10350POPC   GL161033  25.239  43.899   6.155
10350POPC   GL261034  25.192  43.994   6.155
10350POPC   C1A61035  25.235  43.896   6.455
10350POPC   D2A61036  25.298  43.936   6.755
10350POPC   C3A61037  25.242  43.884   7.055
10350POPC   C4A61038  25.313  43.857   7.355
10350POPC   C1B61039  25.083  44.135   6.455
10350POPC   C2B61040  25.098  44.063   6.755
10350POPC   C3B61041  25.107  44.096   7.055
10350POPC   C4B61042  25.126  44.044   7.355
10351POPC   NC361043   4.303  23.714   5.555
10351POPC   PO461044   4.306  23.709   5.855
10351POPC   GL161045   4.331  23.716   6.155
10351POPC   GL261046   4.391  23.756   6.155
10351POPC   C1A61047   4.313  23.742   6.455
10351POPC   D2A61048   4.313  23.676   6.755
10351POPC   C3A61049   4.274  23.753   7.055
10351POPC   C4A61050   4.276  23.674   7.355
10351POPC   C1B61051   4.541  23.803   6.455
10351POPC   C2B61052   4.606  23.735   6.755
10351POPC   C3B61053   4.530  23.769   7.055
10351POPC   C4B61054   4.542  23.792   7.355
10352POPC   NC361055  43.930  26.816   5.555
10352POPC   PO461056  43.895  26.817   5.855
10352POPC   GL161057  43.887  26.816   6.155
10352POPC   GL261058  43.851  26.900   6.155
10352POPC   C1A61059  43.908  26.781   6.455
10352POPC   D2A61060  43.897  26.856   6.755
10352POPC   C3A61061  43.840  26.774   7.055
10352POPC   C4A61062  43.887  26.792   7.355
10352POPC   C1B61063  43.735  27.038   6.455
10352POPC   C2B61064  43.781  27.014   6.755
10352POPC   C3B61065  43.760  26.999   7.055
10352POPC   C4B61066  43.720  27.036   7.355
10353POPC   NC361067  22.164   8.225   5.555
10353POPC   PO461068  22.175   8.200   5.855
10353POPC   GL161069  22.125   8.147   6.155
10353POPC   GL261070  22.254   8.200   6.155
10353POPC   C1A61071  22.192   8.217   6.455
10353POPC   D2A61072  22.191   8.179   6.755
10353POPC   C3A61073  22.171   8.188   7.055
10353POPC   C4A61074  22.166   8.164   7.355
10353POPC   C1B61075  22.388   8.311   6.455
10353POPC   C2B61076  22.434   8.236   6.755
10353POPC   C3B61077  22.436   8.289   7.055
10353POPC   C4B61078  22.367   8.318   7.355
10354POPC   NC361079  18.260  41.589   5.555
10354POPC   PO461080  18.303  41.554   5.855
10354POPC   GL161081  18.283  41.591   6.155
10354POPC   GL261082  18.356  41.527   6.155
10354POPC   C1A61083  18.264  41.551   6.455
10354POPC   D2A61084  18.317  41.582   6.755
10354POPC   C3A61085  18.332  41.584   7.055
10354POPC   C4A61086  18.272  41.582   7.355
10354POPC   C1B61087  18.533  41.432   6.455
10354POPC   C2B61088  18.502  41.436   6.755
10354POPC   C3B61089  18.478  41.440   7.055
10354POPC   C4B61090  18.554  41.437   7.355
10355POPC   NC361091  15.953  12.812   5.555
10355POPC   PO461092  15.952  12.829   5.855
10355POPC   GL161093  15.977  12.806   6.155
10355POPC   GL261094  15.839  12.811   6.155
10355POPC   C1A61095  15.995  12.806   6.455
10355POPC   D2A61096  15.938  12.826   6.755
10355POPC   C3A61097  15.980  12.859   7.055
10355POPC   C4A61098  15.920  12.869   7.355
10355POPC   C1B61099  15.764  12.747   6.455
10355POPC   C2B61100  15.732  12.707   6.755
10355POPC   C3B61101  15.750  12.734   7.055
10355POPC   C4B61102  15.730  12.730   7.355
10356POPC   NC361103  19.089  35.302   5.555
10356POPC   PO461104  19.047  35.367   5.855
10356POPC   GL161105  19.105  35.352   6.155
10356POPC   GL261106  19.097  35.416   6.155
10356POPC   C1A61107  19.093  35.341   6.455
10356POPC   D2A61108  19.082  35.306   6.755
10356POPC   C3A61109  19.094  35.356   7.055
10356POPC   C4A61110  19.072  35.318   7.355
10356POPC   C1B61111  19.212  35.499   6.455
10356POPC   C2B61112  19.196  35.526   6.755
10356POPC   C3B61113  19.227  35.576   7.055
10356POPC   C4B61114  19.183  35.553   7.355
10357POPC   NC361115  13.645  24.515   5.555
10357POPC   PO461116  13.580  24.451   5.855
10357POPC   GL161117  13.675  24.498   6.155
10357POPC   GL261118  13.755  24.476   6.155
10357POPC   C1A61119  13.595  24.466   6.455
10357POPC   D2A61120  13.604  24.493   6.755
10357POPC   C3A61121  13.617  24.471   7.055
10357POPC   C4A61122  13.579  24.444   7.355
10357POPC   C1B61123  13.810  24.385   6.455
10357POPC   C2B61124  13.847  24.347   6.755
10357POPC   C3B61125  13.854  24.330   7.055
10357POPC   C4B61126  13.872  24.338   7.355
10358POPC   NC361127  43.843  37.643   5.555
10358POPC   PO461128  43.881  37.645   5.855
10358POPC   GL161129  43.926  37.682   6.155
10358POPC   GL261130  43.978  37.624   6.155
10358POPC   C1A61131  43.926  37.659   6.455
10358POPC   D2A61132  43.921  37.693   6.755
10358POPC   C3A61133  43.898  37.666   7.055
10358POPC   C4A61134  43.912  37.687   7.355
10358POPC   C1B61135  44.106  37.543   6.455
10358POPC   C2B61136  44.042  37.464   6.755
10358POPC   C3B61137  44.054  37.552   7.055
10358POPC   C4B61138  44.065  37.547   7.355
10359POPC   NC361139  28.337  43.887   5.555
10359POPC   PO461140  28.329  43.922   5.855
10359POPC   GL161141  28.368  43.923   6.155
10359POPC   GL261142  28.498  43.892   6.155
10359POPC   C1A61143  28.384  43.887   6.455
10359POPC   D2A61144  28.346  43.894   6.755
10359POPC   C3A61145  28.392  43.841   7.055
10359POPC   C4A61146  28.351  43.906   7.355
10359POPC   C1B61147  28.586  43.851   6.455
10359POPC   C2B61148  28.633  43.866   6.755
10359POPC   C3B61149  28.626  43.914   7.055
10359POPC   C4B61150  28.649  43.909   7.355
10360POPC   NC361151  18.241  26.088   5.555
10360POPC   PO461152  18.259  25.997   5.855
10360POPC   GL161153  18.286  26.052   6.155
10360POPC   GL261154  18.383  25.919   6.155
10360POPC   C1A61155  18.301  26.044   6.455
10360POPC   D2A61156  18.295  26.004   6.755
10360POPC   C3A61157  18.304  26.077   7.055
10360POPC   C4A61158  18.239  26.031   7.355
10360POPC   C1B61159  18.400  25.785   6.455
10360POPC   C2B61160  18.385  25.776   6.755
10360POPC   C3B61161  18.372  25.778   7.055
10360POPC   C4B61162  18.337  25.856   7.355
10361POPC   NC361163  36.103   5.057   5.555
10361POPC   PO461164  36.168   5.088   5.855
10361POPC   GL161165  36.083   5.138   6.155
10361POPC   GL261166  35.990   5.117   6.155
10361POPC   C1A61167  36.134   5.124   6.455
10361POPC   D2A61168  36.126   5.112   6.755
10361POPC   C3A61169  36.125   5.087   7.055
10361POPC   C4A61170  36.119   5.062   7.355
10361POPC   C1B61171  35.855   5.128   6.455
10361POPC   C2B61172  35.849   5.089   6.755
10361POPC   C3B61173  35.870   5.074   7.055
10361POPC   C4B61174  35.886   5.086   7.355
10362POPC   NC361175   8.185  20.602   5.555
10362POPC   PO461176   8.167  20.601   5.855
10362POPC   GL161177   8.165  20.603   6.155
10362POPC   GL261178   8.123  20.704   6.155
10362POPC   C1A61179   8.231  20.612   6.455
10362POPC   D2A61180   8.228  20.578   6.755
10362POPC   C3A61181   8.155  20.614   7.055
10362POPC   C4A61182   8.210  20.573   7.355
10362POPC   C1B61183   8.078  20.759   6.455
10362POPC   C2B61184   8.042  20.788   6.755
10362POPC   C3B61185   8.009  20.838   7.055
10362POPC   C4B61186   8.068  20.787   7.355
10363POPC   NC361187  11.285  18.251   5.555
10363POPC   PO461188  11.254  18.279   5.855
10363POPC   GL161189  11.321  18.240   6.155
10363POPC   GL261190  11.380  18.116   6.155
10363POPC   C1A61191  11.345  18.257   6.455
10363POPC   D2A61192  11.269  18.263   6.755
10363POPC   C3A61193  11.258  18.287   7.055
10363POPC   C4A61194  11.273  18.243   7.355
10363POPC   C1B61195  11.419  18.011   6.455
10363POPC   C2B61196  11.398  18.077   6.755
10363POPC   C3B61197  11.392  18.002   7.055
10363POPC   C4B61198  11.355  18.048   7.355
10364POPC   NC361199  12.840  23.744   5.555
10364POPC   PO461200  12.835  23.674   5.855
10364POPC   GL161201  12.894  23.702   6.155
10364POPC   GL261202  12.951  23.721   6.155
10364POPC   C1A61203  12.811  23.752   6.455
10364POPC   D2A61204  12.865  23.677   6.755
10364POPC   C3A61205  12.876  23.762   7.055
10364POPC   C4A61206  12.847  23.711   7.355
10364POPC   C1B61207  13.087  23.627   6.455
10364POPC   C2B61208  13.079  23.667   6.755
10364POPC   C3B61209  13.114  23.635   7.055
10364POPC   C4B61210  13.061  23.613   7.355
10365POPC   NC361211   6.684  43.870   5.555
10365POPC   PO461212   6.630  43.859   5.855
10365POPC   GL161213   6.662  43.905   6.155
10365POPC   GL261214   6.567  43.805   6.155
10365POPC   C1A61215   6.598  43.921   6.455
10365POPC   D2A61216   6.652  43.867   6.755
10365POPC   C3A61217   6.600  43.860   7.055
10365POPC   C4A61218   6.672  43.837   7.355
10365POPC   C1B61219   6.464  43.784   6.455
10365POPC   C2B61220   6.372  43.815   6.755
10365POPC   C3B61221   6.441  43.742   7.055
10365POPC   C4B61222   6.424  43.775   7.355
10366POPC   NC361223   9.717   2.790   5.555
10366POPC   PO461224   9.745   2.747   5.855
10366POPC   GL161225   9.730   2.781   6.155
10366POPC   GL261226   9.799   2.667   6.155
10366POPC   C1A61227   9.790   2.748   6.455
10366POPC   D2A61228   9.706   2.747   6.755
10366POPC   C3A61229   9.735   2.804   7.055
10366POPC   C4A61230   9.762   2.793   7.355
10366POPC   C1B61231   9.919   2.583   6.455
10366POPC   C2B61232   9.868   2.510   6.755
10366POPC   C3B61233   9.918   2.555   7.055
10366POPC   C4B61234   9.911   2.563   7.355
10367POPC   NC361235  35.307   6.608   5.555
10367POPC   PO461236  35.332   6.673   5.855
10367POPC   GL161237  35.364   6.645   6.155
10367POPC   GL261238  35.405   6.520   6.155
10367POPC   C1A61239  35.373   6.631   6.455
10367POPC   D2A61240  35.366   6.643   6.755
10367POPC   C3A61241  35.329   6.628   7.055
10367POPC   C4A61242  35.341   6.631   7.355
10367POPC   C1B61243  35.497   6.449   6.455
10367POPC   C2B61244  35.546   6.498   6.755
10367POPC   C3B61245  35.503   6.406   7.055
10367POPC   C4B61246  35.494   6.448   7.355
10368POPC   NC361247   1.204  43.111   5.555
10368POPC   PO461248   1.229  43.084   5.855
10368POPC   GL161249   1.263  43.104   6.155
10368POPC   GL261250   1.118  43.137   6.155
10368POPC   C1A61251   1.175  43.157   6.455
10368POPC   D2A61252   1.205  43.111   6.755
10368POPC   C3A61253   1.201  43.082   7.055
10368POPC   C4A61254   1.253  43.113   7.355
10368POPC   C1B61255   0.947  43.155   6.455
10368POPC   C2B61256   0.939  43.222   6.755
10368POPC   C3B61257   1.022  43.197   7.055
10368POPC   C4B61258   0.960  43.194   7.355
10369POPC   NC361259  44.641  24.461   5.555
10369POPC   PO461260  44.656  24.480   5.855
10369POPC   GL161261  44.704  24.533   6.155
10369POPC   GL261262  44.562  24.426   6.155
10369POPC   C1A61263  44.626  24.503   6.455
10369POPC   D2A61264  44.672  24.449   6.755
10369POPC   C3A61265  44.678  24.457   7.055
10369POPC   C4A61266  44.679  24.444   7.355
10369POPC   C1B61267  44.517  24.253   6.455
10369POPC   C2B61268  44.511  24.265   6.755
10369POPC   C3B61269  44.460  24.259   7.055
10369POPC   C4B61270  44.558  24.312   7.355
10370POPC   NC361271  18.235   9.761   5.555
10370POPC   PO461272  18.264   9.760   5.855
10370POPC   GL161273  18.303   9.719   6.155
10370POPC   GL261274  18.269   9.628   6.155
10370POPC   C1A61275  18.326   9.728   6.455
10370POPC   D2A61276  18.268   9.798   6.755
10370POPC   C3A61277  18.298   9.770   7.055
10370POPC   C4A61278  18.299   9.724   7.355
10370POPC   C1B61279  18.377   9.511   6.455
10370POPC   C2B61280  18.358   9.463   6.755
10370POPC   C3B61281  18.370   9.468   7.055
10370POPC   C4B61282  18.374   9.535   7.355
10371POPC   NC361283   2.729  26.090   5.555
10371POPC   PO461284   2.765  26.009   5.855
10371POPC   GL161285   2.777  26.082   6.155
10371POPC   GL261286   2.691  26.174   6.155
10371POPC   C1A61287   2.775  26.067   6.455
10371POPC   D2A61288   2.810  26.063   6.755
10371POPC   C3A61289   2.728  26.081   7.055
10371POPC   C4A61290   2.722  26.090   7.355
10371POPC   C1B61291   2.717  26.330   6.455
10371POPC   C2B61292   2.719  26.321   6.755
10371POPC   C3B61293   2.736  26.327   7.055
10371POPC   C4B61294   2.672  26.250   7.355
10372POPC   NC361295  12.088  11.335   5.555
10372POPC   PO461296  12.083  11.336   5.855
10372POPC   GL161297  12.051  11.279   6.155
10372POPC   GL261298  11.992  11.381   6.155
10372POPC   C1A61299  12.091  11.260   6.455
10372POPC   D2A61300  12.060  11.319   6.755
10372POPC   C3A61301  12.086  11.326   7.055
10372POPC   C4A61302  12.100  11.323   7.355
10372POPC   C1B61303  11.838  11.460   6.455
10372POPC   C2B61304  11.817  11.373   6.755
10372POPC   C3B61305  11.808  11.467   7.055
10372POPC   C4B61306  11.903  11.405   7.355
10373POPC   NC361307  18.263  43.860   5.555
10373POPC   PO461308  18.296  43.867   5.855
10373POPC   GL161309  18.276  43.894   6.155
10373POPC   GL261310  18.261  43.984   6.155
10373POPC   C1A61311  18.246  43.851   6.455
10373POPC   D2A61312  18.301  43.899   6.755
10373POPC   C3A61313  18.258  43.857   7.055
10373POPC   C4A61314  18.262  43.905   7.355
10373POPC   C1B61315  18.170  44.103   6.455
10373POPC   C2B61316  18.184  44.161   6.755
10373POPC   C3B61317  18.186  44.095   7.055
10373POPC   C4B61318  18.181  44.070   7.355
10374POPC   NC361319  16.737   7.387   5.555
10374POPC   PO461320  16.758   7.453   5.855
10374POPC   GL161321  16.731   7.441   6.155
10374POPC   GL261322  16.722   7.284   6.155
10374POPC   C1A61323  16.778   7.386   6.455
10374POPC   D2A61324  16.730   7.409   6.755
10374POPC   C3A61325  16.743   7.445   7.055
10374POPC   C4A61326  16.778   7.396   7.355
10374POPC   C1B61327  16.720   7.154   6.455
10374POPC   C2B61328  16.711   7.141   6.755
10374POPC   C3B61329  16.800   7.129   7.055
10374POPC   C4B61330  16.732   7.136   7.355
10375POPC   NC361331   4.367  12.095   5.555
10375POPC   PO461332   4.357  12.026   5.855
10375POPC   GL161333   4.303  12.053   6.155
10375POPC   GL261334   4.277  12.155   6.155
10375POPC   C1A61335   4.365  12.029   6.455
10375POPC   D2A61336   4.305  12.062   6.755
10375POPC   C3A61337   4.359  12.090   7.055
10375POPC   C4A61338   4.327  12.071   7.355
10375POPC   C1B61339   4.239  12.364   6.455
10375POPC   C2B61340   4.278  12.310   6.755
10375POPC   C3B61341   4.199  12.282   7.055
10375POPC   C4B61342   4.210  12.319   7.355
10376POPC   NC361343   9.013  16.746   5.555
10376POPC   PO461344   8.938  16.715   5.855
10376POPC   GL161345   8.977  16.735   6.155
10376POPC   GL261346   9.057  16.843   6.155
10376POPC   C1A61347   8.998  16.749   6.455
10376POPC   D2A61348   8.935  16.733   6.755
10376POPC   C3A61349   8.987  16.694   7.055
10376POPC   C4A61350   9.009  16.711   7.355
10376POPC   C1B61351   9.105  16.917   6.455
10376POPC   C2B61352   9.124  16.889   6.755
10376POPC   C3B61353   9.197  16.899   7.055
10376POPC   C4B61354   9.145  16.883   7.355
10377POPC   NC361355  11.307   6.603   5.555
10377POPC   PO461356  11.296   6.657   5.855
10377POPC   GL161357  11.345   6.607   6.155
10377POPC   GL261358  11.328   6.790   6.155
10377POPC   C1A61359  11.282   6.609   6.455
10377POPC   D2A61360  11.274   6.634   6.755
10377POPC   C3A61361  11.342   6.685   7.055
10377POPC   C4A61362  11.343   6.675   7.355
10377POPC   C1B61363  11.347   6.929   6.455
10377POPC   C2B61364  11.330   6.867   6.755
10377POPC   C3B61365  11.271   6.882   7.055
10377POPC   C4B61366  11.256   6.889   7.355
10378POPC   NC361367  14.407  12.839   5.555
10378POPC   PO461368  14.356  12.877   5.855
10378POPC   GL161369  14.361  12.883   6.155
10378POPC   GL261370  14.264  12.883   6.155
10378POPC   C1A61371  14.438  12.864   6.455
10378POPC   D2A61372  14.400  12.887   6.755
10378POPC   C3A61373  14.400  12.868   7.055
10378POPC   C4A61374  14.453  12.816   7.355
10378POPC   C1B61375  14.205  13.058   6.455
10378POPC   C2B61376  14.168  13.052   6.755
10378POPC   C3B61377  14.206  13.004   7.055
10378POPC   C4B61378  14.211  12.993   7.355
10379POPC   NC361379  20.603  23.685   5.555
10379POPC   PO461380  20.580  23.747   5.855
10379POPC   GL161381  20.640  23.741   6.155
10379POPC   GL261382  20.724  23.657   6.155
10379POPC   C1A61383  20.614  23.730   6.455
10379POPC   D2A61384  20.614  23.677   6.755
10379POPC   C3A61385  20.565  23.731   7.055
10379POPC   C4A61386  20.652  23.665   7.355
10379POPC   C1B61387  20.718  23.542   6.455
10379POPC   C2B61388  20.713  23.522   6.755
10379POPC   C3B61389  20.777  23.546   7.055
10379POPC   C4B61390  20.781  23.542   7.355
10380POPC   NC361391  32.204  39.269   5.555
10380POPC   PO461392  32.267  39.189   5.855
10380POPC   GL161393  32.290  39.250   6.155
10380POPC   GL261394  32.319  39.333   6.155
10380POPC   C1A61395  32.231  39.225   6.455
10380POPC   D2A61396  32.239  39.263   6.755
10380POPC   C3A61397  32.282  39.259   7.055
10380POPC   C4A61398  32.219  39.236   7.355
10380POPC   C1B61399  32.473  39.431   6.455
10380POPC   C2B61400  32.486  39.414   6.755
10380POPC   C3B61401  32.409  39.413   7.055
10380POPC   C4B61402  32.479  39.376   7.355
10381POPC   NC361403  35.331  14.419   5.555
10381POPC   PO461404  35.352  14.443   5.855
10381POPC   GL161405  35.308  14.376   6.155
10381POPC   GL261406  35.417  14.272   6.155
10381POPC   C1A61407  35.379  14.453   6.455
10381POPC   D2A61408  35.359  14.404   6.755
10381POPC   C3A61409  35.350  14.389   7.055
10381POPC   C4A61410  35.312  14.364   7.355
10381POPC   C1B61411  35.535  14.200   6.455
10381POPC   C2B61412  35.530  14.206   6.755
10381POPC   C3B61413  35.491  14.204   7.055
10381POPC   C4B61414  35.554  14.183   7.355
10382POPC   NC361415  26.778   5.878   5.555
10382POPC   PO461416  26.802   5.912   5.855
10382POPC   GL161417  26.850   5.853   6.155
10382POPC   GL261418  26.816   5.791   6.155
10382POPC   C1A61419  26.805   5.851   6.455
10382POPC   D2A61420  26.794   5.883   6.755
10382POPC   C3A61421  26.845   5.901   7.055
10382POPC   C4A61422  26.793   5.872   7.355
10382POPC   C1B61423  26.831   5.633   6.455
10382POPC   C2B61424  26.876   5.587   6.755
10382POPC   C3B61425  26.879   5.669   7.055
10382POPC   C4B61426  26.854   5.587   7.355
10383POPC   NC361427  12.080  20.607   5.555
10383POPC   PO461428  12.088  20.654   5.855
10383POPC   GL161429  12.049  20.583   6.155
10383POPC   GL261430  12.146  20.738   6.155
10383POPC   C1A61431  12.028  20.645   6.455
10383POPC   D2A61432  12.120  20.650   6.755
10383POPC   C3A61433  12.064  20.569   7.055
10383POPC   C4A61434  12.106  20.660   7.355
10383POPC   C1B61435  12.222  20.828   6.455
10383POPC   C2B61436  12.259  20.828   6.755
10383POPC   C3B61437  12.218  20.801   7.055
10383POPC   C4B61438  12.186  20.788   7.355
10384POPC   NC361439   9.757  12.832   5.555
10384POPC   PO461440   9.797  12.839   5.855
10384POPC   GL161441   9.766  12.842   6.155
10384POPC   GL261442   9.764  12.741   6.155
10384POPC   C1A61443   9.724  12.873   6.455
10384POPC   D2A61444   9.755  12.808   6.755
10384POPC   C3A61445   9.763  12.896   7.055
10384POPC   C4A61446   9.758  12.831   7.355
10384POPC   C1B61447   9.800  12.602   6.455
10384POPC   C2B61448   9.782  12.613   6.755
10384POPC   C3B61449   9.844  12.612   7.055
10384POPC   C4B61450   9.855  12.628   7.355
10385POPC   NC361451  15.173  43.104   5.555
10385POPC   PO461452  15.201  43.156   5.855
10385POPC   GL161453  15.181  43.074   6.155
10385POPC   GL261454  15.237  43.042   6.155
10385POPC   C1A61455  15.215  43.157   6.455
10385POPC   D2A61456  15.186  43.066   6.755
10385POPC   C3A61457  15.149  43.117   7.055
10385POPC   C4A61458  15.226  43.095   7.355
10385POPC   C1B61459  15.348  42.934   6.455
10385POPC   C2B61460  15.311  42.940   6.755
10385POPC   C3B61461  15.279  42.943   7.055
10385POPC   C4B61462  15.297  42.929   7.355
10386POPC   NC361463   8.929  13.602   5.555
10386POPC   PO461464   8.935  13.636   5.855
10386POPC   GL161465   8.997  13.601   6.155
10386POPC   GL261466   8.940  13.729   6.155
10386POPC   C1A61467   8.925  13.648   6.455
10386POPC   D2A61468   8.956  13.614   6.755
10386POPC   C3A61469   8.988  13.669   7.055
10386POPC   C4A61470   8.975  13.642   7.355
10386POPC   C1B61471   8.879  13.810   6.455
10386POPC   C2B61472   8.847  13.821   6.755
10386POPC   C3B61473   8.831  13.834   7.055
10386POPC   C4B61474   8.818  13.887   7.355
10387POPC   NC361475   2.802  41.564   5.555
10387POPC   PO461476   2.737  41.552   5.855
10387POPC   GL161477   2.773  41.532   6.155
10387POPC   GL261478   2.689  41.470   6.155
10387POPC   C1A61479   2.806  41.516   6.455
10387POPC   D2A61480   2.717  41.608   6.755
10387POPC   C3A61481   2.772  41.604   7.055
10387POPC   C4A61482   2.773  41.560   7.355
10387POPC   C1B61483   2.646  41.320   6.455
10387POPC   C2B61484   2.645  41.331   6.755
10387POPC   C3B61485   2.639  41.318   7.055
10387POPC   C4B61486   2.660  41.370   7.355
10388POPC   NC361487  29.156  23.729   5.555
10388POPC   PO461488  29.189  23.697   5.855
10388POPC   GL161489  29.138  23.741   6.155
10388POPC   GL261490  29.151  23.848   6.155
10388POPC   C1A61491  29.097  23.761   6.455
10388POPC   D2A61492  29.169  23.691   6.755
10388POPC   C3A61493  29.191  23.685   7.055
10388POPC   C4A61494  29.182  23.728   7.355
10388POPC   C1B61495  29.161  23.977   6.455
10388POPC   C2B61496  29.200  23.971   6.755
10388POPC   C3B61497  29.199  23.922   7.055
10388POPC   C4B61498  29.155  23.925   7.355
10389POPC   NC361499  19.837   5.880   5.555
10389POPC   PO461500  19.884   5.905   5.855
10389POPC   GL161501  19.806   5.876   6.155
10389POPC   GL261502  19.878   5.985   6.155
10389POPC   C1A61503  19.870   5.883   6.455
10389POPC   D2A61504  19.799   5.843   6.755
10389POPC   C3A61505  19.799   5.913   7.055
10389POPC   C4A61506  19.858   5.912   7.355
10389POPC   C1B61507  19.905   6.107   6.455
10389POPC   C2B61508  19.957   6.112   6.755
10389POPC   C3B61509  19.967   6.129   7.055
10389POPC   C4B61510  19.893   6.053   7.355
10390POPC   NC361511  36.883   0.425   5.555
10390POPC   PO461512  36.902   0.452   5.855
10390POPC   GL161513  36.940   0.483   6.155
10390POPC   GL261514  36.996   0.334   6.155
10390POPC   C1A61515  36.861   0.392   6.455
10390POPC   D2A61516  36.929   0.445   6.755
10390POPC   C3A61517  36.861   0.455   7.055
10390POPC   C4A61518  36.899   0.460   7.355
10390POPC   C1B61519  37.031   0.262   6.455
10390POPC   C2B61520  37.046   0.259   6.755
10390POPC   C3B61521  37.007   0.224   7.055
10390POPC   C4B61522  37.025   0.196   7.355
10391POPC   NC361523  31.455  38.432   5.555
10391POPC   PO461524  31.478  38.406   5.855
10391POPC   GL161525  31.447  38.439   6.155
10391POPC   GL261526  31.517  38.379   6.155
10391POPC   C1A61527  31.493  38.446   6.455
10391POPC   D2A61528  31.435  38.502   6.755
10391POPC   C3A61529  31.451  38.473   7.055
10391POPC   C4A61530  31.458  38.410   7.355
10391POPC   C1B61531  31.538  38.181   6.455
10391POPC   C2B61532  31.468  38.211   6.755
10391POPC   C3B61533  31.512  38.249   7.055
10391POPC   C4B61534  31.490  38.218   7.355
10392POPC   NC361535  12.124   4.357   5.555
10392POPC   PO461536  12.124   4.334   5.855
10392POPC   GL161537  12.040   4.328   6.155
10392POPC   GL261538  11.986   4.376   6.155
10392POPC   C1A61539  12.034   4.316   6.455
10392POPC   D2A61540  12.035   4.294   6.755
10392POPC   C3A61541  12.049   4.340   7.055
10392POPC   C4A61542  12.049   4.326   7.355
10392POPC   C1B61543  11.851   4.405   6.455
10392POPC   C2B61544  11.817   4.369   6.755
10392POPC   C3B61545  11.842   4.376   7.055
10392POPC   C4B61546  11.880   4.325   7.355
10393POPC   NC361547   4.346  14.425   5.555
10393POPC   PO461548   4.315  14.435   5.855
10393POPC   GL161549   4.346  14.360   6.155
10393POPC   GL261550   4.179  14.453   6.155
10393POPC   C1A61551   4.359  14.387   6.455
10393POPC   D2A61552   4.336  14.395   6.755
10393POPC   C3A61553   4.364  14.438   7.055
10393POPC   C4A61554   4.352  14.381   7.355
10393POPC   C1B61555   4.088  14.556   6.455
10393POPC   C2B61556   4.115  14.544   6.755
10393POPC   C3B61557   4.154  14.570   7.055
10393POPC   C4B61558   4.083  14.580   7.355
10394POPC   NC361559  30.673  36.091   5.555
10394POPC   PO461560  30.656  36.109   5.855
10394POPC   GL161561  30.713  36.177   6.155
10394POPC   GL261562  30.613  36.018   6.155
10394POPC   C1A61563  30.671  36.160   6.455
10394POPC   D2A61564  30.680  36.170   6.755
10394POPC   C3A61565  30.713  36.132   7.055
10394POPC   C4A61566  30.746  36.172   7.355
10394POPC   C1B61567  30.530  35.940   6.455
10394POPC   C2B61568  30.534  35.953   6.755
10394POPC   C3B61569  30.479  35.914   7.055
10394POPC   C4B61570  30.564  35.984   7.355
10395POPC   NC361571   5.114  12.032   5.555
10395POPC   PO461572   5.129  12.088   5.855
10395POPC   GL161573   5.101  12.077   6.155
10395POPC   GL261574   4.940  11.986   6.155
10395POPC   C1A61575   5.119  12.074   6.455
10395POPC   D2A61576   5.076  12.085   6.755
10395POPC   C3A61577   5.043  12.110   7.055
10395POPC   C4A61578   5.046  12.038   7.355
10395POPC   C1B61579   4.863  12.027   6.455
10395POPC   C2B61580   4.836  11.962   6.755
10395POPC   C3B61581   4.861  11.946   7.055
10395POPC   C4B61582   4.854  11.960   7.355
10396POPC   NC361583  34.568   8.215   5.555
10396POPC   PO461584  34.542   8.189   5.855
10396POPC   GL161585  34.604   8.200   6.155
10396POPC   GL261586  34.456   8.246   6.155
10396POPC   C1A61587  34.533   8.223   6.455
10396POPC   D2A61588  34.542   8.203   6.755
10396POPC   C3A61589  34.597   8.163   7.055
10396POPC   C4A61590  34.598   8.177   7.355
10396POPC   C1B61591  34.443   8.431   6.455
10396POPC   C2B61592  34.372   8.336   6.755
10396POPC   C3B61593  34.363   8.407   7.055
10396POPC   C4B61594  34.396   8.377   7.355
10397POPC   NC361595  41.575   6.650   5.555
10397POPC   PO461596  41.546   6.679   5.855
10397POPC   GL161597  41.601   6.662   6.155
10397POPC   GL261598  41.444   6.671   6.155
10397POPC   C1A61599  41.545   6.661   6.455
10397POPC   D2A61600  41.539   6.632   6.755
10397POPC   C3A61601  41.579   6.614   7.055
10397POPC   C4A61602  41.597   6.669   7.355
10397POPC   C1B61603  41.377   6.747   6.455
10397POPC   C2B61604  41.360   6.702   6.755
10397POPC   C3B61605  41.307   6.771   7.055
10397POPC   C4B61606  41.323   6.701   7.355
10398POPC   NC361607   5.882  32.297   5.555
10398POPC   PO461608   5.832  32.293   5.855
10398POPC   GL161609   5.883  32.264   6.155
10398POPC   GL261610   5.783  32.337   6.155
10398POPC   C1A61611   5.901  32.249   6.455
10398POPC   D2A61612   5.833  32.267   6.755
10398POPC   C3A61613   5.901  32.251   7.055
10398POPC   C4A61614   5.894  32.224   7.355
10398POPC   C1B61615   5.778  32.498   6.455
10398POPC   C2B61616   5.783  32.494   6.755
10398POPC   C3B61617   5.800  32.517   7.055
10398POPC   C4B61618   5.813  32.435   7.355
10399POPC   NC361619  42.336  15.908   5.555
10399POPC   PO461620  42.371  15.928   5.855
10399POPC   GL161621  42.327  15.992   6.155
10399POPC   GL261622  42.229  16.080   6.155
10399POPC   C1A61623  42.287  15.991   6.455
10399POPC   D2A61624  42.368  15.969   6.755
10399POPC   C3A61625  42.327  16.003   7.055
10399POPC   C4A61626  42.302  15.971   7.355
10399POPC   C1B61627  42.221  16.128   6.455
10399POPC   C2B61628  42.166  16.218   6.755
10399POPC   C3B61629  42.168  16.157   7.055
10399POPC   C4B61630  42.174  16.169   7.355
10400POPC   NC361631  40.796   0.405   5.555
10400POPC   PO461632  40.761   0.392   5.855
10400POPC   GL161633  40.781   0.411   6.155
10400POPC   GL261634  40.773   0.283   6.155
10400POPC   C1A61635  40.823   0.393   6.455
10400POPC   D2A61636  40.795   0.452   6.755
10400POPC   C3A61637  40.756   0.410   7.055
10400POPC   C4A61638  40.756   0.401   7.355
10400POPC   C1B61639  40.712   0.202   6.455
10400POPC   C2B61640  40.781   0.212   6.755
10400POPC   C3B61641  40.728   0.236   7.055
10400POPC   C4B61642  40.728   0.162   7.355
10401POPC   NC361643  44.708   4.297   5.555
10401POPC   PO461644  44.704   4.311   5.855
10401POPC   GL161645  44.692   4.323   6.155
10401POPC   GL261646  44.628   4.195   6.155
10401POPC   C1A61647  44.650   4.271   6.455
10401POPC   D2A61648  44.656   4.299   6.755
10401POPC   C3A61649  44.668   4.283   7.055
10401POPC   C4A61650  44.614   4.288   7.355
10401POPC   C1B61651  44.560   4.057   6.455
10401POPC   C2B61652  44.487   4.054   6.755
10401POPC   C3B61653  44.542   4.080   7.055
10401POPC   C4B61654  44.560   4.101   7.355
10402POPC   NC361655  40.025  15.924   5.555
10402POPC   PO461656  40.007  15.910   5.855
10402POPC   GL161657  39.987  15.907   6.155
10402POPC   GL261658  39.873  15.996   6.155
10402POPC   C1A61659  40.003  15.940   6.455
10402POPC   D2A61660  39.967  15.933   6.755
10402POPC   C3A61661  40.020  15.992   7.055
10402POPC   C4A61662  40.029  15.974   7.355
10402POPC   C1B61663  39.769  16.054   6.455
10402POPC   C2B61664  39.737  16.073   6.755
10402POPC   C3B61665  39.763  16.095   7.055
10402POPC   C4B61666  39.753  16.026   7.355
10403POPC   NC361667   9.747  22.156   5.555
10403POPC   PO461668   9.737  22.142   5.855
10403POPC   GL161669   9.787  22.190   6.155
10403POPC   GL261670   9.921  22.185   6.155
10403POPC   C1A61671   9.777  22.128   6.455
10403POPC   D2A61672   9.758  22.145   6.755
10403POPC   C3A61673   9.703  22.158   7.055
10403POPC   C4A61674   9.741  22.128   7.355
10403POPC   C1B61675   9.971  22.169   6.455
10403POPC   C2B61676  10.043  22.179   6.755
10403POPC   C3B61677  10.026  22.134   7.055
10403POPC   C4B61678   9.970  22.225   7.355
10404POPC   NC361679  23.738   8.154   5.555
10404POPC   PO461680  23.741   8.180   5.855
10404POPC   GL161681  23.724   8.200   6.155
10404POPC   GL261682  23.754   8.343   6.155
10404POPC   C1A61683  23.745   8.207   6.455
10404POPC   D2A61684  23.754   8.210   6.755
10404POPC   C3A61685  23.688   8.171   7.055
10404POPC   C4A61686  23.666   8.170   7.355
10404POPC   C1B61687  23.835   8.394   6.455
10404POPC   C2B61688  23.817   8.428   6.755
10404POPC   C3B61689  23.825   8.429   7.055
10404POPC   C4B61690  23.744   8.415   7.355
10405POPC   NC361691  25.275   4.303   5.555
10405POPC   PO461692  25.286   4.313   5.855
10405POPC   GL161693  25.239   4.359   6.155
10405POPC   GL261694  25.210   4.468   6.155
10405POPC   C1A61695  25.272   4.273   6.455
10405POPC   D2A61696  25.305   4.289   6.755
10405POPC   C3A61697  25.287   4.333   7.055
10405POPC   C4A61698  25.292   4.357   7.355
10405POPC   C1B61699  25.223   4.540   6.455
10405POPC   C2B61700  25.177   4.551   6.755
10405POPC   C3B61701  25.216   4.511   7.055
10405POPC   C4B61702  25.155   4.562   7.355
10406POPC   NC361703  15.182  12.122   5.555
10406POPC   PO461704  15.155  12.054   5.855
10406POPC   GL161705  15.206  12.124   6.155
10406POPC   GL261706  15.317  12.116   6.155
10406POPC   C1A61707  15.222  12.119   6.455
10406POPC   D2A61708  15.191  12.108   6.755
10406POPC   C3A61709  15.184  12.051   7.055
10406POPC   C4A61710  15.141  12.086   7.355
10406POPC   C1B61711  15.433  12.107   6.455
10406POPC   C2B61712  15.475  12.054   6.755
10406POPC   C3B61713  15.395  12.093   7.055
10406POPC   C4B61714  15.396  12.117   7.355
10407POPC   NC361715  41.544   5.089   5.555
10407POPC   PO461716  41.588   5.138   5.855
10407POPC   GL161717  41.582   5.063   6.155
10407POPC   GL261718  41.650   5.169   6.155
10407POPC   C1A61719  41.581   5.085   6.455
10407POPC   D2A61720  41.541   5.115   6.755
10407POPC   C3A61721  41.561   5.056   7.055
10407POPC   C4A61722  41.544   5.084   7.355
10407POPC   C1B61723  41.773   5.135   6.455
10407POPC   C2B61724  41.819   5.182   6.755
10407POPC   C3B61725  41.788   5.218   7.055
10407POPC   C4B61726  41.827   5.131   7.355
10408POPC   NC361727  12.047   8.167   5.555
10408POPC   PO461728  12.066   8.171   5.855
10408POPC   GL161729  12.078   8.213   6.155
10408POPC   GL261730  11.971   8.244   6.155
10408POPC   C1A61731  12.052   8.193   6.455
10408POPC   D2A61732  12.058   8.214   6.755
10408POPC   C3A61733  12.103   8.184   7.055
10408POPC   C4A61734  12.051   8.207   7.355
10408POPC   C1B61735  11.875   8.268   6.455
10408POPC   C2B61736  11.788   8.258   6.755
10408POPC   C3B61737  11.804   8.228   7.055
10408POPC   C4B61738  11.790   8.205   7.355
10409POPC   NC361739  12.099  15.175   5.555
10409POPC   PO461740  12.089  15.132   5.855
10409POPC   GL161741  12.043  15.196   6.155
10409POPC   GL261742  12.189  15.106   6.155
10409POPC   C1A61743  12.090  15.144   6.455
10409POPC   D2A61744  12.107  15.204   6.755
10409POPC   C3A61745  12.118  15.194   7.055
10409POPC   C4A61746  12.122  15.178   7.355
10409POPC   C1B61747  12.211  14.970   6.455
10409POPC   C2B61748  12.253  14.960   6.755
10409POPC   C3B61749  12.255  15.015   7.055
10409POPC   C4B61750  12.235  14.988   7.355
10410POPC   NC361751  38.464   9.699   5.555
10410POPC   PO461752  38.436   9.742   5.855
10410POPC   GL161753  38.465   9.711   6.155
10410POPC   GL261754  38.544   9.668   6.155
10410POPC   C1A61755  38.490   9.768   6.455
10410POPC   D2A61756  38.479   9.753   6.755
10410POPC   C3A61757  38.462   9.762   7.055
10410POPC   C4A61758  38.453   9.736   7.355
10410POPC   C1B61759  38.624   9.599   6.455
10410POPC   C2B61760  38.624   9.525   6.755
10410POPC   C3B61761  38.603   9.596   7.055
10410POPC   C4B61762  38.588   9.560   7.355
10411POPC   NC361763  29.121   1.207   5.555
10411POPC   PO461764  29.160   1.196   5.855
10411POPC   GL161765  29.132   1.168   6.155
10411POPC   GL261766  28.997   1.248   6.155
10411POPC   C1A61767  29.149   1.257   6.455
10411POPC   D2A61768  29.129   1.213   6.755
10411POPC   C3A61769  29.114   1.176   7.055
10411POPC   C4A61770  29.169   1.183   7.355
10411POPC   C1B61771  28.936   1.285   6.455
10411POPC   C2B61772  28.898   1.243   6.755
10411POPC   C3B61773  28.908   1.249   7.055
10411POPC   C4B61774  28.913   1.253   7.355
10412POPC   NC361775  22.901  43.086   5.555
10412POPC   PO461776  22.949  43.157   5.855
10412POPC   GL161777  22.904  43.078   6.155
10412POPC   GL261778  22.880  43.003   6.155
10412POPC   C1A61779  22.909  43.103   6.455
10412POPC   D2A61780  22.968  43.114   6.755
10412POPC   C3A61781  22.925  43.108   7.055
10412POPC   C4A61782  22.924  43.101   7.355
10412POPC   C1B61783  22.946  42.821   6.455
10412POPC   C2B61784  22.941  42.895   6.755
10412POPC   C3B61785  22.927  42.863   7.055
10412POPC   C4B61786  22.891  42.811   7.355
10413POPC   NC361787  12.041  27.614   5.555
10413POPC   PO461788  12.061  27.574   5.855
10413POPC   GL161789  12.058  27.571   6.155
10413POPC   GL261790  12.110  27.527   6.155
10413POPC   C1A61791  12.095  27.635   6.455
10413POPC   D2A61792  12.073  27.565   6.755
10413POPC   C3A61793  12.046  27.608   7.055
10413POPC   C4A61794  12.109  27.558   7.355
10413POPC   C1B61795  12.225  27.379   6.455
10413POPC   C2B61796  12.193  27.332   6.755
10413POPC   C3B61797  12.159  27.338   7.055
10413POPC   C4B61798  12.191  27.360   7.355
10414POPC   NC361799  14.431   3.560   5.555
10414POPC   PO461800  14.389   3.528   5.855
10414POPC   GL161801  14.439   3.576   6.155
10414POPC   GL261802  14.324   3.499   6.155
10414POPC   C1A61803  14.367   3.494   6.455
10414POPC   D2A61804  14.407   3.556   6.755
10414POPC   C3A61805  14.389   3.586   7.055
10414POPC   C4A61806  14.375   3.583   7.355
10414POPC   C1B61807  14.167   3.458   6.455
10414POPC   C2B61808  14.136   3.533   6.755
10414POPC   C3B61809  14.178   3.533   7.055
10414POPC   C4B61810  14.145   3.500   7.355
10415POPC   NC361811  37.630  43.096   5.555
10415POPC   PO461812  37.705  43.086   5.855
10415POPC   GL161813  37.689  43.158   6.155
10415POPC   GL261814  37.822  43.116   6.155
10415POPC   C1A61815  37.682  43.088   6.455
10415POPC   D2A61816  37.655  43.106   6.755
10415POPC   C3A61817  37.700  43.063   7.055
10415POPC   C4A61818  37.653  43.085   7.355
10415POPC   C1B61819  37.895  43.076   6.455
10415POPC   C2B61820  37.920  43.046   6.755
10415POPC   C3B61821  37.880  43.006   7.055
10415POPC   C4B61822  37.904  43.035   7.355
10416POPC   NC361823  29.890   1.948   5.555
10416POPC   PO461824  29.911   1.992   5.855
10416POPC   GL161825  29.941   1.973   6.155
10416POPC   GL261826  29.927   1.871   6.155
10416POPC   C1A61827  29.934   1.969   6.455
10416POPC   D2A61828  29.911   1.953   6.755
10416POPC   C3A61829  29.936   1.988   7.055
10416POPC   C4A61830  29.961   2.022   7.355
10416POPC   C1B61831  30.049   1.726   6.455
10416POPC   C2B61832  29.987   1.801   6.755
10416POPC   C3B61833  29.989   1.717   7.055
10416POPC   C4B61834  29.972   1.720   7.355
10417POPC   NC361835  21.436  37.636   5.555
10417POPC   PO461836  21.371  37.629   5.855
10417POPC   GL161837  21.354  37.642   6.155
10417POPC   GL261838  21.369  37.841   6.155
10417POPC   C1A61839  21.369  37.631   6.455
10417POPC   D2A61840  21.362  37.714   6.755
10417POPC   C3A61841  21.397  37.630   7.055
10417POPC   C4A61842  21.359  37.633   7.355
10417POPC   C1B61843  21.342  37.977   6.455
10417POPC   C2B61844  21.325  37.937   6.755
10417POPC   C3B61845  21.368  37.893   7.055
10417POPC   C4B61846  21.413  37.924   7.355
10418POPC   NC361847   8.978  36.144   5.555
10418POPC   PO461848   8.945  36.151   5.855
10418POPC   GL161849   8.987  36.101   6.155
10418POPC   GL261850   9.081  36.127   6.155
10418POPC   C1A61851   8.953  36.097   6.455
10418POPC   D2A61852   9.005  36.177   6.755
10418POPC   C3A61853   8.968  36.128   7.055
10418POPC   C4A61854   8.925  36.081   7.355
10418POPC   C1B61855   9.247  36.187   6.455
10418POPC   C2B61856   9.207  36.233   6.755
10418POPC   C3B61857   9.170  36.178   7.055
10418POPC   C4B61858   9.165  36.257   7.355
10419POPC   NC361859   3.530   9.709   5.555
10419POPC   PO461860   3.526   9.742   5.855
10419POPC   GL161861   3.502   9.784   6.155
10419POPC   GL261862   3.380   9.763   6.155
10419POPC   C1A61863   3.580   9.716   6.455
10419POPC   D2A61864   3.507   9.723   6.755
10419POPC   C3A61865   3.548   9.783   7.055
10419POPC   C4A61866   3.545   9.708   7.355
10419POPC   C1B61867   3.317   9.728   6.455
10419POPC   C2B61868   3.265   9.777   6.755
10419POPC   C3B61869   3.336   9.786   7.055
10419POPC   C4B61870   3.290   9.783   7.355
10420POPC   NC361871  29.140  33.813   5.555
10420POPC   PO461872  29.168  33.779   5.855
10420POPC   GL161873  29.153  33.798   6.155
10420POPC   GL261874  29.002  33.697   6.155
10420POPC   C1A61875  29.192  33.812   6.455
10420POPC   D2A61876  29.134  33.763   6.755
10420POPC   C3A61877  29.178  33.806   7.055
10420POPC   C4A61878  29.194  33.754   7.355
10420POPC   C1B61879  28.940  33.680   6.455
10420POPC   C2B61880  28.941  33.669   6.755
10420POPC   C3B61881  28.939  33.630   7.055
10420POPC   C4B61882  28.932  33.593   7.355
10421POPC   NC361883  38.502  11.346   5.555
10421POPC   PO461884  38.420  11.275   5.855
10421POPC   GL161885  38.445  11.315   6.155
10421POPC   GL261886  38.486  11.212   6.155
10421POPC   C1A61887  38.475  11.341   6.455
10421POPC   D2A61888  38.504  11.305   6.755
10421POPC   C3A61889  38.486  11.345   7.055
10421POPC   C4A61890  38.416  11.286   7.355
10421POPC   C1B61891  38.592  11.048   6.455
10421POPC   C2B61892  38.559  11.111   6.755
10421POPC   C3B61893  38.622  11.074   7.055
10421POPC   C4B61894  38.609  11.093   7.355
10422POPC   NC361895  21.391  27.561   5.555
10422POPC   PO461896  21.393  27.630   5.855
10422POPC   GL161897  21.375  27.607   6.155
10422POPC   GL261898  21.509  27.534   6.155
10422POPC   C1A61899  21.423  27.572   6.455
10422POPC   D2A61900  21.347  27.595   6.755
10422POPC   C3A61901  21.431  27.549   7.055
10422POPC   C4A61902  21.386  27.641   7.355
10422POPC   C1B61903  21.602  27.447   6.455
10422POPC   C2B61904  21.642  27.421   6.755
10422POPC   C3B61905  21.591  27.443   7.055
10422POPC   C4B61906  21.650  27.451   7.355
10423POPC   NC361907  26.062   6.646   5.555
10423POPC   PO461908  26.028   6.619   5.855
10423POPC   GL161909  26.067   6.614   6.155
10423POPC   GL261910  26.196   6.634   6.155
10423POPC   C1A61911  26.050   6.691   6.455
10423POPC   D2A61912  26.043   6.641   6.755
10423POPC   C3A61913  25.995   6.674   7.055
10423POPC   C4A61914  26.028   6.634   7.355
10423POPC   C1B61915  26.326   6.600   6.455
10423POPC   C2B61916  26.269   6.581   6.755
10423POPC   C3B61917  26.301   6.547   7.055
10423POPC   C4B61918  26.240   6.574   7.355
10424POPC   NC361919  16.697  35.396   5.555
10424POPC   PO461920  16.742  35.399   5.855
10424POPC   GL161921  16.758  35.397   6.155
10424POPC   GL261922  16.815  35.459   6.155
10424POPC   C1A61923  16.726  35.368   6.455
10424POPC   D2A61924  16.707  35.383   6.755
10424POPC   C3A61925  16.720  35.334   7.055
10424POPC   C4A61926  16.760  35.320   7.355
10424POPC   C1B61927  16.900  35.529   6.455
10424POPC   C2B61928  16.903  35.579   6.755
10424POPC   C3B61929  16.846  35.606   7.055
10424POPC   C4B61930  16.878  35.559   7.355
10425POPC   NC361931  37.664  43.928   5.555
10425POPC   PO461932  37.666  43.875   5.855
10425POPC   GL161933  37.718  43.883   6.155
10425POPC   GL261934  37.829  43.844   6.155
10425POPC   C1A61935  37.640  43.898   6.455
10425POPC   D2A61936  37.638  43.859   6.755
10425POPC   C3A61937  37.661  43.921   7.055
10425POPC   C4A61938  37.722  43.867   7.355
10425POPC   C1B61939  37.857  43.771   6.455
10425POPC   C2B61940  37.945  43.825   6.755
10425POPC   C3B61941  37.949  43.756   7.055
10425POPC   C4B61942  37.890  43.730   7.355
10426POPC   NC361943   5.051  11.320   5.555
10426POPC   PO461944   5.079  11.251   5.855
10426POPC   GL161945   5.075  11.334   6.155
10426POPC   GL261946   5.105  11.456   6.155
10426POPC   C1A61947   5.128  11.300   6.455
10426POPC   D2A61948   5.071  11.312   6.755
10426POPC   C3A61949   5.109  11.303   7.055
10426POPC   C4A61950   5.060  11.272   7.355
10426POPC   C1B61951   5.117  11.569   6.455
10426POPC   C2B61952   5.183  11.538   6.755
10426POPC   C3B61953   5.191  11.515   7.055
10426POPC   C4B61954   5.129  11.537   7.355
10427POPC   NC361955  29.132  12.811   5.555
10427POPC   PO461956  29.161  12.842   5.855
10427POPC   GL161957  29.104  12.841   6.155
10427POPC   GL261958  29.222  12.702   6.155
10427POPC   C1A61959  29.171  12.826   6.455
10427POPC   D2A61960  29.194  12.851   6.755
10427POPC   C3A61961  29.156  12.840   7.055
10427POPC   C4A61962  29.177  12.837   7.355
10427POPC   C1B61963  29.248  12.615   6.455
10427POPC   C2B61964  29.312  12.663   6.755
10427POPC   C3B61965  29.296  12.603   7.055
10427POPC   C4B61966  29.328  12.667   7.355
10428POPC   NC361967  36.098  32.293   5.555
10428POPC   PO461968  36.096  32.250   5.855
10428POPC   GL161969  36.119  32.220   6.155
10428POPC   GL261970  36.034  32.212   6.155
10428POPC   C1A61971  36.170  32.202   6.455
10428POPC   D2A61972  36.095  32.241   6.755
10428POPC   C3A61973  36.141  32.278   7.055
10428POPC   C4A61974  36.091  32.254   7.355
10428POPC   C1B61975  35.860  32.179   6.455
10428POPC   C2B61976  35.936  32.175   6.755
10428POPC   C3B61977  35.902  32.197   7.055
10428POPC   C4B61978  35.914  32.118   7.355
10429POPC   NC361979  11.291  17.536   5.555
10429POPC   PO461980  11.268  17.473   5.855
10429POPC   GL161981  11.253  17.467   6.155
10429POPC   GL261982  11.263  17.629   6.155
10429POPC   C1A61983  11.262  17.479   6.455
10429POPC   D2A61984  11.342  17.470   6.755
10429POPC   C3A61985  11.331  17.548   7.055
10429POPC   C4A61986  11.262  17.511   7.355
10429POPC   C1B61987  11.177  17.707   6.455
10429POPC   C2B61988  11.193  17.764   6.755
10429POPC   C3B61989  11.187  17.714   7.055
10429POPC   C4B61990  11.167  17.779   7.355
10430POPC   NC361991  15.133   5.833   5.555
10430POPC   PO461992  15.165   5.840   5.855
10430POPC   GL161993  15.134   5.861   6.155
10430POPC   GL261994  15.114   5.976   6.155
10430POPC   C1A61995  15.136   5.852   6.455
10430POPC   D2A61996  15.150   5.851   6.755
10430POPC   C3A61997  15.162   5.859   7.055
10430POPC   C4A61998  15.191   5.844   7.355
10430POPC   C1B61999  15.032   6.055   6.455
10430POPC   C2B62000  15.064   6.085   6.755
10430POPC   C3B62001  15.013   6.043   7.055
10430POPC   C4B62002  15.061   6.041   7.355
10431POPC   NC362003  36.886   4.352   5.555
10431POPC   PO462004  36.937   4.311   5.855
10431POPC   GL162005  36.913   4.344   6.155
10431POPC   GL262006  36.859   4.433   6.155
10431POPC   C1A62007  36.913   4.278   6.455
10431POPC   D2A62008  36.910   4.335   6.755
10431POPC   C3A62009  36.930   4.299   7.055
10431POPC   C4A62010  36.924   4.327   7.355
10431POPC   C1B62011  36.801   4.546   6.455
10431POPC   C2B62012  36.814   4.535   6.755
10431POPC   C3B62013  36.790   4.579   7.055
10431POPC   C4B62014  36.831   4.583   7.355
10432POPC   NC362015  33.067  10.501   5.555
10432POPC   PO462016  33.004  10.533   5.855
10432POPC   GL162017  33.036  10.519   6.155
10432POPC   GL262018  33.126  10.536   6.155
10432POPC   C1A62019  33.060  10.492   6.455
10432POPC   D2A62020  33.037  10.483   6.755
10432POPC   C3A62021  33.048  10.565   7.055
10432POPC   C4A62022  33.003  10.497   7.355
10432POPC   C1B62023  33.252  10.654   6.455
10432POPC   C2B62024  33.240  10.618   6.755
10432POPC   C3B62025  33.306  10.607   7.055
10432POPC   C4B62026  33.278  10.662   7.355
10433POPC   NC362027  29.910  43.157   5.555
10433POPC   PO462028  29.899  43.151   5.855
10433POPC   GL162029  29.876  43.151   6.155
10433POPC   GL262030  29.814  43.236   6.155
10433POPC   C1A62031  29.893  43.118   6.455
10433POPC   D2A62032  29.927  43.099   6.755
10433POPC   C3A62033  29.948  43.145   7.055
10433POPC   C4A62034  29.871  43.067   7.355
10433POPC   C1B62035  29.766  43.303   6.455
10433POPC   C2B62036  29.693  43.287   6.755
10433POPC   C3B62037  29.776  43.259   7.055
10433POPC   C4B62038  29.736  43.244   7.355
10434POPC   NC362039  25.249  36.936   5.555
10434POPC   PO462040  25.269  36.912   5.855
10434POPC   GL162041  25.236  36.941   6.155
10434POPC   GL262042  25.213  37.012   6.155
10434POPC   C1A62043  25.245  36.864   6.455
10434POPC   D2A62044  25.242  36.874   6.755
10434POPC   C3A62045  25.235  36.865   7.055
10434POPC   C4A62046  25.261  36.864   7.355
10434POPC   C1B62047  25.096  37.064   6.455
10434POPC   C2B62048  25.097  37.072   6.755
10434POPC   C3B62049  25.070  37.075   7.055
10434POPC   C4B62050  25.145  37.055   7.355
10435POPC   NC362051  34.557  33.005   5.555
10435POPC   PO462052  34.572  33.041   5.855
10435POPC   GL162053  34.601  33.047   6.155
10435POPC   GL262054  34.511  33.077   6.155
10435POPC   C1A62055  34.587  32.982   6.455
10435POPC   D2A62056  34.528  32.990   6.755
10435POPC   C3A62057  34.615  33.073   7.055
10435POPC   C4A62058  34.588  33.032   7.355
10435POPC   C1B62059  34.372  33.141   6.455
10435POPC   C2B62060  34.321  33.094   6.755
10435POPC   C3B62061  34.388  33.171   7.055
10435POPC   C4B62062  34.360  33.160   7.355
10436POPC   NC362063  22.138  25.310   5.555
10436POPC   PO462064  22.166  25.294   5.855
10436POPC   GL162065  22.178  25.282   6.155
10436POPC   GL262066  22.195  25.100   6.155
10436POPC   C1A62067  22.179  25.246   6.455
10436POPC   D2A62068  22.207  25.310   6.755
10436POPC   C3A62069  22.117  25.271   7.055
10436POPC   C4A62070  22.181  25.259   7.355
10436POPC   C1B62071  22.125  25.050   6.455
10436POPC   C2B62072  22.113  24.989   6.755
10436POPC   C3B62073  22.190  25.064   7.055
10436POPC   C4B62074  22.146  25.061   7.355
10437POPC   NC362075  24.459  19.105   5.555
10437POPC   PO462076  24.471  19.099   5.855
10437POPC   GL162077  24.497  19.106   6.155
10437POPC   GL262078  24.394  18.945   6.155
10437POPC   C1A62079  24.458  19.035   6.455
10437POPC   D2A62080  24.457  19.022   6.755
10437POPC   C3A62081  24.453  19.016   7.055
10437POPC   C4A62082  24.482  19.090   7.355
10437POPC   C1B62083  24.357  18.867   6.455
10437POPC   C2B62084  24.337  18.893   6.755
10437POPC   C3B62085  24.352  18.818   7.055
10437POPC   C4B62086  24.286  18.817   7.355
10438POPC   NC362087  40.794  27.613   5.555
10438POPC   PO462088  40.813  27.557   5.855
10438POPC   GL162089  40.796  27.631   6.155
10438POPC   GL262090  40.645  27.676   6.155
10438POPC   C1A62091  40.765  27.544   6.455
10438POPC   D2A62092  40.754  27.591   6.755
10438POPC   C3A62093  40.817  27.568   7.055
10438POPC   C4A62094  40.751  27.641   7.355
10438POPC   C1B62095  40.548  27.747   6.455
10438POPC   C2B62096  40.569  27.750   6.755
10438POPC   C3B62097  40.605  27.750   7.055
10438POPC   C4B62098  40.541  27.715   7.355
10439POPC   NC362099  25.252  11.305   5.555
10439POPC   PO462100  25.217  11.279   5.855
10439POPC   GL162101  25.238  11.334   6.155
10439POPC   GL262102  25.142  11.261   6.155
10439POPC   C1A62103  25.274  11.304   6.455
10439POPC   D2A62104  25.248  11.327   6.755
10439POPC   C3A62105  25.219  11.267   7.055
10439POPC   C4A62106  25.297  11.259   7.355
10439POPC   C1B62107  25.026  11.258   6.455
10439POPC   C2B62108  25.064  11.255   6.755
10439POPC   C3B62109  25.009  11.275   7.055
10439POPC   C4B62110  25.035  11.285   7.355
10440POPC   NC362111  26.836  31.504   5.555
10440POPC   PO462112  26.775  31.432   5.855
10440POPC   GL162113  26.779  31.509   6.155
10440POPC   GL262114  26.745  31.508   6.155
10440POPC   C1A62115  26.779  31.484   6.455
10440POPC   D2A62116  26.812  31.428   6.755
10440POPC   C3A62117  26.834  31.425   7.055
10440POPC   C4A62118  26.797  31.490   7.355
10440POPC   C1B62119  26.607  31.569   6.455
10440POPC   C2B62120  26.593  31.490   6.755
10440POPC   C3B62121  26.601  31.539   7.055
10440POPC   C4B62122  26.598  31.536   7.355
10441POPC   NC362123  33.037  32.989   5.555
10441POPC   PO462124  33.027  33.041   5.855
10441POPC   GL162125  33.062  33.013   6.155
10441POPC   GL262126  32.868  32.956   6.155
10441POPC   C1A62127  32.978  32.991   6.455
10441POPC   D2A62128  32.997  33.068   6.755
10441POPC   C3A62129  33.035  32.989   7.055
10441POPC   C4A62130  33.004  32.985   7.355
10441POPC   C1B62131  32.749  32.935   6.455
10441POPC   C2B62132  32.808  32.913   6.755
10441POPC   C3B62133  32.824  32.958   7.055
10441POPC   C4B62134  32.738  33.001   7.355
10442POPC   NC362135  24.493  39.205   5.555
10442POPC   PO462136  24.539  39.252   5.855
10442POPC   GL162137  24.453  39.244   6.155
10442POPC   GL262138  24.387  39.162   6.155
10442POPC   C1A62139  24.468  39.184   6.455
10442POPC   D2A62140  24.527  39.229   6.755
10442POPC   C3A62141  24.444  39.242   7.055
10442POPC   C4A62142  24.493  39.181   7.355
10442POPC   C1B62143  24.414  38.968   6.455
10442POPC   C2B62144  24.389  38.959   6.755
10442POPC   C3B62145  24.336  39.035   7.055
10442POPC   C4B62146  24.395  39.013   7.355
10443POPC   NC362147  43.071  15.138   5.555
10443POPC   PO462148  43.135  15.227   5.855
10443POPC   GL162149  43.132  15.182   6.155
10443POPC   GL262150  43.190  15.017   6.155
10443POPC   C1A62151  43.072  15.211   6.455
10443POPC   D2A62152  43.098  15.132   6.755
10443POPC   C3A62153  43.103  15.227   7.055
10443POPC   C4A62154  43.061  15.224   7.355
10443POPC   C1B62155  43.133  14.966   6.455
10443POPC   C2B62156  43.230  14.963   6.755
10443POPC   C3B62157  43.152  14.897   7.055
10443POPC   C4B62158  43.217  14.934   7.355
10444POPC   NC362159   1.214   1.946   5.555
10444POPC   PO462160   1.204   2.020   5.855
10444POPC   GL162161   1.226   2.038   6.155
10444POPC   GL262162   1.311   2.012   6.155
10444POPC   C1A62163   1.226   2.008   6.455
10444POPC   D2A62164   1.197   1.952   6.755
10444POPC   C3A62165   1.215   2.033   7.055
10444POPC   C4A62166   1.214   1.990   7.355
10444POPC   C1B62167   1.436   1.946   6.455
10444POPC   C2B62168   1.490   1.920   6.755
10444POPC   C3B62169   1.463   1.928   7.055
10444POPC   C4B62170   1.457   1.914   7.355
10445POPC   NC362171  38.420  26.083   5.555
10445POPC   PO462172  38.504  25.998   5.855
10445POPC   GL162173  38.463  26.018   6.155
10445POPC   GL262174  38.519  25.955   6.155
10445POPC   C1A62175  38.479  26.087   6.455
10445POPC   D2A62176  38.434  26.021   6.755
10445POPC   C3A62177  38.484  26.032   7.055
10445POPC   C4A62178  38.454  26.005   7.355
10445POPC   C1B62179  38.563  25.845   6.455
10445POPC   C2B62180  38.604  25.835   6.755
10445POPC   C3B62181  38.614  25.826   7.055
10445POPC   C4B62182  38.650  25.796   7.355
10446POPC   NC362183  40.782  40.741   5.555
10446POPC   PO462184  40.795  40.812   5.855
10446POPC   GL162185  40.762  40.758   6.155
10446POPC   GL262186  40.847  40.619   6.155
10446POPC   C1A62187  40.799  40.822   6.455
10446POPC   D2A62188  40.778  40.800   6.755
10446POPC   C3A62189  40.782  40.785   7.055
10446POPC   C4A62190  40.816  40.770   7.355
10446POPC   C1B62191  40.821  40.566   6.455
10446POPC   C2B62192  40.875  40.581   6.755
10446POPC   C3B62193  40.826  40.564   7.055
10446POPC   C4B62194  40.855  40.524   7.355
10447POPC   NC362195   8.929   4.314   5.555
10447POPC   PO462196   8.975   4.304   5.855
10447POPC   GL162197   8.931   4.306   6.155
10447POPC   GL262198   8.826   4.388   6.155
10447POPC   C1A62199   8.960   4.346   6.455
10447POPC   D2A62200   8.975   4.280   6.755
10447POPC   C3A62201   8.949   4.271   7.055
10447POPC   C4A62202   8.963   4.328   7.355
10447POPC   C1B62203   8.746   4.432   6.455
10447POPC   C2B62204   8.800   4.510   6.755
10447POPC   C3B62205   8.801   4.452   7.055
10447POPC   C4B62206   8.824   4.448   7.355
10448POPC   NC362207  19.876  28.396   5.555
10448POPC   PO462208  19.877  28.352   5.855
10448POPC   GL162209  19.872  28.320   6.155
10448POPC   GL262210  19.982  28.274   6.155
10448POPC   C1A62211  19.883  28.403   6.455
10448POPC   D2A62212  19.849  28.414   6.755
10448POPC   C3A62213  19.796  28.388   7.055
10448POPC   C4A62214  19.831  28.404   7.355
10448POPC   C1B62215  20.083  28.190   6.455
10448POPC   C2B62216  20.023  28.209   6.755
10448POPC   C3B62217  20.092  28.187   7.055
10448POPC   C4B62218  20.053  28.253   7.355
10449POPC   NC362219  13.639  16.762   5.555
10449POPC   PO462220  13.669  16.778   5.855
10449POPC   GL162221  13.650  16.687   6.155
10449POPC   GL262222  13.717  16.670   6.155
10449POPC   C1A62223  13.606  16.699   6.455
10449POPC   D2A62224  13.668  16.686   6.755
10449POPC   C3A62225  13.590  16.718   7.055
10449POPC   C4A62226  13.672  16.697   7.355
10449POPC   C1B62227  13.720  16.545   6.455
10449POPC   C2B62228  13.787  16.507   6.755
10449POPC   C3B62229  13.755  16.528   7.055
10449POPC   C4B62230  13.759  16.493   7.355
10450POPC   NC362231   0.429  20.593   5.555
10450POPC   PO462232   0.430  20.653   5.855
10450POPC   GL162233   0.463  20.588   6.155
10450POPC   GL262234   0.270  20.602   6.155
10450POPC   C1A62235   0.481  20.568   6.455
10450POPC   D2A62236   0.466  20.627   6.755
10450POPC   C3A62237   0.419  20.599   7.055
10450POPC   C4A62238   0.434  20.589   7.355
10450POPC   C1B62239   0.151  20.506   6.455
10450POPC   C2B62240   0.170  20.560   6.755
10450POPC   C3B62241   0.185  20.537   7.055
10450POPC   C4B62242   0.157  20.591   7.355
10451POPC   NC362243  36.909   1.259   5.555
10451POPC   PO462244  36.945   1.195   5.855
10451POPC   GL162245  36.893   1.174   6.155
10451POPC   GL262246  36.794   1.288   6.155
10451POPC   C1A62247  36.881   1.209   6.455
10451POPC   D2A62248  36.860   1.185   6.755
10451POPC   C3A62249  36.911   1.191   7.055
10451POPC   C4A62250  36.902   1.218   7.355
10451POPC   C1B62251  36.730   1.346   6.455
10451POPC   C2B62252  36.690   1.322   6.755
10451POPC   C3B62253  36.673   1.345   7.055
10451POPC   C4B62254  36.717   1.342   7.355
10452POPC   NC362255  11.343  40.821   5.555
10452POPC   PO462256  11.267  40.824   5.855
10452POPC   GL162257  11.322  40.761   6.155
10452POPC   GL262258  11.385  40.760   6.155
10452POPC   C1A62259  11.320  40.799   6.455
10452POPC   D2A62260  11.276  40.761   6.755
10452POPC   C3A62261  11.313  40.790   7.055
10452POPC   C4A62262  11.333  40.814   7.355
10452POPC   C1B62263  11.543  40.689   6.455
10452POPC   C2B62264  11.565  40.676   6.755
10452POPC   C3B62265  11.514  40.751   7.055
10452POPC   C4B62266  11.529  40.727   7.355
10453POPC   NC362267  40.749  28.348   5.555
10453POPC   PO462268  40.752  28.399   5.855
10453POPC   GL162269  40.759  28.335   6.155
10453POPC   GL262270  40.870  28.527   6.155
10453POPC   C1A62271  40.794  28.326   6.455
10453POPC   D2A62272  40.753  28.390   6.755
10453POPC   C3A62273  40.733  28.389   7.055
10453POPC   C4A62274  40.830  28.339   7.355
10453POPC   C1B62275  40.882  28.622   6.455
10453POPC   C2B62276  40.943  28.618   6.755
10453POPC   C3B62277  40.905  28.614   7.055
10453POPC   C4B62278  40.878  28.587   7.355
10454POPC   NC362279  28.381  38.455   5.555
10454POPC   PO462280  28.397  38.496   5.855
10454POPC   GL162281  28.366  38.424   6.155
10454POPC   GL262282  28.285  38.461   6.155
10454POPC   C1A62283  28.403  38.471   6.455
10454POPC   D2A62284  28.380  38.446   6.755
10454POPC   C3A62285  28.348  38.465   7.055
10454POPC   C4A62286  28.386  38.452   7.355
10454POPC   C1B62287  28.175  38.598   6.455
10454POPC   C2B62288  28.130  38.561   6.755
10454POPC   C3B62289  28.096  38.556   7.055
10454POPC   C4B62290  28.132  38.569   7.355
10455POPC   NC362291   5.097  39.270   5.555
10455POPC   PO462292   5.088  39.278   5.855
10455POPC   GL162293   5.137  39.185   6.155
10455POPC   GL262294   5.039  39.146   6.155
10455POPC   C1A62295   5.062  39.247   6.455
10455POPC   D2A62296   5.058  39.260   6.755
10455POPC   C3A62297   5.131  39.201   7.055
10455POPC   C4A62298   5.074  39.221   7.355
10455POPC   C1B62299   4.925  39.090   6.455
10455POPC   C2B62300   4.966  39.066   6.755
10455POPC   C3B62301   4.885  39.069   7.055
10455POPC   C4B62302   4.909  39.011   7.355
10456POPC   NC362303  17.472  11.266   5.555
10456POPC   PO462304  17.555  11.275   5.855
10456POPC   GL162305  17.511  11.317   6.155
10456POPC   GL262306  17.573  11.201   6.155
10456POPC   C1A62307  17.470  11.308   6.455
10456POPC   D2A62308  17.554  11.283   6.755
10456POPC   C3A62309  17.527  11.272   7.055
10456POPC   C4A62310  17.535  11.337   7.355
10456POPC   C1B62311  17.676  11.116   6.455
10456POPC   C2B62312  17.688  11.153   6.755
10456POPC   C3B62313  17.725  11.145   7.055
10456POPC   C4B62314  17.731  11.118   7.355
10457POPC   NC362315   4.270   9.755   5.555
10457POPC   PO462316   4.349   9.780   5.855
10457POPC   GL162317   4.328   9.701   6.155
10457POPC   GL262318   4.180   9.736   6.155
10457POPC   C1A62319   4.335   9.745   6.455
10457POPC   D2A62320   4.305   9.776   6.755
10457POPC   C3A62321   4.308   9.719   7.055
10457POPC   C4A62322   4.341   9.794   7.355
10457POPC   C1B62323   4.079   9.726   6.455
10457POPC   C2B62324   4.064   9.770   6.755
10457POPC   C3B62325   4.079   9.693   7.055
10457POPC   C4B62326   4.101   9.718   7.355
10458POPC   NC362327  31.495  40.744   5.555
10458POPC   PO462328  31.509  40.797   5.855
10458POPC   GL162329  31.516  40.815   6.155
10458POPC   GL262330  31.330  40.776   6.155
10458POPC   C1A62331  31.490  40.745   6.455
10458POPC   D2A62332  31.474  40.817   6.755
10458POPC   C3A62333  31.476  40.819   7.055
10458POPC   C4A62334  31.466  40.828   7.355
10458POPC   C1B62335  31.208  40.718   6.455
10458POPC   C2B62336  31.285  40.702   6.755
10458POPC   C3B62337  31.276  40.701   7.055
10458POPC   C4B62338  31.225  40.722   7.355
10459POPC   NC362339  27.612  17.510   5.555
10459POPC   PO462340  27.616  17.503   5.855
10459POPC   GL162341  27.544  17.490   6.155
10459POPC   GL262342  27.555  17.671   6.155
10459POPC   C1A62343  27.634  17.525   6.455
10459POPC   D2A62344  27.593  17.521   6.755
10459POPC   C3A62345  27.620  17.550   7.055
10459POPC   C4A62346  27.561  17.522   7.355
10459POPC   C1B62347  27.613  17.773   6.455
10459POPC   C2B62348  27.563  17.738   6.755
10459POPC   C3B62349  27.608  17.756   7.055
10459POPC   C4B62350  27.561  17.761   7.355
10460POPC   NC362351  36.093  38.459   5.555
10460POPC   PO462352  36.093  38.406   5.855
10460POPC   GL162353  36.145  38.456   6.155
10460POPC   GL262354  36.237  38.403   6.155
10460POPC   C1A62355  36.169  38.491   6.455
10460POPC   D2A62356  36.115  38.480   6.755
10460POPC   C3A62357  36.157  38.451   7.055
10460POPC   C4A62358  36.127  38.483   7.355
10460POPC   C1B62359  36.374  38.315   6.455
10460POPC   C2B62360  36.333  38.312   6.755
10460POPC   C3B62361  36.345  38.274   7.055
10460POPC   C4B62362  36.302  38.325   7.355
10461POPC   NC362363   1.253   5.131   5.555
10461POPC   PO462364   1.202   5.070   5.855
10461POPC   GL162365   1.187   5.061   6.155
10461POPC   GL262366   1.205   4.920   6.155
10461POPC   C1A62367   1.229   5.078   6.455
10461POPC   D2A62368   1.244   5.051   6.755
10461POPC   C3A62369   1.206   5.075   7.055
10461POPC   C4A62370   1.232   5.095   7.355
10461POPC   C1B62371   1.213   4.819   6.455
10461POPC   C2B62372   1.202   4.810   6.755
10461POPC   C3B62373   1.173   4.803   7.055
10461POPC   C4B62374   1.164   4.858   7.355
10462POPC   NC362375  26.077   1.238   5.555
10462POPC   PO462376  26.071   1.216   5.855
10462POPC   GL162377  26.084   1.224   6.155
10462POPC   GL262378  26.068   1.097   6.155
10462POPC   C1A62379  25.997   1.250   6.455
10462POPC   D2A62380  25.992   1.207   6.755
10462POPC   C3A62381  26.018   1.188   7.055
10462POPC   C4A62382  26.027   1.215   7.355
10462POPC   C1B62383  26.049   1.008   6.455
10462POPC   C2B62384  26.011   0.933   6.755
10462POPC   C3B62385  26.005   0.949   7.055
10462POPC   C4B62386  25.978   0.947   7.355
10463POPC   NC362387  19.053  36.881   5.555
10463POPC   PO462388  19.032  36.926   5.855
10463POPC   GL162389  19.028  36.890   6.155
10463POPC   GL262390  19.040  37.037   6.155
10463POPC   C1A62391  19.036  36.857   6.455
10463POPC   D2A62392  19.088  36.927   6.755
10463POPC   C3A62393  19.037  36.872   7.055
10463POPC   C4A62394  19.011  36.884   7.355
10463POPC   C1B62395  18.923  37.124   6.455
10463POPC   C2B62396  18.950  37.167   6.755
10463POPC   C3B62397  19.000  37.088   7.055
10463POPC   C4B62398  19.012  37.154   7.355
10464POPC   NC362399  41.585  19.095   5.555
10464POPC   PO462400  41.608  19.046   5.855
10464POPC   GL162401  41.584  19.031   6.155
10464POPC   GL262402  41.705  19.136   6.155
10464POPC   C1A62403  41.542  19.059   6.455
10464POPC   D2A62404  41.536  19.021   6.755
10464POPC   C3A62405  41.525  19.033   7.055
10464POPC   C4A62406  41.583  19.025   7.355
10464POPC   C1B62407  41.779  19.132   6.455
10464POPC   C2B62408  41.829  19.170   6.755
10464POPC   C3B62409  41.818  19.162   7.055
10464POPC   C4B62410  41.789  19.107   7.355
10465POPC   NC362411  37.664   2.782   5.555
10465POPC   PO462412  37.637   2.760   5.855
10465POPC   GL162413  37.630   2.743   6.155
10465POPC   GL262414  37.813   2.817   6.155
10465POPC   C1A62415  37.667   2.784   6.455
10465POPC   D2A62416  37.691   2.801   6.755
10465POPC   C3A62417  37.692   2.773   7.055
10465POPC   C4A62418  37.701   2.778   7.355
10465POPC   C1B62419  37.964   2.808   6.455
10465POPC   C2B62420  37.943   2.841   6.755
10465POPC   C3B62421  37.927   2.764   7.055
10465POPC   C4B62422  37.917   2.753   7.355
10466POPC   NC362423  17.464  21.430   5.555
10466POPC   PO462424  17.524  21.395   5.855
10466POPC   GL162425  17.472  21.415   6.155
10466POPC   GL262426  17.394  21.317   6.155
10466POPC   C1A62427  17.463  21.370   6.455
10466POPC   D2A62428  17.471  21.380   6.755
10466POPC   C3A62429  17.544  21.356   7.055
10466POPC   C4A62430  17.488  21.407   7.355
10466POPC   C1B62431  17.227  21.325   6.455
10466POPC   C2B62432  17.306  21.270   6.755
10466POPC   C3B62433  17.265  21.329   7.055
10466POPC   C4B62434  17.303  21.260   7.355
10467POPC   NC362435  22.976  40.036   5.555
10467POPC   PO462436  22.961  40.028   5.855
10467POPC   GL162437  22.943  40.051   6.155
10467POPC   GL262438  22.814  39.973   6.155
10467POPC   C1A62439  22.949  39.977   6.455
10467POPC   D2A62440  22.969  39.981   6.755
10467POPC   C3A62441  22.960  40.035   7.055
10467POPC   C4A62442  22.923  40.051   7.355
10467POPC   C1B62443  22.727  39.908   6.455
10467POPC   C2B62444  22.647  39.897   6.755
10467POPC   C3B62445  22.719  39.967   7.055
10467POPC   C4B62446  22.674  39.923   7.355
10468POPC   NC362447   5.053   2.011   5.555
10468POPC   PO462448   5.065   2.031   5.855
10468POPC   GL162449   5.106   2.038   6.155
10468POPC   GL262450   5.153   1.967   6.155
10468POPC   C1A62451   5.118   1.987   6.455
10468POPC   D2A62452   5.063   2.037   6.755
10468POPC   C3A62453   5.128   2.028   7.055
10468POPC   C4A62454   5.099   2.015   7.355
10468POPC   C1B62455   5.292   1.867   6.455
10468POPC   C2B62456   5.321   1.808   6.755
10468POPC   C3B62457   5.281   1.817   7.055
10468POPC   C4B62458   5.308   1.829   7.355
10469POPC   NC362459  39.254   0.442   5.555
10469POPC   PO462460  39.235   0.459   5.855
10469POPC   GL162461  39.240   0.416   6.155
10469POPC   GL262462  39.133   0.449   6.155
10469POPC   C1A62463  39.190   0.447   6.455
10469POPC   D2A62464  39.223   0.426   6.755
10469POPC   C3A62465  39.240   0.446   7.055
10469POPC   C4A62466  39.207   0.440   7.355
10469POPC   C1B62467  38.981   0.492   6.455
10469POPC   C2B62468  38.982   0.510   6.755
10469POPC   C3B62469  39.012   0.493   7.055
10469POPC   C4B62470  39.019   0.543   7.355
10470POPC   NC362471  20.627  35.304   5.555
10470POPC   PO462472  20.618  35.355   5.855
10470POPC   GL162473  20.572  35.344   6.155
10470POPC   GL262474  20.473  35.344   6.155
10470POPC   C1A62475  20.607  35.400   6.455
10470POPC   D2A62476  20.625  35.363   6.755
10470POPC   C3A62477  20.593  35.396   7.055
10470POPC   C4A62478  20.657  35.341   7.355
10470POPC   C1B62479  20.434  35.231   6.455
10470POPC   C2B62480  20.431  35.282   6.755
10470POPC   C3B62481  20.404  35.204   7.055
10470POPC   C4B62482  20.368  35.225   7.355
10471POPC   NC362483  12.063  12.086   5.555
10471POPC   PO462484  12.070  12.043   5.855
10471POPC   GL162485  12.029  12.083   6.155
10471POPC   GL262486  12.179  12.130   6.155
10471POPC   C1A62487  12.083  12.042   6.455
10471POPC   D2A62488  12.067  12.082   6.755
10471POPC   C3A62489  12.101  12.034   7.055
10471POPC   C4A62490  12.036  12.100   7.355
10471POPC   C1B62491  12.274  12.135   6.455
10471POPC   C2B62492  12.345  12.075   6.755
10471POPC   C3B62493  12.367  12.133   7.055
10471POPC   C4B62494  12.357  12.112   7.355
10472POPC   NC362495  19.805   6.630   5.555
10472POPC   PO462496  19.789   6.682   5.855
10472POPC   GL162497  19.863   6.692   6.155
10472POPC   GL262498  19.727   6.659   6.155
10472POPC   C1A62499  19.870   6.611   6.455
10472POPC   D2A62500  19.792   6.612   6.755
10472POPC   C3A62501  19.818   6.643   7.055
10472POPC   C4A62502  19.866   6.611   7.355
10472POPC   C1B62503  19.585   6.635   6.455
10472POPC   C2B62504  19.626   6.651   6.755
10472POPC   C3B62505  19.580   6.701   7.055
10472POPC   C4B62506  19.596   6.664   7.355
10473POPC   NC362507  33.788  26.042   5.555
10473POPC   PO462508  33.841  26.034   5.855
10473POPC   GL162509  33.825  26.021   6.155
10473POPC   GL262510  33.892  26.118   6.155
10473POPC   C1A62511  33.750  26.036   6.455
10473POPC   D2A62512  33.828  26.043   6.755
10473POPC   C3A62513  33.838  26.004   7.055
10473POPC   C4A62514  33.842  25.996   7.355
10473POPC   C1B62515  33.893  26.284   6.455
10473POPC   C2B62516  33.932  26.262   6.755
10473POPC   C3B62517  33.861  26.314   7.055
10473POPC   C4B62518  33.865  26.247   7.355
10474POPC   NC362519   5.869   3.553   5.555
10474POPC   PO462520   5.830   3.563   5.855
10474POPC   GL162521   5.876   3.573   6.155
10474POPC   GL262522   5.876   3.460   6.155
10474POPC   C1A62523   5.839   3.514   6.455
10474POPC   D2A62524   5.820   3.528   6.755
10474POPC   C3A62525   5.863   3.543   7.055
10474POPC   C4A62526   5.841   3.536   7.355
10474POPC   C1B62527   5.922   3.251   6.455
10474POPC   C2B62528   5.926   3.300   6.755
10474POPC   C3B62529   5.934   3.328   7.055
10474POPC   C4B62530   5.887   3.263   7.355
10475POPC   NC362531  19.090  12.857   5.555
10475POPC   PO462532  19.082  12.875   5.855
10475POPC   GL162533  19.060  12.865   6.155
10475POPC   GL262534  18.996  12.792   6.155
10475POPC   C1A62535  19.082  12.854   6.455
10475POPC   D2A62536  19.053  12.815   6.755
10475POPC   C3A62537  19.098  12.810   7.055
10475POPC   C4A62538  19.107  12.887   7.355
10475POPC   C1B62539  18.909  12.649   6.455
10475POPC   C2B62540  18.905  12.650   6.755
10475POPC   C3B62541  18.949  12.637   7.055
10475POPC   C4B62542  18.926  12.607   7.355
10476POPC   NC362543  13.582   9.726   5.555
10476POPC   PO462544  13.613   9.789   5.855
10476POPC   GL162545  13.656   9.749   6.155
10476POPC   GL262546  13.716   9.673   6.155
10476POPC   C1A62547  13.642   9.709   6.455
10476POPC   D2A62548  13.668   9.753   6.755
10476POPC   C3A62549  13.634   9.793   7.055
10476POPC   C4A62550  13.677   9.702   7.355
10476POPC   C1B62551  13.837   9.600   6.455
10476POPC   C2B62552  13.803   9.562   6.755
10476POPC   C3B62553  13.856   9.636   7.055
10476POPC   C4B62554  13.846   9.638   7.355
10477POPC   NC362555   7.395   5.902   5.555
10477POPC   PO462556   7.423   5.896   5.855
10477POPC   GL162557   7.395   5.881   6.155
10477POPC   GL262558   7.264   5.836   6.155
10477POPC   C1A62559   7.456   5.907   6.455
10477POPC   D2A62560   7.414   5.908   6.755
10477POPC   C3A62561   7.392   5.899   7.055
10477POPC   C4A62562   7.470   5.841   7.355
10477POPC   C1B62563   7.221   5.922   6.455
10477POPC   C2B62564   7.203   5.865   6.755
10477POPC   C3B62565   7.201   5.855   7.055
10477POPC   C4B62566   7.217   5.849   7.355
10478POPC   NC362567  33.785  36.152   5.555
10478POPC   PO462568  33.825  36.128   5.855
10478POPC   GL162569  33.790  36.161   6.155
10478POPC   GL262570  33.892  36.175   6.155
10478POPC   C1A62571  33.803  36.170   6.455
10478POPC   D2A62572  33.822  36.161   6.755
10478POPC   C3A62573  33.814  36.140   7.055
10478POPC   C4A62574  33.776  36.095   7.355
10478POPC   C1B62575  34.043  36.257   6.455
10478POPC   C2B62576  34.036  36.209   6.755
10478POPC   C3B62577  33.990  36.261   7.055
10478POPC   C4B62578  34.039  36.178   7.355
10479POPC   NC362579  28.394  29.964   5.555
10479POPC   PO462580  28.323  29.891   5.855
10479POPC   GL162581  28.321  29.921   6.155
10479POPC   GL262582  28.510  29.976   6.155
10479POPC   C1A62583  28.399  29.922   6.455
10479POPC   D2A62584  28.348  29.930   6.755
10479POPC   C3A62585  28.398  29.942   7.055
10479POPC   C4A62586  28.357  29.950   7.355
10479POPC   C1B62587  28.598  30.122   6.455
10479POPC   C2B62588  28.610  30.057   6.755
10479POPC   C3B62589  28.531  30.060   7.055
10479POPC   C4B62590  28.532  30.076   7.355
10480POPC   NC362591   8.172   9.699   5.555
10480POPC   PO462592   8.192   9.725   5.855
10480POPC   GL162593   8.219   9.797   6.155
10480POPC   GL262594   8.104   9.871   6.155
10480POPC   C1A62595   8.234   9.743   6.455
10480POPC   D2A62596   8.171   9.735   6.755
10480POPC   C3A62597   8.243   9.758   7.055
10480POPC   C4A62598   8.213   9.783   7.355
10480POPC   C1B62599   8.062   9.961   6.455
10480POPC   C2B62600   8.040   9.978   6.755
10480POPC   C3B62601   7.990   9.969   7.055
10480POPC   C4B62602   8.053   9.899   7.355
10481POPC   NC362603  30.686  44.706   5.555
10481POPC   PO462604  30.734  44.666   5.855
10481POPC   GL162605  30.704  44.703   6.155
10481POPC   GL262606  30.688  44.774   6.155
10481POPC   C1A62607  30.729  44.653   6.455
10481POPC   D2A62608  30.682  44.677   6.755
10481POPC   C3A62609  30.694  44.705   7.055
10481POPC   C4A62610  30.707  44.648   7.355
10481POPC   C1B62611  30.620  44.837   6.455
10481POPC   C2B62612  30.570  44.924   6.755
10481POPC   C3B62613  30.551  44.905   7.055
10481POPC   C4B62614  30.555  44.888   7.355
10482POPC   NC362615  24.493  43.156   5.555
10482POPC   PO462616  24.502  43.076   5.855
10482POPC   GL162617  24.471  43.134   6.155
10482POPC   GL262618  24.320  43.142   6.155
10482POPC   C1A62619  24.445  43.064   6.455
10482POPC   D2A62620  24.441  43.123   6.755
10482POPC   C3A62621  24.509  43.095   7.055
10482POPC   C4A62622  24.539  43.134   7.355
10482POPC   C1B62623  24.208  43.187   6.455
10482POPC   C2B62624  24.224  43.116   6.755
10482POPC   C3B62625  24.283  43.172   7.055
10482POPC   C4B62626  24.229  43.106   7.355
10483POPC   NC362627  30.689  35.377   5.555
10483POPC   PO462628  30.697  35.394   5.855
10483POPC   GL162629  30.697  35.398   6.155
10483POPC   GL262630  30.849  35.324   6.155
10483POPC   C1A62631  30.733  35.378   6.455
10483POPC   D2A62632  30.664  35.360   6.755
10483POPC   C3A62633  30.741  35.324   7.055
10483POPC   C4A62634  30.672  35.312   7.355
10483POPC   C1B62635  30.994  35.406   6.455
10483POPC   C2B62636  30.921  35.382   6.755
10483POPC   C3B62637  30.988  35.351   7.055
10483POPC   C4B62638  30.944  35.372   7.355
10484POPC   NC362639  39.270  40.735   5.555
10484POPC   PO462640  39.194  40.798   5.855
10484POPC   GL162641  39.252  40.791   6.155
10484POPC   GL262642  39.087  40.764   6.155
10484POPC   C1A62643  39.253  40.797   6.455
10484POPC   D2A62644  39.196  40.787   6.755
10484POPC   C3A62645  39.263  40.741   7.055
10484POPC   C4A62646  39.237  40.745   7.355
10484POPC   C1B62647  38.970  40.711   6.455
10484POPC   C2B62648  39.039  40.666   6.755
10484POPC   C3B62649  39.024  40.665   7.055
10484POPC   C4B62650  38.996  40.674   7.355
10485POPC   NC362651  37.637  38.503   5.555
10485POPC   PO462652  37.689  38.452   5.855
10485POPC   GL162653  37.657  38.437   6.155
10485POPC   GL262654  37.585  38.331   6.155
10485POPC   C1A62655  37.655  38.443   6.455
10485POPC   D2A62656  37.678  38.481   6.755
10485POPC   C3A62657  37.710  38.501   7.055
10485POPC   C4A62658  37.642  38.422   7.355
10485POPC   C1B62659  37.538  38.239   6.455
10485POPC   C2B62660  37.507  38.320   6.755
10485POPC   C3B62661  37.517  38.268   7.055
10485POPC   C4B62662  37.535  38.264   7.355
10486POPC   NC362663   4.306  39.239   5.555
10486POPC   PO462664   4.356  39.201   5.855
10486POPC   GL162665   4.336  39.253   6.155
10486POPC   GL262666   4.252  39.304   6.155
10486POPC   C1A62667   4.343  39.271   6.455
10486POPC   D2A62668   4.308  39.261   6.755
10486POPC   C3A62669   4.363  39.234   7.055
10486POPC   C4A62670   4.344  39.261   7.355
10486POPC   C1B62671   4.273  39.488   6.455
10486POPC   C2B62672   4.243  39.489   6.755
10486POPC   C3B62673   4.248  39.423   7.055
10486POPC   C4B62674   4.200  39.506   7.355
10487POPC   NC362675  42.334  33.059   5.555
10487POPC   PO462676  42.357  32.983   5.855
10487POPC   GL162677  42.298  33.003   6.155
10487POPC   GL262678  42.200  33.066   6.155
10487POPC   C1A62679  42.309  33.030   6.455
10487POPC   D2A62680  42.318  33.038   6.755
10487POPC   C3A62681  42.318  33.007   7.055
10487POPC   C4A62682  42.343  33.015   7.355
10487POPC   C1B62683  42.082  33.091   6.455
10487POPC   C2B62684  42.131  33.078   6.755
10487POPC   C3B62685  42.100  33.003   7.055
10487POPC   C4B62686  42.076  33.017   7.355
10488POPC   NC362687  11.332   8.171   5.555
10488POPC   PO462688  11.310   8.240   5.855
10488POPC   GL162689  11.253   8.215   6.155
10488POPC   GL262690  11.314   8.347   6.155
10488POPC   C1A62691  11.269   8.167   6.455
10488POPC   D2A62692  11.280   8.201   6.755
10488POPC   C3A62693  11.320   8.230   7.055
10488POPC   C4A62694  11.294   8.234   7.355
10488POPC   C1B62695  11.432   8.382   6.455
10488POPC   C2B62696  11.373   8.432   6.755
10488POPC   C3B62697  11.391   8.438   7.055
10488POPC   C4B62698  11.408   8.421   7.355
10489POPC   NC362699  37.678  31.458   5.555
10489POPC   PO462700  37.653  31.449   5.855
10489POPC   GL162701  37.701  31.440   6.155
10489POPC   GL262702  37.666  31.553   6.155
10489POPC   C1A62703  37.714  31.429   6.455
10489POPC   D2A62704  37.675  31.497   6.755
10489POPC   C3A62705  37.661  31.438   7.055
10489POPC   C4A62706  37.720  31.456   7.355
10489POPC   C1B62707  37.595  31.664   6.455
10489POPC   C2B62708  37.542  31.693   6.755
10489POPC   C3B62709  37.513  31.706   7.055
10489POPC   C4B62710  37.564  31.715   7.355
10490POPC   NC362711   5.136  37.705   5.555
10490POPC   PO462712   5.137  37.715   5.855
10490POPC   GL162713   5.133  37.675   6.155
10490POPC   GL262714   5.012  37.826   6.155
10490POPC   C1A62715   5.044  37.690   6.455
10490POPC   D2A62716   5.115  37.715   6.755
10490POPC   C3A62717   5.106  37.674   7.055
10490POPC   C4A62718   5.133  37.706   7.355
10490POPC   C1B62719   4.987  37.952   6.455
10490POPC   C2B62720   4.973  37.867   6.755
10490POPC   C3B62721   5.014  37.955   7.055
10490POPC   C4B62722   4.954  37.930   7.355
10491POPC   NC362723  15.988  30.743   5.555
10491POPC   PO462724  15.940  30.714   5.855
10491POPC   GL162725  15.948  30.721   6.155
10491POPC   GL262726  15.932  30.610   6.155
10491POPC   C1A62727  15.914  30.686   6.455
10491POPC   D2A62728  15.945  30.702   6.755
10491POPC   C3A62729  15.996  30.673   7.055
10491POPC   C4A62730  15.940  30.658   7.355
10491POPC   C1B62731  15.928  30.402   6.455
10491POPC   C2B62732  15.967  30.468   6.755
10491POPC   C3B62733  15.938  30.453   7.055
10491POPC   C4B62734  15.942  30.409   7.355
10492POPC   NC362735  36.151  36.912   5.555
10492POPC   PO462736  36.120  36.927   5.855
10492POPC   GL162737  36.151  36.876   6.155
10492POPC   GL262738  36.091  37.018   6.155
10492POPC   C1A62739  36.083  36.858   6.455
10492POPC   D2A62740  36.118  36.857   6.755
10492POPC   C3A62741  36.086  36.875   7.055
10492POPC   C4A62742  36.150  36.907   7.355
10492POPC   C1B62743  36.124  37.105   6.455
10492POPC   C2B62744  36.134  37.147   6.755
10492POPC   C3B62745  36.140  37.188   7.055
10492POPC   C4B62746  36.136  37.180   7.355
10493POPC   NC362747  41.570  36.896   5.555
10493POPC   PO462748  41.518  36.944   5.855
10493POPC   GL162749  41.589  36.915   6.155
10493POPC   GL262750  41.546  37.005   6.155
10493POPC   C1A62751  41.579  36.893   6.455
10493POPC   D2A62752  41.548  36.884   6.755
10493POPC   C3A62753  41.597  36.937   7.055
10493POPC   C4A62754  41.526  36.894   7.355
10493POPC   C1B62755  41.567  37.123   6.455
10493POPC   C2B62756  41.588  37.127   6.755
10493POPC   C3B62757  41.627  37.152   7.055
10493POPC   C4B62758  41.641  37.157   7.355
10494POPC   NC362759  23.674  10.551   5.555
10494POPC   PO462760  23.708  10.510   5.855
10494POPC   GL162761  23.717  10.509   6.155
10494POPC   GL262762  23.827  10.541   6.155
10494POPC   C1A62763  23.695  10.507   6.455
10494POPC   D2A62764  23.723  10.572   6.755
10494POPC   C3A62765  23.682  10.510   7.055
10494POPC   C4A62766  23.755  10.534   7.355
10494POPC   C1B62767  23.935  10.522   6.455
10494POPC   C2B62768  23.939  10.498   6.755
10494POPC   C3B62769  24.012  10.462   7.055
10494POPC   C4B62770  23.921  10.491   7.355
10495POPC   NC362771  12.106  26.814   5.555
10495POPC   PO462772  12.055  26.830   5.855
10495POPC   GL162773  12.078  26.807   6.155
10495POPC   GL262774  12.001  26.971   6.155
10495POPC   C1A62775  12.110  26.771   6.455
10495POPC   D2A62776  12.077  26.855   6.755
10495POPC   C3A62777  12.104  26.866   7.055
10495POPC   C4A62778  12.118  26.802   7.355
10495POPC   C1B62779  11.937  27.016   6.455
10495POPC   C2B62780  11.925  27.010   6.755
10495POPC   C3B62781  11.969  27.049   7.055
10495POPC   C4B62782  11.987  27.017   7.355
10496POPC   NC362783  39.961   1.217   5.555
10496POPC   PO462784  39.994   1.203   5.855
10496POPC   GL162785  40.015   1.263   6.155
10496POPC   GL262786  39.909   1.123   6.155
10496POPC   C1A62787  40.035   1.248   6.455
10496POPC   D2A62788  39.984   1.206   6.755
10496POPC   C3A62789  39.976   1.202   7.055
10496POPC   C4A62790  40.030   1.214   7.355
10496POPC   C1B62791  39.793   1.045   6.455
10496POPC   C2B62792  39.800   1.037   6.755
10496POPC   C3B62793  39.851   1.062   7.055
10496POPC   C4B62794  39.804   1.007   7.355
10497POPC   NC362795  27.582  21.400   5.555
10497POPC   PO462796  27.619  21.403   5.855
10497POPC   GL162797  27.599  21.344   6.155
10497POPC   GL262798  27.643  21.514   6.155
10497POPC   C1A62799  27.631  21.377   6.455
10497POPC   D2A62800  27.556  21.407   6.755
10497POPC   C3A62801  27.600  21.386   7.055
10497POPC   C4A62802  27.642  21.398   7.355
10497POPC   C1B62803  27.587  21.675   6.455
10497POPC   C2B62804  27.568  21.588   6.755
10497POPC   C3B62805  27.551  21.664   7.055
10497POPC   C4B62806  27.553  21.625   7.355
10498POPC   NC362807  22.969  36.856   5.555
10498POPC   PO462808  22.969  36.934   5.855
10498POPC   GL162809  22.901  36.867   6.155
10498POPC   GL262810  22.813  36.841   6.155
10498POPC   C1A62811  22.914  36.952   6.455
10498POPC   D2A62812  22.964  36.947   6.755
10498POPC   C3A62813  22.946  36.911   7.055
10498POPC   C4A62814  22.969  36.877   7.355
10498POPC   C1B62815  22.771  36.719   6.455
10498POPC   C2B62816  22.775  36.762   6.755
10498POPC   C3B62817  22.767  36.732   7.055
10498POPC   C4B62818  22.708  36.750   7.355
10499POPC   NC362819  24.492  44.640   5.555
10499POPC   PO462820  24.510  44.640   5.855
10499POPC   GL162821  24.489  44.619   6.155
10499POPC   GL262822  24.523  44.539   6.155
10499POPC   C1A62823  24.536  44.698   6.455
10499POPC   D2A62824  24.462  44.709   6.755
10499POPC   C3A62825  24.529  44.623   7.055
10499POPC   C4A62826  24.497  44.625   7.355
10499POPC   C1B62827  24.591  44.475   6.455
10499POPC   C2B62828  24.584  44.456   6.755
10499POPC   C3B62829  24.562  44.397   7.055
10499POPC   C4B62830  24.576  44.441   7.355
10500POPC   NC362831  43.153  14.357   5.555
10500POPC   PO462832  43.144  14.365   5.855
10500POPC   GL162833  43.150  14.360   6.155
10500POPC   GL262834  43.160  14.533   6.155
10500POPC   C1A62835  43.140  14.417   6.455
10500POPC   D2A62836  43.104  14.378   6.755
10500POPC   C3A62837  43.158  14.440   7.055
10500POPC   C4A62838  43.108  14.366   7.355
10500POPC   C1B62839  43.196  14.582   6.455
10500POPC   C2B62840  43.252  14.633   6.755
10500POPC   C3B62841  43.290  14.572   7.055
10500POPC   C4B62842  43.202  14.605   7.355
10501POPC   NC362843  18.277  33.799   5.555
10501POPC   PO462844  18.266  33.777   5.855
10501POPC   GL162845  18.233  33.794   6.155
10501POPC   GL262846  18.283  33.640   6.155
10501POPC   C1A62847  18.235  33.772   6.455
10501POPC   D2A62848  18.282  33.813   6.755
10501POPC   C3A62849  18.244  33.824   7.055
10501POPC   C4A62850  18.274  33.753   7.355
10501POPC   C1B62851  18.272  33.566   6.455
10501POPC   C2B62852  18.290  33.600   6.755
10501POPC   C3B62853  18.280  33.573   7.055
10501POPC   C4B62854  18.277  33.588   7.355
10502POPC   NC362855   5.046   1.246   5.555
10502POPC   PO462856   5.108   1.187   5.855
10502POPC   GL162857   5.133   1.233   6.155
10502POPC   GL262858   5.207   1.221   6.155
10502POPC   C1A62859   5.129   1.255   6.455
10502POPC   D2A62860   5.099   1.244   6.755
10502POPC   C3A62861   5.089   1.184   7.055
10502POPC   C4A62862   5.119   1.174   7.355
10502POPC   C1B62863   5.308   1.182   6.455
10502POPC   C2B62864   5.324   1.211   6.755
10502POPC   C3B62865   5.345   1.212   7.055
10502POPC   C4B62866   5.356   1.135   7.355
10503POPC   NC362867   5.106  29.181   5.555
10503POPC   PO462868   5.130  29.111   5.855
10503POPC   GL162869   5.101  29.101   6.155
10503POPC   GL262870   5.114  29.068   6.155
10503POPC   C1A62871   5.112  29.135   6.455
10503POPC   D2A62872   5.091  29.183   6.755
10503POPC   C3A62873   5.130  29.172   7.055
10503POPC   C4A62874   5.085  29.175   7.355
10503POPC   C1B62875   5.223  28.902   6.455
10503POPC   C2B62876   5.258  28.885   6.755
10503POPC   C3B62877   5.176  28.891   7.055
10503POPC   C4B62878   5.244  28.882   7.355
10504POPC   NC362879   8.230   1.240   5.555
10504POPC   PO462880   8.162   1.183   5.855
10504POPC   GL162881   8.226   1.170   6.155
10504POPC   GL262882   8.094   1.322   6.155
10504POPC   C1A62883   8.186   1.209   6.455
10504POPC   D2A62884   8.222   1.253   6.755
10504POPC   C3A62885   8.211   1.199   7.055
10504POPC   C4A62886   8.190   1.246   7.355
10504POPC   C1B62887   8.027   1.403   6.455
10504POPC   C2B62888   8.040   1.437   6.755
10504POPC   C3B62889   8.083   1.397   7.055
10504POPC   C4B62890   8.015   1.388   7.355
10505POPC   NC362891   4.350   5.878   5.555
10505POPC   PO462892   4.288   5.880   5.855
10505POPC   GL162893   4.311   5.905   6.155
10505POPC   GL262894   4.267   5.969   6.155
10505POPC   C1A62895   4.303   5.819   6.455
10505POPC   D2A62896   4.348   5.840   6.755
10505POPC   C3A62897   4.271   5.822   7.055
10505POPC   C4A62898   4.344   5.876   7.355
10505POPC   C1B62899   4.161   6.053   6.455
10505POPC   C2B62900   4.157   6.050   6.755
10505POPC   C3B62901   4.185   6.055   7.055
10505POPC   C4B62902   4.228   6.070   7.355
10506POPC   NC362903   5.860  27.559   5.555
10506POPC   PO462904   5.860  27.614   5.855
10506POPC   GL162905   5.870  27.642   6.155
10506POPC   GL262906   5.837  27.642   6.155
10506POPC   C1A62907   5.838  27.637   6.455
10506POPC   D2A62908   5.898  27.631   6.755
10506POPC   C3A62909   5.892  27.639   7.055
10506POPC   C4A62910   5.833  27.612   7.355
10506POPC   C1B62911   5.741  27.807   6.455
10506POPC   C2B62912   5.714  27.832   6.755
10506POPC   C3B62913   5.701  27.822   7.055
10506POPC   C4B62914   5.759  27.756   7.355
10507POPC   NC362915  29.876  12.802   5.555
10507POPC   PO462916  29.883  12.835   5.855
10507POPC   GL162917  29.917  12.819   6.155
10507POPC   GL262918  29.991  12.737   6.155
10507POPC   C1A62919  29.966  12.806   6.455
10507POPC   D2A62920  29.934  12.851   6.755
10507POPC   C3A62921  29.960  12.832   7.055
10507POPC   C4A62922  29.909  12.898   7.355
10507POPC   C1B62923  30.102  12.704   6.455
10507POPC   C2B62924  30.105  12.717   6.755
10507POPC   C3B62925  30.054  12.710   7.055
10507POPC   C4B62926  30.127  12.680   7.355
10508POPC   NC362927   7.457   1.240   5.555
10508POPC   PO462928   7.405   1.248   5.855
10508POPC   GL162929   7.377   1.233   6.155
10508POPC   GL262930   7.566   1.134   6.155
10508POPC   C1A62931   7.445   1.255   6.455
10508POPC   D2A62932   7.395   1.248   6.755
10508POPC   C3A62933   7.438   1.171   7.055
10508POPC   C4A62934   7.375   1.248   7.355
10508POPC   C1B62935   7.650   1.053   6.455
10508POPC   C2B62936   7.639   1.049   6.755
10508POPC   C3B62937   7.656   1.091   7.055
10508POPC   C4B62938   7.642   1.070   7.355
10509POPC   NC362939  13.641  15.951   5.555
10509POPC   PO462940  13.674  15.944   5.855
10509POPC   GL162941  13.604  15.986   6.155
10509POPC   GL262942  13.526  15.909   6.155
10509POPC   C1A62943  13.582  15.921   6.455
10509POPC   D2A62944  13.670  15.928   6.755
10509POPC   C3A62945  13.661  15.933   7.055
10509POPC   C4A62946  13.664  15.987   7.355
10509POPC   C1B62947  13.371  15.861   6.455
10509POPC   C2B62948  13.345  15.892   6.755
10509POPC   C3B62949  13.410  15.905   7.055
10509POPC   C4B62950  13.367  15.831   7.355
10510POPC   NC362951  23.747  38.419   5.555
10510POPC   PO462952  23.664  38.491   5.855
10510POPC   GL162953  23.755  38.477   6.155
10510POPC   GL262954  23.791  38.423   6.155
10510POPC   C1A62955  23.692  38.406   6.455
10510POPC   D2A62956  23.745  38.414   6.755
10510POPC   C3A62957  23.736  38.436   7.055
10510POPC   C4A62958  23.734  38.405   7.355
10510POPC   C1B62959  23.981  38.423   6.455
10510POPC   C2B62960  23.966  38.412   6.755
10510POPC   C3B62961  23.926  38.401   7.055
10510POPC   C4B62962  23.948  38.421   7.355
10511POPC   NC362963  36.152   6.680   5.555
10511POPC   PO462964  36.103   6.645   5.855
10511POPC   GL162965  36.158   6.679   6.155
10511POPC   GL262966  36.165   6.545   6.155
10511POPC   C1A62967  36.080   6.637   6.455
10511POPC   D2A62968  36.170   6.675   6.755
10511POPC   C3A62969  36.154   6.649   7.055
10511POPC   C4A62970  36.114   6.628   7.355
10511POPC   C1B62971  36.092   6.392   6.455
10511POPC   C2B62972  36.132   6.385   6.755
10511POPC   C3B62973  36.172   6.378   7.055
10511POPC   C4B62974  36.098   6.435   7.355
10512POPC   NC362975  20.652  29.173   5.555
10512POPC   PO462976  20.606  29.166   5.855
10512POPC   GL162977  20.599  29.117   6.155
10512POPC   GL262978  20.697  29.276   6.155
10512POPC   C1A62979  20.650  29.115   6.455
10512POPC   D2A62980  20.587  29.134   6.755
10512POPC   C3A62981  20.576  29.178   7.055
10512POPC   C4A62982  20.567  29.150   7.355
10512POPC   C1B62983  20.833  29.340   6.455
10512POPC   C2B62984  20.741  29.322   6.755
10512POPC   C3B62985  20.777  29.350   7.055
10512POPC   C4B62986  20.826  29.274   7.355
10513POPC   NC362987  24.497   7.417   5.555
10513POPC   PO462988  24.459   7.438   5.855
10513POPC   GL162989  24.461   7.401   6.155
10513POPC   GL262990  24.614   7.307   6.155
10513POPC   C1A62991  24.476   7.433   6.455
10513POPC   D2A62992  24.516   7.414   6.755
10513POPC   C3A62993  24.512   7.375   7.055
10513POPC   C4A62994  24.513   7.427   7.355
10513POPC   C1B62995  24.678   7.214   6.455
10513POPC   C2B62996  24.653   7.267   6.755
10513POPC   C3B62997  24.717   7.277   7.055
10513POPC   C4B62998  24.708   7.302   7.355
10514POPC   NC362999  24.461   8.152   5.555
10514POPC   PO463000  24.489   8.190   5.855
10514POPC   GL163001  24.449   8.236   6.155
10514POPC   GL263002  24.359   8.205   6.155
10514POPC   C1A63003  24.525   8.236   6.455
10514POPC   D2A63004  24.525   8.221   6.755
10514POPC   C3A63005  24.500   8.167   7.055
10514POPC   C4A63006  24.511   8.186   7.355
10514POPC   C1B63007  24.210   8.289   6.455
10514POPC   C2B63008  24.243   8.297   6.755
10514POPC   C3B63009  24.198   8.241   7.055
10514POPC   C4B63010  24.286   8.251   7.355
10515POPC   NC363011  16.764  42.310   5.555
10515POPC   PO463012  16.691  42.358   5.855
10515POPC   GL163013  16.717  42.326   6.155
10515POPC   GL263014  16.579  42.396   6.155
10515POPC   C1A63015  16.756  42.291   6.455
10515POPC   D2A63016  16.745  42.335   6.755
10515POPC   C3A63017  16.773  42.357   7.055
10515POPC   C4A63018  16.690  42.289   7.355
10515POPC   C1B63019  16.508  42.419   6.455
10515POPC   C2B63020  16.479  42.446   6.755
10515POPC   C3B63021  16.495  42.471   7.055
10515POPC   C4B63022  16.505  42.415   7.355
10516POPC   NC363023  18.321  38.416   5.555
10516POPC   PO463024  18.235  38.432   5.855
10516POPC   GL163025  18.280  38.444   6.155
10516POPC   GL263026  18.374  38.306   6.155
10516POPC   C1A63027  18.274  38.447   6.455
10516POPC   D2A63028  18.244  38.464   6.755
10516POPC   C3A63029  18.245  38.477   7.055
10516POPC   C4A63030  18.244  38.461   7.355
10516POPC   C1B63031  18.355  38.262   6.455
10516POPC   C2B63032  18.430  38.240   6.755
10516POPC   C3B63033  18.388  38.268   7.055
10516POPC   C4B63034  18.436  38.227   7.355
10517POPC   NC363035  33.822  44.705   5.555
10517POPC   PO463036  33.805  44.636   5.855
10517POPC   GL163037  33.750  44.707   6.155
10517POPC   GL263038  33.850  44.809   6.155
10517POPC   C1A63039  33.805  44.622   6.455
10517POPC   D2A63040  33.837  44.614   6.755
10517POPC   C3A63041  33.783  44.692   7.055
10517POPC   C4A63042  33.755  44.685   7.355
10517POPC   C1B63043  33.809  44.939   6.455
10517POPC   C2B63044  33.816  44.908   6.755
10517POPC   C3B63045  33.806  44.870   7.055
10517POPC   C4B63046  33.827  44.873   7.355
10518POPC   NC363047  40.796  26.080   5.555
10518POPC   PO463048  40.753  26.019   5.855
10518POPC   GL163049  40.801  26.060   6.155
10518POPC   GL263050  40.691  26.160   6.155
10518POPC   C1A63051  40.772  26.010   6.455
10518POPC   D2A63052  40.787  26.045   6.755
10518POPC   C3A63053  40.753  26.057   7.055
10518POPC   C4A63054  40.793  26.060   7.355
10518POPC   C1B63055  40.598  26.182   6.455
10518POPC   C2B63056  40.581  26.219   6.755
10518POPC   C3B63057  40.541  26.164   7.055
10518POPC   C4B63058  40.578  26.139   7.355
10519POPC   NC363059   7.450  40.004   5.555
10519POPC   PO463060   7.433  40.043   5.855
10519POPC   GL163061   7.392  39.967   6.155
10519POPC   GL263062   7.498  40.037   6.155
10519POPC   C1A63063   7.396  39.980   6.455
10519POPC   D2A63064   7.460  39.997   6.755
10519POPC   C3A63065   7.429  40.004   7.055
10519POPC   C4A63066   7.451  39.964   7.355
10519POPC   C1B63067   7.616  40.075   6.455
10519POPC   C2B63068   7.709  40.056   6.755
10519POPC   C3B63069   7.674  40.070   7.055
10519POPC   C4B63070   7.614  40.110   7.355
10520POPC   NC363071  20.582  11.316   5.555
10520POPC   PO463072  20.657  11.275   5.855
10520POPC   GL163073  20.579  11.288   6.155
10520POPC   GL263074  20.688  11.308   6.155
10520POPC   C1A63075  20.607  11.342   6.455
10520POPC   D2A63076  20.627  11.274   6.755
10520POPC   C3A63077  20.609  11.255   7.055
10520POPC   C4A63078  20.616  11.337   7.355
10520POPC   C1B63079  20.904  11.382   6.455
10520POPC   C2B63080  20.864  11.286   6.755
10520POPC   C3B63081  20.840  11.285   7.055
10520POPC   C4B63082  20.825  11.371   7.355
10521POPC   NC363083  37.683  28.383   5.555
10521POPC   PO463084  37.686  28.416   5.855
10521POPC   GL163085  37.661  28.372   6.155
10521POPC   GL263086  37.525  28.403   6.155
10521POPC   C1A63087  37.724  28.356   6.455
10521POPC   D2A63088  37.700  28.337   6.755
10521POPC   C3A63089  37.670  28.364   7.055
10521POPC   C4A63090  37.708  28.363   7.355
10521POPC   C1B63091  37.446  28.529   6.455
10521POPC   C2B63092  37.506  28.487   6.755
10521POPC   C3B63093  37.485  28.444   7.055
10521POPC   C4B63094  37.494  28.469   7.355
10522POPC   NC363095  19.793  24.527   5.555
10522POPC   PO463096  19.856  24.501   5.855
10522POPC   GL163097  19.858  24.498   6.155
10522POPC   GL263098  19.821  24.408   6.155
10522POPC   C1A63099  19.815  24.488   6.455
10522POPC   D2A63100  19.816  24.473   6.755
10522POPC   C3A63101  19.811  24.530   7.055
10522POPC   C4A63102  19.788  24.447   7.355
10522POPC   C1B63103  19.753  24.263   6.455
10522POPC   C2B63104  19.748  24.279   6.755
10522POPC   C3B63105  19.752  24.289   7.055
10522POPC   C4B63106  19.765  24.201   7.355
10523POPC   NC363107  39.205  34.595   5.555
10523POPC   PO463108  39.275  34.615   5.855
10523POPC   GL163109  39.233  34.583   6.155
10523POPC   GL263110  39.110  34.605   6.155
10523POPC   C1A63111  39.252  34.601   6.455
10523POPC   D2A63112  39.215  34.615   6.755
10523POPC   C3A63113  39.191  34.563   7.055
10523POPC   C4A63114  39.206  34.592   7.355
10523POPC   C1B63115  38.982  34.556   6.455
10523POPC   C2B63116  38.996  34.571   6.755
10523POPC   C3B63117  39.031  34.585   7.055
10523POPC   C4B63118  39.019  34.606   7.355
10524POPC   NC363119  15.992  15.157   5.555
10524POPC   PO463120  15.929  15.143   5.855
10524POPC   GL163121  15.912  15.166   6.155
10524POPC   GL263122  16.082  15.114   6.155
10524POPC   C1A63123  15.912  15.140   6.455
10524POPC   D2A63124  15.971  15.194   6.755
10524POPC   C3A63125  15.931  15.226   7.055
10524POPC   C4A63126  15.982  15.227   7.355
10524POPC   C1B63127  16.108  15.032   6.455
10524POPC   C2B63128  16.101  15.001   6.755
10524POPC   C3B63129  16.172  15.039   7.055
10524POPC   C4B63130  16.105  15.020   7.355
10525POPC   NC363131  42.328  15.177   5.555
10525POPC   PO463132  42.332  15.226   5.855
10525POPC   GL163133  42.300  15.175   6.155
10525POPC   GL263134  42.176  15.197   6.155
10525POPC   C1A63135  42.289  15.160   6.455
10525POPC   D2A63136  42.286  15.175   6.755
10525POPC   C3A63137  42.383  15.203   7.055
10525POPC   C4A63138  42.358  15.148   7.355
10525POPC   C1B63139  42.122  15.351   6.455
10525POPC   C2B63140  42.115  15.263   6.755
10525POPC   C3B63141  42.157  15.280   7.055
10525POPC   C4B63142  42.114  15.347   7.355
10526POPC   NC363143  36.864  19.103   5.555
10526POPC   PO463144  36.884  19.020   5.855
10526POPC   GL163145  36.900  19.082   6.155
10526POPC   GL263146  37.012  18.918   6.155
10526POPC   C1A63147  36.895  19.067   6.455
10526POPC   D2A63148  36.929  19.105   6.755
10526POPC   C3A63149  36.873  19.067   7.055
10526POPC   C4A63150  36.937  19.071   7.355
10526POPC   C1B63151  37.037  18.820   6.455
10526POPC   C2B63152  37.067  18.849   6.755
10526POPC   C3B63153  37.073  18.850   7.055
10526POPC   C4B63154  37.068  18.816   7.355
10527POPC   NC363155   7.447  16.706   5.555
10527POPC   PO463156   7.417  16.771   5.855
10527POPC   GL163157   7.459  16.738   6.155
10527POPC   GL263158   7.250  16.735   6.155
10527POPC   C1A63159   7.454  16.693   6.455
10527POPC   D2A63160   7.408  16.742   6.755
10527POPC   C3A63161   7.463  16.693   7.055
10527POPC   C4A63162   7.442  16.732   7.355
10527POPC   C1B63163   7.215  16.754   6.455
10527POPC   C2B63164   7.124  16.771   6.755
10527POPC   C3B63165   7.170  16.701   7.055
10527POPC   C4B63166   7.213  16.756   7.355
10528POPC   NC363167   8.210  32.204   5.555
10528POPC   PO463168   8.195  32.297   5.855
10528POPC   GL163169   8.204  32.219   6.155
10528POPC   GL263170   8.095  32.332   6.155
10528POPC   C1A63171   8.161  32.247   6.455
10528POPC   D2A63172   8.154  32.238   6.755
10528POPC   C3A63173   8.172  32.294   7.055
10528POPC   C4A63174   8.233  32.271   7.355
10528POPC   C1B63175   8.019  32.475   6.455
10528POPC   C2B63176   8.093  32.488   6.755
10528POPC   C3B63177   8.035  32.490   7.055
10528POPC   C4B63178   8.043  32.472   7.355
10529POPC   NC363179  23.716   6.641   5.555
10529POPC   PO463180  23.748   6.623   5.855
10529POPC   GL163181  23.746   6.644   6.155
10529POPC   GL263182  23.770   6.513   6.155
10529POPC   C1A63183  23.669   6.609   6.455
10529POPC   D2A63184  23.720   6.678   6.755
10529POPC   C3A63185  23.739   6.600   7.055
10529POPC   C4A63186  23.681   6.602   7.355
10529POPC   C1B63187  23.813   6.428   6.455
10529POPC   C2B63188  23.857   6.420   6.755
10529POPC   C3B63189  23.851   6.448   7.055
10529POPC   C4B63190  23.798   6.389   7.355
10530POPC   NC363191   2.781  10.528   5.555
10530POPC   PO463192   2.810  10.541   5.855
10530POPC   GL163193   2.751  10.495   6.155
10530POPC   GL263194   2.877  10.553   6.155
10530POPC   C1A63195   2.740  10.516   6.455
10530POPC   D2A63196   2.735  10.547   6.755
10530POPC   C3A63197   2.769  10.493   7.055
10530POPC   C4A63198   2.730  10.568   7.355
10530POPC   C1B63199   3.030  10.543   6.455
10530POPC   C2B63200   3.024  10.511   6.755
10530POPC   C3B63201   3.048  10.480   7.055
10530POPC   C4B63202   2.974  10.501   7.355
10531POPC   NC363203  39.183  15.950   5.555
10531POPC   PO463204  39.189  16.002   5.855
10531POPC   GL163205  39.273  15.935   6.155
10531POPC   GL263206  39.219  15.847   6.155
10531POPC   C1A63207  39.263  15.953   6.455
10531POPC   D2A63208  39.232  15.949   6.755
10531POPC   C3A63209  39.262  15.907   7.055
10531POPC   C4A63210  39.220  15.947   7.355
10531POPC   C1B63211  39.089  15.720   6.455
10531POPC   C2B63212  39.169  15.695   6.755
10531POPC   C3B63213  39.097  15.718   7.055
10531POPC   C4B63214  39.176  15.691   7.355
10532POPC   NC363215  20.637  22.193   5.555
10532POPC   PO463216  20.642  22.119   5.855
10532POPC   GL163217  20.634  22.125   6.155
10532POPC   GL263218  20.502  22.226   6.155
10532POPC   C1A63219  20.660  22.191   6.455
10532POPC   D2A63220  20.637  22.133   6.755
10532POPC   C3A63221  20.569  22.193   7.055
10532POPC   C4A63222  20.629  22.206   7.355
10532POPC   C1B63223  20.407  22.238   6.455
10532POPC   C2B63224  20.420  22.296   6.755
10532POPC   C3B63225  20.388  22.294   7.055
10532POPC   C4B63226  20.394  22.320   7.355
10533POPC   NC363227  17.481  14.404   5.555
10533POPC   PO463228  17.531  14.433   5.855
10533POPC   GL163229  17.484  14.390   6.155
10533POPC   GL263230  17.388  14.399   6.155
10533POPC   C1A63231  17.486  14.393   6.455
10533POPC   D2A63232  17.504  14.448   6.755
10533POPC   C3A63233  17.511  14.377   7.055
10533POPC   C4A63234  17.475  14.387   7.355
10533POPC   C1B63235  17.258  14.340   6.455
10533POPC   C2B63236  17.237  14.432   6.755
10533POPC   C3B63237  17.285  14.339   7.055
10533POPC   C4B63238  17.271  14.340   7.355
10534POPC   NC363239   3.538   2.735   5.555
10534POPC   PO463240   3.550   2.771   5.855
10534POPC   GL163241   3.539   2.757   6.155
10534POPC   GL263242   3.508   2.847   6.155
10534POPC   C1A63243   3.543   2.771   6.455
10534POPC   D2A63244   3.571   2.812   6.755
10534POPC   C3A63245   3.495   2.737   7.055
10534POPC   C4A63246   3.559   2.774   7.355
10534POPC   C1B63247   3.524   3.009   6.455
10534POPC   C2B63248   3.573   2.967   6.755
10534POPC   C3B63249   3.506   3.001   7.055
10534POPC   C4B63250   3.515   2.974   7.355
10535POPC   NC363251  19.817   8.930   5.555
10535POPC   PO463252  19.877   8.962   5.855
10535POPC   GL163253  19.796   8.958   6.155
10535POPC   GL263254  19.897   9.073   6.155
10535POPC   C1A63255  19.870   9.000   6.455
10535POPC   D2A63256  19.829   8.982   6.755
10535POPC   C3A63257  19.788   8.934   7.055
10535POPC   C4A63258  19.809   8.968   7.355
10535POPC   C1B63259  19.985   9.191   6.455
10535POPC   C2B63260  20.033   9.198   6.755
10535POPC   C3B63261  20.029   9.193   7.055
10535POPC   C4B63262  20.005   9.181   7.355
10536POPC   NC363263   4.314  29.176   5.555
10536POPC   PO463264   4.354  29.146   5.855
10536POPC   GL163265   4.309  29.121   6.155
10536POPC   GL263266   4.448  29.093   6.155
10536POPC   C1A63267   4.362  29.121   6.455
10536POPC   D2A63268   4.359  29.151   6.755
10536POPC   C3A63269   4.299  29.123   7.055
10536POPC   C4A63270   4.303  29.119   7.355
10536POPC   C1B63271   4.510  29.043   6.455
10536POPC   C2B63272   4.536  29.047   6.755
10536POPC   C3B63273   4.546  28.992   7.055
10536POPC   C4B63274   4.533  28.985   7.355
10537POPC   NC363275   5.914   1.231   5.555
10537POPC   PO463276   5.886   1.263   5.855
10537POPC   GL163277   5.865   1.229   6.155
10537POPC   GL263278   5.778   1.344   6.155
10537POPC   C1A63279   5.856   1.219   6.455
10537POPC   D2A63280   5.887   1.216   6.755
10537POPC   C3A63281   5.850   1.205   7.055
10537POPC   C4A63282   5.844   1.173   7.355
10537POPC   C1B63283   5.745   1.443   6.455
10537POPC   C2B63284   5.683   1.400   6.755
10537POPC   C3B63285   5.781   1.423   7.055
10537POPC   C4B63286   5.716   1.396   7.355
10538POPC   NC363287  19.794   9.700   5.555
10538POPC   PO463288  19.830   9.721   5.855
10538POPC   GL163289  19.787   9.757   6.155
10538POPC   GL263290  19.692   9.725   6.155
10538POPC   C1A63291  19.791   9.796   6.455
10538POPC   D2A63292  19.857   9.781   6.755
10538POPC   C3A63293  19.848   9.728   7.055
10538POPC   C4A63294  19.831   9.703   7.355
10538POPC   C1B63295  19.590   9.822   6.455
10538POPC   C2B63296  19.538   9.772   6.755
10538POPC   C3B63297  19.621   9.841   7.055
10538POPC   C4B63298  19.581   9.808   7.355
10539POPC   NC363299  22.904  26.008   5.555
10539POPC   PO463300  22.969  26.022   5.855
10539POPC   GL163301  22.923  26.034   6.155
10539POPC   GL263302  22.880  25.946   6.155
10539POPC   C1A63303  22.909  25.997   6.455
10539POPC   D2A63304  22.946  26.055   6.755
10539POPC   C3A63305  22.966  26.053   7.055
10539POPC   C4A63306  22.927  26.076   7.355
10539POPC   C1B63307  22.835  25.811   6.455
10539POPC   C2B63308  22.839  25.820   6.755
10539POPC   C3B63309  22.812  25.790   7.055
10539POPC   C4B63310  22.821  25.839   7.355
10540POPC   NC363311  33.044   8.148   5.555
10540POPC   PO463312  33.009   8.219   5.855
10540POPC   GL163313  33.007   8.241   6.155
10540POPC   GL263314  33.058   8.104   6.155
10540POPC   C1A63315  33.020   8.213   6.455
10540POPC   D2A63316  33.003   8.209   6.755
10540POPC   C3A63317  33.000   8.226   7.055
10540POPC   C4A63318  33.050   8.238   7.355
10540POPC   C1B63319  33.015   7.901   6.455
10540POPC   C2B63320  33.071   7.914   6.755
10540POPC   C3B63321  33.046   7.993   7.055
10540POPC   C4B63322  32.974   7.909   7.355
10541POPC   NC363323   1.219   3.519   5.555
10541POPC   PO463324   1.197   3.540   5.855
10541POPC   GL163325   1.252   3.522   6.155
10541POPC   GL263326   1.152   3.412   6.155
10541POPC   C1A63327   1.263   3.500   6.455
10541POPC   D2A63328   1.172   3.506   6.755
10541POPC   C3A63329   1.222   3.562   7.055
10541POPC   C4A63330   1.209   3.568   7.355
10541POPC   C1B63331   1.101   3.273   6.455
10541POPC   C2B63332   1.139   3.268   6.755
10541POPC   C3B63333   1.143   3.271   7.055
10541POPC   C4B63334   1.112   3.334   7.355
10542POPC   NC363335   4.357   5.138   5.555
10542POPC   PO463336   4.320   5.124   5.855
10542POPC   GL163337   4.304   5.086   6.155
10542POPC   GL263338   4.443   5.069   6.155
10542POPC   C1A63339   4.334   5.096   6.455
10542POPC   D2A63340   4.291   5.065   6.755
10542POPC   C3A63341   4.331   5.062   7.055
10542POPC   C4A63342   4.287   5.124   7.355
10542POPC   C1B63343   4.528   4.943   6.455
10542POPC   C2B63344   4.532   4.907   6.755
10542POPC   C3B63345   4.520   4.990   7.055
10542POPC   C4B63346   4.530   4.974   7.355
10543POPC   NC363347   4.299   0.398   5.555
10543POPC   PO463348   4.351   0.407   5.855
10543POPC   GL163349   4.361   0.406   6.155
10543POPC   GL263350   4.285   0.515   6.155
10543POPC   C1A63351   4.332   0.405   6.455
10543POPC   D2A63352   4.343   0.475   6.755
10543POPC   C3A63353   4.341   0.399   7.055
10543POPC   C4A63354   4.326   0.424   7.355
10543POPC   C1B63355   4.210   0.635   6.455
10543POPC   C2B63356   4.129   0.649   6.755
10543POPC   C3B63357   4.178   0.636   7.055
10543POPC   C4B63358   4.193   0.625   7.355
10544POPC   NC363359  10.550   5.050   5.555
10544POPC   PO463360  10.498   5.098   5.855
10544POPC   GL163361  10.502   5.111   6.155
10544POPC   GL263362  10.638   4.994   6.155
10544POPC   C1A63363  10.545   5.105   6.455
10544POPC   D2A63364  10.482   5.062   6.755
10544POPC   C3A63365  10.570   5.127   7.055
10544POPC   C4A63366  10.501   5.058   7.355
10544POPC   C1B63367  10.682   4.921   6.455
10544POPC   C2B63368  10.720   4.943   6.755
10544POPC   C3B63369  10.657   4.942   7.055
10544POPC   C4B63370  10.645   4.858   7.355
10545POPC   NC363371  37.698   8.175   5.555
10545POPC   PO463372  37.705   8.196   5.855
10545POPC   GL163373  37.632   8.243   6.155
10545POPC   GL263374  37.751   8.054   6.155
10545POPC   C1A63375  37.636   8.213   6.455
10545POPC   D2A63376  37.703   8.244   6.755
10545POPC   C3A63377  37.682   8.236   7.055
10545POPC   C4A63378  37.689   8.245   7.355
10545POPC   C1B63379  37.779   8.001   6.455
10545POPC   C2B63380  37.735   7.976   6.755
10545POPC   C3B63381  37.736   7.908   7.055
10545POPC   C4B63382  37.726   7.921   7.355
10546POPC   NC363383  36.091  11.328   5.555
10546POPC   PO463384  36.112  11.323   5.855
10546POPC   GL163385  36.097  11.303   6.155
10546POPC   GL263386  36.240  11.255   6.155
10546POPC   C1A63387  36.169  11.332   6.455
10546POPC   D2A63388  36.143  11.254   6.755
10546POPC   C3A63389  36.096  11.322   7.055
10546POPC   C4A63390  36.137  11.300   7.355
10546POPC   C1B63391  36.372  11.233   6.455
10546POPC   C2B63392  36.351  11.160   6.755
10546POPC   C3B63393  36.357  11.194   7.055
10546POPC   C4B63394  36.356  11.177   7.355
10547POPC   NC363395   2.801  14.385   5.555
10547POPC   PO463396   2.721  14.385   5.855
10547POPC   GL163397   2.809  14.357   6.155
10547POPC   GL263398   2.816  14.496   6.155
10547POPC   C1A63399   2.763  14.405   6.455
10547POPC   D2A63400   2.720  14.408   6.755
10547POPC   C3A63401   2.751  14.431   7.055
10547POPC   C4A63402   2.752  14.439   7.355
10547POPC   C1B63403   2.834  14.634   6.455
10547POPC   C2B63404   2.894  14.686   6.755
10547POPC   C3B63405   2.822  14.598   7.055
10547POPC   C4B63406   2.864  14.654   7.355
10548POPC   NC363407  35.332  19.070   5.555
10548POPC   PO463408  35.355  19.044   5.855
10548POPC   GL163409  35.367  19.053   6.155
10548POPC   GL263410  35.309  19.209   6.155
10548POPC   C1A63411  35.336  19.067   6.455
10548POPC   D2A63412  35.373  19.051   6.755
10548POPC   C3A63413  35.343  19.018   7.055
10548POPC   C4A63414  35.341  19.048   7.355
10548POPC   C1B63415  35.178  19.306   6.455
10548POPC   C2B63416  35.186  19.220   6.755
10548POPC   C3B63417  35.210  19.228   7.055
10548POPC   C4B63418  35.189  19.247   7.355
10549POPC   NC363419   4.319  43.935   5.555
10549POPC   PO463420   4.339  43.898   5.855
10549POPC   GL163421   4.316  43.934   6.155
10549POPC   GL263422   4.279  43.983   6.155
10549POPC   C1A63423   4.351  43.838   6.455
10549POPC   D2A63424   4.328  43.837   6.755
10549POPC   C3A63425   4.344  43.902   7.055
10549POPC   C4A63426   4.271  43.915   7.355
10549POPC   C1B63427   4.225  44.127   6.455
10549POPC   C2B63428   4.222  44.099   6.755
10549POPC   C3B63429   4.148  44.070   7.055
10549POPC   C4B63430   4.196  44.051   7.355
10550POPC   NC363431   5.889  22.210   5.555
10550POPC   PO463432   5.867  22.194   5.855
10550POPC   GL163433   5.905  22.132   6.155
10550POPC   GL263434   5.830  22.335   6.155
10550POPC   C1A63435   5.819  22.196   6.455
10550POPC   D2A63436   5.820  22.200   6.755
10550POPC   C3A63437   5.910  22.157   7.055
10550POPC   C4A63438   5.835  22.203   7.355
10550POPC   C1B63439   5.863  22.429   6.455
10550POPC   C2B63440   5.810  22.433   6.755
10550POPC   C3B63441   5.866  22.426   7.055
10550POPC   C4B63442   5.890  22.385   7.355
10551POPC   NC363443   1.976  44.649   5.555
10551POPC   PO463444   1.982  44.694   5.855
10551POPC   GL163445   1.977  44.707   6.155
10551POPC   GL263446   2.094  44.652   6.155
10551POPC   C1A63447   2.001  44.616   6.455
10551POPC   D2A63448   2.033  44.623   6.755
10551POPC   C3A63449   2.017  44.669   7.055
10551POPC   C4A63450   1.941  44.630   7.355
10551POPC   C1B63451   2.275  44.696   6.455
10551POPC   C2B63452   2.260  44.702   6.755
10551POPC   C3B63453   2.264  44.699   7.055
10551POPC   C4B63454   2.250  44.685   7.355
10552POPC   NC363455  19.797  38.434   5.555
10552POPC   PO463456  19.876  38.419   5.855
10552POPC   GL163457  19.826  38.440   6.155
10552POPC   GL263458  19.756  38.342   6.155
10552POPC   C1A63459  19.847  38.461   6.455
10552POPC   D2A63460  19.837  38.432   6.755
10552POPC   C3A63461  19.785  38.447   7.055
10552POPC   C4A63462  19.854  38.498   7.355
10552POPC   C1B63463  19.652  38.252   6.455
10552POPC   C2B63464  19.638  38.234   6.755
10552POPC   C3B63465  19.611  38.299   7.055
10552POPC   C4B63466  19.627  38.279   7.355
10553POPC   NC363467  22.128  28.371   5.555
10553POPC   PO463468  22.131  28.336   5.855
10553POPC   GL163469  22.168  28.388   6.155
10553POPC   GL263470  22.299  28.441   6.155
10553POPC   C1A63471  22.116  28.400   6.455
10553POPC   D2A63472  22.114  28.409   6.755
10553POPC   C3A63473  22.131  28.339   7.055
10553POPC   C4A63474  22.194  28.385   7.355
10553POPC   C1B63475  22.414  28.506   6.455
10553POPC   C2B63476  22.357  28.462   6.755
10553POPC   C3B63477  22.366  28.445   7.055
10553POPC   C4B63478  22.391  28.439   7.355
10554POPC   NC363479  17.491  29.946   5.555
10554POPC   PO463480  17.461  29.932   5.855
10554POPC   GL163481  17.499  29.954   6.155
10554POPC   GL263482  17.600  29.997   6.155
10554POPC   C1A63483  17.494  29.916   6.455
10554POPC   D2A63484  17.554  29.921   6.755
10554POPC   C3A63485  17.533  29.945   7.055
10554POPC   C4A63486  17.509  29.938   7.355
10554POPC   C1B63487  17.700  30.021   6.455
10554POPC   C2B63488  17.689  30.078   6.755
10554POPC   C3B63489  17.702  30.062   7.055
10554POPC   C4B63490  17.765  30.018   7.355
10555POPC   NC363491  15.134  29.963   5.555
10555POPC   PO463492  15.168  29.919   5.855
10555POPC   GL163493  15.193  29.927   6.155
10555POPC   GL263494  15.022  29.894   6.155
10555POPC   C1A63495  15.154  29.966   6.455
10555POPC   D2A63496  15.159  29.880   6.755
10555POPC   C3A63497  15.150  29.961   7.055
10555POPC   C4A63498  15.202  29.909   7.355
10555POPC   C1B63499  14.965  29.834   6.455
10555POPC   C2B63500  14.951  29.881   6.755
10555POPC   C3B63501  14.953  29.888   7.055
10555POPC   C4B63502  14.895  29.927   7.355
10556POPC   NC363503  27.554  37.684   5.555
10556POPC   PO463504  27.634  37.656   5.855
10556POPC   GL163505  27.611  37.729   6.155
10556POPC   GL263506  27.651  37.629   6.155
10556POPC   C1A63507  27.636  37.694   6.455
10556POPC   D2A63508  27.609  37.669   6.755
10556POPC   C3A63509  27.560  37.640   7.055
10556POPC   C4A63510  27.565  37.654   7.355
10556POPC   C1B63511  27.790  37.528   6.455
10556POPC   C2B63512  27.810  37.547   6.755
10556POPC   C3B63513  27.756  37.485   7.055
10556POPC   C4B63514  27.772  37.499   7.355
10557POPC   NC363515  36.127  15.989   5.555
10557POPC   PO463516  36.141  15.980   5.855
10557POPC   GL163517  36.153  15.988   6.155
10557POPC   GL263518  36.195  16.078   6.155
10557POPC   C1A63519  36.120  15.942   6.455
10557POPC   D2A63520  36.114  15.910   6.755
10557POPC   C3A63521  36.089  15.993   7.055
10557POPC   C4A63522  36.085  15.996   7.355
10557POPC   C1B63523  36.186  16.196   6.455
10557POPC   C2B63524  36.234  16.161   6.755
10557POPC   C3B63525  36.199  16.148   7.055
10557POPC   C4B63526  36.184  16.181   7.355
10558POPC   NC363527  34.590  43.097   5.555
10558POPC   PO463528  34.560  43.127   5.855
10558POPC   GL163529  34.616  43.114   6.155
10558POPC   GL263530  34.482  43.179   6.155
10558POPC   C1A63531  34.625  43.073   6.455
10558POPC   D2A63532  34.531  43.075   6.755
10558POPC   C3A63533  34.530  43.135   7.055
10558POPC   C4A63534  34.587  43.160   7.355
10558POPC   C1B63535  34.372  43.264   6.455
10558POPC   C2B63536  34.414  43.243   6.755
10558POPC   C3B63537  34.362  43.299   7.055
10558POPC   C4B63538  34.330  43.284   7.355
10559POPC   NC363539  38.415  36.948   5.555
10559POPC   PO463540  38.419  36.950   5.855
10559POPC   GL163541  38.471  36.934   6.155
10559POPC   GL263542  38.347  36.902   6.155
10559POPC   C1A63543  38.412  36.923   6.455
10559POPC   D2A63544  38.503  36.939   6.755
10559POPC   C3A63545  38.459  36.885   7.055
10559POPC   C4A63546  38.499  36.918   7.355
10559POPC   C1B63547  38.168  36.887   6.455
10559POPC   C2B63548  38.202  36.858   6.755
10559POPC   C3B63549  38.236  36.895   7.055
10559POPC   C4B63550  38.231  36.827   7.355
10560POPC   NC363551  14.362  16.732   5.555
10560POPC   PO463552  14.420  16.768   5.855
10560POPC   GL163553  14.402  16.777   6.155
10560POPC   GL263554  14.336  16.821   6.155
10560POPC   C1A63555  14.405  16.712   6.455
10560POPC   D2A63556  14.438  16.698   6.755
10560POPC   C3A63557  14.376  16.764   7.055
10560POPC   C4A63558  14.375  16.762   7.355
10560POPC   C1B63559  14.229  16.906   6.455
10560POPC   C2B63560  14.189  16.897   6.755
10560POPC   C3B63561  14.274  16.895   7.055
10560POPC   C4B63562  14.244  16.901   7.355
10561POPC   NC363563   7.383  30.651   5.555
10561POPC   PO463564   7.420  30.662   5.855
10561POPC   GL163565   7.383  30.664   6.155
10561POPC   GL263566   7.538  30.809   6.155
10561POPC   C1A63567   7.438  30.746   6.455
10561POPC   D2A63568   7.415  30.731   6.755
10561POPC   C3A63569   7.392  30.711   7.055
10561POPC   C4A63570   7.393  30.676   7.355
10561POPC   C1B63571   7.541  30.848   6.455
10561POPC   C2B63572   7.567  30.860   6.755
10561POPC   C3B63573   7.566  30.871   7.055
10561POPC   C4B63574   7.536  30.905   7.355
10562POPC   NC363575  17.466  17.485   5.555
10562POPC   PO463576  17.506  17.540   5.855
10562POPC   GL163577  17.471  17.511   6.155
10562POPC   GL263578  17.553  17.395   6.155
10562POPC   C1A63579  17.511  17.554   6.455
10562POPC   D2A63580  17.479  17.472   6.755
10562POPC   C3A63581  17.468  17.488   7.055
10562POPC   C4A63582  17.546  17.547   7.355
10562POPC   C1B63583  17.547  17.237   6.455
10562POPC   C2B63584  17.575  17.263   6.755
10562POPC   C3B63585  17.569  17.230   7.055
10562POPC   C4B63586  17.621  17.283   7.355
10563POPC   NC363587  17.465   2.002   5.555
10563POPC   PO463588  17.503   1.995   5.855
10563POPC   GL163589  17.556   1.945   6.155
10563POPC   GL263590  17.597   1.938   6.155
10563POPC   C1A63591  17.471   1.942   6.455
10563POPC   D2A63592  17.511   2.036   6.755
10563POPC   C3A63593  17.490   1.995   7.055
10563POPC   C4A63594  17.499   2.018   7.355
10563POPC   C1B63595  17.770   1.967   6.455
10563POPC   C2B63596  17.781   1.977   6.755
10563POPC   C3B63597  17.736   1.968   7.055
10563POPC   C4B63598  17.779   1.971   7.355
10564POPC   NC363599  12.836  31.464   5.555
10564POPC   PO463600  12.866  31.458   5.855
10564POPC   GL163601  12.827  31.486   6.155
10564POPC   GL263602  12.994  31.536   6.155
10564POPC   C1A63603  12.822  31.444   6.455
10564POPC   D2A63604  12.817  31.501   6.755
10564POPC   C3A63605  12.876  31.490   7.055
10564POPC   C4A63606  12.841  31.505   7.355
10564POPC   C1B63607  13.013  31.599   6.455
10564POPC   C2B63608  13.032  31.636   6.755
10564POPC   C3B63609  13.047  31.607   7.055
10564POPC   C4B63610  13.039  31.627   7.355
10565POPC   NC363611  19.088  14.405   5.555
10565POPC   PO463612  19.095  14.452   5.855
10565POPC   GL163613  19.058  14.409   6.155
10565POPC   GL263614  18.959  14.431   6.155
10565POPC   C1A63615  19.025  14.375   6.455
10565POPC   D2A63616  19.081  14.451   6.755
10565POPC   C3A63617  19.027  14.374   7.055
10565POPC   C4A63618  19.079  14.371   7.355
10565POPC   C1B63619  18.795  14.442   6.455
10565POPC   C2B63620  18.771  14.435   6.755
10565POPC   C3B63621  18.771  14.516   7.055
10565POPC   C4B63622  18.842  14.523   7.355
10566POPC   NC363623  35.378   7.405   5.555
10566POPC   PO463624  35.396   7.390   5.855
10566POPC   GL163625  35.342   7.412   6.155
10566POPC   GL263626  35.310   7.491   6.155
10566POPC   C1A63627  35.308   7.424   6.455
10566POPC   D2A63628  35.323   7.380   6.755
10566POPC   C3A63629  35.361   7.377   7.055
10566POPC   C4A63630  35.377   7.446   7.355
10566POPC   C1B63631  35.268   7.649   6.455
10566POPC   C2B63632  35.245   7.643   6.755
10566POPC   C3B63633  35.260   7.625   7.055
10566POPC   C4B63634  35.232   7.609   7.355
10567POPC   NC363635  20.614  19.052   5.555
10567POPC   PO463636  20.609  19.079   5.855
10567POPC   GL163637  20.634  19.078   6.155
10567POPC   GL263638  20.702  19.171   6.155
10567POPC   C1A63639  20.616  19.022   6.455
10567POPC   D2A63640  20.614  19.063   6.755
10567POPC   C3A63641  20.587  19.057   7.055
10567POPC   C4A63642  20.568  19.030   7.355
10567POPC   C1B63643  20.841  19.209   6.455
10567POPC   C2B63644  20.811  19.226   6.755
10567POPC   C3B63645  20.801  19.260   7.055
10567POPC   C4B63646  20.791  19.256   7.355
10568POPC   NC363647  39.258  15.180   5.555
10568POPC   PO463648  39.201  15.144   5.855
10568POPC   GL163649  39.192  15.179   6.155
10568POPC   GL263650  39.152  15.321   6.155
10568POPC   C1A63651  39.241  15.177   6.455
10568POPC   D2A63652  39.190  15.218   6.755
10568POPC   C3A63653  39.271  15.165   7.055
10568POPC   C4A63654  39.237  15.227   7.355
10568POPC   C1B63655  39.159  15.467   6.455
10568POPC   C2B63656  39.114  15.414   6.755
10568POPC   C3B63657  39.193  15.414   7.055
10568POPC   C4B63658  39.169  15.383   7.355
10569POPC   NC363659  28.344   1.964   5.555
10569POPC   PO463660  28.375   2.033   5.855
10569POPC   GL163661  28.354   2.031   6.155
10569POPC   GL263662  28.294   2.006   6.155
10569POPC   C1A63663  28.383   1.947   6.455
10569POPC   D2A63664  28.323   2.023   6.755
10569POPC   C3A63665  28.349   1.970   7.055
10569POPC   C4A63666  28.408   2.016   7.355
10569POPC   C1B63667  28.169   2.011   6.455
10569POPC   C2B63668  28.151   1.966   6.755
10569POPC   C3B63669  28.168   1.973   7.055
10569POPC   C4B63670  28.108   1.957   7.355
10570POPC   NC363671  29.153  44.636   5.555
10570POPC   PO463672  29.189  44.699   5.855
10570POPC   GL163673  29.192  44.626   6.155
10570POPC   GL263674  29.239  44.713   6.155
10570POPC   C1A63675  29.163  44.670   6.455
10570POPC   D2A63676  29.150  44.694   6.755
10570POPC   C3A63677  29.185  44.672   7.055
10570POPC   C4A63678  29.176  44.669   7.355
10570POPC   C1B63679  29.349  44.719   6.455
10570POPC   C2B63680  29.425  44.702   6.755
10570POPC   C3B63681  29.392  44.698   7.055
10570POPC   C4B63682  29.335  44.763   7.355
10571POPC   NC363683  10.548  28.345   5.555
10571POPC   PO463684  10.555  28.346   5.855
10571POPC   GL163685  10.480  28.414   6.155
10571POPC   GL263686  10.673  28.299   6.155
10571POPC   C1A63687  10.547  28.334   6.455
10571POPC   D2A63688  10.487  28.401   6.755
10571POPC   C3A63689  10.511  28.337   7.055
10571POPC   C4A63690  10.482  28.359   7.355
10571POPC   C1B63691  10.754  28.283   6.455
10571POPC   C2B63692  10.740  28.197   6.755
10571POPC   C3B63693  10.688  28.198   7.055
10571POPC   C4B63694  10.746  28.225   7.355
10572POPC   NC363695  40.745  23.708   5.555
10572POPC   PO463696  40.817  23.751   5.855
10572POPC   GL163697  40.756  23.696   6.155
10572POPC   GL263698  40.782  23.857   6.155
10572POPC   C1A63699  40.778  23.746   6.455
10572POPC   D2A63700  40.768  23.684   6.755
10572POPC   C3A63701  40.740  23.695   7.055
10572POPC   C4A63702  40.793  23.761   7.355
10572POPC   C1B63703  40.762  23.998   6.455
10572POPC   C2B63704  40.812  23.974   6.755
10572POPC   C3B63705  40.804  23.994   7.055
10572POPC   C4B63706  40.773  23.959   7.355
10573POPC   NC363707  40.758   3.505   5.555
10573POPC   PO463708  40.777   3.552   5.855
10573POPC   GL163709  40.767   3.591   6.155
10573POPC   GL263710  40.848   3.415   6.155
10573POPC   C1A63711  40.751   3.562   6.455
10573POPC   D2A63712  40.771   3.576   6.755
10573POPC   C3A63713  40.800   3.553   7.055
10573POPC   C4A63714  40.800   3.574   7.355
10573POPC   C1B63715  40.873   3.333   6.455
10573POPC   C2B63716  40.908   3.289   6.755
10573POPC   C3B63717  40.935   3.352   7.055
10573POPC   C4B63718  40.895   3.349   7.355
10574POPC   NC363719   3.535  24.469   5.555
10574POPC   PO463720   3.535  24.464   5.855
10574POPC   GL163721   3.497  24.450   6.155
10574POPC   GL263722   3.605  24.601   6.155
10574POPC   C1A63723   3.564  24.483   6.455
10574POPC   D2A63724   3.553  24.538   6.755
10574POPC   C3A63725   3.522  24.508   7.055
10574POPC   C4A63726   3.559  24.513   7.355
10574POPC   C1B63727   3.732  24.715   6.455
10574POPC   C2B63728   3.697  24.672   6.755
10574POPC   C3B63729   3.643  24.656   7.055
10574POPC   C4B63730   3.690  24.728   7.355
10575POPC   NC363731   4.332  40.046   5.555
10575POPC   PO463732   4.366  40.003   5.855
10575POPC   GL163733   4.340  40.008   6.155
10575POPC   GL263734   4.300  40.157   6.155
10575POPC   C1A63735   4.270  39.973   6.455
10575POPC   D2A63736   4.343  40.019   6.755
10575POPC   C3A63737   4.330  40.041   7.055
10575POPC   C4A63738   4.276  39.974   7.355
10575POPC   C1B63739   4.178  40.201   6.455
10575POPC   C2B63740   4.218  40.255   6.755
10575POPC   C3B63741   4.249  40.269   7.055
10575POPC   C4B63742   4.250  40.217   7.355
10576POPC   NC363743  36.945  29.115   5.555
10576POPC   PO463744  36.903  29.168   5.855
10576POPC   GL163745  36.881  29.170   6.155
10576POPC   GL263746  36.775  29.070   6.155
10576POPC   C1A63747  36.866  29.099   6.455
10576POPC   D2A63748  36.947  29.171   6.755
10576POPC   C3A63749  36.860  29.185   7.055
10576POPC   C4A63750  36.882  29.116   7.355
10576POPC   C1B63751  36.683  29.117   6.455
10576POPC   C2B63752  36.625  29.034   6.755
10576POPC   C3B63753  36.648  29.084   7.055
10576POPC   C4B63754  36.660  29.053   7.355
10577POPC   NC363755  15.959  39.967   5.555
10577POPC   PO463756  15.982  39.968   5.855
10577POPC   GL163757  15.938  40.022   6.155
10577POPC   GL263758  15.938  39.852   6.155
10577POPC   C1A63759  15.966  40.054   6.455
10577POPC   D2A63760  15.984  40.034   6.755
10577POPC   C3A63761  15.990  40.002   7.055
10577POPC   C4A63762  15.921  39.984   7.355
10577POPC   C1B63763  15.892  39.791   6.455
10577POPC   C2B63764  15.879  39.754   6.755
10577POPC   C3B63765  15.916  39.775   7.055
10577POPC   C4B63766  15.893  39.791   7.355
10578POPC   NC363767  38.497   1.219   5.555
10578POPC   PO463768  38.490   1.195   5.855
10578POPC   GL163769  38.490   1.250   6.155
10578POPC   GL263770  38.450   1.284   6.155
10578POPC   C1A63771  38.461   1.201   6.455
10578POPC   D2A63772  38.483   1.232   6.755
10578POPC   C3A63773  38.413   1.247   7.055
10578POPC   C4A63774  38.450   1.258   7.355
10578POPC   C1B63775  38.332   1.477   6.455
10578POPC   C2B63776  38.355   1.399   6.755
10578POPC   C3B63777  38.333   1.456   7.055
10578POPC   C4B63778  38.366   1.409   7.355
10579POPC   NC363779   9.789  23.711   5.555
10579POPC   PO463780   9.783  23.713   5.855
10579POPC   GL163781   9.766  23.667   6.155
10579POPC   GL263782   9.740  23.817   6.155
10579POPC   C1A63783   9.781  23.717   6.455
10579POPC   D2A63784   9.725  23.708   6.755
10579POPC   C3A63785   9.704  23.676   7.055
10579POPC   C4A63786   9.790  23.720   7.355
10579POPC   C1B63787   9.769  23.953   6.455
10579POPC   C2B63788   9.798  24.005   6.755
10579POPC   C3B63789   9.756  23.971   7.055
10579POPC   C4B63790   9.805  23.959   7.355
10580POPC   NC363791  36.860  33.019   5.555
10580POPC   PO463792  36.893  33.022   5.855
10580POPC   GL163793  36.923  33.043   6.155
10580POPC   GL263794  36.973  33.145   6.155
10580POPC   C1A63795  36.949  32.988   6.455
10580POPC   D2A63796  36.920  33.005   6.755
10580POPC   C3A63797  36.934  32.981   7.055
10580POPC   C4A63798  36.864  33.023   7.355
10580POPC   C1B63799  37.128  33.130   6.455
10580POPC   C2B63800  37.084  33.215   6.755
10580POPC   C3B63801  37.141  33.186   7.055
10580POPC   C4B63802  37.146  33.149   7.355
10581POPC   NC363803   9.013  29.884   5.555
10581POPC   PO463804   8.959  29.961   5.855
10581POPC   GL163805   8.947  29.884   6.155
10581POPC   GL263806   9.054  29.839   6.155
10581POPC   C1A63807   8.935  29.927   6.455
10581POPC   D2A63808   8.961  29.893   6.755
10581POPC   C3A63809   8.947  29.917   7.055
10581POPC   C4A63810   8.965  29.953   7.355
10581POPC   C1B63811   9.054  29.730   6.455
10581POPC   C2B63812   9.125  29.661   6.755
10581POPC   C3B63813   9.091  29.690   7.055
10581POPC   C4B63814   9.132  29.711   7.355
10582POPC   NC363815  30.719  22.911   5.555
10582POPC   PO463816  30.743  22.948   5.855
10582POPC   GL163817  30.657  22.919   6.155
10582POPC   GL263818  30.798  23.058   6.155
10582POPC   C1A63819  30.728  22.958   6.455
10582POPC   D2A63820  30.739  22.918   6.755
10582POPC   C3A63821  30.658  22.910   7.055
10582POPC   C4A63822  30.741  22.890   7.355
10582POPC   C1B63823  30.915  23.127   6.455
10582POPC   C2B63824  30.864  23.095   6.755
10582POPC   C3B63825  30.879  23.127   7.055
10582POPC   C4B63826  30.837  23.087   7.355
10583POPC   NC363827  10.527  19.859   5.555
10583POPC   PO463828  10.505  19.848   5.855
10583POPC   GL163829  10.552  19.867   6.155
10583POPC   GL263830  10.662  19.912   6.155
10583POPC   C1A63831  10.553  19.823   6.455
10583POPC   D2A63832  10.548  19.793   6.755
10583POPC   C3A63833  10.562  19.835   7.055
10583POPC   C4A63834  10.532  19.855   7.355
10583POPC   C1B63835  10.742  19.964   6.455
10583POPC   C2B63836  10.710  19.938   6.755
10583POPC   C3B63837  10.715  19.886   7.055
10583POPC   C4B63838  10.727  19.969   7.355
10584POPC   NC363839  44.685   6.660   5.555
10584POPC   PO463840  44.621   6.652   5.855
10584POPC   GL163841  44.649   6.654   6.155
10584POPC   GL263842  44.700   6.535   6.155
10584POPC   C1A63843  44.694   6.645   6.455
10584POPC   D2A63844  44.682   6.669   6.755
10584POPC   C3A63845  44.641   6.657   7.055
10584POPC   C4A63846  44.646   6.600   7.355
10584POPC   C1B63847  44.861   6.451   6.455
10584POPC   C2B63848  44.789   6.508   6.755
10584POPC   C3B63849  44.790   6.429   7.055
10584POPC   C4B63850  44.826   6.468   7.355
10585POPC   NC363851   1.971  26.018   5.555
10585POPC   PO463852   2.004  26.015   5.855
10585POPC   GL163853   2.003  26.065   6.155
10585POPC   GL263854   2.008  26.115   6.155
10585POPC   C1A63855   2.024  26.067   6.455
10585POPC   D2A63856   2.006  26.007   6.755
10585POPC   C3A63857   1.986  26.066   7.055
10585POPC   C4A63858   1.974  26.043   7.355
10585POPC   C1B63859   2.088  26.252   6.455
10585POPC   C2B63860   2.051  26.247   6.755
10585POPC   C3B63861   2.064  26.327   7.055
10585POPC   C4B63862   2.020  26.290   7.355
10586POPC   NC363863  23.720  37.665   5.555
10586POPC   PO463864  23.684  37.716   5.855
10586POPC   GL163865  23.689  37.684   6.155
10586POPC   GL263866  23.741  37.810   6.155
10586POPC   C1A63867  23.682  37.720   6.455
10586POPC   D2A63868  23.721  37.676   6.755
10586POPC   C3A63869  23.746  37.647   7.055
10586POPC   C4A63870  23.673  37.727   7.355
10586POPC   C1B63871  23.862  37.839   6.455
10586POPC   C2B63872  23.889  37.911   6.755
10586POPC   C3B63873  23.828  37.925   7.055
10586POPC   C4B63874  23.837  37.859   7.355
10587POPC   NC363875  12.086  25.229   5.555
10587POPC   PO463876  12.032  25.237   5.855
10587POPC   GL163877  12.049  25.269   6.155
10587POPC   GL263878  12.210  25.202   6.155
10587POPC   C1A63879  12.056  25.232   6.455
10587POPC   D2A63880  12.034  25.264   6.755
10587POPC   C3A63881  12.053  25.302   7.055
10587POPC   C4A63882  12.076  25.285   7.355
10587POPC   C1B63883  12.229  25.110   6.455
10587POPC   C2B63884  12.227  25.103   6.755
10587POPC   C3B63885  12.252  25.076   7.055
10587POPC   C4B63886  12.244  25.038   7.355
10588POPC   NC363887   3.571  43.866   5.555
10588POPC   PO463888   3.531  43.861   5.855
10588POPC   GL163889   3.588  43.896   6.155
10588POPC   GL263890   3.480  43.999   6.155
10588POPC   C1A63891   3.529  43.914   6.455
10588POPC   D2A63892   3.518  43.898   6.755
10588POPC   C3A63893   3.584  43.914   7.055
10588POPC   C4A63894   3.591  43.886   7.355
10588POPC   C1B63895   3.407  44.091   6.455
10588POPC   C2B63896   3.402  44.106   6.755
10588POPC   C3B63897   3.382  44.081   7.055
10588POPC   C4B63898   3.441  44.140   7.355
10589POPC   NC363899  28.334  40.752   5.555
10589POPC   PO463900  28.409  40.767   5.855
10589POPC   GL163901  28.405  40.795   6.155
10589POPC   GL263902  28.285  40.704   6.155
10589POPC   C1A63903  28.352  40.758   6.455
10589POPC   D2A63904  28.375  40.772   6.755
10589POPC   C3A63905  28.332  40.760   7.055
10589POPC   C4A63906  28.325  40.826   7.355
10589POPC   C1B63907  28.179  40.661   6.455
10589POPC   C2B63908  28.128  40.688   6.755
10589POPC   C3B63909  28.103  40.717   7.055
10589POPC   C4B63910  28.117  40.660   7.355
10590POPC   NC363911  12.873  27.609   5.555
10590POPC   PO463912  12.882  27.589   5.855
10590POPC   GL163913  12.852  27.573   6.155
10590POPC   GL263914  12.685  27.579   6.155
10590POPC   C1A63915  12.887  27.577   6.455
10590POPC   D2A63916  12.832  27.585   6.755
10590POPC   C3A63917  12.815  27.628   7.055
10590POPC   C4A63918  12.834  27.617   7.355
10590POPC   C1B63919  12.624  27.562   6.455
10590POPC   C2B63920  12.631  27.556   6.755
10590POPC   C3B63921  12.637  27.620   7.055
10590POPC   C4B63922  12.616  27.646   7.355
10591POPC   NC363923   5.841   1.952   5.555
10591POPC   PO463924   5.907   1.967   5.855
10591POPC   GL163925   5.885   1.999   6.155
10591POPC   GL263926   5.782   2.120   6.155
10591POPC   C1A63927   5.886   1.979   6.455
10591POPC   D2A63928   5.841   2.017   6.755
10591POPC   C3A63929   5.837   1.942   7.055
10591POPC   C4A63930   5.838   1.961   7.355
10591POPC   C1B63931   5.708   2.172   6.455
10591POPC   C2B63932   5.695   2.133   6.755
10591POPC   C3B63933   5.681   2.162   7.055
10591POPC   C4B63934   5.713   2.126   7.355
10592POPC   NC363935   1.166   6.653   5.555
10592POPC   PO463936   1.202   6.690   5.855
10592POPC   GL163937   1.175   6.607   6.155
10592POPC   GL263938   1.289   6.751   6.155
10592POPC   C1A63939   1.258   6.630   6.455
10592POPC   D2A63940   1.219   6.683   6.755
10592POPC   C3A63941   1.223   6.656   7.055
10592POPC   C4A63942   1.164   6.674   7.355
10592POPC   C1B63943   1.386   6.800   6.455
10592POPC   C2B63944   1.385   6.734   6.755
10592POPC   C3B63945   1.413   6.794   7.055
10592POPC   C4B63946   1.476   6.808   7.355
10593POPC   NC363947  33.072   1.201   5.555
10593POPC   PO463948  32.982   1.181   5.855
10593POPC   GL163949  33.030   1.201   6.155
10593POPC   GL263950  33.143   1.148   6.155
10593POPC   C1A63951  33.070   1.262   6.455
10593POPC   D2A63952  33.038   1.255   6.755
10593POPC   C3A63953  33.009   1.242   7.055
10593POPC   C4A63954  32.985   1.173   7.355
10593POPC   C1B63955  33.148   0.985   6.455
10593POPC   C2B63956  33.134   1.033   6.755
10593POPC   C3B63957  33.165   1.037   7.055
10593POPC   C4B63958  33.157   0.992   7.355
10594POPC   NC363959  21.363  26.021   5.555
10594POPC   PO463960  21.356  26.007   5.855
10594POPC   GL163961  21.342  26.035   6.155
10594POPC   GL263962  21.229  26.118   6.155
10594POPC   C1A63963  21.400  26.005   6.455
10594POPC   D2A63964  21.362  26.056   6.755
10594POPC   C3A63965  21.361  26.001   7.055
10594POPC   C4A63966  21.346  26.056   7.355
10594POPC   C1B63967  21.164  26.083   6.455
10594POPC   C2B63968  21.110  26.162   6.755
10594POPC   C3B63969  21.120  26.099   7.055
10594POPC   C4B63970  21.183  26.146   7.355
10595POPC   NC363971  19.012   9.774   5.555
10595POPC   PO463972  19.070   9.704   5.855
10595POPC   GL163973  19.096   9.729   6.155
10595POPC   GL263974  19.000   9.652   6.155
10595POPC   C1A63975  19.098   9.729   6.455
10595POPC   D2A63976  19.040   9.784   6.755
10595POPC   C3A63977  19.062   9.711   7.055
10595POPC   C4A63978  19.030   9.751   7.355
10595POPC   C1B63979  18.889   9.544   6.455
10595POPC   C2B63980  18.933   9.597   6.755
10595POPC   C3B63981  18.907   9.552   7.055
10595POPC   C4B63982  18.888   9.576   7.355
10596POPC   NC363983  29.966  12.123   5.555
10596POPC   PO463984  29.907  12.050   5.855
10596POPC   GL163985  29.953  12.094   6.155
10596POPC   GL263986  29.938  11.958   6.155
10596POPC   C1A63987  29.957  12.124   6.455
10596POPC   D2A63988  29.943  12.056   6.755
10596POPC   C3A63989  29.889  12.064   7.055
10596POPC   C4A63990  29.874  12.121   7.355
10596POPC   C1B63991  29.976  11.875   6.455
10596POPC   C2B63992  29.986  11.783   6.755
10596POPC   C3B63993  29.979  11.875   7.055
10596POPC   C4B63994  29.910  11.798   7.355
10597POPC   NC363995   7.435  23.732   5.555
10597POPC   PO463996   7.392  23.753   5.855
10597POPC   GL163997   7.459  23.711   6.155
10597POPC   GL263998   7.368  23.553   6.155
10597POPC   C1A63999   7.448  23.666   6.455
10597POPC   D2A64000   7.415  23.705   6.755
10597POPC   C3A64001   7.453  23.700   7.055
10597POPC   C4A64002   7.454  23.752   7.355
10597POPC   C1B64003   7.400  23.418   6.455
10597POPC   C2B64004   7.346  23.462   6.755
10597POPC   C3B64005   7.351  23.437   7.055
10597POPC   C4B64006   7.337  23.424   7.355
10598POPC   NC364007   2.750  24.464   5.555
10598POPC   PO464008   2.792  24.520   5.855
10598POPC   GL164009   2.759  24.448   6.155
10598POPC   GL264010   2.861  24.597   6.155
10598POPC   C1A64011   2.773  24.472   6.455
10598POPC   D2A64012   2.812  24.456   6.755
10598POPC   C3A64013   2.815  24.478   7.055
10598POPC   C4A64014   2.733  24.489   7.355
10598POPC   C1B64015   2.832  24.747   6.455
10598POPC   C2B64016   2.814  24.697   6.755
10598POPC   C3B64017   2.846  24.751   7.055
10598POPC   C4B64018   2.832  24.747   7.355
10599POPC   NC364019  13.579  44.702   5.555
10599POPC   PO464020  13.594  44.617   5.855
10599POPC   GL164021  13.658  44.670   6.155
10599POPC   GL264022  13.552  44.588   6.155
10599POPC   C1A64023  13.676  44.663   6.455
10599POPC   D2A64024  13.641  44.668   6.755
10599POPC   C3A64025  13.639  44.643   7.055
10599POPC   C4A64026  13.622  44.673   7.355
10599POPC   C1B64027  13.419  44.621   6.455
10599POPC   C2B64028  13.376  44.607   6.755
10599POPC   C3B64029  13.407  44.536   7.055
10599POPC   C4B64030  13.367  44.532   7.355
10600POPC   NC364031   8.213  43.065   5.555
10600POPC   PO464032   8.183  43.129   5.855
10600POPC   GL164033   8.217  43.117   6.155
10600POPC   GL264034   8.206  43.280   6.155
10600POPC   C1A64035   8.206  43.097   6.455
10600POPC   D2A64036   8.149  43.112   6.755
10600POPC   C3A64037   8.229  43.097   7.055
10600POPC   C4A64038   8.211  43.094   7.355
10600POPC   C1B64039   8.185  43.342   6.455
10600POPC   C2B64040   8.228  43.346   6.755
10600POPC   C3B64041   8.209  43.394   7.055
10600POPC   C4B64042   8.205  43.365   7.355
10601POPC   NC364043   1.999  33.796   5.555
10601POPC   PO464044   1.991  33.823   5.855
10601POPC   GL164045   2.010  33.782   6.155
10601POPC   GL264046   1.944  33.854   6.155
10601POPC   C1A64047   1.985  33.793   6.455
10601POPC   D2A64048   2.013  33.760   6.755
10601POPC   C3A64049   2.028  33.762   7.055
10601POPC   C4A64050   1.993  33.842   7.355
10601POPC   C1B64051   1.811  33.964   6.455
10601POPC   C2B64052   1.857  33.971   6.755
10601POPC   C3B64053   1.785  34.020   7.055
10601POPC   C4B64054   1.845  33.988   7.355
10602POPC   NC364055   5.896  33.007   5.555
10602POPC   PO464056   5.912  33.062   5.855
10602POPC   GL164057   5.864  33.043   6.155
10602POPC   GL264058   5.750  32.938   6.155
10602POPC   C1A64059   5.835  33.006   6.455
10602POPC   D2A64060   5.881  33.026   6.755
10602POPC   C3A64061   5.891  33.063   7.055
10602POPC   C4A64062   5.828  32.997   7.355
10602POPC   C1B64063   5.700  32.809   6.455
10602POPC   C2B64064   5.731  32.836   6.755
10602POPC   C3B64065   5.724  32.848   7.055
10602POPC   C4B64066   5.746  32.785   7.355
10603POPC   NC364067  19.817  43.916   5.555
10603POPC   PO464068  19.785  43.867   5.855
10603POPC   GL164069  19.875  43.905   6.155
10603POPC   GL264070  19.963  43.911   6.155
10603POPC   C1A64071  19.812  43.869   6.455
10603POPC   D2A64072  19.812  43.868   6.755
10603POPC   C3A64073  19.867  43.879   7.055
10603POPC   C4A64074  19.870  43.878   7.355
10603POPC   C1B64075  20.097  43.975   6.455
10603POPC   C2B64076  20.073  43.991   6.755
10603POPC   C3B64077  20.100  43.995   7.055
10603POPC   C4B64078  20.081  43.974   7.355
10604POPC   NC364079  28.346  31.512   5.555
10604POPC   PO464080  28.419  31.448   5.855
10604POPC   GL164081  28.384  31.447   6.155
10604POPC   GL264082  28.301  31.333   6.155
10604POPC   C1A64083  28.391  31.508   6.455
10604POPC   D2A64084  28.369  31.452   6.755
10604POPC   C3A64085  28.358  31.428   7.055
10604POPC   C4A64086  28.400  31.452   7.355
10604POPC   C1B64087  28.245  31.268   6.455
10604POPC   C2B64088  28.212  31.254   6.755
10604POPC   C3B64089  28.180  31.282   7.055
10604POPC   C4B64090  28.211  31.285   7.355
10605POPC   NC364091  38.467  15.154   5.555
10605POPC   PO464092  38.489  15.158   5.855
10605POPC   GL164093  38.415  15.204   6.155
10605POPC   GL264094  38.521  15.320   6.155
10605POPC   C1A64095  38.435  15.217   6.455
10605POPC   D2A64096  38.434  15.164   6.755
10605POPC   C3A64097  38.423  15.159   7.055
10605POPC   C4A64098  38.452  15.223   7.355
10605POPC   C1B64099  38.492  15.389   6.455
10605POPC   C2B64100  38.544  15.390   6.755
10605POPC   C3B64101  38.523  15.453   7.055
10605POPC   C4B64102  38.558  15.448   7.355
10606POPC   NC364103  34.528  36.903   5.555
10606POPC   PO464104  34.564  36.909   5.855
10606POPC   GL164105  34.560  36.905   6.155
10606POPC   GL264106  34.695  36.898   6.155
10606POPC   C1A64107  34.620  36.923   6.455
10606POPC   D2A64108  34.595  36.935   6.755
10606POPC   C3A64109  34.625  36.930   7.055
10606POPC   C4A64110  34.533  36.925   7.355
10606POPC   C1B64111  34.808  36.800   6.455
10606POPC   C2B64112  34.797  36.811   6.755
10606POPC   C3B64113  34.765  36.794   7.055
10606POPC   C4B64114  34.848  36.788   7.355
10607POPC   NC364115   5.100  16.703   5.555
10607POPC   PO464116   5.051  16.698   5.855
10607POPC   GL164117   5.057  16.689   6.155
10607POPC   GL264118   5.120  16.599   6.155
10607POPC   C1A64119   5.108  16.753   6.455
10607POPC   D2A64120   5.079  16.684   6.755
10607POPC   C3A64121   5.086  16.697   7.055
10607POPC   C4A64122   5.069  16.745   7.355
10607POPC   C1B64123   5.089  16.495   6.455
10607POPC   C2B64124   5.137  16.445   6.755
10607POPC   C3B64125   5.067  16.440   7.055
10607POPC   C4B64126   5.113  16.473   7.355
10608POPC   NC364127   8.985   8.210   5.555
10608POPC   PO464128   8.954   8.162   5.855
10608POPC   GL164129   9.020   8.169   6.155
10608POPC   GL264130   8.907   8.088   6.155
10608POPC   C1A64131   8.999   8.153   6.455
10608POPC   D2A64132   8.960   8.203   6.755
10608POPC   C3A64133   8.929   8.155   7.055
10608POPC   C4A64134   9.003   8.158   7.355
10608POPC   C1B64135   8.744   8.037   6.455
10608POPC   C2B64136   8.764   8.113   6.755
10608POPC   C3B64137   8.754   8.028   7.055
10608POPC   C4B64138   8.743   8.064   7.355
10609POPC   NC364139  43.921   1.946   5.555
10609POPC   PO464140  43.891   1.980   5.855
10609POPC   GL164141  43.841   1.965   6.155
10609POPC   GL264142  43.955   1.972   6.155
10609POPC   C1A64143  43.916   1.991   6.455
10609POPC   D2A64144  43.912   1.985   6.755
10609POPC   C3A64145  43.848   2.005   7.055
10609POPC   C4A64146  43.906   1.965   7.355
10609POPC   C1B64147  44.144   1.908   6.455
10609POPC   C2B64148  44.119   1.846   6.755
10609POPC   C3B64149  44.095   1.919   7.055
10609POPC   C4B64150  44.070   1.895   7.355
10610POPC   NC364151  21.386  21.428   5.555
10610POPC   PO464152  21.362  21.398   5.855
10610POPC   GL164153  21.343  21.396   6.155
10610POPC   GL264154  21.413  21.292   6.155
10610POPC   C1A64155  21.415  21.405   6.455
10610POPC   D2A64156  21.396  21.418   6.755
10610POPC   C3A64157  21.378  21.412   7.055
10610POPC   C4A64158  21.431  21.431   7.355
10610POPC   C1B64159  21.540  21.236   6.455
10610POPC   C2B64160  21.512  21.157   6.755
10610POPC   C3B64161  21.538  21.214   7.055
10610POPC   C4B64162  21.497  21.177   7.355
10611POPC   NC364163  34.527  39.990   5.555
10611POPC   PO464164  34.621  39.991   5.855
10611POPC   GL164165  34.574  40.049   6.155
10611POPC   GL264166  34.630  40.140   6.155
10611POPC   C1A64167  34.612  39.975   6.455
10611POPC   D2A64168  34.605  40.003   6.755
10611POPC   C3A64169  34.611  40.043   7.055
10611POPC   C4A64170  34.596  40.028   7.355
10611POPC   C1B64171  34.678  40.198   6.455
10611POPC   C2B64172  34.699  40.217   6.755
10611POPC   C3B64173  34.622  40.216   7.055
10611POPC   C4B64174  34.614  40.240   7.355
10612POPC   NC364175  38.434   7.439   5.555
10612POPC   PO464176  38.424   7.396   5.855
10612POPC   GL164177  38.432   7.461   6.155
10612POPC   GL264178  38.548   7.352   6.155
10612POPC   C1A64179  38.486   7.459   6.455
10612POPC   D2A64180  38.466   7.440   6.755
10612POPC   C3A64181  38.419   7.388   7.055
10612POPC   C4A64182  38.474   7.375   7.355
10612POPC   C1B64183  38.674   7.387   6.455
10612POPC   C2B64184  38.730   7.304   6.755
10612POPC   C3B64185  38.669   7.388   7.055
10612POPC   C4B64186  38.700   7.319   7.355
10613POPC   NC364187   8.155   5.848   5.555
10613POPC   PO464188   8.171   5.872   5.855
10613POPC   GL164189   8.205   5.906   6.155
10613POPC   GL264190   8.117   5.761   6.155
10613POPC   C1A64191   8.241   5.885   6.455
10613POPC   D2A64192   8.235   5.915   6.755
10613POPC   C3A64193   8.205   5.833   7.055
10613POPC   C4A64194   8.245   5.883   7.355
10613POPC   C1B64195   8.041   5.633   6.455
10613POPC   C2B64196   8.119   5.698   6.755
10613POPC   C3B64197   8.113   5.634   7.055
10613POPC   C4B64198   8.077   5.652   7.355
10614POPC   NC364199   0.434  12.065   5.555
10614POPC   PO464200   0.479  12.096   5.855
10614POPC   GL164201   0.389  12.111   6.155
10614POPC   GL264202   0.508  11.983   6.155
10614POPC   C1A64203   0.398  12.091   6.455
10614POPC   D2A64204   0.473  12.065   6.755
10614POPC   C3A64205   0.438  12.097   7.055
10614POPC   C4A64206   0.452  12.056   7.355
10614POPC   C1B64207   0.605  11.864   6.455
10614POPC   C2B64208   0.570  11.884   6.755
10614POPC   C3B64209   0.567  11.879   7.055
10614POPC   C4B64210   0.619  11.881   7.355
10615POPC   NC364211  17.508  18.309   5.555
10615POPC   PO464212  17.499  18.321   5.855
10615POPC   GL164213  17.515  18.321   6.155
10615POPC   GL264214  17.567  18.203   6.155
10615POPC   C1A64215  17.499  18.250   6.455
10615POPC   D2A64216  17.538  18.281   6.755
10615POPC   C3A64217  17.554  18.256   7.055
10615POPC   C4A64218  17.463  18.282   7.355
10615POPC   C1B64219  17.668  18.056   6.455
10615POPC   C2B64220  17.664  18.103   6.755
10615POPC   C3B64221  17.611  18.076   7.055
10615POPC   C4B64222  17.683  18.072   7.355
10616POPC   NC364223  13.603  19.083   5.555
10616POPC   PO464224  13.628  19.071   5.855
10616POPC   GL164225  13.579  19.081   6.155
10616POPC   GL264226  13.724  19.086   6.155
10616POPC   C1A64227  13.630  19.075   6.455
10616POPC   D2A64228  13.677  19.083   6.755
10616POPC   C3A64229  13.620  19.041   7.055
10616POPC   C4A64230  13.650  19.041   7.355
10616POPC   C1B64231  13.872  19.064   6.455
10616POPC   C2B64232  13.858  19.104   6.755
10616POPC   C3B64233  13.909  19.138   7.055
10616POPC   C4B64234  13.843  19.091   7.355
10617POPC   NC364235  38.461  27.585   5.555
10617POPC   PO464236  38.475  27.598   5.855
10617POPC   GL164237  38.434  27.643   6.155
10617POPC   GL264238  38.547  27.501   6.155
10617POPC   C1A64239  38.489  27.571   6.455
10617POPC   D2A64240  38.433  27.582   6.755
10617POPC   C3A64241  38.476  27.640   7.055
10617POPC   C4A64242  38.420  27.549   7.355
10617POPC   C1B64243  38.594  27.354   6.455
10617POPC   C2B64244  38.571  27.343   6.755
10617POPC   C3B64245  38.557  27.374   7.055
10617POPC   C4B64246  38.548  27.370   7.355
10618POPC   NC364247   8.180  15.187   5.555
10618POPC   PO464248   8.213  15.213   5.855
10618POPC   GL164249   8.201  15.161   6.155
10618POPC   GL264250   8.274  15.045   6.155
10618POPC   C1A64251   8.234  15.227   6.455
10618POPC   D2A64252   8.164  15.176   6.755
10618POPC   C3A64253   8.158  15.196   7.055
10618POPC   C4A64254   8.157  15.223   7.355
10618POPC   C1B64255   8.296  14.981   6.455
10618POPC   C2B64256   8.300  15.018   6.755
10618POPC   C3B64257   8.310  14.942   7.055
10618POPC   C4B64258   8.352  14.990   7.355
10619POPC   NC364259  40.010  24.514   5.555
10619POPC   PO464260  40.026  24.474   5.855
10619POPC   GL164261  39.990  24.503   6.155
10619POPC   GL264262  40.060  24.606   6.155
10619POPC   C1A64263  40.051  24.501   6.455
10619POPC   D2A64264  40.017  24.536   6.755
10619POPC   C3A64265  40.026  24.533   7.055
10619POPC   C4A64266  39.962  24.516   7.355
10619POPC   C1B64267  40.235  24.671   6.455
10619POPC   C2B64268  40.184  24.679   6.755
10619POPC   C3B64269  40.178  24.699   7.055
10619POPC   C4B64270  40.201  24.671   7.355
10620POPC   NC364271  34.592   8.966   5.555
10620POPC   PO464272  34.530   9.010   5.855
10620POPC   GL164273  34.538   8.968   6.155
10620POPC   GL264274  34.463   8.978   6.155
10620POPC   C1A64275  34.611   9.017   6.455
10620POPC   D2A64276  34.600   9.016   6.755
10620POPC   C3A64277  34.583   8.973   7.055
10620POPC   C4A64278  34.566   9.010   7.355
10620POPC   C1B64279  34.308   8.990   6.455
10620POPC   C2B64280  34.338   9.033   6.755
10620POPC   C3B64281  34.300   9.052   7.055
10620POPC   C4B64282  34.311   9.057   7.355
10621POPC   NC364283  19.098   5.892   5.555
10621POPC   PO464284  19.073   5.869   5.855
10621POPC   GL164285  19.104   5.847   6.155
10621POPC   GL264286  19.126   5.884   6.155
10621POPC   C1A64287  19.019   5.826   6.455
10621POPC   D2A64288  19.085   5.872   6.755
10621POPC   C3A64289  19.061   5.915   7.055
10621POPC   C4A64290  19.041   5.895   7.355
10621POPC   C1B64291  19.300   5.928   6.455
10621POPC   C2B64292  19.341   5.963   6.755
10621POPC   C3B64293  19.306   5.917   7.055
10621POPC   C4B64294  19.303   5.975   7.355
10622POPC   NC364295  17.496   7.388   5.555
10622POPC   PO464296  17.516   7.420   5.855
10622POPC   GL164297  17.459   7.421   6.155
10622POPC   GL264298  17.349   7.413   6.155
10622POPC   C1A64299  17.538   7.420   6.455
10622POPC   D2A64300  17.544   7.401   6.755
10622POPC   C3A64301  17.532   7.461   7.055
10622POPC   C4A64302  17.538   7.400   7.355
10622POPC   C1B64303  17.243   7.318   6.455
10622POPC   C2B64304  17.230   7.336   6.755
10622POPC   C3B64305  17.247   7.315   7.055
10622POPC   C4B64306  17.322   7.360   7.355
10623POPC   NC364307   1.216  10.496   5.555
10623POPC   PO464308   1.210  10.555   5.855
10623POPC   GL164309   1.260  10.537   6.155
10623POPC   GL264310   1.279  10.530   6.155
10623POPC   C1A64311   1.181  10.504   6.455
10623POPC   D2A64312   1.214  10.560   6.755
10623POPC   C3A64313   1.246  10.511   7.055
10623POPC   C4A64314   1.259  10.478   7.355
10623POPC   C1B64315   1.423  10.588   6.455
10623POPC   C2B64316   1.436  10.598   6.755
10623POPC   C3B64317   1.424  10.660   7.055
10623POPC   C4B64318   1.470  10.600   7.355
10624POPC   NC364319  10.498  41.594   5.555
10624POPC   PO464320  10.502  41.531   5.855
10624POPC   GL164321  10.556  41.562   6.155
10624POPC   GL264322  10.501  41.474   6.155
10624POPC   C1A64323  10.531  41.551   6.455
10624POPC   D2A64324  10.537  41.563   6.755
10624POPC   C3A64325  10.503  41.513   7.055
10624POPC   C4A64326  10.563  41.555   7.355
10624POPC   C1B64327  10.496  41.267   6.455
10624POPC   C2B64328  10.462  41.313   6.755
10624POPC   C3B64329  10.515  41.327   7.055
10624POPC   C4B64330  10.522  41.314   7.355
10625POPC   NC364331  43.838  43.891   5.555
10625POPC   PO464332  43.858  43.847   5.855
10625POPC   GL164333  43.915  43.902   6.155
10625POPC   GL264334  43.734  43.838   6.155
10625POPC   C1A64335  43.862  43.866   6.455
10625POPC   D2A64336  43.868  43.929   6.755
10625POPC   C3A64337  43.894  43.865   7.055
10625POPC   C4A64338  43.840  43.842   7.355
10625POPC   C1B64339  43.600  43.831   6.455
10625POPC   C2B64340  43.633  43.818   6.755
10625POPC   C3B64341  43.606  43.823   7.055
10625POPC   C4B64342  43.629  43.769   7.355
10626POPC   NC364343   4.335  11.306   5.555
10626POPC   PO464344   4.340  11.315   5.855
10626POPC   GL164345   4.325  11.276   6.155
10626POPC   GL264346   4.334  11.223   6.155
10626POPC   C1A64347   4.364  11.260   6.455
10626POPC   D2A64348   4.314  11.345   6.755
10626POPC   C3A64349   4.330  11.263   7.055
10626POPC   C4A64350   4.306  11.306   7.355
10626POPC   C1B64351   4.384  11.071   6.455
10626POPC   C2B64352   4.442  11.071   6.755
10626POPC   C3B64353   4.441  11.109   7.055
10626POPC   C4B64354   4.462  11.097   7.355
10627POPC   NC364355   5.118  43.088   5.555
10627POPC   PO464356   5.072  43.087   5.855
10627POPC   GL164357   5.053  43.158   6.155
10627POPC   GL264358   5.254  43.090   6.155
10627POPC   C1A64359   5.077  43.115   6.455
10627POPC   D2A64360   5.125  43.138   6.755
10627POPC   C3A64361   5.117  43.095   7.055
10627POPC   C4A64362   5.098  43.068   7.355
10627POPC   C1B64363   5.309  43.004   6.455
10627POPC   C2B64364   5.357  42.993   6.755
10627POPC   C3B64365   5.324  43.002   7.055
10627POPC   C4B64366   5.336  42.996   7.355
10628POPC   NC364367  29.963  44.708   5.555
10628POPC   PO464368  29.944  44.695   5.855
10628POPC   GL164369  29.937  44.669   6.155
10628POPC   GL264370  30.042  44.699   6.155
10628POPC   C1A64371  29.940  44.617   6.455
10628POPC   D2A64372  29.963  44.685   6.755
10628POPC   C3A64373  29.934  44.622   7.055
10628POPC   C4A64374  29.943  44.709   7.355
10628POPC   C1B64375  30.069  44.784   6.455
10628POPC   C2B64376  30.101  44.799   6.755
10628POPC   C3B64377  30.077  44.784   7.055
10628POPC   C4B64378  30.064  44.811   7.355
10629POPC   NC364379  35.356  25.994   5.555
10629POPC   PO464380  35.334  26.021   5.855
10629POPC   GL164381  35.337  26.055   6.155
10629POPC   GL264382  35.243  26.105   6.155
10629POPC   C1A64383  35.354  26.038   6.455
10629POPC   D2A64384  35.361  26.067   6.755
10629POPC   C3A64385  35.342  26.088   7.055
10629POPC   C4A64386  35.377  26.055   7.355
10629POPC   C1B64387  35.248  26.210   6.455
10629POPC   C2B64388  35.253  26.212   6.755
10629POPC   C3B64389  35.247  26.254   7.055
10629POPC   C4B64390  35.200  26.279   7.355
10630POPC   NC364391   5.886  19.022   5.555
10630POPC   PO464392   5.878  19.093   5.855
10630POPC   GL164393   5.819  19.060   6.155
10630POPC   GL264394   5.955  18.957   6.155
10630POPC   C1A64395   5.860  19.012   6.455
10630POPC   D2A64396   5.844  19.079   6.755
10630POPC   C3A64397   5.850  19.042   7.055
10630POPC   C4A64398   5.877  19.016   7.355
10630POPC   C1B64399   6.106  18.908   6.455
10630POPC   C2B64400   6.076  18.979   6.755
10630POPC   C3B64401   6.092  18.940   7.055
10630POPC   C4B64402   6.113  18.921   7.355
10631POPC   NC364403   1.979   9.734   5.555
10631POPC   PO464404   2.000   9.727   5.855
10631POPC   GL164405   1.981   9.790   6.155
10631POPC   GL264406   2.084   9.746   6.155
10631POPC   C1A64407   1.975   9.786   6.455
10631POPC   D2A64408   1.948   9.764   6.755
10631POPC   C3A64409   2.006   9.778   7.055
10631POPC   C4A64410   2.010   9.789   7.355
10631POPC   C1B64411   2.253   9.812   6.455
10631POPC   C2B64412   2.239   9.828   6.755
10631POPC   C3B64413   2.221   9.824   7.055
10631POPC   C4B64414   2.249   9.802   7.355
10632POPC   NC364415  22.958  22.945   5.555
10632POPC   PO464416  22.915  22.948   5.855
10632POPC   GL164417  22.966  22.955   6.155
10632POPC   GL264418  22.797  22.853   6.155
10632POPC   C1A64419  22.966  22.972   6.455
10632POPC   D2A64420  22.958  22.909   6.755
10632POPC   C3A64421  22.937  22.910   7.055
10632POPC   C4A64422  22.909  22.933   7.355
10632POPC   C1B64423  22.690  22.824   6.455
10632POPC   C2B64424  22.706  22.837   6.755
10632POPC   C3B64425  22.699  22.753   7.055
10632POPC   C4B64426  22.722  22.762   7.355
10633POPC   NC364427  43.857  23.669   5.555
10633POPC   PO464428  43.934  23.665   5.855
10633POPC   GL164429  43.882  23.733   6.155
10633POPC   GL264430  43.917  23.603   6.155
10633POPC   C1A64431  43.912  23.727   6.455
10633POPC   D2A64432  43.845  23.754   6.755
10633POPC   C3A64433  43.903  23.667   7.055
10633POPC   C4A64434  43.897  23.721   7.355
10633POPC   C1B64435  44.075  23.533   6.455
10633POPC   C2B64436  43.996  23.526   6.755
10633POPC   C3B64437  43.994  23.552   7.055
10633POPC   C4B64438  44.014  23.563   7.355
10634POPC   NC364439  29.139  38.408   5.555
10634POPC   PO464440  29.117  38.448   5.855
10634POPC   GL164441  29.181  38.464   6.155
10634POPC   GL264442  29.062  38.450   6.155
10634POPC   C1A64443  29.170  38.422   6.455
10634POPC   D2A64444  29.099  38.469   6.755
10634POPC   C3A64445  29.134  38.468   7.055
10634POPC   C4A64446  29.153  38.474   7.355
10634POPC   C1B64447  28.879  38.509   6.455
10634POPC   C2B64448  28.904  38.550   6.755
10634POPC   C3B64449  28.936  38.507   7.055
10634POPC   C4B64450  28.943  38.525   7.355
10635POPC   NC364451  44.703   0.406   5.555
10635POPC   PO464452  44.701   0.405   5.855
10635POPC   GL164453  44.646   0.392   6.155
10635POPC   GL264454  44.792   0.356   6.155
10635POPC   C1A64455  44.676   0.405   6.455
10635POPC   D2A64456  44.656   0.475   6.755
10635POPC   C3A64457  44.630   0.453   7.055
10635POPC   C4A64458  44.689   0.459   7.355
10635POPC   C1B64459  44.901   0.291   6.455
10635POPC   C2B64460  44.898   0.361   6.755
10635POPC   C3B64461  44.912   0.349   7.055
10635POPC   C4B64462  44.857   0.286   7.355
10636POPC   NC364463  23.676   8.944   5.555
10636POPC   PO464464  23.719   8.992   5.855
10636POPC   GL164465  23.718   8.965   6.155
10636POPC   GL264466  23.608   8.931   6.155
10636POPC   C1A64467  23.698   8.939   6.455
10636POPC   D2A64468  23.706   8.972   6.755
10636POPC   C3A64469  23.761   8.939   7.055
10636POPC   C4A64470  23.703   8.959   7.355
10636POPC   C1B64471  23.486   8.913   6.455
10636POPC   C2B64472  23.482   8.902   6.755
10636POPC   C3B64473  23.428   8.850   7.055
10636POPC   C4B64474  23.437   8.911   7.355
10637POPC   NC364475  23.718  19.096   5.555
10637POPC   PO464476  23.738  19.054   5.855
10637POPC   GL164477  23.733  19.079   6.155
10637POPC   GL264478  23.843  18.974   6.155
10637POPC   C1A64479  23.741  19.054   6.455
10637POPC   D2A64480  23.685  19.096   6.755
10637POPC   C3A64481  23.711  19.072   7.055
10637POPC   C4A64482  23.679  19.077   7.355
10637POPC   C1B64483  23.860  18.911   6.455
10637POPC   C2B64484  23.878  18.831   6.755
10637POPC   C3B64485  23.920  18.869   7.055
10637POPC   C4B64486  23.885  18.863   7.355
10638POPC   NC364487  12.832  26.816   5.555
10638POPC   PO464488  12.872  26.788   5.855
10638POPC   GL164489  12.845  26.809   6.155
10638POPC   GL264490  13.002  26.813   6.155
10638POPC   C1A64491  12.838  26.779   6.455
10638POPC   D2A64492  12.883  26.789   6.755
10638POPC   C3A64493  12.838  26.790   7.055
10638POPC   C4A64494  12.886  26.858   7.355
10638POPC   C1B64495  13.054  26.900   6.455
10638POPC   C2B64496  13.097  26.895   6.755
10638POPC   C3B64497  13.126  26.907   7.055
10638POPC   C4B64498  13.107  26.876   7.355
10639POPC   NC364499  40.742  42.350   5.555
10639POPC   PO464500  40.782  42.289   5.855
10639POPC   GL164501  40.780  42.321   6.155
10639POPC   GL264502  40.796  42.411   6.155
10639POPC   C1A64503  40.802  42.370   6.455
10639POPC   D2A64504  40.744  42.364   6.755
10639POPC   C3A64505  40.757  42.377   7.055
10639POPC   C4A64506  40.822  42.367   7.355
10639POPC   C1B64507  40.867  42.530   6.455
10639POPC   C2B64508  40.877  42.611   6.755
10639POPC   C3B64509  40.824  42.530   7.055
10639POPC   C4B64510  40.862  42.540   7.355
10640POPC   NC364511  19.047  43.086   5.555
10640POPC   PO464512  19.047  43.115   5.855
10640POPC   GL164513  19.100  43.068   6.155
10640POPC   GL264514  19.176  43.213   6.155
10640POPC   C1A64515  19.067  43.092   6.455
10640POPC   D2A64516  19.047  43.102   6.755
10640POPC   C3A64517  19.029  43.111   7.055
10640POPC   C4A64518  19.013  43.116   7.355
10640POPC   C1B64519  19.162  43.303   6.455
10640POPC   C2B64520  19.184  43.270   6.755
10640POPC   C3B64521  19.224  43.289   7.055
10640POPC   C4B64522  19.219  43.340   7.355
10641POPC   NC364523  10.547  29.904   5.555
10641POPC   PO464524  10.525  29.937   5.855
10641POPC   GL164525  10.563  29.922   6.155
10641POPC   GL264526  10.492  29.814   6.155
10641POPC   C1A64527  10.543  29.896   6.455
10641POPC   D2A64528  10.570  29.906   6.755
10641POPC   C3A64529  10.547  29.941   7.055
10641POPC   C4A64530  10.506  29.951   7.355
10641POPC   C1B64531  10.430  29.725   6.455
10641POPC   C2B64532  10.395  29.723   6.755
10641POPC   C3B64533  10.451  29.707   7.055
10641POPC   C4B64534  10.408  29.647   7.355
10642POPC   NC364535  43.862  34.533   5.555
10642POPC   PO464536  43.869  34.584   5.855
10642POPC   GL164537  43.880  34.611   6.155
10642POPC   GL264538  43.914  34.630   6.155
10642POPC   C1A64539  43.841  34.532   6.455
10642POPC   D2A64540  43.905  34.552   6.755
10642POPC   C3A64541  43.883  34.534   7.055
10642POPC   C4A64542  43.876  34.543   7.355
10642POPC   C1B64543  44.057  34.732   6.455
10642POPC   C2B64544  44.010  34.763   6.755
10642POPC   C3B64545  44.064  34.768   7.055
10642POPC   C4B64546  43.991  34.812   7.355
10643POPC   NC364547  12.892   1.193   5.555
10643POPC   PO464548  12.834   1.200   5.855
10643POPC   GL164549  12.835   1.263   6.155
10643POPC   GL264550  12.816   1.346   6.155
10643POPC   C1A64551  12.875   1.200   6.455
10643POPC   D2A64552  12.832   1.188   6.755
10643POPC   C3A64553  12.802   1.243   7.055
10643POPC   C4A64554  12.843   1.250   7.355
10643POPC   C1B64555  12.799   1.468   6.455
10643POPC   C2B64556  12.827   1.432   6.755
10643POPC   C3B64557  12.770   1.412   7.055
10643POPC   C4B64558  12.744   1.467   7.355
10644POPC   NC364559  19.802   7.457   5.555
10644POPC   PO464560  19.852   7.435   5.855
10644POPC   GL164561  19.822   7.448   6.155
10644POPC   GL264562  19.901   7.549   6.155
10644POPC   C1A64563  19.829   7.407   6.455
10644POPC   D2A64564  19.823   7.408   6.755
10644POPC   C3A64565  19.785   7.437   7.055
10644POPC   C4A64566  19.868   7.387   7.355
10644POPC   C1B64567  20.016   7.600   6.455
10644POPC   C2B64568  20.034   7.577   6.755
10644POPC   C3B64569  20.009   7.594   7.055
10644POPC   C4B64570  19.985   7.596   7.355
10645POPC   NC364571   9.756  44.682   5.555
10645POPC   PO464572   9.700  44.652   5.855
10645POPC   GL164573   9.772  44.664   6.155
10645POPC   GL264574   9.663  44.549   6.155
10645POPC   C1A64575   9.781  44.708   6.455
10645POPC   D2A64576   9.701  44.662   6.755
10645POPC   C3A64577   9.771  44.663   7.055
10645POPC   C4A64578   9.720  44.703   7.355
10645POPC   C1B64579   9.581  44.558   6.455
10645POPC   C2B64580   9.583  44.516   6.755
10645POPC   C3B64581   9.517  44.545   7.055
10645POPC   C4B64582   9.522  44.525   7.355
10646POPC   NC364583  39.195  26.050   5.555
10646POPC   PO464584  39.256  26.055   5.855
10646POPC   GL164585  39.273  26.007   6.155
10646POPC   GL264586  39.235  25.916   6.155
10646POPC   C1A64587  39.247  26.065   6.455
10646POPC   D2A64588  39.194  26.088   6.755
10646POPC   C3A64589  39.246  26.019   7.055
10646POPC   C4A64590  39.232  26.076   7.355
10646POPC   C1B64591  39.280  25.812   6.455
10646POPC   C2B64592  39.287  25.804   6.755
10646POPC   C3B64593  39.299  25.823   7.055
10646POPC   C4B64594  39.226  25.778   7.355
10647POPC   NC364595  12.821  13.610   5.555
10647POPC   PO464596  12.882  13.654   5.855
10647POPC   GL164597  12.873  13.583   6.155
10647POPC   GL264598  12.713  13.579   6.155
10647POPC   C1A64599  12.900  13.655   6.455
10647POPC   D2A64600  12.847  13.622   6.755
10647POPC   C3A64601  12.803  13.649   7.055
10647POPC   C4A64602  12.835  13.608   7.355
10647POPC   C1B64603  12.589  13.652   6.455
10647POPC   C2B64604  12.621  13.675   6.755
10647POPC   C3B64605  12.612  13.622   7.055
10647POPC   C4B64606  12.641  13.592   7.355
10648POPC   NC364607   3.517   0.448   5.555
10648POPC   PO464608   3.533   0.467   5.855
10648POPC   GL164609   3.502   0.458   6.155
10648POPC   GL264610   3.484   0.517   6.155
10648POPC   C1A64611   3.494   0.487   6.455
10648POPC   D2A64612   3.513   0.397   6.755
10648POPC   C3A64613   3.589   0.455   7.055
10648POPC   C4A64614   3.520   0.400   7.355
10648POPC   C1B64615   3.451   0.673   6.455
10648POPC   C2B64616   3.438   0.681   6.755
10648POPC   C3B64617   3.505   0.628   7.055
10648POPC   C4B64618   3.426   0.684   7.355
10649POPC   NC364619  16.684   5.108   5.555
10649POPC   PO464620  16.778   5.102   5.855
10649POPC   GL164621  16.759   5.123   6.155
10649POPC   GL264622  16.637   5.007   6.155
10649POPC   C1A64623  16.707   5.066   6.455
10649POPC   D2A64624  16.774   5.109   6.755
10649POPC   C3A64625  16.745   5.100   7.055
10649POPC   C4A64626  16.779   5.100   7.355
10649POPC   C1B64627  16.474   4.926   6.455
10649POPC   C2B64628  16.543   4.912   6.755
10649POPC   C3B64629  16.515   4.913   7.055
10649POPC   C4B64630  16.569   5.003   7.355
10650POPC   NC364631  19.859  15.199   5.555
10650POPC   PO464632  19.824  15.152   5.855
10650POPC   GL164633  19.856  15.217   6.155
10650POPC   GL264634  19.931  15.228   6.155
10650POPC   C1A64635  19.813  15.203   6.455
10650POPC   D2A64636  19.860  15.195   6.755
10650POPC   C3A64637  19.883  15.200   7.055
10650POPC   C4A64638  19.820  15.208   7.355
10650POPC   C1B64639  19.948  15.362   6.455
10650POPC   C2B64640  19.982  15.406   6.755
10650POPC   C3B64641  19.982  15.337   7.055
10650POPC   C4B64642  19.973  15.381   7.355
10651POPC   NC364643   5.854  29.942   5.555
10651POPC   PO464644   5.903  29.965   5.855
10651POPC   GL164645   5.891  29.939   6.155
10651POPC   GL264646   5.961  29.854   6.155
10651POPC   C1A64647   5.820  29.912   6.455
10651POPC   D2A64648   5.834  29.928   6.755
10651POPC   C3A64649   5.829  29.892   7.055
10651POPC   C4A64650   5.855  29.936   7.355
10651POPC   C1B64651   6.148  29.910   6.455
10651POPC   C2B64652   6.069  29.850   6.755
10651POPC   C3B64653   6.098  29.847   7.055
10651POPC   C4B64654   6.083  29.854   7.355
10652POPC   NC364655  29.956  10.540   5.555
10652POPC   PO464656  29.876  10.494   5.855
10652POPC   GL164657  29.961  10.494   6.155
10652POPC   GL264658  29.814  10.412   6.155
10652POPC   C1A64659  29.893  10.517   6.455
10652POPC   D2A64660  29.892  10.541   6.755
10652POPC   C3A64661  29.968  10.502   7.055
10652POPC   C4A64662  29.897  10.566   7.355
10652POPC   C1B64663  29.805  10.303   6.455
10652POPC   C2B64664  29.747  10.321   6.755
10652POPC   C3B64665  29.811  10.358   7.055
10652POPC   C4B64666  29.774  10.305   7.355
10653POPC   NC364667   8.234  12.124   5.555
10653POPC   PO464668   8.183  12.068   5.855
10653POPC   GL164669   8.147  12.048   6.155
10653POPC   GL264670   8.266  12.152   6.155
10653POPC   C1A64671   8.162  12.105   6.455
10653POPC   D2A64672   8.197  12.125   6.755
10653POPC   C3A64673   8.220  12.073   7.055
10653POPC   C4A64674   8.202  12.110   7.355
10653POPC   C1B64675   8.300  12.255   6.455
10653POPC   C2B64676   8.281  12.319   6.755
10653POPC   C3B64677   8.350  12.323   7.055
10653POPC   C4B64678   8.340  12.333   7.355
10654POPC   NC364679   5.827  18.328   5.555
10654POPC   PO464680   5.865  18.246   5.855
10654POPC   GL164681   5.888  18.248   6.155
10654POPC   GL264682   5.792  18.397   6.155
10654POPC   C1A64683   5.848  18.311   6.455
10654POPC   D2A64684   5.863  18.325   6.755
10654POPC   C3A64685   5.860  18.289   7.055
10654POPC   C4A64686   5.901  18.243   7.355
10654POPC   C1B64687   5.745  18.513   6.455
10654POPC   C2B64688   5.709  18.442   6.755
10654POPC   C3B64689   5.751  18.474   7.055
10654POPC   C4B64690   5.773  18.464   7.355
10655POPC   NC364691  11.281  23.746   5.555
10655POPC   PO464692  11.338  23.756   5.855
10655POPC   GL164693  11.340  23.707   6.155
10655POPC   GL264694  11.458  23.677   6.155
10655POPC   C1A64695  11.338  23.744   6.455
10655POPC   D2A64696  11.325  23.757   6.755
10655POPC   C3A64697  11.295  23.723   7.055
10655POPC   C4A64698  11.308  23.688   7.355
10655POPC   C1B64699  11.533  23.654   6.455
10655POPC   C2B64700  11.584  23.707   6.755
10655POPC   C3B64701  11.537  23.687   7.055
10655POPC   C4B64702  11.547  23.709   7.355
10656POPC   NC364703   5.823  15.144   5.555
10656POPC   PO464704   5.899  15.205   5.855
10656POPC   GL164705   5.884  15.159   6.155
10656POPC   GL264706   5.989  15.212   6.155
10656POPC   C1A64707   5.909  15.202   6.455
10656POPC   D2A64708   5.892  15.160   6.755
10656POPC   C3A64709   5.856  15.169   7.055
10656POPC   C4A64710   5.870  15.165   7.355
10656POPC   C1B64711   6.024  15.334   6.455
10656POPC   C2B64712   6.115  15.354   6.755
10656POPC   C3B64713   6.046  15.365   7.055
10656POPC   C4B64714   6.046  15.351   7.355
10657POPC   NC364715  41.585  33.760   5.555
10657POPC   PO464716  41.527  33.821   5.855
10657POPC   GL164717  41.553  33.833   6.155
10657POPC   GL264718  41.384  33.771   6.155
10657POPC   C1A64719  41.591  33.822   6.455
10657POPC   D2A64720  41.580  33.773   6.755
10657POPC   C3A64721  41.524  33.788   7.055
10657POPC   C4A64722  41.600  33.801   7.355
10657POPC   C1B64723  41.303  33.777   6.455
10657POPC   C2B64724  41.341  33.859   6.755
10657POPC   C3B64725  41.324  33.776   7.055
10657POPC   C4B64726  41.326  33.853   7.355
10658POPC   NC364727  19.060  40.038   5.555
10658POPC   PO464728  19.015  39.962   5.855
10658POPC   GL164729  19.012  39.969   6.155
10658POPC   GL264730  18.967  39.987   6.155
10658POPC   C1A64731  19.102  39.999   6.455
10658POPC   D2A64732  19.044  40.009   6.755
10658POPC   C3A64733  19.107  40.038   7.055
10658POPC   C4A64734  19.061  40.032   7.355
10658POPC   C1B64735  18.857  39.928   6.455
10658POPC   C2B64736  18.857  39.932   6.755
10658POPC   C3B64737  18.864  39.903   7.055
10658POPC   C4B64738  18.877  39.872   7.355
10659POPC   NC364739  11.271   3.537   5.555
10659POPC   PO464740  11.332   3.583   5.855
10659POPC   GL164741  11.281   3.560   6.155
10659POPC   GL264742  11.368   3.622   6.155
10659POPC   C1A64743  11.339   3.515   6.455
10659POPC   D2A64744  11.319   3.535   6.755
10659POPC   C3A64745  11.265   3.569   7.055
10659POPC   C4A64746  11.335   3.552   7.355
10659POPC   C1B64747  11.513   3.647   6.455
10659POPC   C2B64748  11.556   3.699   6.755
10659POPC   C3B64749  11.464   3.709   7.055
10659POPC   C4B64750  11.505   3.670   7.355
10660POPC   NC364751  26.039  39.983   5.555
10660POPC   PO464752  26.040  40.007   5.855
10660POPC   GL164753  26.026  39.970   6.155
10660POPC   GL264754  25.925  39.859   6.155
10660POPC   C1A64755  26.036  40.009   6.455
10660POPC   D2A64756  26.056  40.012   6.755
10660POPC   C3A64757  26.014  40.016   7.055
10660POPC   C4A64758  26.047  39.968   7.355
10660POPC   C1B64759  25.896  39.769   6.455
10660POPC   C2B64760  25.859  39.766   6.755
10660POPC   C3B64761  25.924  39.774   7.055
10660POPC   C4B64762  25.875  39.843   7.355
10661POPC   NC364763  11.260  22.901   5.555
10661POPC   PO464764  11.280  22.975   5.855
10661POPC   GL164765  11.338  22.957   6.155
10661POPC   GL264766  11.396  22.909   6.155
10661POPC   C1A64767  11.280  22.975   6.455
10661POPC   D2A64768  11.277  22.981   6.755
10661POPC   C3A64769  11.263  22.943   7.055
10661POPC   C4A64770  11.346  22.892   7.355
10661POPC   C1B64771  11.504  22.966   6.455
10661POPC   C2B64772  11.564  22.954   6.755
10661POPC   C3B64773  11.527  22.935   7.055
10661POPC   C4B64774  11.562  22.952   7.355
10662POPC   NC364775  42.348  13.593   5.555
10662POPC   PO464776  42.308  13.614   5.855
10662POPC   GL164777  42.365  13.625   6.155
10662POPC   GL264778  42.280  13.539   6.155
10662POPC   C1A64779  42.319  13.631   6.455
10662POPC   D2A64780  42.369  13.615   6.755
10662POPC   C3A64781  42.330  13.611   7.055
10662POPC   C4A64782  42.366  13.602   7.355
10662POPC   C1B64783  42.129  13.446   6.455
10662POPC   C2B64784  42.140  13.479   6.755
10662POPC   C3B64785  42.104  13.449   7.055
10662POPC   C4B64786  42.180  13.480   7.355
10663POPC   NC364787  30.678  38.469   5.555
10663POPC   PO464788  30.740  38.478   5.855
10663POPC   GL164789  30.739  38.409   6.155
10663POPC   GL264790  30.630  38.352   6.155
10663POPC   C1A64791  30.739  38.494   6.455
10663POPC   D2A64792  30.682  38.480   6.755
10663POPC   C3A64793  30.706  38.449   7.055
10663POPC   C4A64794  30.663  38.485   7.355
10663POPC   C1B64795  30.592  38.233   6.455
10663POPC   C2B64796  30.615  38.278   6.755
10663POPC   C3B64797  30.536  38.287   7.055
10663POPC   C4B64798  30.547  38.198   7.355
10664POPC   NC364799  43.151   2.024   5.555
10664POPC   PO464800  43.097   1.975   5.855
10664POPC   GL164801  43.065   1.992   6.155
10664POPC   GL264802  42.988   1.915   6.155
10664POPC   C1A64803  43.127   1.948   6.455
10664POPC   D2A64804  43.061   1.941   6.755
10664POPC   C3A64805  43.146   1.944   7.055
10664POPC   C4A64806  43.158   1.990   7.355
10664POPC   C1B64807  42.980   1.793   6.455
10664POPC   C2B64808  42.994   1.779   6.755
10664POPC   C3B64809  42.975   1.741   7.055
10664POPC   C4B64810  42.975   1.799   7.355
10665POPC   NC364811  28.390  34.603   5.555
10665POPC   PO464812  28.380  34.582   5.855
10665POPC   GL164813  28.384  34.625   6.155
10665POPC   GL264814  28.456  34.506   6.155
10665POPC   C1A64815  28.330  34.588   6.455
10665POPC   D2A64816  28.417  34.528   6.755
10665POPC   C3A64817  28.357  34.608   7.055
10665POPC   C4A64818  28.325  34.559   7.355
10665POPC   C1B64819  28.575  34.359   6.455
10665POPC   C2B64820  28.589  34.366   6.755
10665POPC   C3B64821  28.593  34.384   7.055
10665POPC   C4B64822  28.547  34.358   7.355
10666POPC   NC364823  22.125  39.276   5.555
10666POPC   PO464824  22.152  39.242   5.855
10666POPC   GL164825  22.151  39.220   6.155
10666POPC   GL264826  22.017  39.193   6.155
10666POPC   C1A64827  22.140  39.217   6.455
10666POPC   D2A64828  22.210  39.257   6.755
10666POPC   C3A64829  22.121  39.267   7.055
10666POPC   C4A64830  22.193  39.246   7.355
10666POPC   C1B64831  21.920  39.152   6.455
10666POPC   C2B64832  21.881  39.191   6.755
10666POPC   C3B64833  21.882  39.134   7.055
10666POPC   C4B64834  21.891  39.175   7.355
10667POPC   NC364835   2.736   7.467   5.555
10667POPC   PO464836   2.718   7.457   5.855
10667POPC   GL164837   2.801   7.393   6.155
10667POPC   GL264838   2.682   7.535   6.155
10667POPC   C1A64839   2.735   7.374   6.455
10667POPC   D2A64840   2.788   7.413   6.755
10667POPC   C3A64841   2.800   7.429   7.055
10667POPC   C4A64842   2.797   7.379   7.355
10667POPC   C1B64843   2.664   7.595   6.455
10667POPC   C2B64844   2.655   7.692   6.755
10667POPC   C3B64845   2.625   7.648   7.055
10667POPC   C4B64846   2.637   7.637   7.355
10668POPC   NC364847   9.751  15.977   5.555
10668POPC   PO464848   9.796  16.003   5.855
10668POPC   GL164849   9.776  15.979   6.155
10668POPC   GL264850   9.834  16.093   6.155
10668POPC   C1A64851   9.778  15.926   6.455
10668POPC   D2A64852   9.745  15.928   6.755
10668POPC   C3A64853   9.762  16.000   7.055
10668POPC   C4A64854   9.778  15.942   7.355
10668POPC   C1B64855   9.891  16.164   6.455
10668POPC   C2B64856   9.873  16.109   6.755
10668POPC   C3B64857   9.934  16.110   7.055
10668POPC   C4B64858   9.871  16.181   7.355
10669POPC   NC364859  18.280  23.754   5.555
10669POPC   PO464860  18.321  23.710   5.855
10669POPC   GL164861  18.255  23.710   6.155
10669POPC   GL264862  18.358  23.680   6.155
10669POPC   C1A64863  18.242  23.675   6.455
10669POPC   D2A64864  18.274  23.720   6.755
10669POPC   C3A64865  18.270  23.698   7.055
10669POPC   C4A64866  18.264  23.753   7.355
10669POPC   C1B64867  18.492  23.616   6.455
10669POPC   C2B64868  18.566  23.633   6.755
10669POPC   C3B64869  18.505  23.685   7.055
10669POPC   C4B64870  18.490  23.658   7.355
10670POPC   NC364871  37.697  26.009   5.555
10670POPC   PO464872  37.648  26.067   5.855
10670POPC   GL164873  37.701  26.000   6.155
10670POPC   GL264874  37.789  26.085   6.155
10670POPC   C1A64875  37.724  26.019   6.455
10670POPC   D2A64876  37.665  26.068   6.755
10670POPC   C3A64877  37.725  26.013   7.055
10670POPC   C4A64878  37.723  26.087   7.355
10670POPC   C1B64879  37.946  26.199   6.455
10670POPC   C2B64880  37.949  26.152   6.755
10670POPC   C3B64881  37.916  26.130   7.055
10670POPC   C4B64882  37.919  26.179   7.355
10671POPC   NC364883  10.573  21.419   5.555
10671POPC   PO464884  10.525  21.418   5.855
10671POPC   GL164885  10.527  21.351   6.155
10671POPC   GL264886  10.627  21.508   6.155
10671POPC   C1A64887  10.476  21.367   6.455
10671POPC   D2A64888  10.549  21.385   6.755
10671POPC   C3A64889  10.485  21.346   7.055
10671POPC   C4A64890  10.475  21.409   7.355
10671POPC   C1B64891  10.666  21.601   6.455
10671POPC   C2B64892  10.724  21.579   6.755
10671POPC   C3B64893  10.681  21.538   7.055
10671POPC   C4B64894  10.754  21.570   7.355
10672POPC   NC364895   8.231  43.868   5.555
10672POPC   PO464896   8.241  43.935   5.855
10672POPC   GL164897   8.188  43.843   6.155
10672POPC   GL264898   8.119  43.823   6.155
10672POPC   C1A64899   8.190  43.925   6.455
10672POPC   D2A64900   8.178  43.894   6.755
10672POPC   C3A64901   8.197  43.874   7.055
10672POPC   C4A64902   8.186  43.916   7.355
10672POPC   C1B64903   7.978  43.843   6.455
10672POPC   C2B64904   7.988  43.881   6.755
10672POPC   C3B64905   7.974  43.836   7.055
10672POPC   C4B64906   7.936  43.894   7.355
10673POPC   NC364907   7.456  43.143   5.555
10673POPC   PO464908   7.388  43.068   5.855
10673POPC   GL164909   7.416  43.134   6.155
10673POPC   GL264910   7.294  43.149   6.155
10673POPC   C1A64911   7.401  43.132   6.455
10673POPC   D2A64912   7.398  43.082   6.755
10673POPC   C3A64913   7.431  43.065   7.055
10673POPC   C4A64914   7.420  43.079   7.355
10673POPC   C1B64915   7.187  43.164   6.455
10673POPC   C2B64916   7.201  43.227   6.755
10673POPC   C3B64917   7.190  43.225   7.055
10673POPC   C4B64918   7.160  43.206   7.355
10674POPC   NC364919  26.864   8.932   5.555
10674POPC   PO464920  26.777   8.951   5.855
10674POPC   GL164921  26.830   8.983   6.155
10674POPC   GL264922  26.751   9.127   6.155
10674POPC   C1A64923  26.794   8.932   6.455
10674POPC   D2A64924  26.783   8.996   6.755
10674POPC   C3A64925  26.833   8.953   7.055
10674POPC   C4A64926  26.822   9.011   7.355
10674POPC   C1B64927  26.738   9.238   6.455
10674POPC   C2B64928  26.730   9.198   6.755
10674POPC   C3B64929  26.691   9.205   7.055
10674POPC   C4B64930  26.717   9.171   7.355
10675POPC   NC364931  35.377  23.746   5.555
10675POPC   PO464932  35.346  23.725   5.855
10675POPC   GL164933  35.332  23.745   6.155
10675POPC   GL264934  35.277  23.624   6.155
10675POPC   C1A64935  35.338  23.750   6.455
10675POPC   D2A64936  35.346  23.696   6.755
10675POPC   C3A64937  35.368  23.673   7.055
10675POPC   C4A64938  35.315  23.743   7.355
10675POPC   C1B64939  35.292  23.504   6.455
10675POPC   C2B64940  35.286  23.478   6.755
10675POPC   C3B64941  35.243  23.494   7.055
10675POPC   C4B64942  35.226  23.516   7.355
10676POPC   NC364943  10.515  32.248   5.555
10676POPC   PO464944  10.496  32.249   5.855
10676POPC   GL164945  10.506  32.202   6.155
10676POPC   GL264946  10.587  32.404   6.155
10676POPC   C1A64947  10.537  32.264   6.455
10676POPC   D2A64948  10.522  32.264   6.755
10676POPC   C3A64949  10.519  32.229   7.055
10676POPC   C4A64950  10.523  32.297   7.355
10676POPC   C1B64951  10.662  32.461   6.455
10676POPC   C2B64952  10.613  32.456   6.755
10676POPC   C3B64953  10.701  32.494   7.055
10676POPC   C4B64954  10.643  32.501   7.355
10677POPC   NC364955  29.923  25.276   5.555
10677POPC   PO464956  29.966  25.249   5.855
10677POPC   GL164957  29.939  25.266   6.155
10677POPC   GL264958  29.826  25.208   6.155
10677POPC   C1A64959  29.941  25.227   6.455
10677POPC   D2A64960  29.874  25.259   6.755
10677POPC   C3A64961  29.968  25.274   7.055
10677POPC   C4A64962  29.967  25.239   7.355
10677POPC   C1B64963  29.761  25.099   6.455
10677POPC   C2B64964  29.708  25.106   6.755
10677POPC   C3B64965  29.779  25.129   7.055
10677POPC   C4B64966  29.777  25.095   7.355
10678POPC   NC364967  39.226   8.186   5.555
10678POPC   PO464968  39.280   8.230   5.855
10678POPC   GL164969  39.218   8.225   6.155
10678POPC   GL264970  39.225   8.066   6.155
10678POPC   C1A64971  39.240   8.220   6.455
10678POPC   D2A64972  39.222   8.213   6.755
10678POPC   C3A64973  39.247   8.215   7.055
10678POPC   C4A64974  39.182   8.231   7.355
10678POPC   C1B64975  39.137   7.952   6.455
10678POPC   C2B64976  39.090   8.006   6.755
10678POPC   C3B64977  39.161   8.012   7.055
10678POPC   C4B64978  39.095   7.999   7.355
10679POPC   NC364979   3.517  15.997   5.555
10679POPC   PO464980   3.585  15.990   5.855
10679POPC   GL164981   3.536  15.984   6.155
10679POPC   GL264982   3.646  15.855   6.155
10679POPC   C1A64983   3.585  15.948   6.455
10679POPC   D2A64984   3.530  15.937   6.755
10679POPC   C3A64985   3.531  15.954   7.055
10679POPC   C4A64986   3.572  15.976   7.355
10679POPC   C1B64987   3.686  15.759   6.455
10679POPC   C2B64988   3.679  15.760   6.755
10679POPC   C3B64989   3.742  15.757   7.055
10679POPC   C4B64990   3.750  15.770   7.355
10680POPC   NC364991  29.966  13.627   5.555
10680POPC   PO464992  29.880  13.609   5.855
10680POPC   GL164993  29.950  13.633   6.155
10680POPC   GL264994  29.957  13.730   6.155
10680POPC   C1A64995  29.932  13.668   6.455
10680POPC   D2A64996  29.938  13.600   6.755
10680POPC   C3A64997  29.937  13.598   7.055
10680POPC   C4A64998  29.949  13.601   7.355
10680POPC   C1B64999  30.091  13.861   6.455
10680POPC   C2B65000  30.078  13.839   6.755
10680POPC   C3B65001  30.081  13.840   7.055
10680POPC   C4B65002  30.025  13.833   7.355
10681POPC   NC365003  23.740  19.829   5.555
10681POPC   PO465004  23.686  19.851   5.855
10681POPC   GL165005  23.743  19.870   6.155
10681POPC   GL265006  23.689  19.679   6.155
10681POPC   C1A65007  23.731  19.854   6.455
10681POPC   D2A65008  23.757  19.873   6.755
10681POPC   C3A65009  23.667  19.880   7.055
10681POPC   C4A65010  23.689  19.815   7.355
10681POPC   C1B65011  23.602  19.609   6.455
10681POPC   C2B65012  23.589  19.620   6.755
10681POPC   C3B65013  23.610  19.581   7.055
10681POPC   C4B65014  23.644  19.605   7.355
10682POPC   NC365015  12.841   3.549   5.555
10682POPC   PO465016  12.885   3.528   5.855
10682POPC   GL165017  12.887   3.587   6.155
10682POPC   GL265018  12.781   3.703   6.155
10682POPC   C1A65019  12.870   3.581   6.455
10682POPC   D2A65020  12.827   3.546   6.755
10682POPC   C3A65021  12.846   3.591   7.055
10682POPC   C4A65022  12.823   3.575   7.355
10682POPC   C1B65023  12.785   3.747   6.455
10682POPC   C2B65024  12.772   3.774   6.755
10682POPC   C3B65025  12.757   3.744   7.055
10682POPC   C4B65026  12.730   3.734   7.355
10683POPC   NC365027  15.981  17.520   5.555
10683POPC   PO465028  15.927  17.477   5.855
10683POPC   GL165029  15.991  17.502   6.155
10683POPC   GL265030  16.103  17.562   6.155
10683POPC   C1A65031  15.947  17.466   6.455
10683POPC   D2A65032  15.960  17.499   6.755
10683POPC   C3A65033  15.906  17.514   7.055
10683POPC   C4A65034  15.965  17.542   7.355
10683POPC   C1B65035  16.169  17.649   6.455
10683POPC   C2B65036  16.196  17.646   6.755
10683POPC   C3B65037  16.160  17.670   7.055
10683POPC   C4B65038  16.125  17.626   7.355
10684POPC   NC365039   7.417   0.415   5.555
10684POPC   PO465040   7.447   0.477   5.855
10684POPC   GL165041   7.441   0.401   6.155
10684POPC   GL265042   7.438   0.287   6.155
10684POPC   C1A65043   7.444   0.416   6.455
10684POPC   D2A65044   7.377   0.412   6.755
10684POPC   C3A65045   7.435   0.476   7.055
10684POPC   C4A65046   7.395   0.426   7.355
10684POPC   C1B65047   7.568   0.216   6.455
10684POPC   C2B65048   7.560   0.198   6.755
10684POPC   C3B65049   7.586   0.198   7.055
10684POPC   C4B65050   7.555   0.215   7.355
10685POPC   NC365051  23.760  42.384   5.555
10685POPC   PO465052  23.743  42.356   5.855
10685POPC   GL165053  23.734  42.358   6.155
10685POPC   GL265054  23.828  42.202   6.155
10685POPC   C1A65055  23.666  42.373   6.455
10685POPC   D2A65056  23.675  42.376   6.755
10685POPC   C3A65057  23.703  42.364   7.055
10685POPC   C4A65058  23.683  42.371   7.355
10685POPC   C1B65059  23.833  42.130   6.455
10685POPC   C2B65060  23.902  42.167   6.755
10685POPC   C3B65061  23.877  42.128   7.055
10685POPC   C4B65062  23.862  42.111   7.355
10686POPC   NC365063  29.158  35.317   5.555
10686POPC   PO465064  29.136  35.304   5.855
10686POPC   GL165065  29.109  35.327   6.155
10686POPC   GL265066  29.099  35.302   6.155
10686POPC   C1A65067  29.184  35.381   6.455
10686POPC   D2A65068  29.102  35.310   6.755
10686POPC   C3A65069  29.183  35.327   7.055
10686POPC   C4A65070  29.164  35.397   7.355
10686POPC   C1B65071  28.948  35.227   6.455
10686POPC   C2B65072  28.972  35.224   6.755
10686POPC   C3B65073  28.991  35.239   7.055
10686POPC   C4B65074  28.971  35.150   7.355
10687POPC   NC365075  32.243   2.033   5.555
10687POPC   PO465076  32.201   2.018   5.855
10687POPC   GL165077  32.287   2.009   6.155
10687POPC   GL265078  32.211   1.908   6.155
10687POPC   C1A65079  32.273   1.959   6.455
10687POPC   D2A65080  32.260   1.942   6.755
10687POPC   C3A65081  32.199   2.010   7.055
10687POPC   C4A65082  32.297   1.948   7.355
10687POPC   C1B65083  32.206   1.759   6.455
10687POPC   C2B65084  32.264   1.707   6.755
10687POPC   C3B65085  32.270   1.703   7.055
10687POPC   C4B65086  32.218   1.744   7.355
10688POPC   NC365087   9.784   6.663   5.555
10688POPC   PO465088   9.713   6.635   5.855
10688POPC   GL165089   9.766   6.615   6.155
10688POPC   GL265090   9.857   6.719   6.155
10688POPC   C1A65091   9.785   6.624   6.455
10688POPC   D2A65092   9.700   6.638   6.755
10688POPC   C3A65093   9.776   6.635   7.055
10688POPC   C4A65094   9.724   6.644   7.355
10688POPC   C1B65095   9.884   6.855   6.455
10688POPC   C2B65096   9.847   6.879   6.755
10688POPC   C3B65097   9.875   6.855   7.055
10688POPC   C4B65098   9.919   6.877   7.355
10689POPC   NC365099  44.634  26.798   5.555
10689POPC   PO465100  44.677  26.857   5.855
10689POPC   GL165101  44.666  26.838   6.155
10689POPC   GL265102  44.702  26.951   6.155
10689POPC   C1A65103  44.681  26.818   6.455
10689POPC   D2A65104  44.641  26.854   6.755
10689POPC   C3A65105  44.692  26.772   7.055
10689POPC   C4A65106  44.711  26.825   7.355
10689POPC   C1B65107  44.708  27.047   6.455
10689POPC   C2B65108  44.720  27.043   6.755
10689POPC   C3B65109  44.659  27.083   7.055
10689POPC   C4B65110  44.689  27.019   7.355
10690POPC   NC365111  39.975  13.613   5.555
10690POPC   PO465112  40.041  13.615   5.855
10690POPC   GL165113  40.036  13.590   6.155
10690POPC   GL265114  40.095  13.696   6.155
10690POPC   C1A65115  40.023  13.634   6.455
10690POPC   D2A65116  39.961  13.645   6.755
10690POPC   C3A65117  40.021  13.655   7.055
10690POPC   C4A65118  40.040  13.675   7.355
10690POPC   C1B65119  40.247  13.696   6.455
10690POPC   C2B65120  40.268  13.737   6.755
10690POPC   C3B65121  40.239  13.736   7.055
10690POPC   C4B65122  40.267  13.725   7.355
10691POPC   NC365123  14.361  31.463   5.555
10691POPC   PO465124  14.365  31.502   5.855
10691POPC   GL165125  14.358  31.481   6.155
10691POPC   GL265126  14.304  31.491   6.155
10691POPC   C1A65127  14.369  31.521   6.455
10691POPC   D2A65128  14.407  31.438   6.755
10691POPC   C3A65129  14.436  31.439   7.055
10691POPC   C4A65130  14.394  31.519   7.355
10691POPC   C1B65131  14.173  31.494   6.455
10691POPC   C2B65132  14.117  31.413   6.755
10691POPC   C3B65133  14.133  31.432   7.055
10691POPC   C4B65134  14.186  31.430   7.355
10692POPC   NC365135  11.278   8.930   5.555
10692POPC   PO465136  11.253   8.949   5.855
10692POPC   GL165137  11.346   8.977   6.155
10692POPC   GL265138  11.411   8.840   6.155
10692POPC   C1A65139  11.298   8.993   6.455
10692POPC   D2A65140  11.312   9.011   6.755
10692POPC   C3A65141  11.337   8.997   7.055
10692POPC   C4A65142  11.343   8.943   7.355
10692POPC   C1B65143  11.435   8.763   6.455
10692POPC   C2B65144  11.477   8.789   6.755
10692POPC   C3B65145  11.478   8.716   7.055
10692POPC   C4B65146  11.439   8.804   7.355
10693POPC   NC365147  29.192  26.085   5.555
10693POPC   PO465148  29.102  26.023   5.855
10693POPC   GL165149  29.192  26.061   6.155
10693POPC   GL265150  29.193  26.157   6.155
10693POPC   C1A65151  29.151  26.069   6.455
10693POPC   D2A65152  29.189  26.048   6.755
10693POPC   C3A65153  29.172  26.005   7.055
10693POPC   C4A65154  29.193  26.045   7.355
10693POPC   C1B65155  29.212  26.328   6.455
10693POPC   C2B65156  29.270  26.293   6.755
10693POPC   C3B65157  29.241  26.307   7.055
10693POPC   C4B65158  29.268  26.269   7.355
10694POPC   NC365159  33.032  35.336   5.555
10694POPC   PO465160  32.983  35.396   5.855
10694POPC   GL165161  32.991  35.326   6.155
10694POPC   GL265162  32.967  35.437   6.155
10694POPC   C1A65163  33.073  35.316   6.455
10694POPC   D2A65164  33.031  35.321   6.755
10694POPC   C3A65165  33.052  35.374   7.055
10694POPC   C4A65166  32.991  35.315   7.355
10694POPC   C1B65167  32.976  35.646   6.455
10694POPC   C2B65168  33.011  35.638   6.755
10694POPC   C3B65169  33.018  35.645   7.055
10694POPC   C4B65170  32.971  35.562   7.355
10695POPC   NC365171  26.860  37.708   5.555
10695POPC   PO465172  26.816  37.700   5.855
10695POPC   GL165173  26.823  37.657   6.155
10695POPC   GL265174  26.832  37.803   6.155
10695POPC   C1A65175  26.847  37.685   6.455
10695POPC   D2A65176  26.834  37.681   6.755
10695POPC   C3A65177  26.799  37.670   7.055
10695POPC   C4A65178  26.817  37.704   7.355
10695POPC   C1B65179  26.893  37.869   6.455
10695POPC   C2B65180  26.943  37.895   6.755
10695POPC   C3B65181  26.930  37.862   7.055
10695POPC   C4B65182  26.890  37.918   7.355
10696POPC   NC365183  30.736  40.010   5.555
10696POPC   PO465184  30.704  39.965   5.855
10696POPC   GL165185  30.744  39.996   6.155
10696POPC   GL265186  30.656  39.857   6.155
10696POPC   C1A65187  30.665  39.972   6.455
10696POPC   D2A65188  30.720  39.992   6.755
10696POPC   C3A65189  30.703  40.056   7.055
10696POPC   C4A65190  30.674  39.967   7.355
10696POPC   C1B65191  30.717  39.756   6.455
10696POPC   C2B65192  30.681  39.749   6.755
10696POPC   C3B65193  30.679  39.790   7.055
10696POPC   C4B65194  30.737  39.739   7.355
10697POPC   NC365195   2.814   5.889   5.555
10697POPC   PO465196   2.719   5.851   5.855
10697POPC   GL165197   2.724   5.833   6.155
10697POPC   GL265198   2.706   5.778   6.155
10697POPC   C1A65199   2.769   5.841   6.455
10697POPC   D2A65200   2.786   5.884   6.755
10697POPC   C3A65201   2.716   5.860   7.055
10697POPC   C4A65202   2.751   5.860   7.355
10697POPC   C1B65203   2.605   5.660   6.455
10697POPC   C2B65204   2.566   5.745   6.755
10697POPC   C3B65205   2.536   5.698   7.055
10697POPC   C4B65206   2.599   5.733   7.355
10698POPC   NC365207  39.981   7.407   5.555
10698POPC   PO465208  39.966   7.374   5.855
10698POPC   GL165209  40.035   7.467   6.155
10698POPC   GL265210  39.940   7.509   6.155
10698POPC   C1A65211  39.992   7.401   6.455
10698POPC   D2A65212  39.971   7.470   6.755
10698POPC   C3A65213  40.020   7.445   7.055
10698POPC   C4A65214  40.029   7.447   7.355
10698POPC   C1B65215  39.983   7.617   6.455
10698POPC   C2B65216  39.961   7.702   6.755
10698POPC   C3B65217  39.975   7.634   7.055
10698POPC   C4B65218  40.006   7.666   7.355
10699POPC   NC365219  31.479  25.250   5.555
10699POPC   PO465220  31.451  25.305   5.855
10699POPC   GL165221  31.432  25.302   6.155
10699POPC   GL265222  31.564  25.270   6.155
10699POPC   C1A65223  31.467  25.263   6.455
10699POPC   D2A65224  31.439  25.244   6.755
10699POPC   C3A65225  31.515  25.262   7.055
10699POPC   C4A65226  31.480  25.271   7.355
10699POPC   C1B65227  31.700  25.157   6.455
10699POPC   C2B65228  31.745  25.209   6.755
10699POPC   C3B65229  31.749  25.200   7.055
10699POPC   C4B65230  31.692  25.208   7.355
10700POPC   NC365231  29.107  14.377   5.555
10700POPC   PO465232  29.118  14.386   5.855
10700POPC   GL165233  29.099  14.388   6.155
10700POPC   GL265234  29.186  14.240   6.155
10700POPC   C1A65235  29.110  14.414   6.455
10700POPC   D2A65236  29.155  14.387   6.755
10700POPC   C3A65237  29.153  14.376   7.055
10700POPC   C4A65238  29.107  14.417   7.355
10700POPC   C1B65239  29.109  14.171   6.455
10700POPC   C2B65240  29.187  14.116   6.755
10700POPC   C3B65241  29.144  14.166   7.055
10700POPC   C4B65242  29.169  14.166   7.355
10701POPC   NC365243  37.677  39.234   5.555
10701POPC   PO465244  37.676  39.212   5.855
10701POPC   GL165245  37.716  39.194   6.155
10701POPC   GL265246  37.545  39.330   6.155
10701POPC   C1A65247  37.691  39.194   6.455
10701POPC   D2A65248  37.638  39.244   6.755
10701POPC   C3A65249  37.659  39.239   7.055
10701POPC   C4A65250  37.707  39.221   7.355
10701POPC   C1B65251  37.482  39.449   6.455
10701POPC   C2B65252  37.540  39.423   6.755
10701POPC   C3B65253  37.505  39.383   7.055
10701POPC   C4B65254  37.541  39.383   7.355
10702POPC   NC365255  10.562   3.507   5.555
10702POPC   PO465256  10.513   3.530   5.855
10702POPC   GL165257  10.479   3.536   6.155
10702POPC   GL265258  10.506   3.414   6.155
10702POPC   C1A65259  10.506   3.573   6.455
10702POPC   D2A65260  10.481   3.566   6.755
10702POPC   C3A65261  10.536   3.536   7.055
10702POPC   C4A65262  10.503   3.558   7.355
10702POPC   C1B65263  10.515   3.293   6.455
10702POPC   C2B65264  10.497   3.326   6.755
10702POPC   C3B65265  10.506   3.323   7.055
10702POPC   C4B65266  10.483   3.284   7.355
10703POPC   NC365267  26.784  38.415   5.555
10703POPC   PO465268  26.815  38.446   5.855
10703POPC   GL165269  26.851  38.451   6.155
10703POPC   GL265270  26.834  38.614   6.155
10703POPC   C1A65271  26.832  38.483   6.455
10703POPC   D2A65272  26.783  38.426   6.755
10703POPC   C3A65273  26.826  38.489   7.055
10703POPC   C4A65274  26.814  38.438   7.355
10703POPC   C1B65275  26.910  38.692   6.455
10703POPC   C2B65276  26.893  38.633   6.755
10703POPC   C3B65277  26.959  38.702   7.055
10703POPC   C4B65278  26.916  38.625   7.355
10704POPC   NC365279  14.433  13.630   5.555
10704POPC   PO465280  14.408  13.630   5.855
10704POPC   GL165281  14.396  13.672   6.155
10704POPC   GL265282  14.313  13.712   6.155
10704POPC   C1A65283  14.386  13.602   6.455
10704POPC   D2A65284  14.393  13.628   6.755
10704POPC   C3A65285  14.420  13.602   7.055
10704POPC   C4A65286  14.388  13.660   7.355
10704POPC   C1B65287  14.294  13.861   6.455
10704POPC   C2B65288  14.313  13.835   6.755
10704POPC   C3B65289  14.297  13.863   7.055
10704POPC   C4B65290  14.286  13.888   7.355
10705POPC   NC365291   6.685  33.062   5.555
10705POPC   PO465292   6.599  33.021   5.855
10705POPC   GL165293   6.645  33.019   6.155
10705POPC   GL265294   6.502  33.065   6.155
10705POPC   C1A65295   6.659  33.051   6.455
10705POPC   D2A65296   6.668  32.990   6.755
10705POPC   C3A65297   6.639  32.980   7.055
10705POPC   C4A65298   6.600  33.013   7.355
10705POPC   C1B65299   6.397  33.081   6.455
10705POPC   C2B65300   6.410  33.115   6.755
10705POPC   C3B65301   6.396  33.133   7.055
10705POPC   C4B65302   6.368  33.107   7.355
10706POPC   NC365303  21.345  24.447   5.555
10706POPC   PO465304  21.420  24.477   5.855
10706POPC   GL165305  21.427  24.505   6.155
10706POPC   GL265306  21.456  24.592   6.155
10706POPC   C1A65307  21.398  24.497   6.455
10706POPC   D2A65308  21.403  24.508   6.755
10706POPC   C3A65309  21.387  24.500   7.055
10706POPC   C4A65310  21.350  24.489   7.355
10706POPC   C1B65311  21.549  24.697   6.455
10706POPC   C2B65312  21.486  24.662   6.755
10706POPC   C3B65313  21.490  24.651   7.055
10706POPC   C4B65314  21.528  24.730   7.355
10707POPC   NC365315  18.328  22.934   5.555
10707POPC   PO465316  18.258  22.900   5.855
10707POPC   GL165317  18.267  22.895   6.155
10707POPC   GL265318  18.118  22.895   6.155
10707POPC   C1A65319  18.252  22.930   6.455
10707POPC   D2A65320  18.246  22.934   6.755
10707POPC   C3A65321  18.243  22.928   7.055
10707POPC   C4A65322  18.272  22.917   7.355
10707POPC   C1B65323  18.019  22.824   6.455
10707POPC   C2B65324  18.073  22.903   6.755
10707POPC   C3B65325  18.050  22.807   7.055
10707POPC   C4B65326  18.073  22.848   7.355
10708POPC   NC365327  35.335   9.761   5.555
10708POPC   PO465328  35.390   9.777   5.855
10708POPC   GL165329  35.305   9.774   6.155
10708POPC   GL265330  35.250   9.796   6.155
10708POPC   C1A65331  35.351   9.783   6.455
10708POPC   D2A65332  35.309   9.715   6.755
10708POPC   C3A65333  35.385   9.790   7.055
10708POPC   C4A65334  35.333   9.716   7.355
10708POPC   C1B65335  35.102   9.820   6.455
10708POPC   C2B65336  35.143   9.786   6.755
10708POPC   C3B65337  35.058   9.765   7.055
10708POPC   C4B65338  35.096   9.818   7.355
10709POPC   NC365339  11.301  29.101   5.555
10709POPC   PO465340  11.330  29.118   5.855
10709POPC   GL165341  11.264  29.103   6.155
10709POPC   GL265342  11.364  29.293   6.155
10709POPC   C1A65343  11.263  29.145   6.455
10709POPC   D2A65344  11.269  29.119   6.755
10709POPC   C3A65345  11.337  29.195   7.055
10709POPC   C4A65346  11.299  29.100   7.355
10709POPC   C1B65347  11.428  29.358   6.455
10709POPC   C2B65348  11.404  29.381   6.755
10709POPC   C3B65349  11.435  29.372   7.055
10709POPC   C4B65350  11.442  29.394   7.355
10710POPC   NC365351  26.853   5.112   5.555
10710POPC   PO465352  26.810   5.080   5.855
10710POPC   GL165353  26.808   5.116   6.155
10710POPC   GL265354  26.677   5.022   6.155
10710POPC   C1A65355  26.839   5.047   6.455
10710POPC   D2A65356  26.817   5.113   6.755
10710POPC   C3A65357  26.823   5.061   7.055
10710POPC   C4A65358  26.781   5.115   7.355
10710POPC   C1B65359  26.546   5.024   6.455
10710POPC   C2B65360  26.620   5.018   6.755
10710POPC   C3B65361  26.529   5.038   7.055
10710POPC   C4B65362  26.609   5.010   7.355
10711POPC   NC365363  36.922   5.086   5.555
10711POPC   PO465364  36.950   5.103   5.855
10711POPC   GL165365  36.914   5.114   6.155
10711POPC   GL265366  37.006   4.994   6.155
10711POPC   C1A65367  36.859   5.107   6.455
10711POPC   D2A65368  36.911   5.126   6.755
10711POPC   C3A65369  36.876   5.125   7.055
10711POPC   C4A65370  36.921   5.049   7.355
10711POPC   C1B65371  37.077   4.873   6.455
10711POPC   C2B65372  37.016   4.846   6.755
10711POPC   C3B65373  37.066   4.848   7.055
10711POPC   C4B65374  37.054   4.904   7.355
10712POPC   NC365375  32.236  22.142   5.555
10712POPC   PO465376  32.255  22.148   5.855
10712POPC   GL165377  32.200  22.144   6.155
10712POPC   GL265378  32.412  22.179   6.155
10712POPC   C1A65379  32.268  22.182   6.455
10712POPC   D2A65380  32.284  22.184   6.755
10712POPC   C3A65381  32.219  22.147   7.055
10712POPC   C4A65382  32.267  22.120   7.355
10712POPC   C1B65383  32.502  22.235   6.455
10712POPC   C2B65384  32.493  22.233   6.755
10712POPC   C3B65385  32.510  22.283   7.055
10712POPC   C4B65386  32.523  22.230   7.355
10713POPC   NC365387  26.004   1.952   5.555
10713POPC   PO465388  26.017   2.009   5.855
10713POPC   GL165389  26.059   2.025   6.155
10713POPC   GL265390  26.015   1.870   6.155
10713POPC   C1A65391  26.059   2.035   6.455
10713POPC   D2A65392  26.060   1.958   6.755
10713POPC   C3A65393  26.045   2.005   7.055
10713POPC   C4A65394  26.019   2.017   7.355
10713POPC   C1B65395  25.946   1.804   6.455
10713POPC   C2B65396  26.001   1.797   6.755
10713POPC   C3B65397  25.944   1.788   7.055
10713POPC   C4B65398  25.979   1.710   7.355
10714POPC   NC365399  24.443  26.060   5.555
10714POPC   PO465400  24.453  26.004   5.855
10714POPC   GL165401  24.450  26.034   6.155
10714POPC   GL265402  24.324  26.069   6.155
10714POPC   C1A65403  24.471  26.073   6.455
10714POPC   D2A65404  24.530  25.995   6.755
10714POPC   C3A65405  24.478  26.008   7.055
10714POPC   C4A65406  24.466  26.052   7.355
10714POPC   C1B65407  24.232  26.022   6.455
10714POPC   C2B65408  24.259  26.007   6.755
10714POPC   C3B65409  24.276  26.074   7.055
10714POPC   C4B65410  24.232  26.021   7.355
10715POPC   NC365411  29.892   0.466   5.555
10715POPC   PO465412  29.906   0.419   5.855
10715POPC   GL165413  29.896   0.388   6.155
10715POPC   GL265414  29.894   0.610   6.155
10715POPC   C1A65415  29.940   0.423   6.455
10715POPC   D2A65416  29.955   0.435   6.755
10715POPC   C3A65417  29.964   0.433   7.055
10715POPC   C4A65418  29.895   0.483   7.355
10715POPC   C1B65419  29.887   0.699   6.455
10715POPC   C2B65420  29.892   0.703   6.755
10715POPC   C3B65421  29.915   0.726   7.055
10715POPC   C4B65422  29.878   0.708   7.355
10716POPC   NC365423  21.339  32.213   5.555
10716POPC   PO465424  21.371  32.296   5.855
10716POPC   GL165425  21.416  32.202   6.155
10716POPC   GL265426  21.553  32.251   6.155
10716POPC   C1A65427  21.353  32.298   6.455
10716POPC   D2A65428  21.408  32.272   6.755
10716POPC   C3A65429  21.343  32.229   7.055
10716POPC   C4A65430  21.359  32.262   7.355
10716POPC   C1B65431  21.601  32.190   6.455
10716POPC   C2B65432  21.627  32.215   6.755
10716POPC   C3B65433  21.640  32.226   7.055
10716POPC   C4B65434  21.647  32.183   7.355
10717POPC   NC365435  39.250  25.249   5.555
10717POPC   PO465436  39.230  25.241   5.855
10717POPC   GL165437  39.200  25.248   6.155
10717POPC   GL265438  39.136  25.372   6.155
10717POPC   C1A65439  39.227  25.246   6.455
10717POPC   D2A65440  39.210  25.243   6.755
10717POPC   C3A65441  39.218  25.255   7.055
10717POPC   C4A65442  39.237  25.291   7.355
10717POPC   C1B65443  38.998  25.345   6.455
10717POPC   C2B65444  39.006  25.410   6.755
10717POPC   C3B65445  39.024  25.393   7.055
10717POPC   C4B65446  39.054  25.378   7.355
10718POPC   NC365447  34.593   1.253   5.555
10718POPC   PO465448  34.595   1.236   5.855
10718POPC   GL165449  34.562   1.185   6.155
10718POPC   GL265450  34.520   1.327   6.155
10718POPC   C1A65451  34.526   1.260   6.455
10718POPC   D2A65452  34.618   1.194   6.755
10718POPC   C3A65453  34.620   1.255   7.055
10718POPC   C4A65454  34.558   1.168   7.355
10718POPC   C1B65455  34.511   1.452   6.455
10718POPC   C2B65456  34.541   1.427   6.755
10718POPC   C3B65457  34.523   1.442   7.055
10718POPC   C4B65458  34.534   1.469   7.355
10719POPC   NC365459  26.025  25.266   5.555
10719POPC   PO465460  26.043  25.227   5.855
10719POPC   GL165461  26.013  25.255   6.155
10719POPC   GL265462  25.958  25.365   6.155
10719POPC   C1A65463  26.069  25.225   6.455
10719POPC   D2A65464  26.058  25.256   6.755
10719POPC   C3A65465  26.078  25.240   7.055
10719POPC   C4A65466  26.059  25.287   7.355
10719POPC   C1B65467  25.934  25.473   6.455
10719POPC   C2B65468  25.883  25.500   6.755
10719POPC   C3B65469  25.923  25.461   7.055
10719POPC   C4B65470  25.917  25.413   7.355
10720POPC   NC365471  12.823  18.288   5.555
10720POPC   PO465472  12.806  18.278   5.855
10720POPC   GL165473  12.881  18.256   6.155
10720POPC   GL265474  12.738  18.203   6.155
10720POPC   C1A65475  12.837  18.240   6.455
10720POPC   D2A65476  12.821  18.274   6.755
10720POPC   C3A65477  12.895  18.327   7.055
10720POPC   C4A65478  12.888  18.321   7.355
10720POPC   C1B65479  12.610  18.165   6.455
10720POPC   C2B65480  12.649  18.227   6.755
10720POPC   C3B65481  12.643  18.230   7.055
10720POPC   C4B65482  12.661  18.209   7.355
10721POPC   NC365483  23.741  20.659   5.555
10721POPC   PO465484  23.672  20.562   5.855
10721POPC   GL165485  23.698  20.608   6.155
10721POPC   GL265486  23.604  20.527   6.155
10721POPC   C1A65487  23.731  20.653   6.455
10721POPC   D2A65488  23.762  20.643   6.755
10721POPC   C3A65489  23.701  20.627   7.055
10721POPC   C4A65490  23.734  20.658   7.355
10721POPC   C1B65491  23.538  20.541   6.455
10721POPC   C2B65492  23.528  20.537   6.755
10721POPC   C3B65493  23.489  20.474   7.055
10721POPC   C4B65494  23.517  20.509   7.355
10722POPC   NC365495  28.404  20.614   5.555
10722POPC   PO465496  28.354  20.630   5.855
10722POPC   GL165497  28.365  20.591   6.155
10722POPC   GL265498  28.334  20.724   6.155
10722POPC   C1A65499  28.356  20.562   6.455
10722POPC   D2A65500  28.392  20.632   6.755
10722POPC   C3A65501  28.370  20.635   7.055
10722POPC   C4A65502  28.400  20.605   7.355
10722POPC   C1B65503  28.354  20.814   6.455
10722POPC   C2B65504  28.341  20.834   6.755
10722POPC   C3B65505  28.291  20.876   7.055
10722POPC   C4B65506  28.297  20.856   7.355
10723POPC   NC365507  43.878  33.058   5.555
10723POPC   PO465508  43.904  32.974   5.855
10723POPC   GL165509  43.898  33.001   6.155
10723POPC   GL265510  43.977  33.100   6.155
10723POPC   C1A65511  43.861  32.977   6.455
10723POPC   D2A65512  43.884  33.042   6.755
10723POPC   C3A65513  43.901  32.979   7.055
10723POPC   C4A65514  43.914  32.977   7.355
10723POPC   C1B65515  44.092  33.083   6.455
10723POPC   C2B65516  44.112  33.158   6.755
10723POPC   C3B65517  44.071  33.098   7.055
10723POPC   C4B65518  44.144  33.127   7.355
10724POPC   NC365519  15.147  17.493   5.555
10724POPC   PO465520  15.207  17.551   5.855
10724POPC   GL165521  15.194  17.495   6.155
10724POPC   GL265522  15.139  17.673   6.155
10724POPC   C1A65523  15.227  17.487   6.455
10724POPC   D2A65524  15.227  17.484   6.755
10724POPC   C3A65525  15.171  17.497   7.055
10724POPC   C4A65526  15.207  17.490   7.355
10724POPC   C1B65527  15.178  17.735   6.455
10724POPC   C2B65528  15.129  17.743   6.755
10724POPC   C3B65529  15.168  17.799   7.055
10724POPC   C4B65530  15.160  17.748   7.355
10725POPC   NC365531  18.274  22.137   5.555
10725POPC   PO465532  18.296  22.183   5.855
10725POPC   GL165533  18.299  22.146   6.155
10725POPC   GL265534  18.395  22.149   6.155
10725POPC   C1A65535  18.269  22.156   6.455
10725POPC   D2A65536  18.297  22.127   6.755
10725POPC   C3A65537  18.282  22.175   7.055
10725POPC   C4A65538  18.248  22.167   7.355
10725POPC   C1B65539  18.502  22.086   6.455
10725POPC   C2B65540  18.551  22.090   6.755
10725POPC   C3B65541  18.569  22.144   7.055
10725POPC   C4B65542  18.567  22.138   7.355
10726POPC   NC365543  16.728  14.431   5.555
10726POPC   PO465544  16.721  14.369   5.855
10726POPC   GL165545  16.699  14.428   6.155
10726POPC   GL265546  16.685  14.514   6.155
10726POPC   C1A65547  16.769  14.393   6.455
10726POPC   D2A65548  16.745  14.412   6.755
10726POPC   C3A65549  16.684  14.395   7.055
10726POPC   C4A65550  16.709  14.426   7.355
10726POPC   C1B65551  16.757  14.623   6.455
10726POPC   C2B65552  16.693  14.620   6.755
10726POPC   C3B65553  16.671  14.603   7.055
10726POPC   C4B65554  16.745  14.634   7.355
10727POPC   NC365555  39.229  11.263   5.555
10727POPC   PO465556  39.240  11.321   5.855
10727POPC   GL165557  39.261  11.344   6.155
10727POPC   GL265558  39.333  11.341   6.155
10727POPC   C1A65559  39.210  11.308   6.455
10727POPC   D2A65560  39.240  11.307   6.755
10727POPC   C3A65561  39.213  11.327   7.055
10727POPC   C4A65562  39.200  11.338   7.355
10727POPC   C1B65563  39.470  11.379   6.455
10727POPC   C2B65564  39.469  11.281   6.755
10727POPC   C3B65565  39.518  11.363   7.055
10727POPC   C4B65566  39.520  11.309   7.355
10728POPC   NC365567   5.053  15.952   5.555
10728POPC   PO465568   5.137  15.913   5.855
10728POPC   GL165569   5.135  15.941   6.155
10728POPC   GL265570   5.141  16.073   6.155
10728POPC   C1A65571   5.081  15.971   6.455
10728POPC   D2A65572   5.084  15.966   6.755
10728POPC   C3A65573   5.072  15.951   7.055
10728POPC   C4A65574   5.090  15.909   7.355
10728POPC   C1B65575   5.253  16.155   6.455
10728POPC   C2B65576   5.268  16.177   6.755
10728POPC   C3B65577   5.254  16.133   7.055
10728POPC   C4B65578   5.244  16.183   7.355
10729POPC   NC365579   5.832  25.298   5.555
10729POPC   PO465580   5.892  25.245   5.855
10729POPC   GL165581   5.877  25.269   6.155
10729POPC   GL265582   5.750  25.208   6.155
10729POPC   C1A65583   5.855  25.306   6.455
10729POPC   D2A65584   5.907  25.231   6.755
10729POPC   C3A65585   5.903  25.221   7.055
10729POPC   C4A65586   5.894  25.298   7.355
10729POPC   C1B65587   5.655  25.048   6.455
10729POPC   C2B65588   5.696  25.134   6.755
10729POPC   C3B65589   5.697  25.105   7.055
10729POPC   C4B65590   5.660  25.096   7.355
10730POPC   NC365591  19.104  18.255   5.555
10730POPC   PO465592  19.063  18.330   5.855
10730POPC   GL165593  19.108  18.293   6.155
10730POPC   GL265594  19.097  18.385   6.155
10730POPC   C1A65595  19.106  18.234   6.455
10730POPC   D2A65596  19.020  18.281   6.755
10730POPC   C3A65597  19.035  18.290   7.055
10730POPC   C4A65598  19.032  18.326   7.355
10730POPC   C1B65599  19.223  18.519   6.455
10730POPC   C2B65600  19.171  18.486   6.755
10730POPC   C3B65601  19.179  18.504   7.055
10730POPC   C4B65602  19.210  18.516   7.355
10731POPC   NC365603  27.550  15.219   5.555
10731POPC   PO465604  27.627  15.214   5.855
10731POPC   GL165605  27.631  15.209   6.155
10731POPC   GL265606  27.484  15.102   6.155
10731POPC   C1A65607  27.636  15.150   6.455
10731POPC   D2A65608  27.622  15.180   6.755
10731POPC   C3A65609  27.621  15.224   7.055
10731POPC   C4A65610  27.580  15.205   7.355
10731POPC   C1B65611  27.425  15.025   6.455
10731POPC   C2B65612  27.462  14.968   6.755
10731POPC   C3B65613  27.476  14.938   7.055
10731POPC   C4B65614  27.421  14.986   7.355
10732POPC   NC365615  42.331   9.724   5.555
10732POPC   PO465616  42.368   9.784   5.855
10732POPC   GL165617  42.312   9.698   6.155
10732POPC   GL265618  42.317   9.616   6.155
10732POPC   C1A65619  42.348   9.761   6.455
10732POPC   D2A65620  42.367   9.738   6.755
10732POPC   C3A65621  42.308   9.776   7.055
10732POPC   C4A65622  42.302   9.774   7.355
10732POPC   C1B65623  42.231   9.463   6.455
10732POPC   C2B65624  42.289   9.482   6.755
10732POPC   C3B65625  42.283   9.549   7.055
10732POPC   C4B65626  42.264   9.502   7.355
10733POPC   NC365627  36.880  36.907   5.555
10733POPC   PO465628  36.939  36.890   5.855
10733POPC   GL165629  36.924  36.895   6.155
10733POPC   GL265630  36.765  36.874   6.155
10733POPC   C1A65631  36.872  36.909   6.455
10733POPC   D2A65632  36.937  36.952   6.755
10733POPC   C3A65633  36.953  36.939   7.055
10733POPC   C4A65634  36.870  36.869   7.355
10733POPC   C1B65635  36.654  36.796   6.455
10733POPC   C2B65636  36.709  36.738   6.755
10733POPC   C3B65637  36.712  36.722   7.055
10733POPC   C4B65638  36.674  36.787   7.355
10734POPC   NC365639   7.454  21.397   5.555
10734POPC   PO465640   7.399  21.405   5.855
10734POPC   GL165641   7.463  21.370   6.155
10734POPC   GL265642   7.497  21.232   6.155
10734POPC   C1A65643   7.408  21.350   6.455
10734POPC   D2A65644   7.411  21.382   6.755
10734POPC   C3A65645   7.414  21.400   7.055
10734POPC   C4A65646   7.417  21.378   7.355
10734POPC   C1B65647   7.486  21.168   6.455
10734POPC   C2B65648   7.525  21.128   6.755
10734POPC   C3B65649   7.461  21.144   7.055
10734POPC   C4B65650   7.460  21.107   7.355
10735POPC   NC365651  13.677  29.152   5.555
10735POPC   PO465652  13.595  29.116   5.855
10735POPC   GL165653  13.625  29.097   6.155
10735POPC   GL265654  13.745  29.146   6.155
10735POPC   C1A65655  13.622  29.179   6.455
10735POPC   D2A65656  13.611  29.104   6.755
10735POPC   C3A65657  13.663  29.123   7.055
10735POPC   C4A65658  13.595  29.152   7.355
10735POPC   C1B65659  13.825  29.221   6.455
10735POPC   C2B65660  13.825  29.262   6.755
10735POPC   C3B65661  13.907  29.283   7.055
10735POPC   C4B65662  13.856  29.238   7.355
10736POPC   NC365663  44.657   3.532   5.555
10736POPC   PO465664  44.702   3.513   5.855
10736POPC   GL165665  44.655   3.517   6.155
10736POPC   GL265666  44.548   3.530   6.155
10736POPC   C1A65667  44.661   3.568   6.455
10736POPC   D2A65668  44.665   3.585   6.755
10736POPC   C3A65669  44.644   3.554   7.055
10736POPC   C4A65670  44.691   3.530   7.355
10736POPC   C1B65671  44.368   3.558   6.455
10736POPC   C2B65672  44.428   3.503   6.755
10736POPC   C3B65673  44.451   3.522   7.055
10736POPC   C4B65674  44.452   3.559   7.355
10737POPC   NC365675  12.068  16.757   5.555
10737POPC   PO465676  12.078  16.695   5.855
10737POPC   GL165677  12.052  16.765   6.155
10737POPC   GL265678  12.120  16.828   6.155
10737POPC   C1A65679  12.036  16.699   6.455
10737POPC   D2A65680  12.061  16.702   6.755
10737POPC   C3A65681  12.112  16.719   7.055
10737POPC   C4A65682  12.030  16.705   7.355
10737POPC   C1B65683  12.041  16.965   6.455
10737POPC   C2B65684  12.048  16.950   6.755
10737POPC   C3B65685  12.116  16.949   7.055
10737POPC   C4B65686  12.089  16.974   7.355
10738POPC   NC365687  40.809  12.076   5.555
10738POPC   PO465688  40.797  12.108   5.855
10738POPC   GL165689  40.780  12.071   6.155
10738POPC   GL265690  40.743  12.157   6.155
10738POPC   C1A65691  40.734  12.101   6.455
10738POPC   D2A65692  40.745  12.048   6.755
10738POPC   C3A65693  40.800  12.068   7.055
10738POPC   C4A65694  40.735  12.045   7.355
10738POPC   C1B65695  40.701  12.269   6.455
10738POPC   C2B65696  40.752  12.307   6.755
10738POPC   C3B65697  40.708  12.291   7.055
10738POPC   C4B65698  40.678  12.303   7.355
10739POPC   NC365699  32.986  24.513   5.555
10739POPC   PO465700  33.064  24.500   5.855
10739POPC   GL165701  32.986  24.452   6.155
10739POPC   GL265702  32.960  24.634   6.155
10739POPC   C1A65703  33.067  24.464   6.455
10739POPC   D2A65704  33.056  24.536   6.755
10739POPC   C3A65705  33.024  24.490   7.055
10739POPC   C4A65706  33.023  24.461   7.355
10739POPC   C1B65707  32.931  24.683   6.455
10739POPC   C2B65708  32.875  24.751   6.755
10739POPC   C3B65709  32.948  24.702   7.055
10739POPC   C4B65710  32.908  24.756   7.355
10740POPC   NC365711  29.873  21.395   5.555
10740POPC   PO465712  29.904  21.352   5.855
10740POPC   GL165713  29.905  21.426   6.155
10740POPC   GL265714  30.046  21.439   6.155
10740POPC   C1A65715  29.891  21.430   6.455
10740POPC   D2A65716  29.909  21.429   6.755
10740POPC   C3A65717  29.918  21.389   7.055
10740POPC   C4A65718  29.964  21.405   7.355
10740POPC   C1B65719  30.120  21.530   6.455
10740POPC   C2B65720  30.142  21.451   6.755
10740POPC   C3B65721  30.101  21.465   7.055
10740POPC   C4B65722  30.147  21.497   7.355
10741POPC   NC365723  43.106  10.493   5.555
10741POPC   PO465724  43.160  10.485   5.855
10741POPC   GL165725  43.125  10.542   6.155
10741POPC   GL265726  43.049  10.609   6.155
10741POPC   C1A65727  43.126  10.539   6.455
10741POPC   D2A65728  43.113  10.499   6.755
10741POPC   C3A65729  43.154  10.488   7.055
10741POPC   C4A65730  43.156  10.565   7.355
10741POPC   C1B65731  42.994  10.717   6.455
10741POPC   C2B65732  43.007  10.786   6.755
10741POPC   C3B65733  42.988  10.710   7.055
10741POPC   C4B65734  43.027  10.775   7.355
10742POPC   NC365735  20.582  39.988   5.555
10742POPC   PO465736  20.604  40.050   5.855
10742POPC   GL165737  20.568  39.968   6.155
10742POPC   GL265738  20.490  40.051   6.155
10742POPC   C1A65739  20.611  40.049   6.455
10742POPC   D2A65740  20.638  40.048   6.755
10742POPC   C3A65741  20.642  40.052   7.055
10742POPC   C4A65742  20.640  40.022   7.355
10742POPC   C1B65743  20.423  40.114   6.455
10742POPC   C2B65744  20.390  40.085   6.755
10742POPC   C3B65745  20.392  40.127   7.055
10742POPC   C4B65746  20.413  40.141   7.355
10743POPC   NC365747   6.671  44.626   5.555
10743POPC   PO465748   6.681  44.684   5.855
10743POPC   GL165749   6.607  44.712   6.155
10743POPC   GL265750   6.773  44.658   6.155
10743POPC   C1A65751   6.682  44.617   6.455
10743POPC   D2A65752   6.618  44.698   6.755
10743POPC   C3A65753   6.662  44.679   7.055
10743POPC   C4A65754   6.623  44.648   7.355
10743POPC   C1B65755   6.918  44.547   6.455
10743POPC   C2B65756   6.923  44.585   6.755
10743POPC   C3B65757   6.918  44.645   7.055
10743POPC   C4B65758   6.934  44.616   7.355
10744POPC   NC365759   6.676   2.790   5.555
10744POPC   PO465760   6.624   2.734   5.855
10744POPC   GL165761   6.613   2.736   6.155
10744POPC   GL265762   6.625   2.877   6.155
10744POPC   C1A65763   6.647   2.777   6.455
10744POPC   D2A65764   6.595   2.736   6.755
10744POPC   C3A65765   6.635   2.790   7.055
10744POPC   C4A65766   6.634   2.787   7.355
10744POPC   C1B65767   6.616   3.032   6.455
10744POPC   C2B65768   6.680   3.034   6.755
10744POPC   C3B65769   6.660   2.975   7.055
10744POPC   C4B65770   6.678   2.994   7.355
10745POPC   NC365771  28.403   0.394   5.555
10745POPC   PO465772  28.322   0.410   5.855
10745POPC   GL165773  28.393   0.464   6.155
10745POPC   GL265774  28.411   0.533   6.155
10745POPC   C1A65775  28.384   0.419   6.455
10745POPC   D2A65776  28.334   0.418   6.755
10745POPC   C3A65777  28.371   0.484   7.055
10745POPC   C4A65778  28.342   0.406   7.355
10745POPC   C1B65779  28.456   0.722   6.455
10745POPC   C2B65780  28.454   0.637   6.755
10745POPC   C3B65781  28.422   0.675   7.055
10745POPC   C4B65782  28.449   0.693   7.355
10746POPC   NC365783  16.737  27.621   5.555
10746POPC   PO465784  16.747  27.582   5.855
10746POPC   GL165785  16.695  27.641   6.155
10746POPC   GL265786  16.734  27.695   6.155
10746POPC   C1A65787  16.707  27.622   6.455
10746POPC   D2A65788  16.733  27.562   6.755
10746POPC   C3A65789  16.708  27.624   7.055
10746POPC   C4A65790  16.763  27.576   7.355
10746POPC   C1B65791  16.687  27.875   6.455
10746POPC   C2B65792  16.649  27.844   6.755
10746POPC   C3B65793  16.639  27.857   7.055
10746POPC   C4B65794  16.668  27.854   7.355
10747POPC   NC365795  17.466  15.155   5.555
10747POPC   PO465796  17.556  15.216   5.855
10747POPC   GL165797  17.541  15.229   6.155
10747POPC   GL265798  17.652  15.086   6.155
10747POPC   C1A65799  17.533  15.228   6.455
10747POPC   D2A65800  17.526  15.207   6.755
10747POPC   C3A65801  17.508  15.168   7.055
10747POPC   C4A65802  17.529  15.155   7.355
10747POPC   C1B65803  17.719  15.037   6.455
10747POPC   C2B65804  17.739  15.063   6.755
10747POPC   C3B65805  17.731  15.037   7.055
10747POPC   C4B65806  17.687  15.088   7.355
10748POPC   NC365807   6.629  22.956   5.555
10748POPC   PO465808   6.632  22.959   5.855
10748POPC   GL165809   6.638  22.904   6.155
10748POPC   GL265810   6.671  22.805   6.155
10748POPC   C1A65811   6.615  22.961   6.455
10748POPC   D2A65812   6.596  22.907   6.755
10748POPC   C3A65813   6.679  22.980   7.055
10748POPC   C4A65814   6.595  22.915   7.355
10748POPC   C1B65815   6.734  22.666   6.455
10748POPC   C2B65816   6.700  22.698   6.755
10748POPC   C3B65817   6.694  22.726   7.055
10748POPC   C4B65818   6.698  22.658   7.355
10749POPC   NC365819  40.789  31.500   5.555
10749POPC   PO465820  40.744  31.461   5.855
10749POPC   GL165821  40.756  31.443   6.155
10749POPC   GL265822  40.922  31.350   6.155
10749POPC   C1A65823  40.750  31.473   6.455
10749POPC   D2A65824  40.783  31.448   6.755
10749POPC   C3A65825  40.750  31.505   7.055
10749POPC   C4A65826  40.745  31.507   7.355
10749POPC   C1B65827  40.940  31.280   6.455
10749POPC   C2B65828  41.028  31.329   6.755
10749POPC   C3B65829  41.003  31.312   7.055
10749POPC   C4B65830  40.998  31.314   7.355
10750POPC   NC365831   5.877  26.809   5.555
10750POPC   PO465832   5.866  26.856   5.855
10750POPC   GL165833   5.823  26.864   6.155
10750POPC   GL265834   5.949  26.871   6.155
10750POPC   C1A65835   5.839  26.789   6.455
10750POPC   D2A65836   5.855  26.865   6.755
10750POPC   C3A65837   5.885  26.853   7.055
10750POPC   C4A65838   5.837  26.809   7.355
10750POPC   C1B65839   6.161  26.879   6.455
10750POPC   C2B65840   6.091  26.872   6.755
10750POPC   C3B65841   6.071  26.877   7.055
10750POPC   C4B65842   6.142  26.892   7.355
10751POPC   NC365843  36.905   9.001   5.555
10751POPC   PO465844  36.893   8.929   5.855
10751POPC   GL165845  36.891   8.942   6.155
10751POPC   GL265846  37.046   8.947   6.155
10751POPC   C1A65847  36.865   8.934   6.455
10751POPC   D2A65848  36.922   8.987   6.755
10751POPC   C3A65849  36.914   8.923   7.055
10751POPC   C4A65850  36.868   8.982   7.355
10751POPC   C1B65851  37.118   8.861   6.455
10751POPC   C2B65852  37.105   8.872   6.755
10751POPC   C3B65853  37.117   8.883   7.055
10751POPC   C4B65854  37.141   8.801   7.355
10752POPC   NC365855  44.616  12.819   5.555
10752POPC   PO465856  44.675  12.878   5.855
10752POPC   GL165857  44.661  12.870   6.155
10752POPC   GL265858  44.690  12.683   6.155
10752POPC   C1A65859  44.632  12.877   6.455
10752POPC   D2A65860  44.706  12.802   6.755
10752POPC   C3A65861  44.640  12.882   7.055
10752POPC   C4A65862  44.689  12.836   7.355
10752POPC   C1B65863  44.780  12.576   6.455
10752POPC   C2B65864  44.725  12.566   6.755
10752POPC   C3B65865  44.732  12.614   7.055
10752POPC   C4B65866  44.755  12.631   7.355
10753POPC   NC365867  36.894   9.712   5.555
10753POPC   PO465868  36.865   9.708   5.855
10753POPC   GL165869  36.944   9.788   6.155
10753POPC   GL265870  36.897   9.618   6.155
10753POPC   C1A65871  36.941   9.727   6.455
10753POPC   D2A65872  36.865   9.779   6.755
10753POPC   C3A65873  36.887   9.782   7.055
10753POPC   C4A65874  36.937   9.704   7.355
10753POPC   C1B65875  36.936   9.482   6.455
10753POPC   C2B65876  37.010   9.516   6.755
10753POPC   C3B65877  36.983   9.496   7.055
10753POPC   C4B65878  37.004   9.476   7.355
10754POPC   NC365879  12.063  33.054   5.555
10754POPC   PO465880  12.076  33.032   5.855
10754POPC   GL165881  12.092  33.049   6.155
10754POPC   GL265882  11.940  33.068   6.155
10754POPC   C1A65883  12.030  33.056   6.455
10754POPC   D2A65884  12.090  33.002   6.755
10754POPC   C3A65885  12.088  33.029   7.055
10754POPC   C4A65886  12.108  32.999   7.355
10754POPC   C1B65887  11.781  33.069   6.455
10754POPC   C2B65888  11.855  33.009   6.755
10754POPC   C3B65889  11.778  33.051   7.055
10754POPC   C4B65890  11.818  33.091   7.355
10755POPC   NC365891  35.383  15.220   5.555
10755POPC   PO465892  35.353  15.180   5.855
10755POPC   GL165893  35.356  15.138   6.155
10755POPC   GL265894  35.520  15.235   6.155
10755POPC   C1A65895  35.397  15.143   6.455
10755POPC   D2A65896  35.394  15.155   6.755
10755POPC   C3A65897  35.353  15.218   7.055
10755POPC   C4A65898  35.326  15.143   7.355
10755POPC   C1B65899  35.585  15.219   6.455
10755POPC   C2B65900  35.576  15.225   6.755
10755POPC   C3B65901  35.604  15.283   7.055
10755POPC   C4B65902  35.633  15.262   7.355
10756POPC   NC365903  33.040  36.898   5.555
10756POPC   PO465904  33.030  36.929   5.855
10756POPC   GL165905  33.030  36.896   6.155
10756POPC   GL265906  32.968  37.038   6.155
10756POPC   C1A65907  33.050  36.916   6.455
10756POPC   D2A65908  32.983  36.909   6.755
10756POPC   C3A65909  33.028  36.933   7.055
10756POPC   C4A65910  33.029  36.872   7.355
10756POPC   C1B65911  32.973  37.149   6.455
10756POPC   C2B65912  32.996  37.106   6.755
10756POPC   C3B65913  32.930  37.160   7.055
10756POPC   C4B65914  33.012  37.158   7.355
10757POPC   NC365915  23.672  40.757   5.555
10757POPC   PO465916  23.738  40.814   5.855
10757POPC   GL165917  23.735  40.760   6.155
10757POPC   GL265918  23.762  40.701   6.155
10757POPC   C1A65919  23.721  40.792   6.455
10757POPC   D2A65920  23.758  40.761   6.755
10757POPC   C3A65921  23.690  40.780   7.055
10757POPC   C4A65922  23.694  40.740   7.355
10757POPC   C1B65923  23.941  40.591   6.455
10757POPC   C2B65924  23.868  40.614   6.755
10757POPC   C3B65925  23.922  40.647   7.055
10757POPC   C4B65926  23.931  40.634   7.355
10758POPC   NC365927  27.632   3.504   5.555
10758POPC   PO465928  27.587   3.582   5.855
10758POPC   GL165929  27.550   3.515   6.155
10758POPC   GL265930  27.483   3.484   6.155
10758POPC   C1A65931  27.639   3.560   6.455
10758POPC   D2A65932  27.575   3.516   6.755
10758POPC   C3A65933  27.627   3.552   7.055
10758POPC   C4A65934  27.627   3.496   7.355
10758POPC   C1B65935  27.365   3.436   6.455
10758POPC   C2B65936  27.403   3.413   6.755
10758POPC   C3B65937  27.385   3.470   7.055
10758POPC   C4B65938  27.377   3.498   7.355
10759POPC   NC365939  26.845  36.168   5.555
10759POPC   PO465940  26.820  36.172   5.855
10759POPC   GL165941  26.810  36.114   6.155
10759POPC   GL265942  26.850  36.263   6.155
10759POPC   C1A65943  26.806  36.114   6.455
10759POPC   D2A65944  26.837  36.130   6.755
10759POPC   C3A65945  26.822  36.081   7.055
10759POPC   C4A65946  26.850  36.120   7.355
10759POPC   C1B65947  26.869  36.417   6.455
10759POPC   C2B65948  26.863  36.331   6.755
10759POPC   C3B65949  26.800  36.343   7.055
10759POPC   C4B65950  26.829  36.332   7.355
10760POPC   NC365951  15.981   5.895   5.555
10760POPC   PO465952  16.005   5.850   5.855
10760POPC   GL165953  15.957   5.896   6.155
10760POPC   GL265954  15.847   6.005   6.155
10760POPC   C1A65955  15.996   5.885   6.455
10760POPC   D2A65956  15.963   5.863   6.755
10760POPC   C3A65957  15.906   5.894   7.055
10760POPC   C4A65958  15.980   5.834   7.355
10760POPC   C1B65959  15.843   6.081   6.455
10760POPC   C2B65960  15.832   6.121   6.755
10760POPC   C3B65961  15.848   6.104   7.055
10760POPC   C4B65962  15.780   6.034   7.355
10761POPC   NC365963  12.817  40.048   5.555
10761POPC   PO465964  12.900  40.047   5.855
10761POPC   GL165965  12.865  40.056   6.155
10761POPC   GL265966  12.875  40.083   6.155
10761POPC   C1A65967  12.867  40.015   6.455
10761POPC   D2A65968  12.830  40.029   6.755
10761POPC   C3A65969  12.805  39.983   7.055
10761POPC   C4A65970  12.823  39.990   7.355
10761POPC   C1B65971  12.922  40.230   6.455
10761POPC   C2B65972  12.984  40.237   6.755
10761POPC   C3B65973  12.941  40.258   7.055
10761POPC   C4B65974  12.911  40.242   7.355
10762POPC   NC365975   0.454  40.769   5.555
10762POPC   PO465976   0.457  40.808   5.855
10762POPC   GL165977   0.436  40.803   6.155
10762POPC   GL265978   0.383  40.700   6.155
10762POPC   C1A65979   0.472  40.790   6.455
10762POPC   D2A65980   0.478  40.818   6.755
10762POPC   C3A65981   0.388  40.801   7.055
10762POPC   C4A65982   0.460  40.742   7.355
10762POPC   C1B65983   0.463  40.499   6.455
10762POPC   C2B65984   0.427  40.509   6.755
10762POPC   C3B65985   0.460  40.573   7.055
10762POPC   C4B65986   0.460  40.582   7.355
10763POPC   NC365987  23.745  44.634   5.555
10763POPC   PO465988  23.714  44.636   5.855
10763POPC   GL165989  23.711  44.661   6.155
10763POPC   GL265990  23.602  44.636   6.155
10763POPC   C1A65991  23.687  44.667   6.455
10763POPC   D2A65992  23.684  44.653   6.755
10763POPC   C3A65993  23.738  44.622   7.055
10763POPC   C4A65994  23.682  44.642   7.355
10763POPC   C1B65995  23.442  44.647   6.455
10763POPC   C2B65996  23.465  44.640   6.755
10763POPC   C3B65997  23.446  44.698   7.055
10763POPC   C4B65998  23.465  44.671   7.355
10764POPC   NC365999  43.878  24.511   5.555
10764POPC   PO466000  43.857  24.457   5.855
10764POPC   GL166001  43.858  24.486   6.155
10764POPC   GL266002  43.859  24.326   6.155
10764POPC   C1A66003  43.854  24.514   6.455
10764POPC   D2A66004  43.849  24.450   6.755
10764POPC   C3A66005  43.902  24.459   7.055
10764POPC   C4A66006  43.847  24.499   7.355
10764POPC   C1B66007  43.939  24.257   6.455
10764POPC   C2B66008  43.975  24.244   6.755
10764POPC   C3B66009  43.922  24.253   7.055
10764POPC   C4B66010  43.937  24.280   7.355
10765POPC   NC366011  19.868  11.335   5.555
10765POPC   PO466012  19.819  11.284   5.855
10765POPC   GL166013  19.846  11.273   6.155
10765POPC   GL266014  19.976  11.247   6.155
10765POPC   C1A66015  19.848  11.339   6.455
10765POPC   D2A66016  19.794  11.301   6.755
10765POPC   C3A66017  19.853  11.308   7.055
10765POPC   C4A66018  19.826  11.334   7.355
10765POPC   C1B66019  20.022  11.177   6.455
10765POPC   C2B66020  20.026  11.190   6.755
10765POPC   C3B66021  20.095  11.179   7.055
10765POPC   C4B66022  20.027  11.171   7.355
10766POPC   NC366023  36.948  11.324   5.555
10766POPC   PO466024  36.854  11.336   5.855
10766POPC   GL166025  36.873  11.348   6.155
10766POPC   GL266026  37.050  11.325   6.155
10766POPC   C1A66027  36.948  11.288   6.455
10766POPC   D2A66028  36.949  11.336   6.755
10766POPC   C3A66029  36.933  11.342   7.055
10766POPC   C4A66030  36.940  11.258   7.355
10766POPC   C1B66031  37.159  11.411   6.455
10766POPC   C2B66032  37.185  11.325   6.755
10766POPC   C3B66033  37.172  11.316   7.055
10766POPC   C4B66034  37.145  11.333   7.355
10767POPC   NC366035  27.563  24.476   5.555
10767POPC   PO466036  27.581  24.445   5.855
10767POPC   GL166037  27.550  24.443   6.155
10767POPC   GL266038  27.420  24.421   6.155
10767POPC   C1A66039  27.629  24.493   6.455
10767POPC   D2A66040  27.602  24.500   6.755
10767POPC   C3A66041  27.600  24.476   7.055
10767POPC   C4A66042  27.563  24.505   7.355
10767POPC   C1B66043  27.342  24.479   6.455
10767POPC   C2B66044  27.387  24.422   6.755
10767POPC   C3B66045  27.361  24.426   7.055
10767POPC   C4B66046  27.338  24.457   7.355
10768POPC   NC366047  19.865  32.201   5.555
10768POPC   PO466048  19.785  32.261   5.855
10768POPC   GL166049  19.807  32.273   6.155
10768POPC   GL266050  19.798  32.083   6.155
10768POPC   C1A66051  19.799  32.212   6.455
10768POPC   D2A66052  19.788  32.278   6.755
10768POPC   C3A66053  19.799  32.286   7.055
10768POPC   C4A66054  19.815  32.229   7.355
10768POPC   C1B66055  19.744  31.991   6.455
10768POPC   C2B66056  19.741  31.984   6.755
10768POPC   C3B66057  19.736  32.049   7.055
10768POPC   C4B66058  19.719  32.033   7.355
10769POPC   NC366059  43.071  38.426   5.555
10769POPC   PO466060  43.098  38.426   5.855
10769POPC   GL166061  43.131  38.460   6.155
10769POPC   GL266062  43.056  38.526   6.155
10769POPC   C1A66063  43.083  38.446   6.455
10769POPC   D2A66064  43.135  38.443   6.755
10769POPC   C3A66065  43.062  38.471   7.055
10769POPC   C4A66066  43.154  38.501   7.355
10769POPC   C1B66067  42.919  38.608   6.455
10769POPC   C2B66068  42.946  38.651   6.755
10769POPC   C3B66069  42.954  38.598   7.055
10769POPC   C4B66070  42.911  38.662   7.355
10770POPC   NC366071  22.979  39.181   5.555
10770POPC   PO466072  22.921  39.186   5.855
10770POPC   GL166073  22.960  39.203   6.155
10770POPC   GL266074  22.825  39.113   6.155
10770POPC   C1A66075  22.937  39.191   6.455
10770POPC   D2A66076  22.957  39.202   6.755
10770POPC   C3A66077  22.928  39.240   7.055
10770POPC   C4A66078  22.975  39.240   7.355
10770POPC   C1B66079  22.794  38.976   6.455
10770POPC   C2B66080  22.766  39.020   6.755
10770POPC   C3B66081  22.799  39.003   7.055
10770POPC   C4B66082  22.794  39.024   7.355
10771POPC   NC366083  14.401  22.976   5.555
10771POPC   PO466084  14.394  22.972   5.855
10771POPC   GL166085  14.400  22.935   6.155
10771POPC   GL266086  14.517  22.903   6.155
10771POPC   C1A66087  14.445  22.895   6.455
10771POPC   D2A66088  14.355  22.889   6.755
10771POPC   C3A66089  14.412  22.913   7.055
10771POPC   C4A66090  14.363  22.935   7.355
10771POPC   C1B66091  14.644  22.849   6.455
10771POPC   C2B66092  14.607  22.802   6.755
10771POPC   C3B66093  14.576  22.821   7.055
10771POPC   C4B66094  14.633  22.776   7.355
10772POPC   NC366095  31.444  10.526   5.555
10772POPC   PO466096  31.434  10.476   5.855
10772POPC   GL166097  31.453  10.549   6.155
10772POPC   GL266098  31.573  10.676   6.155
10772POPC   C1A66099  31.498  10.504   6.455
10772POPC   D2A66100  31.477  10.552   6.755
10772POPC   C3A66101  31.488  10.533   7.055
10772POPC   C4A66102  31.455  10.552   7.355
10772POPC   C1B66103  31.609  10.752   6.455
10772POPC   C2B66104  31.549  10.793   6.755
10772POPC   C3B66105  31.614  10.766   7.055
10772POPC   C4B66106  31.605  10.767   7.355
10773POPC   NC366107  32.253  11.324   5.555
10773POPC   PO466108  32.250  11.347   5.855
10773POPC   GL166109  32.261  11.316   6.155
10773POPC   GL266110  32.368  11.228   6.155
10773POPC   C1A66111  32.236  11.252   6.455
10773POPC   D2A66112  32.213  11.285   6.755
10773POPC   C3A66113  32.273  11.285   7.055
10773POPC   C4A66114  32.223  11.335   7.355
10773POPC   C1B66115  32.464  11.220   6.455
10773POPC   C2B66116  32.501  11.190   6.755
10773POPC   C3B66117  32.486  11.204   7.055
10773POPC   C4B66118  32.424  11.189   7.355
10774POPC   NC366119  44.689  13.614   5.555
10774POPC   PO466120  44.694  13.645   5.855
10774POPC   GL166121  44.673  13.666   6.155
10774POPC   GL266122  44.495  13.639   6.155
10774POPC   C1A66123  44.704  13.642   6.455
10774POPC   D2A66124  44.628  13.584   6.755
10774POPC   C3A66125  44.709  13.622   7.055
10774POPC   C4A66126  44.634  13.666   7.355
10774POPC   C1B66127  44.441  13.619   6.455
10774POPC   C2B66128  44.405  13.602   6.755
10774POPC   C3B66129  44.465  13.628   7.055
10774POPC   C4B66130  44.450  13.540   7.355
10775POPC   NC366131  26.058  20.619   5.555
10775POPC   PO466132  26.011  20.608   5.855
10775POPC   GL166133  26.065  20.582   6.155
10775POPC   GL266134  26.156  20.627   6.155
10775POPC   C1A66135  26.006  20.585   6.455
10775POPC   D2A66136  26.026  20.587   6.755
10775POPC   C3A66137  25.995  20.561   7.055
10775POPC   C4A66138  26.040  20.579   7.355
10775POPC   C1B66139  26.297  20.731   6.455
10775POPC   C2B66140  26.285  20.666   6.755
10775POPC   C3B66141  26.247  20.690   7.055
10775POPC   C4B66142  26.297  20.708   7.355
10776POPC   NC366143  40.030   6.648   5.555
10776POPC   PO466144  39.992   6.605   5.855
10776POPC   GL166145  40.032   6.639   6.155
10776POPC   GL266146  39.963   6.538   6.155
10776POPC   C1A66147  40.002   6.650   6.455
10776POPC   D2A66148  39.964   6.667   6.755
10776POPC   C3A66149  39.986   6.684   7.055
10776POPC   C4A66150  40.050   6.643   7.355
10776POPC   C1B66151  39.989   6.395   6.455
10776POPC   C2B66152  40.014   6.396   6.755
10776POPC   C3B66153  39.996   6.422   7.055
10776POPC   C4B66154  40.006   6.362   7.355
10777POPC   NC366155  36.159  41.570   5.555
10777POPC   PO466156  36.131  41.540   5.855
10777POPC   GL166157  36.087  41.522   6.155
10777POPC   GL266158  36.052  41.435   6.155
10777POPC   C1A66159  36.134  41.577   6.455
10777POPC   D2A66160  36.126  41.559   6.755
10777POPC   C3A66161  36.122  41.521   7.055
10777POPC   C4A66162  36.133  41.591   7.355
10777POPC   C1B66163  35.928  41.351   6.455
10777POPC   C2B66164  35.930  41.372   6.755
10777POPC   C3B66165  35.965  41.345   7.055
10777POPC   C4B66166  35.935  41.362   7.355
10778POPC   NC366167  26.790   3.587   5.555
10778POPC   PO466168  26.845   3.557   5.855
10778POPC   GL166169  26.863   3.505   6.155
10778POPC   GL266170  26.910   3.531   6.155
10778POPC   C1A66171  26.838   3.576   6.455
10778POPC   D2A66172  26.782   3.588   6.755
10778POPC   C3A66173  26.781   3.569   7.055
10778POPC   C4A66174  26.771   3.536   7.355
10778POPC   C1B66175  27.064   3.518   6.455
10778POPC   C2B66176  27.077   3.560   6.755
10778POPC   C3B66177  27.035   3.552   7.055
10778POPC   C4B66178  27.055   3.537   7.355
10779POPC   NC366179   5.049  22.976   5.555
10779POPC   PO466180   5.116  22.939   5.855
10779POPC   GL166181   5.139  22.893   6.155
10779POPC   GL266182   5.111  22.777   6.155
10779POPC   C1A66183   5.080  22.949   6.455
10779POPC   D2A66184   5.075  22.971   6.755
10779POPC   C3A66185   5.068  22.931   7.055
10779POPC   C4A66186   5.083  22.910   7.355
10779POPC   C1B66187   5.158  22.674   6.455
10779POPC   C2B66188   5.205  22.666   6.755
10779POPC   C3B66189   5.211  22.680   7.055
10779POPC   C4B66190   5.218  22.674   7.355
10780POPC   NC366191  36.871  19.803   5.555
10780POPC   PO466192  36.896  19.872   5.855
10780POPC   GL166193  36.885  19.861   6.155
10780POPC   GL266194  36.770  19.887   6.155
10780POPC   C1A66195  36.952  19.860   6.455
10780POPC   D2A66196  36.868  19.849   6.755
10780POPC   C3A66197  36.895  19.815   7.055
10780POPC   C4A66198  36.937  19.787   7.355
10780POPC   C1B66199  36.740  20.038   6.455
10780POPC   C2B66200  36.714  19.969   6.755
10780POPC   C3B66201  36.691  20.029   7.055
10780POPC   C4B66202  36.721  19.969   7.355
10781POPC   NC366203  44.641   8.942   5.555
10781POPC   PO466204  44.681   9.021   5.855
10781POPC   GL166205  44.644   9.017   6.155
10781POPC   GL266206  44.606   8.929   6.155
10781POPC   C1A66207  44.646   8.940   6.455
10781POPC   D2A66208  44.702   8.993   6.755
10781POPC   C3A66209  44.632   8.979   7.055
10781POPC   C4A66210  44.672   9.021   7.355
10781POPC   C1B66211  44.480   8.846   6.455
10781POPC   C2B66212  44.448   8.826   6.755
10781POPC   C3B66213  44.519   8.758   7.055
10781POPC   C4B66214  44.519   8.780   7.355
10782POPC   NC366215  19.057   6.693   5.555
10782POPC   PO466216  19.064   6.606   5.855
10782POPC   GL166217  19.074   6.611   6.155
10782POPC   GL266218  18.951   6.700   6.155
10782POPC   C1A66219  19.103   6.689   6.455
10782POPC   D2A66220  19.099   6.640   6.755
10782POPC   C3A66221  19.091   6.622   7.055
10782POPC   C4A66222  19.041   6.651   7.355
10782POPC   C1B66223  18.877   6.721   6.455
10782POPC   C2B66224  18.834   6.735   6.755
10782POPC   C3B66225  18.850   6.737   7.055
10782POPC   C4B66226  18.835   6.744   7.355
10783POPC   NC366227   7.401  37.661   5.555
10783POPC   PO466228   7.428  37.634   5.855
10783POPC   GL166229   7.466  37.654   6.155
10783POPC   GL266230   7.348  37.799   6.155
10783POPC   C1A66231   7.389  37.708   6.455
10783POPC   D2A66232   7.438  37.683   6.755
10783POPC   C3A66233   7.405  37.706   7.055
10783POPC   C4A66234   7.462  37.687   7.355
10783POPC   C1B66235   7.284  37.867   6.455
10783POPC   C2B66236   7.215  37.821   6.755
10783POPC   C3B66237   7.246  37.902   7.055
10783POPC   C4B66238   7.286  37.821   7.355
10784POPC   NC366239  38.499  30.648   5.555
10784POPC   PO466240  38.476  30.732   5.855
10784POPC   GL166241  38.467  30.704   6.155
10784POPC   GL266242  38.472  30.783   6.155
10784POPC   C1A66243  38.423  30.707   6.455
10784POPC   D2A66244  38.455  30.689   6.755
10784POPC   C3A66245  38.497  30.674   7.055
10784POPC   C4A66246  38.435  30.738   7.355
10784POPC   C1B66247  38.465  30.993   6.455
10784POPC   C2B66248  38.398  30.921   6.755
10784POPC   C3B66249  38.483  30.934   7.055
10784POPC   C4B66250  38.468  30.924   7.355
10785POPC   NC366251  44.616  14.375   5.555
10785POPC   PO466252  44.623  14.358   5.855
10785POPC   GL166253  44.630  14.415   6.155
10785POPC   GL266254  44.615  14.324   6.155
10785POPC   C1A66255  44.626  14.377   6.455
10785POPC   D2A66256  44.712  14.412   6.755
10785POPC   C3A66257  44.686  14.446   7.055
10785POPC   C4A66258  44.635  14.439   7.355
10785POPC   C1B66259  44.509  14.155   6.455
10785POPC   C2B66260  44.585  14.206   6.755
10785POPC   C3B66261  44.585  14.221   7.055
10785POPC   C4B66262  44.573  14.180   7.355
10786POPC   NC366263  12.893  10.474   5.555
10786POPC   PO466264  12.847  10.520   5.855
10786POPC   GL166265  12.815  10.478   6.155
10786POPC   GL266266  12.903  10.440   6.155
10786POPC   C1A66267  12.893  10.569   6.455
10786POPC   D2A66268  12.860  10.571   6.755
10786POPC   C3A66269  12.805  10.535   7.055
10786POPC   C4A66270  12.884  10.491   7.355
10786POPC   C1B66271  12.933  10.300   6.455
10786POPC   C2B66272  12.977  10.288   6.755
10786POPC   C3B66273  12.974  10.317   7.055
10786POPC   C4B66274  13.001  10.285   7.355
10787POPC   NC366275  40.030  30.716   5.555
10787POPC   PO466276  40.030  30.677   5.855
10787POPC   GL166277  40.014  30.702   6.155
10787POPC   GL266278  40.124  30.785   6.155
10787POPC   C1A66279  39.981  30.648   6.455
10787POPC   D2A66280  39.980  30.647   6.755
10787POPC   C3A66281  40.028  30.679   7.055
10787POPC   C4A66282  40.043  30.742   7.355
10787POPC   C1B66283  40.179  30.904   6.455
10787POPC   C2B66284  40.144  30.902   6.755
10787POPC   C3B66285  40.136  30.936   7.055
10787POPC   C4B66286  40.205  30.846   7.355
10788POPC   NC366287   7.437  10.515   5.555
10788POPC   PO466288   7.402  10.570   5.855
10788POPC   GL166289   7.439  10.530   6.155
10788POPC   GL266290   7.413  10.648   6.155
10788POPC   C1A66291   7.435  10.522   6.455
10788POPC   D2A66292   7.419  10.502   6.755
10788POPC   C3A66293   7.384  10.534   7.055
10788POPC   C4A66294   7.389  10.491   7.355
10788POPC   C1B66295   7.407  10.808   6.455
10788POPC   C2B66296   7.482  10.795   6.755
10788POPC   C3B66297   7.413  10.752   7.055
10788POPC   C4B66298   7.397  10.726   7.355
10789POPC   NC366299  32.276  15.172   5.555
10789POPC   PO466300  32.201  15.188   5.855
10789POPC   GL166301  32.203  15.210   6.155
10789POPC   GL266302  32.351  15.339   6.155
10789POPC   C1A66303  32.260  15.222   6.455
10789POPC   D2A66304  32.277  15.179   6.755
10789POPC   C3A66305  32.221  15.165   7.055
10789POPC   C4A66306  32.256  15.191   7.355
10789POPC   C1B66307  32.333  15.378   6.455
10789POPC   C2B66308  32.367  15.391   6.755
10789POPC   C3B66309  32.327  15.385   7.055
10789POPC   C4B66310  32.385  15.363   7.355
10790POPC   NC366311  20.570  43.142   5.555
10790POPC   PO466312  20.640  43.159   5.855
10790POPC   GL166313  20.570  43.111   6.155
10790POPC   GL266314  20.669  42.972   6.155
10790POPC   C1A66315  20.616  43.105   6.455
10790POPC   D2A66316  20.649  43.146   6.755
10790POPC   C3A66317  20.647  43.086   7.055
10790POPC   C4A66318  20.601  43.073   7.355
10790POPC   C1B66319  20.711  42.831   6.455
10790POPC   C2B66320  20.718  42.890   6.755
10790POPC   C3B66321  20.696  42.829   7.055
10790POPC   C4B66322  20.654  42.846   7.355
10791POPC   NC366323  41.585  39.963   5.555
10791POPC   PO466324  41.544  39.980   5.855
10791POPC   GL166325  41.607  39.983   6.155
10791POPC   GL266326  41.629  39.908   6.155
10791POPC   C1A66327  41.583  40.020   6.455
10791POPC   D2A66328  41.545  40.054   6.755
10791POPC   C3A66329  41.557  39.960   7.055
10791POPC   C4A66330  41.528  40.032   7.355
10791POPC   C1B66331  41.617  39.797   6.455
10791POPC   C2B66332  41.644  39.746   6.755
10791POPC   C3B66333  41.660  39.784   7.055
10791POPC   C4B66334  41.612  39.724   7.355
10792POPC   NC366335   0.452  43.159   5.555
10792POPC   PO466336   0.428  43.093   5.855
10792POPC   GL166337   0.481  43.097   6.155
10792POPC   GL266338   0.567  42.993   6.155
10792POPC   C1A66339   0.431  43.143   6.455
10792POPC   D2A66340   0.414  43.075   6.755
10792POPC   C3A66341   0.440  43.145   7.055
10792POPC   C4A66342   0.457  43.089   7.355
10792POPC   C1B66343   0.645  42.978   6.455
10792POPC   C2B66344   0.606  42.988   6.755
10792POPC   C3B66345   0.642  42.979   7.055
10792POPC   C4B66346   0.662  42.978   7.355
10793POPC   NC366347  43.079  11.255   5.555
10793POPC   PO466348  43.063  11.267   5.855
10793POPC   GL166349  43.086  11.291   6.155
10793POPC   GL266350  43.154  11.175   6.155
10793POPC   C1A66351  43.143  11.276   6.455
10793POPC   D2A66352  43.072  11.348   6.755
10793POPC   C3A66353  43.142  11.291   7.055
10793POPC   C4A66354  43.095  11.257   7.355
10793POPC   C1B66355  43.260  11.060   6.455
10793POPC   C2B66356  43.199  11.062   6.755
10793POPC   C3B66357  43.186  11.034   7.055
10793POPC   C4B66358  43.200  11.077   7.355
10794POPC   NC366359  28.345  37.656   5.555
10794POPC   PO466360  28.407  37.677   5.855
10794POPC   GL166361  28.411  37.723   6.155
10794POPC   GL266362  28.439  37.724   6.155
10794POPC   C1A66363  28.345  37.683   6.455
10794POPC   D2A66364  28.364  37.697   6.755
10794POPC   C3A66365  28.378  37.709   7.055
10794POPC   C4A66366  28.402  37.728   7.355
10794POPC   C1B66367  28.549  37.791   6.455
10794POPC   C2B66368  28.625  37.742   6.755
10794POPC   C3B66369  28.612  37.777   7.055
10794POPC   C4B66370  28.569  37.804   7.355
10795POPC   NC366371  41.527   8.929   5.555
10795POPC   PO466372  41.574   8.991   5.855
10795POPC   GL166373  41.569   8.997   6.155
10795POPC   GL266374  41.685   8.923   6.155
10795POPC   C1A66375  41.570   8.998   6.455
10795POPC   D2A66376  41.594   8.957   6.755
10795POPC   C3A66377  41.573   8.939   7.055
10795POPC   C4A66378  41.592   8.937   7.355
10795POPC   C1B66379  41.787   8.963   6.455
10795POPC   C2B66380  41.852   8.947   6.755
10795POPC   C3B66381  41.819   9.003   7.055
10795POPC   C4B66382  41.779   8.973   7.355
10796POPC   NC366383  29.895  15.138   5.555
10796POPC   PO466384  29.907  15.205   5.855
10796POPC   GL166385  29.932  15.212   6.155
10796POPC   GL266386  29.792  15.215   6.155
10796POPC   C1A66387  29.879  15.184   6.455
10796POPC   D2A66388  29.878  15.193   6.755
10796POPC   C3A66389  29.908  15.146   7.055
10796POPC   C4A66390  29.956  15.141   7.355
10796POPC   C1B66391  29.642  15.190   6.455
10796POPC   C2B66392  29.699  15.163   6.755
10796POPC   C3B66393  29.682  15.171   7.055
10796POPC   C4B66394  29.666  15.183   7.355
10797POPC   NC366395  35.380   1.221   5.555
10797POPC   PO466396  35.308   1.177   5.855
10797POPC   GL166397  35.336   1.243   6.155
10797POPC   GL266398  35.427   1.300   6.155
10797POPC   C1A66399  35.386   1.201   6.455
10797POPC   D2A66400  35.353   1.231   6.755
10797POPC   C3A66401  35.389   1.248   7.055
10797POPC   C4A66402  35.357   1.178   7.355
10797POPC   C1B66403  35.511   1.331   6.455
10797POPC   C2B66404  35.550   1.331   6.755
10797POPC   C3B66405  35.547   1.368   7.055
10797POPC   C4B66406  35.588   1.397   7.355
10798POPC   NC366407  38.475  31.485   5.555
10798POPC   PO466408  38.465  31.496   5.855
10798POPC   GL166409  38.412  31.453   6.155
10798POPC   GL266410  38.343  31.433   6.155
10798POPC   C1A66411  38.453  31.478   6.455
10798POPC   D2A66412  38.435  31.448   6.755
10798POPC   C3A66413  38.487  31.520   7.055
10798POPC   C4A66414  38.476  31.491   7.355
10798POPC   C1B66415  38.244  31.346   6.455
10798POPC   C2B66416  38.291  31.327   6.755
10798POPC   C3B66417  38.278  31.362   7.055
10798POPC   C4B66418  38.225  31.355   7.355
10799POPC   NC366419   7.379  14.436   5.555
10799POPC   PO466420   7.452  14.377   5.855
10799POPC   GL166421   7.391  14.421   6.155
10799POPC   GL266422   7.570  14.337   6.155
10799POPC   C1A66423   7.420  14.397   6.455
10799POPC   D2A66424   7.451  14.398   6.755
10799POPC   C3A66425   7.387  14.444   7.055
10799POPC   C4A66426   7.449  14.365   7.355
10799POPC   C1B66427   7.628  14.327   6.455
10799POPC   C2B66428   7.684  14.336   6.755
10799POPC   C3B66429   7.618  14.353   7.055
10799POPC   C4B66430   7.666  14.320   7.355
10800POPC   NC366431   3.508  27.572   5.555
10800POPC   PO466432   3.573  27.625   5.855
10800POPC   GL166433   3.587  27.597   6.155
10800POPC   GL266434   3.633  27.681   6.155
10800POPC   C1A66435   3.537  27.585   6.455
10800POPC   D2A66436   3.497  27.546   6.755
10800POPC   C3A66437   3.553  27.549   7.055
10800POPC   C4A66438   3.563  27.544   7.355
10800POPC   C1B66439   3.671  27.815   6.455
10800POPC   C2B66440   3.649  27.851   6.755
10800POPC   C3B66441   3.597  27.811   7.055
10800POPC   C4B66442   3.653  27.802   7.355
10801POPC   NC366443  22.930   6.687   5.555
10801POPC   PO466444  22.916   6.648   5.855
10801POPC   GL166445  22.923   6.657   6.155
10801POPC   GL266446  23.032   6.620   6.155
10801POPC   C1A66447  22.905   6.690   6.455
10801POPC   D2A66448  22.947   6.694   6.755
10801POPC   C3A66449  22.925   6.638   7.055
10801POPC   C4A66450  22.977   6.685   7.355
10801POPC   C1B66451  23.183   6.554   6.455
10801POPC   C2B66452  23.171   6.546   6.755
10801POPC   C3B66453  23.175   6.550   7.055
10801POPC   C4B66454  23.131   6.501   7.355
10802POPC   NC366455  15.909   2.749   5.555
10802POPC   PO466456  15.982   2.726   5.855
10802POPC   GL166457  15.986   2.719   6.155
10802POPC   GL266458  15.918   2.923   6.155
10802POPC   C1A66459  15.966   2.792   6.455
10802POPC   D2A66460  16.004   2.799   6.755
10802POPC   C3A66461  15.993   2.785   7.055
10802POPC   C4A66462  15.966   2.809   7.355
10802POPC   C1B66463  15.975   2.991   6.455
10802POPC   C2B66464  15.955   3.014   6.755
10802POPC   C3B66465  15.990   2.979   7.055
10802POPC   C4B66466  15.950   3.042   7.355
10803POPC   NC366467  30.739  23.670   5.555
10803POPC   PO466468  30.667  23.673   5.855
10803POPC   GL166469  30.729  23.753   6.155
10803POPC   GL266470  30.744  23.849   6.155
10803POPC   C1A66471  30.663  23.682   6.455
10803POPC   D2A66472  30.656  23.715   6.755
10803POPC   C3A66473  30.651  23.723   7.055
10803POPC   C4A66474  30.713  23.739   7.355
10803POPC   C1B66475  30.751  23.998   6.455
10803POPC   C2B66476  30.734  23.942   6.755
10803POPC   C3B66477  30.738  23.929   7.055
10803POPC   C4B66478  30.737  23.962   7.355
10804POPC   NC366479  28.381  19.105   5.555
10804POPC   PO466480  28.401  19.069   5.855
10804POPC   GL166481  28.370  19.012   6.155
10804POPC   GL266482  28.334  18.966   6.155
10804POPC   C1A66483  28.384  19.098   6.455
10804POPC   D2A66484  28.336  19.030   6.755
10804POPC   C3A66485  28.414  19.027   7.055
10804POPC   C4A66486  28.391  19.029   7.355
10804POPC   C1B66487  28.217  18.881   6.455
10804POPC   C2B66488  28.167  18.918   6.755
10804POPC   C3B66489  28.170  18.837   7.055
10804POPC   C4B66490  28.179  18.858   7.355
10805POPC   NC366491  19.793  20.616   5.555
10805POPC   PO466492  19.875  20.640   5.855
10805POPC   GL166493  19.819  20.651   6.155
10805POPC   GL266494  19.918  20.702   6.155
10805POPC   C1A66495  19.870  20.635   6.455
10805POPC   D2A66496  19.798  20.561   6.755
10805POPC   C3A66497  19.808  20.599   7.055
10805POPC   C4A66498  19.861  20.600   7.355
10805POPC   C1B66499  19.895  20.897   6.455
10805POPC   C2B66500  19.949  20.828   6.755
10805POPC   C3B66501  19.950  20.808   7.055
10805POPC   C4B66502  19.880  20.834   7.355
10806POPC   NC366503  27.576   9.731   5.555
10806POPC   PO466504  27.621   9.733   5.855
10806POPC   GL166505  27.603   9.756   6.155
10806POPC   GL266506  27.515   9.806   6.155
10806POPC   C1A66507  27.551   9.742   6.455
10806POPC   D2A66508  27.582   9.745   6.755
10806POPC   C3A66509  27.640   9.718   7.055
10806POPC   C4A66510  27.556   9.754   7.355
10806POPC   C1B66511  27.482   9.939   6.455
10806POPC   C2B66512  27.453   9.959   6.755
10806POPC   C3B66513  27.444   9.960   7.055
10806POPC   C4B66514  27.448   9.995   7.355
10807POPC   NC366515  33.039  43.912   5.555
10807POPC   PO466516  33.042  43.901   5.855
10807POPC   GL166517  32.978  43.873   6.155
10807POPC   GL266518  33.098  43.799   6.155
10807POPC   C1A66519  33.066  43.926   6.455
10807POPC   D2A66520  32.985  43.857   6.755
10807POPC   C3A66521  33.021  43.934   7.055
10807POPC   C4A66522  33.064  43.896   7.355
10807POPC   C1B66523  33.114  43.639   6.455
10807POPC   C2B66524  33.085  43.599   6.755
10807POPC   C3B66525  33.084  43.683   7.055
10807POPC   C4B66526  33.031  43.676   7.355
10808POPC   NC366527   8.946  25.285   5.555
10808POPC   PO466528   8.943  25.267   5.855
10808POPC   GL166529   8.987  25.275   6.155
10808POPC   GL266530   8.888  25.227   6.155
10808POPC   C1A66531   8.982  25.290   6.455
10808POPC   D2A66532   8.998  25.231   6.755
10808POPC   C3A66533   9.021  25.286   7.055
10808POPC   C4A66534   9.011  25.273   7.355
10808POPC   C1B66535   8.713  25.243   6.455
10808POPC   C2B66536   8.705  25.213   6.755
10808POPC   C3B66537   8.771  25.227   7.055
10808POPC   C4B66538   8.745  25.287   7.355
10809POPC   NC366539  16.005  35.333   5.555
10809POPC   PO466540  15.950  35.324   5.855
10809POPC   GL166541  15.972  35.328   6.155
10809POPC   GL266542  16.062  35.377   6.155
10809POPC   C1A66543  15.943  35.366   6.455
10809POPC   D2A66544  15.960  35.370   6.755
10809POPC   C3A66545  15.982  35.313   7.055
10809POPC   C4A66546  15.916  35.352   7.355
10809POPC   C1B66547  16.120  35.444   6.455
10809POPC   C2B66548  16.188  35.472   6.755
10809POPC   C3B66549  16.162  35.465   7.055
10809POPC   C4B66550  16.135  35.524   7.355
10810POPC   NC366551  34.612   6.611   5.555
10810POPC   PO466552  34.619   6.649   5.855
10810POPC   GL166553  34.579   6.616   6.155
10810POPC   GL266554  34.682   6.623   6.155
10810POPC   C1A66555  34.622   6.674   6.455
10810POPC   D2A66556  34.567   6.676   6.755
10810POPC   C3A66557  34.541   6.685   7.055
10810POPC   C4A66558  34.620   6.671   7.355
10810POPC   C1B66559  34.819   6.494   6.455
10810POPC   C2B66560  34.781   6.515   6.755
10810POPC   C3B66561  34.756   6.511   7.055
10810POPC   C4B66562  34.835   6.525   7.355
10811POPC   NC366563  35.302  37.633   5.555
10811POPC   PO466564  35.333  37.661   5.855
10811POPC   GL166565  35.372  37.727   6.155
10811POPC   GL266566  35.405  37.820   6.155
10811POPC   C1A66567  35.352  37.633   6.455
10811POPC   D2A66568  35.319  37.726   6.755
10811POPC   C3A66569  35.383  37.669   7.055
10811POPC   C4A66570  35.337  37.688   7.355
10811POPC   C1B66571  35.477  37.832   6.455
10811POPC   C2B66572  35.531  37.900   6.755
10811POPC   C3B66573  35.547  37.912   7.055
10811POPC   C4B66574  35.536  37.899   7.355
10812POPC   NC366575   9.738  32.246   5.555
10812POPC   PO466576   9.792  32.293   5.855
10812POPC   GL166577   9.714  32.251   6.155
10812POPC   GL266578   9.740  32.354   6.155
10812POPC   C1A66579   9.715  32.240   6.455
10812POPC   D2A66580   9.778  32.259   6.755
10812POPC   C3A66581   9.778  32.208   7.055
10812POPC   C4A66582   9.742  32.203   7.355
10812POPC   C1B66583   9.840  32.448   6.455
10812POPC   C2B66584   9.802  32.503   6.755
10812POPC   C3B66585   9.846  32.527   7.055
10812POPC   C4B66586   9.779  32.529   7.355
10813POPC   NC366587  11.266   0.432   5.555
10813POPC   PO466588  11.255   0.478   5.855
10813POPC   GL166589  11.320   0.471   6.155
10813POPC   GL266590  11.456   0.513   6.155
10813POPC   C1A66591  11.300   0.459   6.455
10813POPC   D2A66592  11.335   0.415   6.755
10813POPC   C3A66593  11.317   0.426   7.055
10813POPC   C4A66594  11.308   0.479   7.355
10813POPC   C1B66595  11.585   0.465   6.455
10813POPC   C2B66596  11.497   0.504   6.755
10813POPC   C3B66597  11.585   0.525   7.055
10813POPC   C4B66598  11.556   0.471   7.355
10814POPC   NC366599  20.565  21.368   5.555
10814POPC   PO466600  20.636  21.354   5.855
10814POPC   GL166601  20.660  21.346   6.155
10814POPC   GL266602  20.544  21.517   6.155
10814POPC   C1A66603  20.564  21.372   6.455
10814POPC   D2A66604  20.571  21.384   6.755
10814POPC   C3A66605  20.624  21.379   7.055
10814POPC   C4A66606  20.577  21.416   7.355
10814POPC   C1B66607  20.427  21.549   6.455
10814POPC   C2B66608  20.425  21.607   6.755
10814POPC   C3B66609  20.396  21.536   7.055
10814POPC   C4B66610  20.474  21.601   7.355
10815POPC   NC366611  42.368  40.824   5.555
10815POPC   PO466612  42.337  40.737   5.855
10815POPC   GL166613  42.363  40.788   6.155
10815POPC   GL266614  42.277  40.661   6.155
10815POPC   C1A66615  42.319  40.815   6.455
10815POPC   D2A66616  42.323  40.794   6.755
10815POPC   C3A66617  42.365  40.808   7.055
10815POPC   C4A66618  42.359  40.750   7.355
10815POPC   C1B66619  42.222  40.588   6.455
10815POPC   C2B66620  42.184  40.583   6.755
10815POPC   C3B66621  42.207  40.555   7.055
10815POPC   C4B66622  42.190  40.531   7.355
10816POPC   NC366623  19.874  29.888   5.555
10816POPC   PO466624  19.809  29.886   5.855
10816POPC   GL166625  19.811  29.903   6.155
10816POPC   GL266626  19.948  29.846   6.155
10816POPC   C1A66627  19.827  29.883   6.455
10816POPC   D2A66628  19.851  29.892   6.755
10816POPC   C3A66629  19.832  29.913   7.055
10816POPC   C4A66630  19.802  29.949   7.355
10816POPC   C1B66631  20.122  29.896   6.455
10816POPC   C2B66632  20.071  29.828   6.755
10816POPC   C3B66633  20.081  29.858   7.055
10816POPC   C4B66634  20.094  29.865   7.355
10817POPC   NC366635  14.359  12.047   5.555
10817POPC   PO466636  14.431  12.099   5.855
10817POPC   GL166637  14.445  12.082   6.155
10817POPC   GL266638  14.388  12.190   6.155
10817POPC   C1A66639  14.445  12.109   6.455
10817POPC   D2A66640  14.404  12.100   6.755
10817POPC   C3A66641  14.365  12.071   7.055
10817POPC   C4A66642  14.439  12.104   7.355
10817POPC   C1B66643  14.391  12.311   6.455
10817POPC   C2B66644  14.319  12.365   6.755
10817POPC   C3B66645  14.332  12.285   7.055
10817POPC   C4B66646  14.331  12.333   7.355
10818POPC   NC366647  23.668  22.181   5.555
10818POPC   PO466648  23.691  22.151   5.855
10818POPC   GL166649  23.727  22.177   6.155
10818POPC   GL266650  23.669  22.032   6.155
10818POPC   C1A66651  23.733  22.162   6.455
10818POPC   D2A66652  23.679  22.127   6.755
10818POPC   C3A66653  23.697  22.204   7.055
10818POPC   C4A66654  23.667  22.174   7.355
10818POPC   C1B66655  23.643  21.957   6.455
10818POPC   C2B66656  23.646  21.922   6.755
10818POPC   C3B66657  23.641  21.900   7.055
10818POPC   C4B66658  23.624  21.940   7.355
10819POPC   NC366659  41.604   0.421   5.555
10819POPC   PO466660  41.542   0.440   5.855
10819POPC   GL166661  41.522   0.488   6.155
10819POPC   GL266662  41.670   0.508   6.155
10819POPC   C1A66663  41.603   0.456   6.455
10819POPC   D2A66664  41.521   0.426   6.755
10819POPC   C3A66665  41.561   0.408   7.055
10819POPC   C4A66666  41.608   0.399   7.355
10819POPC   C1B66667  41.709   0.584   6.455
10819POPC   C2B66668  41.743   0.575   6.755
10819POPC   C3B66669  41.762   0.649   7.055
10819POPC   C4B66670  41.767   0.637   7.355
10820POPC   NC366671  27.611   7.409   5.555
10820POPC   PO466672  27.546   7.469   5.855
10820POPC   GL166673  27.544   7.469   6.155
10820POPC   GL266674  27.661   7.470   6.155
10820POPC   C1A66675  27.631   7.420   6.455
10820POPC   D2A66676  27.612   7.409   6.755
10820POPC   C3A66677  27.611   7.401   7.055
10820POPC   C4A66678  27.593   7.415   7.355
10820POPC   C1B66679  27.764   7.617   6.455
10820POPC   C2B66680  27.743   7.647   6.755
10820POPC   C3B66681  27.736   7.593   7.055
10820POPC   C4B66682  27.764   7.623   7.355
10821POPC   NC366683   5.119   9.007   5.555
10821POPC   PO466684   5.125   8.964   5.855
10821POPC   GL166685   5.112   8.952   6.155
10821POPC   GL266686   5.221   8.878   6.155
10821POPC   C1A66687   5.091   8.981   6.455
10821POPC   D2A66688   5.073   8.985   6.755
10821POPC   C3A66689   5.118   9.022   7.055
10821POPC   C4A66690   5.127   8.989   7.355
10821POPC   C1B66691   5.322   8.804   6.455
10821POPC   C2B66692   5.280   8.766   6.755
10821POPC   C3B66693   5.330   8.776   7.055
10821POPC   C4B66694   5.278   8.802   7.355
10822POPC   NC366695  36.111  34.563   5.555
10822POPC   PO466696  36.110  34.536   5.855
10822POPC   GL166697  36.134  34.581   6.155
10822POPC   GL266698  36.135  34.432   6.155
10822POPC   C1A66699  36.175  34.592   6.455
10822POPC   D2A66700  36.117  34.527   6.755
10822POPC   C3A66701  36.139  34.581   7.055
10822POPC   C4A66702  36.129  34.528   7.355
10822POPC   C1B66703  36.230  34.314   6.455
10822POPC   C2B66704  36.218  34.321   6.755
10822POPC   C3B66705  36.237  34.305   7.055
10822POPC   C4B66706  36.249  34.299   7.355
10823POPC   NC366707   5.069   3.517   5.555
10823POPC   PO466708   5.047   3.520   5.855
10823POPC   GL166709   5.091   3.535   6.155
10823POPC   GL266710   5.206   3.537   6.155
10823POPC   C1A66711   5.103   3.498   6.455
10823POPC   D2A66712   5.109   3.565   6.755
10823POPC   C3A66713   5.111   3.539   7.055
10823POPC   C4A66714   5.044   3.584   7.355
10823POPC   C1B66715   5.300   3.562   6.455
10823POPC   C2B66716   5.358   3.589   6.755
10823POPC   C3B66717   5.297   3.561   7.055
10823POPC   C4B66718   5.296   3.594   7.355
10824POPC   NC366719   1.174   9.703   5.555
10824POPC   PO466720   1.218   9.699   5.855
10824POPC   GL166721   1.180   9.791   6.155
10824POPC   GL266722   1.358   9.655   6.155
10824POPC   C1A66723   1.222   9.779   6.455
10824POPC   D2A66724   1.180   9.706   6.755
10824POPC   C3A66725   1.260   9.797   7.055
10824POPC   C4A66726   1.192   9.722   7.355
10824POPC   C1B66727   1.471   9.574   6.455
10824POPC   C2B66728   1.473   9.584   6.755
10824POPC   C3B66729   1.395   9.608   7.055
10824POPC   C4B66730   1.432   9.593   7.355
10825POPC   NC366731  18.326  14.359   5.555
10825POPC   PO466732  18.293  14.437   5.855
10825POPC   GL166733  18.267  14.403   6.155
10825POPC   GL266734  18.195  14.269   6.155
10825POPC   C1A66735  18.242  14.429   6.455
10825POPC   D2A66736  18.313  14.373   6.755
10825POPC   C3A66737  18.281  14.427   7.055
10825POPC   C4A66738  18.306  14.407   7.355
10825POPC   C1B66739  18.163  14.205   6.455
10825POPC   C2B66740  18.130  14.225   6.755
10825POPC   C3B66741  18.103  14.214   7.055
10825POPC   C4B66742  18.131  14.226   7.355
10826POPC   NC366743  33.811  42.368   5.555
10826POPC   PO466744  33.795  42.363   5.855
10826POPC   GL166745  33.844  42.336   6.155
10826POPC   GL266746  33.886  42.303   6.155
10826POPC   C1A66747  33.796  42.312   6.455
10826POPC   D2A66748  33.775  42.319   6.755
10826POPC   C3A66749  33.792  42.322   7.055
10826POPC   C4A66750  33.763  42.369   7.355
10826POPC   C1B66751  34.067  42.286   6.455
10826POPC   C2B66752  34.040  42.246   6.755
10826POPC   C3B66753  34.004  42.329   7.055
10826POPC   C4B66754  34.029  42.337   7.355
10827POPC   NC366755  12.887  42.288   5.555
10827POPC   PO466756  12.860  42.292   5.855
10827POPC   GL166757  12.829  42.357   6.155
10827POPC   GL266758  12.991  42.291   6.155
10827POPC   C1A66759  12.867  42.356   6.455
10827POPC   D2A66760  12.870  42.299   6.755
10827POPC   C3A66761  12.897  42.294   7.055
10827POPC   C4A66762  12.815  42.381   7.355
10827POPC   C1B66763  13.049  42.145   6.455
10827POPC   C2B66764  13.043  42.187   6.755
10827POPC   C3B66765  13.079  42.162   7.055
10827POPC   C4B66766  13.104  42.235   7.355
10828POPC   NC366767   9.774  43.895   5.555
10828POPC   PO466768   9.794  43.843   5.855
10828POPC   GL166769   9.774  43.871   6.155
10828POPC   GL266770   9.910  43.838   6.155
10828POPC   C1A66771   9.707  43.859   6.455
10828POPC   D2A66772   9.742  43.872   6.755
10828POPC   C3A66773   9.769  43.917   7.055
10828POPC   C4A66774   9.738  43.872   7.355
10828POPC   C1B66775   9.960  43.786   6.455
10828POPC   C2B66776   9.969  43.770   6.755
10828POPC   C3B66777  10.015  43.802   7.055
10828POPC   C4B66778  10.014  43.764   7.355
10829POPC   NC366779  27.606  15.974   5.555
10829POPC   PO466780  27.574  15.972   5.855
10829POPC   GL166781  27.559  15.962   6.155
10829POPC   GL266782  27.532  15.856   6.155
10829POPC   C1A66783  27.604  15.953   6.455
10829POPC   D2A66784  27.598  15.931   6.755
10829POPC   C3A66785  27.637  15.983   7.055
10829POPC   C4A66786  27.612  15.993   7.355
10829POPC   C1B66787  27.464  15.733   6.455
10829POPC   C2B66788  27.490  15.715   6.755
10829POPC   C3B66789  27.492  15.726   7.055
10829POPC   C4B66790  27.524  15.765   7.355
10830POPC   NC366791  14.376  29.925   5.555
10830POPC   PO466792  14.415  29.909   5.855
10830POPC   GL166793  14.360  29.904   6.155
10830POPC   GL266794  14.250  29.966   6.155
10830POPC   C1A66795  14.393  29.892   6.455
10830POPC   D2A66796  14.451  29.946   6.755
10830POPC   C3A66797  14.371  29.966   7.055
10830POPC   C4A66798  14.395  29.947   7.355
10830POPC   C1B66799  14.159  29.960   6.455
10830POPC   C2B66800  14.135  29.911   6.755
10830POPC   C3B66801  14.133  29.895   7.055
10830POPC   C4B66802  14.110  29.978   7.355
10831POPC   NC366803  26.793   9.718   5.555
10831POPC   PO466804  26.863   9.721   5.855
10831POPC   GL166805  26.771   9.734   6.155
10831POPC   GL266806  26.750   9.904   6.155
10831POPC   C1A66807  26.853   9.796   6.455
10831POPC   D2A66808  26.777   9.798   6.755
10831POPC   C3A66809  26.822   9.725   7.055
10831POPC   C4A66810  26.837   9.788   7.355
10831POPC   C1B66811  26.781   9.958   6.455
10831POPC   C2B66812  26.733   9.964   6.755
10831POPC   C3B66813  26.786  10.006   7.055
10831POPC   C4B66814  26.714   9.960   7.355
10832POPC   NC366815  37.717   9.005   5.555
10832POPC   PO466816  37.719   8.980   5.855
10832POPC   GL166817  37.679   8.953   6.155
10832POPC   GL266818  37.723   9.077   6.155
10832POPC   C1A66819  37.661   8.957   6.455
10832POPC   D2A66820  37.635   8.992   6.755
10832POPC   C3A66821  37.687   8.934   7.055
10832POPC   C4A66822  37.702   9.006   7.355
10832POPC   C1B66823  37.798   9.161   6.455
10832POPC   C2B66824  37.768   9.182   6.755
10832POPC   C3B66825  37.739   9.175   7.055
10832POPC   C4B66826  37.781   9.168   7.355
10833POPC   NC366827  18.325  19.882   5.555
10833POPC   PO466828  18.318  19.833   5.855
10833POPC   GL166829  18.280  19.878   6.155
10833POPC   GL266830  18.201  19.707   6.155
10833POPC   C1A66831  18.279  19.842   6.455
10833POPC   D2A66832  18.309  19.817   6.755
10833POPC   C3A66833  18.311  19.819   7.055
10833POPC   C4A66834  18.303  19.823   7.355
10833POPC   C1B66835  18.196  19.617   6.455
10833POPC   C2B66836  18.176  19.596   6.755
10833POPC   C3B66837  18.206  19.570   7.055
10833POPC   C4B66838  18.150  19.629   7.355
10834POPC   NC366839  31.434  35.386   5.555
10834POPC   PO466840  31.487  35.376   5.855
10834POPC   GL166841  31.506  35.306   6.155
10834POPC   GL266842  31.324  35.393   6.155
10834POPC   C1A66843  31.511  35.342   6.455
10834POPC   D2A66844  31.454  35.354   6.755
10834POPC   C3A66845  31.478  35.349   7.055
10834POPC   C4A66846  31.483  35.346   7.355
10834POPC   C1B66847  31.268  35.494   6.455
10834POPC   C2B66848  31.270  35.539   6.755
10834POPC   C3B66849  31.235  35.489   7.055
10834POPC   C4B66850  31.278  35.541   7.355
10835POPC   NC366851  25.271  26.836   5.555
10835POPC   PO466852  25.270  26.845   5.855
10835POPC   GL166853  25.227  26.811   6.155
10835POPC   GL266854  25.333  26.663   6.155
10835POPC   C1A66855  25.270  26.815   6.455
10835POPC   D2A66856  25.230  26.833   6.755
10835POPC   C3A66857  25.219  26.806   7.055
10835POPC   C4A66858  25.252  26.771   7.355
10835POPC   C1B66859  25.329  26.606   6.455
10835POPC   C2B66860  25.407  26.545   6.755
10835POPC   C3B66861  25.339  26.583   7.055
10835POPC   C4B66862  25.380  26.557   7.355
10836POPC   NC366863  39.962  25.294   5.555
10836POPC   PO466864  40.001  25.268   5.855
10836POPC   GL166865  40.054  25.275   6.155
10836POPC   GL266866  39.948  25.128   6.155
10836POPC   C1A66867  40.048  25.260   6.455
10836POPC   D2A66868  40.002  25.229   6.755
10836POPC   C3A66869  40.024  25.253   7.055
10836POPC   C4A66870  40.013  25.220   7.355
10836POPC   C1B66871  39.883  25.089   6.455
10836POPC   C2B66872  39.849  25.090   6.755
10836POPC   C3B66873  39.892  25.056   7.055
10836POPC   C4B66874  39.861  25.023   7.355
10837POPC   NC366875  38.462  25.315   5.555
10837POPC   PO466876  38.462  25.265   5.855
10837POPC   GL166877  38.431  25.281   6.155
10837POPC   GL266878  38.424  25.376   6.155
10837POPC   C1A66879  38.418  25.287   6.455
10837POPC   D2A66880  38.419  25.288   6.755
10837POPC   C3A66881  38.406  25.304   7.055
10837POPC   C4A66882  38.445  25.300   7.355
10837POPC   C1B66883  38.338  25.503   6.455
10837POPC   C2B66884  38.352  25.497   6.755
10837POPC   C3B66885  38.323  25.456   7.055
10837POPC   C4B66886  38.332  25.457   7.355
10838POPC   NC366887  15.971   0.401   5.555
10838POPC   PO466888  15.912   0.393   5.855
10838POPC   GL166889  15.908   0.418   6.155
10838POPC   GL266890  16.075   0.581   6.155
10838POPC   C1A66891  15.976   0.447   6.455
10838POPC   D2A66892  15.946   0.484   6.755
10838POPC   C3A66893  15.928   0.478   7.055
10838POPC   C4A66894  15.984   0.480   7.355
10838POPC   C1B66895  16.114   0.588   6.455
10838POPC   C2B66896  16.075   0.674   6.755
10838POPC   C3B66897  16.160   0.600   7.055
10838POPC   C4B66898  16.096   0.679   7.355
10839POPC   NC366899  35.323  38.430   5.555
10839POPC   PO466900  35.338  38.446   5.855
10839POPC   GL166901  35.343  38.420   6.155
10839POPC   GL266902  35.431  38.522   6.155
10839POPC   C1A66903  35.369  38.407   6.455
10839POPC   D2A66904  35.381  38.505   6.755
10839POPC   C3A66905  35.328  38.434   7.055
10839POPC   C4A66906  35.375  38.480   7.355
10839POPC   C1B66907  35.586  38.513   6.455
10839POPC   C2B66908  35.583  38.522   6.755
10839POPC   C3B66909  35.585  38.546   7.055
10839POPC   C4B66910  35.624  38.571   7.355
10840POPC   NC366911  44.687  42.380   5.555
10840POPC   PO466912  44.699  42.380   5.855
10840POPC   GL166913  44.669  42.326   6.155
10840POPC   GL266914  44.654  42.241   6.155
10840POPC   C1A66915  44.658  42.363   6.455
10840POPC   D2A66916  44.675  42.285   6.755
10840POPC   C3A66917  44.705  42.301   7.055
10840POPC   C4A66918  44.660  42.361   7.355
10840POPC   C1B66919  44.705  42.125   6.455
10840POPC   C2B66920  44.711  42.067   6.755
10840POPC   C3B66921  44.723  42.114   7.055
10840POPC   C4B66922  44.732  42.075   7.355
10841POPC   NC366923  22.961   7.391   5.555
10841POPC   PO466924  22.982   7.398   5.855
10841POPC   GL166925  22.905   7.437   6.155
10841POPC   GL266926  22.780   7.409   6.155
10841POPC   C1A66927  22.951   7.446   6.455
10841POPC   D2A66928  22.926   7.451   6.755
10841POPC   C3A66929  22.950   7.389   7.055
10841POPC   C4A66930  22.900   7.432   7.355
10841POPC   C1B66931  22.654   7.447   6.455
10841POPC   C2B66932  22.716   7.441   6.755
10841POPC   C3B66933  22.723   7.438   7.055
10841POPC   C4B66934  22.719   7.470   7.355
10842POPC   NC366935  40.037  19.107   5.555
10842POPC   PO466936  40.012  19.076   5.855
10842POPC   GL166937  40.052  19.011   6.155
10842POPC   GL266938  39.951  18.966   6.155
10842POPC   C1A66939  39.960  19.054   6.455
10842POPC   D2A66940  40.014  19.050   6.755
10842POPC   C3A66941  39.965  19.096   7.055
10842POPC   C4A66942  40.005  19.104   7.355
10842POPC   C1B66943  39.973  18.831   6.455
10842POPC   C2B66944  40.029  18.815   6.755
10842POPC   C3B66945  39.991  18.815   7.055
10842POPC   C4B66946  39.948  18.782   7.355
10843POPC   NC366947   0.448   6.692   5.555
10843POPC   PO466948   0.432   6.613   5.855
10843POPC   GL166949   0.442   6.688   6.155
10843POPC   GL266950   0.346   6.719   6.155
10843POPC   C1A66951   0.447   6.680   6.455
10843POPC   D2A66952   0.466   6.620   6.755
10843POPC   C3A66953   0.444   6.694   7.055
10843POPC   C4A66954   0.414   6.662   7.355
10843POPC   C1B66955   0.301   6.842   6.455
10843POPC   C2B66956   0.336   6.903   6.755
10843POPC   C3B66957   0.274   6.875   7.055
10843POPC   C4B66958   0.287   6.911   7.355
10844POPC   NC366959  36.153  22.180   5.555
10844POPC   PO466960  36.105  22.119   5.855
10844POPC   GL166961  36.109  22.154   6.155
10844POPC   GL266962  36.139  22.258   6.155
10844POPC   C1A66963  36.148  22.168   6.455
10844POPC   D2A66964  36.177  22.160   6.755
10844POPC   C3A66965  36.096  22.128   7.055
10844POPC   C4A66966  36.119  22.204   7.355
10844POPC   C1B66967  36.098  22.409   6.455
10844POPC   C2B66968  36.138  22.460   6.755
10844POPC   C3B66969  36.052  22.426   7.055
10844POPC   C4B66970  36.080  22.436   7.355
10845POPC   NC366971   4.315  27.590   5.555
10845POPC   PO466972   4.362  27.568   5.855
10845POPC   GL166973   4.335  27.623   6.155
10845POPC   GL266974   4.291  27.729   6.155
10845POPC   C1A66975   4.354  27.622   6.455
10845POPC   D2A66976   4.286  27.600   6.755
10845POPC   C3A66977   4.367  27.583   7.055
10845POPC   C4A66978   4.296  27.608   7.355
10845POPC   C1B66979   4.175  27.769   6.455
10845POPC   C2B66980   4.222  27.818   6.755
10845POPC   C3B66981   4.133  27.812   7.055
10845POPC   C4B66982   4.207  27.783   7.355
10846POPC   NC366983   5.845   9.722   5.555
10846POPC   PO466984   5.917   9.750   5.855
10846POPC   GL166985   5.832   9.733   6.155
10846POPC   GL266986   5.970   9.645   6.155
10846POPC   C1A66987   5.905   9.790   6.455
10846POPC   D2A66988   5.830   9.786   6.755
10846POPC   C3A66989   5.851   9.795   7.055
10846POPC   C4A66990   5.834   9.777   7.355
10846POPC   C1B66991   5.991   9.524   6.455
10846POPC   C2B66992   5.969   9.495   6.755
10846POPC   C3B66993   5.990   9.568   7.055
10846POPC   C4B66994   6.014   9.519   7.355
10847POPC   NC366995  29.141  37.656   5.555
10847POPC   PO466996  29.095  37.666   5.855
10847POPC   GL166997  29.122  37.670   6.155
10847POPC   GL266998  29.123  37.577   6.155
10847POPC   C1A66999  29.133  37.708   6.455
10847POPC   D2A67000  29.098  37.669   6.755
10847POPC   C3A67001  29.151  37.680   7.055
10847POPC   C4A67002  29.151  37.687   7.355
10847POPC   C1B67003  29.098  37.405   6.455
10847POPC   C2B67004  29.161  37.439   6.755
10847POPC   C3B67005  29.162  37.430   7.055
10847POPC   C4B67006  29.145  37.388   7.355
10848POPC   NC367007  43.905  10.507   5.555
10848POPC   PO467008  43.894  10.519   5.855
10848POPC   GL167009  43.873  10.484   6.155
10848POPC   GL267010  43.931  10.630   6.155
10848POPC   C1A67011  43.910  10.551   6.455
10848POPC   D2A67012  43.891  10.487   6.755
10848POPC   C3A67013  43.892  10.482   7.055
10848POPC   C4A67014  43.868  10.545   7.355
10848POPC   C1B67015  44.086  10.689   6.455
10848POPC   C2B67016  44.107  10.690   6.755
10848POPC   C3B67017  44.107  10.725   7.055
10848POPC   C4B67018  44.114  10.709   7.355
10849POPC   NC367019   5.914  16.727   5.555
10849POPC   PO467020   5.856  16.752   5.855
10849POPC   GL167021   5.868  16.727   6.155
10849POPC   GL267022   5.761  16.721   6.155
10849POPC   C1A67023   5.848  16.776   6.455
10849POPC   D2A67024   5.855  16.747   6.755
10849POPC   C3A67025   5.883  16.767   7.055
10849POPC   C4A67026   5.906  16.776   7.355
10849POPC   C1B67027   5.627  16.737   6.455
10849POPC   C2B67028   5.659  16.787   6.755
10849POPC   C3B67029   5.669  16.739   7.055
10849POPC   C4B67030   5.592  16.768   7.355
10850POPC   NC367031  20.577  26.842   5.555
10850POPC   PO467032  20.659  26.802   5.855
10850POPC   GL167033  20.579  26.808   6.155
10850POPC   GL267034  20.696  26.844   6.155
10850POPC   C1A67035  20.582  26.810   6.455
10850POPC   D2A67036  20.616  26.829   6.755
10850POPC   C3A67037  20.588  26.804   7.055
10850POPC   C4A67038  20.573  26.773   7.355
10850POPC   C1B67039  20.851  26.825   6.455
10850POPC   C2B67040  20.817  26.850   6.755
10850POPC   C3B67041  20.872  26.855   7.055
10850POPC   C4B67042  20.837  26.837   7.355
10851POPC   NC367043  43.112   6.607   5.555
10851POPC   PO467044  43.154   6.658   5.855
10851POPC   GL167045  43.133   6.656   6.155
10851POPC   GL267046  43.107   6.550   6.155
10851POPC   C1A67047  43.063   6.615   6.455
10851POPC   D2A67048  43.112   6.655   6.755
10851POPC   C3A67049  43.095   6.676   7.055
10851POPC   C4A67050  43.090   6.612   7.355
10851POPC   C1B67051  43.135   6.407   6.455
10851POPC   C2B67052  43.196   6.349   6.755
10851POPC   C3B67053  43.191   6.398   7.055
10851POPC   C4B67054  43.117   6.392   7.355
10852POPC   NC367055   9.732  19.019   5.555
10852POPC   PO467056   9.758  19.090   5.855
10852POPC   GL167057   9.793  19.024   6.155
10852POPC   GL267058   9.799  18.944   6.155
10852POPC   C1A67059   9.736  19.049   6.455
10852POPC   D2A67060   9.720  19.049   6.755
10852POPC   C3A67061   9.763  19.097   7.055
10852POPC   C4A67062   9.701  19.022   7.355
10852POPC   C1B67063   9.816  18.778   6.455
10852POPC   C2B67064   9.861  18.818   6.755
10852POPC   C3B67065   9.791  18.813   7.055
10852POPC   C4B67066   9.824  18.824   7.355
10853POPC   NC367067  37.633  19.877   5.555
10853POPC   PO467068  37.663  19.810   5.855
10853POPC   GL167069  37.630  19.880   6.155
10853POPC   GL267070  37.598  19.702   6.155
10853POPC   C1A67071  37.665  19.835   6.455
10853POPC   D2A67072  37.706  19.834   6.755
10853POPC   C3A67073  37.651  19.832   7.055
10853POPC   C4A67074  37.710  19.806   7.355
10853POPC   C1B67075  37.580  19.610   6.455
10853POPC   C2B67076  37.565  19.585   6.755
10853POPC   C3B67077  37.558  19.582   7.055
10853POPC   C4B67078  37.544  19.641   7.355
10854POPC   NC367079  10.505   6.688   5.555
10854POPC   PO467080  10.538   6.607   5.855
10854POPC   GL167081  10.481   6.609   6.155
10854POPC   GL267082  10.578   6.771   6.155
10854POPC   C1A67083  10.500   6.622   6.455
10854POPC   D2A67084  10.557   6.687   6.755
10854POPC   C3A67085  10.497   6.668   7.055
10854POPC   C4A67086  10.541   6.603   7.355
10854POPC   C1B67087  10.544   6.930   6.455
10854POPC   C2B67088  10.543   6.872   6.755
10854POPC   C3B67089  10.586   6.865   7.055
10854POPC   C4B67090  10.498   6.868   7.355
10855POPC   NC367091   1.173  24.475   5.555
10855POPC   PO467092   1.190  24.443   5.855
10855POPC   GL167093   1.209  24.505   6.155
10855POPC   GL267094   1.098  24.584   6.155
10855POPC   C1A67095   1.242  24.494   6.455
10855POPC   D2A67096   1.187  24.493   6.755
10855POPC   C3A67097   1.259  24.496   7.055
10855POPC   C4A67098   1.247  24.479   7.355
10855POPC   C1B67099   1.088  24.661   6.455
10855POPC   C2B67100   1.008  24.645   6.755
10855POPC   C3B67101   1.002  24.639   7.055
10855POPC   C4B67102   1.071  24.711   7.355
10856POPC   NC367103  13.591  26.855   5.555
10856POPC   PO467104  13.659  26.768   5.855
10856POPC   GL167105  13.623  26.854   6.155
10856POPC   GL267106  13.697  26.703   6.155
10856POPC   C1A67107  13.666  26.866   6.455
10856POPC   D2A67108  13.595  26.853   6.755
10856POPC   C3A67109  13.646  26.827   7.055
10856POPC   C4A67110  13.612  26.826   7.355
10856POPC   C1B67111  13.656  26.533   6.455
10856POPC   C2B67112  13.732  26.558   6.755
10856POPC   C3B67113  13.688  26.609   7.055
10856POPC   C4B67114  13.642  26.614   7.355
10857POPC   NC367115  29.157  36.120   5.555
10857POPC   PO467116  29.133  36.095   5.855
10857POPC   GL167117  29.156  36.149   6.155
10857POPC   GL267118  29.056  36.245   6.155
10857POPC   C1A67119  29.125  36.133   6.455
10857POPC   D2A67120  29.131  36.155   6.755
10857POPC   C3A67121  29.115  36.116   7.055
10857POPC   C4A67122  29.141  36.094   7.355
10857POPC   C1B67123  29.035  36.301   6.455
10857POPC   C2B67124  28.980  36.356   6.755
10857POPC   C3B67125  29.017  36.304   7.055
10857POPC   C4B67126  28.998  36.357   7.355
10858POPC   NC367127  44.687  43.897   5.555
10858POPC   PO467128  44.668  43.872   5.855
10858POPC   GL167129  44.631  43.905   6.155
10858POPC   GL267130  44.733  43.822   6.155
10858POPC   C1A67131  44.616  43.908   6.455
10858POPC   D2A67132  44.675  43.933   6.755
10858POPC   C3A67133  44.656  43.865   7.055
10858POPC   C4A67134  44.630  43.844   7.355
10858POPC   C1B67135  44.894  43.777   6.455
10858POPC   C2B67136  44.888  43.705   6.755
10858POPC   C3B67137  44.837  43.757   7.055
10858POPC   C4B67138  44.844  43.737   7.355
10859POPC   NC367139   8.211  14.392   5.555
10859POPC   PO467140   8.246  14.447   5.855
10859POPC   GL167141   8.181  14.404   6.155
10859POPC   GL267142   8.254  14.329   6.155
10859POPC   C1A67143   8.194  14.386   6.455
10859POPC   D2A67144   8.216  14.420   6.755
10859POPC   C3A67145   8.173  14.422   7.055
10859POPC   C4A67146   8.238  14.367   7.355
10859POPC   C1B67147   8.314  14.171   6.455
10859POPC   C2B67148   8.302  14.206   6.755
10859POPC   C3B67149   8.309  14.186   7.055
10859POPC   C4B67150   8.341  14.150   7.355
10860POPC   NC367151  11.314  14.438   5.555
10860POPC   PO467152  11.301  14.432   5.855
10860POPC   GL167153  11.291  14.382   6.155
10860POPC   GL267154  11.363  14.478   6.155
10860POPC   C1A67155  11.297  14.434   6.455
10860POPC   D2A67156  11.322  14.368   6.755
10860POPC   C3A67157  11.305  14.398   7.055
10860POPC   C4A67158  11.301  14.398   7.355
10860POPC   C1B67159  11.399  14.631   6.455
10860POPC   C2B67160  11.439  14.649   6.755
10860POPC   C3B67161  11.495  14.653   7.055
10860POPC   C4B67162  11.426  14.626   7.355
10861POPC   NC367163  43.844  19.047   5.555
10861POPC   PO467164  43.932  19.014   5.855
10861POPC   GL167165  43.898  19.105   6.155
10861POPC   GL267166  43.801  19.121   6.155
10861POPC   C1A67167  43.924  19.102   6.455
10861POPC   D2A67168  43.896  19.050   6.755
10861POPC   C3A67169  43.916  19.032   7.055
10861POPC   C4A67170  43.930  19.013   7.355
10861POPC   C1B67171  43.704  19.126   6.455
10861POPC   C2B67172  43.631  19.161   6.755
10861POPC   C3B67173  43.649  19.153   7.055
10861POPC   C4B67174  43.636  19.140   7.355
10862POPC   NC367175   2.814   5.066   5.555
10862POPC   PO467176   2.807   5.128   5.855
10862POPC   GL167177   2.788   5.095   6.155
10862POPC   GL267178   2.805   5.011   6.155
10862POPC   C1A67179   2.723   5.136   6.455
10862POPC   D2A67180   2.722   5.095   6.755
10862POPC   C3A67181   2.719   5.117   7.055
10862POPC   C4A67182   2.762   5.118   7.355
10862POPC   C1B67183   2.854   4.901   6.455
10862POPC   C2B67184   2.926   4.864   6.755
10862POPC   C3B67185   2.873   4.873   7.055
10862POPC   C4B67186   2.936   4.920   7.355
10863POPC   NC367187  42.369  25.279   5.555
10863POPC   PO467188  42.347  25.265   5.855
10863POPC   GL167189  42.307  25.246   6.155
10863POPC   GL267190  42.432  25.177   6.155
10863POPC   C1A67191  42.364  25.299   6.455
10863POPC   D2A67192  42.369  25.275   6.755
10863POPC   C3A67193  42.375  25.299   7.055
10863POPC   C4A67194  42.337  25.314   7.355
10863POPC   C1B67195  42.468  25.029   6.455
10863POPC   C2B67196  42.532  25.055   6.755
10863POPC   C3B67197  42.467  25.068   7.055
10863POPC   C4B67198  42.513  25.052   7.355
10864POPC   NC367199   8.231   2.794   5.555
10864POPC   PO467200   8.226   2.741   5.855
10864POPC   GL167201   8.165   2.747   6.155
10864POPC   GL267202   8.099   2.686   6.155
10864POPC   C1A67203   8.168   2.755   6.455
10864POPC   D2A67204   8.151   2.727   6.755
10864POPC   C3A67205   8.193   2.800   7.055
10864POPC   C4A67206   8.158   2.770   7.355
10864POPC   C1B67207   8.021   2.551   6.455
10864POPC   C2B67208   7.995   2.552   6.755
10864POPC   C3B67209   8.041   2.612   7.055
10864POPC   C4B67210   8.017   2.548   7.355
10865POPC   NC367211   4.332   4.328   5.555
10865POPC   PO467212   4.279   4.280   5.855
10865POPC   GL167213   4.289   4.305   6.155
10865POPC   GL267214   4.269   4.419   6.155
10865POPC   C1A67215   4.278   4.345   6.455
10865POPC   D2A67216   4.283   4.330   6.755
10865POPC   C3A67217   4.313   4.338   7.055
10865POPC   C4A67218   4.365   4.275   7.355
10865POPC   C1B67219   4.160   4.492   6.455
10865POPC   C2B67220   4.084   4.510   6.755
10865POPC   C3B67221   4.084   4.497   7.055
10865POPC   C4B67222   4.121   4.494   7.355
10866POPC   NC367223  15.968  26.815   5.555
10866POPC   PO467224  15.920  26.789   5.855
10866POPC   GL167225  15.970  26.789   6.155
10866POPC   GL267226  15.964  26.744   6.155
10866POPC   C1A67227  15.980  26.826   6.455
10866POPC   D2A67228  15.975  26.850   6.755
10866POPC   C3A67229  15.989  26.821   7.055
10866POPC   C4A67230  15.932  26.866   7.355
10866POPC   C1B67231  16.107  26.549   6.455
10866POPC   C2B67232  16.053  26.604   6.755
10866POPC   C3B67233  16.026  26.619   7.055
10866POPC   C4B67234  16.069  26.578   7.355
10867POPC   NC367235   5.101  14.366   5.555
10867POPC   PO467236   5.067  14.438   5.855
10867POPC   GL167237   5.076  14.419   6.155
10867POPC   GL267238   4.958  14.312   6.155
10867POPC   C1A67239   5.116  14.358   6.455
10867POPC   D2A67240   5.072  14.375   6.755
10867POPC   C3A67241   5.054  14.357   7.055
10867POPC   C4A67242   5.127  14.355   7.355
10867POPC   C1B67243   4.862  14.336   6.455
10867POPC   C2B67244   4.894  14.310   6.755
10867POPC   C3B67245   4.829  14.310   7.055
10867POPC   C4B67246   4.881  14.356   7.355
10868POPC   NC367247  28.400  42.307   5.555
10868POPC   PO467248  28.366  42.380   5.855
10868POPC   GL167249  28.360  42.369   6.155
10868POPC   GL267250  28.237  42.417   6.155
10868POPC   C1A67251  28.373  42.362   6.455
10868POPC   D2A67252  28.330  42.375   6.755
10868POPC   C3A67253  28.332  42.287   7.055
10868POPC   C4A67254  28.354  42.373   7.355
10868POPC   C1B67255  28.137  42.437   6.455
10868POPC   C2B67256  28.133  42.472   6.755
10868POPC   C3B67257  28.145  42.403   7.055
10868POPC   C4B67258  28.164  42.415   7.355
10869POPC   NC367259  17.546   0.454   5.555
10869POPC   PO467260  17.520   0.413   5.855
10869POPC   GL167261  17.486   0.402   6.155
10869POPC   GL267262  17.487   0.587   6.155
10869POPC   C1A67263  17.496   0.458   6.455
10869POPC   D2A67264  17.518   0.473   6.755
10869POPC   C3A67265  17.527   0.442   7.055
10869POPC   C4A67266  17.523   0.442   7.355
10869POPC   C1B67267  17.520   0.735   6.455
10869POPC   C2B67268  17.437   0.733   6.755
10869POPC   C3B67269  17.436   0.688   7.055
10869POPC   C4B67270  17.509   0.707   7.355
10870POPC   NC367271   0.465   0.487   5.555
10870POPC   PO467272   0.396   0.439   5.855
10870POPC   GL167273   0.410   0.409   6.155
10870POPC   GL267274   0.358   0.478   6.155
10870POPC   C1A67275   0.449   0.393   6.455
10870POPC   D2A67276   0.400   0.394   6.755
10870POPC   C3A67277   0.436   0.466   7.055
10870POPC   C4A67278   0.463   0.410   7.355
10870POPC   C1B67279   0.292   0.572   6.455
10870POPC   C2B67280   0.268   0.566   6.755
10870POPC   C3B67281   0.296   0.632   7.055
10870POPC   C4B67282   0.222   0.612   7.355
10871POPC   NC367283  10.477  26.797   5.555
10871POPC   PO467284  10.551  26.824   5.855
10871POPC   GL167285  10.509  26.787   6.155
10871POPC   GL267286  10.378  26.753   6.155
10871POPC   C1A67287  10.502  26.847   6.455
10871POPC   D2A67288  10.493  26.849   6.755
10871POPC   C3A67289  10.520  26.782   7.055
10871POPC   C4A67290  10.488  26.802   7.355
10871POPC   C1B67291  10.273  26.702   6.455
10871POPC   C2B67292  10.297  26.682   6.755
10871POPC   C3B67293  10.323  26.696   7.055
10871POPC   C4B67294  10.316  26.719   7.355
10872POPC   NC367295  25.274  36.132   5.555
10872POPC   PO467296  25.232  36.096   5.855
10872POPC   GL167297  25.253  36.137   6.155
10872POPC   GL267298  25.244  36.281   6.155
10872POPC   C1A67299  25.250  36.143   6.455
10872POPC   D2A67300  25.233  36.158   6.755
10872POPC   C3A67301  25.303  36.124   7.055
10872POPC   C4A67302  25.250  36.129   7.355
10872POPC   C1B67303  25.172  36.293   6.455
10872POPC   C2B67304  25.124  36.337   6.755
10872POPC   C3B67305  25.150  36.334   7.055
10872POPC   C4B67306  25.128  36.294   7.355
10873POPC   NC367307  41.597  24.516   5.555
10873POPC   PO467308  41.561  24.527   5.855
10873POPC   GL167309  41.565  24.533   6.155
10873POPC   GL267310  41.548  24.567   6.155
10873POPC   C1A67311  41.544  24.526   6.455
10873POPC   D2A67312  41.522  24.469   6.755
10873POPC   C3A67313  41.606  24.450   7.055
10873POPC   C4A67314  41.582  24.483   7.355
10873POPC   C1B67315  41.479  24.757   6.455
10873POPC   C2B67316  41.429  24.704   6.755
10873POPC   C3B67317  41.415  24.726   7.055
10873POPC   C4B67318  41.440  24.716   7.355
10874POPC   NC367319  39.202   8.962   5.555
10874POPC   PO467320  39.221   8.964   5.855
10874POPC   GL167321  39.191   8.977   6.155
10874POPC   GL267322  39.134   8.993   6.155
10874POPC   C1A67323  39.243   8.971   6.455
10874POPC   D2A67324  39.265   8.972   6.755
10874POPC   C3A67325  39.219   8.972   7.055
10874POPC   C4A67326  39.196   8.936   7.355
10874POPC   C1B67327  38.991   9.080   6.455
10874POPC   C2B67328  39.017   9.145   6.755
10874POPC   C3B67329  39.030   9.081   7.055
10874POPC   C4B67330  39.016   9.146   7.355
10875POPC   NC367331  23.759   9.714   5.555
10875POPC   PO467332  23.690   9.777   5.855
10875POPC   GL167333  23.723   9.781   6.155
10875POPC   GL267334  23.758   9.654   6.155
10875POPC   C1A67335  23.736   9.711   6.455
10875POPC   D2A67336  23.722   9.765   6.755
10875POPC   C3A67337  23.679   9.726   7.055
10875POPC   C4A67338  23.756   9.783   7.355
10875POPC   C1B67339  23.907   9.599   6.455
10875POPC   C2B67340  23.834   9.593   6.755
10875POPC   C3B67341  23.894   9.544   7.055
10875POPC   C4B67342  23.848   9.523   7.355
10876POPC   NC367343  35.324   9.015   5.555
10876POPC   PO467344  35.376   8.974   5.855
10876POPC   GL167345  35.373   8.989   6.155
10876POPC   GL267346  35.455   8.882   6.155
10876POPC   C1A67347  35.393   9.004   6.455
10876POPC   D2A67348  35.370   8.942   6.755
10876POPC   C3A67349  35.377   8.958   7.055
10876POPC   C4A67350  35.321   8.954   7.355
10876POPC   C1B67351  35.533   8.853   6.455
10876POPC   C2B67352  35.587   8.787   6.755
10876POPC   C3B67353  35.563   8.825   7.055
10876POPC   C4B67354  35.604   8.825   7.355
10877POPC   NC367355  26.822  44.664   5.555
10877POPC   PO467356  26.796  44.635   5.855
10877POPC   GL167357  26.810  44.703   6.155
10877POPC   GL267358  26.748  44.546   6.155
10877POPC   C1A67359  26.848  44.673   6.455
10877POPC   D2A67360  26.859  44.704   6.755
10877POPC   C3A67361  26.782  44.617   7.055
10877POPC   C4A67362  26.805  44.696   7.355
10877POPC   C1B67363  26.698  44.453   6.455
10877POPC   C2B67364  26.687  44.447   6.755
10877POPC   C3B67365  26.674  44.436   7.055
10877POPC   C4B67366  26.683  44.467   7.355
10878POPC   NC367367   0.398  22.132   5.555
10878POPC   PO467368   0.398  22.191   5.855
10878POPC   GL167369   0.429  22.211   6.155
10878POPC   GL267370   0.589  22.204   6.155
10878POPC   C1A67371   0.446  22.151   6.455
10878POPC   D2A67372   0.443  22.141   6.755
10878POPC   C3A67373   0.482  22.138   7.055
10878POPC   C4A67374   0.488  22.173   7.355
10878POPC   C1B67375   0.699  22.270   6.455
10878POPC   C2B67376   0.701  22.274   6.755
10878POPC   C3B67377   0.639  22.265   7.055
10878POPC   C4B67378   0.634  22.218   7.355
10879POPC   NC367379  32.278  21.420   5.555
10879POPC   PO467380  32.241  21.427   5.855
10879POPC   GL167381  32.258  21.385   6.155
10879POPC   GL267382  32.085  21.363   6.155
10879POPC   C1A67383  32.247  21.342   6.455
10879POPC   D2A67384  32.236  21.393   6.755
10879POPC   C3A67385  32.261  21.404   7.055
10879POPC   C4A67386  32.280  21.392   7.355
10879POPC   C1B67387  32.023  21.341   6.455
10879POPC   C2B67388  31.984  21.376   6.755
10879POPC   C3B67389  31.985  21.356   7.055
10879POPC   C4B67390  32.012  21.309   7.355
10880POPC   NC367391  10.477  37.711   5.555
10880POPC   PO467392  10.509  37.672   5.855
10880POPC   GL167393  10.569  37.643   6.155
10880POPC   GL267394  10.550  37.776   6.155
10880POPC   C1A67395  10.562  37.690   6.455
10880POPC   D2A67396  10.502  37.711   6.755
10880POPC   C3A67397  10.542  37.653   7.055
10880POPC   C4A67398  10.545  37.685   7.355
10880POPC   C1B67399  10.662  37.872   6.455
10880POPC   C2B67400  10.624  37.875   6.755
10880POPC   C3B67401  10.671  37.896   7.055
10880POPC   C4B67402  10.650  37.878   7.355
10881POPC   NC367403  42.322   8.202   5.555
10881POPC   PO467404  42.321   8.150   5.855
10881POPC   GL167405  42.306   8.209   6.155
10881POPC   GL267406  42.331   8.054   6.155
10881POPC   C1A67407  42.292   8.224   6.455
10881POPC   D2A67408  42.292   8.190   6.755
10881POPC   C3A67409  42.377   8.171   7.055
10881POPC   C4A67410  42.341   8.197   7.355
10881POPC   C1B67411  42.332   7.973   6.455
10881POPC   C2B67412  42.391   7.942   6.755
10881POPC   C3B67413  42.395   7.991   7.055
10881POPC   C4B67414  42.336   7.961   7.355
10882POPC   NC367415  36.874   2.018   5.555
10882POPC   PO467416  36.891   1.991   5.855
10882POPC   GL167417  36.895   1.979   6.155
10882POPC   GL267418  37.066   1.912   6.155
10882POPC   C1A67419  36.946   1.981   6.455
10882POPC   D2A67420  36.948   1.963   6.755
10882POPC   C3A67421  36.906   2.038   7.055
10882POPC   C4A67422  36.868   2.034   7.355
10882POPC   C1B67423  37.173   1.935   6.455
10882POPC   C2B67424  37.127   1.953   6.755
10882POPC   C3B67425  37.097   1.960   7.055
10882POPC   C4B67426  37.116   1.927   7.355
10883POPC   NC367427  19.836   8.185   5.555
10883POPC   PO467428  19.814   8.197   5.855
10883POPC   GL167429  19.833   8.154   6.155
10883POPC   GL267430  19.922   8.222   6.155
10883POPC   C1A67431  19.809   8.209   6.455
10883POPC   D2A67432  19.849   8.209   6.755
10883POPC   C3A67433  19.847   8.225   7.055
10883POPC   C4A67434  19.842   8.220   7.355
10883POPC   C1B67435  20.081   8.281   6.455
10883POPC   C2B67436  20.090   8.368   6.755
10883POPC   C3B67437  20.013   8.279   7.055
10883POPC   C4B67438  20.079   8.285   7.355
10884POPC   NC367439   6.631  28.393   5.555
10884POPC   PO467440   6.633  28.386   5.855
10884POPC   GL167441   6.652  28.389   6.155
10884POPC   GL267442   6.510  28.371   6.155
10884POPC   C1A67443   6.634  28.350   6.455
10884POPC   D2A67444   6.678  28.416   6.755
10884POPC   C3A67445   6.663  28.413   7.055
10884POPC   C4A67446   6.643  28.373   7.355
10884POPC   C1B67447   6.402  28.406   6.455
10884POPC   C2B67448   6.433  28.447   6.755
10884POPC   C3B67449   6.419  28.456   7.055
10884POPC   C4B67450   6.383  28.482   7.355
10885POPC   NC367451   3.507   3.527   5.555
10885POPC   PO467452   3.534   3.581   5.855
10885POPC   GL167453   3.497   3.590   6.155
10885POPC   GL267454   3.505   3.429   6.155
10885POPC   C1A67455   3.495   3.571   6.455
10885POPC   D2A67456   3.561   3.545   6.755
10885POPC   C3A67457   3.544   3.549   7.055
10885POPC   C4A67458   3.555   3.538   7.355
10885POPC   C1B67459   3.363   3.341   6.455
10885POPC   C2B67460   3.347   3.359   6.755
10885POPC   C3B67461   3.349   3.350   7.055
10885POPC   C4B67462   3.391   3.351   7.355
10886POPC   NC367463  10.517  42.337   5.555
10886POPC   PO467464  10.498  42.323   5.855
10886POPC   GL167465  10.507  42.314   6.155
10886POPC   GL267466  10.646  42.296   6.155
10886POPC   C1A67467  10.539  42.352   6.455
10886POPC   D2A67468  10.476  42.354   6.755
10886POPC   C3A67469  10.488  42.330   7.055
10886POPC   C4A67470  10.485  42.358   7.355
10886POPC   C1B67471  10.815  42.340   6.455
10886POPC   C2B67472  10.819  42.387   6.755
10886POPC   C3B67473  10.763  42.352   7.055
10886POPC   C4B67474  10.728  42.328   7.355
10887POPC   NC367475  22.922   4.312   5.555
10887POPC   PO467476  22.901   4.317   5.855
10887POPC   GL167477  22.916   4.349   6.155
10887POPC   GL267478  23.052   4.279   6.155
10887POPC   C1A67479  22.907   4.332   6.455
10887POPC   D2A67480  22.969   4.346   6.755
10887POPC   C3A67481  22.986   4.321   7.055
10887POPC   C4A67482  22.935   4.290   7.355
10887POPC   C1B67483  23.174   4.156   6.455
10887POPC   C2B67484  23.188   4.197   6.755
10887POPC   C3B67485  23.129   4.141   7.055
10887POPC   C4B67486  23.095   4.184   7.355
10888POPC   NC367487  30.667  43.914   5.555
10888POPC   PO467488  30.707  43.890   5.855
10888POPC   GL167489  30.660  43.931   6.155
10888POPC   GL267490  30.559  43.977   6.155
10888POPC   C1A67491  30.679  43.847   6.455
10888POPC   D2A67492  30.706  43.840   6.755
10888POPC   C3A67493  30.671  43.911   7.055
10888POPC   C4A67494  30.690  43.905   7.355
10888POPC   C1B67495  30.450  44.040   6.455
10888POPC   C2B67496  30.443  44.032   6.755
10888POPC   C3B67497  30.533  44.023   7.055
10888POPC   C4B67498  30.510  44.042   7.355
10889POPC   NC367499  28.319   2.770   5.555
10889POPC   PO467500  28.362   2.732   5.855
10889POPC   GL167501  28.407   2.731   6.155
10889POPC   GL267502  28.495   2.787   6.155
10889POPC   C1A67503  28.332   2.717   6.455
10889POPC   D2A67504  28.353   2.790   6.755
10889POPC   C3A67505  28.366   2.769   7.055
10889POPC   C4A67506  28.348   2.736   7.355
10889POPC   C1B67507  28.598   2.922   6.455
10889POPC   C2B67508  28.606   2.854   6.755
10889POPC   C3B67509  28.627   2.904   7.055
10889POPC   C4B67510  28.551   2.861   7.355
10890POPC   NC367511  40.744  43.922   5.555
10890POPC   PO467512  40.769  43.838   5.855
10890POPC   GL167513  40.776  43.875   6.155
10890POPC   GL267514  40.633  43.902   6.155
10890POPC   C1A67515  40.812  43.888   6.455
10890POPC   D2A67516  40.737  43.928   6.755
10890POPC   C3A67517  40.828  43.840   7.055
10890POPC   C4A67518  40.801  43.871   7.355
10890POPC   C1B67519  40.550  43.885   6.455
10890POPC   C2B67520  40.531  43.888   6.755
10890POPC   C3B67521  40.495  43.955   7.055
10890POPC   C4B67522  40.515  43.950   7.355
10891POPC   NC367523  12.026  10.497   5.555
10891POPC   PO467524  12.032  10.565   5.855
10891POPC   GL167525  12.031  10.521   6.155
10891POPC   GL267526  11.976  10.410   6.155
10891POPC   C1A67527  12.070  10.507   6.455
10891POPC   D2A67528  12.034  10.480   6.755
10891POPC   C3A67529  12.062  10.546   7.055
10891POPC   C4A67530  12.072  10.492   7.355
10891POPC   C1B67531  11.873  10.405   6.455
10891POPC   C2B67532  11.849  10.400   6.755
10891POPC   C3B67533  11.923  10.373   7.055
10891POPC   C4B67534  11.894  10.365   7.355
10892POPC   NC367535  29.146  10.525   5.555
10892POPC   PO467536  29.170  10.506   5.855
10892POPC   GL167537  29.112  10.504   6.155
10892POPC   GL267538  29.058  10.516   6.155
10892POPC   C1A67539  29.117  10.478   6.455
10892POPC   D2A67540  29.110  10.517   6.755
10892POPC   C3A67541  29.189  10.555   7.055
10892POPC   C4A67542  29.153  10.557   7.355
10892POPC   C1B67543  28.934  10.457   6.455
10892POPC   C2B67544  28.947  10.407   6.755
10892POPC   C3B67545  28.940  10.397   7.055
10892POPC   C4B67546  28.899  10.396   7.355
10893POPC   NC367547  26.054  16.756   5.555
10893POPC   PO467548  26.043  16.685   5.855
10893POPC   GL167549  26.056  16.702   6.155
10893POPC   GL267550  25.967  16.583   6.155
10893POPC   C1A67551  26.035  16.763   6.455
10893POPC   D2A67552  26.009  16.774   6.755
10893POPC   C3A67553  26.011  16.727   7.055
10893POPC   C4A67554  26.081  16.776   7.355
10893POPC   C1B67555  25.947  16.517   6.455
10893POPC   C2B67556  25.964  16.504   6.755
10893POPC   C3B67557  25.964  16.465   7.055
10893POPC   C4B67558  25.926  16.481   7.355
10894POPC   NC367559  33.022  34.532   5.555
10894POPC   PO467560  33.060  34.562   5.855
10894POPC   GL167561  32.987  34.551   6.155
10894POPC   GL267562  33.081  34.495   6.155
10894POPC   C1A67563  33.029  34.534   6.455
10894POPC   D2A67564  33.074  34.540   6.755
10894POPC   C3A67565  33.005  34.617   7.055
10894POPC   C4A67566  33.020  34.607   7.355
10894POPC   C1B67567  33.083  34.368   6.455
10894POPC   C2B67568  33.100  34.334   6.755
10894POPC   C3B67569  33.103  34.381   7.055
10894POPC   C4B67570  33.115  34.354   7.355
10895POPC   NC367571  15.220  44.678   5.555
10895POPC   PO467572  15.222  44.657   5.855
10895POPC   GL167573  15.214  44.648   6.155
10895POPC   GL267574  15.047  44.681   6.155
10895POPC   C1A67575  15.144  44.644   6.455
10895POPC   D2A67576  15.226  44.675   6.755
10895POPC   C3A67577  15.201  44.667   7.055
10895POPC   C4A67578  15.156  44.682   7.355
10895POPC   C1B67579  14.943  44.565   6.455
10895POPC   C2B67580  14.973  44.603   6.755
10895POPC   C3B67581  14.900  44.637   7.055
10895POPC   C4B67582  14.955  44.647   7.355
10896POPC   NC367583  19.092  22.921   5.555
10896POPC   PO467584  19.073  22.933   5.855
10896POPC   GL167585  19.009  22.944   6.155
10896POPC   GL267586  18.923  23.025   6.155
10896POPC   C1A67587  19.068  22.988   6.455
10896POPC   D2A67588  19.094  22.941   6.755
10896POPC   C3A67589  19.045  22.916   7.055
10896POPC   C4A67590  19.074  22.906   7.355
10896POPC   C1B67591  18.875  23.065   6.455
10896POPC   C2B67592  18.885  23.107   6.755
10896POPC   C3B67593  18.816  23.058   7.055
10896POPC   C4B67594  18.846  23.078   7.355
10897POPC   NC367595   8.240  16.757   5.555
10897POPC   PO467596   8.192  16.682   5.855
10897POPC   GL167597   8.173  16.768   6.155
10897POPC   GL267598   8.218  16.866   6.155
10897POPC   C1A67599   8.245  16.719   6.455
10897POPC   D2A67600   8.193  16.716   6.755
10897POPC   C3A67601   8.234  16.732   7.055
10897POPC   C4A67602   8.175  16.773   7.355
10897POPC   C1B67603   8.279  16.961   6.455
10897POPC   C2B67604   8.277  16.938   6.755
10897POPC   C3B67605   8.316  16.945   7.055
10897POPC   C4B67606   8.280  16.925   7.355
10898POPC   NC367607  11.330  12.112   5.555
10898POPC   PO467608  11.330  12.039   5.855
10898POPC   GL167609  11.280  12.062   6.155
10898POPC   GL267610  11.360  11.992   6.155
10898POPC   C1A67611  11.328  12.103   6.455
10898POPC   D2A67612  11.313  12.056   6.755
10898POPC   C3A67613  11.288  12.090   7.055
10898POPC   C4A67614  11.260  12.042   7.355
10898POPC   C1B67615  11.374  11.889   6.455
10898POPC   C2B67616  11.349  11.814   6.755
10898POPC   C3B67617  11.437  11.853   7.055
10898POPC   C4B67618  11.388  11.821   7.355
10899POPC   NC367619  38.456   8.929   5.555
10899POPC   PO467620  38.405   8.972   5.855
10899POPC   GL167621  38.439   9.017   6.155
10899POPC   GL267622  38.573   8.970   6.155
10899POPC   C1A67623  38.434   9.022   6.455
10899POPC   D2A67624  38.463   8.990   6.755
10899POPC   C3A67625  38.439   8.980   7.055
10899POPC   C4A67626  38.422   9.006   7.355
10899POPC   C1B67627  38.722   8.968   6.455
10899POPC   C2B67628  38.706   8.965   6.755
10899POPC   C3B67629  38.747   8.989   7.055
10899POPC   C4B67630  38.747   8.964   7.355
10900POPC   NC367631  29.177  12.077   5.555
10900POPC   PO467632  29.132  12.059   5.855
10900POPC   GL167633  29.133  12.072   6.155
10900POPC   GL267634  29.237  12.128   6.155
10900POPC   C1A67635  29.182  12.080   6.455
10900POPC   D2A67636  29.171  12.102   6.755
10900POPC   C3A67637  29.158  12.042   7.055
10900POPC   C4A67638  29.173  12.115   7.355
10900POPC   C1B67639  29.402  12.138   6.455
10900POPC   C2B67640  29.385  12.134   6.755
10900POPC   C3B67641  29.404  12.102   7.055
10900POPC   C4B67642  29.433  12.116   7.355
10901POPC   NC367643  37.638  26.796   5.555
10901POPC   PO467644  37.670  26.834   5.855
10901POPC   GL167645  37.728  26.772   6.155
10901POPC   GL267646  37.539  26.750   6.155
10901POPC   C1A67647  37.691  26.787   6.455
10901POPC   D2A67648  37.653  26.856   6.755
10901POPC   C3A67649  37.657  26.771   7.055
10901POPC   C4A67650  37.699  26.863   7.355
10901POPC   C1B67651  37.435  26.672   6.455
10901POPC   C2B67652  37.460  26.678   6.755
10901POPC   C3B67653  37.435  26.633   7.055
10901POPC   C4B67654  37.481  26.703   7.355
10902POPC   NC367655  39.995  16.682   5.555
10902POPC   PO467656  39.993  16.721   5.855
10902POPC   GL167657  39.975  16.743   6.155
10902POPC   GL267658  40.104  16.631   6.155
10902POPC   C1A67659  39.988  16.747   6.455
10902POPC   D2A67660  40.021  16.733   6.755
10902POPC   C3A67661  40.016  16.762   7.055
10902POPC   C4A67662  40.011  16.733   7.355
10902POPC   C1B67663  40.224  16.576   6.455
10902POPC   C2B67664  40.225  16.674   6.755
10902POPC   C3B67665  40.188  16.602   7.055
10902POPC   C4B67666  40.223  16.604   7.355
10903POPC   NC367667  35.322  12.824   5.555
10903POPC   PO467668  35.342  12.824   5.855
10903POPC   GL167669  35.388  12.902   6.155
10903POPC   GL267670  35.453  12.743   6.155
10903POPC   C1A67671  35.381  12.838   6.455
10903POPC   D2A67672  35.358  12.864   6.755
10903POPC   C3A67673  35.364  12.804   7.055
10903POPC   C4A67674  35.333  12.890   7.355
10903POPC   C1B67675  35.517  12.654   6.455
10903POPC   C2B67676  35.535  12.682   6.755
10903POPC   C3B67677  35.511  12.646   7.055
10903POPC   C4B67678  35.511  12.644   7.355
10904POPC   NC367679  36.120  22.934   5.555
10904POPC   PO467680  36.142  22.988   5.855
10904POPC   GL167681  36.171  22.932   6.155
10904POPC   GL267682  36.218  22.849   6.155
10904POPC   C1A67683  36.119  22.902   6.455
10904POPC   D2A67684  36.158  22.938   6.755
10904POPC   C3A67685  36.158  22.952   7.055
10904POPC   C4A67686  36.127  22.893   7.355
10904POPC   C1B67687  36.256  22.720   6.455
10904POPC   C2B67688  36.262  22.748   6.755
10904POPC   C3B67689  36.234  22.732   7.055
10904POPC   C4B67690  36.278  22.777   7.355
10905POPC   NC367691  18.239  27.571   5.555
10905POPC   PO467692  18.267  27.582   5.855
10905POPC   GL167693  18.323  27.610   6.155
10905POPC   GL267694  18.425  27.642   6.155
10905POPC   C1A67695  18.318  27.596   6.455
10905POPC   D2A67696  18.271  27.552   6.755
10905POPC   C3A67697  18.236  27.561   7.055
10905POPC   C4A67698  18.241  27.604   7.355
10905POPC   C1B67699  18.552  27.652   6.455
10905POPC   C2B67700  18.560  27.620   6.755
10905POPC   C3B67701  18.552  27.644   7.055
10905POPC   C4B67702  18.537  27.616   7.355
10906POPC   NC367703  30.704  12.828   5.555
10906POPC   PO467704  30.723  12.867   5.855
10906POPC   GL167705  30.701  12.845   6.155
10906POPC   GL267706  30.576  12.813   6.155
10906POPC   C1A67707  30.687  12.886   6.455
10906POPC   D2A67708  30.672  12.883   6.755
10906POPC   C3A67709  30.682  12.818   7.055
10906POPC   C4A67710  30.712  12.873   7.355
10906POPC   C1B67711  30.487  12.703   6.455
10906POPC   C2B67712  30.533  12.698   6.755
10906POPC   C3B67713  30.451  12.673   7.055
10906POPC   C4B67714  30.450  12.729   7.355
10907POPC   NC367715  30.724  13.637   5.555
10907POPC   PO467716  30.705  13.614   5.855
10907POPC   GL167717  30.657  13.630   6.155
10907POPC   GL267718  30.694  13.707   6.155
10907POPC   C1A67719  30.649  13.581   6.455
10907POPC   D2A67720  30.712  13.626   6.755
10907POPC   C3A67721  30.723  13.597   7.055
10907POPC   C4A67722  30.660  13.677   7.355
10907POPC   C1B67723  30.812  13.839   6.455
10907POPC   C2B67724  30.797  13.894   6.755
10907POPC   C3B67725  30.743  13.864   7.055
10907POPC   C4B67726  30.793  13.879   7.355
10908POPC   NC367727  14.384  24.532   5.555
10908POPC   PO467728  14.434  24.539   5.855
10908POPC   GL167729  14.392  24.449   6.155
10908POPC   GL267730  14.518  24.586   6.155
10908POPC   C1A67731  14.399  24.528   6.455
10908POPC   D2A67732  14.406  24.506   6.755
10908POPC   C3A67733  14.355  24.500   7.055
10908POPC   C4A67734  14.421  24.482   7.355
10908POPC   C1B67735  14.577  24.661   6.455
10908POPC   C2B67736  14.590  24.734   6.755
10908POPC   C3B67737  14.522  24.717   7.055
10908POPC   C4B67738  14.559  24.669   7.355
10909POPC   NC367739   4.309  12.854   5.555
10909POPC   PO467740   4.296  12.854   5.855
10909POPC   GL167741   4.283  12.815   6.155
10909POPC   GL267742   4.174  12.757   6.155
10909POPC   C1A67743   4.327  12.846   6.455
10909POPC   D2A67744   4.329  12.879   6.755
10909POPC   C3A67745   4.268  12.901   7.055
10909POPC   C4A67746   4.309  12.820   7.355
10909POPC   C1B67747   4.052  12.699   6.455
10909POPC   C2B67748   4.134  12.709   6.755
10909POPC   C3B67749   4.084  12.713   7.055
10909POPC   C4B67750   4.061  12.719   7.355
10910POPC   NC367751   8.983  39.960   5.555
10910POPC   PO467752   9.016  39.988   5.855
10910POPC   GL167753   8.974  40.035   6.155
10910POPC   GL267754   8.835  39.980   6.155
10910POPC   C1A67755   9.009  39.960   6.455
10910POPC   D2A67756   9.020  40.008   6.755
10910POPC   C3A67757   8.983  39.988   7.055
10910POPC   C4A67758   8.928  40.050   7.355
10910POPC   C1B67759   8.687  39.966   6.455
10910POPC   C2B67760   8.737  39.906   6.755
10910POPC   C3B67761   8.721  39.989   7.055
10910POPC   C4B67762   8.704  39.906   7.355
10911POPC   NC367763  36.103  30.658   5.555
10911POPC   PO467764  36.145  30.676   5.855
10911POPC   GL167765  36.120  30.688   6.155
10911POPC   GL267766  35.992  30.595   6.155
10911POPC   C1A67767  36.146  30.683   6.455
10911POPC   D2A67768  36.159  30.695   6.755
10911POPC   C3A67769  36.154  30.707   7.055
10911POPC   C4A67770  36.122  30.732   7.355
10911POPC   C1B67771  35.917  30.587   6.455
10911POPC   C2B67772  35.937  30.586   6.755
10911POPC   C3B67773  35.919  30.622   7.055
10911POPC   C4B67774  35.916  30.578   7.355
10912POPC   NC367775  32.220  38.472   5.555
10912POPC   PO467776  32.257  38.477   5.855
10912POPC   GL167777  32.286  38.441   6.155
10912POPC   GL267778  32.367  38.343   6.155
10912POPC   C1A67779  32.212  38.477   6.455
10912POPC   D2A67780  32.286  38.439   6.755
10912POPC   C3A67781  32.273  38.407   7.055
10912POPC   C4A67782  32.199  38.486   7.355
10912POPC   C1B67783  32.401  38.237   6.455
10912POPC   C2B67784  32.366  38.234   6.755
10912POPC   C3B67785  32.353  38.209   7.055
10912POPC   C4B67786  32.368  38.201   7.355
10913POPC   NC367787  42.291  16.708   5.555
10913POPC   PO467788  42.317  16.725   5.855
10913POPC   GL167789  42.340  16.736   6.155
10913POPC   GL267790  42.454  16.636   6.155
10913POPC   C1A67791  42.351  16.715   6.455
10913POPC   D2A67792  42.315  16.738   6.755
10913POPC   C3A67793  42.318  16.731   7.055
10913POPC   C4A67794  42.362  16.715   7.355
10913POPC   C1B67795  42.494  16.515   6.455
10913POPC   C2B67796  42.468  16.496   6.755
10913POPC   C3B67797  42.461  16.570   7.055
10913POPC   C4B67798  42.527  16.524   7.355
10914POPC   NC367799  26.032  12.034   5.555
10914POPC   PO467800  26.048  12.074   5.855
10914POPC   GL167801  26.045  12.099   6.155
10914POPC   GL267802  25.938  12.116   6.155
10914POPC   C1A67803  26.091  12.108   6.455
10914POPC   D2A67804  25.994  12.067   6.755
10914POPC   C3A67805  26.042  12.112   7.055
10914POPC   C4A67806  26.053  12.107   7.355
10914POPC   C1B67807  25.859  12.245   6.455
10914POPC   C2B67808  25.859  12.163   6.755
10914POPC   C3B67809  25.860  12.204   7.055
10914POPC   C4B67810  25.824  12.181   7.355
10915POPC   NC367811   6.677  39.183   5.555
10915POPC   PO467812   6.658  39.238   5.855
10915POPC   GL167813   6.624  39.266   6.155
10915POPC   GL267814   6.657  39.069   6.155
10915POPC   C1A67815   6.627  39.267   6.455
10915POPC   D2A67816   6.643  39.197   6.755
10915POPC   C3A67817   6.683  39.195   7.055
10915POPC   C4A67818   6.611  39.209   7.355
10915POPC   C1B67819   6.799  39.020   6.455
10915POPC   C2B67820   6.784  39.029   6.755
10915POPC   C3B67821   6.755  39.032   7.055
10915POPC   C4B67822   6.727  38.985   7.355
10916POPC   NC367823   2.788   9.004   5.555
10916POPC   PO467824   2.811   8.995   5.855
10916POPC   GL167825   2.814   8.926   6.155
10916POPC   GL267826   2.774   8.832   6.155
10916POPC   C1A67827   2.794   8.998   6.455
10916POPC   D2A67828   2.742   8.996   6.755
10916POPC   C3A67829   2.800   8.948   7.055
10916POPC   C4A67830   2.722   9.017   7.355
10916POPC   C1B67831   2.862   8.724   6.455
10916POPC   C2B67832   2.860   8.692   6.755
10916POPC   C3B67833   2.826   8.773   7.055
10916POPC   C4B67834   2.857   8.776   7.355
10917POPC   NC367835  17.465  38.441   5.555
10917POPC   PO467836  17.531  38.458   5.855
10917POPC   GL167837  17.469  38.470   6.155
10917POPC   GL267838  17.604  38.509   6.155
10917POPC   C1A67839  17.536  38.411   6.455
10917POPC   D2A67840  17.548  38.433   6.755
10917POPC   C3A67841  17.460  38.424   7.055
10917POPC   C4A67842  17.500  38.483   7.355
10917POPC   C1B67843  17.796  38.529   6.455
10917POPC   C2B67844  17.747  38.515   6.755
10917POPC   C3B67845  17.726  38.528   7.055
10917POPC   C4B67846  17.782  38.522   7.355
10918POPC   NC367847  43.847  14.451   5.555
10918POPC   PO467848  43.914  14.441   5.855
10918POPC   GL167849  43.855  14.369   6.155
10918POPC   GL267850  43.904  14.540   6.155
10918POPC   C1A67851  43.839  14.360   6.455
10918POPC   D2A67852  43.838  14.380   6.755
10918POPC   C3A67853  43.854  14.405   7.055
10918POPC   C4A67854  43.837  14.413   7.355
10918POPC   C1B67855  44.052  14.649   6.455
10918POPC   C2B67856  44.013  14.598   6.755
10918POPC   C3B67857  43.973  14.570   7.055
10918POPC   C4B67858  43.995  14.664   7.355
10919POPC   NC367859  42.341  43.101   5.555
10919POPC   PO467860  42.304  43.155   5.855
10919POPC   GL167861  42.383  43.123   6.155
10919POPC   GL267862  42.438  43.017   6.155
10919POPC   C1A67863  42.286  43.085   6.455
10919POPC   D2A67864  42.295  43.094   6.755
10919POPC   C3A67865  42.316  43.157   7.055
10919POPC   C4A67866  42.290  43.127   7.355
10919POPC   C1B67867  42.488  42.916   6.455
10919POPC   C2B67868  42.473  42.866   6.755
10919POPC   C3B67869  42.512  42.938   7.055
10919POPC   C4B67870  42.522  42.921   7.355
10920POPC   NC367871  40.807  16.725   5.555
10920POPC   PO467872  40.794  16.754   5.855
10920POPC   GL167873  40.829  16.775   6.155
10920POPC   GL267874  40.650  16.795   6.155
10920POPC   C1A67875  40.733  16.773   6.455
10920POPC   D2A67876  40.823  16.724   6.755
10920POPC   C3A67877  40.773  16.719   7.055
10920POPC   C4A67878  40.772  16.746   7.355
10920POPC   C1B67879  40.584  16.782   6.455
10920POPC   C2B67880  40.496  16.811   6.755
10920POPC   C3B67881  40.581  16.751   7.055
10920POPC   C4B67882  40.528  16.747   7.355
10921POPC   NC367883  30.670  15.949   5.555
10921POPC   PO467884  30.730  16.004   5.855
10921POPC   GL167885  30.698  15.979   6.155
10921POPC   GL267886  30.604  15.813   6.155
10921POPC   C1A67887  30.650  15.987   6.455
10921POPC   D2A67888  30.706  16.001   6.755
10921POPC   C3A67889  30.678  16.000   7.055
10921POPC   C4A67890  30.688  15.963   7.355
10921POPC   C1B67891  30.524  15.752   6.455
10921POPC   C2B67892  30.562  15.732   6.755
10921POPC   C3B67893  30.571  15.750   7.055
10921POPC   C4B67894  30.534  15.792   7.355
10922POPC   NC367895  19.798  26.036   5.555
10922POPC   PO467896  19.846  26.016   5.855
10922POPC   GL167897  19.852  26.009   6.155
10922POPC   GL267898  19.989  25.957   6.155
10922POPC   C1A67899  19.872  26.023   6.455
10922POPC   D2A67900  19.816  26.005   6.755
10922POPC   C3A67901  19.833  26.010   7.055
10922POPC   C4A67902  19.806  25.998   7.355
10922POPC   C1B67903  20.098  25.963   6.455
10922POPC   C2B67904  20.035  25.934   6.755
10922POPC   C3B67905  20.092  25.896   7.055
10922POPC   C4B67906  20.069  25.985   7.355
10923POPC   NC367907   2.734  25.243   5.555
10923POPC   PO467908   2.756  25.315   5.855
10923POPC   GL167909   2.774  25.253   6.155
10923POPC   GL267910   2.831  25.181   6.155
10923POPC   C1A67911   2.777  25.260   6.455
10923POPC   D2A67912   2.768  25.278   6.755
10923POPC   C3A67913   2.737  25.311   7.055
10923POPC   C4A67914   2.733  25.280   7.355
10923POPC   C1B67915   2.855  25.101   6.455
10923POPC   C2B67916   2.899  25.086   6.755
10923POPC   C3B67917   2.862  25.083   7.055
10923POPC   C4B67918   2.886  25.041   7.355
10924POPC   NC367919  40.809  29.126   5.555
10924POPC   PO467920  40.775  29.193   5.855
10924POPC   GL167921  40.795  29.152   6.155
10924POPC   GL267922  40.858  29.083   6.155
10924POPC   C1A67923  40.784  29.148   6.455
10924POPC   D2A67924  40.779  29.141   6.755
10924POPC   C3A67925  40.745  29.129   7.055
10924POPC   C4A67926  40.792  29.185   7.355
10924POPC   C1B67927  40.971  29.088   6.455
10924POPC   C2B67928  41.036  29.005   6.755
10924POPC   C3B67929  41.005  29.033   7.055
10924POPC   C4B67930  41.028  29.084   7.355
10925POPC   NC367931  27.593  26.058   5.555
10925POPC   PO467932  27.640  26.023   5.855
10925POPC   GL167933  27.587  26.083   6.155
10925POPC   GL267934  27.516  26.119   6.155
10925POPC   C1A67935  27.597  26.012   6.455
10925POPC   D2A67936  27.562  26.061   6.755
10925POPC   C3A67937  27.643  26.008   7.055
10925POPC   C4A67938  27.556  26.031   7.355
10925POPC   C1B67939  27.391  26.210   6.455
10925POPC   C2B67940  27.404  26.225   6.755
10925POPC   C3B67941  27.379  26.189   7.055
10925POPC   C4B67942  27.395  26.231   7.355
10926POPC   NC367943  43.909  26.079   5.555
10926POPC   PO467944  43.901  26.076   5.855
10926POPC   GL167945  43.906  25.998   6.155
10926POPC   GL267946  43.908  26.136   6.155
10926POPC   C1A67947  43.900  26.052   6.455
10926POPC   D2A67948  43.891  26.027   6.755
10926POPC   C3A67949  43.853  26.017   7.055
10926POPC   C4A67950  43.897  26.022   7.355
10926POPC   C1B67951  43.901  26.272   6.455
10926POPC   C2B67952  43.894  26.335   6.755
10926POPC   C3B67953  43.862  26.278   7.055
10926POPC   C4B67954  43.913  26.271   7.355
10927POPC   NC367955   3.519   7.456   5.555
10927POPC   PO467956   3.493   7.376   5.855
10927POPC   GL167957   3.497   7.443   6.155
10927POPC   GL267958   3.467   7.290   6.155
10927POPC   C1A67959   3.538   7.457   6.455
10927POPC   D2A67960   3.497   7.422   6.755
10927POPC   C3A67961   3.539   7.431   7.055
10927POPC   C4A67962   3.560   7.378   7.355
10927POPC   C1B67963   3.405   7.209   6.455
10927POPC   C2B67964   3.402   7.161   6.755
10927POPC   C3B67965   3.469   7.231   7.055
10927POPC   C4B67966   3.412   7.238   7.355
10928POPC   NC367967  32.257  12.027   5.555
10928POPC   PO467968  32.280  12.054   5.855
10928POPC   GL167969  32.244  12.030   6.155
10928POPC   GL267970  32.292  11.966   6.155
10928POPC   C1A67971  32.260  12.109   6.455
10928POPC   D2A67972  32.291  12.106   6.755
10928POPC   C3A67973  32.267  12.057   7.055
10928POPC   C4A67974  32.261  12.059   7.355
10928POPC   C1B67975  32.330  11.877   6.455
10928POPC   C2B67976  32.318  11.830   6.755
10928POPC   C3B67977  32.268  11.853   7.055
10928POPC   C4B67978  32.320  11.832   7.355
10929POPC   NC367979  12.054  17.495   5.555
10929POPC   PO467980  12.121  17.531   5.855
10929POPC   GL167981  12.118  17.537   6.155
10929POPC   GL267982  12.230  17.510   6.155
10929POPC   C1A67983  12.035  17.540   6.455
10929POPC   D2A67984  12.038  17.553   6.755
10929POPC   C3A67985  12.067  17.512   7.055
10929POPC   C4A67986  12.062  17.536   7.355
10929POPC   C1B67987  12.280  17.483   6.455
10929POPC   C2B67988  12.277  17.491   6.755
10929POPC   C3B67989  12.350  17.468   7.055
10929POPC   C4B67990  12.327  17.535   7.355
10930POPC   NC367991  31.476  26.813   5.555
10930POPC   PO467992  31.455  26.835   5.855
10930POPC   GL167993  31.504  26.822   6.155
10930POPC   GL267994  31.565  26.907   6.155
10930POPC   C1A67995  31.479  26.784   6.455
10930POPC   D2A67996  31.471  26.842   6.755
10930POPC   C3A67997  31.483  26.815   7.055
10930POPC   C4A67998  31.435  26.859   7.355
10930POPC   C1B67999  31.663  26.964   6.455
10930POPC   C2B68000  31.657  26.949   6.755
10930POPC   C3B68001  31.660  26.979   7.055
10930POPC   C4B68002  31.626  26.955   7.355
10931POPC   NC368003  35.308   8.157   5.555
10931POPC   PO468004  35.377   8.245   5.855
10931POPC   GL168005  35.302   8.147   6.155
10931POPC   GL268006  35.258   8.092   6.155
10931POPC   C1A68007  35.326   8.236   6.455
10931POPC   D2A68008  35.314   8.192   6.755
10931POPC   C3A68009  35.334   8.243   7.055
10931POPC   C4A68010  35.313   8.171   7.355
10931POPC   C1B68011  35.245   7.964   6.455
10931POPC   C2B68012  35.219   8.030   6.755
10931POPC   C3B68013  35.180   8.017   7.055
10931POPC   C4B68014  35.177   7.967   7.355
10932POPC   NC368015  30.714   8.176   5.555
10932POPC   PO468016  30.679   8.196   5.855
10932POPC   GL168017  30.668   8.240   6.155
10932POPC   GL268018  30.759   8.285   6.155
10932POPC   C1A68019  30.647   8.171   6.455
10932POPC   D2A68020  30.660   8.236   6.755
10932POPC   C3A68021  30.684   8.155   7.055
10932POPC   C4A68022  30.684   8.233   7.355
10932POPC   C1B68023  30.870   8.297   6.455
10932POPC   C2B68024  30.922   8.308   6.755
10932POPC   C3B68025  30.941   8.343   7.055
10932POPC   C4B68026  30.917   8.298   7.355
10933POPC   NC368027  42.361  44.687   5.555
10933POPC   PO468028  42.356  44.640   5.855
10933POPC   GL168029  42.287  44.647   6.155
10933POPC   GL268030  42.440  44.647   6.155
10933POPC   C1A68031  42.347  44.622   6.455
10933POPC   D2A68032  42.376  44.622   6.755
10933POPC   C3A68033  42.362  44.654   7.055
10933POPC   C4A68034  42.288  44.705   7.355
10933POPC   C1B68035  42.536  44.686   6.455
10933POPC   C2B68036  42.585  44.684   6.755
10933POPC   C3B68037  42.594  44.728   7.055
10933POPC   C4B68038  42.603  44.754   7.355
10934POPC   NC368039  37.648  23.670   5.555
10934POPC   PO468040  37.656  23.744   5.855
10934POPC   GL168041  37.652  23.706   6.155
10934POPC   GL268042  37.769  23.701   6.155
10934POPC   C1A68043  37.691  23.681   6.455
10934POPC   D2A68044  37.684  23.691   6.755
10934POPC   C3A68045  37.723  23.707   7.055
10934POPC   C4A68046  37.632  23.736   7.355
10934POPC   C1B68047  37.913  23.800   6.455
10934POPC   C2B68048  37.939  23.773   6.755
10934POPC   C3B68049  37.905  23.750   7.055
10934POPC   C4B68050  37.893  23.762   7.355
10935POPC   NC368051   6.599  11.327   5.555
10935POPC   PO468052   6.685  11.256   5.855
10935POPC   GL168053   6.664  11.278   6.155
10935POPC   GL268054   6.722  11.220   6.155
10935POPC   C1A68055   6.628  11.297   6.455
10935POPC   D2A68056   6.678  11.322   6.755
10935POPC   C3A68057   6.688  11.350   7.055
10935POPC   C4A68058   6.630  11.251   7.355
10935POPC   C1B68059   6.679  11.101   6.455
10935POPC   C2B68060   6.720  11.037   6.755
10935POPC   C3B68061   6.685  11.059   7.055
10935POPC   C4B68062   6.734  11.111   7.355
10936POPC   NC368063  37.653  39.985   5.555
10936POPC   PO468064  37.703  40.006   5.855
10936POPC   GL168065  37.634  39.985   6.155
10936POPC   GL268066  37.830  39.945   6.155
10936POPC   C1A68067  37.646  40.001   6.455
10936POPC   D2A68068  37.685  39.974   6.755
10936POPC   C3A68069  37.706  39.965   7.055
10936POPC   C4A68070  37.654  39.990   7.355
10936POPC   C1B68071  37.872  39.895   6.455
10936POPC   C2B68072  37.890  39.967   6.755
10936POPC   C3B68073  37.928  39.958   7.055
10936POPC   C4B68074  37.956  39.947   7.355
10937POPC   NC368075  33.069  17.481   5.555
10937POPC   PO468076  33.060  17.481   5.855
10937POPC   GL168077  33.043  17.524   6.155
10937POPC   GL268078  33.045  17.412   6.155
10937POPC   C1A68079  33.058  17.522   6.455
10937POPC   D2A68080  33.016  17.497   6.755
10937POPC   C3A68081  32.983  17.482   7.055
10937POPC   C4A68082  33.037  17.499   7.355
10937POPC   C1B68083  32.984  17.276   6.455
10937POPC   C2B68084  32.950  17.254   6.755
10937POPC   C3B68085  33.013  17.256   7.055
10937POPC   C4B68086  32.966  17.282   7.355
10938POPC   NC368087  12.867  43.932   5.555
10938POPC   PO468088  12.869  43.901   5.855
10938POPC   GL168089  12.898  43.919   6.155
10938POPC   GL268090  12.962  43.844   6.155
10938POPC   C1A68091  12.807  43.878   6.455
10938POPC   D2A68092  12.874  43.905   6.755
10938POPC   C3A68093  12.824  43.863   7.055
10938POPC   C4A68094  12.802  43.917   7.355
10938POPC   C1B68095  13.071  43.809   6.455
10938POPC   C2B68096  13.143  43.827   6.755
10938POPC   C3B68097  13.083  43.805   7.055
10938POPC   C4B68098  13.136  43.832   7.355
10939POPC   NC368099  37.667  32.988   5.555
10939POPC   PO468100  37.653  32.996   5.855
10939POPC   GL168101  37.641  33.030   6.155
10939POPC   GL268102  37.670  32.955   6.155
10939POPC   C1A68103  37.714  33.054   6.455
10939POPC   D2A68104  37.721  33.069   6.755
10939POPC   C3A68105  37.689  32.998   7.055
10939POPC   C4A68106  37.633  32.978   7.355
10939POPC   C1B68107  37.595  32.752   6.455
10939POPC   C2B68108  37.601  32.741   6.755
10939POPC   C3B68109  37.572  32.755   7.055
10939POPC   C4B68110  37.560  32.801   7.355
10940POPC   NC368111  17.545  25.243   5.555
10940POPC   PO468112  17.491  25.273   5.855
10940POPC   GL168113  17.547  25.306   6.155
10940POPC   GL268114  17.359  25.198   6.155
10940POPC   C1A68115  17.532  25.278   6.455
10940POPC   D2A68116  17.535  25.254   6.755
10940POPC   C3A68117  17.481  25.220   7.055
10940POPC   C4A68118  17.536  25.249   7.355
10940POPC   C1B68119  17.265  25.251   6.455
10940POPC   C2B68120  17.290  25.177   6.755
10940POPC   C3B68121  17.278  25.252   7.055
10940POPC   C4B68122  17.249  25.187   7.355
10941POPC   NC368123  40.791   5.875   5.555
10941POPC   PO468124  40.757   5.911   5.855
10941POPC   GL168125  40.790   5.891   6.155
10941POPC   GL268126  40.869   5.758   6.155
10941POPC   C1A68127  40.828   5.823   6.455
10941POPC   D2A68128  40.754   5.839   6.755
10941POPC   C3A68129  40.784   5.899   7.055
10941POPC   C4A68130  40.826   5.839   7.355
10941POPC   C1B68131  40.841   5.622   6.455
10941POPC   C2B68132  40.840   5.686   6.755
10941POPC   C3B68133  40.851   5.684   7.055
10941POPC   C4B68134  40.879   5.633   7.355
10942POPC   NC368135  10.476  12.036   5.555
10942POPC   PO468136  10.500  12.055   5.855
10942POPC   GL168137  10.517  12.080   6.155
10942POPC   GL268138  10.474  11.948   6.155
10942POPC   C1A68139  10.512  12.103   6.455
10942POPC   D2A68140  10.511  12.051   6.755
10942POPC   C3A68141  10.500  12.080   7.055
10942POPC   C4A68142  10.514  12.071   7.355
10942POPC   C1B68143  10.517  11.794   6.455
10942POPC   C2B68144  10.470  11.809   6.755
10942POPC   C3B68145  10.548  11.859   7.055
10942POPC   C4B68146  10.509  11.851   7.355
10943POPC   NC368147   0.410   9.015   5.555
10943POPC   PO468148   0.430   9.011   5.855
10943POPC   GL168149   0.447   8.962   6.155
10943POPC   GL268150   0.316   9.006   6.155
10943POPC   C1A68151   0.403   9.021   6.455
10943POPC   D2A68152   0.464   8.923   6.755
10943POPC   C3A68153   0.475   8.971   7.055
10943POPC   C4A68154   0.418   8.966   7.355
10943POPC   C1B68155   0.233   8.932   6.455
10943POPC   C2B68156   0.144   8.977   6.755
10943POPC   C3B68157   0.182   8.983   7.055
10943POPC   C4B68158   0.227   8.967   7.355
10944POPC   NC368159   7.438  32.990   5.555
10944POPC   PO468160   7.441  33.019   5.855
10944POPC   GL168161   7.403  33.005   6.155
10944POPC   GL268162   7.414  32.872   6.155
10944POPC   C1A68163   7.411  33.054   6.455
10944POPC   D2A68164   7.401  33.017   6.755
10944POPC   C3A68165   7.427  32.981   7.055
10944POPC   C4A68166   7.371  33.016   7.355
10944POPC   C1B68167   7.416  32.780   6.455
10944POPC   C2B68168   7.469  32.737   6.755
10944POPC   C3B68169   7.453  32.782   7.055
10944POPC   C4B68170   7.445  32.794   7.355
10945POPC   NC368171  25.245  19.806   5.555
10945POPC   PO468172  25.307  19.882   5.855
10945POPC   GL168173  25.221  19.866   6.155
10945POPC   GL268174  25.190  19.949   6.155
10945POPC   C1A68175  25.233  19.798   6.455
10945POPC   D2A68176  25.227  19.862   6.755
10945POPC   C3A68177  25.240  19.879   7.055
10945POPC   C4A68178  25.276  19.841   7.355
10945POPC   C1B68179  25.042  19.959   6.455
10945POPC   C2B68180  25.105  19.969   6.755
10945POPC   C3B68181  25.039  19.994   7.055
10945POPC   C4B68182  25.053  20.020   7.355
10946POPC   NC368183  39.242  39.989   5.555
10946POPC   PO468184  39.211  40.015   5.855
10946POPC   GL168185  39.220  39.992   6.155
10946POPC   GL268186  39.292  40.082   6.155
10946POPC   C1A68187  39.203  40.035   6.455
10946POPC   D2A68188  39.253  40.012   6.755
10946POPC   C3A68189  39.253  40.020   7.055
10946POPC   C4A68190  39.204  40.018   7.355
10946POPC   C1B68191  39.476  40.097   6.455
10946POPC   C2B68192  39.458  40.173   6.755
10946POPC   C3B68193  39.445  40.114   7.055
10946POPC   C4B68194  39.458  40.128   7.355
10947POPC   NC368195  42.369   8.986   5.555
10947POPC   PO468196  42.310   8.954   5.855
10947POPC   GL168197  42.357   8.937   6.155
10947POPC   GL268198  42.241   8.968   6.155
10947POPC   C1A68199  42.358   8.996   6.455
10947POPC   D2A68200  42.347   8.983   6.755
10947POPC   C3A68201  42.295   8.967   7.055
10947POPC   C4A68202  42.289   8.977   7.355
10947POPC   C1B68203  42.125   8.959   6.455
10947POPC   C2B68204  42.120   8.955   6.755
10947POPC   C3B68205  42.115   8.885   7.055
10947POPC   C4B68206  42.042   8.910   7.355
10948POPC   NC368207  29.943  33.831   5.555
10948POPC   PO468208  29.911  33.779   5.855
10948POPC   GL168209  29.872  33.789   6.155
10948POPC   GL268210  29.830  33.897   6.155
10948POPC   C1A68211  29.946  33.842   6.455
10948POPC   D2A68212  29.936  33.845   6.755
10948POPC   C3A68213  29.902  33.774   7.055
10948POPC   C4A68214  29.912  33.826   7.355
10948POPC   C1B68215  29.687  33.900   6.455
10948POPC   C2B68216  29.685  33.940   6.755
10948POPC   C3B68217  29.689  33.894   7.055
10948POPC   C4B68218  29.693  33.895   7.355
10949POPC   NC368219  38.486   4.356   5.555
10949POPC   PO468220  38.456   4.305   5.855
10949POPC   GL168221  38.410   4.344   6.155
10949POPC   GL268222  38.551   4.373   6.155
10949POPC   C1A68223  38.474   4.313   6.455
10949POPC   D2A68224  38.478   4.280   6.755
10949POPC   C3A68225  38.418   4.290   7.055
10949POPC   C4A68226  38.465   4.294   7.355
10949POPC   C1B68227  38.732   4.460   6.455
10949POPC   C2B68228  38.678   4.382   6.755
10949POPC   C3B68229  38.673   4.408   7.055
10949POPC   C4B68230  38.736   4.441   7.355
10950POPC   NC368231  26.822   7.371   5.555
10950POPC   PO468232  26.779   7.446   5.855
10950POPC   GL168233  26.817   7.403   6.155
10950POPC   GL268234  26.838   7.501   6.155
10950POPC   C1A68235  26.818   7.446   6.455
10950POPC   D2A68236  26.808   7.375   6.755
10950POPC   C3A68237  26.859   7.466   7.055
10950POPC   C4A68238  26.834   7.414   7.355
10950POPC   C1B68239  26.942   7.678   6.455
10950POPC   C2B68240  26.894   7.683   6.755
10950POPC   C3B68241  26.885   7.685   7.055
10950POPC   C4B68242  26.912   7.657   7.355
10951POPC   NC368243   8.229  29.921   5.555
10951POPC   PO468244   8.176  29.927   5.855
10951POPC   GL168245   8.199  29.883   6.155
10951POPC   GL268246   8.252  30.025   6.155
10951POPC   C1A68247   8.241  29.904   6.455
10951POPC   D2A68248   8.212  29.888   6.755
10951POPC   C3A68249   8.172  29.951   7.055
10951POPC   C4A68250   8.221  29.939   7.355
10951POPC   C1B68251   8.269  30.208   6.455
10951POPC   C2B68252   8.293  30.163   6.755
10951POPC   C3B68253   8.239  30.114   7.055
10951POPC   C4B68254   8.273  30.204   7.355
10952POPC   NC368255  27.576  34.603   5.555
10952POPC   PO468256  27.573  34.599   5.855
10952POPC   GL168257  27.601  34.528   6.155
10952POPC   GL268258  27.690  34.578   6.155
10952POPC   C1A68259  27.635  34.582   6.455
10952POPC   D2A68260  27.603  34.532   6.755
10952POPC   C3A68261  27.558  34.596   7.055
10952POPC   C4A68262  27.605  34.576   7.355
10952POPC   C1B68263  27.846  34.633   6.455
10952POPC   C2B68264  27.810  34.622   6.755
10952POPC   C3B68265  27.779  34.646   7.055
10952POPC   C4B68266  27.824  34.685   7.355
10953POPC   NC368267   2.751  34.598   5.555
10953POPC   PO468268   2.717  34.526   5.855
10953POPC   GL168269   2.769  34.592   6.155
10953POPC   GL268270   2.887  34.673   6.155
10953POPC   C1A68271   2.750  34.560   6.455
10953POPC   D2A68272   2.733  34.611   6.755
10953POPC   C3A68273   2.800  34.543   7.055
10953POPC   C4A68274   2.796  34.579   7.355
10953POPC   C1B68275   2.925  34.721   6.455
10953POPC   C2B68276   2.949  34.736   6.755
10953POPC   C3B68277   2.985  34.708   7.055
10953POPC   C4B68278   2.947  34.735   7.355
10954POPC   NC368279  11.257  15.946   5.555
10954POPC   PO468280  11.278  15.914   5.855
10954POPC   GL168281  11.331  15.948   6.155
10954POPC   GL268282  11.323  16.104   6.155
10954POPC   C1A68283  11.304  15.909   6.455
10954POPC   D2A68284  11.291  15.929   6.755
10954POPC   C3A68285  11.261  15.952   7.055
10954POPC   C4A68286  11.319  15.985   7.355
10954POPC   C1B68287  11.337  16.208   6.455
10954POPC   C2B68288  11.368  16.163   6.755
10954POPC   C3B68289  11.334  16.167   7.055
10954POPC   C4B68290  11.333  16.248   7.355
10955POPC   NC368291   5.136  32.265   5.555
10955POPC   PO468292   5.050  32.246   5.855
10955POPC   GL168293   5.138  32.265   6.155
10955POPC   GL268294   5.149  32.126   6.155
10955POPC   C1A68295   5.093  32.250   6.455
10955POPC   D2A68296   5.076  32.293   6.755
10955POPC   C3A68297   5.113  32.242   7.055
10955POPC   C4A68298   5.114  32.215   7.355
10955POPC   C1B68299   5.146  32.041   6.455
10955POPC   C2B68300   5.178  32.037   6.755
10955POPC   C3B68301   5.183  32.037   7.055
10955POPC   C4B68302   5.188  31.998   7.355
10956POPC   NC368303  20.595  20.641   5.555
10956POPC   PO468304  20.603  20.603   5.855
10956POPC   GL168305  20.602  20.610   6.155
10956POPC   GL268306  20.663  20.732   6.155
10956POPC   C1A68307  20.595  20.646   6.455
10956POPC   D2A68308  20.617  20.577   6.755
10956POPC   C3A68309  20.620  20.646   7.055
10956POPC   C4A68310  20.645  20.566   7.355
10956POPC   C1B68311  20.655  20.845   6.455
10956POPC   C2B68312  20.636  20.843   6.755
10956POPC   C3B68313  20.681  20.899   7.055
10956POPC   C4B68314  20.658  20.843   7.355
10957POPC   NC368315  14.404  21.409   5.555
10957POPC   PO468316  14.422  21.359   5.855
10957POPC   GL168317  14.407  21.417   6.155
10957POPC   GL268318  14.535  21.444   6.155
10957POPC   C1A68319  14.441  21.351   6.455
10957POPC   D2A68320  14.412  21.411   6.755
10957POPC   C3A68321  14.398  21.412   7.055
10957POPC   C4A68322  14.374  21.434   7.355
10957POPC   C1B68323  14.663  21.524   6.455
10957POPC   C2B68324  14.608  21.453   6.755
10957POPC   C3B68325  14.644  21.429   7.055
10957POPC   C4B68326  14.649  21.439   7.355
10958POPC   NC368327  35.364  26.866   5.555
10958POPC   PO468328  35.395  26.863   5.855
10958POPC   GL168329  35.355  26.818   6.155
10958POPC   GL268330  35.210  26.785   6.155
10958POPC   C1A68331  35.362  26.810   6.455
10958POPC   D2A68332  35.392  26.778   6.755
10958POPC   C3A68333  35.325  26.860   7.055
10958POPC   C4A68334  35.372  26.770   7.355
10958POPC   C1B68335  35.136  26.765   6.455
10958POPC   C2B68336  35.087  26.765   6.755
10958POPC   C3B68337  35.075  26.757   7.055
10958POPC   C4B68338  35.132  26.765   7.355
10959POPC   NC368339   3.513   4.363   5.555
10959POPC   PO468340   3.525   4.269   5.855
10959POPC   GL168341   3.569   4.282   6.155
10959POPC   GL268342   3.610   4.200   6.155
10959POPC   C1A68343   3.519   4.324   6.455
10959POPC   D2A68344   3.572   4.298   6.755
10959POPC   C3A68345   3.590   4.360   7.055
10959POPC   C4A68346   3.500   4.302   7.355
10959POPC   C1B68347   3.586   4.036   6.455
10959POPC   C2B68348   3.631   4.112   6.755
10959POPC   C3B68349   3.549   4.081   7.055
10959POPC   C4B68350   3.577   4.060   7.355
10960POPC   NC368351  11.312  44.612   5.555
10960POPC   PO468352  11.251  44.700   5.855
10960POPC   GL168353  11.342  44.684   6.155
10960POPC   GL268354  11.173  44.718   6.155
10960POPC   C1A68355  11.270  44.689   6.455
10960POPC   D2A68356  11.332  44.643   6.755
10960POPC   C3A68357  11.308  44.683   7.055
10960POPC   C4A68358  11.278  44.671   7.355
10960POPC   C1B68359  11.072  44.738   6.455
10960POPC   C2B68360  11.021  44.705   6.755
10960POPC   C3B68361  11.103  44.709   7.055
10960POPC   C4B68362  11.077  44.686   7.355
10961POPC   NC368363  15.169  15.916   5.555
10961POPC   PO468364  15.152  15.942   5.855
10961POPC   GL168365  15.152  15.946   6.155
10961POPC   GL268366  15.093  15.811   6.155
10961POPC   C1A68367  15.132  15.911   6.455
10961POPC   D2A68368  15.214  15.974   6.755
10961POPC   C3A68369  15.212  15.964   7.055
10961POPC   C4A68370  15.185  15.915   7.355
10961POPC   C1B68371  14.979  15.764   6.455
10961POPC   C2B68372  15.032  15.728   6.755
10961POPC   C3B68373  15.003  15.806   7.055
10961POPC   C4B68374  14.995  15.778   7.355
10962POPC   NC368375  21.410  10.525   5.555
10962POPC   PO468376  21.340  10.475   5.855
10962POPC   GL168377  21.421  10.525   6.155
10962POPC   GL268378  21.312  10.442   6.155
10962POPC   C1A68379  21.354  10.499   6.455
10962POPC   D2A68380  21.358  10.523   6.755
10962POPC   C3A68381  21.406  10.557   7.055
10962POPC   C4A68382  21.352  10.559   7.355
10962POPC   C1B68383  21.327  10.244   6.455
10962POPC   C2B68384  21.350  10.277   6.755
10962POPC   C3B68385  21.311  10.269   7.055
10962POPC   C4B68386  21.270  10.267   7.355
10963POPC   NC368387  39.974  36.172   5.555
10963POPC   PO468388  39.965  36.149   5.855
10963POPC   GL168389  40.056  36.103   6.155
10963POPC   GL268390  39.959  35.994   6.155
10963POPC   C1A68391  40.022  36.156   6.455
10963POPC   D2A68392  39.970  36.157   6.755
10963POPC   C3A68393  40.002  36.118   7.055
10963POPC   C4A68394  40.035  36.106   7.355
10963POPC   C1B68395  39.956  35.840   6.455
10963POPC   C2B68396  39.947  35.864   6.755
10963POPC   C3B68397  39.934  35.874   7.055
10963POPC   C4B68398  39.922  35.893   7.355
10964POPC   NC368399  15.906  12.052   5.555
10964POPC   PO468400  15.976  12.091   5.855
10964POPC   GL168401  15.997  12.064   6.155
10964POPC   GL268402  16.059  12.077   6.155
10964POPC   C1A68403  15.924  12.106   6.455
10964POPC   D2A68404  15.957  12.047   6.755
10964POPC   C3A68405  15.906  12.050   7.055
10964POPC   C4A68406  15.945  12.027   7.355
10964POPC   C1B68407  16.170  12.182   6.455
10964POPC   C2B68408  16.199  12.124   6.755
10964POPC   C3B68409  16.213  12.168   7.055
10964POPC   C4B68410  16.230  12.173   7.355
10965POPC   NC368411  38.460  14.409   5.555
10965POPC   PO468412  38.406  14.419   5.855
10965POPC   GL168413  38.503  14.397   6.155
10965POPC   GL268414  38.374  14.383   6.155
10965POPC   C1A68415  38.436  14.390   6.455
10965POPC   D2A68416  38.408  14.381   6.755
10965POPC   C3A68417  38.476  14.407   7.055
10965POPC   C4A68418  38.494  14.402   7.355
10965POPC   C1B68419  38.257  14.239   6.455
10965POPC   C2B68420  38.215  14.306   6.755
10965POPC   C3B68421  38.243  14.263   7.055
10965POPC   C4B68422  38.230  14.258   7.355
10966POPC   NC368423   7.389  28.331   5.555
10966POPC   PO468424   7.386  28.365   5.855
10966POPC   GL168425   7.393  28.378   6.155
10966POPC   GL268426   7.534  28.439   6.155
10966POPC   C1A68427   7.389  28.350   6.455
10966POPC   D2A68428   7.422  28.417   6.755
10966POPC   C3A68429   7.415  28.387   7.055
10966POPC   C4A68430   7.447  28.335   7.355
10966POPC   C1B68431   7.601  28.490   6.455
10966POPC   C2B68432   7.626  28.504   6.755
10966POPC   C3B68433   7.640  28.530   7.055
10966POPC   C4B68434   7.566  28.517   7.355
10967POPC   NC368435  30.741   0.432   5.555
10967POPC   PO468436  30.682   0.411   5.855
10967POPC   GL168437  30.746   0.407   6.155
10967POPC   GL268438  30.787   0.362   6.155
10967POPC   C1A68439  30.660   0.470   6.455
10967POPC   D2A68440  30.657   0.395   6.755
10967POPC   C3A68441  30.693   0.458   7.055
10967POPC   C4A68442  30.732   0.459   7.355
10967POPC   C1B68443  30.836   0.230   6.455
10967POPC   C2B68444  30.785   0.210   6.755
10967POPC   C3B68445  30.809   0.181   7.055
10967POPC   C4B68446  30.772   0.193   7.355
10968POPC   NC368447  43.130   3.531   5.555
10968POPC   PO468448  43.129   3.586   5.855
10968POPC   GL168449  43.131   3.574   6.155
10968POPC   GL268450  43.140   3.625   6.155
10968POPC   C1A68451  43.138   3.550   6.455
10968POPC   D2A68452  43.152   3.559   6.755
10968POPC   C3A68453  43.106   3.512   7.055
10968POPC   C4A68454  43.105   3.586   7.355
10968POPC   C1B68455  43.201   3.781   6.455
10968POPC   C2B68456  43.210   3.763   6.755
10968POPC   C3B68457  43.185   3.765   7.055
10968POPC   C4B68458  43.220   3.818   7.355
10969POPC   NC368459  42.306   0.411   5.555
10969POPC   PO468460  42.293   0.426   5.855
10969POPC   GL168461  42.358   0.439   6.155
10969POPC   GL268462  42.168   0.511   6.155
10969POPC   C1A68463  42.366   0.403   6.455
10969POPC   D2A68464  42.304   0.425   6.755
10969POPC   C3A68465  42.290   0.457   7.055
10969POPC   C4A68466  42.358   0.456   7.355
10969POPC   C1B68467  42.113   0.515   6.455
10969POPC   C2B68468  42.111   0.469   6.755
10969POPC   C3B68469  42.076   0.521   7.055
10969POPC   C4B68470  42.111   0.535   7.355
10970POPC   NC368471  38.503  16.723   5.555
10970POPC   PO468472  38.480  16.756   5.855
10970POPC   GL168473  38.411  16.760   6.155
10970POPC   GL268474  38.560  16.706   6.155
10970POPC   C1A68475  38.475  16.766   6.455
10970POPC   D2A68476  38.462  16.780   6.755
10970POPC   C3A68477  38.504  16.768   7.055
10970POPC   C4A68478  38.485  16.761   7.355
10970POPC   C1B68479  38.717  16.737   6.455
10970POPC   C2B68480  38.701  16.740   6.755
10970POPC   C3B68481  38.720  16.734   7.055
10970POPC   C4B68482  38.679  16.804   7.355
10971POPC   NC368483  38.445  18.290   5.555
10971POPC   PO468484  38.493  18.282   5.855
10971POPC   GL168485  38.450  18.312   6.155
10971POPC   GL268486  38.418  18.432   6.155
10971POPC   C1A68487  38.495  18.280   6.455
10971POPC   D2A68488  38.471  18.285   6.755
10971POPC   C3A68489  38.480  18.273   7.055
10971POPC   C4A68490  38.466  18.271   7.355
10971POPC   C1B68491  38.366  18.475   6.455
10971POPC   C2B68492  38.343  18.548   6.755
10971POPC   C3B68493  38.366  18.486   7.055
10971POPC   C4B68494  38.391  18.527   7.355
10972POPC   NC368495  18.295   2.735   5.555
10972POPC   PO468496  18.262   2.734   5.855
10972POPC   GL168497  18.260   2.808   6.155
10972POPC   GL268498  18.169   2.891   6.155
10972POPC   C1A68499  18.314   2.801   6.455
10972POPC   D2A68500  18.240   2.751   6.755
10972POPC   C3A68501  18.314   2.720   7.055
10972POPC   C4A68502  18.291   2.736   7.355
10972POPC   C1B68503  18.110   2.919   6.455
10972POPC   C2B68504  18.092   2.910   6.755
10972POPC   C3B68505  18.146   2.988   7.055
10972POPC   C4B68506  18.117   2.996   7.355
10973POPC   NC368507  20.654  27.641   5.555
10973POPC   PO468508  20.582  27.550   5.855
10973POPC   GL168509  20.616  27.638   6.155
10973POPC   GL268510  20.612  27.666   6.155
10973POPC   C1A68511  20.647  27.573   6.455
10973POPC   D2A68512  20.576  27.599   6.755
10973POPC   C3A68513  20.566  27.603   7.055
10973POPC   C4A68514  20.614  27.547   7.355
10973POPC   C1B68515  20.702  27.828   6.455
10973POPC   C2B68516  20.711  27.807   6.755
10973POPC   C3B68517  20.651  27.792   7.055
10973POPC   C4B68518  20.724  27.866   7.355
10974POPC   NC368519   2.034   8.947   5.555
10974POPC   PO468520   1.987   8.960   5.855
10974POPC   GL168521   2.017   9.020   6.155
10974POPC   GL268522   2.133   8.996   6.155
10974POPC   C1A68523   2.032   8.923   6.455
10974POPC   D2A68524   1.991   8.989   6.755
10974POPC   C3A68525   2.018   8.931   7.055
10974POPC   C4A68526   2.005   9.016   7.355
10974POPC   C1B68527   2.211   8.971   6.455
10974POPC   C2B68528   2.285   9.014   6.755
10974POPC   C3B68529   2.246   8.972   7.055
10974POPC   C4B68530   2.216   9.048   7.355
10975POPC   NC368531   3.512  43.071   5.555
10975POPC   PO468532   3.539  43.142   5.855
10975POPC   GL168533   3.510  43.130   6.155
10975POPC   GL268534   3.470  43.174   6.155
10975POPC   C1A68535   3.494  43.095   6.455
10975POPC   D2A68536   3.506  43.152   6.755
10975POPC   C3A68537   3.503  43.155   7.055
10975POPC   C4A68538   3.563  43.104   7.355
10975POPC   C1B68539   3.372  43.220   6.455
10975POPC   C2B68540   3.370  43.253   6.755
10975POPC   C3B68541   3.358  43.186   7.055
10975POPC   C4B68542   3.317  43.251   7.355
10976POPC   NC368543  36.940   7.394   5.555
10976POPC   PO468544  36.949   7.458   5.855
10976POPC   GL168545  36.864   7.416   6.155
10976POPC   GL268546  36.841   7.492   6.155
10976POPC   C1A68547  36.928   7.395   6.455
10976POPC   D2A68548  36.904   7.386   6.755
10976POPC   C3A68549  36.876   7.402   7.055
10976POPC   C4A68550  36.916   7.464   7.355
10976POPC   C1B68551  36.695   7.596   6.455
10976POPC   C2B68552  36.663   7.535   6.755
10976POPC   C3B68553  36.715   7.583   7.055
10976POPC   C4B68554  36.659   7.557   7.355
10977POPC   NC368555  39.976  38.477   5.555
10977POPC   PO468556  39.996  38.453   5.855
10977POPC   GL168557  40.003  38.483   6.155
10977POPC   GL268558  40.077  38.372   6.155
10977POPC   C1A68559  40.012  38.487   6.455
10977POPC   D2A68560  39.965  38.428   6.755
10977POPC   C3A68561  39.982  38.432   7.055
10977POPC   C4A68562  40.021  38.460   7.355
10977POPC   C1B68563  40.109  38.215   6.455
10977POPC   C2B68564  40.063  38.198   6.755
10977POPC   C3B68565  40.104  38.242   7.055
10977POPC   C4B68566  40.118  38.236   7.355
10978POPC   NC368567  39.196  37.635   5.555
10978POPC   PO468568  39.244  37.673   5.855
10978POPC   GL168569  39.197  37.718   6.155
10978POPC   GL268570  39.121  37.578   6.155
10978POPC   C1A68571  39.235  37.725   6.455
10978POPC   D2A68572  39.214  37.674   6.755
10978POPC   C3A68573  39.239  37.673   7.055
10978POPC   C4A68574  39.233  37.654   7.355
10978POPC   C1B68575  39.038  37.498   6.455
10978POPC   C2B68576  39.066  37.450   6.755
10978POPC   C3B68577  39.089  37.475   7.055
10978POPC   C4B68578  39.071  37.437   7.355
10979POPC   NC368579  43.849  16.780   5.555
10979POPC   PO468580  43.928  16.703   5.855
10979POPC   GL168581  43.919  16.706   6.155
10979POPC   GL268582  43.957  16.655   6.155
10979POPC   C1A68583  43.848  16.734   6.455
10979POPC   D2A68584  43.858  16.701   6.755
10979POPC   C3A68585  43.866  16.720   7.055
10979POPC   C4A68586  43.930  16.754   7.355
10979POPC   C1B68587  43.981  16.474   6.455
10979POPC   C2B68588  43.911  16.476   6.755
10979POPC   C3B68589  43.968  16.491   7.055
10979POPC   C4B68590  43.942  16.520   7.355
10980POPC   NC368591   4.298  33.013   5.555
10980POPC   PO468592   4.359  33.058   5.855
10980POPC   GL168593   4.302  33.005   6.155
10980POPC   GL268594   4.308  33.134   6.155
10980POPC   C1A68595   4.357  33.036   6.455
10980POPC   D2A68596   4.309  33.008   6.755
10980POPC   C3A68597   4.333  33.056   7.055
10980POPC   C4A68598   4.301  33.068   7.355
10980POPC   C1B68599   4.237  33.200   6.455
10980POPC   C2B68600   4.225  33.264   6.755
10980POPC   C3B68601   4.202  33.198   7.055
10980POPC   C4B68602   4.245  33.202   7.355
10981POPC   NC368603   7.383   5.083   5.555
10981POPC   PO468604   7.391   5.056   5.855
10981POPC   GL168605   7.387   5.128   6.155
10981POPC   GL268606   7.477   4.988   6.155
10981POPC   C1A68607   7.444   5.095   6.455
10981POPC   D2A68608   7.433   5.126   6.755
10981POPC   C3A68609   7.400   5.083   7.055
10981POPC   C4A68610   7.445   5.142   7.355
10981POPC   C1B68611   7.449   4.834   6.455
10981POPC   C2B68612   7.480   4.833   6.755
10981POPC   C3B68613   7.492   4.824   7.055
10981POPC   C4B68614   7.425   4.817   7.355
10982POPC   NC368615   7.435  24.528   5.555
10982POPC   PO468616   7.414  24.452   5.855
10982POPC   GL168617   7.414  24.539   6.155
10982POPC   GL268618   7.537  24.565   6.155
10982POPC   C1A68619   7.398  24.448   6.455
10982POPC   D2A68620   7.383  24.531   6.755
10982POPC   C3A68621   7.374  24.490   7.055
10982POPC   C4A68622   7.390  24.495   7.355
10982POPC   C1B68623   7.604  24.656   6.455
10982POPC   C2B68624   7.557  24.655   6.755
10982POPC   C3B68625   7.583  24.651   7.055
10982POPC   C4B68626   7.586  24.652   7.355
10983POPC   NC368627  15.190   9.738   5.555
10983POPC   PO468628  15.148   9.716   5.855
10983POPC   GL168629  15.211   9.781   6.155
10983POPC   GL268630  15.219   9.626   6.155
10983POPC   C1A68631  15.130   9.775   6.455
10983POPC   D2A68632  15.196   9.785   6.755
10983POPC   C3A68633  15.206   9.752   7.055
10983POPC   C4A68634  15.133   9.740   7.355
10983POPC   C1B68635  15.318   9.571   6.455
10983POPC   C2B68636  15.330   9.494   6.755
10983POPC   C3B68637  15.293   9.504   7.055
10983POPC   C4B68638  15.320   9.502   7.355
10984POPC   NC368639  42.312  14.395   5.555
10984POPC   PO468640  42.332  14.439   5.855
10984POPC   GL168641  42.329  14.354   6.155
10984POPC   GL268642  42.363  14.540   6.155
10984POPC   C1A68643  42.300  14.406   6.455
10984POPC   D2A68644  42.322  14.376   6.755
10984POPC   C3A68645  42.337  14.361   7.055
10984POPC   C4A68646  42.363  14.364   7.355
10984POPC   C1B68647  42.495  14.591   6.455
10984POPC   C2B68648  42.464  14.657   6.755
10984POPC   C3B68649  42.435  14.630   7.055
10984POPC   C4B68650  42.517  14.609   7.355
10985POPC   NC368651  22.207  40.007   5.555
10985POPC   PO468652  22.212  39.996   5.855
10985POPC   GL168653  22.140  40.052   6.155
10985POPC   GL268654  22.193  40.152   6.155
10985POPC   C1A68655  22.146  40.014   6.455
10985POPC   D2A68656  22.128  40.034   6.755
10985POPC   C3A68657  22.147  40.018   7.055
10985POPC   C4A68658  22.198  40.045   7.355
10985POPC   C1B68659  22.259  40.228   6.455
10985POPC   C2B68660  22.317  40.214   6.755
10985POPC   C3B68661  22.331  40.244   7.055
10985POPC   C4B68662  22.260  40.207   7.355
10986POPC   NC368663   8.178   3.505   5.555
10986POPC   PO468664   8.216   3.495   5.855
10986POPC   GL168665   8.151   3.503   6.155
10986POPC   GL268666   8.103   3.684   6.155
10986POPC   C1A68667   8.199   3.521   6.455
10986POPC   D2A68668   8.165   3.587   6.755
10986POPC   C3A68669   8.239   3.531   7.055
10986POPC   C4A68670   8.163   3.588   7.355
10986POPC   C1B68671   8.115   3.741   6.455
10986POPC   C2B68672   8.126   3.786   6.755
10986POPC   C3B68673   8.093   3.808   7.055
10986POPC   C4B68674   8.130   3.804   7.355
10987POPC   NC368675  19.828  40.029   5.555
10987POPC   PO468676  19.839  39.965   5.855
10987POPC   GL168677  19.833  39.962   6.155
10987POPC   GL268678  19.960  40.012   6.155
10987POPC   C1A68679  19.841  39.990   6.455
10987POPC   D2A68680  19.826  40.038   6.755
10987POPC   C3A68681  19.850  39.995   7.055
10987POPC   C4A68682  19.817  40.021   7.355
10987POPC   C1B68683  20.087  40.023   6.455
10987POPC   C2B68684  20.101  40.092   6.755
10987POPC   C3B68685  20.029  40.109   7.055
10987POPC   C4B68686  20.091  40.080   7.355
10988POPC   NC368687  15.927   6.657   5.555
10988POPC   PO468688  15.962   6.597   5.855
10988POPC   GL168689  15.946   6.665   6.155
10988POPC   GL268690  15.784   6.628   6.155
10988POPC   C1A68691  15.919   6.642   6.455
10988POPC   D2A68692  15.941   6.636   6.755
10988POPC   C3A68693  15.906   6.620   7.055
10988POPC   C4A68694  15.929   6.638   7.355
10988POPC   C1B68695  15.752   6.695   6.455
10988POPC   C2B68696  15.754   6.744   6.755
10988POPC   C3B68697  15.756   6.721   7.055
10988POPC   C4B68698  15.756   6.661   7.355
10989POPC   NC368699  33.048  13.629   5.555
10989POPC   PO468700  33.073  13.587   5.855
10989POPC   GL168701  33.036  13.656   6.155
10989POPC   GL268702  32.945  13.632   6.155
10989POPC   C1A68703  33.032  13.628   6.455
10989POPC   D2A68704  33.059  13.646   6.755
10989POPC   C3A68705  33.021  13.606   7.055
10989POPC   C4A68706  33.010  13.647   7.355
10989POPC   C1B68707  32.820  13.611   6.455
10989POPC   C2B68708  32.750  13.599   6.755
10989POPC   C3B68709  32.769  13.585   7.055
10989POPC   C4B68710  32.828  13.527   7.355
10990POPC   NC368711  31.425  36.856   5.555
10990POPC   PO468712  31.442  36.880   5.855
10990POPC   GL168713  31.470  36.949   6.155
10990POPC   GL268714  31.598  36.919   6.155
10990POPC   C1A68715  31.504  36.928   6.455
10990POPC   D2A68716  31.453  36.858   6.755
10990POPC   C3A68717  31.444  36.888   7.055
10990POPC   C4A68718  31.424  36.923   7.355
10990POPC   C1B68719  31.673  37.055   6.455
10990POPC   C2B68720  31.698  37.016   6.755
10990POPC   C3B68721  31.729  36.988   7.055
10990POPC   C4B68722  31.725  37.060   7.355
10991POPC   NC368723  22.199  10.540   5.555
10991POPC   PO468724  22.168  10.551   5.855
10991POPC   GL168725  22.135  10.571   6.155
10991POPC   GL268726  22.293  10.389   6.155
10991POPC   C1A68727  22.163  10.524   6.455
10991POPC   D2A68728  22.132  10.510   6.755
10991POPC   C3A68729  22.137  10.537   7.055
10991POPC   C4A68730  22.205  10.505   7.355
10991POPC   C1B68731  22.297  10.361   6.455
10991POPC   C2B68732  22.356  10.361   6.755
10991POPC   C3B68733  22.321  10.369   7.055
10991POPC   C4B68734  22.298  10.340   7.355
10992POPC   NC368735  38.464  43.070   5.555
10992POPC   PO468736  38.504  43.139   5.855
10992POPC   GL168737  38.425  43.074   6.155
10992POPC   GL268738  38.377  43.001   6.155
10992POPC   C1A68739  38.466  43.068   6.455
10992POPC   D2A68740  38.479  43.084   6.755
10992POPC   C3A68741  38.475  43.148   7.055
10992POPC   C4A68742  38.500  43.156   7.355
10992POPC   C1B68743  38.276  42.862   6.455
10992POPC   C2B68744  38.282  42.948   6.755
10992POPC   C3B68745  38.295  42.895   7.055
10992POPC   C4B68746  38.347  42.872   7.355
10993POPC   NC368747  11.271   5.833   5.555
10993POPC   PO468748  11.336   5.910   5.855
10993POPC   GL168749  11.254   5.914   6.155
10993POPC   GL268750  11.415   5.893   6.155
10993POPC   C1A68751  11.344   5.898   6.455
10993POPC   D2A68752  11.331   5.897   6.755
10993POPC   C3A68753  11.286   5.899   7.055
10993POPC   C4A68754  11.324   5.907   7.355
10993POPC   C1B68755  11.592   5.828   6.455
10993POPC   C2B68756  11.565   5.854   6.755
10993POPC   C3B68757  11.534   5.827   7.055
10993POPC   C4B68758  11.539   5.780   7.355
10994POPC   NC368759   0.471   4.361   5.555
10994POPC   PO468760   0.444   4.282   5.855
10994POPC   GL168761   0.389   4.358   6.155
10994POPC   GL268762   0.331   4.244   6.155
10994POPC   C1A68763   0.469   4.306   6.455
10994POPC   D2A68764   0.445   4.334   6.755
10994POPC   C3A68765   0.428   4.347   7.055
10994POPC   C4A68766   0.402   4.361   7.355
10994POPC   C1B68767   0.256   4.166   6.455
10994POPC   C2B68768   0.243   4.186   6.755
10994POPC   C3B68769   0.279   4.182   7.055
10994POPC   C4B68770   0.258   4.144   7.355
10995POPC   NC368771   5.074  39.969   5.555
10995POPC   PO468772   5.124  39.978   5.855
10995POPC   GL168773   5.047  40.043   6.155
10995POPC   GL268774   4.979  39.942   6.155
10995POPC   C1A68775   5.100  39.971   6.455
10995POPC   D2A68776   5.127  40.012   6.755
10995POPC   C3A68777   5.078  40.026   7.055
10995POPC   C4A68778   5.114  39.962   7.355
10995POPC   C1B68779   4.869  39.894   6.455
10995POPC   C2B68780   4.857  39.911   6.755
10995POPC   C3B68781   4.860  39.906   7.055
10995POPC   C4B68782   4.854  39.870   7.355
10996POPC   NC368783  26.841  29.138   5.555
10996POPC   PO468784  26.791  29.113   5.855
10996POPC   GL168785  26.863  29.152   6.155
10996POPC   GL268786  26.927  29.192   6.155
10996POPC   C1A68787  26.785  29.169   6.455
10996POPC   D2A68788  26.837  29.111   6.755
10996POPC   C3A68789  26.840  29.108   7.055
10996POPC   C4A68790  26.776  29.162   7.355
10996POPC   C1B68791  26.990  29.274   6.455
10996POPC   C2B68792  26.967  29.281   6.755
10996POPC   C3B68793  27.046  29.303   7.055
10996POPC   C4B68794  27.058  29.277   7.355
10997POPC   NC368795  30.689  12.032   5.555
10997POPC   PO468796  30.708  12.032   5.855
10997POPC   GL168797  30.655  12.109   6.155
10997POPC   GL268798  30.763  11.996   6.155
10997POPC   C1A68799  30.708  12.106   6.455
10997POPC   D2A68800  30.678  12.094   6.755
10997POPC   C3A68801  30.739  12.058   7.055
10997POPC   C4A68802  30.660  12.035   7.355
10997POPC   C1B68803  30.741  11.811   6.455
10997POPC   C2B68804  30.768  11.862   6.755
10997POPC   C3B68805  30.762  11.787   7.055
10997POPC   C4B68806  30.688  11.826   7.355
10998POPC   NC368807   5.889   6.653   5.555
10998POPC   PO468808   5.851   6.665   5.855
10998POPC   GL168809   5.857   6.649   6.155
10998POPC   GL268810   5.893   6.502   6.155
10998POPC   C1A68811   5.875   6.649   6.455
10998POPC   D2A68812   5.897   6.681   6.755
10998POPC   C3A68813   5.885   6.599   7.055
10998POPC   C4A68814   5.897   6.633   7.355
10998POPC   C1B68815   5.861   6.406   6.455
10998POPC   C2B68816   5.870   6.396   6.755
10998POPC   C3B68817   5.818   6.386   7.055
10998POPC   C4B68818   5.799   6.398   7.355
10999POPC   NC368819  44.649  33.798   5.555
10999POPC   PO468820  44.622  33.788   5.855
10999POPC   GL168821  44.704  33.828   6.155
10999POPC   GL268822  44.552  33.879   6.155
10999POPC   C1A68823  44.633  33.785   6.455
10999POPC   D2A68824  44.654  33.790   6.755
10999POPC   C3A68825  44.703  33.841   7.055
10999POPC   C4A68826  44.624  33.835   7.355
10999POPC   C1B68827  44.487  33.954   6.455
10999POPC   C2B68828  44.436  33.931   6.755
10999POPC   C3B68829  44.446  33.952   7.055
10999POPC   C4B68830  44.416  33.924   7.355
11000POPC   NC368831  33.772   8.162   5.555
11000POPC   PO468832  33.826   8.212   5.855
11000POPC   GL168833  33.813   8.161   6.155
11000POPC   GL268834  33.703   8.117   6.155
11000POPC   C1A68835  33.819   8.221   6.455
11000POPC   D2A68836  33.758   8.179   6.755
11000POPC   C3A68837  33.831   8.231   7.055
11000POPC   C4A68838  33.802   8.161   7.355
11000POPC   C1B68839  33.617   8.118   6.455
11000POPC   C2B68840  33.599   8.089   6.755
11000POPC   C3B68841  33.603   8.057   7.055
11000POPC   C4B68842  33.520   8.090   7.355
11001POPC   NC368843   6.596  36.149   5.555
11001POPC   PO468844   6.682  36.147   5.855
11001POPC   GL168845   6.671  36.125   6.155
11001POPC   GL268846   6.630  36.056   6.155
11001POPC   C1A68847   6.622  36.085   6.455
11001POPC   D2A68848   6.675  36.177   6.755
11001POPC   C3A68849   6.673  36.082   7.055
11001POPC   C4A68850   6.600  36.086   7.355
11001POPC   C1B68851   6.542  35.930   6.455
11001POPC   C2B68852   6.568  35.921   6.755
11001POPC   C3B68853   6.525  35.852   7.055
11001POPC   C4B68854   6.528  35.860   7.355
11002POPC   NC368855  30.710  37.657   5.555
11002POPC   PO468856  30.722  37.729   5.855
11002POPC   GL168857  30.680  37.651   6.155
11002POPC   GL268858  30.761  37.833   6.155
11002POPC   C1A68859  30.709  37.693   6.455
11002POPC   D2A68860  30.675  37.651   6.755
11002POPC   C3A68861  30.680  37.682   7.055
11002POPC   C4A68862  30.701  37.641   7.355
11002POPC   C1B68863  30.767  37.888   6.455
11002POPC   C2B68864  30.785  37.936   6.755
11002POPC   C3B68865  30.818  37.915   7.055
11002POPC   C4B68866  30.833  37.932   7.355
11003POPC   NC368867  19.839  36.921   5.555
11003POPC   PO468868  19.845  36.916   5.855
11003POPC   GL168869  19.877  36.893   6.155
11003POPC   GL268870  19.738  36.938   6.155
11003POPC   C1A68871  19.825  36.947   6.455
11003POPC   D2A68872  19.786  36.898   6.755
11003POPC   C3A68873  19.814  36.868   7.055
11003POPC   C4A68874  19.847  36.881   7.355
11003POPC   C1B68875  19.611  37.004   6.455
11003POPC   C2B68876  19.646  37.054   6.755
11003POPC   C3B68877  19.658  37.040   7.055
11003POPC   C4B68878  19.675  36.992   7.355
11004POPC   NC368879  26.088  22.911   5.555
11004POPC   PO468880  26.019  22.926   5.855
11004POPC   GL168881  26.012  22.920   6.155
11004POPC   GL268882  25.956  22.839   6.155
11004POPC   C1A68883  26.078  22.966   6.455
11004POPC   D2A68884  25.993  22.952   6.755
11004POPC   C3A68885  26.071  22.893   7.055
11004POPC   C4A68886  26.071  22.974   7.355
11004POPC   C1B68887  25.788  22.838   6.455
11004POPC   C2B68888  25.822  22.770   6.755
11004POPC   C3B68889  25.802  22.781   7.055
11004POPC   C4B68890  25.854  22.791   7.355
11005POPC   NC368891  23.722  43.917   5.555
11005POPC   PO468892  23.701  43.865   5.855
11005POPC   GL168893  23.728  43.928   6.155
11005POPC   GL268894  23.793  43.920   6.155
11005POPC   C1A68895  23.700  43.852   6.455
11005POPC   D2A68896  23.705  43.880   6.755
11005POPC   C3A68897  23.670  43.856   7.055
11005POPC   C4A68898  23.757  43.848   7.355
11005POPC   C1B68899  23.946  43.905   6.455
11005POPC   C2B68900  23.977  43.875   6.755
11005POPC   C3B68901  23.936  43.862   7.055
11005POPC   C4B68902  23.933  43.884   7.355
11006POPC   NC368903   6.671  26.068   5.555
11006POPC   PO468904   6.623  25.993   5.855
11006POPC   GL168905   6.667  26.009   6.155
11006POPC   GL268906   6.705  26.190   6.155
11006POPC   C1A68907   6.652  26.085   6.455
11006POPC   D2A68908   6.662  26.061   6.755
11006POPC   C3A68909   6.626  26.081   7.055
11006POPC   C4A68910   6.662  26.064   7.355
11006POPC   C1B68911   6.691  26.242   6.455
11006POPC   C2B68912   6.646  26.314   6.755
11006POPC   C3B68913   6.698  26.291   7.055
11006POPC   C4B68914   6.653  26.277   7.355
11007POPC   NC368915  26.789  12.047   5.555
11007POPC   PO468916  26.809  12.085   5.855
11007POPC   GL168917  26.772  12.030   6.155
11007POPC   GL268918  26.743  12.117   6.155
11007POPC   C1A68919  26.771  12.026   6.455
11007POPC   D2A68920  26.860  12.063   6.755
11007POPC   C3A68921  26.795  12.078   7.055
11007POPC   C4A68922  26.816  12.096   7.355
11007POPC   C1B68923  26.607  12.237   6.455
11007POPC   C2B68924  26.569  12.180   6.755
11007POPC   C3B68925  26.621  12.172   7.055
11007POPC   C4B68926  26.601  12.196   7.355
11008POPC   NC368927  26.815  39.961   5.555
11008POPC   PO468928  26.826  40.019   5.855
11008POPC   GL168929  26.838  40.029   6.155
11008POPC   GL268930  26.914  39.964   6.155
11008POPC   C1A68931  26.802  40.015   6.455
11008POPC   D2A68932  26.807  40.021   6.755
11008POPC   C3A68933  26.849  39.974   7.055
11008POPC   C4A68934  26.802  39.991   7.355
11008POPC   C1B68935  27.080  39.900   6.455
11008POPC   C2B68936  27.011  39.867   6.755
11008POPC   C3B68937  27.034  39.922   7.055
11008POPC   C4B68938  27.054  39.872   7.355
11009POPC   NC368939   5.821   0.467   5.555
11009POPC   PO468940   5.873   0.469   5.855
11009POPC   GL168941   5.916   0.461   6.155
11009POPC   GL268942   5.991   0.337   6.155
11009POPC   C1A68943   5.883   0.478   6.455
11009POPC   D2A68944   5.914   0.395   6.755
11009POPC   C3A68945   5.849   0.441   7.055
11009POPC   C4A68946   5.830   0.461   7.355
11009POPC   C1B68947   6.087   0.370   6.455
11009POPC   C2B68948   6.108   0.293   6.755
11009POPC   C3B68949   6.052   0.318   7.055
11009POPC   C4B68950   6.118   0.292   7.355
11010POPC   NC368951  28.349   5.043   5.555
11010POPC   PO468952  28.347   5.075   5.855
11010POPC   GL168953  28.347   5.046   6.155
11010POPC   GL268954  28.315   5.034   6.155
11010POPC   C1A68955  28.323   5.125   6.455
11010POPC   D2A68956  28.353   5.098   6.755
11010POPC   C3A68957  28.403   5.091   7.055
11010POPC   C4A68958  28.364   5.128   7.355
11010POPC   C1B68959  28.164   4.983   6.455
11010POPC   C2B68960  28.127   4.900   6.755
11010POPC   C3B68961  28.119   4.909   7.055
11010POPC   C4B68962  28.131   4.919   7.355
11011POPC   NC368963  18.242   4.275   5.555
11011POPC   PO468964  18.282   4.282   5.855
11011POPC   GL168965  18.234   4.326   6.155
11011POPC   GL268966  18.267   4.405   6.155
11011POPC   C1A68967  18.307   4.283   6.455
11011POPC   D2A68968  18.259   4.292   6.755
11011POPC   C3A68969  18.276   4.332   7.055
11011POPC   C4A68970  18.329   4.309   7.355
11011POPC   C1B68971  18.280   4.535   6.455
11011POPC   C2B68972  18.243   4.531   6.755
11011POPC   C3B68973  18.300   4.604   7.055
11011POPC   C4B68974  18.260   4.586   7.355
11012POPC   NC368975  24.504  24.440   5.555
11012POPC   PO468976  24.491  24.482   5.855
11012POPC   GL168977  24.469  24.481   6.155
11012POPC   GL268978  24.432  24.387   6.155
11012POPC   C1A68979  24.476  24.474   6.455
11012POPC   D2A68980  24.483  24.522   6.755
11012POPC   C3A68981  24.520  24.469   7.055
11012POPC   C4A68982  24.508  24.449   7.355
11012POPC   C1B68983  24.360  24.276   6.455
11012POPC   C2B68984  24.344  24.318   6.755
11012POPC   C3B68985  24.355  24.323   7.055
11012POPC   C4B68986  24.315  24.235   7.355
11013POPC   NC368987  32.270  24.445   5.555
11013POPC   PO468988  32.228  24.474   5.855
11013POPC   GL168989  32.216  24.528   6.155
11013POPC   GL268990  32.175  24.554   6.155
11013POPC   C1A68991  32.225  24.459   6.455
11013POPC   D2A68992  32.241  24.464   6.755
11013POPC   C3A68993  32.245  24.534   7.055
11013POPC   C4A68994  32.206  24.521   7.355
11013POPC   C1B68995  32.121  24.735   6.455
11013POPC   C2B68996  32.083  24.679   6.755
11013POPC   C3B68997  32.117  24.700   7.055
11013POPC   C4B68998  32.105  24.747   7.355
11014POPC   NC368999  13.671  31.517   5.555
11014POPC   PO469000  13.650  31.480   5.855
11014POPC   GL169001  13.593  31.495   6.155
11014POPC   GL269002  13.756  31.442   6.155
11014POPC   C1A69003  13.639  31.513   6.455
11014POPC   D2A69004  13.608  31.490   6.755
11014POPC   C3A69005  13.632  31.511   7.055
11014POPC   C4A69006  13.624  31.511   7.355
11014POPC   C1B69007  13.836  31.466   6.455
11014POPC   C2B69008  13.903  31.430   6.755
11014POPC   C3B69009  13.869  31.402   7.055
11014POPC   C4B69010  13.871  31.394   7.355
11015POPC   NC369011  15.189   8.217   5.555
11015POPC   PO469012  15.160   8.246   5.855
11015POPC   GL169013  15.154   8.201   6.155
11015POPC   GL269014  15.094   8.072   6.155
11015POPC   C1A69015  15.180   8.237   6.455
11015POPC   D2A69016  15.171   8.195   6.755
11015POPC   C3A69017  15.190   8.181   7.055
11015POPC   C4A69018  15.217   8.156   7.355
11015POPC   C1B69019  15.115   8.018   6.455
11015POPC   C2B69020  15.025   7.996   6.755
11015POPC   C3B69021  15.020   7.981   7.055
11015POPC   C4B69022  15.035   7.936   7.355
11016POPC   NC369023  21.381  28.402   5.555
11016POPC   PO469024  21.342  28.325   5.855
11016POPC   GL169025  21.390  28.396   6.155
11016POPC   GL269026  21.472  28.311   6.155
11016POPC   C1A69027  21.382  28.369   6.455
11016POPC   D2A69028  21.373  28.398   6.755
11016POPC   C3A69029  21.368  28.407   7.055
11016POPC   C4A69030  21.339  28.380   7.355
11016POPC   C1B69031  21.647  28.255   6.455
11016POPC   C2B69032  21.586  28.197   6.755
11016POPC   C3B69033  21.602  28.270   7.055
11016POPC   C4B69034  21.585  28.221   7.355
11017POPC   NC369035  26.811  21.337   5.555
11017POPC   PO469036  26.819  21.383   5.855
11017POPC   GL169037  26.785  21.428   6.155
11017POPC   GL269038  26.940  21.312   6.155
11017POPC   C1A69039  26.809  21.388   6.455
11017POPC   D2A69040  26.840  21.370   6.755
11017POPC   C3A69041  26.812  21.382   7.055
11017POPC   C4A69042  26.773  21.434   7.355
11017POPC   C1B69043  27.029  21.286   6.455
11017POPC   C2B69044  27.080  21.284   6.755
11017POPC   C3B69045  27.047  21.347   7.055
11017POPC   C4B69046  27.054  21.291   7.355
11018POPC   NC369047   2.740  13.606   5.555
11018POPC   PO469048   2.721  13.615   5.855
11018POPC   GL169049   2.771  13.620   6.155
11018POPC   GL269050   2.876  13.541   6.155
11018POPC   C1A69051   2.724  13.654   6.455
11018POPC   D2A69052   2.786  13.670   6.755
11018POPC   C3A69053   2.757  13.672   7.055
11018POPC   C4A69054   2.762  13.589   7.355
11018POPC   C1B69055   2.997  13.490   6.455
11018POPC   C2B69056   2.997  13.557   6.755
11018POPC   C3B69057   2.961  13.483   7.055
11018POPC   C4B69058   3.039  13.478   7.355
11019POPC   NC369059  34.570  35.365   5.555
11019POPC   PO469060  34.561  35.339   5.855
11019POPC   GL169061  34.534  35.319   6.155
11019POPC   GL269062  34.540  35.224   6.155
11019POPC   C1A69063  34.607  35.373   6.455
11019POPC   D2A69064  34.604  35.334   6.755
11019POPC   C3A69065  34.567  35.360   7.055
11019POPC   C4A69066  34.600  35.331   7.355
11019POPC   C1B69067  34.408  35.167   6.455
11019POPC   C2B69068  34.412  35.175   6.755
11019POPC   C3B69069  34.500  35.180   7.055
11019POPC   C4B69070  34.446  35.112   7.355
11020POPC   NC369071  42.287  19.014   5.555
11020POPC   PO469072  42.324  19.054   5.855
11020POPC   GL169073  42.304  19.074   6.155
11020POPC   GL269074  42.424  18.984   6.155
11020POPC   C1A69075  42.311  19.087   6.455
11020POPC   D2A69076  42.287  19.049   6.755
11020POPC   C3A69077  42.299  19.012   7.055
11020POPC   C4A69078  42.307  19.051   7.355
11020POPC   C1B69079  42.534  18.850   6.455
11020POPC   C2B69080  42.467  18.892   6.755
11020POPC   C3B69081  42.555  18.910   7.055
11020POPC   C4B69082  42.488  18.879   7.355
11021POPC   NC369083  39.237  32.207   5.555
11021POPC   PO469084  39.235  32.213   5.855
11021POPC   GL169085  39.247  32.273   6.155
11021POPC   GL269086  39.222  32.153   6.155
11021POPC   C1A69087  39.211  32.241   6.455
11021POPC   D2A69088  39.193  32.283   6.755
11021POPC   C3A69089  39.261  32.231   7.055
11021POPC   C4A69090  39.208  32.199   7.355
11021POPC   C1B69091  39.133  31.984   6.455
11021POPC   C2B69092  39.150  31.996   6.755
11021POPC   C3B69093  39.157  31.989   7.055
11021POPC   C4B69094  39.172  32.037   7.355
11022POPC   NC369095  39.258  17.461   5.555
11022POPC   PO469096  39.272  17.491   5.855
11022POPC   GL169097  39.244  17.526   6.155
11022POPC   GL269098  39.078  17.561   6.155
11022POPC   C1A69099  39.233  17.500   6.455
11022POPC   D2A69100  39.199  17.484   6.755
11022POPC   C3A69101  39.261  17.475   7.055
11022POPC   C4A69102  39.194  17.535   7.355
11022POPC   C1B69103  39.046  17.657   6.455
11022POPC   C2B69104  38.976  17.674   6.755
11022POPC   C3B69105  38.996  17.626   7.055
11022POPC   C4B69106  39.015  17.624   7.355
11023POPC   NC369107  18.236  15.206   5.555
11023POPC   PO469108  18.313  15.182   5.855
11023POPC   GL169109  18.265  15.154   6.155
11023POPC   GL269110  18.361  15.188   6.155
11023POPC   C1A69111  18.252  15.195   6.455
11023POPC   D2A69112  18.271  15.145   6.755
11023POPC   C3A69113  18.316  15.220   7.055
11023POPC   C4A69114  18.276  15.157   7.355
11023POPC   C1B69115  18.563  15.220   6.455
11023POPC   C2B69116  18.541  15.221   6.755
11023POPC   C3B69117  18.508  15.177   7.055
11023POPC   C4B69118  18.517  15.234   7.355
11024POPC   NC369119  15.180  26.029   5.555
11024POPC   PO469120  15.195  26.003   5.855
11024POPC   GL169121  15.149  26.078   6.155
11024POPC   GL269122  15.061  26.151   6.155
11024POPC   C1A69123  15.180  26.053   6.455
11024POPC   D2A69124  15.142  26.003   6.755
11024POPC   C3A69125  15.222  26.070   7.055
11024POPC   C4A69126  15.206  26.066   7.355
11024POPC   C1B69127  15.050  26.249   6.455
11024POPC   C2B69128  14.982  26.173   6.755
11024POPC   C3B69129  15.046  26.227   7.055
11024POPC   C4B69130  15.011  26.236   7.355
11025POPC   NC369131  41.521  43.863   5.555
11025POPC   PO469132  41.606  43.917   5.855
11025POPC   GL169133  41.565  43.917   6.155
11025POPC   GL269134  41.435  43.858   6.155
11025POPC   C1A69135  41.606  43.845   6.455
11025POPC   D2A69136  41.560  43.893   6.755
11025POPC   C3A69137  41.597  43.845   7.055
11025POPC   C4A69138  41.601  43.906   7.355
11025POPC   C1B69139  41.335  43.723   6.455
11025POPC   C2B69140  41.397  43.765   6.755
11025POPC   C3B69141  41.394  43.758   7.055
11025POPC   C4B69142  41.332  43.770   7.355
11026POPC   NC369143  20.578  33.825   5.555
11026POPC   PO469144  20.604  33.794   5.855
11026POPC   GL169145  20.642  33.769   6.155
11026POPC   GL269146  20.524  33.777   6.155
11026POPC   C1A69147  20.642  33.848   6.455
11026POPC   D2A69148  20.574  33.848   6.755
11026POPC   C3A69149  20.590  33.816   7.055
11026POPC   C4A69150  20.653  33.837   7.355
11026POPC   C1B69151  20.413  33.695   6.455
11026POPC   C2B69152  20.349  33.694   6.755
11026POPC   C3B69153  20.370  33.638   7.055
11026POPC   C4B69154  20.357  33.680   7.355
11027POPC   NC369155  41.592  19.810   5.555
11027POPC   PO469156  41.580  19.808   5.855
11027POPC   GL169157  41.519  19.880   6.155
11027POPC   GL269158  41.493  19.758   6.155
11027POPC   C1A69159  41.539  19.862   6.455
11027POPC   D2A69160  41.589  19.823   6.755
11027POPC   C3A69161  41.582  19.847   7.055
11027POPC   C4A69162  41.565  19.863   7.355
11027POPC   C1B69163  41.534  19.615   6.455
11027POPC   C2B69164  41.480  19.601   6.755
11027POPC   C3B69165  41.454  19.563   7.055
11027POPC   C4B69166  41.477  19.638   7.355
11028POPC   NC369167  19.108  25.253   5.555
11028POPC   PO469168  19.012  25.240   5.855
11028POPC   GL169169  19.089  25.307   6.155
11028POPC   GL269170  19.004  25.120   6.155
11028POPC   C1A69171  19.029  25.253   6.455
11028POPC   D2A69172  19.055  25.270   6.755
11028POPC   C3A69173  19.046  25.271   7.055
11028POPC   C4A69174  19.045  25.299   7.355
11028POPC   C1B69175  18.905  25.033   6.455
11028POPC   C2B69176  18.936  25.037   6.755
11028POPC   C3B69177  18.897  25.054   7.055
11028POPC   C4B69178  18.852  25.102   7.355
11029POPC   NC369179  32.245   0.459   5.555
11029POPC   PO469180  32.213   0.443   5.855
11029POPC   GL169181  32.245   0.406   6.155
11029POPC   GL269182  32.329   0.372   6.155
11029POPC   C1A69183  32.230   0.455   6.455
11029POPC   D2A69184  32.294   0.404   6.755
11029POPC   C3A69185  32.227   0.453   7.055
11029POPC   C4A69186  32.267   0.434   7.355
11029POPC   C1B69187  32.364   0.286   6.455
11029POPC   C2B69188  32.351   0.194   6.755
11029POPC   C3B69189  32.372   0.229   7.055
11029POPC   C4B69190  32.415   0.240   7.355
11030POPC   NC369191  29.901  34.611   5.555
11030POPC   PO469192  29.948  34.577   5.855
11030POPC   GL169193  29.913  34.572   6.155
11030POPC   GL269194  29.813  34.467   6.155
11030POPC   C1A69195  29.961  34.566   6.455
11030POPC   D2A69196  29.958  34.539   6.755
11030POPC   C3A69197  29.877  34.584   7.055
11030POPC   C4A69198  29.954  34.585   7.355
11030POPC   C1B69199  29.679  34.446   6.455
11030POPC   C2B69200  29.739  34.419   6.755
11030POPC   C3B69201  29.704  34.409   7.055
11030POPC   C4B69202  29.750  34.418   7.355
11031POPC   NC369203  18.280  36.878   5.555
11031POPC   PO469204  18.300  36.932   5.855
11031POPC   GL169205  18.261  36.864   6.155
11031POPC   GL269206  18.140  36.932   6.155
11031POPC   C1A69207  18.310  36.920   6.455
11031POPC   D2A69208  18.309  36.893   6.755
11031POPC   C3A69209  18.297  36.938   7.055
11031POPC   C4A69210  18.283  36.915   7.355
11031POPC   C1B69211  18.089  37.007   6.455
11031POPC   C2B69212  18.056  36.978   6.755
11031POPC   C3B69213  18.051  36.988   7.055
11031POPC   C4B69214  18.007  37.007   7.355
11032POPC   NC369215  29.167  22.900   5.555
11032POPC   PO469216  29.181  22.899   5.855
11032POPC   GL169217  29.161  22.911   6.155
11032POPC   GL269218  29.186  22.842   6.155
11032POPC   C1A69219  29.186  22.975   6.455
11032POPC   D2A69220  29.179  22.933   6.755
11032POPC   C3A69221  29.112  22.960   7.055
11032POPC   C4A69222  29.115  22.905   7.355
11032POPC   C1B69223  29.291  22.776   6.455
11032POPC   C2B69224  29.275  22.796   6.755
11032POPC   C3B69225  29.269  22.745   7.055
11032POPC   C4B69226  29.283  22.717   7.355
11033POPC   NC369227   8.229  36.095   5.555
11033POPC   PO469228   8.174  36.094   5.855
11033POPC   GL169229   8.172  36.142   6.155
11033POPC   GL269230   8.035  36.058   6.155
11033POPC   C1A69231   8.241  36.078   6.455
11033POPC   D2A69232   8.183  36.166   6.755
11033POPC   C3A69233   8.191  36.159   7.055
11033POPC   C4A69234   8.237  36.127   7.355
11033POPC   C1B69235   7.970  36.034   6.455
11033POPC   C2B69236   7.942  36.022   6.755
11033POPC   C3B69237   7.915  36.077   7.055
11033POPC   C4B69238   7.964  36.048   7.355
11034POPC   NC369239  12.821  12.823   5.555
11034POPC   PO469240  12.901  12.883   5.855
11034POPC   GL169241  12.874  12.849   6.155
11034POPC   GL269242  12.809  12.707   6.155
11034POPC   C1A69243  12.883  12.895   6.455
11034POPC   D2A69244  12.883  12.897   6.755
11034POPC   C3A69245  12.831  12.878   7.055
11034POPC   C4A69246  12.888  12.850   7.355
11034POPC   C1B69247  12.799  12.612   6.455
11034POPC   C2B69248  12.805  12.646   6.755
11034POPC   C3B69249  12.757  12.658   7.055
11034POPC   C4B69250  12.799  12.626   7.355
11035POPC   NC369251  11.301  24.460   5.555
11035POPC   PO469252  11.278  24.445   5.855
11035POPC   GL169253  11.338  24.537   6.155
11035POPC   GL269254  11.211  24.361   6.155
11035POPC   C1A69255  11.314  24.468   6.455
11035POPC   D2A69256  11.333  24.513   6.755
11035POPC   C3A69257  11.293  24.465   7.055
11035POPC   C4A69258  11.266  24.451   7.355
11035POPC   C1B69259  11.099  24.321   6.455
11035POPC   C2B69260  11.149  24.268   6.755
11035POPC   C3B69261  11.096  24.322   7.055
11035POPC   C4B69262  11.147  24.298   7.355
11036POPC   NC369263  11.298  42.343   5.555
11036POPC   PO469264  11.265  42.356   5.855
11036POPC   GL169265  11.319  42.346   6.155
11036POPC   GL269266  11.177  42.232   6.155
11036POPC   C1A69267  11.270  42.344   6.455
11036POPC   D2A69268  11.340  42.342   6.755
11036POPC   C3A69269  11.344  42.363   7.055
11036POPC   C4A69270  11.307  42.301   7.355
11036POPC   C1B69271  11.134  42.236   6.455
11036POPC   C2B69272  11.054  42.224   6.755
11036POPC   C3B69273  11.076  42.161   7.055
11036POPC   C4B69274  11.101  42.217   7.355
11037POPC   NC369275   6.627  13.666   5.555
11037POPC   PO469276   6.638  13.673   5.855
11037POPC   GL169277   6.669  13.639   6.155
11037POPC   GL269278   6.585  13.748   6.155
11037POPC   C1A69279   6.609  13.638   6.455
11037POPC   D2A69280   6.685  13.658   6.755
11037POPC   C3A69281   6.651  13.634   7.055
11037POPC   C4A69282   6.686  13.588   7.355
11037POPC   C1B69283   6.545  13.817   6.455
11037POPC   C2B69284   6.581  13.860   6.755
11037POPC   C3B69285   6.549  13.905   7.055
11037POPC   C4B69286   6.503  13.858   7.355
11038POPC   NC369287  26.047  40.811   5.555
11038POPC   PO469288  26.022  40.750   5.855
11038POPC   GL169289  26.045  40.802   6.155
11038POPC   GL269290  25.962  40.929   6.155
11038POPC   C1A69291  26.091  40.742   6.455
11038POPC   D2A69292  26.057  40.800   6.755
11038POPC   C3A69293  25.995  40.796   7.055
11038POPC   C4A69294  26.077  40.740   7.355
11038POPC   C1B69295  25.938  41.050   6.455
11038POPC   C2B69296  25.887  41.017   6.755
11038POPC   C3B69297  25.953  40.993   7.055
11038POPC   C4B69298  25.943  40.988   7.355
11039POPC   NC369299  23.731  21.377   5.555
11039POPC   PO469300  23.685  21.407   5.855
11039POPC   GL169301  23.720  21.406   6.155
11039POPC   GL269302  23.715  21.282   6.155
11039POPC   C1A69303  23.724  21.352   6.455
11039POPC   D2A69304  23.696  21.380   6.755
11039POPC   C3A69305  23.747  21.394   7.055
11039POPC   C4A69306  23.707  21.367   7.355
11039POPC   C1B69307  23.723  21.091   6.455
11039POPC   C2B69308  23.674  21.100   6.755
11039POPC   C3B69309  23.715  21.140   7.055
11039POPC   C4B69310  23.679  21.099   7.355
11040POPC   NC369311  19.036  31.435   5.555
11040POPC   PO469312  19.020  31.457   5.855
11040POPC   GL169313  19.026  31.448   6.155
11040POPC   GL269314  19.179  31.475   6.155
11040POPC   C1A69315  19.044  31.474   6.455
11040POPC   D2A69316  19.028  31.458   6.755
11040POPC   C3A69317  19.071  31.454   7.055
11040POPC   C4A69318  19.077  31.505   7.355
11040POPC   C1B69319  19.293  31.613   6.455
11040POPC   C2B69320  19.328  31.539   6.755
11040POPC   C3B69321  19.271  31.550   7.055
11040POPC   C4B69322  19.255  31.609   7.355
11041POPC   NC369323   6.679  27.568   5.555
11041POPC   PO469324   6.611  27.543   5.855
11041POPC   GL169325   6.661  27.605   6.155
11041POPC   GL269326   6.558  27.652   6.155
11041POPC   C1A69327   6.596  27.545   6.455
11041POPC   D2A69328   6.644  27.609   6.755
11041POPC   C3A69329   6.599  27.635   7.055
11041POPC   C4A69330   6.608  27.570   7.355
11041POPC   C1B69331   6.412  27.743   6.455
11041POPC   C2B69332   6.428  27.696   6.755
11041POPC   C3B69333   6.426  27.712   7.055
11041POPC   C4B69334   6.471  27.756   7.355
11042POPC   NC369335  34.575   7.412   5.555
11042POPC   PO469336  34.574   7.432   5.855
11042POPC   GL169337  34.578   7.396   6.155
11042POPC   GL269338  34.487   7.426   6.155
11042POPC   C1A69339  34.561   7.418   6.455
11042POPC   D2A69340  34.531   7.414   6.755
11042POPC   C3A69341  34.562   7.455   7.055
11042POPC   C4A69342  34.558   7.397   7.355
11042POPC   C1B69343  34.326   7.453   6.455
11042POPC   C2B69344  34.327   7.488   6.755
11042POPC   C3B69345  34.314   7.456   7.055
11042POPC   C4B69346  34.362   7.483   7.355
11043POPC   NC369347  22.190  26.809   5.555
11043POPC   PO469348  22.196  26.797   5.855
11043POPC   GL169349  22.203  26.782   6.155
11043POPC   GL269350  22.204  26.692   6.155
11043POPC   C1A69351  22.171  26.864   6.455
11043POPC   D2A69352  22.149  26.822   6.755
11043POPC   C3A69353  22.122  26.795   7.055
11043POPC   C4A69354  22.147  26.768   7.355
11043POPC   C1B69355  22.254  26.586   6.455
11043POPC   C2B69356  22.305  26.641   6.755
11043POPC   C3B69357  22.242  26.597   7.055
11043POPC   C4B69358  22.271  26.571   7.355
11044POPC   NC369359  40.018  20.584   5.555
11044POPC   PO469360  40.047  20.619   5.855
11044POPC   GL169361  40.016  20.653   6.155
11044POPC   GL269362  40.164  20.653   6.155
11044POPC   C1A69363  39.994  20.642   6.455
11044POPC   D2A69364  39.957  20.580   6.755
11044POPC   C3A69365  39.992  20.611   7.055
11044POPC   C4A69366  40.026  20.659   7.355
11044POPC   C1B69367  40.227  20.661   6.455
11044POPC   C2B69368  40.264  20.649   6.755
11044POPC   C3B69369  40.268  20.713   7.055
11044POPC   C4B69370  40.266  20.672   7.355
11045POPC   NC369371   5.057  24.461   5.555
11045POPC   PO469372   5.066  24.453   5.855
11045POPC   GL169373   5.130  24.489   6.155
11045POPC   GL269374   5.177  24.610   6.155
11045POPC   C1A69375   5.135  24.473   6.455
11045POPC   D2A69376   5.078  24.479   6.755
11045POPC   C3A69377   5.130  24.453   7.055
11045POPC   C4A69378   5.107  24.472   7.355
11045POPC   C1B69379   5.282  24.641   6.455
11045POPC   C2B69380   5.326  24.681   6.755
11045POPC   C3B69381   5.333  24.601   7.055
11045POPC   C4B69382   5.323  24.664   7.355
11046POPC   NC369383  35.333  32.237   5.555
11046POPC   PO469384  35.339  32.215   5.855
11046POPC   GL169385  35.367  32.293   6.155
11046POPC   GL269386  35.244  32.175   6.155
11046POPC   C1A69387  35.334  32.219   6.455
11046POPC   D2A69388  35.323  32.229   6.755
11046POPC   C3A69389  35.377  32.239   7.055
11046POPC   C4A69390  35.345  32.285   7.355
11046POPC   C1B69391  35.096  32.217   6.455
11046POPC   C2B69392  35.085  32.155   6.755
11046POPC   C3B69393  35.128  32.150   7.055
11046POPC   C4B69394  35.088  32.194   7.355
11047POPC   NC369395  18.297  44.646   5.555
11047POPC   PO469396  18.247  44.652   5.855
11047POPC   GL169397  18.257  44.705   6.155
11047POPC   GL269398  18.203  44.670   6.155
11047POPC   C1A69399  18.316  44.699   6.455
11047POPC   D2A69400  18.245  44.637   6.755
11047POPC   C3A69401  18.254  44.627   7.055
11047POPC   C4A69402  18.265  44.680   7.355
11047POPC   C1B69403  18.016  44.711   6.455
11047POPC   C2B69404  18.057  44.764   6.755
11047POPC   C3B69405  18.005  44.726   7.055
11047POPC   C4B69406  18.013  44.712   7.355
11048POPC   NC369407  26.090   8.967   5.555
11048POPC   PO469408  26.033   8.982   5.855
11048POPC   GL169409  26.059   8.946   6.155
11048POPC   GL269410  25.965   8.994   6.155
11048POPC   C1A69411  26.085   8.936   6.455
11048POPC   D2A69412  26.010   8.985   6.755
11048POPC   C3A69413  25.994   8.937   7.055
11048POPC   C4A69414  26.085   9.000   7.355
11048POPC   C1B69415  25.759   8.982   6.455
11048POPC   C2B69416  25.833   9.002   6.755
11048POPC   C3B69417  25.827   8.985   7.055
11048POPC   C4B69418  25.783   9.043   7.355
11049POPC   NC369419  43.091  26.775   5.555
11049POPC   PO469420  43.148  26.808   5.855
11049POPC   GL169421  43.134  26.813   6.155
11049POPC   GL269422  43.194  26.732   6.155
11049POPC   C1A69423  43.148  26.827   6.455
11049POPC   D2A69424  43.143  26.854   6.755
11049POPC   C3A69425  43.148  26.772   7.055
11049POPC   C4A69426  43.106  26.831   7.355
11049POPC   C1B69427  43.310  26.684   6.455
11049POPC   C2B69428  43.303  26.736   6.755
11049POPC   C3B69429  43.313  26.731   7.055
11049POPC   C4B69430  43.299  26.705   7.355
11050POPC   NC369431   7.418  43.877   5.555
11050POPC   PO469432   7.432  43.931   5.855
11050POPC   GL169433   7.425  43.885   6.155
11050POPC   GL269434   7.293  43.821   6.155
11050POPC   C1A69435   7.416  43.866   6.455
11050POPC   D2A69436   7.431  43.934   6.755
11050POPC   C3A69437   7.375  43.874   7.055
11050POPC   C4A69438   7.427  43.918   7.355
11050POPC   C1B69439   7.183  43.746   6.455
11050POPC   C2B69440   7.261  43.738   6.755
11050POPC   C3B69441   7.265  43.730   7.055
11050POPC   C4B69442   7.198  43.724   7.355
11051POPC   NC369443  12.076  41.567   5.555
11051POPC   PO469444  12.027  41.552   5.855
11051POPC   GL169445  12.056  41.593   6.155
11051POPC   GL269446  11.955  41.501   6.155
11051POPC   C1A69447  12.085  41.519   6.455
11051POPC   D2A69448  12.081  41.586   6.755
11051POPC   C3A69449  12.032  41.580   7.055
11051POPC   C4A69450  12.045  41.588   7.355
11051POPC   C1B69451  11.852  41.410   6.455
11051POPC   C2B69452  11.892  41.389   6.755
11051POPC   C3B69453  11.906  41.416   7.055
11051POPC   C4B69454  11.914  41.429   7.355
11052POPC   NC369455  11.253  31.430   5.555
11052POPC   PO469456  11.330  31.462   5.855
11052POPC   GL169457  11.282  31.493   6.155
11052POPC   GL269458  11.310  31.633   6.155
11052POPC   C1A69459  11.314  31.443   6.455
11052POPC   D2A69460  11.264  31.506   6.755
11052POPC   C3A69461  11.328  31.486   7.055
11052POPC   C4A69462  11.328  31.513   7.355
11052POPC   C1B69463  11.213  31.727   6.455
11052POPC   C2B69464  11.252  31.719   6.755
11052POPC   C3B69465  11.296  31.744   7.055
11052POPC   C4B69466  11.231  31.730   7.355
11053POPC   NC369467  13.581   0.487   5.555
11053POPC   PO469468  13.646   0.467   5.855
11053POPC   GL169469  13.611   0.488   6.155
11053POPC   GL269470  13.738   0.491   6.155
11053POPC   C1A69471  13.676   0.401   6.455
11053POPC   D2A69472  13.644   0.427   6.755
11053POPC   C3A69473  13.595   0.393   7.055
11053POPC   C4A69474  13.645   0.478   7.355
11053POPC   C1B69475  13.863   0.485   6.455
11053POPC   C2B69476  13.830   0.480   6.755
11053POPC   C3B69477  13.831   0.514   7.055
11053POPC   C4B69478  13.875   0.462   7.355
11054POPC   NC369479  26.805  36.879   5.555
11054POPC   PO469480  26.791  36.884   5.855
11054POPC   GL169481  26.792  36.941   6.155
11054POPC   GL269482  26.906  36.902   6.155
11054POPC   C1A69483  26.823  36.888   6.455
11054POPC   D2A69484  26.840  36.874   6.755
11054POPC   C3A69485  26.784  36.923   7.055
11054POPC   C4A69486  26.769  36.890   7.355
11054POPC   C1B69487  27.037  36.979   6.455
11054POPC   C2B69488  27.087  36.924   6.755
11054POPC   C3B69489  27.063  36.961   7.055
11054POPC   C4B69490  27.068  36.989   7.355
11055POPC   NC369491   9.713  12.074   5.555
11055POPC   PO469492   9.759  12.038   5.855
11055POPC   GL169493   9.795  12.102   6.155
11055POPC   GL269494   9.801  11.992   6.155
11055POPC   C1A69495   9.794  12.084   6.455
11055POPC   D2A69496   9.773  12.051   6.755
11055POPC   C3A69497   9.703  12.030   7.055
11055POPC   C4A69498   9.746  12.050   7.355
11055POPC   C1B69499   9.745  11.816   6.455
11055POPC   C2B69500   9.812  11.804   6.755
11055POPC   C3B69501   9.731  11.820   7.055
11055POPC   C4B69502   9.781  11.864   7.355
11056POPC   NC369503  12.033  19.009   5.555
11056POPC   PO469504  12.104  19.081   5.855
11056POPC   GL169505  12.051  19.059   6.155
11056POPC   GL269506  12.090  19.169   6.155
11056POPC   C1A69507  12.102  19.103   6.455
11056POPC   D2A69508  12.029  19.026   6.755
11056POPC   C3A69509  12.044  19.093   7.055
11056POPC   C4A69510  12.118  19.010   7.355
11056POPC   C1B69511  12.052  19.337   6.455
11056POPC   C2B69512  12.074  19.351   6.755
11056POPC   C3B69513  12.010  19.316   7.055
11056POPC   C4B69514  12.058  19.287   7.355
11057POPC   NC369515  24.462  38.458   5.555
11057POPC   PO469516  24.442  38.423   5.855
11057POPC   GL169517  24.535  38.500   6.155
11057POPC   GL269518  24.609  38.407   6.155
11057POPC   C1A69519  24.469  38.466   6.455
11057POPC   D2A69520  24.482  38.413   6.755
11057POPC   C3A69521  24.503  38.441   7.055
11057POPC   C4A69522  24.490  38.449   7.355
11057POPC   C1B69523  24.663  38.307   6.455
11057POPC   C2B69524  24.654  38.282   6.755
11057POPC   C3B69525  24.694  38.296   7.055
11057POPC   C4B69526  24.641  38.277   7.355
11058POPC   NC369527  40.777   8.172   5.555
11058POPC   PO469528  40.788   8.235   5.855
11058POPC   GL169529  40.791   8.232   6.155
11058POPC   GL269530  40.854   8.139   6.155
11058POPC   C1A69531  40.810   8.234   6.455
11058POPC   D2A69532  40.827   8.189   6.755
11058POPC   C3A69533  40.824   8.198   7.055
11058POPC   C4A69534  40.735   8.210   7.355
11058POPC   C1B69535  40.951   7.981   6.455
11058POPC   C2B69536  40.976   8.031   6.755
11058POPC   C3B69537  41.006   8.050   7.055
11058POPC   C4B69538  40.962   8.029   7.355
11059POPC   NC369539  35.379  29.154   5.555
11059POPC   PO469540  35.338  29.176   5.855
11059POPC   GL169541  35.325  29.153   6.155
11059POPC   GL269542  35.406  29.017   6.155
11059POPC   C1A69543  35.331  29.178   6.455
11059POPC   D2A69544  35.372  29.183   6.755
11059POPC   C3A69545  35.371  29.112   7.055
11059POPC   C4A69546  35.316  29.194   7.355
11059POPC   C1B69547  35.363  28.869   6.455
11059POPC   C2B69548  35.329  28.926   6.755
11059POPC   C3B69549  35.379  28.926   7.055
11059POPC   C4B69550  35.362  28.923   7.355
11060POPC   NC369551  29.881  19.855   5.555
11060POPC   PO469552  29.930  19.860   5.855
11060POPC   GL169553  29.957  19.849   6.155
11060POPC   GL269554  29.803  19.814   6.155
11060POPC   C1A69555  29.931  19.846   6.455
11060POPC   D2A69556  29.876  19.852   6.755
11060POPC   C3A69557  29.906  19.858   7.055
11060POPC   C4A69558  29.958  19.876   7.355
11060POPC   C1B69559  29.679  19.703   6.455
11060POPC   C2B69560  29.686  19.700   6.755
11060POPC   C3B69561  29.724  19.722   7.055
11060POPC   C4B69562  29.738  19.715   7.355
11061POPC   NC369563  43.072   0.409   5.555
11061POPC   PO469564  43.146   0.466   5.855
11061POPC   GL169565  43.147   0.484   6.155
11061POPC   GL269566  43.226   0.473   6.155
11061POPC   C1A69567  43.124   0.425   6.455
11061POPC   D2A69568  43.155   0.417   6.755
11061POPC   C3A69569  43.129   0.423   7.055
11061POPC   C4A69570  43.069   0.432   7.355
11061POPC   C1B69571  43.401   0.390   6.455
11061POPC   C2B69572  43.387   0.455   6.755
11061POPC   C3B69573  43.361   0.422   7.055
11061POPC   C4B69574  43.392   0.446   7.355
11062POPC   NC369575  36.162  15.196   5.555
11062POPC   PO469576  36.139  15.200   5.855
11062POPC   GL169577  36.082  15.134   6.155
11062POPC   GL269578  35.988  15.193   6.155
11062POPC   C1A69579  36.169  15.209   6.455
11062POPC   D2A69580  36.170  15.172   6.755
11062POPC   C3A69581  36.174  15.143   7.055
11062POPC   C4A69582  36.151  15.218   7.355
11062POPC   C1B69583  35.846  15.249   6.455
11062POPC   C2B69584  35.888  15.229   6.755
11062POPC   C3B69585  35.907  15.194   7.055
11062POPC   C4B69586  35.921  15.217   7.355
11063POPC   NC369587   0.463   2.037   5.555
11063POPC   PO469588   0.470   2.014   5.855
11063POPC   GL169589   0.405   2.016   6.155
11063POPC   GL269590   0.326   1.907   6.155
11063POPC   C1A69591   0.451   2.029   6.455
11063POPC   D2A69592   0.390   2.029   6.755
11063POPC   C3A69593   0.436   2.006   7.055
11063POPC   C4A69594   0.442   2.033   7.355
11063POPC   C1B69595   0.184   1.812   6.455
11063POPC   C2B69596   0.271   1.891   6.755
11063POPC   C3B69597   0.279   1.874   7.055
11063POPC   C4B69598   0.210   1.875   7.355
11064POPC   NC369599  33.015  42.308   5.555
11064POPC   PO469600  33.011  42.296   5.855
11064POPC   GL169601  32.978  42.317   6.155
11064POPC   GL269602  33.029  42.259   6.155
11064POPC   C1A69603  33.027  42.353   6.455
11064POPC   D2A69604  33.053  42.366   6.755
11064POPC   C3A69605  33.019  42.334   7.055
11064POPC   C4A69606  33.072  42.359   7.355
11064POPC   C1B69607  33.015  42.109   6.455
11064POPC   C2B69608  32.975  42.122   6.755
11064POPC   C3B69609  33.006  42.062   7.055
11064POPC   C4B69610  32.940  42.107   7.355
11065POPC   NC369611  29.166  41.587   5.555
11065POPC   PO469612  29.115  41.531   5.855
11065POPC   GL169613  29.143  41.517   6.155
11065POPC   GL269614  29.243  41.526   6.155
11065POPC   C1A69615  29.151  41.606   6.455
11065POPC   D2A69616  29.179  41.540   6.755
11065POPC   C3A69617  29.134  41.602   7.055
11065POPC   C4A69618  29.114  41.539   7.355
11065POPC   C1B69619  29.323  41.377   6.455
11065POPC   C2B69620  29.368  41.445   6.755
11065POPC   C3B69621  29.365  41.450   7.055
11065POPC   C4B69622  29.379  41.379   7.355
11066POPC   NC369623  40.757  19.103   5.555
11066POPC   PO469624  40.827  19.055   5.855
11066POPC   GL169625  40.798  19.109   6.155
11066POPC   GL269626  40.810  19.224   6.155
11066POPC   C1A69627  40.743  19.094   6.455
11066POPC   D2A69628  40.772  19.050   6.755
11066POPC   C3A69629  40.814  19.017   7.055
11066POPC   C4A69630  40.782  19.072   7.355
11066POPC   C1B69631  40.735  19.338   6.455
11066POPC   C2B69632  40.768  19.330   6.755
11066POPC   C3B69633  40.798  19.352   7.055
11066POPC   C4B69634  40.750  19.345   7.355
11067POPC   NC369635  36.937  33.846   5.555
11067POPC   PO469636  36.897  33.837   5.855
11067POPC   GL169637  36.885  33.788   6.155
11067POPC   GL269638  36.993  33.785   6.155
11067POPC   C1A69639  36.896  33.782   6.455
11067POPC   D2A69640  36.926  33.834   6.755
11067POPC   C3A69641  36.934  33.779   7.055
11067POPC   C4A69642  36.895  33.756   7.355
11067POPC   C1B69643  37.156  33.890   6.455
11067POPC   C2B69644  37.098  33.810   6.755
11067POPC   C3B69645  37.186  33.903   7.055
11067POPC   C4B69646  37.126  33.872   7.355
11068POPC   NC369647  36.101  39.253   5.555
11068POPC   PO469648  36.117  39.199   5.855
11068POPC   GL169649  36.093  39.237   6.155
11068POPC   GL269650  35.986  39.170   6.155
11068POPC   C1A69651  36.169  39.275   6.455
11068POPC   D2A69652  36.111  39.231   6.755
11068POPC   C3A69653  36.104  39.187   7.055
11068POPC   C4A69654  36.090  39.259   7.355
11068POPC   C1B69655  35.855  39.134   6.455
11068POPC   C2B69656  35.877  39.132   6.755
11068POPC   C3B69657  35.863  39.190   7.055
11068POPC   C4B69658  35.891  39.150   7.355
11069POPC   NC369659  12.030  29.106   5.555
11069POPC   PO469660  12.101  29.178   5.855
11069POPC   GL169661  12.090  29.176   6.155
11069POPC   GL269662  12.153  29.050   6.155
11069POPC   C1A69663  12.071  29.192   6.455
11069POPC   D2A69664  12.046  29.155   6.755
11069POPC   C3A69665  12.110  29.131   7.055
11069POPC   C4A69666  12.049  29.150   7.355
11069POPC   C1B69667  12.227  28.903   6.455
11069POPC   C2B69668  12.202  28.946   6.755
11069POPC   C3B69669  12.213  28.895   7.055
11069POPC   C4B69670  12.211  28.898   7.355
11070POPC   NC369671  19.080  43.896   5.555
11070POPC   PO469672  19.037  43.931   5.855
11070POPC   GL169673  19.037  43.846   6.155
11070POPC   GL269674  19.162  43.876   6.155
11070POPC   C1A69675  19.100  43.845   6.455
11070POPC   D2A69676  19.040  43.844   6.755
11070POPC   C3A69677  19.031  43.858   7.055
11070POPC   C4A69678  19.098  43.850   7.355
11070POPC   C1B69679  19.339  43.952   6.455
11070POPC   C2B69680  19.275  43.937   6.755
11070POPC   C3B69681  19.263  43.906   7.055
11070POPC   C4B69682  19.297  43.940   7.355
11071POPC   NC369683  42.359  22.179   5.555
11071POPC   PO469684  42.346  22.130   5.855
11071POPC   GL169685  42.381  22.175   6.155
11071POPC   GL269686  42.236  22.235   6.155
11071POPC   C1A69687  42.320  22.160   6.455
11071POPC   D2A69688  42.328  22.130   6.755
11071POPC   C3A69689  42.318  22.164   7.055
11071POPC   C4A69690  42.380  22.164   7.355
11071POPC   C1B69691  42.196  22.361   6.455
11071POPC   C2B69692  42.126  22.378   6.755
11071POPC   C3B69693  42.105  22.310   7.055
11071POPC   C4B69694  42.109  22.340   7.355
11072POPC   NC369695  41.541  40.768   5.555
11072POPC   PO469696  41.540  40.734   5.855
11072POPC   GL169697  41.530  40.801   6.155
11072POPC   GL269698  41.669  40.626   6.155
11072POPC   C1A69699  41.529  40.756   6.455
11072POPC   D2A69700  41.598  40.794   6.755
11072POPC   C3A69701  41.566  40.812   7.055
11072POPC   C4A69702  41.564  40.752   7.355
11072POPC   C1B69703  41.691  40.563   6.455
11072POPC   C2B69704  41.712  40.602   6.755
11072POPC   C3B69705  41.717  40.585   7.055
11072POPC   C4B69706  41.644  40.543   7.355
11073POPC   NC369707  10.552  12.873   5.555
11073POPC   PO469708  10.559  12.881   5.855
11073POPC   GL169709  10.515  12.858   6.155
11073POPC   GL269710  10.566  12.969   6.155
11073POPC   C1A69711  10.507  12.886   6.455
11073POPC   D2A69712  10.505  12.861   6.755
11073POPC   C3A69713  10.504  12.877   7.055
11073POPC   C4A69714  10.560  12.823   7.355
11073POPC   C1B69715  10.698  13.012   6.455
11073POPC   C2B69716  10.721  13.036   6.755
11073POPC   C3B69717  10.701  13.058   7.055
11073POPC   C4B69718  10.738  13.065   7.355
11074POPC   NC369719   9.782  41.533   5.555
11074POPC   PO469720   9.748  41.575   5.855
11074POPC   GL169721   9.719  41.547   6.155
11074POPC   GL269722   9.707  41.486   6.155
11074POPC   C1A69723   9.783  41.581   6.455
11074POPC   D2A69724   9.738  41.509   6.755
11074POPC   C3A69725   9.769  41.547   7.055
11074POPC   C4A69726   9.699  41.533   7.355
11074POPC   C1B69727   9.636  41.322   6.455
11074POPC   C2B69728   9.607  41.342   6.755
11074POPC   C3B69729   9.674  41.336   7.055
11074POPC   C4B69730   9.674  41.351   7.355
11075POPC   NC369731   4.290  22.165   5.555
11075POPC   PO469732   4.302  22.190   5.855
11075POPC   GL169733   4.305  22.136   6.155
11075POPC   GL269734   4.439  22.278   6.155
11075POPC   C1A69735   4.352  22.197   6.455
11075POPC   D2A69736   4.336  22.118   6.755
11075POPC   C3A69737   4.367  22.139   7.055
11075POPC   C4A69738   4.362  22.114   7.355
11075POPC   C1B69739   4.431  22.355   6.455
11075POPC   C2B69740   4.487  22.355   6.755
11075POPC   C3B69741   4.493  22.322   7.055
11075POPC   C4B69742   4.465  22.319   7.355
11076POPC   NC369743  15.172  10.539   5.555
11076POPC   PO469744  15.169  10.500   5.855
11076POPC   GL169745  15.136  10.541   6.155
11076POPC   GL269746  15.289  10.474   6.155
11076POPC   C1A69747  15.167  10.550   6.455
11076POPC   D2A69748  15.228  10.525   6.755
11076POPC   C3A69749  15.136  10.551   7.055
11076POPC   C4A69750  15.194  10.511   7.355
11076POPC   C1B69751  15.361  10.306   6.455
11076POPC   C2B69752  15.310  10.367   6.755
11076POPC   C3B69753  15.382  10.385   7.055
11076POPC   C4B69754  15.398  10.329   7.355
11077POPC   NC369755  13.582   1.974   5.555
11077POPC   PO469756  13.625   1.984   5.855
11077POPC   GL169757  13.650   1.984   6.155
11077POPC   GL269758  13.766   1.954   6.155
11077POPC   C1A69759  13.620   2.005   6.455
11077POPC   D2A69760  13.628   2.020   6.755
11077POPC   C3A69761  13.592   1.956   7.055
11077POPC   C4A69762  13.601   1.995   7.355
11077POPC   C1B69763  13.809   1.891   6.455
11077POPC   C2B69764  13.855   1.918   6.755
11077POPC   C3B69765  13.843   1.841   7.055
11077POPC   C4B69766  13.838   1.848   7.355
11078POPC   NC369767  36.913  15.964   5.555
11078POPC   PO469768  36.880  15.933   5.855
11078POPC   GL169769  36.937  15.935   6.155
11078POPC   GL269770  37.021  15.953   6.155
11078POPC   C1A69771  36.874  15.906   6.455
11078POPC   D2A69772  36.884  15.987   6.755
11078POPC   C3A69773  36.915  15.986   7.055
11078POPC   C4A69774  36.931  15.975   7.355
11078POPC   C1B69775  37.121  15.911   6.455
11078POPC   C2B69776  37.195  15.923   6.755
11078POPC   C3B69777  37.163  15.875   7.055
11078POPC   C4B69778  37.161  15.926   7.355
11079POPC   NC369779  12.036  28.322   5.555
11079POPC   PO469780  12.113  28.364   5.855
11079POPC   GL169781  12.028  28.388   6.155
11079POPC   GL269782  12.036  28.469   6.155
11079POPC   C1A69783  12.031  28.332   6.455
11079POPC   D2A69784  12.054  28.377   6.755
11079POPC   C3A69785  12.093  28.382   7.055
11079POPC   C4A69786  12.106  28.385   7.355
11079POPC   C1B69787  11.881  28.519   6.455
11079POPC   C2B69788  11.956  28.571   6.755
11079POPC   C3B69789  11.954  28.592   7.055
11079POPC   C4B69790  11.917  28.582   7.355
11080POPC   NC369791  13.614   8.986   5.555
11080POPC   PO469792  13.636   9.015   5.855
11080POPC   GL169793  13.673   8.996   6.155
11080POPC   GL269794  13.687   8.811   6.155
11080POPC   C1A69795  13.580   8.932   6.455
11080POPC   D2A69796  13.626   8.939   6.755
11080POPC   C3A69797  13.604   8.982   7.055
11080POPC   C4A69798  13.599   9.012   7.355
11080POPC   C1B69799  13.733   8.736   6.455
11080POPC   C2B69800  13.761   8.702   6.755
11080POPC   C3B69801  13.771   8.786   7.055
11080POPC   C4B69802  13.755   8.796   7.355
11081POPC   NC369803  15.138  30.660   5.555
11081POPC   PO469804  15.207  30.717   5.855
11081POPC   GL169805  15.137  30.717   6.155
11081POPC   GL269806  15.192  30.546   6.155
11081POPC   C1A69807  15.132  30.737   6.455
11081POPC   D2A69808  15.205  30.741   6.755
11081POPC   C3A69809  15.166  30.708   7.055
11081POPC   C4A69810  15.214  30.728   7.355
11081POPC   C1B69811  15.155  30.405   6.455
11081POPC   C2B69812  15.174  30.481   6.755
11081POPC   C3B69813  15.244  30.425   7.055
11081POPC   C4B69814  15.219  30.434   7.355
11082POPC   NC369815  38.431  15.975   5.555
11082POPC   PO469816  38.440  15.993   5.855
11082POPC   GL169817  38.496  16.005   6.155
11082POPC   GL269818  38.297  16.012   6.155
11082POPC   C1A69819  38.490  15.941   6.455
11082POPC   D2A69820  38.496  15.947   6.755
11082POPC   C3A69821  38.463  15.975   7.055
11082POPC   C4A69822  38.456  15.906   7.355
11082POPC   C1B69823  38.242  15.996   6.455
11082POPC   C2B69824  38.212  16.042   6.755
11082POPC   C3B69825  38.161  16.014   7.055
11082POPC   C4B69826  38.162  15.986   7.355
11083POPC   NC369827  38.412  20.644   5.555
11083POPC   PO469828  38.432  20.653   5.855
11083POPC   GL169829  38.477  20.641   6.155
11083POPC   GL269830  38.453  20.463   6.155
11083POPC   C1A69831  38.435  20.568   6.455
11083POPC   D2A69832  38.419  20.635   6.755
11083POPC   C3A69833  38.484  20.609   7.055
11083POPC   C4A69834  38.494  20.614   7.355
11083POPC   C1B69835  38.438  20.334   6.455
11083POPC   C2B69836  38.401  20.400   6.755
11083POPC   C3B69837  38.394  20.395   7.055
11083POPC   C4B69838  38.435  20.347   7.355
11084POPC   NC369839   5.057   7.450   5.555
11084POPC   PO469840   5.137   7.461   5.855
11084POPC   GL169841   5.058   7.387   6.155
11084POPC   GL269842   5.087   7.279   6.155
11084POPC   C1A69843   5.117   7.417   6.455
11084POPC   D2A69844   5.045   7.411   6.755
11084POPC   C3A69845   5.106   7.421   7.055
11084POPC   C4A69846   5.130   7.395   7.355
11084POPC   C1B69847   4.991   7.151   6.455
11084POPC   C2B69848   5.027   7.237   6.755
11084POPC   C3B69849   5.032   7.243   7.055
11084POPC   C4B69850   4.999   7.234   7.355
11085POPC   NC369851  33.802  14.441   5.555
11085POPC   PO469852  33.752  14.433   5.855
11085POPC   GL169853  33.833  14.356   6.155
11085POPC   GL269854  33.963  14.393   6.155
11085POPC   C1A69855  33.830  14.359   6.455
11085POPC   D2A69856  33.762  14.412   6.755
11085POPC   C3A69857  33.769  14.402   7.055
11085POPC   C4A69858  33.833  14.359   7.355
11085POPC   C1B69859  34.039  14.439   6.455
11085POPC   C2B69860  34.063  14.422   6.755
11085POPC   C3B69861  34.052  14.477   7.055
11085POPC   C4B69862  34.020  14.471   7.355
11086POPC   NC369863   7.443  38.483   5.555
11086POPC   PO469864   7.383  38.431   5.855
11086POPC   GL169865   7.385  38.445   6.155
11086POPC   GL269866   7.268  38.442   6.155
11086POPC   C1A69867   7.430  38.475   6.455
11086POPC   D2A69868   7.463  38.454   6.755
11086POPC   C3A69869   7.429  38.445   7.055
11086POPC   C4A69870   7.414  38.494   7.355
11086POPC   C1B69871   7.180  38.443   6.455
11086POPC   C2B69872   7.206  38.398   6.755
11086POPC   C3B69873   7.129  38.479   7.055
11086POPC   C4B69874   7.171  38.484   7.355
11087POPC   NC369875  33.061   0.488   5.555
11087POPC   PO469876  32.979   0.457   5.855
11087POPC   GL169877  32.982   0.425   6.155
11087POPC   GL269878  32.971   0.292   6.155
11087POPC   C1A69879  33.060   0.426   6.455
11087POPC   D2A69880  33.036   0.433   6.755
11087POPC   C3A69881  33.040   0.473   7.055
11087POPC   C4A69882  33.003   0.477   7.355
11087POPC   C1B69883  32.901   0.245   6.455
11087POPC   C2B69884  32.836   0.252   6.755
11087POPC   C3B69885  32.850   0.245   7.055
11087POPC   C4B69886  32.861   0.223   7.355
11088POPC   NC369887  40.779  39.264   5.555
11088POPC   PO469888  40.800  39.264   5.855
11088POPC   GL169889  40.772  39.181   6.155
11088POPC   GL269890  40.724  39.152   6.155
11088POPC   C1A69891  40.743  39.185   6.455
11088POPC   D2A69892  40.788  39.273   6.755
11088POPC   C3A69893  40.827  39.215   7.055
11088POPC   C4A69894  40.805  39.184   7.355
11088POPC   C1B69895  40.651  39.054   6.455
11088POPC   C2B69896  40.647  39.010   6.755
11088POPC   C3B69897  40.664  39.002   7.055
11088POPC   C4B69898  40.693  38.998   7.355
11089POPC   NC369899  30.659  41.566   5.555
11089POPC   PO469900  30.729  41.516   5.855
11089POPC   GL169901  30.652  41.525   6.155
11089POPC   GL269902  30.739  41.441   6.155
11089POPC   C1A69903  30.746  41.599   6.455
11089POPC   D2A69904  30.730  41.555   6.755
11089POPC   C3A69905  30.714  41.608   7.055
11089POPC   C4A69906  30.716  41.517   7.355
11089POPC   C1B69907  30.890  41.401   6.455
11089POPC   C2B69908  30.873  41.343   6.755
11089POPC   C3B69909  30.851  41.357   7.055
11089POPC   C4B69910  30.901  41.356   7.355
11090POPC   NC369911  10.510  15.220   5.555
11090POPC   PO469912  10.525  15.137   5.855
11090POPC   GL169913  10.477  15.192   6.155
11090POPC   GL269914  10.567  15.261   6.155
11090POPC   C1A69915  10.566  15.216   6.455
11090POPC   D2A69916  10.568  15.157   6.755
11090POPC   C3A69917  10.557  15.202   7.055
11090POPC   C4A69918  10.533  15.208   7.355
11090POPC   C1B69919  10.549  15.370   6.455
11090POPC   C2B69920  10.548  15.413   6.755
11090POPC   C3B69921  10.559  15.432   7.055
11090POPC   C4B69922  10.556  15.434   7.355
11091POPC   NC369923  23.677  40.010   5.555
11091POPC   PO469924  23.723  39.968   5.855
11091POPC   GL169925  23.735  39.979   6.155
11091POPC   GL269926  23.799  39.971   6.155
11091POPC   C1A69927  23.739  40.017   6.455
11091POPC   D2A69928  23.762  40.037   6.755
11091POPC   C3A69929  23.677  39.987   7.055
11091POPC   C4A69930  23.708  40.022   7.355
11091POPC   C1B69931  23.959  39.938   6.455
11091POPC   C2B69932  23.922  39.919   6.755
11091POPC   C3B69933  23.935  39.968   7.055
11091POPC   C4B69934  24.010  39.957   7.355
11092POPC   NC369935  12.891  17.484   5.555
11092POPC   PO469936  12.808  17.499   5.855
11092POPC   GL169937  12.859  17.478   6.155
11092POPC   GL269938  12.926  17.559   6.155
11092POPC   C1A69939  12.852  17.499   6.455
11092POPC   D2A69940  12.892  17.481   6.755
11092POPC   C3A69941  12.895  17.497   7.055
11092POPC   C4A69942  12.809  17.494   7.355
11092POPC   C1B69943  13.064  17.620   6.455
11092POPC   C2B69944  13.064  17.680   6.755
11092POPC   C3B69945  13.050  17.603   7.055
11092POPC   C4B69946  13.096  17.624   7.355
11093POPC   NC369947   9.744  24.467   5.555
11093POPC   PO469948   9.705  24.462   5.855
11093POPC   GL169949   9.711  24.518   6.155
11093POPC   GL269950   9.651  24.595   6.155
11093POPC   C1A69951   9.768  24.473   6.455
11093POPC   D2A69952   9.742  24.491   6.755
11093POPC   C3A69953   9.778  24.441   7.055
11093POPC   C4A69954   9.727  24.537   7.355
11093POPC   C1B69955   9.524  24.629   6.455
11093POPC   C2B69956   9.540  24.673   6.755
11093POPC   C3B69957   9.565  24.640   7.055
11093POPC   C4B69958   9.535  24.655   7.355
11094POPC   NC369959  27.547  22.971   5.555
11094POPC   PO469960  27.639  22.983   5.855
11094POPC   GL169961  27.612  22.904   6.155
11094POPC   GL269962  27.501  22.998   6.155
11094POPC   C1A69963  27.614  22.924   6.455
11094POPC   D2A69964  27.591  22.983   6.755
11094POPC   C3A69965  27.582  22.987   7.055
11094POPC   C4A69966  27.596  22.974   7.355
11094POPC   C1B69967  27.348  23.058   6.455
11094POPC   C2B69968  27.413  23.032   6.755
11094POPC   C3B69969  27.414  23.065   7.055
11094POPC   C4B69970  27.375  23.063   7.355
11095POPC   NC369971  19.041  26.007   5.555
11095POPC   PO469972  19.089  26.045   5.855
11095POPC   GL169973  19.072  26.022   6.155
11095POPC   GL269974  18.907  26.105   6.155
11095POPC   C1A69975  19.099  26.076   6.455
11095POPC   D2A69976  19.050  26.027   6.755
11095POPC   C3A69977  19.064  26.013   7.055
11095POPC   C4A69978  19.059  26.046   7.355
11095POPC   C1B69979  18.802  26.150   6.455
11095POPC   C2B69980  18.797  26.109   6.755
11095POPC   C3B69981  18.819  26.101   7.055
11095POPC   C4B69982  18.864  26.183   7.355
11096POPC   NC369983  26.068   5.874   5.555
11096POPC   PO469984  26.024   5.873   5.855
11096POPC   GL169985  26.053   5.828   6.155
11096POPC   GL269986  26.115   5.974   6.155
11096POPC   C1A69987  26.041   5.901   6.455
11096POPC   D2A69988  26.054   5.897   6.755
11096POPC   C3A69989  26.046   5.866   7.055
11096POPC   C4A69990  26.036   5.919   7.355
11096POPC   C1B69991  26.244   6.011   6.455
11096POPC   C2B69992  26.274   6.067   6.755
11096POPC   C3B69993  26.249   6.043   7.055
11096POPC   C4B69994  26.278   5.994   7.355
11097POPC   NC369995   3.536  34.572   5.555
11097POPC   PO469996   3.534  34.578   5.855
11097POPC   GL169997   3.501  34.611   6.155
11097POPC   GL269998   3.577  34.671   6.155
11097POPC   C1A69999   3.541  34.532   6.455
11097POPC   D2A70000   3.566  34.570   6.755
11097POPC   C3A70001   3.549  34.541   7.055
11097POPC   C4A70002   3.514  34.550   7.355
11097POPC   C1B70003   3.480  34.776   6.455
11097POPC   C2B70004   3.571  34.819   6.755
11097POPC   C3B70005   3.568  34.813   7.055
11097POPC   C4B70006   3.488  34.778   7.355
11098POPC   NC370007  27.576  28.320   5.555
11098POPC   PO470008  27.553  28.412   5.855
11098POPC   GL170009  27.567  28.357   6.155
11098POPC   GL270010  27.522  28.506   6.155
11098POPC   C1A70011  27.573  28.398   6.455
11098POPC   D2A70012  27.614  28.414   6.755
11098POPC   C3A70013  27.609  28.415   7.055
11098POPC   C4A70014  27.549  28.407   7.355
11098POPC   C1B70015  27.431  28.557   6.455
11098POPC   C2B70016  27.420  28.548   6.755
11098POPC   C3B70017  27.392  28.564   7.055
11098POPC   C4B70018  27.404  28.540   7.355
11099POPC   NC370019   6.693  34.538   5.555
11099POPC   PO470020   6.642  34.594   5.855
11099POPC   GL170021   6.619  34.544   6.155
11099POPC   GL270022   6.591  34.534   6.155
11099POPC   C1A70023   6.600  34.609   6.455
11099POPC   D2A70024   6.636  34.611   6.755
11099POPC   C3A70025   6.653  34.588   7.055
11099POPC   C4A70026   6.639  34.608   7.355
11099POPC   C1B70027   6.451  34.387   6.455
11099POPC   C2B70028   6.458  34.376   6.755
11099POPC   C3B70029   6.409  34.453   7.055
11099POPC   C4B70030   6.478  34.409   7.355
11100POPC   NC370031  37.639  19.011   5.555
11100POPC   PO470032  37.719  19.039   5.855
11100POPC   GL170033  37.643  19.074   6.155
11100POPC   GL270034  37.538  19.001   6.155
11100POPC   C1A70035  37.690  19.084   6.455
11100POPC   D2A70036  37.715  19.081   6.755
11100POPC   C3A70037  37.671  19.046   7.055
11100POPC   C4A70038  37.656  19.042   7.355
11100POPC   C1B70039  37.474  19.015   6.455
11100POPC   C2B70040  37.405  19.020   6.755
11100POPC   C3B70041  37.460  18.971   7.055
11100POPC   C4B70042  37.412  18.991   7.355
11101POPC   NC370043   0.479  22.894   5.555
11101POPC   PO470044   0.416  22.891   5.855
11101POPC   GL170045   0.469  22.979   6.155
11101POPC   GL270046   0.494  23.013   6.155
11101POPC   C1A70047   0.404  22.956   6.455
11101POPC   D2A70048   0.465  22.910   6.755
11101POPC   C3A70049   0.444  22.964   7.055
11101POPC   C4A70050   0.404  22.917   7.355
11101POPC   C1B70051   0.560  23.106   6.455
11101POPC   C2B70052   0.593  23.134   6.755
11101POPC   C3B70053   0.575  23.144   7.055
11101POPC   C4B70054   0.622  23.148   7.355
11102POPC   NC370055  39.966  18.251   5.555
11102POPC   PO470056  40.051  18.250   5.855
11102POPC   GL170057  39.966  18.245   6.155
11102POPC   GL270058  39.964  18.422   6.155
11102POPC   C1A70059  40.016  18.235   6.455
11102POPC   D2A70060  40.044  18.235   6.755
11102POPC   C3A70061  40.029  18.297   7.055
11102POPC   C4A70062  40.025  18.277   7.355
11102POPC   C1B70063  39.989  18.553   6.455
11102POPC   C2B70064  40.013  18.575   6.755
11102POPC   C3B70065  39.946  18.560   7.055
11102POPC   C4B70066  40.017  18.494   7.355
11103POPC   NC370067   4.299  24.524   5.555
11103POPC   PO470068   4.337  24.461   5.855
11103POPC   GL170069   4.332  24.490   6.155
11103POPC   GL270070   4.460  24.477   6.155
11103POPC   C1A70071   4.321  24.468   6.455
11103POPC   D2A70072   4.305  24.448   6.755
11103POPC   C3A70073   4.327  24.524   7.055
11103POPC   C4A70074   4.317  24.504   7.355
11103POPC   C1B70075   4.571  24.403   6.455
11103POPC   C2B70076   4.531  24.487   6.755
11103POPC   C3B70077   4.605  24.444   7.055
11103POPC   C4B70078   4.607  24.467   7.355
11104POPC   NC370079  39.265  38.488   5.555
11104POPC   PO470080  39.202  38.440   5.855
11104POPC   GL170081  39.211  38.491   6.155
11104POPC   GL270082  39.161  38.561   6.155
11104POPC   C1A70083  39.203  38.416   6.455
11104POPC   D2A70084  39.208  38.497   6.755
11104POPC   C3A70085  39.203  38.470   7.055
11104POPC   C4A70086  39.248  38.442   7.355
11104POPC   C1B70087  39.070  38.660   6.455
11104POPC   C2B70088  39.091  38.616   6.755
11104POPC   C3B70089  39.088  38.637   7.055
11104POPC   C4B70090  39.038  38.599   7.355
11105POPC   NC370091  36.121  35.331   5.555
11105POPC   PO470092  36.112  35.392   5.855
11105POPC   GL170093  36.164  35.338   6.155
11105POPC   GL270094  36.030  35.416   6.155
11105POPC   C1A70095  36.097  35.316   6.455
11105POPC   D2A70096  36.129  35.395   6.755
11105POPC   C3A70097  36.138  35.351   7.055
11105POPC   C4A70098  36.114  35.376   7.355
11105POPC   C1B70099  35.894  35.486   6.455
11105POPC   C2B70100  35.868  35.481   6.755
11105POPC   C3B70101  35.877  35.464   7.055
11105POPC   C4B70102  35.887  35.509   7.355
11106POPC   NC370103   8.156   7.403   5.555
11106POPC   PO470104   8.178   7.394   5.855
11106POPC   GL170105   8.216   7.435   6.155
11106POPC   GL270106   8.268   7.476   6.155
11106POPC   C1A70107   8.155   7.404   6.455
11106POPC   D2A70108   8.236   7.462   6.755
11106POPC   C3A70109   8.171   7.427   7.055
11106POPC   C4A70110   8.194   7.404   7.355
11106POPC   C1B70111   8.464   7.505   6.455
11106POPC   C2B70112   8.472   7.533   6.755
11106POPC   C3B70113   8.446   7.508   7.055
11106POPC   C4B70114   8.478   7.477   7.355
11107POPC   NC370115  15.152  29.167   5.555
11107POPC   PO470116  15.209  29.116   5.855
11107POPC   GL170117  15.131  29.164   6.155
11107POPC   GL270118  15.078  29.077   6.155
11107POPC   C1A70119  15.139  29.125   6.455
11107POPC   D2A70120  15.175  29.142   6.755
11107POPC   C3A70121  15.221  29.142   7.055
11107POPC   C4A70122  15.170  29.166   7.355
11107POPC   C1B70123  15.013  28.995   6.455
11107POPC   C2B70124  14.928  28.983   6.755
11107POPC   C3B70125  14.967  29.059   7.055
11107POPC   C4B70126  14.946  29.045   7.355
11108POPC   NC370127   8.224  42.299   5.555
11108POPC   PO470128   8.188  42.317   5.855
11108POPC   GL170129   8.164  42.302   6.155
11108POPC   GL270130   8.120  42.374   6.155
11108POPC   C1A70131   8.188  42.335   6.455
11108POPC   D2A70132   8.211  42.318   6.755
11108POPC   C3A70133   8.186  42.339   7.055
11108POPC   C4A70134   8.186  42.315   7.355
11108POPC   C1B70135   8.016  42.480   6.455
11108POPC   C2B70136   7.984  42.511   6.755
11108POPC   C3B70137   8.028  42.480   7.055
11108POPC   C4B70138   8.030  42.529   7.355
11109POPC   NC370139   1.226   9.020   5.555
11109POPC   PO470140   1.201   9.014   5.855
11109POPC   GL170141   1.213   9.012   6.155
11109POPC   GL270142   1.195   8.827   6.155
11109POPC   C1A70143   1.167   8.962   6.455
11109POPC   D2A70144   1.251   8.934   6.755
11109POPC   C3A70145   1.197   8.956   7.055
11109POPC   C4A70146   1.205   8.937   7.355
11109POPC   C1B70147   1.165   8.758   6.455
11109POPC   C2B70148   1.216   8.759   6.755
11109POPC   C3B70149   1.195   8.722   7.055
11109POPC   C4B70150   1.164   8.683   7.355
11110POPC   NC370151  22.157  40.746   5.555
11110POPC   PO470152  22.163  40.796   5.855
11110POPC   GL170153  22.174  40.811   6.155
11110POPC   GL270154  22.043  40.823   6.155
11110POPC   C1A70155  22.154  40.781   6.455
11110POPC   D2A70156  22.189  40.781   6.755
11110POPC   C3A70157  22.212  40.765   7.055
11110POPC   C4A70158  22.180  40.806   7.355
11110POPC   C1B70159  21.926  40.889   6.455
11110POPC   C2B70160  21.916  40.905   6.755
11110POPC   C3B70161  21.970  40.907   7.055
11110POPC   C4B70162  21.977  40.945   7.355
11111POPC   NC370163  41.523   2.718   5.555
11111POPC   PO470164  41.553   2.796   5.855
11111POPC   GL170165  41.519   2.745   6.155
11111POPC   GL270166  41.593   2.843   6.155
11111POPC   C1A70167  41.549   2.788   6.455
11111POPC   D2A70168  41.571   2.765   6.755
11111POPC   C3A70169  41.524   2.762   7.055
11111POPC   C4A70170  41.592   2.770   7.355
11111POPC   C1B70171  41.568   2.979   6.455
11111POPC   C2B70172  41.537   2.999   6.755
11111POPC   C3B70173  41.541   3.065   7.055
11111POPC   C4B70174  41.572   2.993   7.355
11112POPC   NC370175  34.536  38.463   5.555
11112POPC   PO470176  34.600  38.414   5.855
11112POPC   GL170177  34.598  38.463   6.155
11112POPC   GL270178  34.532  38.493   6.155
11112POPC   C1A70179  34.532  38.481   6.455
11112POPC   D2A70180  34.555  38.500   6.755
11112POPC   C3A70181  34.552  38.433   7.055
11112POPC   C4A70182  34.578  38.413   7.355
11112POPC   C1B70183  34.398  38.639   6.455
11112POPC   C2B70184  34.417  38.646   6.755
11112POPC   C3B70185  34.394  38.663   7.055
11112POPC   C4B70186  34.353  38.662   7.355
11113POPC   NC370187  38.409   8.209   5.555
11113POPC   PO470188  38.410   8.229   5.855
11113POPC   GL170189  38.477   8.245   6.155
11113POPC   GL270190  38.572   8.325   6.155
11113POPC   C1A70191  38.441   8.182   6.455
11113POPC   D2A70192  38.449   8.160   6.755
11113POPC   C3A70193  38.494   8.229   7.055
11113POPC   C4A70194  38.462   8.244   7.355
11113POPC   C1B70195  38.639   8.356   6.455
11113POPC   C2B70196  38.691   8.310   6.755
11113POPC   C3B70197  38.665   8.316   7.055
11113POPC   C4B70198  38.634   8.334   7.355
11114POPC   NC370199  28.361  14.400   5.555
11114POPC   PO470200  28.366  14.452   5.855
11114POPC   GL170201  28.326  14.376   6.155
11114POPC   GL270202  28.276  14.336   6.155
11114POPC   C1A70203  28.322  14.443   6.455
11114POPC   D2A70204  28.353  14.393   6.755
11114POPC   C3A70205  28.370  14.382   7.055
11114POPC   C4A70206  28.366  14.399   7.355
11114POPC   C1B70207  28.323  14.188   6.455
11114POPC   C2B70208  28.303  14.169   6.755
11114POPC   C3B70209  28.224  14.159   7.055
11114POPC   C4B70210  28.251  14.140   7.355
11115POPC   NC370211  34.587  36.161   5.555
11115POPC   PO470212  34.618  36.146   5.855
11115POPC   GL170213  34.544  36.094   6.155
11115POPC   GL270214  34.687  36.026   6.155
11115POPC   C1A70215  34.602  36.127   6.455
11115POPC   D2A70216  34.579  36.100   6.755
11115POPC   C3A70217  34.572  36.088   7.055
11115POPC   C4A70218  34.606  36.135   7.355
11115POPC   C1B70219  34.749  35.962   6.455
11115POPC   C2B70220  34.752  35.996   6.755
11115POPC   C3B70221  34.759  35.957   7.055
11115POPC   C4B70222  34.798  35.961   7.355
11116POPC   NC370223  29.948  22.154   5.555
11116POPC   PO470224  29.915  22.114   5.855
11116POPC   GL170225  29.965  22.118   6.155
11116POPC   GL270226  29.980  22.033   6.155
11116POPC   C1A70227  29.932  22.143   6.455
11116POPC   D2A70228  29.911  22.206   6.755
11116POPC   C3A70229  29.915  22.178   7.055
11116POPC   C4A70230  29.893  22.146   7.355
11116POPC   C1B70231  29.970  21.913   6.455
11116POPC   C2B70232  29.986  21.946   6.755
11116POPC   C3B70233  30.043  21.965   7.055
11116POPC   C4B70234  29.993  21.917   7.355
11117POPC   NC370235  37.727  15.910   5.555
11117POPC   PO470236  37.723  15.916   5.855
11117POPC   GL170237  37.666  15.939   6.155
11117POPC   GL270238  37.572  16.029   6.155
11117POPC   C1A70239  37.699  15.962   6.455
11117POPC   D2A70240  37.646  15.942   6.755
11117POPC   C3A70241  37.633  15.994   7.055
11117POPC   C4A70242  37.661  15.944   7.355
11117POPC   C1B70243  37.460  16.024   6.455
11117POPC   C2B70244  37.460  16.011   6.755
11117POPC   C3B70245  37.472  16.036   7.055
11117POPC   C4B70246  37.459  16.013   7.355
11118POPC   NC370247   4.279   8.222   5.555
11118POPC   PO470248   4.305   8.218   5.855
11118POPC   GL170249   4.324   8.149   6.155
11118POPC   GL270250   4.204   8.077   6.155
11118POPC   C1A70251   4.270   8.244   6.455
11118POPC   D2A70252   4.305   8.231   6.755
11118POPC   C3A70253   4.300   8.197   7.055
11118POPC   C4A70254   4.327   8.150   7.355
11118POPC   C1B70255   4.173   7.969   6.455
11118POPC   C2B70256   4.155   7.954   6.755
11118POPC   C3B70257   4.141   7.944   7.055
11118POPC   C4B70258   4.142   8.019   7.355
11119POPC   NC370259   8.934  32.209   5.555
11119POPC   PO470260   8.935  32.229   5.855
11119POPC   GL170261   8.973  32.289   6.155
11119POPC   GL270262   9.059  32.334   6.155
11119POPC   C1A70263   9.008  32.241   6.455
11119POPC   D2A70264   8.938  32.278   6.755
11119POPC   C3A70265   9.021  32.247   7.055
11119POPC   C4A70266   8.924  32.253   7.355
11119POPC   C1B70267   9.020  32.469   6.455
11119POPC   C2B70268   9.107  32.531   6.755
11119POPC   C3B70269   9.083  32.498   7.055
11119POPC   C4B70270   9.094  32.483   7.355
11120POPC   NC370271  19.833  42.347   5.555
11120POPC   PO470272  19.843  42.347   5.855
11120POPC   GL170273  19.881  42.315   6.155
11120POPC   GL270274  19.863  42.454   6.155
11120POPC   C1A70275  19.818  42.371   6.455
11120POPC   D2A70276  19.829  42.373   6.755
11120POPC   C3A70277  19.862  42.331   7.055
11120POPC   C4A70278  19.792  42.287   7.355
11120POPC   C1B70279  19.897  42.542   6.455
11120POPC   C2B70280  19.914  42.536   6.755
11120POPC   C3B70281  19.908  42.575   7.055
11120POPC   C4B70282  19.968  42.513   7.355
11121POPC   NC370283   8.940  26.808   5.555
11121POPC   PO470284   8.942  26.793   5.855
11121POPC   GL170285   8.999  26.771   6.155
11121POPC   GL270286   8.858  26.708   6.155
11121POPC   C1A70287   8.953  26.852   6.455
11121POPC   D2A70288   8.936  26.859   6.755
11121POPC   C3A70289   8.942  26.836   7.055
11121POPC   C4A70290   8.982  26.813   7.355
11121POPC   C1B70291   8.733  26.699   6.455
11121POPC   C2B70292   8.807  26.705   6.755
11121POPC   C3B70293   8.736  26.647   7.055
11121POPC   C4B70294   8.740  26.691   7.355
11122POPC   NC370295  39.960   0.478   5.555
11122POPC   PO470296  40.034   0.478   5.855
11122POPC   GL170297  39.976   0.435   6.155
11122POPC   GL270298  40.040   0.356   6.155
11122POPC   C1A70299  39.967   0.393   6.455
11122POPC   D2A70300  39.959   0.425   6.755
11122POPC   C3A70301  40.045   0.441   7.055
11122POPC   C4A70302  39.976   0.471   7.355
11122POPC   C1B70303  40.118   0.176   6.455
11122POPC   C2B70304  40.068   0.156   6.755
11122POPC   C3B70305  40.088   0.246   7.055
11122POPC   C4B70306  40.132   0.163   7.355
11123POPC   NC370307  12.118   0.464   5.555
11123POPC   PO470308  12.061   0.434   5.855
11123POPC   GL170309  12.043   0.396   6.155
11123POPC   GL270310  12.172   0.462   6.155
11123POPC   C1A70311  12.098   0.448   6.455
11123POPC   D2A70312  12.069   0.411   6.755
11123POPC   C3A70313  12.114   0.414   7.055
11123POPC   C4A70314  12.069   0.476   7.355
11123POPC   C1B70315  12.274   0.557   6.455
11123POPC   C2B70316  12.311   0.515   6.755
11123POPC   C3B70317  12.298   0.511   7.055
11123POPC   C4B70318  12.321   0.593   7.355
11124POPC   NC370319  14.371   7.402   5.555
11124POPC   PO470320  14.392   7.390   5.855
11124POPC   GL170321  14.364   7.454   6.155
11124POPC   GL270322  14.514   7.393   6.155
11124POPC   C1A70323  14.363   7.452   6.455
11124POPC   D2A70324  14.422   7.430   6.755
11124POPC   C3A70325  14.372   7.435   7.055
11124POPC   C4A70326  14.379   7.456   7.355
11124POPC   C1B70327  14.623   7.447   6.455
11124POPC   C2B70328  14.648   7.457   6.755
11124POPC   C3B70329  14.665   7.437   7.055
11124POPC   C4B70330  14.680   7.442   7.355
11125POPC   NC370331  27.578  39.998   5.555
11125POPC   PO470332  27.594  40.015   5.855
11125POPC   GL170333  27.627  39.963   6.155
11125POPC   GL270334  27.470  40.119   6.155
11125POPC   C1A70335  27.638  40.017   6.455
11125POPC   D2A70336  27.571  39.990   6.755
11125POPC   C3A70337  27.620  39.983   7.055
11125POPC   C4A70338  27.632  40.051   7.355
11125POPC   C1B70339  27.409  40.176   6.455
11125POPC   C2B70340  27.430  40.188   6.755
11125POPC   C3B70341  27.457  40.159   7.055
11125POPC   C4B70342  27.435  40.206   7.355
11126POPC   NC370343  10.551  14.440   5.555
11126POPC   PO470344  10.560  14.361   5.855
11126POPC   GL170345  10.562  14.377   6.155
11126POPC   GL270346  10.452  14.530   6.155
11126POPC   C1A70347  10.487  14.448   6.455
11126POPC   D2A70348  10.491  14.449   6.755
11126POPC   C3A70349  10.558  14.371   7.055
11126POPC   C4A70350  10.543  14.429   7.355
11126POPC   C1B70351  10.404  14.635   6.455
11126POPC   C2B70352  10.431  14.579   6.755
11126POPC   C3B70353  10.431  14.622   7.055
11126POPC   C4B70354  10.417  14.593   7.355
11127POPC   NC370355  25.218   5.854   5.555
11127POPC   PO470356  25.311   5.824   5.855
11127POPC   GL170357  25.235   5.914   6.155
11127POPC   GL270358  25.129   5.879   6.155
11127POPC   C1A70359  25.244   5.820   6.455
11127POPC   D2A70360  25.265   5.897   6.755
11127POPC   C3A70361  25.259   5.915   7.055
11127POPC   C4A70362  25.282   5.840   7.355
11127POPC   C1B70363  25.008   6.026   6.455
11127POPC   C2B70364  25.053   5.997   6.755
11127POPC   C3B70365  25.028   5.965   7.055
11127POPC   C4B70366  25.054   5.999   7.355
11128POPC   NC370367  24.521  42.364   5.555
11128POPC   PO470368  24.530  42.293   5.855
11128POPC   GL170369  24.532  42.291   6.155
11128POPC   GL270370  24.453  42.460   6.155
11128POPC   C1A70371  24.506  42.375   6.455
11128POPC   D2A70372  24.493  42.338   6.755
11128POPC   C3A70373  24.528  42.291   7.055
11128POPC   C4A70374  24.471  42.345   7.355
11128POPC   C1B70375  24.429  42.575   6.455
11128POPC   C2B70376  24.422  42.577   6.755
11128POPC   C3B70377  24.476  42.611   7.055
11128POPC   C4B70378  24.408  42.553   7.355
11129POPC   NC370379  43.853  33.763   5.555
11129POPC   PO470380  43.910  33.754   5.855
11129POPC   GL170381  43.915  33.777   6.155
11129POPC   GL270382  43.802  33.770   6.155
11129POPC   C1A70383  43.904  33.766   6.455
11129POPC   D2A70384  43.842  33.788   6.755
11129POPC   C3A70385  43.866  33.837   7.055
11129POPC   C4A70386  43.919  33.781   7.355
11129POPC   C1B70387  43.711  33.630   6.455
11129POPC   C2B70388  43.652  33.613   6.755
11129POPC   C3B70389  43.661  33.599   7.055
11129POPC   C4B70390  43.680  33.618   7.355
11130POPC   NC370391  40.787   7.393   5.555
11130POPC   PO470392  40.772   7.454   5.855
11130POPC   GL170393  40.774   7.449   6.155
11130POPC   GL270394  40.633   7.513   6.155
11130POPC   C1A70395  40.759   7.458   6.455
11130POPC   D2A70396  40.797   7.408   6.755
11130POPC   C3A70397  40.817   7.430   7.055
11130POPC   C4A70398  40.799   7.469   7.355
11130POPC   C1B70399  40.567   7.590   6.455
11130POPC   C2B70400  40.614   7.571   6.755
11130POPC   C3B70401  40.572   7.530   7.055
11130POPC   C4B70402  40.591   7.525   7.355
11131POPC   NC370403  27.642  43.105   5.555
11131POPC   PO470404  27.570  43.154   5.855
11131POPC   GL170405  27.622  43.114   6.155
11131POPC   GL270406  27.535  43.283   6.155
11131POPC   C1A70407  27.582  43.061   6.455
11131POPC   D2A70408  27.595  43.138   6.755
11131POPC   C3A70409  27.605  43.106   7.055
11131POPC   C4A70410  27.587  43.147   7.355
11131POPC   C1B70411  27.571  43.338   6.455
11131POPC   C2B70412  27.608  43.346   6.755
11131POPC   C3B70413  27.585  43.333   7.055
11131POPC   C4B70414  27.557  43.351   7.355
11132POPC   NC370415   2.740   1.256   5.555
11132POPC   PO470416   2.777   1.256   5.855
11132POPC   GL170417   2.752   1.188   6.155
11132POPC   GL270418   2.629   1.301   6.155
11132POPC   C1A70419   2.784   1.227   6.455
11132POPC   D2A70420   2.785   1.205   6.755
11132POPC   C3A70421   2.719   1.170   7.055
11132POPC   C4A70422   2.756   1.230   7.355
11132POPC   C1B70423   2.561   1.361   6.455
11132POPC   C2B70424   2.542   1.360   6.755
11132POPC   C3B70425   2.530   1.297   7.055
11132POPC   C4B70426   2.568   1.354   7.355
11133POPC   NC370427  35.349   5.084   5.555
11133POPC   PO470428  35.394   5.065   5.855
11133POPC   GL170429  35.309   5.095   6.155
11133POPC   GL270430  35.334   5.164   6.155
11133POPC   C1A70431  35.308   5.141   6.455
11133POPC   D2A70432  35.382   5.092   6.755
11133POPC   C3A70433  35.390   5.107   7.055
11133POPC   C4A70434  35.358   5.059   7.355
11133POPC   C1B70435  35.248   5.313   6.455
11133POPC   C2B70436  35.295   5.323   6.755
11133POPC   C3B70437  35.310   5.362   7.055
11133POPC   C4B70438  35.268   5.364   7.355
11134POPC   NC370439  19.871  35.361   5.555
11134POPC   PO470440  19.872  35.381   5.855
11134POPC   GL170441  19.860  35.305   6.155
11134POPC   GL270442  19.892  35.257   6.155
11134POPC   C1A70443  19.876  35.320   6.455
11134POPC   D2A70444  19.853  35.365   6.755
11134POPC   C3A70445  19.821  35.314   7.055
11134POPC   C4A70446  19.836  35.378   7.355
11134POPC   C1B70447  19.910  35.068   6.455
11134POPC   C2B70448  19.882  35.094   6.755
11134POPC   C3B70449  19.842  35.135   7.055
11134POPC   C4B70450  19.876  35.122   7.355
11135POPC   NC370451  37.641  40.745   5.555
11135POPC   PO470452  37.682  40.766   5.855
11135POPC   GL170453  37.688  40.827   6.155
11135POPC   GL270454  37.820  40.781   6.155
11135POPC   C1A70455  37.671  40.791   6.455
11135POPC   D2A70456  37.679  40.757   6.755
11135POPC   C3A70457  37.646  40.785   7.055
11135POPC   C4A70458  37.696  40.821   7.355
11135POPC   C1B70459  37.928  40.779   6.455
11135POPC   C2B70460  37.936  40.722   6.755
11135POPC   C3B70461  37.939  40.713   7.055
11135POPC   C4B70462  37.958  40.735   7.355
11136POPC   NC370463  20.634  29.920   5.555
11136POPC   PO470464  20.585  29.941   5.855
11136POPC   GL170465  20.594  29.915   6.155
11136POPC   GL270466  20.506  29.925   6.155
11136POPC   C1A70467  20.585  29.874   6.455
11136POPC   D2A70468  20.613  29.920   6.755
11136POPC   C3A70469  20.574  29.952   7.055
11136POPC   C4A70470  20.606  29.912   7.355
11136POPC   C1B70471  20.385  29.954   6.455
11136POPC   C2B70472  20.389  29.993   6.755
11136POPC   C3B70473  20.327  30.000   7.055
11136POPC   C4B70474  20.334  29.944   7.355
11137POPC   NC370475  20.655   5.049   5.555
11137POPC   PO470476  20.618   5.051   5.855
11137POPC   GL170477  20.646   5.084   6.155
11137POPC   GL270478  20.722   4.975   6.155
11137POPC   C1A70479  20.655   5.086   6.455
11137POPC   D2A70480  20.631   5.116   6.755
11137POPC   C3A70481  20.623   5.057   7.055
11137POPC   C4A70482  20.654   5.061   7.355
11137POPC   C1B70483  20.792   4.947   6.455
11137POPC   C2B70484  20.828   4.953   6.755
11137POPC   C3B70485  20.791   4.926   7.055
11137POPC   C4B70486  20.814   4.936   7.355
11138POPC   NC370487  22.189   6.661   5.555
11138POPC   PO470488  22.186   6.655   5.855
11138POPC   GL170489  22.114   6.605   6.155
11138POPC   GL270490  22.234   6.756   6.155
11138POPC   C1A70491  22.124   6.617   6.455
11138POPC   D2A70492  22.147   6.672   6.755
11138POPC   C3A70493  22.169   6.614   7.055
11138POPC   C4A70494  22.182   6.606   7.355
11138POPC   C1B70495  22.329   6.796   6.455
11138POPC   C2B70496  22.320   6.804   6.755
11138POPC   C3B70497  22.343   6.882   7.055
11138POPC   C4B70498  22.334   6.821   7.355
11139POPC   NC370499   9.731   1.997   5.555
11139POPC   PO470500   9.702   1.949   5.855
11139POPC   GL170501   9.788   2.010   6.155
11139POPC   GL270502   9.881   1.946   6.155
11139POPC   C1A70503   9.735   2.011   6.455
11139POPC   D2A70504   9.705   2.018   6.755
11139POPC   C3A70505   9.765   1.953   7.055
11139POPC   C4A70506   9.760   2.003   7.355
11139POPC   C1B70507   9.917   1.824   6.455
11139POPC   C2B70508   9.977   1.831   6.755
11139POPC   C3B70509   9.930   1.828   7.055
11139POPC   C4B70510   9.995   1.895   7.355
11140POPC   NC370511  18.293  29.882   5.555
11140POPC   PO470512  18.255  29.920   5.855
11140POPC   GL170513  18.292  29.884   6.155
11140POPC   GL270514  18.347  29.833   6.155
11140POPC   C1A70515  18.292  29.886   6.455
11140POPC   D2A70516  18.311  29.943   6.755
11140POPC   C3A70517  18.244  29.906   7.055
11140POPC   C4A70518  18.280  29.900   7.355
11140POPC   C1B70519  18.409  29.720   6.455
11140POPC   C2B70520  18.422  29.675   6.755
11140POPC   C3B70521  18.454  29.730   7.055
11140POPC   C4B70522  18.483  29.706   7.355
11141POPC   NC370523  43.840  42.296   5.555
11141POPC   PO470524  43.918  42.334   5.855
11141POPC   GL170525  43.842  42.322   6.155
11141POPC   GL270526  43.980  42.361   6.155
11141POPC   C1A70527  43.889  42.342   6.455
11141POPC   D2A70528  43.927  42.353   6.755
11141POPC   C3A70529  43.881  42.384   7.055
11141POPC   C4A70530  43.873  42.299   7.355
11141POPC   C1B70531  44.094  42.328   6.455
11141POPC   C2B70532  44.173  42.318   6.755
11141POPC   C3B70533  44.160  42.316   7.055
11141POPC   C4B70534  44.121  42.340   7.355
11142POPC   NC370535  16.767  29.122   5.555
11142POPC   PO470536  16.740  29.165   5.855
11142POPC   GL170537  16.692  29.149   6.155
11142POPC   GL270538  16.707  29.263   6.155
11142POPC   C1A70539  16.776  29.140   6.455
11142POPC   D2A70540  16.700  29.164   6.755
11142POPC   C3A70541  16.751  29.139   7.055
11142POPC   C4A70542  16.764  29.147   7.355
11142POPC   C1B70543  16.730  29.436   6.455
11142POPC   C2B70544  16.732  29.344   6.755
11142POPC   C3B70545  16.724  29.386   7.055
11142POPC   C4B70546  16.729  29.376   7.355
11143POPC   NC370547  18.312  24.530   5.555
11143POPC   PO470548  18.264  24.443   5.855
11143POPC   GL170549  18.282  24.452   6.155
11143POPC   GL270550  18.133  24.583   6.155
11143POPC   C1A70551  18.264  24.532   6.455
11143POPC   D2A70552  18.270  24.458   6.755
11143POPC   C3A70553  18.235  24.520   7.055
11143POPC   C4A70554  18.298  24.516   7.355
11143POPC   C1B70555  18.072  24.597   6.455
11143POPC   C2B70556  18.022  24.557   6.755
11143POPC   C3B70557  18.033  24.606   7.055
11143POPC   C4B70558  18.059  24.590   7.355
11144POPC   NC370559   1.180  12.825   5.555
11144POPC   PO470560   1.245  12.866   5.855
11144POPC   GL170561   1.250  12.846   6.155
11144POPC   GL270562   1.289  12.746   6.155
11144POPC   C1A70563   1.173  12.892   6.455
11144POPC   D2A70564   1.198  12.896   6.755
11144POPC   C3A70565   1.262  12.829   7.055
11144POPC   C4A70566   1.200  12.819   7.355
11144POPC   C1B70567   1.347  12.665   6.455
11144POPC   C2B70568   1.381  12.708   6.755
11144POPC   C3B70569   1.394  12.684   7.055
11144POPC   C4B70570   1.364  12.654   7.355
11145POPC   NC370571  15.154   6.649   5.555
11145POPC   PO470572  15.155   6.609   5.855
11145POPC   GL170573  15.171   6.686   6.155
11145POPC   GL270574  15.252   6.728   6.155
11145POPC   C1A70575  15.206   6.670   6.455
11145POPC   D2A70576  15.183   6.638   6.755
11145POPC   C3A70577  15.179   6.650   7.055
11145POPC   C4A70578  15.138   6.653   7.355
11145POPC   C1B70579  15.380   6.724   6.455
11145POPC   C2B70580  15.441   6.763   6.755
11145POPC   C3B70581  15.387   6.751   7.055
11145POPC   C4B70582  15.441   6.768   7.355
11146POPC   NC370583  12.094  30.676   5.555
11146POPC   PO470584  12.040  30.674   5.855
11146POPC   GL170585  12.085  30.683   6.155
11146POPC   GL270586  12.232  30.743   6.155
11146POPC   C1A70587  12.086  30.721   6.455
11146POPC   D2A70588  12.028  30.726   6.755
11146POPC   C3A70589  12.122  30.679   7.055
11146POPC   C4A70590  12.097  30.702   7.355
11146POPC   C1B70591  12.323  30.766   6.455
11146POPC   C2B70592  12.331  30.714   6.755
11146POPC   C3B70593  12.300  30.736   7.055
11146POPC   C4B70594  12.294  30.714   7.355
11147POPC   NC370595  17.464  19.840   5.555
11147POPC   PO470596  17.546  19.801   5.855
11147POPC   GL170597  17.512  19.834   6.155
11147POPC   GL270598  17.471  19.667   6.155
11147POPC   C1A70599  17.464  19.868   6.455
11147POPC   D2A70600  17.546  19.877   6.755
11147POPC   C3A70601  17.504  19.843   7.055
11147POPC   C4A70602  17.466  19.796   7.355
11147POPC   C1B70603  17.569  19.625   6.455
11147POPC   C2B70604  17.517  19.567   6.755
11147POPC   C3B70605  17.568  19.582   7.055
11147POPC   C4B70606  17.494  19.600   7.355
11148POPC   NC370607  28.346   9.730   5.555
11148POPC   PO470608  28.400   9.792   5.855
11148POPC   GL170609  28.331   9.795   6.155
11148POPC   GL270610  28.457   9.663   6.155
11148POPC   C1A70611  28.347   9.759   6.455
11148POPC   D2A70612  28.352   9.789   6.755
11148POPC   C3A70613  28.325   9.720   7.055
11148POPC   C4A70614  28.392   9.762   7.355
11148POPC   C1B70615  28.495   9.592   6.455
11148POPC   C2B70616  28.498   9.600   6.755
11148POPC   C3B70617  28.548   9.596   7.055
11148POPC   C4B70618  28.578   9.597   7.355
11149POPC   NC370619   6.619   5.858   5.555
11149POPC   PO470620   6.631   5.885   5.855
11149POPC   GL170621   6.608   5.857   6.155
11149POPC   GL270622   6.703   5.731   6.155
11149POPC   C1A70623   6.657   5.853   6.455
11149POPC   D2A70624   6.644   5.874   6.755
11149POPC   C3A70625   6.651   5.819   7.055
11149POPC   C4A70626   6.637   5.830   7.355
11149POPC   C1B70627   6.698   5.594   6.455
11149POPC   C2B70628   6.726   5.596   6.755
11149POPC   C3B70629   6.697   5.686   7.055
11149POPC   C4B70630   6.779   5.657   7.355
11150POPC   NC370631   2.810   9.752   5.555
11150POPC   PO470632   2.769   9.714   5.855
11150POPC   GL170633   2.767   9.786   6.155
11150POPC   GL270634   2.780   9.663   6.155
11150POPC   C1A70635   2.785   9.786   6.455
11150POPC   D2A70636   2.782   9.743   6.755
11150POPC   C3A70637   2.721   9.728   7.055
11150POPC   C4A70638   2.768   9.721   7.355
11150POPC   C1B70639   2.736   9.539   6.455
11150POPC   C2B70640   2.792   9.542   6.755
11150POPC   C3B70641   2.763   9.458   7.055
11150POPC   C4B70642   2.791   9.484   7.355
11151POPC   NC370643   5.080  13.645   5.555
11151POPC   PO470644   5.142  13.623   5.855
11151POPC   GL170645   5.122  13.626   6.155
11151POPC   GL270646   4.947  13.711   6.155
11151POPC   C1A70647   5.064  13.590   6.455
11151POPC   D2A70648   5.113  13.610   6.755
11151POPC   C3A70649   5.056  13.616   7.055
11151POPC   C4A70650   5.108  13.670   7.355
11151POPC   C1B70651   4.902  13.787   6.455
11151POPC   C2B70652   4.937  13.775   6.755
11151POPC   C3B70653   4.842  13.820   7.055
11151POPC   C4B70654   4.849  13.765   7.355
11152POPC   NC370655  23.668  36.864   5.555
11152POPC   PO470656  23.702  36.928   5.855
11152POPC   GL170657  23.685  36.886   6.155
11152POPC   GL270658  23.838  36.858   6.155
11152POPC   C1A70659  23.743  36.931   6.455
11152POPC   D2A70660  23.718  36.938   6.755
11152POPC   C3A70661  23.693  36.928   7.055
11152POPC   C4A70662  23.697  36.879   7.355
11152POPC   C1B70663  23.903  36.809   6.455
11152POPC   C2B70664  23.922  36.751   6.755
11152POPC   C3B70665  23.952  36.718   7.055
11152POPC   C4B70666  23.952  36.743   7.355
11153POPC   NC370667  27.632  18.294   5.555
11153POPC   PO470668  27.591  18.261   5.855
11153POPC   GL170669  27.558  18.284   6.155
11153POPC   GL270670  27.535  18.165   6.155
11153POPC   C1A70671  27.577  18.307   6.455
11153POPC   D2A70672  27.593  18.322   6.755
11153POPC   C3A70673  27.562  18.322   7.055
11153POPC   C4A70674  27.575  18.316   7.355
11153POPC   C1B70675  27.572  18.056   6.455
11153POPC   C2B70676  27.594  18.044   6.755
11153POPC   C3B70677  27.501  17.998   7.055
11153POPC   C4B70678  27.499  17.993   7.355
11154POPC   NC370679  10.481  17.474   5.555
11154POPC   PO470680  10.527  17.458   5.855
11154POPC   GL170681  10.568  17.468   6.155
11154POPC   GL270682  10.491  17.383   6.155
11154POPC   C1A70683  10.547  17.531   6.455
11154POPC   D2A70684  10.490  17.493   6.755
11154POPC   C3A70685  10.478  17.508   7.055
11154POPC   C4A70686  10.498  17.532   7.355
11154POPC   C1B70687  10.447  17.275   6.455
11154POPC   C2B70688  10.506  17.238   6.755
11154POPC   C3B70689  10.439  17.268   7.055
11154POPC   C4B70690  10.512  17.241   7.355
11155POPC   NC370691  29.113  15.212   5.555
11155POPC   PO470692  29.164  15.224   5.855
11155POPC   GL170693  29.181  15.162   6.155
11155POPC   GL270694  29.272  15.216   6.155
11155POPC   C1A70695  29.108  15.194   6.455
11155POPC   D2A70696  29.144  15.154   6.755
11155POPC   C3A70697  29.099  15.176   7.055
11155POPC   C4A70698  29.141  15.181   7.355
11155POPC   C1B70699  29.409  15.192   6.455
11155POPC   C2B70700  29.409  15.246   6.755
11155POPC   C3B70701  29.364  15.197   7.055
11155POPC   C4B70702  29.415  15.251   7.355
11156POPC   NC370703   0.390  12.879   5.555
11156POPC   PO470704   0.402  12.803   5.855
11156POPC   GL170705   0.479  12.843   6.155
11156POPC   GL270706   0.331  12.986   6.155
11156POPC   C1A70707   0.407  12.852   6.455
11156POPC   D2A70708   0.479  12.851   6.755
11156POPC   C3A70709   0.441  12.864   7.055
11156POPC   C4A70710   0.442  12.894   7.355
11156POPC   C1B70711   0.251  13.067   6.455
11156POPC   C2B70712   0.236  13.035   6.755
11156POPC   C3B70713   0.268  13.000   7.055
11156POPC   C4B70714   0.304  13.060   7.355
11157POPC   NC370715  16.002   1.165   5.555
11157POPC   PO470716  15.970   1.201   5.855
11157POPC   GL170717  15.937   1.196   6.155
11157POPC   GL270718  16.084   1.200   6.155
11157POPC   C1A70719  15.949   1.181   6.455
11157POPC   D2A70720  15.928   1.217   6.755
11157POPC   C3A70721  15.910   1.256   7.055
11157POPC   C4A70722  15.907   1.249   7.355
11157POPC   C1B70723  16.179   1.217   6.455
11157POPC   C2B70724  16.239   1.199   6.755
11157POPC   C3B70725  16.250   1.172   7.055
11157POPC   C4B70726  16.222   1.219   7.355
11158POPC   NC370727  14.381  20.638   5.555
11158POPC   PO470728  14.380  20.597   5.855
11158POPC   GL170729  14.440  20.589   6.155
11158POPC   GL270730  14.501  20.700   6.155
11158POPC   C1A70731  14.387  20.569   6.455
11158POPC   D2A70732  14.422  20.582   6.755
11158POPC   C3A70733  14.410  20.654   7.055
11158POPC   C4A70734  14.369  20.604   7.355
11158POPC   C1B70735  14.577  20.790   6.455
11158POPC   C2B70736  14.627  20.750   6.755
11158POPC   C3B70737  14.577  20.796   7.055
11158POPC   C4B70738  14.610  20.732   7.355
11159POPC   NC370739  14.360   0.422   5.555
11159POPC   PO470740  14.389   0.478   5.855
11159POPC   GL170741  14.401   0.481   6.155
11159POPC   GL270742  14.562   0.414   6.155
11159POPC   C1A70743  14.386   0.411   6.455
11159POPC   D2A70744  14.385   0.483   6.755
11159POPC   C3A70745  14.355   0.402   7.055
11159POPC   C4A70746  14.398   0.467   7.355
11159POPC   C1B70747  14.670   0.326   6.455
11159POPC   C2B70748  14.649   0.322   6.755
11159POPC   C3B70749  14.618   0.296   7.055
11159POPC   C4B70750  14.582   0.294   7.355
11160POPC   NC370751  29.971  37.707   5.555
11160POPC   PO470752  29.899  37.671   5.855
11160POPC   GL170753  29.902  37.714   6.155
11160POPC   GL270754  30.032  37.705   6.155
11160POPC   C1A70755  29.955  37.646   6.455
11160POPC   D2A70756  29.920  37.636   6.755
11160POPC   C3A70757  29.897  37.717   7.055
11160POPC   C4A70758  29.968  37.666   7.355
11160POPC   C1B70759  30.197  37.759   6.455
11160POPC   C2B70760  30.169  37.723   6.755
11160POPC   C3B70761  30.187  37.681   7.055
11160POPC   C4B70762  30.139  37.724   7.355
11161POPC   NC370763  28.410  11.266   5.555
11161POPC   PO470764  28.373  11.318   5.855
11161POPC   GL170765  28.389  11.296   6.155
11161POPC   GL270766  28.249  11.326   6.155
11161POPC   C1A70767  28.325  11.337   6.455
11161POPC   D2A70768  28.366  11.279   6.755
11161POPC   C3A70769  28.417  11.332   7.055
11161POPC   C4A70770  28.413  11.284   7.355
11161POPC   C1B70771  28.143  11.487   6.455
11161POPC   C2B70772  28.173  11.417   6.755
11161POPC   C3B70773  28.181  11.469   7.055
11161POPC   C4B70774  28.149  11.402   7.355
11162POPC   NC370775  44.686  22.160   5.555
11162POPC   PO470776  44.614  22.190   5.855
11162POPC   GL170777  44.710  22.114   6.155
11162POPC   GL270778  44.489  22.162   6.155
11162POPC   C1A70779  44.699  22.172   6.455
11162POPC   D2A70780  44.638  22.147   6.755
11162POPC   C3A70781  44.623  22.141   7.055
11162POPC   C4A70782  44.620  22.130   7.355
11162POPC   C1B70783  44.400  22.111   6.455
11162POPC   C2B70784  44.437  22.093   6.755
11162POPC   C3B70785  44.368  22.116   7.055
11162POPC   C4B70786  44.431  22.136   7.355
11163POPC   NC370787  41.606  29.190   5.555
11163POPC   PO470788  41.600  29.133   5.855
11163POPC   GL170789  41.515  29.145   6.155
11163POPC   GL270790  41.654  29.075   6.155
11163POPC   C1A70791  41.540  29.162   6.455
11163POPC   D2A70792  41.541  29.176   6.755
11163POPC   C3A70793  41.519  29.157   7.055
11163POPC   C4A70794  41.560  29.123   7.355
11163POPC   C1B70795  41.772  29.067   6.455
11163POPC   C2B70796  41.832  29.121   6.755
11163POPC   C3B70797  41.816  29.064   7.055
11163POPC   C4B70798  41.789  29.077   7.355
11164POPC   NC370799  41.523  12.863   5.555
11164POPC   PO470800  41.562  12.868   5.855
11164POPC   GL170801  41.544  12.836   6.155
11164POPC   GL270802  41.557  12.977   6.155
11164POPC   C1A70803  41.547  12.830   6.455
11164POPC   D2A70804  41.583  12.897   6.755
11164POPC   C3A70805  41.588  12.882   7.055
11164POPC   C4A70806  41.576  12.898   7.355
11164POPC   C1B70807  41.556  13.136   6.455
11164POPC   C2B70808  41.625  13.049   6.755
11164POPC   C3B70809  41.564  13.134   7.055
11164POPC   C4B70810  41.625  13.118   7.355
11165POPC   NC370811  15.221   0.407   5.555
11165POPC   PO470812  15.222   0.417   5.855
11165POPC   GL170813  15.154   0.445   6.155
11165POPC   GL270814  15.124   0.479   6.155
11165POPC   C1A70815  15.136   0.454   6.455
11165POPC   D2A70816  15.178   0.448   6.755
11165POPC   C3A70817  15.207   0.415   7.055
11165POPC   C4A70818  15.145   0.481   7.355
11165POPC   C1B70819  15.031   0.632   6.455
11165POPC   C2B70820  14.947   0.642   6.755
11165POPC   C3B70821  15.001   0.608   7.055
11165POPC   C4B70822  14.955   0.567   7.355
11166POPC   NC370823  43.101  28.386   5.555
11166POPC   PO470824  43.116  28.381   5.855
11166POPC   GL170825  43.136  28.322   6.155
11166POPC   GL270826  42.991  28.258   6.155
11166POPC   C1A70827  43.139  28.417   6.455
11166POPC   D2A70828  43.109  28.380   6.755
11166POPC   C3A70829  43.129  28.336   7.055
11166POPC   C4A70830  43.107  28.352   7.355
11166POPC   C1B70831  42.859  28.222   6.455
11166POPC   C2B70832  42.863  28.216   6.755
11166POPC   C3B70833  42.877  28.235   7.055
11166POPC   C4B70834  42.884  28.235   7.355
11167POPC   NC370835  43.932   0.396   5.555
11167POPC   PO470836  43.900   0.418   5.855
11167POPC   GL170837  43.842   0.396   6.155
11167POPC   GL270838  43.948   0.564   6.155
11167POPC   C1A70839  43.920   0.416   6.455
11167POPC   D2A70840  43.919   0.442   6.755
11167POPC   C3A70841  43.846   0.428   7.055
11167POPC   C4A70842  43.900   0.391   7.355
11167POPC   C1B70843  43.973   0.671   6.455
11167POPC   C2B70844  43.991   0.705   6.755
11167POPC   C3B70845  43.932   0.672   7.055
11167POPC   C4B70846  44.008   0.654   7.355
11168POPC   NC370847  26.086  24.482   5.555
11168POPC   PO470848  26.057  24.447   5.855
11168POPC   GL170849  26.031  24.452   6.155
11168POPC   GL270850  26.019  24.340   6.155
11168POPC   C1A70851  26.075  24.530   6.455
11168POPC   D2A70852  26.040  24.469   6.755
11168POPC   C3A70853  26.037  24.530   7.055
11168POPC   C4A70854  26.052  24.445   7.355
11168POPC   C1B70855  25.912  24.255   6.455
11168POPC   C2B70856  25.961  24.244   6.755
11168POPC   C3B70857  25.895  24.262   7.055
11168POPC   C4B70858  25.940  24.245   7.355
11169POPC   NC370859  20.582  39.192   5.555
11169POPC   PO470860  20.656  39.237   5.855
11169POPC   GL170861  20.595  39.267   6.155
11169POPC   GL270862  20.539  39.066   6.155
11169POPC   C1A70863  20.654  39.280   6.455
11169POPC   D2A70864  20.560  39.251   6.755
11169POPC   C3A70865  20.595  39.210   7.055
11169POPC   C4A70866  20.656  39.268   7.355
11169POPC   C1B70867  20.572  39.014   6.455
11169POPC   C2B70868  20.565  38.985   6.755
11169POPC   C3B70869  20.497  38.961   7.055
11169POPC   C4B70870  20.549  39.016   7.355
11170POPC   NC370871  40.769  18.290   5.555
11170POPC   PO470872  40.827  18.310   5.855
11170POPC   GL170873  40.776  18.257   6.155
11170POPC   GL270874  40.820  18.176   6.155
11170POPC   C1A70875  40.751  18.323   6.455
11170POPC   D2A70876  40.787  18.303   6.755
11170POPC   C3A70877  40.810  18.266   7.055
11170POPC   C4A70878  40.749  18.246   7.355
11170POPC   C1B70879  40.831  18.044   6.455
11170POPC   C2B70880  40.871  18.091   6.755
11170POPC   C3B70881  40.853  18.031   7.055
11170POPC   C4B70882  40.834  18.045   7.355
11171POPC   NC370883  16.682  28.342   5.555
11171POPC   PO470884  16.766  28.347   5.855
11171POPC   GL170885  16.748  28.321   6.155
11171POPC   GL270886  16.769  28.312   6.155
11171POPC   C1A70887  16.691  28.385   6.455
11171POPC   D2A70888  16.743  28.344   6.755
11171POPC   C3A70889  16.765  28.346   7.055
11171POPC   C4A70890  16.741  28.369   7.355
11171POPC   C1B70891  16.868  28.233   6.455
11171POPC   C2B70892  16.908  28.215   6.755
11171POPC   C3B70893  16.946  28.178   7.055
11171POPC   C4B70894  16.949  28.192   7.355
11172POPC   NC370895  19.022  15.163   5.555
11172POPC   PO470896  19.095  15.133   5.855
11172POPC   GL170897  19.052  15.154   6.155
11172POPC   GL270898  19.001  15.331   6.155
11172POPC   C1A70899  19.015  15.188   6.455
11172POPC   D2A70900  19.061  15.180   6.755
11172POPC   C3A70901  19.022  15.142   7.055
11172POPC   C4A70902  19.086  15.227   7.355
11172POPC   C1B70903  18.960  15.424   6.455
11172POPC   C2B70904  19.009  15.464   6.755
11172POPC   C3B70905  19.014  15.394   7.055
11172POPC   C4B70906  19.001  15.444   7.355
11173POPC   NC370907  26.857  10.531   5.555
11173POPC   PO470908  26.862  10.547   5.855
11173POPC   GL170909  26.809  10.551   6.155
11173POPC   GL270910  26.843  10.427   6.155
11173POPC   C1A70911  26.857  10.569   6.455
11173POPC   D2A70912  26.788  10.557   6.755
11173POPC   C3A70913  26.809  10.502   7.055
11173POPC   C4A70914  26.850  10.561   7.355
11173POPC   C1B70915  26.841  10.294   6.455
11173POPC   C2B70916  26.784  10.237   6.755
11173POPC   C3B70917  26.810  10.232   7.055
11173POPC   C4B70918  26.846  10.318   7.355
11174W        W70919  18.068  26.003   1.214
11175W        W70920  22.179  14.819   1.419
11176W        W70921  37.450  10.304  11.034
11177W        W70922   0.488  42.821   2.342
11178W        W70923   7.776  13.175   4.625
11179W        W70924   2.826  13.192  10.407
11180W        W70925  13.628  33.445  10.553
11181W        W70926  22.649  15.724   1.347
11182W        W70927  15.602  31.491   1.925
11183W        W70928  24.973   1.282  11.019
11184W        W70929   1.773  26.641   3.286
11185W        W70930  22.008   0.397   3.259
11186W        W70931  33.938  17.091  13.401
11187W        W70932  33.047  20.611   5.193
11188W        W70933  20.743  18.549  13.505
11189W        W70934  18.574  31.957  12.457
11190W        W70935  35.853  30.485  12.454
11191W        W70936  23.089  43.365  13.970
11192W        W70937  37.857  39.846   3.357
11193W        W70938  37.498  21.712  11.035
11194W        W70939  30.582  18.702  13.414
11195W        W70940  37.393  12.216   0.245
11196W        W70941   0.369  30.068  12.569
11197W        W70942  34.387   9.330   0.374
11198W        W70943  13.206  16.144   0.414
11199W        W70944  26.070  40.939  14.925
11200W        W70945  17.791  15.677   4.346
11201W        W70946  36.403  35.505  12.933
11202W        W70947   7.414  25.218   0.801
11203W        W70948   2.294  18.137  11.901
11204W        W70949  33.123  32.497   5.156
11205W        W70950   4.882  10.159   0.902
11206W        W70951   4.787  39.833   3.705
11207W        W70952  10.716  36.557  10.550
11208W        W70953   1.968   6.786  10.969
11209W        W70954  43.856   9.273  10.963
11210W        W70955  17.562  24.986   4.812
11211W        W70956  38.998  14.203   5.314
11212W        W70957   5.299  14.181   0.288
11213W        W70958   7.192  34.903   1.696
11214W        W70959  13.164   5.825   3.843
11215W        W70960  22.070  31.502  11.373
11216W        W70961   2.820  38.341   0.349
11217W        W70962  22.221  15.793   5.097
11218W        W70963  26.192  12.726  11.117
11219W        W70964  32.424  21.206   3.353
11220W        W70965  22.712  27.587   3.852
11221W        W70966  17.110  33.910   2.795
11222W        W70967  12.348  40.434  11.877
11223W        W70968   4.274  22.017  12.833
11224W        W70969  11.681  18.110  10.043
11225W        W70970  28.470   2.368   1.719
11226W        W70971  25.533  30.956   3.780
11227W        W70972  39.526  42.462   0.811
11228W        W70973  13.283  18.296   1.284
11229W        W70974  27.616  40.860  14.286
11230W        W70975  35.574   5.829   4.684
11231W        W70976   6.428  17.147   0.827
11232W        W70977  32.128  39.315  12.905
11233W        W70978  34.413  44.010   4.283
11234W        W70979  14.203   5.932   0.785
11235W        W70980  25.200  11.660   2.801
11236W        W70981  37.040  22.555   4.222
11237W        W70982  26.982   4.206  12.472
11238W        W70983   3.858  38.433   1.848
11239W        W70984  23.200  16.210   5.165
11240W        W70985   1.742  16.146   4.809
11241W        W70986   0.421  32.898   0.289
11242W        W70987  12.358  33.004  13.438
11243W        W70988  37.077  14.151   3.792
11244W        W70989  19.097   1.844   0.865
11245W        W70990  19.165  35.463  13.467
11246W        W70991  24.663  31.056   1.833
11247W        W70992  32.954  40.381   4.282
11248W        W70993  13.227   6.190  10.501
11249W        W70994  16.634  14.170  13.463
11250W        W70995   2.765  43.996   1.320
11251W        W70996  31.051  37.965  11.546
11252W        W70997  12.741  41.414  11.118
11253W        W70998   5.881  32.391  11.456
11254W        W70999  17.173  22.741   0.268
11255W        W71000  44.952  34.983   2.221
11256W        W71001   3.234  31.107   1.808
11257W        W71002  32.058  18.063   1.901
11258W        W71003  43.341   5.796   2.673
11259W        W71004  26.136   5.316   0.449
11260W        W71005   4.829  41.037   4.277
11261W        W71006  16.691  19.778  14.877
11262W        W71007  17.079  43.856   1.820
11263W        W71008  38.377  13.160  11.979
11264W        W71009  38.536  40.415  10.618
11265W        W71010  22.706   6.345   5.113
11266W        W71011   0.971  15.225  13.012
11267W        W71012  43.422   8.875   2.720
11268W        W71013  37.918  38.533  11.097
11269W        W71014  21.710  18.270  12.047
11270W        W71015  18.637   5.362   1.245
11271W        W71016  38.065   4.443   1.812
11272W        W71017  24.012  31.496   1.909
11273W        W71018  26.025  20.603   4.623
11274W        W71019  35.922   6.757  12.376
11275W        W71020  13.624  17.615  13.366
11276W        W71021  11.327  29.500   4.145
11277W        W71022   6.377  13.284  13.525
11278W        W71023  24.096  10.222  14.851
11279W        W71024  34.997  12.295   0.772
11280W        W71025   9.741  24.014   3.717
11281W        W71026  41.987  31.571  14.023
11282W        W71027  43.806  31.417   4.230
11283W        W71028  38.839  42.955  14.453
11284W        W71029  34.896  32.479   3.272
11285W        W71030   3.312  35.100   4.598
11286W        W71031  15.104   9.677  13.035
11287W        W71032  39.480  13.302  12.016
11288W        W71033  11.843   0.309   1.382
11289W        W71034  27.125  22.217   4.765
11290W        W71035  26.952  28.101   0.287
11291W        W71036  33.419   5.339   5.711
11292W        W71037   6.745  41.861  12.085
11293W        W71038   4.420   2.229  10.887
11294W        W71039   4.425   8.657   2.235
11295W        W71040  16.738   8.745  13.413
11296W        W71041  30.472  38.984   0.758
11297W        W71042  41.317  33.541   3.269
11298W        W71043  27.455   3.899  11.435
11299W        W71044  15.328  44.496  12.899
11300W        W71045   9.807   5.759  11.579
11301W        W71046  33.082  44.393   2.739
11302W        W71047  22.677  39.940   1.730
11303W        W71048   0.311  30.948   5.288
11304W        W71049   9.378  29.647  12.398
11305W        W71050  10.693  44.410  12.545
11306W        W71051  13.140  37.920   3.750
11307W        W71052  18.229  31.153  11.385
11308W        W71053  38.830  14.111  14.850
11309W        W71054  30.572  40.849   1.882
11310W        W71055   9.862  32.957   4.138
11311W        W71056  27.996  21.097   2.709
11312W        W71057  29.030   7.368   9.671
11313W        W71058  19.196  17.172   0.853
11314W        W71059  17.227  39.552  14.961
11315W        W71060   4.784  43.500  12.479
11316W        W71061  35.078  32.062  14.463
11317W        W71062  21.576  26.497  12.460
11318W        W71063  38.922  20.622  12.478
11319W        W71064  26.153  20.628  13.010
11320W        W71065  32.616  26.086   4.150
11321W        W71066  31.145  16.142   3.719
11322W        W71067   4.249  29.648  13.791
11323W        W71068  10.767  43.372  12.542
11324W        W71069   1.443  33.487  10.027
11325W        W71070  36.866  16.122   2.663
11326W        W71071  10.854  19.572  14.935
11327W        W71072  37.912  28.643   3.208
11328W        W71073  28.080  11.824   3.664
11329W        W71074  42.467  13.231   4.333
11330W        W71075  38.431  43.439  14.950
11331W        W71076  10.323  23.681  12.391
11332W        W71077   1.871  26.608  13.498
11333W        W71078  17.199  10.744   2.288
11334W        W71079  12.129  23.546  13.487
11335W        W71080  14.612   2.378   0.789
11336W        W71081   1.904  18.293  11.482
11337W        W71082  18.173   6.711   0.332
11338W        W71083  38.957  41.018  13.436
11339W        W71084  34.977   1.411   1.296
11340W        W71085  40.347  19.651   0.270
11341W        W71086  19.767   7.402   2.363
11342W        W71087  34.570  18.564   2.289
11343W        W71088  18.122  35.589  12.566
11344W        W71089  28.973  30.020   1.861
11345W        W71090   2.307  14.818  11.544
11346W        W71091   5.921  39.542   4.598
11347W        W71092   6.207  27.191  10.596
11348W        W71093   7.352  27.065  14.885
11349W        W71094  11.170  11.782  13.948
11350W        W71095  36.591   4.791  13.913
11351W        W71096  39.886  35.581   0.314
11352W        W71097  22.251   6.333  13.801
11353W        W71098   4.923  29.602   4.667
11354W        W71099  23.012  13.132  10.953
11355W        W71100   3.434  30.031   2.326
11356W        W71101   0.424  13.149  13.830
11357W        W71102  21.022  41.989  13.472
11358W        W71103  30.419  40.493  10.455
11359W        W71104  12.856  44.464   2.314
11360W        W71105   5.377  44.908  13.941
11361W        W71106   1.324  27.504  11.019
11362W        W71107  17.178   1.777   0.841
11363W        W71108  31.052  15.148  11.985
11364W        W71109  44.787   7.318   2.227
11365W        W71110  20.574   7.862  13.839
11366W        W71111   6.817   4.314  11.488
11367W        W71112   9.890   0.937  14.284
11368W        W71113  12.361  21.181  14.978
11369W        W71114  39.010  42.286  13.481
11370W        W71115  19.223  27.091  14.350
11371W        W71116  40.950   0.415  11.477
11372W        W71117  24.974   5.240  12.072
11373W        W71118  32.485  10.695   2.197
11374W        W71119   6.780  38.052  12.393
11375W        W71120  26.535   6.421  12.397
11376W        W71121  21.587  41.859   3.726
11377W        W71122  41.398  24.559  10.409
11378W        W71123   0.406   7.268  10.508
11379W        W71124  42.826  34.962   0.751
11380W        W71125  21.047   6.831   4.759
11381W        W71126  24.551  22.601   4.314
11382W        W71127  34.971  22.526   3.213
11383W        W71128  41.014  26.462  13.334
11384W        W71129   1.786   3.440  10.418
11385W        W71130  15.221  31.141   0.320
11386W        W71131  44.917  44.342   4.158
11387W        W71132   7.227  29.563  14.429
11388W        W71133  14.239  12.777  10.934
11389W        W71134  17.232  21.732   2.742
11390W        W71135  25.538  10.300   1.866
11391W        W71136  42.910  44.975   3.208
11392W        W71137  15.274   5.290   2.262
11393W        W71138  41.904  42.431  13.491
11394W        W71139   6.389  11.795  14.320
11395W        W71140  43.288   5.879   2.340
11396W        W71141  13.155  29.022  11.872
11397W        W71142  10.741  37.404  10.961
11398W        W71143  27.598  32.070  13.345
11399W        W71144  37.067  39.393   0.810
11400W        W71145  36.864   0.388   0.780
11401W        W71146  24.064  14.320   1.338
11402W        W71147  39.355  30.012   1.928
11403W        W71148   7.341  28.028  11.395
11404W        W71149   5.914  22.065  12.886
11405W        W71150  14.165  39.031  10.620
11406W        W71151   4.337  16.254   3.201
11407W        W71152   7.378  35.518  13.430
11408W        W71153  27.673  14.161  12.542
11409W        W71154  16.126   8.330  14.413
11410W        W71155   4.854  14.282  10.494
11411W        W71156  36.389  22.120  12.425
11412W        W71157  14.322  38.963  14.990
11413W        W71158  37.920  31.917  14.866
11414W        W71159   3.374  16.644  12.916
11415W        W71160  38.422  10.796  13.846
11416W        W71161  34.109  14.686  11.949
11417W        W71162   0.842  30.492  10.904
11418W        W71163   5.780  39.558   0.418
11419W        W71164  32.915  31.596  11.071
11420W        W71165  13.135  33.941   3.783
11421W        W71166   9.814  21.130  12.354
11422W        W71167  15.723  39.963   2.392
11423W        W71168  38.368  33.411  14.018
11424W        W71169   7.701  38.434   3.667
11425W        W71170   9.213   9.748   3.271
11426W        W71171  39.318  44.776  13.871
11427W        W71172  30.444   3.791  12.490
11428W        W71173  15.251   6.919  10.601
11429W        W71174  15.113   5.258   1.359
11430W        W71175  40.002   9.820  12.851
11431W        W71176   8.283  40.979   4.310
11432W        W71177  15.626  38.400  13.014
11433W        W71178  29.036  30.639   0.872
11434W        W71179  32.965  38.378   3.772
11435W        W71180  23.158  35.074  13.830
11436W        W71181   2.319  39.437   1.413
11437W        W71182   8.664  12.348  14.851
11438W        W71183  21.226  33.941  11.102
11439W        W71184  21.604   8.791   0.794
11440W        W71185  18.544   8.657  12.385
11441W        W71186  33.997   2.296   0.966
11442W        W71187   2.239  39.023  14.487
11443W        W71188  44.815  39.023  13.966
11444W        W71189  26.590  28.485  10.571
11445W        W71190  17.557  26.689   1.708
11446W        W71191   2.812   8.798  12.504
11447W        W71192  21.031  20.168  11.479
11448W        W71193   2.230  12.245   0.471
11449W        W71194   1.404   1.240   4.257
11450W        W71195  15.812  23.607  11.608
11451W        W71196   9.352  20.655   2.316
11452W        W71197  38.518  19.218  11.901
11453W        W71198  38.526  44.425   3.827
11454W        W71199  34.903  15.769  10.062
11455W        W71200  24.555   9.818  12.339
11456W        W71201  24.502  36.982  11.425
11457W        W71202  15.243   1.955   0.333
11458W        W71203   4.236   0.790   2.903
11459W        W71204  41.503  21.623  14.911
11460W        W71205  36.405  39.371  10.405
11461W        W71206   5.723  12.161  13.019
11462W        W71207  11.667   1.787   3.769
11463W        W71208  17.227  23.056  11.544
11464W        W71209  43.921  14.725   1.450
11465W        W71210  17.096  24.115  11.084
11466W        W71211  27.547  37.393  13.060
11467W        W71212  33.583  21.733  10.478
11468W        W71213   3.804  13.306  11.988
11469W        W71214  20.268  16.761  14.422
11470W        W71215  26.152  19.146  13.032
11471W        W71216  33.608   3.710   1.382
11472W        W71217  34.434  23.211  12.892
11473W        W71218  20.768  24.492   3.729
11474W        W71219  11.282   0.858  14.291
11475W        W71220  11.761  39.974   4.196
11476W        W71221  40.968  32.479   2.709
11477W        W71222   8.804  25.469  10.638
11478W        W71223  37.492  34.987   5.106
11479W        W71224  16.270  15.179   4.186
11480W        W71225   6.803  23.669   4.706
11481W        W71226  29.549   0.381  10.160
11482W        W71227  43.495  13.154   4.600
11483W        W71228  41.450   5.212  10.433
11484W        W71229  36.558  39.831   0.874
11485W        W71230  19.101  41.919  10.510
11486W        W71231  30.940   2.753   2.317
11487W        W71232   7.317  11.184  14.925
11488W        W71233   3.916  40.862   0.337
11489W        W71234  32.451  28.131   2.889
11490W        W71235  10.650  23.089  12.375
11491W        W71236  44.795  16.235   1.717
11492W        W71237  38.350  30.029   0.449
11493W        W71238  25.111  44.793   4.302
11494W        W71239  21.718  26.578   4.319
11495W        W71240  16.794  11.832  13.959
11496W        W71241  38.446  35.900   3.162
11497W        W71242  20.605  14.311  11.072
11498W        W71243  16.187  21.696   3.645
11499W        W71244  33.433   2.362   0.957
11500W        W71245   3.263  27.948   0.960
11501W        W71246  34.457  42.314   1.382
11502W        W71247   6.680   4.854  13.062
11503W        W71248   1.478  39.054   3.163
11504W        W71249  20.582   9.370  13.473
11505W        W71250   9.888  40.009  12.535
11506W        W71251  32.431  14.310   4.155
11507W        W71252  44.843  19.562  14.907
11508W        W71253  31.514  36.895  12.367
11509W        W71254  15.247   6.688   2.686
11510W        W71255  37.553  35.854  11.459
11511W        W71256  27.077   8.680   2.882
11512W        W71257   0.450   3.326   2.836
11513W        W71258  37.895  23.531  10.917
11514W        W71259  22.234  14.708   0.286
11515W        W71260  11.164  24.037  12.909
11516W        W71261  17.602  14.599  11.986
11517W        W71262  41.498   2.374  13.971
11518W        W71263  15.640  41.993  10.572
11519W        W71264  19.101  37.907   4.166
11520W        W71265  10.296  11.242   2.251
11521W        W71266   3.435   3.770  10.963
11522W        W71267  44.773   7.878   3.647
11523W        W71268  39.488  39.363   0.935
11524W        W71269  44.884  22.552  11.913
11525W        W71270  39.983  16.642  12.093
11526W        W71271  10.878  19.147   4.227
11527W        W71272  43.860   4.442  13.909
11528W        W71273  38.935  38.373  11.395
11529W        W71274  26.154  33.450   3.149
11530W        W71275  22.136   0.263  12.048
11531W        W71276  40.974  43.396  10.408
11532W        W71277   4.240  12.688   1.780
11533W        W71278  38.974  15.803  12.973
11534W        W71279  35.488   0.414  12.865
11535W        W71280  14.691  26.578  13.458
11536W        W71281  17.576  43.838   2.259
11537W        W71282  23.659  26.006   2.221
11538W        W71283  42.832   4.785   0.862
11539W        W71284   5.402   5.859  13.341
11540W        W71285  15.239  27.486   0.303
11541W        W71286   6.413  36.847   4.302
11542W        W71287   4.295  17.608  13.409
11543W        W71288  35.599  38.060  14.909
11544W        W71289  32.632  14.706  10.552
11545W        W71290  38.950   6.822  11.911
11546W        W71291  10.853  39.823   0.300
11547W        W71292  13.705  28.095  14.945
11548W        W71293  43.441   9.339   4.263
11549W        W71294  41.296   2.925  10.590
11550W        W71295  13.292  28.595  10.914
11551W        W71296   5.693  43.850  12.462
11552W        W71297  17.292  33.486  14.766
11553W        W71298   0.829  44.758  12.973
11554W        W71299  37.373  14.292  14.353
11555W        W71300  26.084  25.469  13.869
11556W        W71301  29.612  19.270   9.472
11557W        W71302   3.399  33.016   2.665
11558W        W71303   6.186   7.332   4.148
11559W        W71304  13.325  30.910   4.771
11560W        W71305  10.275  43.423   0.915
11561W        W71306   3.251  16.681  12.482
11562W        W71307  18.557  15.266  12.358
11563W        W71308   0.390  26.044   3.737
11564W        W71309  32.476  21.070   2.803
11565W        W71310  19.716  41.457   4.708
11566W        W71311  27.672  30.613   2.319
11567W        W71312  35.459  27.002   2.673
11568W        W71313  36.896   4.336  10.578
11569W        W71314   0.745  25.548  10.995
11570W        W71315  24.055  18.154  11.547
11571W        W71316  33.115   9.393  14.459
11572W        W71317  18.682  34.060  10.456
11573W        W71318  26.540  29.663  12.929
11574W        W71319   6.760  36.478  10.540
11575W        W71320  11.280   8.317  11.045
11576W        W71321  42.418  35.590   3.338
11577W        W71322  31.071  30.524  13.310
11578W        W71323  20.043  42.984   2.876
11579W        W71324   5.426  43.346   3.367
11580W        W71325  40.440  35.370  14.867
11581W        W71326  22.604  38.453   2.675
11582W        W71327   3.782  35.000   1.239
11583W        W71328  15.602  33.048  10.021
11584W        W71329  11.645  39.888   2.670
11585W        W71330  44.420  26.507  14.467
11586W        W71331  17.099  20.063   2.704
11587W        W71332  23.521  11.646  11.494
11588W        W71333   7.346  13.743  11.058
11589W        W71334   0.899  43.315   1.932
11590W        W71335  22.108  19.572  11.474
11591W        W71336  20.727   6.289   2.799
11592W        W71337  32.887  14.209  13.505
11593W        W71338  21.059   5.882  13.386
11594W        W71339  44.490  27.642   4.200
11595W        W71340  43.452  14.296   4.192
11596W        W71341  37.935   0.349  10.465
11597W        W71342   8.819  20.540  14.320
11598W        W71343   7.306   5.729  12.390
11599W        W71344  11.368   2.315  12.390
11600W        W71345   2.268  44.774   1.728
11601W        W71346  12.720  30.103   0.797
11602W        W71347  18.654  17.080  13.827
11603W        W71348   2.750  10.147  13.805
11604W        W71349   5.826  41.864  14.426
11605W        W71350  14.787  28.570  11.943
11606W        W71351  38.535  34.107   1.288
11607W        W71352  23.093  44.265  11.914
11608W        W71353  33.394  36.436   4.135
11609W        W71354  44.800  14.210   4.342
11610W        W71355  16.272  17.238   2.269
11611W        W71356  11.861  31.427   3.812
11612W        W71357  25.587  21.260  10.045
11613W        W71358  15.616  32.570  11.388
11614W        W71359   5.779  28.585  11.425
11615W        W71360  23.046  21.741   4.166
11616W        W71361  32.913  30.440   2.827
11617W        W71362  20.206  35.908   5.086
11618W        W71363  35.453   8.833  13.390
11619W        W71364  32.628  43.944  12.559
11620W        W71365  21.233  30.431   2.269
11621W        W71366  10.809  12.722  11.530
11622W        W71367  24.035  40.944  10.935
11623W        W71368   4.320  36.442  10.515
11624W        W71369  15.304  16.627  12.496
11625W        W71370  36.082   0.864   4.661
11626W        W71371  41.315  26.474  13.982
11627W        W71372  20.175   6.377   9.938
11628W        W71373   6.766  24.551   1.283
11629W        W71374  43.422  38.341   4.126
11630W        W71375  15.822  15.680   2.353
11631W        W71376  14.212  43.308  11.066
11632W        W71377   6.754  23.155  11.050
11633W        W71378  36.416  35.538   0.951
11634W        W71379  32.033   8.720   4.127
11635W        W71380   5.862   3.737   3.851
11636W        W71381  17.761  25.081   0.763
11637W        W71382  28.043   2.868  11.975
11638W        W71383  11.833  10.240  14.288
11639W        W71384  35.423  34.087  14.020
11640W        W71385   7.717  44.354  10.895
11641W        W71386  22.055  13.607  12.511
11642W        W71387   0.754  30.949   0.800
11643W        W71388   6.913   3.926   4.832
11644W        W71389  32.934  27.980   1.399
11645W        W71390   2.917  17.772   0.730
11646W        W71391  44.444  23.699   3.773
11647W        W71392  28.591  41.400   4.695
11648W        W71393   8.762  15.211   2.406
11649W        W71394   7.891  35.483  12.946
11650W        W71395  16.697  10.212   0.764
11651W        W71396  33.461  33.399  13.826
11652W        W71397  30.162  39.899  14.433
11653W        W71398  28.085   5.297   4.312
11654W        W71399  35.547  15.763   3.642
11655W        W71400  10.267  35.529   5.625
11656W        W71401   5.355  12.816  10.531
11657W        W71402  25.045   1.428   3.175
11658W        W71403  36.457   4.419   1.850
11659W        W71404  13.836   0.913  13.002
11660W        W71405   0.828  11.179  11.450
11661W        W71406  43.832  17.792   5.221
11662W        W71407  20.045  24.676  14.304
11663W        W71408  36.366  19.633  11.596
11664W        W71409   7.383  29.080   1.825
11665W        W71410  24.056  28.471  10.584
11666W        W71411  31.953  23.160   4.268
11667W        W71412  39.405  13.133   2.279
11668W        W71413  41.808   1.735  12.443
11669W        W71414  40.396  34.050   1.400
11670W        W71415  36.921  12.303   0.296
11671W        W71416  24.485  19.266  12.341
11672W        W71417  35.859  29.569  13.493
11673W        W71418  15.208  31.082   3.330
11674W        W71419  26.687  22.632   2.869
11675W        W71420   0.773  38.481  13.454
11676W        W71421  32.052   5.917   1.211
11677W        W71422  25.669  30.121  11.573
11678W        W71423  37.533   1.423  13.040
11679W        W71424  27.616  34.093   3.756
11680W        W71425   6.428  41.830  11.872
11681W        W71426  21.183  42.968   4.739
11682W        W71427  14.698   3.261   1.427
11683W        W71428  12.665   9.340  12.955
11684W        W71429  37.845  40.976   3.640
11685W        W71430  26.093  44.868   0.881
11686W        W71431  34.542  24.563  13.875
11687W        W71432  21.148   4.937  10.437
11688W        W71433  36.028  41.977   1.387
11689W        W71434  12.828  37.047   3.354
11690W        W71435   1.363  33.901   1.827
11691W        W71436  19.256  11.259  11.029
11692W        W71437  12.152  26.572  14.882
11693W        W71438  31.546  13.763  13.845
11694W        W71439   4.258  42.331  12.419
11695W        W71440  21.710  39.914   0.337
11696W        W71441  38.995   6.392   2.272
11697W        W71442   7.703  26.191   0.339
11698W        W71443   4.390  40.833  13.891
11699W        W71444  21.572  23.533   2.290
11700W        W71445  39.895  11.273  13.854
11701W        W71446  36.498  18.683   5.158
11702W        W71447  43.899  12.323  11.089
11703W        W71448  38.882  30.599  11.042
11704W        W71449  29.428  44.328   1.217
11705W        W71450  10.836  35.065  12.962
11706W        W71451   5.899  29.163   2.739
11707W        W71452   1.349  38.563  13.851
11708W        W71453  40.340   5.701  14.957
11709W        W71454  20.245  43.483  14.367
11710W        W71455  33.060   7.867  13.534
11711W        W71456  37.059  22.214  12.917
11712W        W71457  40.449  40.920   3.814
11713W        W71458   6.872   9.867  14.846
11714W        W71459  13.742  20.146  13.040
11715W        W71460  21.618  19.626  13.797
11716W        W71461  28.951  23.195  14.781
11717W        W71462  35.902  24.111   1.774
11718W        W71463  36.950  26.084  13.902
11719W        W71464   1.788  31.917   3.827
11720W        W71465  22.529  30.075  11.904
11721W        W71466  29.971   3.894  11.481
11722W        W71467  14.299  38.469   1.858
11723W        W71468  10.172  42.972   2.351
11724W        W71469   8.805  43.477   0.792
11725W        W71470   6.362  26.628   4.159
11726W        W71471   8.263  38.909   0.356
11727W        W71472  15.241  28.494   2.768
11728W        W71473  30.006  15.191   1.860
11729W        W71474  25.527  28.455  11.514
11730W        W71475  32.417  43.785  11.491
11731W        W71476  14.189  13.302  12.970
11732W        W71477  41.505   7.223  11.003
11733W        W71478  14.195  32.449   3.285
11734W        W71479  13.707   9.206   4.293
11735W        W71480  20.139   4.741   4.335
11736W        W71481   9.232  41.468   0.463
11737W        W71482  30.158   2.325   4.770
11738W        W71483  37.475  39.370  14.422
11739W        W71484  43.347  16.664  13.910
11740W        W71485  16.157  35.491  13.828
11741W        W71486  32.098  38.000  12.941
11742W        W71487  20.603   9.872  14.862
11743W        W71488   9.166   8.870  12.931
11744W        W71489   5.932  21.035  11.548
11745W        W71490  42.918  12.742   4.834
11746W        W71491  29.169  11.216   2.727
11747W        W71492  16.300  16.164  11.470
11748W        W71493  25.572  35.515  13.532
11749W        W71494  18.731  37.532   2.297
11750W        W71495  27.130  38.066  13.832
11751W        W71496  31.574  39.429   4.201
11752W        W71497  19.271   9.355  13.872
11753W        W71498  20.696  23.514  13.919
11754W        W71499  27.492   0.486  10.941
11755W        W71500   8.193  14.327   3.208
11756W        W71501  12.633  32.021   9.980
11757W        W71502  35.524   8.666   2.898
11758W        W71503  32.057  37.455   4.117
11759W        W71504  18.140  13.253   2.811
11760W        W71505  27.510  42.397  10.501
11761W        W71506  13.606  43.383   2.902
11762W        W71507  16.637  40.330  14.795
11763W        W71508  42.478  37.462  12.345
11764W        W71509  39.058  25.524  12.954
11765W        W71510   2.311  22.703   2.754
11766W        W71511  20.115  14.288   0.287
11767W        W71512  31.902  25.078  11.988
11768W        W71513   7.202  12.230   1.387
11769W        W71514  13.202  25.511  11.884
11770W        W71515  14.145  35.012   0.799
11771W        W71516   3.823  38.496   5.300
11772W        W71517  25.681  19.724   3.825
11773W        W71518  28.096  41.349  13.857
11774W        W71519  16.218  35.381  11.587
11775W        W71520  13.149   7.255  11.964
11776W        W71521  24.481  13.202  13.925
11777W        W71522  17.623  19.133  14.419
11778W        W71523  44.492  30.087   1.379
11779W        W71524  17.687  27.671   2.253
11780W        W71525  24.615   0.958   4.614
11781W        W71526  26.029  11.368   4.235
11782W        W71527   6.703  15.688   1.388
11783W        W71528  29.630  26.023  14.367
11784W        W71529  25.052   0.972   3.161
11785W        W71530  14.655  31.073   3.384
11786W        W71531  27.185   2.228  13.951
11787W        W71532  34.017  22.658   2.382
11788W        W71533  22.225   3.759   5.721
11789W        W71534  41.907   2.353   2.818
11790W        W71535  29.104  28.091   3.830
11791W        W71536  25.192  13.816  12.015
11792W        W71537   1.473  19.738   4.687
11793W        W71538   9.374   1.911  14.827
11794W        W71539  11.782  41.405  11.882
11795W        W71540  14.204  10.271  13.846
11796W        W71541  31.154   3.401  10.888
11797W        W71542   2.242   3.223   1.237
11798W        W71543  19.728  43.308  10.936
11799W        W71544   3.866  43.331   0.887
11800W        W71545   3.339   7.210  13.914
11801W        W71546  30.093  40.533  13.326
11802W        W71547   9.717  38.390  12.388
11803W        W71548  21.074  21.749  14.428
11804W        W71549  14.121   2.330  13.813
11805W        W71550  38.429  24.533  10.635
11806W        W71551  39.917  34.058   2.815
11807W        W71552   2.873  12.246  12.856
11808W        W71553  27.140  40.546  11.560
11809W        W71554  43.828  42.976  13.896
11810W        W71555  21.110  38.006   0.877
11811W        W71556  19.644   2.396   2.894
11812W        W71557  33.069  35.050  13.456
11813W        W71558   4.203  26.043  14.328
11814W        W71559   3.933  27.598  10.961
11815W        W71560  24.146  12.317   3.793
11816W        W71561  41.944  19.578  13.983
11817W        W71562  14.299  22.111  14.503
11818W        W71563  38.980   0.341  13.031
11819W        W71564  31.108  32.887  11.524
11820W        W71565   2.357   9.859   3.386
11821W        W71566  33.082  11.284  13.476
11822W        W71567  16.703  24.543   1.267
11823W        W71568  33.450  22.176  11.986
11824W        W71569   0.455  22.593  10.418
11825W        W71570  30.078  14.308   2.795
11826W        W71571   6.914   6.910  10.524
11827W        W71572  24.649  12.693   2.224
11828W        W71573  43.966  34.414   3.661
11829W        W71574  31.943  37.916   0.919
11830W        W71575   6.417  26.506  11.880
11831W        W71576   2.875   1.919   1.848
11832W        W71577  43.911  32.084  12.476
11833W        W71578  41.001  18.087  11.902
11834W        W71579   4.836  34.989  10.899
11835W        W71580   7.770  15.764  10.947
11836W        W71581   6.402   9.153   3.385
11837W        W71582  15.144  24.122   4.657
11838W        W71583  38.372  16.261   2.699
11839W        W71584  35.873   9.284   4.717
11840W        W71585  36.582  35.064  11.441
11841W        W71586   2.328  41.811   3.236
11842W        W71587  19.546  34.984  11.516
11843W        W71588  13.695  38.927   0.481
11844W        W71589  36.087   7.414  13.362
11845W        W71590   9.165  43.473  11.402
11846W        W71591  28.087  19.655   3.864
11847W        W71592  40.946  20.660  13.916
11848W        W71593  28.570  29.157   9.491
11849W        W71594  37.514   1.444  12.416
11850W        W71595   3.357   6.218   5.139
11851W        W71596  20.662  34.542   0.911
11852W        W71597  18.638  32.571   0.349
11853W        W71598  29.644   7.759  14.508
11854W        W71599  23.679  32.067   1.354
11855W        W71600  33.495  23.179  14.829
11856W        W71601  43.853  24.518  12.015
11857W        W71602  24.191  32.136  10.608
11858W        W71603   3.331  37.430  12.975
11859W        W71604  31.434   1.870  13.434
11860W        W71605  36.354  23.542   4.631
11861W        W71606   3.723   6.329  13.009
11862W        W71607   8.366   6.353  10.437
11863W        W71608  20.577  18.149   0.815
11864W        W71609  41.512  27.657   0.283
11865W        W71610  35.046  43.974  13.519
11866W        W71611   6.275  34.947   4.257
11867W        W71612  42.957  10.251   3.374
11868W        W71613  29.941  18.129  14.411
11869W        W71614  26.185  14.314  13.844
11870W        W71615   7.327  42.822  10.020
11871W        W71616   2.292  35.054  11.540
11872W        W71617  42.524  15.805   2.343
11873W        W71618   5.291  27.559   1.452
11874W        W71619   5.213  42.391  14.282
11875W        W71620  10.140  16.682  12.990
11876W        W71621  37.512  38.935  12.915
11877W        W71622  37.451  21.535   3.694
11878W        W71623   7.813  18.233  13.533
11879W        W71624  19.266   9.312   0.738
11880W        W71625  11.743  18.689   0.382
11881W        W71626  16.086  10.860  10.587
11882W        W71627  17.670  20.183   2.781
11883W        W71628  41.425  43.330  11.387
11884W        W71629  10.267  42.811   3.364
11885W        W71630  25.673  21.064   1.698
11886W        W71631  30.598  33.603  14.897
11887W        W71632  39.014  26.523  11.044
11888W        W71633  28.025   7.234   4.716
11889W        W71634  10.681  35.600   4.120
11890W        W71635  14.749   7.214   0.293
11891W        W71636   5.698  42.503  14.859
11892W        W71637  36.053  32.540  13.403
11893W        W71638   5.268  34.958   2.403
11894W        W71639  40.803   6.243  13.370
11895W        W71640  21.130  28.613  11.920
11896W        W71641  25.098  10.815   3.167
11897W        W71642  44.776   5.776  13.054
11898W        W71643  41.851  33.447  12.002
11899W        W71644  29.577   2.314   0.283
11900W        W71645  26.011  38.029   0.842
11901W        W71646  35.099  43.837  12.426
11902W        W71647  13.690  19.622   3.729
11903W        W71648   9.838   7.288   4.660
11904W        W71649  43.450  15.677   1.777
11905W        W71650  21.646  10.297  13.044
11906W        W71651  37.039  16.688  14.913
11907W        W71652  10.232  13.148   2.762
11908W        W71653  40.492  43.859   3.283
11909W        W71654  43.346  27.087  12.468
11910W        W71655  20.128  38.451  13.043
11911W        W71656  21.539  27.530   4.821
11912W        W71657  37.901  26.555   0.408
11913W        W71658  27.105  15.104   4.349
11914W        W71659  28.098  11.183  10.435
11915W        W71660  10.231  44.996   0.310
11916W        W71661  15.711  13.664  14.445
11917W        W71662  24.620  32.125  11.121
11918W        W71663  34.443  14.699  10.453
11919W        W71664  22.067  30.095  10.997
11920W        W71665  37.856  11.368   3.334
11921W        W71666   0.975  29.154  11.871
11922W        W71667   6.238  15.304  11.889
11923W        W71668   8.860  21.149   1.868
11924W        W71669   7.182   4.357   3.153
11925W        W71670  38.509  15.272   0.788
11926W        W71671  29.523  37.066   2.832
11927W        W71672   1.272  13.617   0.340
11928W        W71673  24.689  40.543  12.417
11929W        W71674  33.056  15.716   3.164
11930W        W71675  40.917   4.408   0.900
11931W        W71676  22.216  37.478  11.602
11932W        W71677  21.514   6.908  10.414
11933W        W71678  40.453  32.577   3.813
11934W        W71679  27.492  31.539  10.558
11935W        W71680  28.489  14.776   4.225
11936W        W71681  30.093  22.161   2.209
11937W        W71682  39.445  21.594  10.462
11938W        W71683  22.164   2.814   0.396
11939W        W71684  40.849  25.488   4.636
11940W        W71685  44.381  33.092  10.155
11941W        W71686  25.210  21.569   2.241
11942W        W71687  34.407   3.384   2.768
11943W        W71688  40.505  30.605   3.735
11944W        W71689  26.547  28.568  12.542
11945W        W71690   2.774  21.107   3.255
11946W        W71691  19.130  28.174  13.972
11947W        W71692   5.258  37.538   2.835
11948W        W71693  14.652  31.454  14.809
11949W        W71694  21.577  17.291  11.568
11950W        W71695   2.263  10.779  13.419
11951W        W71696  26.596  12.194  14.897
11952W        W71697  18.707  34.597   0.737
11953W        W71698  44.952  27.455  12.460
11954W        W71699  40.905   0.422  13.839
11955W        W71700  19.762  38.887   3.751
11956W        W71701  23.101  27.464  12.555
11957W        W71702  40.366  37.568  11.090
11958W        W71703  32.628   6.772  13.059
11959W        W71704  27.120  35.054  14.311
11960W        W71705  38.014   5.702   3.868
11961W        W71706  20.534  35.405  13.317
11962W        W71707  32.931  39.551   0.430
11963W        W71708  42.882  25.191  12.831
11964W        W71709  17.746  19.551   1.412
11965W        W71710   7.393  32.564   2.708
11966W        W71711  32.581  40.924   3.226
11967W        W71712  26.046  34.589   1.262
11968W        W71713  16.197   2.817  10.447
11969W        W71714  44.915  28.018  13.920
11970W        W71715   8.208  41.389  13.988
11971W        W71716  36.005  37.044   2.792
11972W        W71717   1.443  42.512  14.840
11973W        W71718  43.881  42.301  13.970
11974W        W71719  25.115  16.694  14.822
11975W        W71720  13.600  19.083   4.327
11976W        W71721   1.416  18.544   2.713
11977W        W71722   7.709  28.001  13.395
11978W        W71723  18.667  43.466  11.482
11979W        W71724   5.342   4.785  11.862
11980W        W71725  19.773   0.778  10.436
11981W        W71726  28.528  15.176   4.342
11982W        W71727  39.841   1.885  10.484
11983W        W71728   8.714  13.780  14.804
11984W        W71729   6.294  19.207  14.392
11985W        W71730   3.906   6.383   3.810
11986W        W71731  28.657   9.790   2.292
11987W        W71732  39.815  33.900  10.982
11988W        W71733   4.937  24.974  14.504
11989W        W71734  17.100  33.429  11.075
11990W        W71735   0.253  26.620   3.354
11991W        W71736  19.668  36.574   4.268
11992W        W71737   7.241   9.755   2.329
11993W        W71738  36.984  19.178   2.226
11994W        W71739  32.918  39.945   3.812
11995W        W71740   2.842  34.549   1.384
11996W        W71741  19.042   6.914  13.816
11997W        W71742  20.705  10.865   2.370
11998W        W71743  24.105  38.347   1.348
11999W        W71744   5.871   3.350   3.155
12000W        W71745  17.137  35.485  13.481
12001W        W71746  10.181  23.083   2.860
12002W        W71747  43.327  40.830  13.354
12003W        W71748  44.447  34.013  14.443
12004W        W71749  34.388  10.712   2.729
12005W        W71750  31.483   5.741   9.926
12006W        W71751  42.507  44.468  14.428
12007W        W71752  28.649   7.902  10.543
12008W        W71753  20.097  34.915   2.186
12009W        W71754   4.878   1.321   3.309
12010W        W71755   8.372  33.946   2.756
12011W        W71756  24.581  29.500   1.736
12012W        W71757  38.534  11.332   3.273
12013W        W71758  24.641   3.834   0.925
12014W        W71759  15.598  38.371  14.505
12015W        W71760  33.114  25.007   2.194
12016W        W71761   0.744  34.919   3.233
12017W        W71762  20.768  15.682  10.422
12018W        W71763  14.125  22.744  11.451
12019W        W71764   1.461  21.193   3.853
12020W        W71765  20.621  23.230   2.854
12021W        W71766  33.095  30.004  12.044
12022W        W71767   0.951  44.464   2.831
12023W        W71768   5.869   4.708   0.800
12024W        W71769  43.962   3.790   0.416
12025W        W71770  24.161  15.134  10.056
12026W        W71771  33.582  14.691   3.740
12027W        W71772  13.176  40.468  14.474
12028W        W71773   9.189  40.387   4.786
12029W        W71774  13.776   7.318   3.318
12030W        W71775  16.732  17.677  12.824
12031W        W71776  13.349  24.580   2.756
12032W        W71777  24.132  43.974   2.671
12033W        W71778  12.756  24.124  13.322
12034W        W71779   0.886   8.389   0.917
12035W        W71780  34.432  29.638   2.893
12036W        W71781  15.676  16.238   3.226
12037W        W71782  28.530  40.351  13.330
12038W        W71783  43.504  13.236  13.928
12039W        W71784  24.588  32.443  12.826
12040W        W71785   2.332   7.391  10.997
12041W        W71786  16.121   4.337   3.697
12042W        W71787  33.089  44.419  13.415
12043W        W71788  25.503  24.153  14.888
12044W        W71789  44.458  41.516   0.748
12045W        W71790   7.829  17.159   5.286
12046W        W71791  41.391  17.716  11.516
12047W        W71792  24.502  26.970   2.868
12048W        W71793   5.339   7.340   3.716
12049W        W71794  40.415  12.183   0.819
12050W        W71795   9.673  42.361   0.429
12051W        W71796  21.252  32.463  13.840
12052W        W71797   2.454  27.057  14.481
12053W        W71798  12.223  38.376   3.163
12054W        W71799   1.327  12.636   0.368
12055W        W71800  26.020  27.081  14.890
12056W        W71801  43.451  36.987   5.722
12057W        W71802  26.469  32.467  14.302
12058W        W71803   2.292  18.120   3.716
12059W        W71804   5.846  27.586   0.777
12060W        W71805   1.420   7.286  11.942
12061W        W71806  26.507  17.595  12.028
12062W        W71807  16.248  26.070   2.289
12063W        W71808  36.082  14.644   1.768
12064W        W71809  16.684  14.280   4.339
12065W        W71810  16.080  15.798   0.930
12066W        W71811   9.747  22.224   1.710
12067W        W71812  21.182  21.127   4.263
12068W        W71813  29.581  21.644  12.886
12069W        W71814  41.322   3.944   3.766
12070W        W71815  15.232  39.941   0.312
12071W        W71816  15.109  43.938  14.030
12072W        W71817   8.338  36.555  10.533
12073W        W71818  36.972  35.521   0.821
12074W        W71819  15.701  38.870   2.305
12075W        W71820  39.025  19.114   1.327
12076W        W71821  41.041  41.953   4.330
12077W        W71822  18.620  19.191  11.943
12078W        W71823   0.866  44.357  10.462
12079W        W71824  41.457  14.762   4.258
12080W        W71825  42.836  25.676   1.259
12081W        W71826  15.306   3.826  11.077
12082W        W71827  44.449  18.284   5.148
12083W        W71828  31.473   6.879  11.977
12084W        W71829  35.950  43.516   0.455
12085W        W71830  20.038   6.408  13.525
12086W        W71831  16.285  21.639   4.793
12087W        W71832   3.406   3.245  10.929
12088W        W71833  29.089  36.541   4.657
12089W        W71834  28.019  25.539  12.402
12090W        W71835   1.294  25.510   0.772
12091W        W71836  33.499  12.144  11.011
12092W        W71837  33.411  10.248  12.076
12093W        W71838   6.189  25.181  13.958
12094W        W71839  41.432   1.344  11.004
12095W        W71840   5.890  28.105   1.362
12096W        W71841  40.909  21.678   3.814
12097W        W71842  25.115  35.439   2.890
12098W        W71843  42.458  30.568  12.999
12099W        W71844  24.530  18.693   5.778
12100W        W71845  38.914   8.882   2.274
12101W        W71846  14.648  29.542  10.436
12102W        W71847   0.388  20.745  13.971
12103W        W71848  22.598  27.535  10.489
12104W        W71849   5.696  28.137   2.397
12105W        W71850   3.376  25.528  14.952
12106W        W71851  16.257  14.117   5.127
12107W        W71852  13.191   6.818  13.436
12108W        W71853  12.320  20.267   4.293
12109W        W71854  34.455  37.060   1.871
12110W        W71855  20.269  35.905  13.321
12111W        W71856   4.223   1.821  14.939
12112W        W71857  13.145  42.953  11.460
12113W        W71858  37.562  29.006   0.822
12114W        W71859  31.141  31.052   2.753
12115W        W71860  10.690   7.705  12.955
12116W        W71861  12.141  22.060  14.316
12117W        W71862  43.443  18.558   1.302
12118W        W71863   1.454  32.138  10.133
12119W        W71864  33.418  25.655   2.668
12120W        W71865  22.701  31.020  12.002
12121W        W71866   8.364  12.257  13.941
12122W        W71867  20.628  39.317   0.401
12123W        W71868  41.300  41.381  12.868
12124W        W71869  32.431  17.276   3.311
12125W        W71870  37.451  19.771   3.704
12126W        W71871  44.283   3.432   0.465
12127W        W71872   8.781  32.027  12.892
12128W        W71873  12.838  15.115  11.537
12129W        W71874   4.381  21.589  13.846
12130W        W71875  29.578  12.838  13.815
12131W        W71876  14.747  27.550  12.549
12132W        W71877  44.259  44.378  10.551
12133W        W71878  40.797  34.082  12.981
12134W        W71879  36.008  21.584   3.821
12135W        W71880   3.716  35.870  12.356
12136W        W71881  25.574  24.587   1.935
12137W        W71882  11.156  34.876  10.106
12138W        W71883   1.395  14.239  10.908
12139W        W71884   6.297  11.179   0.895
12140W        W71885   5.827   1.299   2.244
12141W        W71886  27.586  32.114   3.146
12142W        W71887  31.417  11.789  14.765
12143W        W71888  17.102   6.422   1.435
12144W        W71889  15.152  44.456   4.689
12145W        W71890  12.628  37.349   1.291
12146W        W71891  30.015  13.691  12.472
12147W        W71892  41.380  44.901   4.295
12148W        W71893   1.393  24.562   1.872
12149W        W71894  13.185  39.003   4.124
12150W        W71895  27.963  21.527   0.243
12151W        W71896  23.671  18.710   2.328
12152W        W71897   6.797   5.288  12.386
12153W        W71898  34.399  27.123   1.221
12154W        W71899   0.927  22.125  13.042
12155W        W71900  11.818  12.179  13.878
12156W        W71901  43.406  24.166   3.301
12157W        W71902  40.468  43.458  13.982
12158W        W71903  36.430  44.964   1.220
12159W        W71904  35.106  25.085   4.634
12160W        W71905  34.936  22.739  13.309
12161W        W71906   0.287  25.005   0.290
12162W        W71907  16.591  21.572   0.856
12163W        W71908  44.468  44.929  10.937
12164W        W71909  27.641   1.859   4.647
12165W        W71910  16.683  12.711   2.283
12166W        W71911  43.952  32.944   3.796
12167W        W71912  24.698  11.129  14.294
12168W        W71913  41.486  44.967  14.508
12169W        W71914  39.443  35.974   2.414
12170W        W71915  36.452  20.174   1.776
12171W        W71916  44.979  19.609   3.282
12172W        W71917   2.236  28.117   2.866
12173W        W71918  23.000  23.990  13.474
12174W        W71919   2.273  12.355  14.284
12175W        W71920  14.688  15.690   0.333
12176W        W71921  14.095  29.983   4.709
12177W        W71922  36.400  34.492  13.980
12178W        W71923  43.967  42.426   0.848
12179W        W71924  35.504  40.959   1.357
12180W        W71925  11.194   7.771   4.158
12181W        W71926   6.701  11.139  13.866
12182W        W71927  31.639  23.586   4.332
12183W        W71928  25.577  42.299  10.504
12184W        W71929  12.253  26.515  11.945
12185W        W71930  13.826  23.015   0.446
12186W        W71931  16.313  21.555  11.520
12187W        W71932  14.242   9.832  10.537
12188W        W71933  18.086   1.426   3.153
12189W        W71934  28.995  29.132  11.871
12190W        W71935  20.657  44.000  13.049
12191W        W71936   1.478  40.814   2.215
12192W        W71937  28.018   7.267   2.672
12193W        W71938   9.295  41.369  10.523
12194W        W71939   2.258  42.415   4.701
12195W        W71940  43.461   8.878  14.007
12196W        W71941  28.037  20.642  13.434
12197W        W71942  17.067  10.687   0.385
12198W        W71943  39.998   4.353  13.342
12199W        W71944  26.180  16.806   1.211
12200W        W71945  44.332  34.504  13.054
12201W        W71946   5.712  12.202  13.512
12202W        W71947  14.305   9.303  14.889
12203W        W71948   2.729  31.505  14.969
12204W        W71949  22.702   1.264  11.942
12205W        W71950  32.543  24.056  11.114
12206W        W71951  39.969   7.815  12.868
12207W        W71952  27.651  22.521  12.967
12208W        W71953   6.390  39.548   1.875
12209W        W71954   5.226  38.494   4.597
12210W        W71955  36.458  16.751   2.374
12211W        W71956  38.500  27.685  10.477
12212W        W71957  40.954   5.218   0.406
12213W        W71958  42.470  15.792  14.903
12214W        W71959  18.287  36.399  13.057
12215W        W71960   9.832  38.326   3.870
12216W        W71961  35.959  38.045   0.891
12217W        W71962  17.155  10.721   4.202
12218W        W71963  26.474  40.465  13.484
12219W        W71964  11.363  30.991   2.381
12220W        W71965  38.954  18.755   2.381
12221W        W71966  24.720   5.347  14.399
12222W        W71967  41.876  41.537  11.996
12223W        W71968  17.219   4.739   5.258
12224W        W71969  25.474  21.661  12.075
12225W        W71970  11.783   9.220   4.780
12226W        W71971  30.499   5.284   2.810
12227W        W71972  38.065  29.451   4.648
12228W        W71973  14.337  28.473  12.528
12229W        W71974   3.850  10.195   2.802
12230W        W71975   8.710  35.548  11.429
12231W        W71976  43.438  17.648  12.934
12232W        W71977  40.308  20.066   1.293
12233W        W71978  20.257  33.577  10.974
12234W        W71979   1.827  41.432   0.745
12235W        W71980  25.663  34.610   1.779
12236W        W71981  24.030   0.818   4.630
12237W        W71982  33.074  20.663   1.896
12238W        W71983  36.512  24.993   1.812
12239W        W71984  23.730  15.101  14.857
12240W        W71985   4.306  18.198  13.039
12241W        W71986  22.694   4.794   0.885
12242W        W71987  19.637  19.771   4.809
12243W        W71988  42.924   9.363   3.210
12244W        W71989   2.471  41.423  13.961
12245W        W71990   1.821  10.859  13.527
12246W        W71991  18.155  30.596   1.255
12247W        W71992   3.279  21.023  13.878
12248W        W71993  19.080  20.040   2.364
12249W        W71994   0.292  44.413  14.781
12250W        W71995   6.733  16.191   1.927
12251W        W71996  30.577  40.049  12.551
12252W        W71997  36.562  19.554  12.883
12253W        W71998  36.414  35.394  13.800
12254W        W71999  35.946   9.688  11.937
12255W        W72000  12.627   0.371  13.524
12256W        W72001  29.521   3.258  14.800
12257W        W72002  24.084  38.865  12.001
12258W        W72003  37.929  24.583  14.884
12259W        W72004  24.482  44.984  12.034
12260W        W72005  18.079  21.538  10.938
12261W        W72006  29.638  14.625  11.053
12262W        W72007  19.728   5.275  12.362
12263W        W72008   3.907  30.449  12.829
12264W        W72009  32.620  14.119   2.270
12265W        W72010  25.472  27.183   3.871
12266W        W72011  15.712  10.311  11.421
12267W        W72012  38.926  30.979  13.463
12268W        W72013   8.897  16.116   3.629
12269W        W72014  36.388  29.049   3.843
12270W        W72015  28.625  33.421  10.437
12271W        W72016   7.356   0.760  14.829
12272W        W72017  24.557  29.024   4.221
12273W        W72018  19.584  40.003  13.358
12274W        W72019  28.599  12.800   1.337
12275W        W72020  17.294   9.222   3.848
12276W        W72021  20.211   2.367  12.920
12277W        W72022  37.928  35.452  10.510
12278W        W72023  41.879  18.595  13.886
12279W        W72024  21.745  29.976  14.811
12280W        W72025  12.217   9.888   4.634
12281W        W72026  30.971  40.944  14.770
12282W        W72027   7.200  15.161   2.324
12283W        W72028  29.139  32.466   5.107
12284W        W72029  43.393  33.495   0.287
12285W        W72030   3.416  12.616  12.069
12286W        W72031  43.764  13.179   4.196
12287W        W72032  10.836  13.604  11.513
12288W        W72033  19.718  15.225  10.055
12289W        W72034  33.506   0.959  10.485
12290W        W72035  22.090   2.330  13.325
12291W        W72036   6.371   8.777   2.705
12292W        W72037   0.863  32.093  11.993
12293W        W72038   4.857  18.592   2.362
12294W        W72039  18.185  37.049   4.132
12295W        W72040  25.044   0.853  14.432
12296W        W72041  36.942  25.661   2.740
12297W        W72042  17.294  43.499   2.767
12298W        W72043  33.888  17.723   1.393
12299W        W72044  32.469   7.315   3.673
12300W        W72045   2.340  35.574   1.268
12301W        W72046   3.420  44.474  11.533
12302W        W72047   2.880  22.557   2.894
12303W        W72048   1.258  39.379  10.972
12304W        W72049   3.834  25.120  12.952
12305W        W72050  35.576  39.038  13.046
12306W        W72051  20.594   0.930   2.743
12307W        W72052   5.381  36.934  14.287
12308W        W72053  23.734   3.345  13.962
12309W        W72054  40.896  30.521   3.808
12310W        W72055   1.448  34.468  11.862
12311W        W72056   0.908  41.806  14.496
12312W        W72057  29.174  30.419  14.320
12313W        W72058  16.082  36.965   1.827
12314W        W72059  10.695  15.606  11.924
12315W        W72060  33.035  35.895  13.528
12316W        W72061  43.427  33.894  13.544
12317W        W72062  27.647  31.974  10.539
12318W        W72063   4.373   4.204   3.683
12319W        W72064  33.529  25.979   0.250
12320W        W72065  11.811   5.793   0.783
12321W        W72066  41.823  21.250   1.289
12322W        W72067  25.160  35.860   3.771
12323W        W72068   3.737   7.856   1.347
12324W        W72069  34.028  14.793  10.979
12325W        W72070  17.249  33.599  13.327
12326W        W72071  30.520  37.879   3.800
12327W        W72072   4.269  18.134   3.790
12328W        W72073  22.065  31.637   1.249
12329W        W72074  28.557   6.419   3.258
12330W        W72075  14.171   3.398  10.636
12331W        W72076  10.825   7.860  12.474
12332W        W72077  30.643   5.222  12.880
12333W        W72078  38.021  29.470  11.072
12334W        W72079  29.924  36.558   3.762
12335W        W72080  19.661  27.045   4.202
12336W        W72081  31.613  32.413  10.493
12337W        W72082  16.716  18.227  11.448
12338W        W72083  10.177  37.410   1.705
12339W        W72084  44.295   7.365   2.817
12340W        W72085  42.359  38.531  14.410
12341W        W72086  14.133  11.653   1.415
12342W        W72087  17.586  10.789  13.806
12343W        W72088  18.057  35.052   0.275
12344W        W72089  26.470  34.437  12.010
12345W        W72090  24.582  13.674   2.781
12346W        W72091  22.633  43.377   0.427
12347W        W72092  38.343  11.305   1.907
12348W        W72093  30.067  26.569  12.901
12349W        W72094  16.721  44.425  11.456
12350W        W72095  44.278  39.354  11.521
12351W        W72096  22.512  27.534  14.278
12352W        W72097  35.527   5.898  11.013
12353W        W72098  27.172  31.120   0.874
12354W        W72099  13.837  10.787   1.929
12355W        W72100   7.217  42.945  11.957
12356W        W72101  41.967   7.374   3.171
12357W        W72102  30.496  16.300   4.735
12358W        W72103  43.407  24.161  12.360
12359W        W72104   9.872  21.053  10.960
12360W        W72105   1.269  24.583   3.366
12361W        W72106  41.796  25.700  11.612
12362W        W72107  34.427  33.577  14.495
12363W        W72108  32.570  31.959  14.883
12364W        W72109  18.127  16.593   2.284
12365W        W72110  13.617  17.789   1.250
12366W        W72111  32.397  12.308   2.320
12367W        W72112  11.622  34.380   0.293
12368W        W72113  11.213   2.949  10.907
12369W        W72114  37.902  34.905  12.857
12370W        W72115  32.933  30.555   4.300
12371W        W72116  38.868   1.430  11.454
12372W        W72117   1.245   4.335  11.928
12373W        W72118  16.570   4.221   3.330
12374W        W72119   9.668   2.823   0.358
12375W        W72120   5.209  29.590   2.770
12376W        W72121  14.256  21.614  10.920
12377W        W72122  22.125   8.788   1.343
12378W        W72123  17.671  36.980   5.262
12379W        W72124  37.890  32.499  12.470
12380W        W72125  15.688   7.762  14.503
12381W        W72126  27.452   0.456   0.330
12382W        W72127  11.308  16.291   3.251
12383W        W72128   2.376   7.226   2.225
12384W        W72129  25.059  36.531  14.313
12385W        W72130  24.017  22.028  14.790
12386W        W72131  42.299   2.280  14.862
12387W        W72132  13.722  17.581   4.195
12388W        W72133  10.292  24.638  10.973
12389W        W72134  31.460  24.631   1.394
12390W        W72135  21.650  29.012  13.842
12391W        W72136   4.373  19.648  12.934
12392W        W72137  35.055  43.315   2.756
12393W        W72138  13.766  14.790  13.019
12394W        W72139  24.985  23.225   4.682
12395W        W72140  44.965  12.692   4.121
12396W        W72141  15.282  41.324   0.846
12397W        W72142  13.251  31.584  13.412
12398W        W72143  22.218  26.159   3.384
12399W        W72144  10.693  24.100   4.270
12400W        W72145  37.446  26.031  11.552
12401W        W72146  38.540   0.256  12.413
12402W        W72147  41.033  44.788  14.946
12403W        W72148  40.900  13.762   1.257
12404W        W72149   0.934  18.295  14.921
12405W        W72150  31.468   7.363   0.417
12406W        W72151  27.563  22.159  13.989
12407W        W72152  16.586   1.853   4.737
12408W        W72153  21.662   2.395   0.731
12409W        W72154  37.877  32.632   1.835
12410W        W72155  20.650  44.294   2.233
12411W        W72156  18.618  38.883   4.321
12412W        W72157  14.718  39.409   2.883
12413W        W72158  12.800  14.736   0.863
12414W        W72159  24.077   2.900  14.370
12415W        W72160  11.344   5.328  12.023
12416W        W72161  28.042  16.119  14.907
12417W        W72162  33.947   5.396   5.742
12418W        W72163  16.696  28.491  13.484
12419W        W72164   5.342  33.058   1.327
12420W        W72165  24.059  21.690  14.475
12421W        W72166  24.567  23.223  13.827
12422W        W72167  25.030   1.405   5.693
12423W        W72168   3.794  34.984  13.009
12424W        W72169  19.053  40.548  12.039
12425W        W72170  20.606  25.599   2.666
12426W        W72171  14.108  27.622   0.249
12427W        W72172  19.636  27.607   4.190
12428W        W72173  16.679  38.822  13.530
12429W        W72174  17.139  41.433  12.913
12430W        W72175  25.101  23.725  14.292
12431W        W72176  30.041  31.515   3.826
12432W        W72177  19.208   0.885  10.931
12433W        W72178   4.819  18.552  13.863
12434W        W72179  16.603  44.903  12.090
12435W        W72180  33.453   8.211   4.318
12436W        W72181   1.917   6.814  13.350
12437W        W72182   0.884  27.487   4.286
12438W        W72183  34.904  40.415  13.361
12439W        W72184  13.182  11.257  10.570
12440W        W72185   4.205  11.247  12.059
12441W        W72186  13.259  30.014  14.315
12442W        W72187  12.320  44.330   2.181
12443W        W72188  14.786  43.958  12.077
12444W        W72189  25.084  18.781  12.875
12445W        W72190  35.377  36.439  13.522
12446W        W72191  24.520  34.954  11.419
12447W        W72192  17.081   0.860   4.767
12448W        W72193  15.264   6.790  11.008
12449W        W72194  31.613  38.363  14.848
12450W        W72195  23.501  31.504   0.790
12451W        W72196  11.326   6.766  10.554
12452W        W72197  42.446  37.067  12.093
12453W        W72198  31.565  23.117  10.641
12454W        W72199   6.921  35.491   2.761
12455W        W72200  16.135   7.298  14.860
12456W        W72201  19.582  41.429  10.499
12457W        W72202   3.259  41.801  11.015
12458W        W72203  22.171  16.583   3.783
12459W        W72204  17.127  33.396   0.300
12460W        W72205  18.626   7.215   3.849
12461W        W72206  34.058   2.838  11.081
12462W        W72207  14.304  15.185   3.783
12463W        W72208   8.741  15.708   0.852
12464W        W72209  36.448  10.216  10.426
12465W        W72210  13.253  13.148  10.430
12466W        W72211   2.304   9.686   1.225
12467W        W72212  16.278  28.444  14.445
12468W        W72213  24.137  13.228   0.425
12469W        W72214  25.689   8.716   0.259
12470W        W72215   4.221  35.368   2.748
12471W        W72216  14.201  10.680   2.703
12472W        W72217  14.608   7.828   2.410
12473W        W72218   8.866  21.178   4.782
12474W        W72219  39.316   5.248   0.957
12475W        W72220  18.670  30.962   1.212
12476W        W72221  41.035  44.767   2.242
12477W        W72222   5.776  15.112   4.210
12478W        W72223  19.185   1.973   2.767
12479W        W72224  42.920  15.716  14.385
12480W        W72225  39.340  25.981  10.960
12481W        W72226  24.597  37.370   3.674
12482W        W72227   4.936   6.351   4.693
12483W        W72228  39.050   5.367  11.088
12484W        W72229   1.350   0.301  11.543
12485W        W72230  25.664  37.433  11.395
12486W        W72231  35.452   9.749  14.005
12487W        W72232  35.563  30.974  14.283
12488W        W72233  35.971  26.654   1.846
12489W        W72234  32.941   9.838   2.791
12490W        W72235  34.556  39.527   3.155
12491W        W72236  37.864  38.972  11.899
12492W        W72237  38.924  33.085   0.893
12493W        W72238  41.333  27.622   2.384
12494W        W72239  24.122  40.481  10.555
12495W        W72240  16.666  36.074   0.847
12496W        W72241  32.955   7.708   0.261
12497W        W72242  24.185  39.348  12.570
12498W        W72243  30.020   1.347   0.833
12499W        W72244  37.358  42.311  14.931
12500W        W72245  39.820   1.360   1.843
12501W        W72246  12.834  42.435   0.912
12502W        W72247   3.890  30.605   5.134
12503W        W72248  33.576  41.462  10.412
12504W        W72249  42.497  39.985   4.635
12505W        W72250   5.838  16.122  14.354
12506W        W72251  34.533  15.127   2.688
12507W        W72252  16.619  34.392  11.604
12508W        W72253  22.674  32.475  13.347
12509W        W72254   5.369  38.076  11.953
12510W        W72255  39.936  37.359   1.924
12511W        W72256  12.841   7.403   2.345
12512W        W72257  44.914  30.523   2.888
12513W        W72258  27.145  20.695  14.425
12514W        W72259  32.468  10.657   3.355
12515W        W72260  26.049  44.758   3.154
12516W        W72261  42.922  42.382   2.899
12517W        W72262  22.199  21.029   5.172
12518W        W72263   2.318   2.828  14.771
12519W        W72264  28.116  43.852  13.437
12520W        W72265   8.886  43.884   4.298
12521W        W72266  30.053  20.689   1.236
12522W        W72267   4.729  35.003  13.517
12523W        W72268  34.865  21.601  11.986
12524W        W72269  22.706   9.302   1.373
12525W        W72270  43.896  13.843  12.893
12526W        W72271   1.481  15.822  10.022
12527W        W72272   7.220  13.774  12.382
12528W        W72273  34.065  25.527  14.511
12529W        W72274   3.896   7.363  12.544
12530W        W72275  37.957   3.732   0.766
12531W        W72276   9.708  25.049  12.369
12532W        W72277  33.061   6.898   2.370
12533W        W72278  27.660   1.830   0.314
12534W        W72279  21.211  19.213   4.832
12535W        W72280  25.013   8.188  13.534
12536W        W72281  12.669  16.092  11.394
12537W        W72282  19.114  36.865  11.482
12538W        W72283  42.356   2.727  14.819
12539W        W72284   9.351  28.595  11.417
12540W        W72285  13.638  33.892   3.813
12541W        W72286  41.009   5.923   4.775
12542W        W72287   6.687  15.109  12.491
12543W        W72288  43.999  33.894   0.267
12544W        W72289  36.090  25.178  10.619
12545W        W72290  20.588  39.050   1.276
12546W        W72291  18.727  32.940  14.491
12547W        W72292   9.149  23.099   1.354
12548W        W72293  17.177  33.113   4.757
12549W        W72294   9.661  22.597   1.859
12550W        W72295  27.524   8.716   3.720
12551W        W72296  26.624  17.231   3.152
12552W        W72297  38.489  24.536  14.368
12553W        W72298  27.637  27.127  12.898
12554W        W72299  36.477  18.207  14.023
12555W        W72300  40.820  16.148   3.755
12556W        W72301  16.189  37.856  14.921
12557W        W72302  38.351  16.193   4.306
12558W        W72303  21.109   2.358   1.377
12559W        W72304  25.479  15.300   4.714
12560W        W72305  15.289  17.676   0.836
12561W        W72306  26.622  22.562   1.344
12562W        W72307  30.996   2.963   2.804
12563W        W72308  24.624  17.066   2.383
12564W        W72309  25.032  19.631   0.959
12565W        W72310  16.210   9.677   1.417
12566W        W72311  22.155   3.366  13.003
12567W        W72312  39.961  10.651   1.792
12568W        W72313  24.122  36.374  11.864
12569W        W72314  22.206  23.668   1.775
12570W        W72315  39.552  24.004   1.416
12571W        W72316  10.147  11.752   2.216
12572W        W72317  41.893  36.042  12.877
12573W        W72318   4.370   6.899   1.371
12574W        W72319   0.313   4.895  13.476
12575W        W72320  43.421   7.804   4.203
12576W        W72321   6.400  28.089   1.757
12577W        W72322  32.519  13.686  13.046
12578W        W72323  31.066  36.578   0.398
12579W        W72324  42.900  25.193   4.790
12580W        W72325  12.317  12.851  11.946
12581W        W72326   5.852   3.322  10.439
12582W        W72327  27.081  21.148   2.896
12583W        W72328  38.974  33.951   2.181
12584W        W72329  14.671  39.365  12.555
12585W        W72330  19.753  16.570   1.867
12586W        W72331  11.634   9.646   2.889
12587W        W72332   8.795   3.838   1.252
12588W        W72333  20.203  14.823  11.961
12589W        W72334  35.997  18.074  12.052
12590W        W72335  40.799  34.599   2.816
12591W        W72336   6.897  24.995   0.891
12592W        W72337  11.850  33.918   2.884
12593W        W72338  31.073  23.200   1.419
12594W        W72339  37.345  38.879   2.884
12595W        W72340  22.696  37.865  13.954
12596W        W72341   8.851  10.714  13.828
12597W        W72342   4.433  14.796   0.896
12598W        W72343   2.360   0.316   1.826
12599W        W72344  15.608   0.290   1.240
12600W        W72345  29.515  12.840  11.052
12601W        W72346  14.760  40.483  13.791
12602W        W72347  16.615  28.589   1.288
12603W        W72348  13.808  33.504  11.067
12604W        W72349  36.090  15.088  12.020
12605W        W72350  21.031  40.946  11.963
12606W        W72351  26.516  20.145   0.827
12607W        W72352   4.884  41.296  12.908
12608W        W72353  18.672   1.387  14.343
12609W        W72354  20.221   5.201   0.462
12610W        W72355  18.716  24.227  11.989
12611W        W72356  19.729  28.440   0.309
12612W        W72357  10.737  36.576   0.767
12613W        W72358  18.192   7.256  14.428
12614W        W72359   0.859  43.962  13.030
12615W        W72360  19.139  28.151   0.260
12616W        W72361  14.743  32.088   3.336
12617W        W72362   5.798  39.512   2.898
12618W        W72363  30.631  34.906  11.564
12619W        W72364  17.304   0.758  10.058
12620W        W72365  27.538  42.949  11.115
12621W        W72366  40.044  24.488   0.827
12622W        W72367   1.831   7.825  13.041
12623W        W72368   5.363  13.168  13.842
12624W        W72369  33.570  11.177  13.432
12625W        W72370  22.572   9.313   1.811
12626W        W72371  36.391  27.450   1.883
12627W        W72372  44.792  18.080  13.543
12628W        W72373   6.419  40.925  13.493
12629W        W72374  22.034  25.568  14.465
12630W        W72375  35.434  24.125  12.894
12631W        W72376   4.393  35.032   4.773
12632W        W72377  19.191  20.716   0.849
12633W        W72378  14.259  20.678  13.871
12634W        W72379  41.317  15.742   4.176
12635W        W72380  30.073  15.292   0.351
12636W        W72381  37.478  12.763  13.800
12637W        W72382  39.344  43.409   4.335
12638W        W72383  23.727   7.288   3.387
12639W        W72384   4.772  22.245  13.541
12640W        W72385  33.545  15.317   0.438
12641W        W72386  26.658  36.893   4.351
12642W        W72387  12.703   4.921  13.019
12643W        W72388  14.645  17.796  14.925
12644W        W72389  10.379   6.229  12.373
12645W        W72390   9.701  30.544   0.293
12646W        W72391  38.006   5.744  12.847
12647W        W72392  37.967  34.539   4.148
12648W        W72393  10.344  22.710   0.378
12649W        W72394   3.353  19.746   1.934
12650W        W72395  21.161   1.951   3.271
12651W        W72396  23.131  40.818   1.235
12652W        W72397  40.040  35.998   1.445
12653W        W72398  36.893  41.928  13.318
12654W        W72399  39.808   4.395  12.017
12655W        W72400  12.748  37.553   4.255
12656W        W72401  39.386   5.710  14.436
12657W        W72402  43.393   3.396   2.840
12658W        W72403  18.766   9.272  10.590
12659W        W72404  11.700  30.561  13.930
12660W        W72405  30.018  42.919  11.927
12661W        W72406  30.544  23.521   1.265
12662W        W72407  14.104  44.901  11.559
12663W        W72408  44.974   5.732  14.333
12664W        W72409  29.158   5.786   4.838
12665W        W72410  40.863  24.988   1.767
12666W        W72411  26.077   2.885   4.350
12667W        W72412   6.798  16.719  10.439
12668W        W72413   8.387   7.202  14.359
12669W        W72414  26.462  19.712   3.350
12670W        W72415  17.666  18.693  14.505
12671W        W72416  17.105  26.522  11.511
12672W        W72417  17.767  39.320  14.278
12673W        W72418  20.272   0.827  10.103
12674W        W72419  27.135  16.256   0.275
12675W        W72420  11.770  26.077  13.500
12676W        W72421   3.746  43.943  14.413
12677W        W72422  31.941  37.025  13.531
12678W        W72423   9.765  28.114  14.453
12679W        W72424  41.338   4.810   3.710
12680W        W72425  16.670  20.553   4.118
12681W        W72426   5.217  18.746   1.335
12682W        W72427  44.422  39.814   3.694
12683W        W72428  35.429   9.835  13.335
12684W        W72429  11.252  41.355  10.526
12685W        W72430  11.317   0.306  13.919
12686W        W72431  32.390   6.306   4.742
12687W        W72432  24.061  41.856   0.273
12688W        W72433  44.274   0.877  11.125
12689W        W72434  20.758   3.877  14.341
12690W        W72435  23.056  33.874   0.907
12691W        W72436  41.821  23.606   1.721
12692W        W72437  13.351   4.216   1.295
12693W        W72438  26.480  38.053  10.443
12694W        W72439  34.434  19.184  14.876
12695W        W72440  15.801  34.886  10.571
12696W        W72441  23.093  25.146  14.844
12697W        W72442  37.466  29.473   5.233
12698W        W72443   9.758  28.957  11.441
12699W        W72444  16.088  42.815   2.731
12700W        W72445   1.282   3.867  10.620
12701W        W72446  27.684   9.302   0.423
12702W        W72447  19.166  15.639  14.017
12703W        W72448  18.140  44.771   1.217
12704W        W72449  37.347  43.946   0.315
12705W        W72450  42.411  27.941   1.779
12706W        W72451  30.163  41.316   4.791
12707W        W72452  10.215  25.145  14.780
12708W        W72453  38.426  42.820  11.438
12709W        W72454  11.352  42.483   1.310
12710W        W72455  29.579  30.601  13.863
12711W        W72456  11.796  20.590   3.182
12712W        W72457  33.878  16.239   2.759
12713W        W72458  11.861   4.864   3.721
12714W        W72459  24.197  43.387   4.833
12715W        W72460  23.499  19.675   1.297
12716W        W72461  37.945   5.743  14.444
12717W        W72462   4.212  25.991   0.261
12718W        W72463  21.242  31.105   5.670
12719W        W72464   4.748  42.917  11.566
12720W        W72465   2.860  27.052   4.761
12721W        W72466  13.700  43.303   0.421
12722W        W72467  42.501  30.541   3.675
12723W        W72468   2.747  30.446   5.294
12724W        W72469  35.385  31.103   1.762
12725W        W72470   0.300   7.781   3.213
12726W        W72471   4.327  35.473  11.601
12727W        W72472  43.897  17.800  13.441
12728W        W72473   1.432  11.818  10.459
12729W        W72474  16.612  32.097  14.766
12730W        W72475  26.997  31.066   3.373
12731W        W72476  16.201  31.126   3.188
12732W        W72477  37.551  42.379   1.334
12733W        W72478  20.057   8.842  12.923
12734W        W72479  17.598  44.277  13.460
12735W        W72480  36.985   6.753  11.045
12736W        W72481  10.725  11.622  11.490
12737W        W72482  39.483  15.299  13.816
12738W        W72483  35.064  17.661   1.802
12739W        W72484  22.630  41.892   0.827
12740W        W72485  23.191  36.008  10.618
12741W        W72486  21.027  12.625  13.792
12742W        W72487   7.712  21.616   3.168
12743W        W72488  34.949  39.913  11.578
12744W        W72489   0.983  36.538   9.933
12745W        W72490   3.444   2.920  14.004
12746W        W72491  15.616   9.386  14.323
12747W        W72492  19.747  18.622   5.272
12748W        W72493   1.821  15.667  13.028
12749W        W72494  30.014  14.337   1.217
12750W        W72495  39.507  24.015   3.282
12751W        W72496  31.913  11.253   0.936
12752W        W72497  13.163   9.174  11.495
12753W        W72498  18.171  38.893   2.399
12754W        W72499  32.076   8.340   1.381
12755W        W72500  13.293  15.615   0.472
12756W        W72501  27.044  13.720  11.054
12757W        W72502  11.747  29.059  13.479
12758W        W72503  27.689   8.225   1.267
12759W        W72504  24.645  16.251   4.645
12760W        W72505  30.651   1.947  10.119
12761W        W72506  29.070   2.839   4.799
12762W        W72507   3.864  11.338  14.342
12763W        W72508  38.853   6.384  14.406
12764W        W72509  29.114   2.421  12.387
12765W        W72510   6.845  18.183  11.023
12766W        W72511  39.995   8.719  12.506
12767W        W72512  37.358  17.258   5.212
12768W        W72513   3.860  12.771   2.885
12769W        W72514   6.813  10.180  10.946
12770W        W72515  42.948  35.961  14.313
12771W        W72516   1.758  12.263  11.012
12772W        W72517  35.074  40.475   3.227
12773W        W72518  41.493  34.527  10.564
12774W        W72519   2.252  35.540  13.524
12775W        W72520  14.801  34.084  12.826
12776W        W72521  12.757  29.074   4.238
12777W        W72522   8.347  38.546  13.494
12778W        W72523  40.918  11.340  13.022
12779W        W72524  19.272   9.825  12.917
12780W        W72525   1.389  15.159  12.973
12781W        W72526   2.274  26.113  11.977
12782W        W72527  26.621  32.143   1.324
12783W        W72528  17.135  38.483  11.023
12784W        W72529  25.504   6.240  10.964
12785W        W72530   0.916  27.535  14.814
12786W        W72531  44.320  39.923  11.085
12787W        W72532  23.631  10.678  14.841
12788W        W72533  23.648  38.930  14.493
12789W        W72534  28.594  33.526   0.874
12790W        W72535  42.396   8.292  12.823
12791W        W72536  30.528  34.074   0.481
12792W        W72537  36.965  38.832  14.488
12793W        W72538   5.734  33.952   1.920
12794W        W72539  35.565  18.558   1.323
12795W        W72540  23.996  37.451   1.415
12796W        W72541  30.092  23.108   3.251
12797W        W72542  11.712  44.988  12.477
12798W        W72543   6.819  29.599   2.676
12799W        W72544  16.804  18.783   2.760
12800W        W72545  17.106  14.102  14.924
12801W        W72546  29.602  16.104   1.861
12802W        W72547  30.096  11.786   1.345
12803W        W72548   6.836   1.763   1.902
12804W        W72549  25.174   8.869  10.474
12805W        W72550  44.935  39.956  14.277
12806W        W72551  21.527  12.693  11.526
12807W        W72552   6.891  26.048   3.212
12808W        W72553   3.784  25.472  12.951
12809W        W72554   0.286  33.406  13.481
12810W        W72555  20.720   1.925  14.352
12811W        W72556  37.378   5.920  11.424
12812W        W72557  14.770   9.173   3.677
12813W        W72558  26.642   9.833  12.476
12814W        W72559  16.613  18.626  13.052
12815W        W72560  14.809  14.203  11.910
12816W        W72561  30.518  41.935  10.914
12817W        W72562  25.702  13.343  14.333
12818W        W72563  12.292  24.484  14.790
12819W        W72564   0.321  42.315  11.433
12820W        W72565   0.875   6.828  11.085
12821W        W72566  29.023  20.735   1.429
12822W        W72567  37.087  21.196  10.016
12823W        W72568  38.922  30.600  12.067
12824W        W72569   0.359  41.839  10.522
12825W        W72570  32.559  21.560   1.290
12826W        W72571  25.635  42.872   0.370
12827W        W72572  40.829  20.602   0.262
12828W        W72573  41.806  26.597  14.859
12829W        W72574   6.724   6.813   3.359
12830W        W72575   3.312   1.412  11.447
12831W        W72576  38.371  24.673   2.337
12832W        W72577  33.564  24.110   0.363
12833W        W72578  31.620  22.208  14.441
12834W        W72579  19.691  40.312   2.318
12835W        W72580   0.290  32.521   1.345
12836W        W72581  13.263  34.447   0.343
12837W        W72582  40.810   7.392  12.881
12838W        W72583  17.619  43.821  11.028
12839W        W72584   1.762  29.466  13.486
12840W        W72585  40.892   9.176  13.431
12841W        W72586   9.871  12.779   3.375
12842W        W72587  31.974   2.298   1.310
12843W        W72588  32.633   2.460   1.742
12844W        W72589  18.789  37.045   0.930
12845W        W72590  31.968  33.502   1.300
12846W        W72591  28.644  29.019  13.926
12847W        W72592   4.249  11.359   3.671
12848W        W72593  41.852  18.086   3.639
12849W        W72594  10.206  30.499   3.229
12850W        W72595  19.641   0.395  12.346
12851W        W72596   3.839  12.212  12.924
12852W        W72597  42.525  44.259  11.928
12853W        W72598  16.130  39.948  11.609
12854W        W72599  41.014   1.386   4.688
12855W        W72600   3.332  25.518  11.548
12856W        W72601  12.232  31.005   4.817
12857W        W72602   7.411   0.473   4.300
12858W        W72603  17.075  14.245   1.765
12859W        W72604   0.395  16.094   1.797
12860W        W72605   0.817  31.141   4.687
12861W        W72606  20.142  18.132   0.417
12862W        W72607  19.534  22.665   4.293
12863W        W72608  17.701  26.571  14.783
12864W        W72609  15.601   5.699  13.869
12865W        W72610  33.895   6.890  14.807
12866W        W72611   5.382  30.446  14.281
12867W        W72612  19.199  20.530   3.306
12868W        W72613  28.670  39.465   3.782
12869W        W72614  16.572  35.577  10.543
12870W        W72615  35.881   5.884  14.449
12871W        W72616  41.903  37.068  12.373
12872W        W72617  20.730   7.876  13.419
12873W        W72618  36.918  36.906  14.462
12874W        W72619  13.205  37.861   1.285
12875W        W72620  15.246  34.406   3.772
12876W        W72621  21.595   2.876   4.782
12877W        W72622  23.153  30.018   5.693
12878W        W72623   6.870  43.505   3.738
12879W        W72624  17.602   0.824   4.608
12880W        W72625  32.972  41.483  10.445
12881W        W72626  21.242   1.324  14.794
12882W        W72627  10.222  12.214   4.788
12883W        W72628   3.428   6.748  14.361
12884W        W72629   4.367   4.879  12.366
12885W        W72630  14.785   3.807   0.763
12886W        W72631   0.785  37.468   0.858
12887W        W72632  14.627  32.924  11.886
12888W        W72633  41.813  10.233  13.882
12889W        W72634   3.333   6.274   1.234
12890W        W72635   3.886   6.688   0.886
12891W        W72636  39.819  10.328  12.558
12892W        W72637  41.044  33.926  13.377
12893W        W72638  33.434  40.380   4.777
12894W        W72639  18.166  37.395  13.453
12895W        W72640  38.568   1.826   0.341
12896W        W72641  39.413  14.150   0.835
12897W        W72642   5.312  14.266  13.898
12898W        W72643  31.992  10.275   3.644
12899W        W72644  44.351  13.334   4.780
12900W        W72645  13.139   8.333   3.760
12901W        W72646  38.327   4.340   3.272
12902W        W72647  35.041  36.524   3.273
12903W        W72648  18.700  42.842   3.224
12904W        W72649  24.177  29.961   3.775
12905W        W72650  15.657  34.494   4.689
12906W        W72651  36.466  39.941  12.906
12907W        W72652   1.378  28.065  14.973
12908W        W72653  13.616  11.223  10.962
12909W        W72654  38.458  21.133  12.019
12910W        W72655  19.545  24.144   2.787
12911W        W72656  26.641   8.201   1.235
12912W        W72657   5.810  31.553   1.787
12913W        W72658  42.365  10.837  13.028
12914W        W72659  33.962  30.526   5.137
12915W        W72660  14.798  43.966   4.677
12916W        W72661  21.668   6.182  12.503
12917W        W72662  12.821  26.594  10.553
12918W        W72663  11.655  29.990   0.933
12919W        W72664  32.496  14.694   0.352
12920W        W72665  42.914   6.689  10.582
12921W        W72666  11.641   1.944  12.958
12922W        W72667   5.720   2.936  14.300
12923W        W72668  31.022  43.986   2.902
12924W        W72669  38.362   5.247   0.909
12925W        W72670  21.195  26.986   1.896
12926W        W72671  35.920  23.057   3.825
12927W        W72672  41.000  41.397   2.779
12928W        W72673  28.617  32.548   0.441
12929W        W72674  41.041  37.528   1.912
12930W        W72675   0.765  33.068   2.712
12931W        W72676  38.349  11.341   4.231
12932W        W72677   0.888   9.276  14.927
12933W        W72678  23.542  40.313  10.644
12934W        W72679  32.015  30.600   5.203
12935W        W72680   4.332  31.457   2.362
12936W        W72681  39.472  11.151   2.721
12937W        W72682  38.384  42.022   4.157
12938W        W72683   0.364  30.113  11.965
12939W        W72684   1.442  34.385   1.788
12940W        W72685  40.439  24.104  10.417
12941W        W72686  27.054  11.243   4.825
12942W        W72687  12.214   5.295   1.888
12943W        W72688  35.913  15.659   0.938
12944W        W72689  13.268  24.009   4.688
12945W        W72690  41.490  35.474  11.922
12946W        W72691   1.832  30.497  10.074
12947W        W72692  42.327  13.711   2.280
12948W        W72693  32.555  43.006  13.533
12949W        W72694  33.055   3.789   1.271
12950W        W72695  27.061  37.555  12.976
12951W        W72696  37.446  12.788   1.299
12952W        W72697  40.324   4.755   4.250
12953W        W72698  19.702   9.717  11.859
12954W        W72699   9.325   1.282   0.867
12955W        W72700  27.592  37.905  11.575
12956W        W72701  29.956  32.009   0.801
12957W        W72702  24.592  12.733  11.502
12958W        W72703  38.069   4.841   2.754
12959W        W72704  33.979  41.922   4.201
12960W        W72705  16.239   9.239   3.319
12961W        W72706  34.944  18.071  11.532
12962W        W72707  30.639  43.846   2.665
12963W        W72708  40.374  26.644  11.960
12964W        W72709  11.351  27.595  13.994
12965W        W72710  21.587  35.921   1.240
12966W        W72711  11.157  25.009   2.887
12967W        W72712  15.239  22.013  14.449
12968W        W72713  36.538   0.797   5.130
12969W        W72714  43.789  16.118   3.844
12970W        W72715   5.310   2.751  10.490
12971W        W72716   5.911  39.359  13.981
12972W        W72717  17.688  32.005  10.619
12973W        W72718  11.625  24.182   0.961
12974W        W72719  12.224   2.273  10.572
12975W        W72720  32.956  39.017  10.528
12976W        W72721  40.485  15.822   1.845
12977W        W72722  26.014  25.125  10.461
12978W        W72723  26.461  31.042   1.838
12979W        W72724  24.642  39.822   2.856
12980W        W72725  37.033  18.607  13.320
12981W        W72726  25.550  31.443  12.015
12982W        W72727   1.741  37.547   1.934
12983W        W72728   9.710  40.392   0.926
12984W        W72729  31.985   5.713   2.294
12985W        W72730  17.287  24.616  13.060
12986W        W72731  31.522  33.058  11.375
12987W        W72732  25.159  38.059   4.782
12988W        W72733   3.418  42.975   3.195
12989W        W72734  14.255  40.314   2.697
12990W        W72735  11.191  27.660  11.491
12991W        W72736  38.348  15.167  13.497
12992W        W72737   2.963  14.641  14.960
12993W        W72738  27.608  27.615   0.805
12994W        W72739  39.043  21.589  11.997
12995W        W72740  35.557  36.518   1.709
12996W        W72741  19.048  25.645  14.961
12997W        W72742  20.149  42.941   1.261
12998W        W72743   9.717  11.226  13.474
12999W        W72744  22.197  24.491   0.863
13000W        W72745  17.748   8.400  14.403
13001W        W72746   7.215  32.486   2.231
13002W        W72747  30.639  44.272   2.372
13003W        W72748  36.396  41.523   4.735
13004W        W72749  43.912  26.630  10.106
13005W        W72750  30.543  25.604   4.352
13006W        W72751   4.265  41.940   0.750
13007W        W72752   7.831  27.639  14.784
13008W        W72753  19.659  35.462   2.858
13009W        W72754   6.236   2.877  12.536
13010W        W72755  25.174  17.212   1.441
13011W        W72756  32.521   9.348   4.753
13012W        W72757  31.085  26.100  10.989
13013W        W72758  24.532  39.534   2.669
13014W        W72759  30.628  42.806   3.270
13015W        W72760  23.589   5.252   5.230
13016W        W72761   5.293  34.371   1.701
13017W        W72762  19.048  12.244   4.790
13018W        W72763  21.701   8.815  14.376
13019W        W72764  36.958  44.853  13.383
13020W        W72765  43.845   8.820   0.353
13021W        W72766  18.615  30.446   4.706
13022W        W72767  29.067  22.029   2.818
13023W        W72768  30.449  19.134   9.546
13024W        W72769  13.793  39.902  10.996
13025W        W72770   3.869   9.355   4.286
13026W        W72771  39.028  19.076   0.879
13027W        W72772  35.470  17.731   4.705
13028W        W72773  11.643   5.378  14.868
13029W        W72774  36.024  40.400  14.480
13030W        W72775  17.699  10.718  11.048
13031W        W72776  25.512  36.464   4.619
13032W        W72777  34.577  38.007  14.330
13033W        W72778  40.522  30.915  11.574
13034W        W72779   8.693  29.451  10.896
13035W        W72780  38.387  28.653  13.932
13036W        W72781  32.978  32.909  14.885
13037W        W72782  40.038  28.492   1.342
13038W        W72783  44.353  43.378   3.664
13039W        W72784   6.375  19.768  14.461
13040W        W72785  10.824   5.728   2.836
13041W        W72786  44.391   2.784   1.247
13042W        W72787  17.215  32.069  14.384
13043W        W72788  28.539   4.825   1.810
13044W        W72789   8.845  40.808  11.494
13045W        W72790   4.348   3.425  11.421
13046W        W72791  17.570   8.891   2.310
13047W        W72792  37.886  30.930   3.215
13048W        W72793  23.703  19.096   3.782
13049W        W72794   8.211  25.204   0.359
13050W        W72795  26.202   3.218  11.953
13051W        W72796  37.907  14.735  13.956
13052W        W72797  30.158  37.503   4.321
13053W        W72798  39.518  23.223   0.762
13054W        W72799  18.665   0.469   2.187
13055W        W72800  39.547  32.428   3.689
13056W        W72801  14.271  29.944  14.488
13057W        W72802  17.091   3.714   3.293
13058W        W72803   8.886   8.358  14.790
13059W        W72804   1.382  23.706   3.705
13060W        W72805  33.527  35.006  12.437
13061W        W72806   2.775  31.518  14.424
13062W        W72807  18.266  13.214  11.944
13063W        W72808  17.629  27.989   1.412
13064W        W72809  38.486  30.583  10.417
13065W        W72810  24.161  19.139   4.275
13066W        W72811  30.535  10.212  11.102
13067W        W72812  30.060  12.334   4.718
13068W        W72813  15.144  32.391  11.591
13069W        W72814  16.608   8.857  11.440
13070W        W72815  15.280   6.315  10.448
13071W        W72816  10.796   7.729   0.467
13072W        W72817  14.228  43.346   1.370
13073W        W72818  16.606  35.569   4.604
13074W        W72819  29.952  33.547   0.918
13075W        W72820  11.675  35.518  13.394
13076W        W72821   5.237  12.746  13.965
13077W        W72822   6.695  16.753  14.787
13078W        W72823  36.585  19.630  10.455
13079W        W72824  40.978   8.247  13.817
13080W        W72825  11.764  33.941  12.029
13081W        W72826  33.931   0.840  12.019
13082W        W72827  29.922  17.166   4.768
13083W        W72828  25.679  42.833  11.410
13084W        W72829   3.785  34.085   2.251
13085W        W72830   1.386   8.782   4.771
13086W        W72831  19.049  26.169   2.273
13087W        W72832  12.304  35.102   2.343
13088W        W72833  28.086  37.581   1.750
13089W        W72834  39.932  28.610  14.363
13090W        W72835  16.157   1.372   1.332
13091W        W72836  35.957  21.070  11.070
13092W        W72837  30.538  42.287  10.406
13093W        W72838  12.758  22.528   4.144
13094W        W72839   9.176  23.194   4.749
13095W        W72840  24.166  32.982   5.285
13096W        W72841   8.882  19.656   4.192
13097W        W72842  31.124  37.555   1.888
13098W        W72843  16.604   2.773   0.879
13099W        W72844  17.178  35.556   3.281
13100W        W72845  16.642   5.368  13.052
13101W        W72846  25.158  12.188  13.441
13102W        W72847  43.516  14.685   1.915
13103W        W72848  12.731  12.314   2.678
13104W        W72849  26.644   9.682   2.328
13105W        W72850  20.190  34.933   3.648
13106W        W72851  13.225  25.080   5.205
13107W        W72852  30.427   7.263   0.378
13108W        W72853   0.297  10.768   3.716
13109W        W72854  24.720   9.346   3.682
13110W        W72855  25.150   7.191   4.698
13111W        W72856  14.218  14.105  10.132
13112W        W72857  10.783   6.759   3.325
13113W        W72858  30.481  35.410  11.043
13114W        W72859  14.720  20.620  11.930
13115W        W72860  14.176   8.288   1.228
13116W        W72861  19.736  40.990  11.443
13117W        W72862   4.330  18.229   2.180
13118W        W72863  35.947  41.879   2.862
13119W        W72864  31.439  16.298  14.432
13120W        W72865   1.875   9.719   0.899
13121W        W72866  38.074  40.848  11.582
13122W        W72867  28.664  10.689   1.745
13123W        W72868  44.281  34.018  10.015
13124W        W72869  14.121   1.731   4.299
13125W        W72870  20.582  29.069   2.729
13126W        W72871   2.771  13.213   0.767
13127W        W72872  31.548  16.075  12.901
13128W        W72873  36.558  13.323   3.713
13129W        W72874  25.488  40.389  10.950
13130W        W72875  43.942  20.138   1.783
13131W        W72876  35.882  26.607   4.305
13132W        W72877  33.952  31.426  11.407
13133W        W72878  26.972   2.311   2.197
13134W        W72879   0.965  43.802   0.924
13135W        W72880  26.197  24.996  13.805
13136W        W72881  22.097  23.646  11.474
13137W        W72882   6.216  33.105  11.593
13138W        W72883  37.933   8.888   0.290
13139W        W72884  11.824  39.476  13.934
13140W        W72885  30.971  29.124  12.562
13141W        W72886  10.642  11.300  13.990
13142W        W72887   0.353   8.892   3.708
13143W        W72888  28.517   4.366   5.112
13144W        W72889  33.427  20.631   5.220
13145W        W72890  12.781  19.106   4.683
13146W        W72891  25.141  43.436  14.498
13147W        W72892  35.984  34.013  11.107
13148W        W72893  41.919  36.587  14.883
13149W        W72894  42.934  28.106   3.630
13150W        W72895  25.027  28.955  13.934
13151W        W72896  34.899  39.898   2.783
13152W        W72897  38.468  38.429  14.394
13153W        W72898  23.155   9.665  14.441
13154W        W72899  14.835   3.766  11.919
13155W        W72900  24.586  21.516   4.155
13156W        W72901  24.006  33.505  14.372
13157W        W72902  27.605  20.080   1.393
13158W        W72903  17.244  40.395  13.404
13159W        W72904   5.200  10.775   4.800
13160W        W72905   9.306  29.580  12.930
13161W        W72906   1.900  20.153  10.072
13162W        W72907   7.891  14.722  12.567
13163W        W72908  26.610   0.765  14.498
13164W        W72909  18.071  18.262  11.560
13165W        W72910  42.424  35.915  10.904
13166W        W72911   8.296  19.201   0.957
13167W        W72912   3.428   4.869   0.833
13168W        W72913  44.967  10.266   2.295
13169W        W72914  18.207  33.033   1.290
13170W        W72915   0.360  30.095  11.070
13171W        W72916  43.303   2.842  13.466
13172W        W72917  21.247  25.531   1.420
13173W        W72918  30.099  19.055   0.386
13174W        W72919  41.006  25.080   1.393
13175W        W72920  42.422  30.655  11.052
13176W        W72921  14.802  27.680   3.239
13177W        W72922  17.149  16.260  11.909
13178W        W72923  31.012  25.688   0.433
13179W        W72924  26.629  11.660   0.874
13180W        W72925  27.106   6.753  13.824
13181W        W72926   5.395  35.522   1.318
13182W        W72927  28.939   1.748  10.447
13183W        W72928  10.197  21.663   0.757
13184W        W72929   3.421   2.902  14.924
13185W        W72930  44.780   4.700  13.057
13186W        W72931   6.749   7.720   2.336
13187W        W72932  22.659   7.393  12.067
13188W        W72933  35.935   3.849  11.387
13189W        W72934  18.133  25.024  14.414
13190W        W72935  30.525  20.622  14.889
13191W        W72936   5.408   3.923  14.843
13192W        W72937  32.109   3.832   0.469
13193W        W72938   1.464  34.595  14.452
13194W        W72939  16.721  40.982  13.825
13195W        W72940  33.460  15.624   0.729
13196W        W72941  13.187  44.357  14.391
13197W        W72942  15.270   7.739   0.738
13198W        W72943  41.295  24.479   3.295
13199W        W72944   6.921   2.882   2.781
13200W        W72945   0.388  35.016   5.286
13201W        W72946  14.769   4.220  12.084
13202W        W72947  34.098   7.414  11.490
13203W        W72948   3.330  42.921   4.814
13204W        W72949  16.686   7.377  12.884
13205W        W72950  41.883  15.613  10.921
13206W        W72951   5.234   5.283   1.718
13207W        W72952   9.373  13.263   2.698
13208W        W72953  41.981  30.428   1.891
13209W        W72954  13.242  22.042  10.159
13210W        W72955   0.456  43.961  11.096
13211W        W72956  26.696  20.761  14.411
13212W        W72957   0.493  38.862  13.523
13213W        W72958  29.455  23.054  14.796
13214W        W72959  15.294  33.041   5.244
13215W        W72960  22.648   1.323  12.424
13216W        W72961  24.060  16.638  11.433
13217W        W72962   8.387  28.125  11.431
13218W        W72963  35.902  33.105   4.670
13219W        W72964  20.753  42.780   4.633
13220W        W72965  37.868  33.573  13.893
13221W        W72966  25.616  29.470   0.347
13222W        W72967  22.114  36.000  12.043
13223W        W72968  31.453  17.196  10.913
13224W        W72969   7.219  33.411   0.312
13225W        W72970   0.407  24.509  11.888
13226W        W72971  41.928  16.244   3.804
13227W        W72972  30.093  44.978   1.758
13228W        W72973  37.336  10.266   5.121
13229W        W72974   1.398  15.722   1.723
13230W        W72975   0.752  16.575   3.258
13231W        W72976  36.924  18.739  14.494
13232W        W72977  30.124   8.886  13.036
13233W        W72978   1.941   0.302  14.275
13234W        W72979   2.296  18.677   4.131
13235W        W72980   5.338  26.027  13.053
13236W        W72981  37.499  43.270  14.778
13237W        W72982  12.815  30.463   4.655
13238W        W72983  32.042  44.303  11.382
13239W        W72984  33.078   9.259  13.323
13240W        W72985  25.108  22.700  13.931
13241W        W72986  35.101  10.161   3.210
13242W        W72987  29.648   3.873   0.966
13243W        W72988  40.450   3.313   0.798
13244W        W72989  43.478  37.013  13.872
13245W        W72990   7.410   7.243   1.803
13246W        W72991  31.075  44.342   4.619
13247W        W72992  31.431  10.302  13.310
13248W        W72993  39.924  25.513  10.509
13249W        W72994   1.899  26.064  14.773
13250W        W72995  35.911   0.927   2.811
13251W        W72996   7.228  22.104   1.291
13252W        W72997   2.914  25.656   0.766
13253W        W72998   9.324  16.255  13.320
13254W        W72999  35.878  38.834  13.416
13255W        W73000  35.497  21.248   4.684
13256W        W73001   5.826  39.554   0.846
13257W        W73002  42.372  21.557  11.056
13258W        W73003  35.446  24.617  14.360
13259W        W73004   2.904  43.877   4.293
13260W        W73005   5.308   5.219  11.119
13261W        W73006   7.674  16.151  12.943
13262W        W73007  33.513   5.823  14.805
13263W        W73008  12.271   2.754  14.956
13264W        W73009  18.708  26.184   2.738
13265W        W73010  12.717  24.177   1.877
13266W        W73011  22.574  41.522   2.299
13267W        W73012  34.886  14.704   3.216
13268W        W73013  10.254  41.466   0.796
13269W        W73014  33.063   7.187  12.956
13270W        W73015  39.970   2.859   4.830
13271W        W73016  34.057  11.814   0.861
13272W        W73017   1.962  31.464   1.239
13273W        W73018  36.438  14.617   4.295
13274W        W73019  40.473  23.104  14.346
13275W        W73020  43.936  41.026   3.696
13276W        W73021   6.230  24.223   3.330
13277W        W73022   4.706  30.015   2.857
13278W        W73023  36.988  16.674  11.886
13279W        W73024  10.222  27.661  13.540
13280W        W73025  26.967  41.471  12.043
13281W        W73026   7.401  19.647   2.804
13282W        W73027   6.702  31.634   4.777
13283W        W73028   3.346  10.726   2.743
13284W        W73029  10.172  36.456  12.886
13285W        W73030  37.571  32.587   1.863
13286W        W73031   8.396  43.447   3.192
13287W        W73032  26.606  16.711   0.935
13288W        W73033   0.778  35.964  10.404
13289W        W73034  28.648  25.568  12.401
13290W        W73035  38.035   8.291  12.893
13291W        W73036   8.265  37.349  13.818
13292W        W73037   4.377  35.094   2.730
13293W        W73038  39.338  20.261   2.710
13294W        W73039  42.411   0.403  12.049
13295W        W73040  41.025   3.867  14.432
13296W        W73041   0.923   1.471  11.860
13297W        W73042   7.847  21.020  13.472
13298W        W73043  39.036   3.409  14.833
13299W        W73044  31.929  26.974  11.046
13300W        W73045  23.068   1.767  11.863
13301W        W73046  27.091  10.800  11.437
13302W        W73047  12.125  40.841  10.440
13303W        W73048  20.032  30.583   3.693
13304W        W73049  39.965   6.747  11.981
13305W        W73050   4.750  15.329  12.058
13306W        W73051  39.040  35.020  10.511
13307W        W73052   6.313   6.819   4.632
13308W        W73053   1.910  28.135   4.124
13309W        W73054  16.245  42.905   4.605
13310W        W73055   5.322  44.809  12.540
13311W        W73056  12.761  28.025  13.803
13312W        W73057  35.419   3.429   0.830
13313W        W73058   7.893  38.521   2.865
13314W        W73059  35.543  18.193  11.507
13315W        W73060   0.465  39.321  11.430
13316W        W73061   7.776  34.973   2.389
13317W        W73062  22.583  14.821  12.002
13318W        W73063  30.136  33.998   2.386
13319W        W73064  13.218   0.792   2.865
13320W        W73065  40.994  30.487  11.996
13321W        W73066  31.976   0.488   2.329
13322W        W73067  22.079  30.542  11.430
13323W        W73068  39.515  34.463   3.736
13324W        W73069  21.722  21.752  14.912
13325W        W73070  29.066  24.631  13.817
13326W        W73071  32.495  30.129   2.890
13327W        W73072  35.534  34.391   4.750
13328W        W73073   8.782  34.057   0.888
13329W        W73074   1.354  42.378   3.862
13330W        W73075  44.886  13.140  10.437
13331W        W73076  16.608  26.050  12.034
13332W        W73077   1.962  17.215   5.164
13333W        W73078   5.715  19.779   3.358
13334W        W73079  24.570  33.386  12.482
13335W        W73080   3.300   7.306   1.449
13336W        W73081  27.041   3.284   3.178
13337W        W73082  43.329  43.866   1.926
13338W        W73083  32.523  38.486  14.798
13339W        W73084  39.436  32.436  13.941
13340W        W73085   1.277  40.476  13.392
13341W        W73086  35.952  13.316  12.001
13342W        W73087  33.417  36.859  14.370
13343W        W73088  34.580  44.470   2.894
13344W        W73089  28.490  12.331   0.805
13345W        W73090  41.019  20.095   1.414
13346W        W73091   4.439  12.347  12.370
13347W        W73092  30.631  22.564  13.006
13348W        W73093  24.634  43.371   4.178
13349W        W73094  13.138   7.254  10.966
13350W        W73095  26.660   4.791   0.283
13351W        W73096  13.165  11.853   1.375
13352W        W73097  44.304  35.540   3.658
13353W        W73098  18.605  34.441  12.554
13354W        W73099  40.050   3.217  13.430
13355W        W73100  13.749  41.336  13.339
13356W        W73101   2.270  41.825   2.764
13357W        W73102   3.751  39.998   0.849
13358W        W73103  29.161  36.487  10.622
13359W        W73104  32.066  43.386  12.013
13360W        W73105  37.930  30.155   0.924
13361W        W73106  34.527  12.737   3.856
13362W        W73107  19.545  33.484   1.915
13363W        W73108  24.999   8.331   4.775
13364W        W73109   7.406  18.610   2.344
13365W        W73110  40.350   3.783   1.377
13366W        W73111  10.349   8.893  14.290
13367W        W73112   6.198  15.710  12.364
13368W        W73113   5.932  10.324   3.856
13369W        W73114  16.779  35.041  13.800
13370W        W73115  41.839  12.302   3.640
13371W        W73116   1.939  13.761  14.293
13372W        W73117   0.332   1.281   2.272
13373W        W73118  12.227   1.346  14.323
13374W        W73119  43.513  27.060   4.271
13375W        W73120  15.687  33.566  11.095
13376W        W73121  44.880  41.014   2.183
13377W        W73122  39.417  44.925   1.726
13378W        W73123   3.284  24.148   2.878
13379W        W73124  16.793  35.040  14.761
13380W        W73125  15.083  39.538  10.979
13381W        W73126  36.479  33.590   3.793
13382W        W73127  35.360  37.954   1.849
13383W        W73128  22.070   6.345   3.729
13384W        W73129  16.628  20.104  13.460
13385W        W73130  32.485  31.641   1.252
13386W        W73131  41.955  34.909  13.318
13387W        W73132  39.063  30.041  12.995
13388W        W73133  42.323   8.872   0.803
13389W        W73134  25.034  32.633  10.077
13390W        W73135  33.067   5.795   4.268
13391W        W73136   6.366   6.325   2.702
13392W        W73137   6.332  23.623   3.185
13393W        W73138  10.814  18.085  12.581
13394W        W73139  11.800  10.779   1.805
13395W        W73140  12.254  18.642   2.815
13396W        W73141  15.217   2.284   4.707
13397W        W73142   1.472  14.205  14.331
13398W        W73143  36.000  32.625   0.292
13399W        W73144   4.362  36.066   3.705
13400W        W73145  21.628  11.133  12.998
13401W        W73146  13.247   2.744  12.566
13402W        W73147   2.388   0.272  11.461
13403W        W73148  28.566  37.063   3.719
13404W        W73149  15.592   8.183  11.043
13405W        W73150  42.009   6.340  13.043
13406W        W73151   2.287  20.127   1.809
13407W        W73152  34.469  21.131   2.809
13408W        W73153  30.450  27.133  10.415
13409W        W73154  38.363  30.510  13.317
13410W        W73155  23.998  33.589  14.846
13411W        W73156  21.620   9.198   4.643
13412W        W73157   6.720   0.822   2.807
13413W        W73158  29.999  42.957   3.739
13414W        W73159  28.623   2.942   2.217
13415W        W73160   2.789   5.280  12.065
13416W        W73161   7.877  13.666  13.008
13417W        W73162   9.754  27.077  14.448
13418W        W73163  41.861  20.601  14.807
13419W        W73164   9.385  21.174  10.130
13420W        W73165   5.257  24.042  10.971
13421W        W73166  30.562   9.889  12.965
13422W        W73167  32.122  22.032  13.462
13423W        W73168  40.410  22.617   0.727
13424W        W73169   7.895  33.070   2.673
13425W        W73170  27.001  42.806   2.380
13426W        W73171  12.324   7.678  11.893
13427W        W73172  14.756  28.492   2.249
13428W        W73173  22.540  12.730  10.017
13429W        W73174  27.626   4.911   0.808
13430W        W73175   9.667  32.465  11.974
13431W        W73176  27.502   7.693  12.036
13432W        W73177  28.085   7.772   2.775
13433W        W73178  16.785  32.572  10.600
13434W        W73179  35.029  11.156  12.443
13435W        W73180  20.219  36.996   1.329
13436W        W73181   9.325  26.677  14.396
13437W        W73182   6.777   0.966  13.487
13438W        W73183  44.477  31.477   1.440
13439W        W73184   1.422  26.552   0.893
13440W        W73185   7.827  36.540  12.856
13441W        W73186   8.382  36.959   2.223
13442W        W73187  12.317   8.728  10.639
13443W        W73188   5.253   0.870  14.484
13444W        W73189  43.343  35.441  10.541
13445W        W73190  26.527  37.843   4.245
13446W        W73191  14.195   7.858   4.267
13447W        W73192   3.298   5.769  12.041
13448W        W73193   8.875  32.947  11.993
13449W        W73194  19.625  20.189  13.981
13450W        W73195  39.846  20.061   2.351
13451W        W73196  26.592  39.000   3.852
13452W        W73197  31.920  39.467  11.127
13453W        W73198  29.613  32.120   2.883
13454W        W73199   4.234  37.037  13.532
13455W        W73200  30.153  34.466  14.466
13456W        W73201  22.502   2.908   3.363
13457W        W73202  35.025  16.634  11.098
13458W        W73203  36.056  40.324  10.532
13459W        W73204  30.452  36.859   2.229
13460W        W73205  28.058  42.408  14.005
13461W        W73206   2.792  27.575  14.988
13462W        W73207  40.987   8.773  10.552
13463W        W73208  43.873  41.945  11.880
13464W        W73209  38.375  39.433  12.045
13465W        W73210  27.045  36.398  11.993
13466W        W73211  44.326  29.997   3.270
13467W        W73212  39.424  32.929   4.677
13468W        W73213  39.486   4.432   0.882
13469W        W73214  25.012  39.382  10.929
13470W        W73215  36.026  32.072  12.826
13471W        W73216  20.755  10.139  11.399
13472W        W73217  24.708  30.659  12.548
13473W        W73218  16.650   9.684   2.196
13474W        W73219  19.119  21.234  13.419
13475W        W73220  43.992  31.111   3.661
13476W        W73221  10.667   3.787  14.009
13477W        W73222  32.029  15.602  10.418
13478W        W73223   7.824   2.805  14.495
13479W        W73224  29.998  12.680  12.520
13480W        W73225  19.737  28.946  11.575
13481W        W73226  12.222   3.948  11.438
13482W        W73227  18.147   2.941  11.534
13483W        W73228   5.434  23.127   2.759
13484W        W73229  42.776  17.637   4.305
13485W        W73230  32.043  29.076  11.992
13486W        W73231   7.766   6.913  13.379
13487W        W73232  23.040   1.899   3.334
13488W        W73233  19.608  43.015   4.671
13489W        W73234  44.326  23.148  12.514
13490W        W73235  34.502  43.000  13.816
13491W        W73236   1.769  22.612  13.950
13492W        W73237  25.027  23.633   3.732
13493W        W73238  30.524  28.558   4.151
13494W        W73239   9.330  42.494  12.085
13495W        W73240  42.878  22.109  13.460
13496W        W73241  36.561   9.761   2.722
13497W        W73242  40.012  38.036  14.885
13498W        W73243  32.013  39.911   4.267
13499W        W73244  35.503  37.840  11.485
13500W        W73245  34.539   5.720   4.346
13501W        W73246  26.598  12.778  12.340
13502W        W73247  20.639   6.337  11.447
13503W        W73248   2.777  30.157   9.470
13504W        W73249  24.711  14.741   1.783
13505W        W73250  36.913   1.311  12.943
13506W        W73251   8.379  17.794   4.726
13507W        W73252  41.304  22.116  11.968
13508W        W73253  12.328   6.773   0.285
13509W        W73254  11.641  40.015  14.788
13510W        W73255  41.839  35.966   0.246
13511W        W73256  15.584  35.041  13.319
13512W        W73257   5.236  15.265   0.777
13513W        W73258  38.455  32.107  13.530
13514W        W73259  28.003  15.097   2.703
13515W        W73260  42.975  39.456   4.738
13516W        W73261  26.082  35.100   4.663
13517W        W73262  41.389  29.561  13.321
13518W        W73263   1.318  34.463   0.775
13519W        W73264  34.020  27.668  10.488
13520W        W73265  27.579  27.120  10.425
13521W        W73266   7.733  20.144   3.633
13522W        W73267  42.807  36.549   3.287
13523W        W73268   8.728  24.560   0.892
13524W        W73269  37.510  25.552  12.483
13525W        W73270  30.153  31.486  11.591
13526W        W73271   2.780  25.017  13.849
13527W        W73272  42.519   8.699   2.179
13528W        W73273  27.577  18.676  12.343
13529W        W73274  27.459   1.410  11.549
13530W        W73275  18.090  38.825  14.333
13531W        W73276   3.364   5.279   2.831
13532W        W73277   1.876   8.255  12.970
13533W        W73278  40.818  17.296  13.028
13534W        W73279  41.531   2.762  13.022
13535W        W73280  42.423  28.677  10.947
13536W        W73281   5.762   4.297   0.285
13537W        W73282  15.306  16.672   3.187
13538W        W73283  15.206  26.529  12.054
13539W        W73284  10.786  14.798   3.710
13540W        W73285  32.955   2.745   0.352
13541W        W73286   1.295  25.963  14.402
13542W        W73287  32.112  34.540  12.878
13543W        W73288  41.401  15.203  14.351
13544W        W73289  24.218   4.770   5.314
13545W        W73290  25.585   2.781   3.695
13546W        W73291  43.480  33.421  13.456
13547W        W73292  15.111  42.456   3.771
13548W        W73293  32.973   6.691  11.050
13549W        W73294  23.992  32.576  11.478
13550W        W73295  37.903  30.099   4.259
13551W        W73296  32.981  33.424   3.705
13552W        W73297  39.022  14.698   0.297
13553W        W73298  41.333   8.172   2.401
13554W        W73299   5.726  23.237  13.014
13555W        W73300  39.931  14.809   0.281
13556W        W73301  34.027  44.955   2.195
13557W        W73302  16.315   3.751  10.938
13558W        W73303  33.924  38.437   4.632
13559W        W73304   1.361   9.741  11.376
13560W        W73305  42.991  38.379   1.214
13561W        W73306   1.430  24.503   0.341
13562W        W73307  22.663  27.671  12.386
13563W        W73308  28.103  17.694  11.514
13564W        W73309   4.373  10.359   1.782
13565W        W73310  40.325   9.185   0.372
13566W        W73311  40.389  41.970   1.237
13567W        W73312  16.305  33.538   2.840
13568W        W73313   3.294  15.157  11.904
13569W        W73314  23.062  25.035  10.473
13570W        W73315  24.988   4.364  10.427
13571W        W73316  20.062  33.011   3.327
13572W        W73317  11.292  44.946   3.711
13573W        W73318  33.943  28.065   1.814
13574W        W73319   0.305   9.242  14.330
13575W        W73320  14.788  40.549  13.053
13576W        W73321  41.393  18.699   4.667
13577W        W73322  37.859  27.604  10.623
13578W        W73323   0.286  32.050   4.328
13579W        W73324  14.320  38.561   2.230
13580W        W73325  18.250  25.544   4.335
13581W        W73326  40.503   8.711   0.476
13582W        W73327  28.555  41.413   3.791
13583W        W73328  16.684  10.171  12.450
13584W        W73329   6.359  27.170  14.759
13585W        W73330   7.802  32.966  12.391
13586W        W73331  32.061   5.195  12.074
13587W        W73332  26.600  35.359  12.451
13588W        W73333  38.360  25.660   2.708
13589W        W73334  13.264   7.834   4.819
13590W        W73335  44.849  36.966   3.257
13591W        W73336  32.947   9.849   4.725
13592W        W73337  34.480  33.527  13.991
13593W        W73338  24.985   5.723   1.213
13594W        W73339  24.005  26.189   2.335
13595W        W73340  34.541   8.299  11.609
13596W        W73341   5.288  23.996   3.676
13597W        W73342   8.766   7.832  10.913
13598W        W73343   5.365  15.786   4.602
13599W        W73344  23.554   0.793   3.164
13600W        W73345   2.854  21.102   4.229
13601W        W73346  36.975  16.605   4.249
13602W        W73347  43.309  31.938  10.473
13603W        W73348  31.910  36.437  11.410
13604W        W73349   4.920  12.824  10.103
13605W        W73350   8.329  18.550  11.068
13606W        W73351  18.623   6.293  13.858
13607W        W73352   9.270  38.002  12.415
13608W        W73353   2.776  18.764  12.403
13609W        W73354  11.158  33.995   3.752
13610W        W73355  29.017   7.362   4.624
13611W        W73356  40.464  42.010  14.512
13612W        W73357  11.824  31.539  13.447
13613W        W73358  43.357  40.866   2.801
13614W        W73359  19.095  28.155  11.924
13615W        W73360  13.218  10.385   2.364
13616W        W73361  39.519  18.741  12.064
13617W        W73362  35.084  30.996  11.586
13618W        W73363  13.167  20.647  14.788
13619W        W73364  31.470  42.481  13.349
13620W        W73365  30.501  23.161  12.027
13621W        W73366  10.309  12.151   2.896
13622W        W73367  20.655  32.934  14.362
13623W        W73368  21.711  15.165   9.952
13624W        W73369  21.743  10.198   2.698
13625W        W73370   1.260   3.918   1.871
13626W        W73371   8.750  30.972   1.401
13627W        W73372  16.756  25.035   2.328
13628W        W73373  32.117  13.839  12.913
13629W        W73374  23.240   8.226  14.344
13630W        W73375   3.813  18.084  14.452
13631W        W73376  41.390  10.324  11.498
13632W        W73377  40.945  32.108  13.984
13633W        W73378  19.271  17.140  11.515
13634W        W73379  14.679   3.267  12.022
13635W        W73380   5.367  43.505   0.365
13636W        W73381  40.491  39.428  12.052
13637W        W73382  28.610   3.823   1.310
13638W        W73383  22.676  35.013   2.298
13639W        W73384  12.795  32.966   3.286
13640W        W73385  27.654  37.409   2.881
13641W        W73386  29.976  12.742  12.961
13642W        W73387  34.374  43.963  13.461
13643W        W73388  10.351  18.050  14.412
13644W        W73389  40.887  33.439  14.869
13645W        W73390   3.866  32.502  14.440
13646W        W73391  41.801  31.109  14.800
13647W        W73392  16.190  17.200   4.205
13648W        W73393   9.816  32.008  10.889
13649W        W73394  30.083  13.753  10.992
13650W        W73395  20.075  34.562  13.344
13651W        W73396  36.016  21.600   1.863
13652W        W73397  36.435  17.092   5.109
13653W        W73398   0.975  13.235  14.346
13654W        W73399  23.216  24.086  14.767
13655W        W73400  17.781  34.946   0.391
13656W        W73401  14.255  16.633  11.466
13657W        W73402  35.471   8.832   3.154
13658W        W73403  26.022  17.597  12.051
13659W        W73404  34.550   9.710   2.331
13660W        W73405   9.328  27.514  13.793
13661W        W73406  37.071  22.610  14.280
13662W        W73407  15.696  17.736   2.308
13663W        W73408  17.302  24.038   4.736
13664W        W73409  26.653  35.594   5.312
13665W        W73410   6.876  20.134   0.803
13666W        W73411  28.077  39.524  13.893
13667W        W73412  32.621  18.231   4.828
13668W        W73413  13.750  32.996  12.896
13669W        W73414  41.022  29.127   4.341
13670W        W73415   5.928  16.171  11.414
13671W        W73416  30.625  24.720  10.518
13672W        W73417  18.598   9.671  13.345
13673W        W73418  34.044   2.914  12.526
13674W        W73419   4.408   9.864  13.865
13675W        W73420  32.542  24.627  12.571
13676W        W73421  16.247  24.478  12.923
13677W        W73422  34.078   8.853   3.829
13678W        W73423  10.806  13.782  12.561
13679W        W73424  30.470   8.199   1.406
13680W        W73425  27.483   0.272   3.333
13681W        W73426  27.673  29.934  14.962
13682W        W73427  11.820  16.735   1.441
13683W        W73428  24.686   7.328   4.790
13684W        W73429   7.301  24.524  11.608
13685W        W73430  28.668   9.195  12.371
13686W        W73431  13.761  42.997   1.888
13687W        W73432  39.517  25.607   1.820
13688W        W73433   8.399  21.032  12.490
13689W        W73434   3.270  36.380  11.126
13690W        W73435  32.482  37.479  14.946
13691W        W73436  38.076  32.560  14.467
13692W        W73437  18.145  28.623  12.393
13693W        W73438  32.582  11.655  10.541
13694W        W73439   4.843   1.899   2.895
13695W        W73440   2.876  34.583   4.695
13696W        W73441   1.973  12.244   2.815
13697W        W73442  34.528  24.626   2.883
13698W        W73443   8.376  37.921   2.182
13699W        W73444  42.993  17.072   1.905
13700W        W73445  12.263  35.438   1.236
13701W        W73446   4.818  37.374  13.892
13702W        W73447  25.119   1.309  14.449
13703W        W73448  20.595  26.197   3.797
13704W        W73449  29.656  24.086   0.875
13705W        W73450   0.770  17.173   2.244
13706W        W73451  25.196  24.681   0.276
13707W        W73452  11.646  29.615  13.034
13708W        W73453  34.575  41.506   3.640
13709W        W73454  38.355  39.821  14.382
13710W        W73455  30.043  25.092  11.888
13711W        W73456  42.939  35.426  13.037
13712W        W73457   3.795   1.249  11.038
13713W        W73458   5.304  29.118   4.775
13714W        W73459  30.931   6.796  14.871
13715W        W73460  27.608  41.838   4.731
13716W        W73461  13.676  39.853  10.406
13717W        W73462   2.247  14.102   1.348
13718W        W73463  30.053  18.080  13.370
13719W        W73464  16.155  36.090  11.966
13720W        W73465   4.438  38.405   4.621
13721W        W73466  44.444   4.326  12.868
13722W        W73467  23.583  29.548   4.210
13723W        W73468   0.282   6.771  14.853
13724W        W73469  26.675  21.642   2.796
13725W        W73470  31.928  29.940   9.925
13726W        W73471   0.428   7.873  10.981
13727W        W73472  17.124  36.428   5.758
13728W        W73473  30.605  27.637  10.463
13729W        W73474  38.355   7.235  11.588
13730W        W73475   6.891  37.042  11.440
13731W        W73476   7.334  41.408  14.801
13732W        W73477  11.276  40.542   0.905
13733W        W73478  21.220   0.829  11.432
13734W        W73479  21.656  38.844  13.954
13735W        W73480  25.703  31.966   5.700
13736W        W73481  38.381   0.400  11.420
13737W        W73482  22.100   4.345  12.552
13738W        W73483  42.931  32.426  12.540
13739W        W73484   8.215   2.402  14.372
13740W        W73485  41.405  33.572  14.462
13741W        W73486  33.082  19.107  12.996
13742W        W73487  43.947  28.034  14.986
13743W        W73488  19.110   1.927   4.626
13744W        W73489  28.153   0.493   2.412
13745W        W73490  28.493  26.008  14.812
13746W        W73491  34.505  18.675  11.550
13747W        W73492  12.812  31.014  10.934
13748W        W73493  32.443  29.670  14.507
13749W        W73494  23.197  10.223   4.667
13750W        W73495  35.379  16.796   4.225
13751W        W73496  23.615  37.079  10.889
13752W        W73497  34.990  26.698  12.017
13753W        W73498  13.121  43.012   1.211
13754W        W73499  13.272  42.308  10.578
13755W        W73500   1.433  28.072   9.955
13756W        W73501   2.836   2.386   1.251
13757W        W73502  29.624  36.370  12.466
13758W        W73503   8.668  17.638  14.814
13759W        W73504   7.671  32.912  11.868
13760W        W73505  16.654   6.921   2.197
13761W        W73506  33.130  21.694   1.877
13762W        W73507  29.138  16.107  11.094
13763W        W73508  16.633  43.435   4.342
13764W        W73509  10.279  12.175  13.393
13765W        W73510   5.759  28.162   0.817
13766W        W73511  29.498  17.788   1.390
13767W        W73512  10.824   0.455  12.889
13768W        W73513   8.706  37.374  14.349
13769W        W73514  14.722  16.318  11.016
13770W        W73515  30.594  44.361  12.083
13771W        W73516  40.351  14.114   1.898
13772W        W73517  10.644   5.736  14.932
13773W        W73518  15.807   2.936   3.319
13774W        W73519   4.281   8.190  10.993
13775W        W73520  11.797  25.218   4.838
13776W        W73521  25.525   0.768   3.681
13777W        W73522  39.043  41.492   2.682
13778W        W73523  10.635  43.949  11.034
13779W        W73524  29.993  42.898   2.690
13780W        W73525  30.654   7.710   4.171
13781W        W73526  34.555  15.183   2.298
13782W        W73527   5.400   3.366  14.784
13783W        W73528   8.406  41.413   0.833
13784W        W73529  13.749  16.704   0.954
13785W        W73530   8.209  37.855  12.524
13786W        W73531  25.709  11.638   3.827
13787W        W73532  43.294  14.597   0.297
13788W        W73533  37.414  13.314  13.410
13789W        W73534  23.605   6.309  11.897
13790W        W73535  21.166  26.090   0.925
13791W        W73536  38.561  44.802   4.725
13792W        W73537  43.994   3.214  14.775
13793W        W73538   4.824   0.462   1.347
13794W        W73539  19.178  20.101   0.761
13795W        W73540   5.386  42.410   2.222
13796W        W73541   5.736  14.095   0.311
13797W        W73542  29.940  26.123   1.306
13798W        W73543  43.873  10.758  11.109
13799W        W73544  35.576  34.493  14.909
13800W        W73545  18.749   6.712   3.331
13801W        W73546  32.475  28.629   3.840
13802W        W73547   5.924  34.896  13.344
13803W        W73548  14.152  43.472   4.802
13804W        W73549  42.463   7.199  12.513
13805W        W73550  15.264  41.842  13.045
13806W        W73551  20.269  20.117  14.873
13807W        W73552  35.036  40.407   0.962
13808W        W73553  12.857   1.846   1.308
13809W        W73554  28.573  16.609  13.909
13810W        W73555  20.536   2.290  12.857
13811W        W73556  15.195   4.407  12.996
13812W        W73557   0.811  28.171   3.178
13813W        W73558  14.280  36.049   1.404
13814W        W73559  30.955  38.988  11.055
13815W        W73560  21.520   2.889   5.744
13816W        W73561  11.742  40.476  10.526
13817W        W73562  21.186   2.963   2.195
13818W        W73563  40.042  27.019   0.405
13819W        W73564  28.457  34.419   0.965
13820W        W73565  16.235   9.241   1.234
13821W        W73566   7.910  31.080   2.400
13822W        W73567  26.957   5.352   4.284
13823W        W73568  28.601  11.161   2.226
13824W        W73569  42.473  26.561   2.827
13825W        W73570  11.134  34.597   0.356
13826W        W73571  26.612  19.175   2.185
13827W        W73572   7.325  11.673   4.220
13828W        W73573  43.361   9.832  14.926
13829W        W73574  27.563  20.059   1.696
13830W        W73575  12.696  36.086  12.995
13831W        W73576  38.015  26.612  14.301
13832W        W73577  10.242  14.280   4.794
13833W        W73578  26.017  12.230  14.961
13834W        W73579   3.396  29.013   2.222
13835W        W73580  35.962   8.702   1.820
13836W        W73581  33.049  39.472   4.724
13837W        W73582  30.538   2.729  12.391
13838W        W73583  10.713  31.546   2.716
13839W        W73584  27.946  19.537  12.450
13840W        W73585   0.400  18.077  14.895
13841W        W73586   5.394  44.408  10.504
13842W        W73587  26.977  30.041   2.375
13843W        W73588  38.863  25.012   0.459
13844W        W73589   3.769  18.718  14.489
13845W        W73590  17.153  32.047   1.220
13846W        W73591  16.132  44.775  14.960
13847W        W73592  32.043  25.170   1.750
13848W        W73593  32.396  12.767   2.324
13849W        W73594  29.976  42.317  10.514
13850W        W73595  22.560   6.332  10.641
13851W        W73596  16.257  42.863  12.435
13852W        W73597  24.498  39.987  11.964
13853W        W73598   5.422  10.810  11.472
13854W        W73599  30.620  43.463  10.469
13855W        W73600  31.089   7.197   5.240
13856W        W73601   1.736  15.302   3.823
13857W        W73602  40.914  40.950  12.422
13858W        W73603  35.881  40.035   1.395
13859W        W73604  30.530  43.315  11.015
13860W        W73605  32.077   7.842   1.763
13861W        W73606  25.502  30.046  14.887
13862W        W73607  23.605  38.930   1.823
13863W        W73608  29.918  11.330   4.660
13864W        W73609   2.343  16.582  11.422
13865W        W73610  39.864  44.781  12.061
13866W        W73611  35.571  41.916   1.826
13867W        W73612  43.277  17.774   1.436
13868W        W73613  12.675   4.836   0.806
13869W        W73614   4.761  10.697   4.735
13870W        W73615  31.011  31.510   3.159
13871W        W73616  20.528   0.836   3.830
13872W        W73617  36.476  24.579   1.309
13873W        W73618   3.733  42.016  11.993
13874W        W73619  41.872  23.613  14.863
13875W        W73620  39.058  15.127  12.476
13876W        W73621   6.857  25.015  10.535
13877W        W73622  20.553  34.049  14.314
13878W        W73623  31.625  17.668  10.524
13879W        W73624  11.744  12.308  14.882
13880W        W73625   4.232   3.914  13.541
13881W        W73626   8.716  11.292  12.866
13882W        W73627  14.259  36.445  13.056
13883W        W73628  37.351  26.615   1.248
13884W        W73629   1.850  39.892   2.832
13885W        W73630  28.142  39.387   1.383
13886W        W73631   8.722  38.982  11.416
13887W        W73632  25.665  35.546  11.452
13888W        W73633   7.814   3.344   1.448
13889W        W73634  38.976   2.439   3.297
13890W        W73635  19.087   8.810   0.359
13891W        W73636  31.919   9.874  12.970
13892W        W73637  41.358  18.265   1.696
13893W        W73638  25.992  34.100   4.745
13894W        W73639  42.893   8.724  13.922
13895W        W73640  38.549  31.425  14.767
13896W        W73641  22.017  27.976  12.878
13897W        W73642  18.657  17.251   1.251
13898W        W73643  19.062  21.626  13.899
13899W        W73644  33.017  20.160  14.858
13900W        W73645  29.518  27.182   2.242
13901W        W73646  32.133  25.144   4.609
13902W        W73647   4.761   8.894  11.590
13903W        W73648  34.440  20.072  14.819
13904W        W73649  42.830  23.506  12.397
13905W        W73650  42.442  33.390   0.423
13906W        W73651  32.902   0.348  13.316
13907W        W73652  33.907  43.980   2.672
13908W        W73653   7.783  37.033  10.547
13909W        W73654  37.942  18.143   2.784
13910W        W73655  25.659   2.456  12.858
13911W        W73656  44.328  26.133  11.524
13912W        W73657   7.686  42.862  12.840
13913W        W73658  24.707  29.999  14.456
13914W        W73659  37.967  20.569   4.797
13915W        W73660   0.273  13.167   4.241
13916W        W73661  26.624  16.184  13.011
13917W        W73662  31.599   1.248   3.285
13918W        W73663   3.905   3.837  14.003
13919W        W73664   4.834  10.336   0.250
13920W        W73665  30.074  26.651   3.701
13921W        W73666   8.683   5.311   1.789
13922W        W73667   5.408   4.815   0.266
13923W        W73668  13.262  25.143  12.066
13924W        W73669  18.549   3.361   1.892
13925W        W73670  33.564   3.358   2.833
13926W        W73671  43.493   9.853  11.377
13927W        W73672   3.823  31.564   0.429
13928W        W73673  11.622  26.572  11.877
13929W        W73674  34.946  41.377   3.735
13930W        W73675  38.922  32.073  13.857
13931W        W73676  36.550  20.220   3.344
13932W        W73677  33.100  14.695  13.847
13933W        W73678  13.693  16.206   2.878
13934W        W73679  29.468  31.928  14.368
13935W        W73680  34.960  18.225  11.904
13936W        W73681  30.058  43.449  10.463
13937W        W73682   7.257   9.654  12.088
13938W        W73683  35.444  19.614  12.824
13939W        W73684   9.320  17.749  11.921
13940W        W73685  30.457  35.028   3.756
13941W        W73686  12.127  37.459  11.611
13942W        W73687  24.480   5.694  11.596
13943W        W73688  12.275  39.543   1.380
13944W        W73689  34.550  22.620   1.925
13945W        W73690   7.712  39.925  13.848
13946W        W73691   7.252  38.056   2.777
13947W        W73692  27.982   7.245  10.511
13948W        W73693   7.724  11.330   0.954
13949W        W73694   1.930  17.171   9.631
13950W        W73695   9.841  16.174  11.511
13951W        W73696   9.738  17.594  10.580
13952W        W73697  13.677  38.994  14.477
13953W        W73698   7.827  38.538  13.946
13954W        W73699  38.970  25.085   1.359
13955W        W73700   1.306  12.793  13.445
13956W        W73701   2.337   5.323   2.308
13957W        W73702  35.994  26.992  12.486
13958W        W73703  31.503  29.473   0.773
13959W        W73704  23.034  13.699  10.922
13960W        W73705  17.702   6.734   1.354
13961W        W73706  41.355  16.137   2.382
13962W        W73707   7.835   2.446   3.791
13963W        W73708  20.055  40.492   1.826
13964W        W73709  21.110  21.567   3.191
13965W        W73710   5.247  41.951   0.956
13966W        W73711  21.065  27.612   2.419
13967W        W73712  15.233   1.814   4.640
13968W        W73713  29.463  37.987   1.912
13969W        W73714  44.887  36.564   9.929
13970W        W73715  24.202  33.585   2.222
13971W        W73716   2.831   1.786   3.743
13972W        W73717   7.266  38.340   4.239
13973W        W73718  22.557  15.111  13.378
13974W        W73719  40.999  28.483  11.494
13975W        W73720  33.938  18.578   1.307
13976W        W73721  43.856  39.820   3.341
13977W        W73722  43.878  43.290  14.973
13978W        W73723  14.161  40.450   4.350
13979W        W73724  38.830  15.191  14.786
13980W        W73725  22.739  27.146   1.397
13981W        W73726  23.989   2.435  13.000
13982W        W73727  42.496  10.311   2.288
13983W        W73728  22.615  39.374  10.403
13984W        W73729  12.197  20.248   3.789
13985W        W73730   6.691  27.508   4.174
13986W        W73731   5.854  40.816   2.806
13987W        W73732  34.004   2.269  10.501
13988W        W73733  25.975   8.184  14.501
13989W        W73734  12.716  21.558   0.776
13990W        W73735  29.650  39.040  14.367
13991W        W73736   7.203   8.810   0.284
13992W        W73737   1.742  17.669   5.232
13993W        W73738  42.480  32.543   4.348
13994W        W73739  42.496  18.148   0.307
13995W        W73740  33.877  32.418  13.419
13996W        W73741  34.527   1.888   1.785
13997W        W73742   1.844  17.724  12.089
13998W        W73743   6.685  33.623   2.878
13999W        W73744   3.370   4.265   3.635
14000W        W73745  43.455  33.881   1.768
14001W        W73746  43.364  24.561  14.386
14002W        W73747   5.257   4.704   1.217
14003W        W73748   4.439  18.052  11.091
14004W        W73749   4.338  25.674  13.410
14005W        W73750   4.711  17.240   3.189
14006W        W73751   4.848  26.971   1.376
14007W        W73752  35.889  35.953  12.861
14008W        W73753  44.832  10.262   3.859
14009W        W73754  40.366  20.179   3.224
14010W        W73755  31.072  28.112  14.352
14011W        W73756  18.131  17.587   0.355
14012W        W73757  43.302   3.896  14.926
14013W        W73758  15.196  30.653   0.256
14014W        W73759   3.392   0.972  12.565
14015W        W73760  30.433  39.924  12.967
14016W        W73761   9.352  42.412   4.194
14017W        W73762  24.514  22.241   0.435
14018W        W73763  34.013  23.633   2.750
14019W        W73764  30.094  43.001  10.543
14020W        W73765  26.107  38.364  13.528
14021W        W73766  14.271  24.113   5.297
14022W        W73767  37.403  23.111  11.075
14023W        W73768  25.070   0.357   2.759
14024W        W73769  37.565  26.997  11.958
14025W        W73770   0.949  37.548   2.793
14026W        W73771   5.809  39.394   3.262
14027W        W73772   1.445  36.862  11.596
14028W        W73773  20.737  13.318   2.832
14029W        W73774   8.244  19.276  12.931
14030W        W73775  22.705   9.366   3.661
14031W        W73776   3.951  26.671  10.916
14032W        W73777   0.413  30.161   3.636
14033W        W73778  18.240  40.324   2.369
14034W        W73779  27.550  38.536  12.875
14035W        W73780   6.725   7.703   1.422
14036W        W73781  25.618  43.304   3.189
14037W        W73782  17.067  32.627  11.017
14038W        W73783   3.819  33.613   2.283
14039W        W73784  24.141  15.230  11.929
14040W        W73785  31.420  22.632  12.011
14041W        W73786   6.198  39.357  14.910
14042W        W73787   9.243   4.701   2.751
14043W        W73788  26.602  31.424  10.437
14044W        W73789  14.731  38.377  11.047
14045W        W73790  23.085  26.007  13.976
14046W        W73791  38.400  41.336   1.815
14047W        W73792   4.802  23.109  10.476
14048W        W73793  25.524   5.701  13.384
14049W        W73794  23.589  43.485  13.007
14050W        W73795  24.657   7.676   4.775
14051W        W73796  23.099  10.141  14.925
14052W        W73797  20.182   3.424  14.836
14053W        W73798  28.040  37.967   0.730
14054W        W73799  26.682  37.352  12.030
14055W        W73800  11.151  30.533   3.799
14056W        W73801   3.449  12.173  13.322
14057W        W73802   2.373   2.385   0.326
14058W        W73803   0.313  44.396  12.512
14059W        W73804  24.519  22.136  11.044
14060W        W73805  22.524  42.865  12.044
14061W        W73806  34.978  17.297  12.551
14062W        W73807  11.222   9.356   1.319
14063W        W73808  38.000   5.746   2.744
14064W        W73809   6.805   7.790   3.831
14065W        W73810  25.008  27.470  12.088
14066W        W73811  34.392  12.119   0.464
14067W        W73812  40.984  22.052   3.380
14068W        W73813  23.675  15.249   3.686
14069W        W73814  32.558   9.676  14.394
14070W        W73815  40.384  35.410  12.414
14071W        W73816  25.032  39.955   3.317
14072W        W73817   8.341  10.763  11.408
14073W        W73818  38.480   0.349   4.655
14074W        W73819  18.156  15.700   4.147
14075W        W73820  39.430  27.547   0.788
14076W        W73821   2.233  36.898  11.927
14077W        W73822  37.960  31.908   0.775
14078W        W73823  16.101  17.275  13.822
14079W        W73824   0.340  28.977   4.757
14080W        W73825  42.867  44.771  10.968
14081W        W73826  32.920   1.351   4.809
14082W        W73827  12.247  34.580  12.856
14083W        W73828   4.288  30.155   2.378
14084W        W73829  13.683  41.861   4.123
14085W        W73830  41.450  29.652  10.590
14086W        W73831  42.866  29.535  14.386
14087W        W73832  16.654  18.667  11.431
14088W        W73833  29.592  43.970   1.231
14089W        W73834  33.939  21.043  14.486
14090W        W73835   6.362   8.283   3.752
14091W        W73836  25.654  29.941   1.802
14092W        W73837   1.245   5.306  13.867
14093W        W73838  20.158  40.519  10.940
14094W        W73839  29.129  13.163   3.223
14095W        W73840  38.853   0.811   3.673
14096W        W73841  18.156  27.053  12.488
14097W        W73842  19.730  17.110   4.199
14098W        W73843   0.841  39.855   1.926
14099W        W73844  23.993  38.968   2.802
14100W        W73845  11.298  15.671  13.885
14101W        W73846  11.732  42.006  14.498
14102W        W73847  44.491  14.595  14.898
14103W        W73848  26.954  21.749  13.796
14104W        W73849  23.498  28.147  13.535
14105W        W73850  25.629   1.330   3.231
14106W        W73851  18.111  21.248  14.802
14107W        W73852  25.047  16.152  14.968
14108W        W73853  24.224   2.733   3.831
14109W        W73854  10.669  22.511   1.807
14110W        W73855  37.572   7.837   0.480
14111W        W73856  31.405  40.349   1.919
14112W        W73857   1.857  25.471   4.728
14113W        W73858  19.180  30.487  14.397
14114W        W73859   4.903  10.361  14.900
14115W        W73860   9.780  11.623   1.365
14116W        W73861  42.433  41.533   0.921
14117W        W73862  11.753  35.108  10.547
14118W        W73863  33.916  25.660   1.897
14119W        W73864  22.028  15.218  11.884
14120W        W73865   2.369  19.557  13.376
14121W        W73866  22.013   6.856   4.236
14122W        W73867  14.822  22.630   0.731
14123W        W73868   6.793  41.486  12.052
14124W        W73869  13.215  42.480  14.868
14125W        W73870  15.168  19.616  10.958
14126W        W73871   0.876  39.492   2.384
14127W        W73872  31.505   2.949  12.837
14128W        W73873  23.644  25.527  13.448
14129W        W73874   4.792  12.819  14.032
14130W        W73875   3.385   4.436  12.912
14131W        W73876  40.886  40.406  11.610
14132W        W73877  38.392  30.056   2.278
14133W        W73878  13.830  30.578  10.423
14134W        W73879  10.316   0.877   5.192
14135W        W73880  13.837  28.166   1.806
14136W        W73881  32.906   3.409  11.487
14137W        W73882   9.799  17.284  11.899
14138W        W73883  27.674  19.764  10.458
14139W        W73884  37.006  18.634  10.443
14140W        W73885  21.674  32.397   3.747
14141W        W73886  23.133  37.405  10.099
14142W        W73887  28.620  44.396  12.836
14143W        W73888  10.356   7.363  13.332
14144W        W73889  43.275  15.598   1.431
14145W        W73890  30.979  35.374  14.968
14146W        W73891  26.056  29.023  10.056
14147W        W73892  14.695   1.957   2.295
14148W        W73893   7.739  10.801   2.812
14149W        W73894  38.328  39.842  10.477
14150W        W73895   2.449  44.466   0.410
14151W        W73896  37.556  17.759  10.420
14152W        W73897  15.242  30.475  14.000
14153W        W73898  44.502  38.019  12.010
14154W        W73899   4.727   5.217  11.124
14155W        W73900  44.990  23.062   0.782
14156W        W73901  36.459  42.959   4.666
14157W        W73902  23.203   1.334  14.353
14158W        W73903  41.303  41.919   1.409
14159W        W73904  27.634  19.039   1.919
14160W        W73905  34.937  20.543   1.320
14161W        W73906   3.217  16.265   2.297
14162W        W73907  16.800  24.086  14.379
14163W        W73908  38.833  25.134   1.754
14164W        W73909   3.936  33.097  12.496
14165W        W73910  11.711  21.599   3.644
14166W        W73911  33.482   0.792  11.469
14167W        W73912  37.956  15.760   0.378
14168W        W73913  34.981  42.337   1.364
14169W        W73914  27.068  10.170  11.491
14170W        W73915  33.391  23.638  14.485
14171W        W73916  33.616  30.983   2.346
14172W        W73917  27.958  32.016   4.624
14173W        W73918   2.250  28.946   5.648
14174W        W73919  21.626  20.053   4.729
14175W        W73920  29.102  12.274  14.425
14176W        W73921   7.673  13.755   3.340
14177W        W73922   8.402   0.262   0.797
14178W        W73923  37.022  20.066  11.871
14179W        W73924  37.486  27.995   2.810
14180W        W73925  23.526  44.357  14.494
14181W        W73926   2.750  24.150  11.466
14182W        W73927   9.790  12.697  12.829
14183W        W73928  18.754  11.349  11.603
14184W        W73929   9.766  30.102   3.378
14185W        W73930  35.079  42.373  13.457
14186W        W73931  34.510  40.343  12.404
14187W        W73932  17.246  26.042  11.128
14188W        W73933  19.535  40.427   1.412
14189W        W73934  43.277  44.854  14.893
14190W        W73935  23.610   1.784  13.398
14191W        W73936  23.172  40.469  12.960
14192W        W73937  44.952   9.813   4.606
14193W        W73938  17.698  21.071   1.349
14194W        W73939  38.976  36.476   0.355
14195W        W73940  21.648  19.618  12.495
14196W        W73941  24.039  35.102   0.420
14197W        W73942  10.173  44.815  10.999
14198W        W73943   2.321  14.256   0.479
14199W        W73944  27.610  25.653  12.875
14200W        W73945  37.937  25.499   3.784
14201W        W73946  44.297  11.640   3.801
14202W        W73947   1.845  33.921  10.925
14203W        W73948  39.339  23.019   4.129
14204W        W73949  22.678  44.452   1.895
14205W        W73950  35.026  36.018   5.246
14206W        W73951  25.560  19.698  13.495
14207W        W73952  32.629   3.313  13.828
14208W        W73953  14.731  27.660   1.930
14209W        W73954  24.593  30.606  14.360
14210W        W73955  42.838  37.894   0.327
14211W        W73956  40.541  14.260   2.679
14212W        W73957  30.069  19.124  11.461
14213W        W73958  14.716   9.828   4.730
14214W        W73959  16.756  41.446  13.845
14215W        W73960  16.771  30.574   4.655
14216W        W73961  10.283   6.833   0.919
14217W        W73962  30.654  19.244  13.514
14218W        W73963   3.781   7.356   9.976
14219W        W73964  42.824  32.559   0.436
14220W        W73965   6.684   4.818  11.035
14221W        W73966   0.946  38.358   5.746
14222W        W73967  43.397  25.677  13.877
14223W        W73968  44.858  25.495  12.350
14224W        W73969  29.465  12.848  13.374
14225W        W73970   4.288  34.017  11.541
14226W        W73971  44.435  23.495   4.729
14227W        W73972  43.380  20.243  10.001
14228W        W73973  33.578  21.146  13.433
14229W        W73974  11.732  10.211  13.515
14230W        W73975   5.348   9.199  12.345
14231W        W73976  30.996  34.908   0.727
14232W        W73977  27.055  44.500  10.979
14233W        W73978  32.971  10.341  11.576
14234W        W73979  19.267  22.571  13.906
14235W        W73980  29.440  18.610   4.203
14236W        W73981  10.205  30.511  12.850
14237W        W73982  16.724  21.530  14.288
14238W        W73983   1.356   8.258   0.963
14239W        W73984  25.013  36.902   0.354
14240W        W73985  18.275  13.669   1.336
14241W        W73986   8.327   6.760   1.404
14242W        W73987  25.486  15.727  11.055
14243W        W73988  17.624  41.357   3.808
14244W        W73989  16.133   5.887  10.632
14245W        W73990   1.284  36.880  11.967
14246W        W73991  20.565  15.627  12.992
14247W        W73992  10.186   7.703  13.507
14248W        W73993  42.808  29.930   1.767
14249W        W73994  36.351  33.526   1.755
14250W        W73995  30.557  27.619   2.202
14251W        W73996  30.949  37.885   1.281
14252W        W73997   9.672   6.841  13.320
14253W        W73998   4.251  25.499   0.868
14254W        W73999  17.192  40.851   1.900
14255W        W74000  38.898  17.766   1.779
14256W        W74001  25.115  34.063  12.963
14257W        W74002  31.433  33.033   0.351
14258W        W74003  40.959  42.482  13.496
14259W        W74004   4.821  38.051   3.363
14260W        W74005  21.657   7.222  13.049
14261W        W74006  41.909   9.302   2.889
14262W        W74007  35.957  10.228   4.328
14263W        W74008  29.126  22.581  10.048
14264W        W74009  38.481  15.222  11.409
14265W        W74010  32.545   0.888  11.486
14266W        W74011   5.245  44.284   2.680
14267W        W74012   5.865  25.505   4.186
14268W        W74013   2.468  19.613  14.760
14269W        W74014  16.754  34.502  12.571
14270W        W74015   9.821  12.236  12.929
14271W        W74016   4.206  41.479  14.327
14272W        W74017  27.128  22.636   0.343
14273W        W74018   5.790  41.469   2.709
14274W        W74019  30.065  13.205  11.979
14275W        W74020  17.093  11.205  14.395
14276W        W74021  12.642  19.098  10.411
14277W        W74022  41.427  30.484   3.736
14278W        W74023  28.987  29.987  11.382
14279W        W74024  22.050  21.679   1.308
14280W        W74025   2.319  37.866  11.966
14281W        W74026  37.935  39.989   1.882
14282W        W74027  30.443  11.714  10.906
14283W        W74028   6.210  21.090  12.465
14284W        W74029  43.997  17.734   4.146
14285W        W74030  37.443  44.445  13.990
14286W        W74031   9.338   1.766  14.284
14287W        W74032  37.862   7.361   3.745
14288W        W74033  20.583  11.653  13.455
14289W        W74034  23.158  44.475   4.352
14290W        W74035   4.395  27.082  12.380
14291W        W74036  13.197  27.476   2.827
14292W        W74037  27.460   2.387  12.538
14293W        W74038   8.189  18.679   3.146
14294W        W74039   1.249   7.341   1.837
14295W        W74040  36.545  29.961   2.740
14296W        W74041  44.377   4.735   5.272
14297W        W74042   0.417  22.118   2.783
14298W        W74043  17.720   9.259   4.698
14299W        W74044  21.073  25.495   0.747
14300W        W74045   2.727  22.996  12.479
14301W        W74046   8.838  35.436  14.329
14302W        W74047  27.608  33.953  12.945
14303W        W74048  32.964  43.849   1.296
14304W        W74049  37.382  12.343  12.458
14305W        W74050  30.067  25.049  13.370
14306W        W74051  33.989  40.857   3.740
14307W        W74052  27.117  40.981  11.101
14308W        W74053  19.231  15.732  13.397
14309W        W74054  12.156  41.989  11.472
14310W        W74055  35.870   6.790  14.348
14311W        W74056  27.144   3.883  13.877
14312W        W74057  17.705  15.815   1.713
14313W        W74058  24.626  13.777  13.047
14314W        W74059  16.243  11.787   4.170
14315W        W74060   9.831  28.670  10.900
14316W        W74061  43.388  14.678   3.775
14317W        W74062  14.313  36.374  14.977
14318W        W74063  31.029  22.069   2.358
14319W        W74064  13.197  22.659   4.643
14320W        W74065   8.889  16.268  13.012
14321W        W74066   9.391   2.819  14.933
14322W        W74067  41.962  13.332  10.492
14323W        W74068  28.109  21.188   5.140
14324W        W74069   3.299  25.146  12.838
14325W        W74070  40.910   6.860  13.050
14326W        W74071   5.727   8.257  14.472
14327W        W74072  19.070  10.244   3.767
14328W        W74073  30.104  30.998  13.858
14329W        W74074  28.474  44.794   1.215
14330W        W74075  17.697  34.098  12.544
14331W        W74076  21.527  38.505  12.520
14332W        W74077  28.089  10.804  10.624
14333W        W74078   8.210  20.637  13.460
14334W        W74079  31.647  26.488   2.373
14335W        W74080  31.412  28.537   1.276
14336W        W74081  28.554  10.158  13.429
14337W        W74082  22.607  22.049   3.777
14338W        W74083  13.805  35.566  11.999
14339W        W74084   5.217  22.572   0.247
14340W        W74085  30.147  28.073  10.572
14341W        W74086   0.269   4.210   4.663
14342W        W74087  33.465  13.233   3.830
14343W        W74088  37.056   0.295  10.421
14344W        W74089  42.381  42.004  11.570
14345W        W74090  17.202  17.072   2.848
14346W        W74091  28.936  14.637   4.802
14347W        W74092  15.799  15.783  11.955
14348W        W74093  26.991  19.780   1.795
14349W        W74094  10.215  26.684   2.883
14350W        W74095  10.368  23.209   1.905
14351W        W74096  10.261   4.854   0.285
14352W        W74097  29.962   3.390   2.378
14353W        W74098  41.831   1.275  14.834
14354W        W74099  34.421  10.164   2.856
14355W        W74100   4.236   8.379  13.356
14356W        W74101   9.322  43.830  14.944
14357W        W74102  27.595  15.085  11.884
14358W        W74103  21.681  39.062   0.776
14359W        W74104  43.294  40.381  13.418
14360W        W74105  19.285  36.463  11.122
14361W        W74106  30.623  27.594  14.896
14362W        W74107  39.978  20.178   3.683
14363W        W74108   9.244  10.190   0.452
14364W        W74109  35.003  21.025  14.333
14365W        W74110  40.999  11.782  10.525
14366W        W74111   3.790   9.716  14.944
14367W        W74112  27.151  17.628  12.044
14368W        W74113  13.186  12.194  10.940
14369W        W74114  11.345  10.191  13.870
14370W        W74115   2.434  15.659  13.951
14371W        W74116  43.503  27.456  11.490
14372W        W74117  11.134  25.582  13.874
14373W        W74118  41.342  40.308  11.384
14374W        W74119  44.445  43.961  11.495
14375W        W74120  33.556  28.539  14.788
14376W        W74121  26.033   7.817  12.573
14377W        W74122  24.529  36.453  12.868
14378W        W74123   4.266  24.620   3.237
14379W        W74124  33.934  29.139  13.325
14380W        W74125  13.643   0.877   4.302
14381W        W74126  38.351  29.112  13.396
14382W        W74127  14.755  33.101   0.312
14383W        W74128  44.342  15.715  14.818
14384W        W74129  38.861  29.062  10.011
14385W        W74130   4.799   7.709   4.781
14386W        W74131  21.253  31.620  14.762
14387W        W74132  31.427   8.239   0.817
14388W        W74133  36.469   2.853  14.873
14389W        W74134  30.503  14.158   2.184
14390W        W74135  18.092  39.482  12.830
14391W        W74136  41.919  38.988  12.350
14392W        W74137   3.785  37.405   3.331
14393W        W74138  16.681  33.626  13.402
14394W        W74139  31.146  18.164  13.933
14395W        W74140  37.057   5.262  13.033
14396W        W74141  10.675   5.794  10.471
14397W        W74142  26.522   5.285   4.165
14398W        W74143  28.101   7.395   3.328
14399W        W74144   0.431  23.686  13.330
14400W        W74145   8.684  41.488  13.059
14401W        W74146  43.354   9.250  10.960
14402W        W74147  20.530  26.103  13.946
14403W        W74148  14.185  29.957  14.790
14404W        W74149  42.002  16.729  11.396
14405W        W74150  11.712  25.067   2.202
14406W        W74151  19.678   5.842   0.818
14407W        W74152  29.020  21.059   3.166
14408W        W74153   4.363  28.167  11.103
14409W        W74154  23.190  43.298  13.334
14410W        W74155  32.504  20.041  12.440
14411W        W74156   9.660  30.451   4.227
14412W        W74157  38.933  39.940   1.303
14413W        W74158  25.472   8.794  12.941
14414W        W74159   7.803   9.208   1.792
14415W        W74160  27.065  39.046   0.877
14416W        W74161   6.824  11.759   2.889
14417W        W74162  13.787  12.268  13.915
14418W        W74163  25.650   2.722   1.248
14419W        W74164  13.151   4.927   3.288
14420W        W74165  30.966  29.470   4.714
14421W        W74166  43.010  30.559   1.381
14422W        W74167   0.764  17.306   0.790
14423W        W74168  35.970  31.977   0.428
14424W        W74169  31.015  17.214  12.484
14425W        W74170  20.595  13.194   0.282
14426W        W74171  25.972  32.588  14.875
14427W        W74172   5.816  23.232   3.284
14428W        W74173  29.934  37.518  11.937
14429W        W74174  20.251   0.398  12.441
14430W        W74175  38.834  10.797  13.365
14431W        W74176  16.757  37.982   2.805
14432W        W74177  15.195  40.904  12.474
14433W        W74178  43.474  23.566  14.450
14434W        W74179  11.784  31.152  11.588
14435W        W74180  18.644  10.744   4.310
14436W        W74181  23.100   2.827  10.631
14437W        W74182  24.033  23.704   0.744
14438W        W74183  32.550  21.599   4.230
14439W        W74184  24.662  41.986  10.636
14440W        W74185  19.244  39.938  14.798
14441W        W74186  33.497  44.840  14.785
14442W        W74187  33.014  10.163   1.835
14443W        W74188  12.840  26.564   4.241
14444W        W74189  14.165  29.092  12.387
14445W        W74190  30.519  20.274  13.447
14446W        W74191  30.002  30.591   2.355
14447W        W74192  41.432  27.977   0.305
14448W        W74193  35.873   3.438  13.508
14449W        W74194  41.361  29.012   2.833
14450W        W74195  39.854  17.100  12.494
14451W        W74196  21.042  42.295   1.238
14452W        W74197  24.135  22.063   0.269
14453W        W74198  44.481  16.111   4.694
14454W        W74199  15.589  28.069   3.189
14455W        W74200  23.056   9.822  13.324
14456W        W74201  19.097  38.894  11.548
14457W        W74202  37.578  27.943   5.105
14458W        W74203  32.464  31.120   4.268
14459W        W74204  14.157  22.614  13.007
14460W        W74205  14.628  42.501  13.050
14461W        W74206  13.626  43.827  12.433
14462W        W74207  43.797  14.109   2.842
14463W        W74208  11.301  21.712  13.844
14464W        W74209  30.496  16.115  11.428
14465W        W74210  40.502  38.955   2.890
14466W        W74211  24.593  34.458   0.730
14467W        W74212  37.920  26.151   4.619
14468W        W74213  22.086  31.085   4.350
14469W        W74214  33.130   2.790  12.396
14470W        W74215  19.561  18.147  12.564
14471W        W74216  16.135  30.416   3.759
14472W        W74217  42.032  21.192  14.783
14473W        W74218  14.624  35.977  14.515
14474W        W74219   2.734  15.671   4.297
14475W        W74220  44.422  36.478   0.838
14476W        W74221  33.544  17.260  13.405
14477W        W74222  43.289  13.743   2.304
14478W        W74223  35.363   8.352   2.696
14479W        W74224  42.289   0.339   0.338
14480W        W74225   6.242   8.237   1.415
14481W        W74226  39.906  17.187   3.860
14482W        W74227  35.478  24.611  12.830
14483W        W74228  31.002  27.557  14.403
14484W        W74229  27.020  30.998   4.270
14485W        W74230  30.937  13.676  11.977
14486W        W74231   5.310  10.384   3.372
14487W        W74232  44.809  32.428   5.253
14488W        W74233  17.117  36.842  11.120
14489W        W74234  13.118  36.964  12.464
14490W        W74235  18.592   4.271   1.769
14491W        W74236  11.704  38.935   4.167
14492W        W74237  44.768  19.261  14.275
14493W        W74238  19.157  12.836  10.502
14494W        W74239  35.526  41.417  13.899
14495W        W74240  23.231  11.285   2.259
14496W        W74241   5.213   0.752   1.898
14497W        W74242   3.876  32.073  11.982
14498W        W74243  20.750   8.843  14.942
14499W        W74244  36.414  22.250   0.857
14500W        W74245   7.223  40.340   1.705
14501W        W74246  12.235  34.454  10.455
14502W        W74247  27.084  20.039   3.850
14503W        W74248  13.811  39.377  13.971
14504W        W74249   5.213   4.806  11.100
14505W        W74250  16.585  12.771  11.876
14506W        W74251  41.527   3.269   4.665
14507W        W74252  27.079   5.758  14.513
14508W        W74253   9.771   0.866   2.704
14509W        W74254  21.157  39.917  11.877
14510W        W74255  42.785  35.558  14.847
14511W        W74256  31.897   6.855  12.047
14512W        W74257   9.219  15.722   2.755
14513W        W74258  42.400   1.738  12.545
14514W        W74259   2.856  24.078  11.889
14515W        W74260  34.080  22.011  13.043
14516W        W74261  27.500  27.645  13.829
14517W        W74262  41.369  17.700   2.268
14518W        W74263   5.433  42.841   2.706
14519W        W74264   2.272   0.841   2.835
14520W        W74265  29.037  15.589  11.547
14521W        W74266  20.100  14.264   4.616
14522W        W74267  32.983   9.889  12.862
14523W        W74268  32.513   0.361  10.471
14524W        W74269  39.426   2.908   2.793
14525W        W74270  13.772  27.067   4.176
14526W        W74271  24.549  29.925  13.445
14527W        W74272  14.203  36.041  11.063
14528W        W74273  31.498  41.808  11.055
14529W        W74274   0.424   6.327  14.354
14530W        W74275  44.269  44.318   3.352
14531W        W74276  19.653  16.694   4.657
14532W        W74277   4.863  14.177   2.831
14533W        W74278  17.291  36.905  10.590
14534W        W74279  17.192  40.882   3.692
14535W        W74280  32.486  20.192   1.803
14536W        W74281  20.551  41.808   2.333
14537W        W74282   0.304  27.153   2.704
14538W        W74283   2.453   3.930   1.748
14539W        W74284  39.815  43.392   0.822
14540W        W74285  43.431  30.940   4.672
14541W        W74286  15.682   2.369  14.397
14542W        W74287  23.187  15.151   1.211
14543W        W74288  25.564  13.692  13.984
14544W        W74289  39.360  20.075   4.130
14545W        W74290  44.953  34.534   0.954
14546W        W74291  35.996  20.257   9.534
14547W        W74292  35.560   2.923   1.742
14548W        W74293   9.361  16.269   4.773
14549W        W74294  28.435  17.252   0.915
14550W        W74295  17.798  21.606   0.772
14551W        W74296  29.098  17.070   3.384
14552W        W74297  19.185  14.781   3.222
14553W        W74298  43.318  40.993   0.773
14554W        W74299  12.618  12.790  13.547
14555W        W74300  36.481   6.321   3.708
14556W        W74301   0.368  18.219   0.781
14557W        W74302   5.778  40.813   0.808
14558W        W74303  36.574   0.861   2.250
14559W        W74304  24.045   9.745   0.391
14560W        W74305  26.702  10.846  14.475
14561W        W74306  18.248  19.754  13.948
14562W        W74307  42.405  20.245   1.390
14563W        W74308   6.709  31.129  14.797
14564W        W74309  32.579  34.938   0.270
14565W        W74310  37.045  30.566   3.629
14566W        W74311  25.482  27.967  13.026
14567W        W74312  39.018  32.634  14.775
14568W        W74313  28.112   1.817  14.936
14569W        W74314  26.204  38.450  12.556
14570W        W74315  42.366   6.202  14.897
14571W        W74316  10.366   4.767   4.599
14572W        W74317  13.674  15.675   2.293
14573W        W74318  30.545   0.309  11.884
14574W        W74319  21.597  37.478  11.561
14575W        W74320   4.281  42.472   2.776
14576W        W74321  29.652   2.900   2.708
14577W        W74322  16.716   0.393  12.089
14578W        W74323  30.073  10.149   4.829
14579W        W74324   9.727   6.240   3.343
14580W        W74325  26.999  27.162  14.506
14581W        W74326   3.396   3.238  14.959
14582W        W74327  13.698  26.628  14.280
14583W        W74328  20.652  10.363  10.932
14584W        W74329  43.799  20.100   0.434
14585W        W74330   9.878  33.621  11.378
14586W        W74331   7.849   0.289   0.882
14587W        W74332  32.498   1.758  11.033
14588W        W74333  20.756  36.571   1.215
14589W        W74334  35.448  15.209  12.544
14590W        W74335  44.886  17.133   3.350
14591W        W74336  19.080  28.042   3.710
14592W        W74337   4.273  39.415  14.504
14593W        W74338  40.841  18.184  11.513
14594W        W74339   7.339  39.832  11.587
14595W        W74340  21.660  33.545  14.889
14596W        W74341  17.572  26.473   3.682
14597W        W74342   6.740   3.714  11.555
14598W        W74343  26.643  17.743  13.061
14599W        W74344  30.578  32.133  10.078
14600W        W74345  25.505  43.973   2.736
14601W        W74346  15.129  34.090  11.856
14602W        W74347  11.805   3.740  13.452
14603W        W74348  43.312  13.809   0.343
14604W        W74349  25.686   9.339  11.452
14605W        W74350  44.908  12.132  11.092
14606W        W74351  36.043  44.321   0.390
14607W        W74352  15.295  18.589  13.308
14608W        W74353  39.327   8.888   4.713
14609W        W74354  17.588  32.633  13.861
14610W        W74355  25.589   3.856  14.436
14611W        W74356  20.184  19.191  10.504
14612W        W74357  22.229  40.350   0.934
14613W        W74358  16.206  25.573  14.884
14614W        W74359  35.488   5.819  13.342
14615W        W74360  39.468  24.080  11.590
14616W        W74361   2.257  31.479  14.321
14617W        W74362  18.097  21.239   1.390
14618W        W74363  21.210   8.851  11.566
14619W        W74364  26.206  27.673  10.454
14620W        W74365  22.637  20.530   0.785
14621W        W74366  21.124  43.422   4.204
14622W        W74367  30.417  23.170   0.295
14623W        W74368  21.062  14.657   9.632
14624W        W74369   3.950  26.617   5.260
14625W        W74370   8.843   0.754   0.778
14626W        W74371  13.255  28.089  10.158
14627W        W74372  12.778  14.256  11.905
14628W        W74373  36.422  26.123   1.210
14629W        W74374   5.915  10.683  12.920
14630W        W74375  26.501  41.412   2.297
14631W        W74376  27.973  13.769   0.796
14632W        W74377  20.238  21.192  10.942
14633W        W74378  32.985  19.055  14.903
14634W        W74379  34.594  37.996   4.681
14635W        W74380   0.453  30.500   4.240
14636W        W74381  27.484  43.354  14.279
14637W        W74382   5.268  16.674   0.850
14638W        W74383  18.140  36.954  12.542
14639W        W74384  44.910  44.830  14.375
14640W        W74385  18.226   9.791   2.826
14641W        W74386  15.115  30.506   3.712
14642W        W74387  30.062   2.305  14.856
14643W        W74388  21.589  22.693   3.825
14644W        W74389  36.539  37.933  11.444
14645W        W74390  16.801  12.151  11.914
14646W        W74391  34.570  15.719   3.682
14647W        W74392  32.084  30.478   1.277
14648W        W74393  20.555  21.104  11.081
14649W        W74394  10.283  11.670   3.747
14650W        W74395   7.672   6.277  11.962
14651W        W74396  24.711   0.487   1.929
14652W        W74397   1.804  22.131   4.150
14653W        W74398  44.342  16.571   5.175
14654W        W74399  19.219  20.594  13.366
14655W        W74400  41.951  16.281   3.191
14656W        W74401  11.642  28.108   1.925
14657W        W74402  33.448  10.714  14.963
14658W        W74403  31.939  11.811  11.996
14659W        W74404  18.578   1.901  12.510
14660W        W74405  31.997  18.584  13.352
14661W        W74406  36.476   0.257  12.428
14662W        W74407  38.360  33.074  12.564
14663W        W74408  40.856  19.198  11.983
14664W        W74409  39.992  12.842   0.267
14665W        W74410  34.908  40.878   4.170
14666W        W74411   5.343   5.910   4.597
14667W        W74412  36.438  37.477  12.070
14668W        W74413  15.305  42.989  14.324
14669W        W74414  14.336  18.265   0.324
14670W        W74415  39.322   0.369   3.773
14671W        W74416  43.455  14.249  10.588
14672W        W74417   9.297  38.820   3.679
14673W        W74418  32.585   3.340   3.649
14674W        W74419   0.489  25.164   2.239
14675W        W74420   2.273  42.399   2.818
14676W        W74421  37.982   1.279   3.148
14677W        W74422  22.730  35.045  14.448
14678W        W74423  12.630  26.086   3.653
14679W        W74424  27.100  23.196  12.922
14680W        W74425   2.449  10.229  13.856
14681W        W74426  41.789  37.430  12.415
14682W        W74427  29.064  41.020   2.204
14683W        W74428  32.460  37.885   4.662
14684W        W74429  43.910  22.542   1.908
14685W        W74430  20.530  30.625   3.213
14686W        W74431   2.420  14.764   3.670
14687W        W74432  16.674   8.896   5.257
14688W        W74433  19.613  23.663  10.984
14689W        W74434   6.427  15.121  14.931
14690W        W74435  17.139  13.633   2.181
14691W        W74436   7.394  32.019  10.926
14692W        W74437  25.612   3.790   2.198
14693W        W74438   1.813  21.702  10.484
14694W        W74439   2.748   0.904   0.392
14695W        W74440  29.051  33.418  11.499
14696W        W74441  34.955  11.833  14.003
14697W        W74442  39.496  44.000  10.571
14698W        W74443  18.666  33.037  13.407
14699W        W74444  15.579  14.273  13.803
14700W        W74445  27.590  19.266   3.701
14701W        W74446  27.495  35.481   0.322
14702W        W74447  33.461  12.669  12.007
14703W        W74448   4.899  40.964   3.763
14704W        W74449  10.146   9.679   3.772
14705W        W74450  15.272  20.594  12.505
14706W        W74451  32.113  42.972  14.776
14707W        W74452  16.756  43.976  10.464
14708W        W74453  31.462  12.802  12.563
14709W        W74454   9.374   8.713   4.342
14710W        W74455  23.609  20.096   0.458
14711W        W74456  27.948  19.664   0.930
14712W        W74457  30.525  34.081   1.226
14713W        W74458  36.966   0.987   4.184
14714W        W74459   0.464   5.290  10.634
14715W        W74460  26.466  22.740   0.870
14716W        W74461  17.107  12.854   0.369
14717W        W74462   0.786  39.889  11.527
14718W        W74463  43.923  33.397  14.934
14719W        W74464  36.987   8.709   1.724
14720W        W74465  15.704  21.023  11.437
14721W        W74466  14.648  32.564   4.283
14722W        W74467   4.209  37.566  14.987
14723W        W74468  42.398  15.310   2.789
14724W        W74469  14.788  19.730  13.318
14725W        W74470   2.401  30.137   5.668
14726W        W74471  19.717   3.264  10.464
14727W        W74472  14.245  38.842  11.021
14728W        W74473  10.301  35.537   2.283
14729W        W74474   8.716   0.979   1.319
14730W        W74475  23.639  13.697   1.795
14731W        W74476   3.898  41.899  13.326
14732W        W74477  11.755  25.065  12.499
14733W        W74478  14.105  19.616  13.994
14734W        W74479  44.260  27.557  12.095
14735W        W74480  21.598  28.653   3.632
14736W        W74481   6.237   3.900  12.989
14737W        W74482  36.384   3.425  14.430
14738W        W74483  44.943  15.276   0.328
14739W        W74484  38.566  23.568  13.529
14740W        W74485  24.529  28.999  14.916
14741W        W74486  33.944  15.105  12.030
14742W        W74487  22.590  25.470  12.942
14743W        W74488  24.543  32.522   0.400
14744W        W74489  41.968   0.440   1.273
14745W        W74490  21.553   1.302  10.436
14746W        W74491   6.885   0.909  10.977
14747W        W74492   8.171  43.817  11.923
14748W        W74493  18.052  12.335  13.862
14749W        W74494  28.590   3.400   2.302
14750W        W74495   9.697  18.225   4.799
14751W        W74496   3.809   0.281   0.921
14752W        W74497  16.186  42.429   2.283
14753W        W74498  22.611  19.676   5.243
14754W        W74499  36.049  42.454   3.657
14755W        W74500   5.399  19.126   3.190
14756W        W74501   6.743  38.486  12.031
14757W        W74502  38.435   4.744  11.382
14758W        W74503   4.847  28.471  14.808
14759W        W74504  11.153   1.907  12.396
14760W        W74505  17.242  31.062  13.960
14761W        W74506  13.617  30.126   3.156
14762W        W74507  20.157  31.077  11.050
14763W        W74508  24.508  10.216   2.182
14764W        W74509   4.757  39.994   0.483
14765W        W74510  35.044   8.180   3.744
14766W        W74511  12.780  42.900   2.723
14767W        W74512   4.759   0.898   5.127
14768W        W74513  41.828  41.906  13.996
14769W        W74514  30.495  22.517  10.498
14770W        W74515   5.241   5.786  10.609
14771W        W74516  44.838   6.228   1.902
14772W        W74517  42.495  10.280   2.824
14773W        W74518   3.811  14.784  14.788
14774W        W74519  21.255   9.807   3.229
14775W        W74520  32.886  27.015  12.052
14776W        W74521  24.627   7.358  11.611
14777W        W74522   7.714   9.197  13.397
14778W        W74523   2.800  41.330   1.341
14779W        W74524  13.261  23.630  11.040
14780W        W74525   0.829  11.299  13.046
14781W        W74526  34.558  24.212   2.222
14782W        W74527  36.419  27.093   0.248
14783W        W74528  42.861  28.597  14.405
14784W        W74529  30.990  17.165  13.383
14785W        W74530  31.571  18.204  14.969
14786W        W74531   8.269  37.490  14.299
14787W        W74532  36.918   7.196   0.743
14788W        W74533  23.551   0.369  11.957
14789W        W74534  43.365  39.015  10.622
14790W        W74535  38.903  17.241  12.011
14791W        W74536  12.344  22.513   3.744
14792W        W74537  34.987  27.075   1.334
14793W        W74538  44.438   3.461  12.928
14794W        W74539  18.703   4.717   1.910
14795W        W74540   5.287  35.380   0.387
14796W        W74541  22.036  15.802  10.127
14797W        W74542  11.649  25.534   4.829
14798W        W74543  24.615  23.135  11.935
14799W        W74544  28.510  21.065   1.213
14800W        W74545  22.726  13.716   1.723
14801W        W74546  44.823  30.535   2.299
14802W        W74547  20.054  15.735  14.425
14803W        W74548  33.435   8.736  14.832
14804W        W74549  36.541  12.616   2.867
14805W        W74550   8.847  10.849  12.921
14806W        W74551  29.432  26.622   9.998
14807W        W74552   8.260  13.126  14.323
14808W        W74553   6.871  16.269  10.609
14809W        W74554  29.515  18.684   3.675
14810W        W74555  41.392  29.136  13.412
14811W        W74556  44.986   8.714   1.720
14812W        W74557  25.528  38.924   1.916
14813W        W74558  10.759   3.754  13.471
14814W        W74559  30.537  34.915   4.181
14815W        W74560  26.464  32.479  14.798
14816W        W74561   8.240  40.958  10.499
14817W        W74562  11.828  14.232  11.965
14818W        W74563  33.461  34.934  14.020
14819W        W74564   1.238   3.282   2.898
14820W        W74565  26.955  42.375  11.107
14821W        W74566  10.705  13.347  14.459
14822W        W74567   4.801  13.155   2.814
14823W        W74568  20.177  40.469   0.319
14824W        W74569   8.192   9.253   3.691
14825W        W74570  33.916   3.405   0.386
14826W        W74571  34.047  41.378  11.042
14827W        W74572   7.272  27.081  11.039
14828W        W74573  23.984  40.995  12.432
14829W        W74574   5.914  13.726   2.398
14830W        W74575   5.406  21.036  11.022
14831W        W74576  15.726  35.509   1.839
14832W        W74577  22.637  24.711   2.771
14833W        W74578  11.184  38.019   0.830
14834W        W74579  31.931  39.993   4.650
14835W        W74580  24.102  39.373   1.893
14836W        W74581   1.260   7.249   3.822
14837W        W74582  43.959  25.667  13.963
14838W        W74583  17.743  24.570  14.351
14839W        W74584  24.583  36.047   0.936
14840W        W74585  20.687  31.506  10.480
14841W        W74586   9.693  34.880   0.326
14842W        W74587  28.027  43.991   1.330
14843W        W74588  44.886  40.513  11.407
14844W        W74589  39.848   9.302  11.932
14845W        W74590  12.210   8.352  11.860
14846W        W74591  44.460  36.432   4.823
14847W        W74592  35.365  40.928  14.943
14848W        W74593  44.792  31.941   0.927
14849W        W74594  17.183  39.062  10.581
14850W        W74595  12.182  33.420   1.846
14851W        W74596  29.061  39.419  11.486
14852W        W74597  38.413   9.380  14.926
14853W        W74598  19.205   5.813   0.297
14854W        W74599  20.072  22.651  10.109
14855W        W74600  15.182  40.918   1.216
14856W        W74601  16.239  13.724   0.880
14857W        W74602  43.818  25.535  14.827
14858W        W74603   3.215  21.727   4.789
14859W        W74604   9.656  16.093  12.054
14860W        W74605   9.228   0.332  11.031
14861W        W74606  17.062  33.563  13.809
14862W        W74607  16.744  13.623  11.076
14863W        W74608   5.786   4.756   2.763
14864W        W74609  10.162  14.320   2.247
14865W        W74610  22.009  42.995   0.451
14866W        W74611   9.726  15.658  13.883
14867W        W74612   5.384  36.992  13.002
14868W        W74613  16.659  22.500   4.809
14869W        W74614   0.327  26.101  11.906
14870W        W74615  33.516  36.058  12.506
14871W        W74616  30.133  44.350  13.362
14872W        W74617  11.364   9.311  10.927
14873W        W74618  44.950  26.667   0.955
14874W        W74619  32.390  22.119   4.810
14875W        W74620   3.400  30.561   0.745
14876W        W74621  32.971  15.758  13.973
14877W        W74622  24.059  29.654   2.883
14878W        W74623   8.687  36.930  11.383
14879W        W74624  30.993  10.225   4.267
14880W        W74625   8.725  16.259  13.855
14881W        W74626  38.858  44.403  14.399
14882W        W74627   3.326  44.290  12.467
14883W        W74628   1.300  14.215   5.112
14884W        W74629  38.498  33.050  13.454
14885W        W74630  29.107  14.681  13.468
14886W        W74631  13.105  22.251   3.629
14887W        W74632  40.523  38.956   0.298
14888W        W74633   0.362  28.093  11.857
14889W        W74634  22.666  35.521   1.745
14890W        W74635  41.318  41.871  13.342
14891W        W74636  38.035  15.694  13.373
14892W        W74637  13.800  40.018   3.346
14893W        W74638  44.321  36.071  12.377
14894W        W74639  12.289  39.468  10.524
14895W        W74640  24.159  21.028   0.835
14896W        W74641  36.404   8.349   3.723
14897W        W74642  21.211  30.415  14.480
14898W        W74643   8.322  37.015   3.734
14899W        W74644  42.481  33.963   0.831
14900W        W74645  28.468  13.297   4.322
14901W        W74646  12.793  38.501  13.418
14902W        W74647   3.931  22.516   4.319
14903W        W74648  41.970  30.629   1.406
14904W        W74649  20.558  16.243   0.276
14905W        W74650   1.422  15.784   0.763
14906W        W74651  14.283  41.477   2.828
14907W        W74652  32.886  12.636  13.323
14908W        W74653   8.217  40.543   2.286
14909W        W74654  38.527  40.998  11.968
14910W        W74655  38.344  19.209   3.869
14911W        W74656  36.882  38.840  10.534
14912W        W74657  13.745   8.330  14.332
14913W        W74658  31.420  26.654   1.285
14914W        W74659  35.421  17.098   2.356
14915W        W74660   5.204   7.280   3.158
14916W        W74661  25.968   5.787   0.825
14917W        W74662  29.102  41.491  12.557
14918W        W74663  17.087   4.787  11.030
14919W        W74664  24.689  29.552   0.945
14920W        W74665  37.984  41.787   3.769
14921W        W74666  18.127  10.815   0.391
14922W        W74667  40.424  14.652   1.365
14923W        W74668  20.678  31.996  10.139
14924W        W74669  19.537  10.680  12.530
14925W        W74670   3.297   4.326   0.787
14926W        W74671   8.270   1.321  11.122
14927W        W74672  38.016  32.590  11.939
14928W        W74673   1.282  17.170   9.659
14929W        W74674  24.180   6.715  14.445
14930W        W74675  23.239  18.550   2.226
14931W        W74676  41.878   0.475   0.886
14932W        W74677  23.616   0.754  13.936
14933W        W74678  42.856  37.485  13.529
14934W        W74679  10.150   2.460   5.230
14935W        W74680  32.494  23.991  14.869
14936W        W74681  21.112  39.006  11.123
14937W        W74682   5.736  30.082  13.488
14938W        W74683  33.884  40.303  13.371
14939W        W74684   6.392  33.553  11.594
14940W        W74685  44.412   9.358   1.241
14941W        W74686  16.734  32.605   4.690
14942W        W74687  35.480  21.033   2.273
14943W        W74688   9.670  16.310  13.861
14944W        W74689  43.328   3.721  11.600
14945W        W74690  15.779   5.246   4.140
14946W        W74691  38.896  18.698  11.883
14947W        W74692   2.920  11.804  12.870
14948W        W74693   5.798  21.055   1.803
14949W        W74694  20.543   3.382  14.994
14950W        W74695  37.541  28.450   2.312
14951W        W74696  37.451  38.879   4.677
14952W        W74697   4.236  33.497  14.293
14953W        W74698  33.445  17.209  11.379
14954W        W74699  11.820  38.071  10.626
14955W        W74700   0.905   9.176   1.330
14956W        W74701  39.976  12.319   0.945
14957W        W74702   4.865  34.395  13.547
14958W        W74703  21.640  39.851   2.277
14959W        W74704   0.938  12.743   1.856
14960W        W74705  43.294  40.053  13.906
14961W        W74706  31.052   5.907   4.727
14962W        W74707  40.316  34.088   1.733
14963W        W74708   3.923  29.953  10.896
14964W        W74709  23.108   3.432   0.410
14965W        W74710   1.810  26.991   3.852
14966W        W74711  42.921   0.492   2.410
14967W        W74712  11.366   1.446   3.769
14968W        W74713  35.082  34.082   3.259
14969W        W74714  44.331  21.057  12.442
14970W        W74715  44.872  34.047   2.326
14971W        W74716  10.699  38.860   3.165
14972W        W74717  15.268  44.427  13.854
14973W        W74718  32.896  11.739  12.389
14974W        W74719   1.355  21.669   2.352
14975W        W74720  20.653   5.334  10.405
14976W        W74721  35.050  14.708   1.278
14977W        W74722  15.754   0.375  12.381
14978W        W74723  39.900  43.854   0.923
14979W        W74724  36.936  14.148  10.547
14980W        W74725  19.271  35.990  12.858
14981W        W74726  13.747  39.442   0.422
14982W        W74727  15.771  44.934   3.269
14983W        W74728  14.712  24.599   1.750
14984W        W74729  44.987  41.410  14.411
14985W        W74730  27.963   3.776  12.417
14986W        W74731  43.453  27.059  10.614
14987W        W74732  25.171  25.164   2.878
14988W        W74733  44.830  20.122  13.461
14989W        W74734   7.724  30.428  10.085
14990W        W74735  12.772  33.061   4.726
14991W        W74736   9.660  18.171   3.700
14992W        W74737  26.103   9.230  12.522
14993W        W74738  13.192  16.139   3.753
14994W        W74739  36.461  19.252  11.110
14995W        W74740  28.938  29.024   2.788
14996W        W74741   1.456   5.322   1.212
14997W        W74742  40.409  32.593  14.972
14998W        W74743   0.401  21.033   0.477
14999W        W74744   4.331  32.012   0.947
15000W        W74745  33.954  14.215  10.571
15001W        W74746  32.604   2.924  13.546
15002W        W74747  32.562  32.914   3.678
15003W        W74748  26.959  23.634  14.370
15004W        W74749  36.993  31.073   3.243
15005W        W74750  17.255  24.487  14.882
15006W        W74751  34.513  40.456   3.230
15007W        W74752   5.770  43.920   0.935
15008W        W74753   1.861  28.972   0.839
15009W        W74754  42.780  19.236   4.233
15010W        W74755  22.038  10.320  12.373
15011W        W74756  26.492   8.226   3.295
15012W        W74757  16.291  28.521   1.313
15013W        W74758  11.830  40.346  11.431
15014W        W74759   5.310  24.059  11.925
15015W        W74760  30.465  16.743  14.354
15016W        W74761  40.434  10.159   4.288
15017W        W74762  41.334  38.854   3.661
15018W        W74763  27.678  36.570  12.896
15019W        W74764  41.934  22.061  14.367
15020W        W74765   3.411   9.862   1.727
15021W        W74766  35.510   6.731   2.214
15022W        W74767  41.890  41.842  11.052
15023W        W74768   2.824   6.237  13.044
15024W        W74769  18.764  23.635   5.226
15025W        W74770  40.503   2.417   4.333
15026W        W74771  25.680  42.859   3.851
15027W        W74772   7.888  44.816  10.516
15028W        W74773  37.003  42.348  12.414
15029W        W74774   3.364  18.599  14.456
15030W        W74775  29.051  24.558   1.730
15031W        W74776   5.887   1.883   2.842
15032W        W74777  33.555  11.141   4.828
15033W        W74778   3.413  39.449  13.414
15034W        W74779  20.722   0.449   3.292
15035W        W74780  41.866  11.730   2.264
15036W        W74781  40.514  44.313   1.773
15037W        W74782   5.315   0.471   4.119
15038W        W74783   9.213  22.634  12.423
15039W        W74784  33.384  13.812   0.277
15040W        W74785  15.295  16.791  10.461
15041W        W74786  31.417  16.197   2.329
15042W        W74787   1.832  14.697   4.824
15043W        W74788   2.884  36.455  11.580
15044W        W74789  27.511  12.841   3.695
15045W        W74790  34.588  20.683   4.271
15046W        W74791  33.488  26.037   2.418
15047W        W74792   6.912  32.913   4.134
15048W        W74793  19.584  26.691  11.545
15049W        W74794  18.275  32.611  14.422
15050W        W74795  13.194  21.570  11.901
15051W        W74796  19.090  41.390  13.492
15052W        W74797  16.593  31.450   1.907
15053W        W74798  31.015   0.399   4.616
15054W        W74799   5.850   9.884   2.321
15055W        W74800  13.229  40.931   2.280
15056W        W74801   7.875  16.275   4.650
15057W        W74802  16.268  20.252   0.869
15058W        W74803  16.310  39.904  10.906
15059W        W74804  24.093  23.180   3.222
15060W        W74805  28.083  43.366  14.449
15061W        W74806   7.800  29.668   2.307
15062W        W74807  41.895   2.274  10.469
15063W        W74808   5.930  13.664   3.254
15064W        W74809  21.532  26.136   4.251
15065W        W74810  39.465  19.215  14.966
15066W        W74811   3.788  22.162  13.507
15067W        W74812  30.576  43.850  13.978
15068W        W74813  44.324  16.290  10.121
15069W        W74814  34.881  36.588   0.333
15070W        W74815  35.932  13.631   3.282
15071W        W74816  12.830  24.518   0.470
15072W        W74817  24.677  14.832   1.228
15073W        W74818  23.168  24.567  11.066
15074W        W74819  26.600  41.501  13.802
15075W        W74820  10.747  22.720   9.939
15076W        W74821   9.836  45.000  10.455
15077W        W74822   1.924  37.357   2.315
15078W        W74823   8.221  40.972  13.331
15079W        W74824   8.206   1.387  13.458
15080W        W74825  30.013  29.613   0.863
15081W        W74826  32.142  18.600  12.857
15082W        W74827   6.236  18.711  10.941
15083W        W74828  10.366   7.266  12.987
15084W        W74829  23.539  30.940  14.008
15085W        W74830  10.350  33.119   9.970
15086W        W74831  11.867  25.159  14.468
15087W        W74832  23.644   4.860  12.086
15088W        W74833  18.071  12.764   1.314
15089W        W74834  21.706  38.465   3.834
15090W        W74835  34.977  41.828  14.922
15091W        W74836  14.237  39.841   0.880
15092W        W74837  43.336  29.123   1.328
15093W        W74838   2.328   4.271  14.398
15094W        W74839  22.242  10.199   1.429
15095W        W74840  25.470   8.667  14.383
15096W        W74841  14.155  11.831  12.933
15097W        W74842  15.729   6.226   5.309
15098W        W74843  22.234  36.576  11.433
15099W        W74844   7.879  21.207  14.958
15100W        W74845  27.547  20.567  14.335
15101W        W74846  11.130  26.598   2.691
15102W        W74847  30.164  38.446  14.332
15103W        W74848  42.469   6.349  14.414
15104W        W74849  26.564   9.667  13.462
15105W        W74850  24.511   3.326   0.743
15106W        W74851  26.557  24.213  11.065
15107W        W74852   7.172  30.002   0.307
15108W        W74853  29.473   2.935   1.387
15109W        W74854  42.287  17.702   0.740
15110W        W74855  29.469  21.098  10.578
15111W        W74856  41.448  34.012   2.362
15112W        W74857  26.663  38.853  12.529
15113W        W74858  20.605  27.633   2.893
15114W        W74859  40.898  29.152  10.537
15115W        W74860   8.170   4.766   3.815
15116W        W74861  32.579  19.543   3.237
15117W        W74862  22.665  27.009  13.346
15118W        W74863  27.946  38.528   0.808
15119W        W74864   8.756  18.730   0.245
15120W        W74865  21.149   5.716   4.159
15121W        W74866   4.901  25.176   1.820
15122W        W74867   0.435  21.029  14.771
15123W        W74868   5.195  12.612  14.815
15124W        W74869   7.225  35.010   3.770
15125W        W74870  22.722  24.079   4.785
15126W        W74871  31.969  22.507   1.726
15127W        W74872  39.411  25.126   2.295
15128W        W74873  34.022   0.450   2.752
15129W        W74874  12.132  38.439  11.553
15130W        W74875  30.054  18.588  14.003
15131W        W74876   4.776   9.301   4.613
15132W        W74877   7.720   4.722  10.109
15133W        W74878   0.933  28.554  13.025
15134W        W74879   5.696  25.018   1.241
15135W        W74880  36.579   2.338   3.854
15136W        W74881  41.360   9.382   1.316
15137W        W74882   2.879  21.577   5.268
15138W        W74883  33.401  31.060  13.537
15139W        W74884  33.547  33.521  14.284
15140W        W74885   3.317  12.242  10.507
15141W        W74886  26.502   4.243   1.837
15142W        W74887   8.719   1.431  11.125
15143W        W74888  17.719   0.361   3.386
15144W        W74889   3.392  41.794   3.374
15145W        W74890  29.018   9.683   3.178
15146W        W74891  14.765  20.087   1.815
15147W        W74892  31.552  15.183  14.461
15148W        W74893  33.507  34.946  12.977
15149W        W74894  44.433  12.178   4.238
15150W        W74895  43.486  27.034  11.027
15151W        W74896   7.224   1.841  11.049
15152W        W74897  35.482  31.514  13.007
15153W        W74898  10.221  11.181  12.050
15154W        W74899  36.457   5.400   4.132
15155W        W74900  34.018  34.598  13.531
15156W        W74901  28.674   5.724  10.134
15157W        W74902  20.658  37.499  13.321
15158W        W74903  18.099  29.096  11.589
15159W        W74904  44.756  27.650   9.652
15160W        W74905  18.606  11.324   2.731
15161W        W74906   3.450  35.367   0.746
15162W        W74907  27.466  33.109   9.606
15163W        W74908  32.450  44.949   2.368
15164W        W74909  25.132  31.114   1.736
15165W        W74910  39.534  31.505   4.622
15166W        W74911   5.885  34.486   2.412
15167W        W74912   9.844  22.660  12.862
15168W        W74913   5.217  31.472   0.404
15169W        W74914  43.272  15.577   5.122
15170W        W74915   2.920  16.744  11.534
15171W        W74916  10.732  10.292  10.048
15172W        W74917  25.531  41.817   2.829
15173W        W74918   5.438  38.060  12.903
15174W        W74919  41.806   0.767  11.428
15175W        W74920  30.637   9.316  13.314
15176W        W74921  36.857   2.420   4.268
15177W        W74922   7.191  37.353   1.264
15178W        W74923   6.268  34.379   3.201
15179W        W74924  20.603  18.673  14.424
15180W        W74925  29.045  20.533   1.797
15181W        W74926   8.678  28.119   5.125
15182W        W74927  42.941  26.490   3.346
15183W        W74928  37.542  31.059  12.441
15184W        W74929  37.855  14.147  13.959
15185W        W74930  23.172  43.844   4.639
15186W        W74931  32.017  24.096  12.521
15187W        W74932  31.113  21.757   1.889
15188W        W74933  26.964  23.528  13.006
15189W        W74934   5.206  17.584  11.581
15190W        W74935  27.064  27.446  10.551
15191W        W74936   0.906  38.840   3.701
15192W        W74937  11.738  23.212  14.025
15193W        W74938  34.952  25.993   3.164
15194W        W74939  21.748   4.845   2.325
15195W        W74940  24.010  26.091  13.444
15196W        W74941  18.156  44.799   4.700
15197W        W74942   1.862  39.455  14.819
15198W        W74943   8.667  26.587   4.650
15199W        W74944  23.181   9.672  12.372
15200W        W74945   2.927  30.142  12.419
15201W        W74946  40.050  22.600   3.711
15202W        W74947  30.637  13.827  14.792
15203W        W74948   6.791  13.321   1.790
15204W        W74949  31.529  38.458   1.446
15205W        W74950  35.056  23.004   3.313
15206W        W74951   2.278   9.666  13.511
15207W        W74952  40.324  25.076  10.514
15208W        W74953  18.627   3.753   1.434
15209W        W74954   6.886  11.758  13.978
15210W        W74955  25.535  36.362   1.718
15211W        W74956  41.853  19.669  10.158
15212W        W74957  10.741  13.194  13.540
15213W        W74958  36.895   4.857  13.395
15214W        W74959  12.638  38.013   1.333
15215W        W74960  14.665  27.507   0.352
15216W        W74961  29.972  33.616  14.889
15217W        W74962  42.315   7.855   1.902
15218W        W74963  27.453  39.314   0.472
15219W        W74964   1.950  22.034   2.885
15220W        W74965  37.339   6.282   2.297
15221W        W74966  20.213  23.704   3.775
15222W        W74967  30.561  39.334   0.288
15223W        W74968  17.128  26.077   2.217
15224W        W74969  25.206  29.042   0.817
15225W        W74970  27.498  11.811  10.945
15226W        W74971  32.932  36.506   3.251
15227W        W74972  30.544   7.251   2.247
15228W        W74973  44.403  25.527  14.972
15229W        W74974  15.582  44.880  14.767
15230W        W74975  18.781  22.689   3.225
15231W        W74976   2.839  24.110  10.435
15232W        W74977   9.211   5.785  11.437
15233W        W74978   7.701   8.164  13.848
15234W        W74979  23.177  28.517  14.387
15235W        W74980  12.675   7.872  13.993
15236W        W74981  40.375  32.012   1.226
15237W        W74982  23.735  34.924  13.051
15238W        W74983   1.867   9.884  10.927
15239W        W74984   2.916  20.572   0.961
15240W        W74985  24.526  13.297   1.417
15241W        W74986  44.364  22.525  14.919
15242W        W74987  25.703   1.454   5.691
15243W        W74988  44.894  31.508   0.477
15244W        W74989  36.573  44.964   2.379
15245W        W74990  29.500   6.312  12.470
15246W        W74991   5.922   6.190   2.223
15247W        W74992  27.464  26.018   0.750
15248W        W74993  36.473  39.009   4.668
15249W        W74994  20.185   3.265  13.933
15250W        W74995   3.939  44.444  12.844
15251W        W74996  25.077   8.379   1.393
15252W        W74997  21.730   7.265   4.633
15253W        W74998  12.791  15.752  12.551
15254W        W74999  11.132  16.142   2.266
15255W        W75000  20.264   8.735  13.454
15256W        W75001  18.673   5.899  14.816
15257W        W75002  11.186  22.716   1.913
15258W        W75003  39.055  32.398   2.739
15259W        W75004  18.079  39.920   4.837
15260W        W75005  37.864  25.510   4.325
15261W        W75006  24.536   7.300   4.187
15262W        W75007   3.762  10.710  14.824
15263W        W75008  37.002  36.841   4.769
15264W        W75009   9.151  44.843   1.810
15265W        W75010  14.293   7.356   1.413
15266W        W75011  29.100   4.852   2.893
15267W        W75012  10.864   2.932   2.242
15268W        W75013  29.139  14.189  10.479
15269W        W75014  41.995  24.188   4.192
15270W        W75015   1.971  41.519  14.326
15271W        W75016  43.982   2.365  13.898
15272W        W75017  26.125  17.739   0.856
15273W        W75018  41.795   0.945   0.808
15274W        W75019  41.798   2.460   4.289
15275W        W75020  20.685   9.653   3.354
15276W        W75021  28.612  35.009   2.243
15277W        W75022  40.889  38.483   2.206
15278W        W75023  10.648   5.868  12.374
15279W        W75024  20.236  31.041   2.669
15280W        W75025   7.401   6.788   0.466
15281W        W75026   6.684   6.356  14.335
15282W        W75027  24.500  33.931   4.343
15283W        W75028  23.723   9.661   4.627
15284W        W75029   2.376  19.764   2.780
15285W        W75030  22.244  42.502  11.396
15286W        W75031   5.242  38.956  10.155
15287W        W75032  39.977   1.750  11.598
15288W        W75033  43.420  32.421   0.243
15289W        W75034  38.352  40.339   4.817
15290W        W75035  37.077  22.160   4.256
15291W        W75036  10.750   4.771  11.908
15292W        W75037  23.711  35.392   1.707
15293W        W75038   9.871  21.179   0.422
15294W        W75039   8.306  14.717   1.243
15295W        W75040  20.259  41.368   3.173
15296W        W75041  42.415  28.651   3.826
15297W        W75042  11.751  32.441   3.311
15298W        W75043   6.210  21.053  12.970
15299W        W75044  11.799   5.761   0.401
15300W        W75045  42.354   6.414   0.392
15301W        W75046   7.873  32.955   0.932
15302W        W75047  33.965  10.157  11.046
15303W        W75048  34.450  44.903   4.144
15304W        W75049  25.520   1.483   0.827
15305W        W75050  44.435  27.585  11.011
15306W        W75051  38.476  16.158  13.350
15307W        W75052  14.607  27.959  11.101
15308W        W75053   5.273  14.257  11.379
15309W        W75054  16.723  21.039   0.797
15310W        W75055  27.617  26.570  10.503
15311W        W75056  25.135   2.753  11.935
15312W        W75057  25.550  38.933   4.818
15313W        W75058  13.301  34.078   0.264
15314W        W75059  24.702  13.833   9.670
15315W        W75060  16.139   3.294   0.390
15316W        W75061  44.418  13.109   3.818
15317W        W75062   8.798  42.858  10.608
15318W        W75063  10.766  37.001   4.198
15319W        W75064  37.960  10.840  14.427
15320W        W75065  33.907   0.466  12.493
15321W        W75066  27.623  29.016  11.013
15322W        W75067  33.068  15.086   1.760
15323W        W75068  37.840  31.980  12.830
15324W        W75069  26.528  14.107  11.031
15325W        W75070  42.898  24.644   4.608
15326W        W75071  31.113   2.857   5.660
15327W        W75072  41.394  41.413   2.844
15328W        W75073  18.139  26.531  14.999
15329W        W75074  12.227  30.907  12.450
15330W        W75075   1.968   5.429   3.718
15331W        W75076   6.719  29.612   3.722
15332W        W75077   7.805  14.610   3.849
15333W        W75078  42.436   6.904  13.031
15334W        W75079  12.748  30.095  11.407
15335W        W75080   9.290  26.186  13.444
15336W        W75081   5.289  41.816  12.371
15337W        W75082  34.484  42.905  14.475
15338W        W75083  30.086  26.959   0.958
15339W        W75084  22.558  19.214  14.935
15340W        W75085  33.088  10.757   0.843
15341W        W75086   4.291  11.796   1.917
15342W        W75087  41.440   6.239   3.152
15343W        W75088  41.945  43.807  10.996
15344W        W75089  30.502  33.555  12.452
15345W        W75090  14.632  35.491   0.950
15346W        W75091  29.982  28.612   2.675
15347W        W75092  13.107  36.487   1.865
15348W        W75093  15.782  37.507  13.493
15349W        W75094  12.815  22.567  13.820
15350W        W75095  11.630  22.703   4.745
15351W        W75096  17.770   0.283   3.825
15352W        W75097   0.366  34.027  12.065
15353W        W75098  16.196  36.452   5.166
15354W        W75099  10.636  39.377   0.739
15355W        W75100  36.909   2.945  12.968
15356W        W75101  29.165  23.500   2.417
15357W        W75102  26.145  16.166  13.860
15358W        W75103  21.673  22.054  14.814
15359W        W75104  33.543  34.955  10.587
15360W        W75105  13.674  18.781   0.769
15361W        W75106  43.312  20.098   1.701
15362W        W75107  18.236  27.020   2.693
15363W        W75108   8.706  37.497  13.471
15364W        W75109  30.038  34.072  12.852
15365W        W75110  39.355   0.436   4.622
15366W        W75111   9.724   3.223  12.030
15367W        W75112  36.944  21.637   0.927
15368W        W75113  16.704  17.139  12.880
15369W        W75114   7.194  28.986  11.977
15370W        W75115  13.149  18.257   4.806
15371W        W75116  25.155  42.326  13.861
15372W        W75117   9.376   5.877  11.932
15373W        W75118  40.433  12.619   0.303
15374W        W75119  34.405  42.325   4.685
15375W        W75120  36.420   4.240  13.461
15376W        W75121  31.043   7.202  13.314
15377W        W75122  16.157  34.984  13.480
15378W        W75123  14.638  40.928   1.426
15379W        W75124  34.967  29.935   4.791
15380W        W75125   6.254  44.311  13.392
15381W        W75126   0.915  15.745   4.321
15382W        W75127   4.770  10.658  11.897
15383W        W75128   2.250  22.603  13.812
15384W        W75129  24.144  39.942   0.329
15385W        W75130  29.640  20.083   1.795
15386W        W75131  39.942  19.694  13.886
15387W        W75132  15.736   4.436  13.886
15388W        W75133  29.114  44.999   4.262
15389W        W75134  16.779  22.739  11.968
15390W        W75135  15.797  18.236   4.798
15391W        W75136  21.586  11.322  12.352
15392W        W75137  38.435  34.059   4.193
15393W        W75138  36.372   3.834   4.771
15394W        W75139  11.721   1.951  13.356
15395W        W75140  34.080   6.277   2.277
15396W        W75141  39.952  25.077   3.354
15397W        W75142   2.932  35.421   0.251
15398W        W75143  37.378  23.647   0.775
15399W        W75144  32.903  32.627  10.017
15400W        W75145  32.578  25.574  11.983
15401W        W75146  24.226  36.502   2.767
15402W        W75147  22.546   8.293  11.009
15403W        W75148   1.784  38.995   5.232
15404W        W75149  15.679  11.329  14.935
15405W        W75150   9.319  17.792   4.677
15406W        W75151  20.036  37.477   3.372
15407W        W75152  35.596   5.231   1.909
15408W        W75153  25.134   3.310  12.377
15409W        W75154  15.285  11.160  11.895
15410W        W75155   9.800  24.617   3.206
15411W        W75156  42.402  39.866  12.414
15412W        W75157  35.362  41.963  11.077
15413W        W75158  38.040  14.317   2.873
15414W        W75159  35.911  35.495  14.877
15415W        W75160  36.999  38.941  14.950
15416W        W75161  32.509  23.142   3.822
15417W        W75162  41.473  26.107   4.600
15418W        W75163   9.835  26.055   0.935
15419W        W75164  17.124   1.284  13.441
15420W        W75165  42.303  26.034  14.434
15421W        W75166  17.698   3.299  10.156
15422W        W75167  10.359  38.972   4.696
15423W        W75168  25.574  15.179   0.468
15424W        W75169  15.099  32.407   4.769
15425W        W75170   3.291  18.668   3.233
15426W        W75171   6.275  35.417   0.859
15427W        W75172   9.666  41.405   1.701
15428W        W75173   7.278   4.204  12.900
15429W        W75174  11.765  38.467   9.954
15430W        W75175  18.740  21.135  10.012
15431W        W75176   5.379   6.721  14.516
15432W        W75177  36.363  34.433  12.369
15433W        W75178   6.414  27.667  14.960
15434W        W75179   2.767  17.729   0.248
15435W        W75180  26.560  41.016   4.796
15436W        W75181  14.170   4.701  13.438
15437W        W75182  20.095  36.879   3.749
15438W        W75183  24.682  25.103  11.945
15439W        W75184  37.521  35.984  12.420
15440W        W75185  43.341  18.555  13.990
15441W        W75186  35.931  18.053   4.692
15442W        W75187  15.677  39.045   3.361
15443W        W75188   6.270  25.161   2.691
15444W        W75189  26.623  34.579  11.538
15445W        W75190  28.479   3.847   4.613
15446W        W75191  27.589  26.528   4.197
15447W        W75192  41.473  26.626  12.957
15448W        W75193  28.671  37.950  12.459
15449W        W75194   5.752   8.378  14.765
15450W        W75195   7.315  24.652   1.282
15451W        W75196  36.946   8.850  13.060
15452W        W75197  36.493   9.230  13.870
15453W        W75198  39.895  30.441  13.847
15454W        W75199   4.231   7.760  14.404
15455W        W75200  39.936   6.360  11.600
15456W        W75201  11.851  32.083   3.268
15457W        W75202   3.292   1.800  14.366
15458W        W75203  40.370   2.308  13.932
15459W        W75204  14.161  13.244   3.204
15460W        W75205   6.396   8.747  14.360
15461W        W75206   6.326   4.203   0.381
15462W        W75207  30.064  10.289  14.871
15463W        W75208  19.285   3.348   4.624
15464W        W75209  23.055  34.100   3.270
15465W        W75210  34.902  32.590   3.819
15466W        W75211  13.287  20.697  13.941
15467W        W75212  42.952  18.631  11.893
15468W        W75213  39.057  24.671   2.903
15469W        W75214  41.793   3.264   3.871
15470W        W75215  40.385  42.030  11.550
15471W        W75216  14.699   0.883  11.105
15472W        W75217  21.028  39.474   4.252
15473W        W75218  19.040  23.190  13.461
15474W        W75219  27.076  32.479   5.205
15475W        W75220  10.207  42.970  12.830
15476W        W75221   7.801  22.501   5.082
15477W        W75222   3.411  31.014  11.589
15478W        W75223  13.325  37.516   4.187
15479W        W75224  31.100  38.358   2.797
15480W        W75225   9.280   7.192  10.448
15481W        W75226  20.625  21.043   3.346
15482W        W75227  15.648  30.984   3.277
15483W        W75228   3.326   4.270  14.367
15484W        W75229   7.890   4.915   4.709
15485W        W75230  14.649   1.370  11.464
15486W        W75231   3.874  29.133   3.700
15487W        W75232   6.690   1.930  12.880
15488W        W75233   7.350  40.425  13.996
15489W        W75234  42.923  13.606  11.055
15490W        W75235  31.073   2.230   3.650
15491W        W75236  28.575  21.677   4.244
15492W        W75237  35.527  11.746  13.954
15493W        W75238   6.748  11.310  11.010
15494W        W75239  24.695  36.009   4.353
15495W        W75240  24.616  32.610  10.545
15496W        W75241  29.962  32.975   5.171
15497W        W75242  15.326  30.923  11.557
15498W        W75243  34.110  40.837   2.227
15499W        W75244   8.888   6.388   1.338
15500W        W75245  37.418  12.285   1.772
15501W        W75246  31.645  37.004   4.624
15502W        W75247  24.682  32.395  14.487
15503W        W75248   9.230  13.774  11.880
15504W        W75249  14.683  29.513  14.939
15505W        W75250  34.873  21.642  13.414
15506W        W75251   3.927  18.189   9.610
15507W        W75252   7.262  27.001  14.322
15508W        W75253  29.987  32.937  13.532
15509W        W75254  44.980  11.652  10.946
15510W        W75255  38.921  12.747  13.837
15511W        W75256  32.037  42.330   2.231
15512W        W75257  33.098  39.999   1.861
15513W        W75258  16.645  30.935   1.309
15514W        W75259  35.952  13.316  14.965
15515W        W75260  38.482  42.871  14.811
15516W        W75261  34.573  44.412   0.338
15517W        W75262   2.742  40.967  11.994
15518W        W75263  36.424  42.013  14.963
15519W        W75264   6.892  20.746  12.993
15520W        W75265  23.726   3.266  11.921
15521W        W75266  19.230  32.594  14.831
15522W        W75267  19.564  33.905   4.745
15523W        W75268  22.710   0.853  14.499
15524W        W75269  40.496  24.697   4.169
15525W        W75270  25.542  16.733  13.847
15526W        W75271  44.847   1.408  12.388
15527W        W75272  21.610  34.560   2.709
15528W        W75273   8.317  30.972  11.459
15529W        W75274  31.479   8.676   2.398
15530W        W75275  30.475  22.061   1.868
15531W        W75276  15.185  13.227   1.747
15532W        W75277  24.631  38.997   2.389
15533W        W75278  28.041   6.862   4.242
15534W        W75279  39.006  14.295  10.505
15535W        W75280  43.484  26.467   1.754
15536W        W75281  29.173  34.400   4.321
15537W        W75282   3.808  28.094  14.834
15538W        W75283  26.468  40.311  10.954
15539W        W75284  22.017   6.712   2.303
15540W        W75285  26.496  16.789  12.007
15541W        W75286  43.869  17.750   3.709
15542W        W75287   1.473  35.889   5.682
15543W        W75288  13.778  42.510  14.925
15544W        W75289  15.653  25.991   4.285
15545W        W75290  26.124  10.306  12.023
15546W        W75291  28.997  36.376  13.352
15547W        W75292  19.092  41.471  14.991
15548W        W75293  19.567   2.352   9.589
15549W        W75294   2.874  10.712   1.279
15550W        W75295  34.956  36.558  12.031
15551W        W75296  17.152  18.585   0.277
15552W        W75297  37.069  36.394   0.857
15553W        W75298  22.230   5.222  11.023
15554W        W75299   1.936  35.520   2.777
15555W        W75300  16.642  41.393   2.884
15556W        W75301  27.530  12.297  12.548
15557W        W75302  19.750  30.068   4.602
15558W        W75303  16.179  27.606   4.834
15559W        W75304  14.756  17.766   1.218
15560W        W75305   4.318  24.017   4.783
15561W        W75306  18.150   3.801  13.474
15562W        W75307  34.541  16.676  14.028
15563W        W75308  20.218  41.378  14.989
15564W        W75309  10.819  38.020   3.311
15565W        W75310  19.613  42.413   3.835
15566W        W75311   7.679  33.012   3.866
15567W        W75312  20.582  44.756   2.873
15568W        W75313  10.761   9.303  12.934
15569W        W75314  34.372  39.948  11.583
15570W        W75315  17.736  32.510   4.310
15571W        W75316  31.528  10.841   1.395
15572W        W75317  36.888  18.707  11.525
15573W        W75318  13.261   0.265  13.449
15574W        W75319  37.455  31.073   2.211
15575W        W75320  16.650  33.068  14.818
15576W        W75321  15.663  29.455  12.096
15577W        W75322  34.541   9.251  10.434
15578W        W75323  42.437   1.802   0.450
15579W        W75324  16.602   9.355  12.549
15580W        W75325  24.146   4.916  13.384
15581W        W75326  19.039  36.993  13.833
15582W        W75327   5.822  32.437  14.775
15583W        W75328  10.780  38.328  14.783
15584W        W75329  40.524   6.855  11.904
15585W        W75330  10.748  17.298   3.775
15586W        W75331  23.142  22.025   4.316
15587W        W75332   1.341  28.065  14.466
15588W        W75333  15.215  44.786  12.963
15589W        W75334   4.738   1.960  11.073
15590W        W75335  39.893  10.199   2.900
15591W        W75336  42.477  32.085   3.792
15592W        W75337  11.812   8.665   4.661
15593W        W75338  39.816  11.362  12.510
15594W        W75339  35.516  18.699   1.813
15595W        W75340  15.682  14.689  14.858
15596W        W75341  26.134  29.659   0.347
15597W        W75342  28.531  27.092  13.432
15598W        W75343  19.197  40.328  13.395
15599W        W75344   8.385  39.032   2.898
15600W        W75345  34.061  41.982  14.023
15601W        W75346   4.721  22.106   4.187
15602W        W75347  14.246  15.088  13.406
15603W        W75348  32.029  30.134  13.464
15604W        W75349  14.699  14.184   3.268
15605W        W75350  28.654   3.764   3.754
15606W        W75351  41.799  23.214   4.193
15607W        W75352  40.348  44.395  10.500
15608W        W75353  24.008  27.514  14.361
15609W        W75354   2.314  32.097  13.006
15610W        W75355  32.891  30.434  13.914
15611W        W75356  10.185  17.219  11.582
15612W        W75357   9.752   4.240   2.283
15613W        W75358  20.224   6.780  12.934
15614W        W75359  12.281  31.456   4.762
15615W        W75360  30.638  10.876   4.760
15616W        W75361  19.186   5.901   2.786
15617W        W75362  44.011  33.408   4.318
15618W        W75363  43.957  34.934   2.414
15619W        W75364   5.889  17.234   3.203
15620W        W75365  29.097  30.146   3.285
15621W        W75366  16.714  15.237   4.813
15622W        W75367  20.063  27.131  12.929
15623W        W75368  16.795  17.184  12.061
15624W        W75369   8.259  25.009   2.813
15625W        W75370   4.775  39.041   1.367
15626W        W75371  26.586   1.423  11.980
15627W        W75372  19.538  39.402   3.738
15628W        W75373  17.149   5.296  13.847
15629W        W75374   8.863  34.120  10.606
15630W        W75375  29.538  29.663   2.789
15631W        W75376  26.571   5.323  12.853
15632W        W75377  27.998   9.366  12.008
15633W        W75378  13.243   1.976  14.376
15634W        W75379  42.999  37.938   3.869
15635W        W75380   8.226  15.205   4.640
15636W        W75381  26.995  23.723  14.798
15637W        W75382  35.063  38.907  14.324
15638W        W75383   5.834   2.432  11.604
15639W        W75384  16.114  43.311   0.379
15640W        W75385  29.978  17.204  11.910
15641W        W75386   4.945  25.070  11.088
15642W        W75387   7.402  20.539  11.441
15643W        W75388  44.862   3.242  13.962
15644W        W75389  42.372  29.136   2.840
15645W        W75390   7.673  41.803  13.806
15646W        W75391  35.500   3.848  13.992
15647W        W75392   6.215   2.355   2.366
15648W        W75393  22.689  18.270   3.836
15649W        W75394  33.396  21.219  14.994
15650W        W75395  36.899  37.993   3.346
15651W        W75396  37.572  40.937  12.871
15652W        W75397  25.570  19.709   1.816
15653W        W75398   5.421  11.134  13.889
15654W        W75399   3.291  27.137   2.719
15655W        W75400  36.079  37.835  13.545
15656W        W75401   5.892  12.289   1.323
15657W        W75402  30.622  14.326   0.455
15658W        W75403   8.224  24.041   2.745
15659W        W75404   1.466  34.388   3.637
15660W        W75405  27.515  41.902  13.856
15661W        W75406  21.246  34.548   1.758
15662W        W75407  19.631   6.306   3.189
15663W        W75408   4.761  41.968  11.418
15664W        W75409  22.204   2.805  11.496
15665W        W75410  36.485  18.255  10.405
15666W        W75411   0.746  38.871  14.909
15667W        W75412  38.942   2.455  14.789
15668W        W75413  36.922  33.607   4.819
15669W        W75414  26.027  30.522   0.284
15670W        W75415  24.099   5.329  12.085
15671W        W75416  22.134  39.516  13.841
15672W        W75417  37.924  14.635   1.303
15673W        W75418  44.791   3.217  14.933
15674W        W75419   7.271   8.815  13.031
15675W        W75420   7.229  14.827  11.956
15676W        W75421  32.984  22.084  11.610
15677W        W75422  28.998  10.184   0.325
15678W        W75423  11.152  30.061  12.961
15679W        W75424  44.963  36.851  13.034
15680W        W75425  43.434  42.413   3.380
15681W        W75426  16.596  40.316   4.830
15682W        W75427  26.056  29.653  12.081
15683W        W75428  44.439  22.608   2.366
15684W        W75429  10.335  27.144   0.952
15685W        W75430  26.038   8.341  10.504
15686W        W75431  17.153  44.978  10.625
15687W        W75432   6.696   6.204   0.388
15688W        W75433  11.146  12.362   3.648
15689W        W75434  43.272  19.680   1.813
15690W        W75435  24.124  43.803  12.992
15691W        W75436   5.730  25.492  14.383
15692W        W75437  14.627  42.807  11.026
15693W        W75438  30.658  38.539   2.840
15694W        W75439  35.916  21.250  13.497
15695W        W75440  36.474  16.302   3.669
15696W        W75441  19.632  11.730  11.960
15697W        W75442   0.252  14.818   4.674
15698W        W75443  24.021  21.669   0.785
15699W        W75444  11.209  13.329  13.509
15700W        W75445  39.056  42.523   4.782
15701W        W75446  39.822  35.504  11.450
15702W        W75447  18.093   3.928   5.722
15703W        W75448  24.213  26.183   0.477
15704W        W75449  44.836  23.638  13.431
15705W        W75450  35.537  21.710   4.303
15706W        W75451   7.804  34.369  13.877
15707W        W75452  38.567   2.887   2.764
15708W        W75453  42.295   4.294  10.527
15709W        W75454   3.316   7.414  11.491
15710W        W75455  13.715  23.185  14.389
15711W        W75456  19.269   1.443  14.804
15712W        W75457  31.538   7.235  14.430
15713W        W75458  31.970  11.156   0.264
15714W        W75459  22.606  19.676   0.338
15715W        W75460  34.061  30.080  14.373
15716W        W75461  26.702   4.819  13.871
15717W        W75462  34.889   9.745  11.081
15718W        W75463  38.398  34.563  11.394
15719W        W75464   5.862   9.815  14.383
15720W        W75465  32.437  17.620   2.285
15721W        W75466  15.714  40.341   1.402
15722W        W75467  43.000   7.799   5.135
15723W        W75468  18.168   5.797   4.796
15724W        W75469  30.015  10.643   4.673
15725W        W75470   3.902  23.223  12.008
15726W        W75471  30.496  10.791   2.280
15727W        W75472  32.136  37.444  12.856
15728W        W75473  10.742  10.340   0.482
15729W        W75474  40.380  32.458  11.413
15730W        W75475  33.117  15.292  10.968
15731W        W75476  39.890  29.456  12.962
15732W        W75477   0.389   3.770  11.929
15733W        W75478  41.407  23.129   2.666
15734W        W75479  21.135  17.167   4.138
15735W        W75480  35.498  10.827   0.960
15736W        W75481  22.213  31.567  13.826
15737W        W75482   2.778  23.992  14.448
15738W        W75483  20.717   5.774  11.863
15739W        W75484  30.448  31.410  13.339
15740W        W75485  43.372  27.497  14.443
15741W        W75486  40.469  18.118  14.431
15742W        W75487  22.016  37.986  14.405
15743W        W75488  36.586   8.897  13.005
15744W        W75489   1.877  17.659   4.771
15745W        W75490   0.861   3.264  10.063
15746W        W75491  28.476  37.548  14.382
15747W        W75492  34.414  21.756  13.410
15748W        W75493   8.889   9.151  14.803
15749W        W75494  15.811  34.542  13.799
15750W        W75495   0.299   0.950  14.423
15751W        W75496   1.933  39.442  13.412
15752W        W75497  24.190  12.295  10.999
15753W        W75498   2.467  43.864  11.028
15754W        W75499   7.336  21.125  11.090
15755W        W75500  21.721  15.740  10.598
15756W        W75501  13.137  40.040  11.980
15757W        W75502  39.040  43.410   4.729
15758W        W75503   3.332  34.549   1.402
15759W        W75504   7.773  10.804  13.347
15760W        W75505  37.388  26.109   0.395
15761W        W75506  17.585   3.793  12.567
15762W        W75507  22.678  11.835  12.386
15763W        W75508  10.149  41.829   4.212
15764W        W75509   8.887   7.224  11.498
15765W        W75510  24.076  12.347  13.882
15766W        W75511  15.619  25.481  12.089
15767W        W75512  35.480  13.210  11.463
15768W        W75513  27.682  18.263  11.009
15769W        W75514   4.916  36.421  10.083
15770W        W75515  24.632  24.680  14.302
15771W        W75516  20.268   6.254  13.061
15772W        W75517   0.798  28.437   9.526
15773W        W75518  37.081  19.245  14.350
15774W        W75519  13.631  16.098  11.422
15775W        W75520   0.895  16.096   1.432
15776W        W75521  33.978  29.145   4.834
15777W        W75522  31.021  36.855  10.624
15778W        W75523  11.649  42.879   0.887
15779W        W75524  43.272  33.473   2.755
15780W        W75525  25.658  24.001  12.037
15781W        W75526  23.991   4.868  12.901
15782W        W75527  24.574  14.653  11.062
15783W        W75528   3.846  33.484   2.892
15784W        W75529   9.826  20.110  13.037
15785W        W75530  16.653  10.202   1.335
15786W        W75531  32.995   1.298   0.770
15787W        W75532  32.547   5.342  12.341
15788W        W75533  35.447   9.206   4.354
15789W        W75534  17.632  28.943  11.006
15790W        W75535  42.393  24.691  11.105
15791W        W75536  40.022  32.967   2.238
15792W        W75537  34.379  39.993   2.365
15793W        W75538  36.987  13.280   0.250
15794W        W75539   2.303  29.122   1.436
15795W        W75540  42.850  32.597   4.230
15796W        W75541  42.986  13.787   0.857
15797W        W75542  28.094  30.596  10.594
15798W        W75543  25.144  22.709   2.206
15799W        W75544  36.014  33.994   4.206
15800W        W75545  41.942  39.055   0.748
15801W        W75546  11.154  21.040   5.146
15802W        W75547   5.352  25.689   0.261
15803W        W75548  34.551   9.709  11.555
15804W        W75549  13.823  39.340  14.462
15805W        W75550  41.344   9.652   0.346
15806W        W75551   2.911  20.654  13.056
15807W        W75552  11.627   2.405  10.437
15808W        W75553  22.622  35.991   0.941
15809W        W75554   6.802  33.427   2.365
15810W        W75555  44.797  19.556  12.500
15811W        W75556  44.772  30.655  11.887
15812W        W75557  14.238  23.125  10.907
15813W        W75558  34.041  35.973   2.328
15814W        W75559   2.926   9.865  12.435
15815W        W75560   6.287  17.222  10.492
15816W        W75561   6.277  16.083   1.226
15817W        W75562  26.658  38.519   4.823
15818W        W75563   1.420   2.374   1.782
15819W        W75564  22.598  13.248  10.515
15820W        W75565  31.419  38.537  11.892
15821W        W75566  19.264  29.162  11.445
15822W        W75567  22.543  42.842  11.108
15823W        W75568  33.877   0.955   1.880
15824W        W75569  32.502  30.476   1.392
15825W        W75570  16.282  20.707   0.807
15826W        W75571  19.158  35.869  14.858
15827W        W75572  19.187  42.291   2.400
15828W        W75573  30.163  24.057   3.775
15829W        W75574   3.735  37.940   3.257
15830W        W75575  23.017  30.051   1.769
15831W        W75576   1.756   8.884  13.484
15832W        W75577   9.362  38.012  14.308
15833W        W75578  29.609  39.456   3.775
15834W        W75579  44.982  26.531   2.799
15835W        W75580  40.951   3.931  12.479
15836W        W75581  19.077  19.047  13.376
15837W        W75582  35.430   5.397   0.407
15838W        W75583  37.960  39.065   9.959
15839W        W75584  35.491  30.495   1.834
15840W        W75585   4.746  12.120   1.372
15841W        W75586  23.126  42.804   2.217
15842W        W75587  41.461  42.347  12.037
15843W        W75588   3.906  25.714  10.988
15844W        W75589  12.142  35.531   0.958
15845W        W75590  31.531  39.459   1.211
15846W        W75591  17.250  27.581   4.276
15847W        W75592  32.409  12.256  10.610
15848W        W75593  35.403  25.068   3.750
15849W        W75594   8.319   0.369   0.386
15850W        W75595  39.502   8.315  13.931
15851W        W75596  21.712  13.693   9.560
15852W        W75597   0.743  13.136   2.406
15853W        W75598   1.375  43.462  12.930
15854W        W75599  32.900  35.536   2.236
15855W        W75600   5.217  11.801  10.930
15856W        W75601  26.001  32.392   0.882
15857W        W75602  10.265  40.050   0.956
15858W        W75603  15.118  25.156  11.409
15859W        W75604  24.524  44.773   2.701
15860W        W75605  30.519  20.719   0.352
15861W        W75606  30.073  14.793  12.013
15862W        W75607  42.513   8.859   5.156
15863W        W75608  35.907  29.991  11.510
15864W        W75609  26.154  12.124  10.913
15865W        W75610   2.881  37.526   2.383
15866W        W75611  10.189  25.124   2.740
15867W        W75612  40.954  35.500  14.472
15868W        W75613  15.813  41.797   1.247
15869W        W75614   1.948  33.405  11.004
15870W        W75615  25.482  28.512  13.391
15871W        W75616  16.314  36.876  12.928
15872W        W75617  44.318  19.270   1.823
15873W        W75618  19.645   4.398  14.985
15874W        W75619  10.346   9.371  13.048
15875W        W75620  29.591   8.698   0.425
15876W        W75621  22.603  37.832   2.674
15877W        W75622  19.249   6.723   4.676
15878W        W75623  25.503  16.253  13.478
15879W        W75624   3.945  14.306   1.898
15880W        W75625  44.897  38.831   3.371
15881W        W75626  32.932  36.363  11.584
15882W        W75627   3.237   1.837   1.918
15883W        W75628  19.692  32.926   5.218
15884W        W75629   7.847   4.259  13.997
15885W        W75630  38.931  44.484  11.013
15886W        W75631  39.409  43.427  13.029
15887W        W75632  13.790  21.630  14.504
15888W        W75633   0.944  34.992  10.894
15889W        W75634  44.780  43.814  13.824
15890W        W75635  24.229  33.622   5.150
15891W        W75636  24.520  17.653   1.225
15892W        W75637   7.805  16.078  10.418
15893W        W75638  27.151  35.071  11.407
15894W        W75639  41.334  14.209   0.761
15895W        W75640  39.507   0.456  13.524
15896W        W75641  39.340  30.477   2.250
15897W        W75642  21.060  10.231  12.467
15898W        W75643  35.071   4.327  11.038
15899W        W75644  34.924  29.575   9.926
15900W        W75645   2.930  20.163   5.678
15901W        W75646  34.102   3.838  11.022
15902W        W75647  19.264  38.916  13.049
15903W        W75648  21.563  24.574   4.253
15904W        W75649  19.224  15.101   3.296
15905W        W75650  32.509  31.148  14.506
15906W        W75651  22.105  41.004   2.827
15907W        W75652  27.672  42.395   1.890
15908W        W75653  18.571  22.152  13.843
15909W        W75654  35.067  16.217   0.373
15910W        W75655  25.561   1.860   2.899
15911W        W75656  15.700  18.751  10.987
15912W        W75657  13.675  39.517   0.916
15913W        W75658  17.736  13.150   1.343
15914W        W75659   5.271  19.544   3.794
15915W        W75660  18.709  15.627  11.381
15916W        W75661  38.462  11.198   0.809
15917W        W75662  14.125  32.124  10.059
15918W        W75663   5.231  37.899  14.329
15919W        W75664  37.986  37.844   3.353
15920W        W75665  25.578  38.409   3.820
15921W        W75666  31.968   4.925   0.732
15922W        W75667  17.073  42.519   1.858
15923W        W75668  31.401  34.454   4.138
15924W        W75669  33.516  43.008   3.851
15925W        W75670  37.940   4.868   1.250
15926W        W75671  20.701  44.309  14.448
15927W        W75672  11.357   2.372   4.191
15928W        W75673  17.157  37.000  14.416
15929W        W75674  29.642   3.761   9.579
15930W        W75675  43.409   1.945  12.562
15931W        W75676  40.853  21.223  11.875
15932W        W75677  10.337  16.783   3.692
15933W        W75678  17.081  15.151   3.799
15934W        W75679  19.588  10.153  13.010
15935W        W75680  14.644   2.773   0.453
15936W        W75681  11.209  23.724   0.803
15937W        W75682  18.216  31.565  13.948
15938W        W75683  37.960  21.256   2.296
15939W        W75684   5.713  39.339  12.836
15940W        W75685   2.774  24.620  10.417
15941W        W75686  12.818  40.525  11.484
15942W        W75687  17.679  31.614  12.373
15943W        W75688   3.369  41.368   3.382
15944W        W75689  15.119  20.532   3.256
15945W        W75690  20.674  22.645   0.955
15946W        W75691  13.688  27.478  13.480
15947W        W75692  11.827  37.927   1.753
15948W        W75693  10.163  28.499  12.951
15949W        W75694  17.609  15.225  11.956
15950W        W75695  41.371  41.510   3.673
15951W        W75696  24.671  17.671  12.437
15952W        W75697  10.271  19.187   2.871
15953W        W75698  21.184  43.905   4.771
15954W        W75699  38.325  14.807  14.895
15955W        W75700  24.639  14.306  13.954
15956W        W75701   0.410  36.502   3.801
15957W        W75702  17.787  35.000  10.481
15958W        W75703   0.304   8.192  11.556
15959W        W75704  23.161   7.830   4.209
15960W        W75705   1.364  41.487  10.423
15961W        W75706  33.900  18.166  11.501
15962W        W75707   6.307  37.074   2.232
15963W        W75708  32.905   7.752  14.803
15964W        W75709  11.819  37.910   0.266
15965W        W75710  17.739  40.418  12.382
15966W        W75711  31.613   5.429   3.315
15967W        W75712  17.250  36.070  14.343
15968W        W75713   9.367  36.394  13.911
15969W        W75714   6.212  20.118  12.531
15970W        W75715  30.650  33.005  13.014
15971W        W75716  32.548  24.693  13.881
15972W        W75717  14.651  37.377   3.718
15973W        W75718  37.842  12.778  12.037
15974W        W75719  14.653   9.849   1.345
15975W        W75720  25.708  20.737  11.924
15976W        W75721  14.650  20.595  10.462
15977W        W75722  17.127  10.306  11.892
15978W        W75723  23.240  41.511   1.803
15979W        W75724   9.155  21.081  11.028
15980W        W75725  15.663  41.494  10.580
15981W        W75726  41.338  42.821  12.569
15982W        W75727  30.630  39.382  11.917
15983W        W75728  37.336  32.462  12.569
15984W        W75729  13.678  25.118  12.991
15985W        W75730   3.295  42.302  14.962
15986W        W75731  29.961  26.621   4.793
15987W        W75732   8.778  44.909  11.611
15988W        W75733  18.272  33.434   4.245
15989W        W75734  38.348   2.849   0.258
15990W        W75735  17.767   3.914  14.946
15991W        W75736  39.847  24.977   1.279
15992W        W75737   2.871  20.078   3.785
15993W        W75738  27.138  22.162   0.834
15994W        W75739  18.223   9.161   0.732
15995W        W75740  12.272   3.873  12.067
15996W        W75741   0.376   8.859   5.197
15997W        W75742  35.575  43.938   3.703
15998W        W75743  40.939   5.262  10.922
15999W        W75744  10.818  40.000  10.895
16000W        W75745  33.525  25.082   4.256
16001W        W75746  21.130   3.755  12.378
16002W        W75747  32.497  21.734  13.022
16003W        W75748  38.044  31.593   3.217
16004W        W75749  20.096   6.921  12.438
16005W        W75750  41.340  38.426   3.222
16006W        W75751  29.450  16.245   2.200
16007W        W75752  16.608  16.301   0.464
16008W        W75753   2.332  27.544  14.455
16009W        W75754   6.838   1.426   1.780
16010W        W75755   5.436   7.836   0.347
16011W        W75756  24.087   8.886   2.892
16012W        W75757  26.050   3.251  12.868
16013W        W75758   5.702   3.290   4.731
16014W        W75759  16.766  26.528   1.865
16015W        W75760  20.054  22.068  14.349
16016W        W75761  42.406  24.655  12.868
16017W        W75762  27.018  32.944  14.424
16018W        W75763  29.062  19.726   2.737
16019W        W75764  37.524  39.479   2.809
16020W        W75765  13.801  28.437   1.874
16021W        W75766  15.697  36.432  14.800
16022W        W75767   7.365  37.875   0.801
16023W        W75768  14.692  36.091   2.222
16024W        W75769  39.988  37.859  10.471
16025W        W75770  41.948  28.017  13.475
16026W        W75771  18.656  30.106   1.765
16027W        W75772  16.262  13.218  12.965
16028W        W75773  16.167  21.531  12.494
16029W        W75774  10.373  43.426   3.299
16030W        W75775   9.234   6.365   3.151
16031W        W75776   1.428   0.905   0.789
16032W        W75777  34.923  31.905   3.204
16033W        W75778  32.393  25.519   4.615
16034W        W75779   0.770  27.192   2.820
16035W        W75780  20.671  32.559  12.841
16036W        W75781  13.337  28.667   4.635
16037W        W75782  35.860   6.411  14.906
16038W        W75783  35.590  14.223   4.670
16039W        W75784  35.059   1.776   2.803
16040W        W75785   5.816  17.159   4.751
16041W        W75786  29.024   5.833   9.457
16042W        W75787  35.987  33.609  14.871
16043W        W75788   0.367   2.462   0.792
16044W        W75789  18.639  39.972  14.794
16045W        W75790  12.306  40.469   0.275
16046W        W75791  15.240  20.208   0.838
16047W        W75792  21.097   4.206   3.358
16048W        W75793  19.063  19.142  11.604
16049W        W75794  44.407  39.838  12.938
16050W        W75795   9.665  44.976   4.182
16051W        W75796  36.363  30.123  12.474
16052W        W75797  33.115  22.128  12.043
16053W        W75798  34.370  21.626   2.239
16054W        W75799   7.378  17.249   4.803
16055W        W75800  19.156  40.500  13.844
16056W        W75801   0.276  21.051  12.994
16057W        W75802  31.977  40.879  14.808
16058W        W75803   9.678   4.868   2.197
16059W        W75804  37.903  36.928   1.862
16060W        W75805  18.681  44.464  12.916
16061W        W75806  29.156  36.845  11.053
16062W        W75807  31.410  24.209  12.036
16063W        W75808  44.288  15.698   4.616
16064W        W75809  27.942  43.434  14.856
16065W        W75810  32.945   9.280  12.949
16066W        W75811   6.724   4.431   0.462
16067W        W75812  23.174   2.820  11.914
16068W        W75813  21.716  36.501  12.058
16069W        W75814   3.930  32.422  11.447
16070W        W75815  41.525  36.933   3.374
16071W        W75816  24.086  44.404  10.132
16072W        W75817   7.667  28.024  14.402
16073W        W75818  17.077   2.431  12.993
16074W        W75819  42.403  19.648  12.001
16075W        W75820  22.027  42.994  11.963
16076W        W75821  40.490  24.611   1.837
16077W        W75822  16.136  39.395   2.371
16078W        W75823  44.755   0.944  12.906
16079W        W75824  22.101   8.894  11.384
16080W        W75825  15.253  24.682   3.373
16081W        W75826  28.046  29.142  12.050
16082W        W75827  35.904  39.051  10.889
16083W        W75828  17.224  32.054   3.217
16084W        W75829  13.803  33.485   4.181
16085W        W75830  17.645  33.463  13.496
16086W        W75831   5.795  37.023  14.017
16087W        W75832  42.405  33.021  12.357
16088W        W75833  16.203  11.338  12.561
16089W        W75834  19.255  25.713   0.926
16090W        W75835   7.827  10.833   3.224
16091W        W75836  19.253   0.835   2.837
16092W        W75837  44.282  34.537   5.281
16093W        W75838  44.829  27.628  10.016
16094W        W75839  42.340  24.016   0.249
16095W        W75840  32.634  17.757  12.978
16096W        W75841  21.698  35.396   1.231
16097W        W75842  33.447  37.520  12.989
16098W        W75843   1.875   0.790   0.776
16099W        W75844  11.330   3.890   1.808
16100W        W75845  23.044  42.410  12.424
16101W        W75846  12.827  36.028   1.416
16102W        W75847   0.922  37.994  14.898
16103W        W75848   3.407  40.882   1.759
16104W        W75849   9.719  41.816   4.775
16105W        W75850  15.721  41.301   1.344
16106W        W75851   2.261  16.201  13.032
16107W        W75852   6.237   2.963  14.825
16108W        W75853   8.170   0.893  14.008
16109W        W75854   9.789  37.441  11.475
16110W        W75855   0.882   9.667   2.293
16111W        W75856  26.582  37.449   0.960
16112W        W75857  13.250  15.181  12.037
16113W        W75858  29.053  29.056  12.915
16114W        W75859  34.039  38.001  11.071
16115W        W75860  40.853   9.240  12.466
16116W        W75861  32.001  21.587  13.861
16117W        W75862  41.442  10.848   3.281
16118W        W75863  40.841   5.207   0.952
16119W        W75864  44.908  36.025   2.793
16120W        W75865   9.220   3.245   0.756
16121W        W75866  34.016  14.107  13.330
16122W        W75867  34.479  29.428  13.865
16123W        W75868  27.954  17.640  10.523
16124W        W75869  37.961  19.624  11.589
16125W        W75870   6.701  29.543  12.500
16126W        W75871  29.011  41.389   2.270
16127W        W75872  39.346  36.989   3.182
16128W        W75873  32.401  36.073  13.362
16129W        W75874  29.157  41.848   3.752
16130W        W75875  25.545  11.197   2.347
16131W        W75876  44.940   0.920   4.317
16132W        W75877  38.480  33.887  11.943
16133W        W75878  21.149  16.171   0.748
16134W        W75879  18.061  23.546  14.889
16135W        W75880  22.614  30.936   2.877
16136W        W75881  10.348  14.646  12.019
16137W        W75882  33.456  18.651   0.311
16138W        W75883  20.655  17.182   3.340
16139W        W75884  14.207  37.397   3.682
16140W        W75885  23.562  22.124   1.747
16141W        W75886  43.937  16.210   2.209
16142W        W75887   4.226  43.277  10.525
16143W        W75888  35.509  42.004  12.532
16144W        W75889  35.048  42.985  13.350
16145W        W75890  16.287   1.335  10.587
16146W        W75891  12.258   7.719   2.233
16147W        W75892  38.960   7.319   1.242
16148W        W75893  20.650  19.120  11.022
16149W        W75894  36.899  20.532   5.760
16150W        W75895  34.577  38.411  10.417
16151W        W75896   2.313   9.299  14.777
16152W        W75897  39.395  23.044   2.378
16153W        W75898  11.263  22.729   4.654
16154W        W75899  37.990  22.230  14.000
16155W        W75900  29.452  28.095  12.379
16156W        W75901   5.245  17.150  13.547
16157W        W75902  18.752  25.678  11.446
16158W        W75903   4.365  41.405   1.828
16159W        W75904  32.546   9.715  10.996
16160W        W75905  32.516   7.804  13.889
16161W        W75906  40.829  38.461   1.777
16162W        W75907   7.782  16.590   0.435
16163W        W75908  43.005  17.689   2.837
16164W        W75909  18.117  12.300   1.788
16165W        W75910  16.146  21.600  13.013
16166W        W75911  11.192   1.435  14.465
16167W        W75912  11.810   9.170  10.435
16168W        W75913  21.523   8.389  12.389
16169W        W75914  42.476  16.154   1.819
16170W        W75915  27.079  41.419   0.265
16171W        W75916   6.329   7.685  11.089
16172W        W75917  15.248  39.982   2.322
16173W        W75918   1.277  36.374  14.016
16174W        W75919  16.127   0.775  13.801
16175W        W75920  42.833  43.804   1.246
16176W        W75921   5.831   6.740   2.216
16177W        W75922  44.949  43.003   0.730
16178W        W75923  42.792  14.326  10.154
16179W        W75924  24.721  29.601  11.890
16180W        W75925   8.181  27.060   3.770
16181W        W75926  39.055  35.999  11.407
16182W        W75927  36.374  37.350  11.457
16183W        W75928  34.993  13.172  11.889
16184W        W75929  18.623  23.080  11.444
16185W        W75930  21.635  19.597   0.841
16186W        W75931   1.357  35.375   2.762
16187W        W75932  24.090  32.121   2.332
16188W        W75933   5.869   8.204  11.507
16189W        W75934  18.196   3.951  12.024
16190W        W75935  10.327  27.565   1.274
16191W        W75936  13.243  25.566   2.867
16192W        W75937   8.398  10.691  13.833
16193W        W75938  41.381  27.463  10.995
16194W        W75939  33.086  35.447  14.006
16195W        W75940  30.164  17.618  10.499
16196W        W75941  17.587   3.742  11.018
16197W        W75942  28.573  27.114  14.381
16198W        W75943  34.914  33.876  12.458
16199W        W75944  30.015  29.932  14.815
16200W        W75945  10.705  10.308   2.667
16201W        W75946  27.467  33.999   2.314
16202W        W75947  11.221  23.639  13.410
16203W        W75948   4.911  22.744  14.811
16204W        W75949  28.002  41.521  10.613
16205W        W75950   6.312  41.043   4.625
16206W        W75951  36.480  23.146  12.042
16207W        W75952   3.339  34.116   4.126
16208W        W75953  33.603  25.056   1.698
16209W        W75954   9.655   0.961  12.426
16210W        W75955   5.431  13.805   1.262
16211W        W75956  32.536  12.699   4.289
16212W        W75957  33.400  20.158  13.403
16213W        W75958  33.062  38.982   2.662
16214W        W75959  21.658  30.470   4.307
16215W        W75960  17.652  35.869  13.547
16216W        W75961  28.183  12.807   1.234
16217W        W75962  40.494  17.287  13.820
16218W        W75963  34.976  16.595   3.778
16219W        W75964   0.911  36.058  12.421
16220W        W75965   3.893  31.102  12.433
16221W        W75966  43.945  18.554  12.402
16222W        W75967  27.510  13.790  11.870
16223W        W75968  34.979  30.037   2.303
16224W        W75969  23.008  42.483   3.371
16225W        W75970  19.542   8.365  14.767
16226W        W75971  35.982   0.792   3.259
16227W        W75972   2.841  38.359   9.927
16228W        W75973   1.395   7.825   4.702
16229W        W75974  34.551  15.614   0.364
16230W        W75975  12.696  11.845   2.709
16231W        W75976   5.860   8.261  12.403
16232W        W75977   8.242  23.522   3.820
16233W        W75978  13.202  22.688   1.323
16234W        W75979   8.659   2.447  11.912
16235W        W75980  41.958  32.486  11.443
16236W        W75981  34.878  18.092  13.448
16237W        W75982  37.401  25.709   4.658
16238W        W75983  39.485  43.834  13.462
16239W        W75984  43.515  20.724  14.847
16240W        W75985   1.762  15.633   1.698
16241W        W75986  13.634  23.114   4.825
16242W        W75987  34.872  43.799   1.810
16243W        W75988  19.626  14.177  11.583
16244W        W75989  13.619  18.155   1.833
16245W        W75990  31.137   8.390  10.558
16246W        W75991  24.010  20.759   4.629
16247W        W75992  17.088  31.497  14.936
16248W        W75993   7.770  12.258   2.182
16249W        W75994  43.886  37.836  12.472
16250W        W75995   8.876   2.957   3.690
16251W        W75996  19.221  24.200  14.023
16252W        W75997  21.061  16.791  10.485
16253W        W75998  17.710   7.398   2.666
16254W        W75999  37.503  10.228  14.801
16255W        W76000  19.668  18.566   1.788
16256W        W76001  10.685  38.957   9.981
16257W        W76002  12.131  31.541   3.215
16258W        W76003  28.149   5.920   4.197
16259W        W76004  29.592  14.261  13.364
16260W        W76005  30.042  13.806   1.934
16261W        W76006  21.645  25.217   4.751
16262W        W76007   3.913   3.303   0.911
16263W        W76008  39.496   3.754   4.312
16264W        W76009  40.953  42.344   2.346
16265W        W76010  29.074  36.449   4.212
16266W        W76011   7.740  10.799   4.343
16267W        W76012  15.794  40.028  12.407
16268W        W76013  37.471  10.143   4.188
16269W        W76014   4.316   5.702  11.073
16270W        W76015  23.984   6.268  12.556
16271W        W76016  11.654   6.718   4.808
16272W        W76017  29.081   3.745  14.968
16273W        W76018  40.985   8.759   0.788
16274W        W76019   4.753   9.311  10.890
16275W        W76020   8.865  29.143  11.589
16276W        W76021   4.297   8.292   1.893
16277W        W76022  33.495  25.964   0.962
16278W        W76023  32.893  18.168   5.189
16279W        W76024  24.987  13.743   3.713
16280W        W76025  27.535  27.508   4.248
16281W        W76026  20.226  24.009   0.356
16282W        W76027  24.190  29.462   2.270
16283W        W76028   8.869   2.835   2.868
16284W        W76029   0.857  13.760   3.160
16285W        W76030  41.855  11.327   4.653
16286W        W76031  25.066  43.791  13.459
16287W        W76032  12.192  14.275   2.293
16288W        W76033  12.712  14.759  13.815
16289W        W76034  16.226  26.498   0.845
16290W        W76035  32.055  23.538   2.345
16291W        W76036  23.709   3.846   4.747
16292W        W76037  24.503  39.544  14.941
16293W        W76038  38.480  42.872   4.647
16294W        W76039   5.354  25.045  13.802
16295W        W76040  18.174   7.899   0.464
16296W        W76041  18.683  12.812  14.447
16297W        W76042  35.568   5.431  10.910
16298W        W76043  15.707  25.203  12.572
16299W        W76044   8.341  20.245   0.882
16300W        W76045  36.948  31.054   2.902
16301W        W76046  22.535   0.448   1.385
16302W        W76047  41.372   7.785  10.462
16303W        W76048  43.781  31.485  13.314
16304W        W76049  29.168  17.572   1.920
16305W        W76050   3.817  26.178   2.208
16306W        W76051  15.741  19.734   1.896
16307W        W76052  19.707  11.312   2.858
16308W        W76053   0.471   8.670   4.833
16309W        W76054  40.315  32.909   0.292
16310W        W76055  16.114  39.385  11.037
16311W        W76056   7.179   3.808   4.721
16312W        W76057  13.637   8.261  11.491
16313W        W76058   6.897  27.069  14.490
16314W        W76059  44.314  26.060   2.852
16315W        W76060  31.569  41.910   3.838
16316W        W76061  30.155  11.653  14.413
16317W        W76062  37.953  22.115  10.578
16318W        W76063  37.360   8.662   3.383
16319W        W76064  32.108  33.590   4.711
16320W        W76065  13.714  23.692   4.779
16321W        W76066   8.360   5.205  11.530
16322W        W76067  36.397  38.552   3.218
16323W        W76068  34.869  35.386  12.070
16324W        W76069  14.738  28.158   2.746
16325W        W76070  39.326  30.542  14.964
16326W        W76071  39.367  16.660   2.671
16327W        W76072  35.965  22.064  14.494
16328W        W76073  43.843  13.183   4.647
16329W        W76074  29.567  43.426  12.025
16330W        W76075  24.164  40.347  12.089
16331W        W76076   6.264  28.668  12.498
16332W        W76077  20.099   8.703  11.379
16333W        W76078   2.400  44.334  13.429
16334W        W76079  43.912   2.394  11.016
16335W        W76080   5.700   0.833  13.373
16336W        W76081   0.360  24.490   4.196
16337W        W76082  30.474  25.679   0.303
16338W        W76083  40.511  17.209   2.244
16339W        W76084   3.218  39.048  11.008
16340W        W76085   2.353  17.686  11.055
16341W        W76086  26.056  11.813  13.863
16342W        W76087  24.101  29.505  11.108
16343W        W76088  17.800   7.776  13.509
16344W        W76089  16.211  29.008  12.382
16345W        W76090  17.615  41.522  14.383
16346W        W76091   5.261  42.806  13.790
16347W        W76092  16.154  33.965  11.507
16348W        W76093  16.194   1.867   0.829
16349W        W76094   1.284  23.539   2.408
16350W        W76095  26.494  14.298  11.424
16351W        W76096  13.337  11.195  14.026
16352W        W76097  30.538  34.024   4.739
16353W        W76098   0.257  41.814  11.959
16354W        W76099  16.171  10.154  13.976
16355W        W76100  12.122  30.453   2.882
16356W        W76101   0.411  34.991   1.378
16357W        W76102  24.127   3.385   0.308
16358W        W76103  24.490   8.655  14.843
16359W        W76104  43.897  15.731   3.201
16360W        W76105  36.550  12.789   1.914
16361W        W76106   9.704   1.403  11.900
16362W        W76107  20.240  32.886   9.495
16363W        W76108  23.558  10.327  12.834
16364W        W76109  17.578  11.360   0.447
16365W        W76110   6.357   2.790   3.822
16366W        W76111  15.176   4.741   3.290
16367W        W76112  19.120  37.035   3.336
16368W        W76113  38.864  10.837  11.424
16369W        W76114  26.472  21.716   3.860
16370W        W76115   0.468  44.400  13.952
16371W        W76116  15.800   2.272   0.874
16372W        W76117  17.632   7.812   3.704
16373W        W76118  13.634  33.539   1.792
16374W        W76119  37.375  23.656   2.795
16375W        W76120  16.289   6.827  10.888
16376W        W76121  44.808  26.689  14.027
16377W        W76122  32.590  41.403   0.362
16378W        W76123  41.538  19.103  10.503
16379W        W76124  42.801  43.844  13.907
16380W        W76125  38.381  19.142   1.287
16381W        W76126  10.176   5.879   0.413
16382W        W76127  33.987  33.434   0.336
16383W        W76128  17.752  34.447   0.838
16384W        W76129  26.979  43.403  11.914
16385W        W76130  29.465  32.139  12.539
16386W        W76131  40.043  40.938  10.546
16387W        W76132  10.343  18.620  11.498
16388W        W76133  41.915  12.313  10.537
16389W        W76134  38.371  17.740  13.917
16390W        W76135  10.281  16.313   2.881
16391W        W76136  14.814   1.384  12.923
16392W        W76137  26.546  15.294  10.936
16393W        W76138   6.197  18.631  11.444
16394W        W76139  16.150  36.872   4.598
16395W        W76140  27.599  13.171  11.432
16396W        W76141  24.040  24.141  14.758
16397W        W76142  33.388   4.818  13.535
16398W        W76143  15.251  24.150   2.759
16399W        W76144  14.619  23.114   3.309
16400W        W76145   8.662   5.321   4.739
16401W        W76146  16.267  12.272  14.943
16402W        W76147  13.317   9.806   2.340
16403W        W76148  12.349  23.185   4.117
16404W        W76149   6.775  37.050   0.294
16405W        W76150   0.938  27.977   1.735
16406W        W76151  13.153   4.403   2.316
16407W        W76152   4.838  14.264  14.853
16408W        W76153  15.793  29.171   0.855
16409W        W76154  30.424   7.859   1.712
16410W        W76155   4.206   5.421  11.963
16411W        W76156   5.273  42.331   2.817
16412W        W76157   7.361  38.976  13.033
16413W        W76158  28.152  39.341  11.525
16414W        W76159  30.038  18.059  14.764
16415W        W76160   1.309   5.251  10.992
16416W        W76161  30.003  35.425  13.014
16417W        W76162   5.730  30.075  14.827
16418W        W76163  27.984  33.401  13.536
16419W        W76164   5.257  33.095   2.752
16420W        W76165  20.767   4.308   2.396
16421W        W76166  12.172   6.875   1.310
16422W        W76167   3.396  40.548   0.416
16423W        W76168  11.646  21.624  11.466
16424W        W76169  44.380  36.404   4.250
16425W        W76170  16.616  15.725  11.507
16426W        W76171  39.998  21.102  14.357
16427W        W76172   8.887  17.701  11.910
16428W        W76173  41.878  12.652  10.015
16429W        W76174   9.751  35.377   3.799
16430W        W76175  19.652  11.366   4.124
16431W        W76176  40.919  24.624  11.098
16432W        W76177  32.454  44.439  13.472
16433W        W76178  36.560  13.174   2.396
16434W        W76179   1.925  32.939  13.928
16435W        W76180  44.796  29.514  11.946
16436W        W76181  32.902  23.063   0.249
16437W        W76182   9.657  36.522  14.396
16438W        W76183  12.287  17.206  14.326
16439W        W76184   3.829  27.560   9.501
16440W        W76185  22.082  12.212  12.054
16441W        W76186  40.430  34.933  13.948
16442W        W76187  18.143  33.958   1.292
16443W        W76188  19.209   0.797  14.027
16444W        W76189  39.484  36.992  11.587
16445W        W76190   2.264  37.864  13.954
16446W        W76191   1.482  10.201  13.995
16447W        W76192   1.414  35.489   4.235
16448W        W76193   3.456  13.322  11.571
16449W        W76194  31.634  36.020  12.340
16450W        W76195  20.634  38.071  14.838
16451W        W76196  26.512  19.226   2.903
16452W        W76197   5.286  42.914   2.209
16453W        W76198  39.038  15.239   3.202
16454W        W76199  30.909   6.311   1.869
16455W        W76200  19.223   3.334   1.297
16456W        W76201   6.857  44.291  14.772
16457W        W76202  19.725  37.056   4.152
16458W        W76203  27.088  36.016   5.146
16459W        W76204  32.927  29.472   1.846
16460W        W76205  38.325  41.930   0.408
16461W        W76206  36.504  23.083   3.173
16462W        W76207  35.555  17.223  13.467
16463W        W76208  23.622  43.409   1.377
16464W        W76209  42.294  10.858  14.938
16465W        W76210  12.236   6.880  10.635
16466W        W76211  12.829  35.418  13.467
16467W        W76212   3.763  23.508   5.255
16468W        W76213   4.438   9.321   2.715
16469W        W76214  39.888  37.874  12.074
16470W        W76215  15.278  28.946   1.283
16471W        W76216  12.200  17.572   1.317
16472W        W76217  39.837   1.264   2.257
16473W        W76218   2.892  32.463   9.935
16474W        W76219  33.124  11.775  14.984
16475W        W76220   4.712  41.900   1.742
16476W        W76221   7.767   2.233  13.316
16477W        W76222  44.757  20.571  14.436
16478W        W76223  30.152  25.189  14.000
16479W        W76224  25.017  33.422  13.892
16480W        W76225   6.340  20.106   2.413
16481W        W76226  25.568  24.610  11.446
16482W        W76227   1.766  34.519   0.905
16483W        W76228   1.916  44.782  11.542
16484W        W76229  19.575  37.387   4.135
16485W        W76230  38.328  22.163   4.170
16486W        W76231  40.021   8.197   2.711
16487W        W76232  31.121  11.287  14.471
16488W        W76233  26.175  24.162   3.749
16489W        W76234  31.923  20.159  14.032
16490W        W76235   8.222  41.875  13.338
16491W        W76236  15.124  21.182  14.781
16492W        W76237   1.347  33.547   2.902
16493W        W76238   5.350  42.906  11.012
16494W        W76239  26.559  35.051   1.912
16495W        W76240  32.477  38.537   2.229
16496W        W76241  19.745  20.267  11.498
16497W        W76242   3.325  19.219   9.944
16498W        W76243   5.226  13.224   4.743
16499W        W76244  28.475  16.187  12.935
16500W        W76245  21.259  13.680  12.402
16501W        W76246  28.993   1.435   4.740
16502W        W76247  25.200  16.165  13.328
16503W        W76248   7.344  34.120   0.726
16504W        W76249  41.022  25.470  10.557
16505W        W76250   2.254   5.268  11.932
16506W        W76251  35.009  23.554  13.881
16507W        W76252  38.465   1.264   2.233
16508W        W76253  38.442  15.641   1.239
16509W        W76254   3.904   5.804  11.563
16510W        W76255  20.633  22.578   4.821
16511W        W76256   0.301  32.489  14.835
16512W        W76257  39.443  36.591   2.285
16513W        W76258   1.914  31.123   1.719
16514W        W76259   9.691  35.973  14.363
16515W        W76260   4.896  16.767  11.512
16516W        W76261  31.035  44.882   2.212
16517W        W76262   8.699  20.066   2.739
16518W        W76263  20.640  38.998  13.325
16519W        W76264  14.096   4.426  12.476
16520W        W76265  42.860  12.263  11.465
16521W        W76266  31.607   8.373  14.844
16522W        W76267  44.426  13.282   4.264
16523W        W76268  36.843  40.312   1.779
16524W        W76269  31.095  42.971   0.812
16525W        W76270  36.351   7.238  13.342
16526W        W76271  14.652  29.640   3.156
16527W        W76272  19.723  19.057   3.687
16528W        W76273   4.864  20.699   2.362
16529W        W76274  41.820   2.762   4.640
16530W        W76275  41.816   4.319  13.940
16531W        W76276  18.264   5.347  12.046
16532W        W76277  17.633  12.244   3.743
16533W        W76278  22.592  27.027  11.468
16534W        W76279  43.773  40.830  12.095
16535W        W76280   5.338  16.622   9.454
16536W        W76281  44.385  27.157  10.998
16537W        W76282  34.425   1.942  10.440
16538W        W76283  13.210   8.165  11.086
16539W        W76284  23.494  40.891   4.691
16540W        W76285  28.123  20.735   3.300
16541W        W76286  27.497  17.213   0.245
16542W        W76287  27.577  43.788  12.449
16543W        W76288  26.473  17.156   2.211
16544W        W76289  32.402  21.520   1.813
16545W        W76290  14.774  28.561  13.992
16546W        W76291  26.622  42.282  12.923
16547W        W76292  28.587  33.891  12.366
16548W        W76293   5.933  25.029   0.327
16549W        W76294  23.029  39.470  11.941
16550W        W76295  23.192  18.189   1.917
16551W        W76296   5.832  41.480   4.677
16552W        W76297  35.032  17.613  12.393
16553W        W76298  44.754  23.626  13.053
16554W        W76299  19.662  39.423  12.831
16555W        W76300  41.345   5.925   3.156
16556W        W76301  38.442  10.675  14.411
16557W        W76302  21.170  31.007   1.880
16558W        W76303  19.595  25.202  14.885
16559W        W76304  39.538  23.146   1.860
16560W        W76305  30.940  20.214  13.380
16561W        W76306   7.790  30.590  14.897
16562W        W76307  20.116  12.278   2.768
16563W        W76308  10.725  11.698  11.927
16564W        W76309  15.790  29.029   2.731
16565W        W76310  10.836  23.071   2.286
16566W        W76311  42.959  23.581   3.632
16567W        W76312  34.010  10.281  14.426
16568W        W76313   7.896   1.415   2.277
16569W        W76314  19.089  11.779  10.497
16570W        W76315  41.482  26.069   0.390
16571W        W76316  17.242  35.524   2.400
16572W        W76317  13.139  28.583  11.858
16573W        W76318  39.417  25.115  14.906
16574W        W76319  40.027   8.691  14.952
16575W        W76320  17.555   5.376   4.316
16576W        W76321  27.100  20.147   0.853
16577W        W76322   7.186  27.971   2.360
16578W        W76323  16.210   6.283  11.127
16579W        W76324  25.207  42.316  12.448
16580W        W76325   0.449  20.642   0.255
16581W        W76326  20.194  13.319  11.917
16582W        W76327  30.420   0.936   1.825
16583W        W76328  15.655  44.367   3.737
16584W        W76329  32.983  15.614  12.511
16585W        W76330  26.152  16.083  12.863
16586W        W76331   0.828  31.589  13.039
16587W        W76332  35.441  18.234  10.601
16588W        W76333  25.007  36.552  13.942
16589W        W76334  26.062  23.711   4.823
16590W        W76335  36.413  24.498  13.427
16591W        W76336   0.922  10.326  14.378
16592W        W76337   9.710   5.929   0.305
16593W        W76338  24.055   4.786   2.861
16594W        W76339  27.056  15.793   1.808
16595W        W76340  36.400  21.697   0.792
16596W        W76341  42.989  40.339   3.842
16597W        W76342  23.170  12.733   0.436
16598W        W76343  28.183  31.466   2.231
16599W        W76344  17.555  36.569  13.840
16600W        W76345  28.533  20.603   4.622
16601W        W76346  24.557  23.058  10.527
16602W        W76347   1.833  30.646   1.365
16603W        W76348  39.319  21.136  12.398
16604W        W76349   6.846  21.117  12.529
16605W        W76350  41.310  40.814   4.343
16606W        W76351  23.681   2.914  14.892
16607W        W76352  32.114  11.350  11.043
16608W        W76353  31.005  20.047   1.799
16609W        W76354   2.836  41.015   4.710
16610W        W76355  16.178  19.686  14.773
16611W        W76356  24.668   3.302   0.276
16612W        W76357  12.282  18.704  11.998
16613W        W76358  18.257  32.439   3.318
16614W        W76359   2.947  29.430   3.750
16615W        W76360  17.067  28.118  13.881
16616W        W76361   1.815   3.810   4.222
16617W        W76362  20.544   3.411   1.301
16618W        W76363   5.212   1.930   3.809
16619W        W76364  23.042  38.961  12.431
16620W        W76365   5.905  40.919   1.408
16621W        W76366  35.602  34.507   0.843
16622W        W76367  20.125   4.291  14.836
16623W        W76368   0.777  29.594   4.706
16624W        W76369   1.736  12.716  10.599
16625W        W76370  26.030  43.891   3.718
16626W        W76371  21.579  11.167   3.673
16627W        W76372  40.981  38.371  13.913
16628W        W76373  19.545   1.846   0.268
16629W        W76374  44.838  24.023   0.350
16630W        W76375  25.680  27.683   0.253
16631W        W76376  24.527   4.708  12.893
16632W        W76377  34.601  34.888  13.805
16633W        W76378  19.774   3.822  14.413
16634W        W76379   4.350  39.368  12.834
16635W        W76380  22.673   9.706  12.991
16636W        W76381  26.605   0.427   0.794
16637W        W76382   3.341  35.601   4.254
16638W        W76383  29.160  28.988   0.877
16639W        W76384  43.923  17.684   2.306
16640W        W76385  35.854  21.039   3.219
16641W        W76386  34.506  30.418   4.353
16642W        W76387  22.207  41.379  14.889
16643W        W76388  36.915   8.865  12.034
16644W        W76389   7.751  20.535   0.459
16645W        W76390  16.187  22.531   3.265
16646W        W76391   9.772  22.166  14.886
16647W        W76392  30.418  39.493   1.800
16648W        W76393  44.394   5.750   3.790
16649W        W76394  23.019  17.615  13.060
16650W        W76395  18.168  23.206   0.473
16651W        W76396  28.012   3.258  13.530
16652W        W76397   7.373  40.923  14.853
16653W        W76398  15.712   8.851   2.865
16654W        W76399  27.968  14.151  12.893
16655W        W76400  15.699  24.671  11.604
16656W        W76401   7.793  20.528  12.517
16657W        W76402  24.676  28.580  14.462
16658W        W76403  37.942  22.154   4.740
16659W        W76404  40.391   8.858  14.922
16660W        W76405  13.611  37.433  13.517
16661W        W76406  15.216   9.263   0.889
16662W        W76407  43.283  16.582  11.442
16663W        W76408  13.172   7.879   3.732
16664W        W76409   0.261  36.572   1.853
16665W        W76410  10.188  15.733  12.841
16666W        W76411  16.164  17.099  13.360
16667W        W76412   7.766  43.389   3.319
16668W        W76413  18.627  15.612   4.156
16669W        W76414  22.232   5.419  14.495
16670W        W76415   8.770  25.167   4.838
16671W        W76416   8.740  10.712  13.483
16672W        W76417  35.881   7.311   4.305
16673W        W76418  12.318  15.597   3.151
16674W        W76419   1.389  36.989   2.745
16675W        W76420   6.189   7.259  11.395
16676W        W76421  40.958  44.312   2.386
16677W        W76422   4.410  27.057   0.894
16678W        W76423  13.604  31.036  13.462
16679W        W76424  43.978   6.920   0.309
16680W        W76425  19.214  26.513   1.389
16681W        W76426  43.768  42.004   2.738
16682W        W76427  14.688  31.088   2.266
16683W        W76428  32.063  24.705   4.237
16684W        W76429   1.855   0.958  14.029
16685W        W76430  41.460  27.967   0.738
16686W        W76431  32.582  27.017  11.915
16687W        W76432  28.155  27.955  10.554
16688W        W76433  35.483  29.960   1.909
16689W        W76434  41.511  39.914  11.878
16690W        W76435  34.606  36.500  13.886
16691W        W76436  20.265  39.345  14.306
16692W        W76437  13.695  14.140   2.344
16693W        W76438   8.285  36.491   2.741
16694W        W76439  30.972  18.739   3.339
16695W        W76440  31.955   7.312  14.483
16696W        W76441   7.742  18.551   0.800
16697W        W76442  42.388  23.525   1.780
16698W        W76443  43.020  24.140   4.680
16699W        W76444  11.841  16.264  14.878
16700W        W76445  37.083  34.417   3.372
16701W        W76446  15.722  40.030   9.945
16702W        W76447  40.444  44.808   3.327
16703W        W76448  16.249  21.234  13.008
16704W        W76449  13.327  33.464   5.294
16705W        W76450  39.560  42.829   3.853
16706W        W76451  16.169  26.192  14.849
16707W        W76452  37.483  40.862  14.304
16708W        W76453  11.227  18.704  10.558
16709W        W76454  42.799  28.073  14.927
16710W        W76455  11.863  26.493  14.353
16711W        W76456  18.678  13.210   0.772
16712W        W76457  10.225  17.186  10.065
16713W        W76458  35.366  37.033  14.868
16714W        W76459  26.972  24.717   0.276
16715W        W76460  32.476  43.442  11.968
16716W        W76461  10.304  20.206  10.504
16717W        W76462   5.903   8.845   2.305
16718W        W76463  24.120  24.495   0.837
16719W        W76464  31.642  18.159   4.644
16720W        W76465  21.251   9.182   1.843
16721W        W76466  27.464  20.170  12.910
16722W        W76467  24.631  38.955   3.678
16723W        W76468  17.653  19.265   3.640
16724W        W76469  14.596  28.658  14.442
16725W        W76470  41.790  28.167  14.427
16726W        W76471  16.585   8.774  14.820
16727W        W76472  22.038  18.114  10.987
16728W        W76473   8.856   3.870   1.740
16729W        W76474  29.068   2.881  14.861
16730W        W76475  34.574  30.610  12.507
16731W        W76476  18.088  39.322   2.717
16732W        W76477  21.592  20.215   2.284
16733W        W76478  10.817  28.565   1.835
16734W        W76479  23.633  28.040   1.728
16735W        W76480  39.331  27.623   1.727
16736W        W76481  38.015   5.436  12.901
16737W        W76482  39.928   5.753  12.850
16738W        W76483  10.280   0.793   3.707
16739W        W76484  13.146  20.032   0.959
16740W        W76485  41.502  14.810  14.017
16741W        W76486  11.834  18.670   1.825
16742W        W76487  32.453   0.468  13.481
16743W        W76488  11.633  24.652   1.435
16744W        W76489   3.312  37.836  14.443
16745W        W76490   1.483  34.894  12.828
16746W        W76491  21.254  43.880   0.877
16747W        W76492   6.861  43.390  11.563
16748W        W76493   9.886  22.631  11.002
16749W        W76494  39.361   5.903  11.563
16750W        W76495  34.958  42.942   3.347
16751W        W76496   3.407  30.638   4.666
16752W        W76497  13.761  16.722  10.434
16753W        W76498  29.551  30.095  13.530
16754W        W76499   2.761   4.379   3.731
16755W        W76500  12.186  19.248  10.597
16756W        W76501  28.633   6.913  12.544
16757W        W76502   5.410  22.615   1.715
16758W        W76503  20.116  28.621  13.971
16759W        W76504   4.700  16.756   3.149
16760W        W76505  37.894   9.647  10.454
16761W        W76506   1.461   1.242  11.978
16762W        W76507  42.838  41.012  14.945
16763W        W76508  31.897  43.001   2.354
16764W        W76509   2.288   1.739   2.882
16765W        W76510  14.095  30.070  12.579
16766W        W76511   7.259  24.041   1.430
16767W        W76512  32.130  14.756   1.264
16768W        W76513  29.475   5.258   5.222
16769W        W76514  13.732  19.726  11.084
16770W        W76515  10.736  20.147  11.536
16771W        W76516  38.927  41.954  10.429
16772W        W76517  13.315  38.914   0.391
16773W        W76518   8.406  34.069  14.294
16774W        W76519  37.921  21.028  13.350
16775W        W76520  26.519  25.201   4.818
16776W        W76521   2.319  19.076   2.196
16777W        W76522  28.097  25.066  10.595
16778W        W76523  17.670  15.662  14.832
16779W        W76524  17.581  33.529  11.559
16780W        W76525   7.892  16.803   0.854
16781W        W76526   5.771  18.069   1.736
16782W        W76527  25.522  11.334   3.737
16783W        W76528  17.265  44.440  11.405
16784W        W76529  18.652  44.962   1.805
16785W        W76530  36.458  29.138   2.187
16786W        W76531  15.642  28.959   4.797
16787W        W76532   6.680  39.818  14.884
16788W        W76533   5.867  15.214  14.282
16789W        W76534   8.215  17.724   3.326
16790W        W76535  41.805  35.535   3.251
16791W        W76536  31.952  28.043  12.943
16792W        W76537  12.270  20.590   3.228
16793W        W76538  22.100  40.805  11.911
16794W        W76539  11.331   3.378   0.905
16795W        W76540  20.583  15.198   0.875
16796W        W76541   6.389  16.627  12.567
16797W        W76542  15.200  24.071  14.333
16798W        W76543  42.480  17.572  11.887
16799W        W76544  18.085   8.799   1.376
16800W        W76545   5.921  13.172  13.979
16801W        W76546  15.697  22.233  14.371
16802W        W76547  18.243  12.248   4.322
16803W        W76548  30.106  28.168  12.363
16804W        W76549  26.997  16.739   4.776
16805W        W76550  39.434   8.688   4.233
16806W        W76551  19.202  30.000  10.968
16807W        W76552  33.615  36.019  13.005
16808W        W76553  43.953  41.394   0.828
16809W        W76554  15.278   5.914  11.604
16810W        W76555  23.186   8.351   1.886
16811W        W76556  15.732   6.834  10.450
16812W        W76557  13.725  22.705   1.353
16813W        W76558  33.490  42.330   4.244
16814W        W76559   7.214  28.531  12.890
16815W        W76560   7.186  12.229   0.363
16816W        W76561  12.615   2.442   2.212
16817W        W76562  38.986  36.871   3.321
16818W        W76563   3.287  42.829   2.820
16819W        W76564   1.860  26.081   4.213
16820W        W76565   2.469  30.022   1.329
16821W        W76566  29.583   5.721  11.552
16822W        W76567  42.518  39.863   4.350
16823W        W76568  17.628  26.198  14.013
16824W        W76569   4.213  40.499  10.033
16825W        W76570  23.596  30.917   2.787
16826W        W76571  13.671  15.103   4.187
16827W        W76572  44.948  11.141  14.300
16828W        W76573  26.592  25.966   4.813
16829W        W76574   8.883   0.973  11.546
16830W        W76575  40.511  37.543   0.790
16831W        W76576  28.568  19.057  11.609
16832W        W76577  24.991  43.342  13.792
16833W        W76578  29.595  34.111   0.437
16834W        W76579  23.589  41.464   1.923
16835W        W76580  40.321  28.017   4.267
16836W        W76581   4.209  41.531  13.423
16837W        W76582  16.622  16.257   4.202
16838W        W76583  26.079  14.287   2.888
16839W        W76584  17.122  38.568   3.756
16840W        W76585  21.227   3.828  11.107
16841W        W76586  36.873  30.625  11.505
16842W        W76587  33.573   4.409  13.523
16843W        W76588  10.201  31.098   0.350
16844W        W76589  24.500  33.005   5.249
16845W        W76590   7.284  34.935   3.280
16846W        W76591  20.180   9.792  10.543
16847W        W76592  27.011  39.982   0.859
16848W        W76593   8.702  37.999  14.814
16849W        W76594  35.397  44.505   1.826
16850W        W76595  38.973  10.231   4.315
16851W        W76596  27.660  38.414   0.910
16852W        W76597   3.807  17.630  12.847
16853W        W76598   9.807  43.337  13.995
16854W        W76599  38.934   5.277  14.440
16855W        W76600  17.161  22.531   3.811
16856W        W76601   3.764  44.949   1.261
16857W        W76602   8.672  21.637  10.424
16858W        W76603  35.013  38.372  11.585
16859W        W76604  28.511  11.752  11.027
16860W        W76605  19.190  24.636   3.305
16861W        W76606  31.118  10.197   3.849
16862W        W76607   7.715   1.752   3.659
16863W        W76608  11.808  20.066   4.645
16864W        W76609  20.164   6.866  11.062
16865W        W76610  37.485   9.853   1.224
16866W        W76611  27.983  28.578  13.873
16867W        W76612  37.359  32.945  13.943
16868W        W76613  43.007  18.789   1.451
16869W        W76614  40.326  28.663   2.378
16870W        W76615  42.892   9.232  11.071
16871W        W76616  38.461  19.241  14.483
16872W        W76617  24.506   4.423  11.414
16873W        W76618   2.352  16.278  12.417
16874W        W76619  35.956  13.684   2.809
16875W        W76620  29.941  33.016  14.025
16876W        W76621   6.747  37.868  14.909
16877W        W76622  12.123  25.536  13.418
16878W        W76623  29.657  40.840  12.048
16879W        W76624  25.991  24.599  14.458
16880W        W76625   3.345  33.005   4.665
16881W        W76626  32.622   6.232  14.350
16882W        W76627  26.003  34.003  14.870
16883W        W76628   7.833   9.253   4.304
16884W        W76629   7.174  32.113   1.700
16885W        W76630  31.037  28.463   1.278
16886W        W76631  37.440  40.318   2.826
16887W        W76632  37.458  36.849   0.346
16888W        W76633   4.811  33.603   2.330
16889W        W76634   5.744  17.620   5.132
16890W        W76635  19.177  19.596  12.090
16891W        W76636  15.684  18.689  13.049
16892W        W76637  41.354   9.886  10.446
16893W        W76638  22.593  12.717   9.564
16894W        W76639  32.486   1.457   1.244
16895W        W76640  26.027  39.475  14.310
16896W        W76641  28.179  19.250   4.691
16897W        W76642   7.792  31.931   4.659
16898W        W76643  26.021  11.773  12.897
16899W        W76644  43.489  20.734   4.295
16900W        W76645  27.057  43.786   1.824
16901W        W76646   4.397  13.233  12.421
16902W        W76647  28.539   1.843  13.995
16903W        W76648  22.227  13.147  11.516
16904W        W76649   8.397  28.104   4.270
16905W        W76650  20.070  15.111  14.895
16906W        W76651  27.469  17.212   1.239
16907W        W76652  13.160  41.537  11.455
16908W        W76653  31.112  18.068  11.562
16909W        W76654   7.772  19.099   0.751
16910W        W76655  24.498  12.321  12.951
16911W        W76656  32.932  36.439  12.841
16912W        W76657   4.292  26.526  11.128
16913W        W76658  10.219  21.051   0.880
16914W        W76659  13.176   2.411  10.914
16915W        W76660  21.572   3.260  12.361
16916W        W76661  25.215   4.717   1.342
16917W        W76662  33.007  22.636   1.371
16918W        W76663  12.228  29.653  12.086
16919W        W76664  30.521  10.790   2.752
16920W        W76665  28.678   3.417   2.779
16921W        W76666  32.486  21.687  10.967
16922W        W76667  42.820  18.673  14.016
16923W        W76668  24.194   8.362  13.312
16924W        W76669  36.853  10.655  13.901
16925W        W76670  13.617  41.799   2.779
16926W        W76671  39.324  12.157  12.537
16927W        W76672  12.638  27.027  10.916
16928W        W76673  24.633  14.311   2.881
16929W        W76674  15.318   4.254  13.892
16930W        W76675  19.741  14.679  13.927
16931W        W76676  20.598   6.799   0.313
16932W        W76677  14.274  17.278   0.474
16933W        W76678  20.652  20.185  13.048
16934W        W76679  34.550  11.364  11.107
16935W        W76680  30.654  13.180  13.412
16936W        W76681  14.611  44.417   1.818
16937W        W76682  18.723   7.734   0.778
16938W        W76683  33.939  34.467  12.992
16939W        W76684  34.482  16.801   1.822
16940W        W76685  14.658  20.714  14.867
16941W        W76686   7.353  19.128  12.365
16942W        W76687  10.312  35.518   0.772
16943W        W76688  29.105  16.226  12.379
16944W        W76689  15.589  44.274  13.929
16945W        W76690   9.871  14.781   2.704
16946W        W76691  28.121  39.974   4.320
16947W        W76692  12.297  40.920  10.976
16948W        W76693  44.937  13.606  14.295
16949W        W76694  41.312  42.295  11.075
16950W        W76695  43.006  39.319   2.867
16951W        W76696  27.994   4.252   1.236
16952W        W76697  43.318  16.625  14.913
16953W        W76698  33.578   8.242  13.492
16954W        W76699  20.162  36.851   2.821
16955W        W76700  37.830  23.051   4.770
16956W        W76701  30.533  28.175  13.413
16957W        W76702  27.464  37.343  14.452
16958W        W76703  43.394  16.794   4.235
16959W        W76704  39.392  37.839   1.231
16960W        W76705  39.375   8.182  11.035
16961W        W76706   8.706  30.584   4.120
16962W        W76707  30.510  21.742   3.869
16963W        W76708  43.810   3.350  13.399
16964W        W76709  18.296  35.600  14.945
16965W        W76710  33.568  39.039   4.626
16966W        W76711   6.741  27.645   1.318
16967W        W76712   4.806  12.834  11.378
16968W        W76713  23.139  37.363  10.612
16969W        W76714  35.002  12.294   3.266
16970W        W76715   5.925  31.019  14.346
16971W        W76716  30.001   7.877  12.871
16972W        W76717  38.481  12.711  12.906
16973W        W76718   0.881   5.858  12.924
16974W        W76719   0.393  24.533  11.542
16975W        W76720  30.153  34.527   4.661
16976W        W76721   5.882  21.653  11.445
16977W        W76722   7.303  23.041   2.679
16978W        W76723  38.931  31.593  11.602
16979W        W76724  27.012  12.305  14.328
16980W        W76725  34.873  22.044  13.481
16981W        W76726  28.560  44.991  14.489
16982W        W76727  15.236  22.560   3.293
16983W        W76728  24.182  11.645   0.864
16984W        W76729  15.204   4.824  11.396
16985W        W76730  35.560  39.389   4.325
16986W        W76731  29.496  23.490   0.247
16987W        W76732  23.211  11.755  10.470
16988W        W76733  39.355  22.139  14.283
16989W        W76734  25.520   4.710  10.036
16990W        W76735   6.719  17.084  10.948
16991W        W76736  41.798   8.783  11.505
16992W        W76737  36.400  21.705   2.819
16993W        W76738   3.345  44.967  11.015
16994W        W76739   3.323  41.443   1.914
16995W        W76740   5.760  12.694  12.060
16996W        W76741  39.017  10.182  14.286
16997W        W76742  32.033  25.968   3.302
16998W        W76743  35.380  25.525  14.349
16999W        W76744  30.486  24.091  10.574
17000W        W76745   0.958   4.221   3.680
17001W        W76746  30.013   4.403   3.333
17002W        W76747  15.321  29.481   3.159
17003W        W76748   6.841   3.743   4.311
17004W        W76749  32.462  36.013  12.564
17005W        W76750  12.286   8.794  14.846
17006W        W76751   8.196  37.444   0.452
17007W        W76752  22.153  31.048   5.632
17008W        W76753  11.678   9.318  10.973
17009W        W76754  33.504  27.051   4.673
17010W        W76755   7.180  30.058   2.798
17011W        W76756  41.851   6.239   0.428
17012W        W76757  20.761  27.071   1.898
17013W        W76758  25.149   5.206  14.856
17014W        W76759  34.884  23.015   4.680
17015W        W76760  12.715   0.324  14.800
17016W        W76761  38.926  15.220   4.622
17017W        W76762  33.559  24.165   2.795
17018W        W76763  23.162  14.822  14.445
17019W        W76764   5.893  34.992  11.024
17020W        W76765  16.672  11.175   4.704
17021W        W76766  29.519  30.430   0.748
17022W        W76767  26.606  23.503   0.913
17023W        W76768  36.492   9.313  10.548
17024W        W76769   5.263  42.439   3.644
17025W        W76770  19.198  29.519  14.012
17026W        W76771  33.121  25.097   1.307
17027W        W76772  26.157   0.356  13.048
17028W        W76773  44.361  24.634  14.430
17029W        W76774  27.576  21.196  10.598
17030W        W76775  23.660  38.042  13.307
17031W        W76776   9.253  18.786  14.819
17032W        W76777   7.756  41.986   1.416
17033W        W76778   1.304   1.421  12.506
17034W        W76779  33.948  17.280  14.015
17035W        W76780  39.882  36.978  11.430
17036W        W76781  19.245  14.749  13.953
17037W        W76782  29.976  43.366  11.557
17038W        W76783  38.495  36.920   2.839
17039W        W76784  32.939  39.061   4.233
17040W        W76785  22.249  35.076  13.937
17041W        W76786  17.069  23.137  10.075
17042W        W76787  30.074  17.171  11.067
17043W        W76788  19.172  30.950   4.324
17044W        W76789  24.490   3.395   3.197
17045W        W76790  36.583   3.282  14.788
17046W        W76791  38.071   3.387   0.376
17047W        W76792   1.342  37.549   1.858
17048W        W76793  18.168  39.315  14.857
17049W        W76794  10.865  18.609   2.721
17050W        W76795  37.495   6.708   2.844
17051W        W76796  15.804   7.377  11.944
17052W        W76797   2.351   8.654   0.939
17053W        W76798  30.149  26.188  10.161
17054W        W76799  14.287  27.143   0.364
17055W        W76800  23.612   5.236   2.771
17056W        W76801  19.537   9.215  13.946
17057W        W76802   8.252  26.586  11.527
17058W        W76803  43.862  10.311  12.400
17059W        W76804   4.718  13.701  10.438
17060W        W76805  27.940   5.354  13.525
17061W        W76806  13.735  12.206   2.299
17062W        W76807  37.945  21.199   1.811
17063W        W76808  36.477   1.914   3.375
17064W        W76809  27.613  38.947   3.256
17065W        W76810   4.300  21.755   5.288
17066W        W76811  31.052  19.231   2.368
17067W        W76812  21.604  17.716   4.665
17068W        W76813  31.560  21.091   0.917
17069W        W76814  10.358  26.527  14.475
17070W        W76815  36.092  24.716   2.742
17071W        W76816  31.035  18.591   4.722
17072W        W76817   4.854  24.223   1.220
17073W        W76818  40.369   1.391   0.342
17074W        W76819  11.726  16.134  13.993
17075W        W76820  14.817  11.656  12.943
17076W        W76821  16.790   8.899   1.753
17077W        W76822  17.189   2.383  12.394
17078W        W76823  19.240  43.478  12.477
17079W        W76824  16.231  19.064   2.702
17080W        W76825  28.051  20.736  11.476
17081W        W76826  43.894  15.251  12.390
17082W        W76827  29.921  11.759   0.269
17083W        W76828  28.104  36.095  11.875
17084W        W76829  14.822  23.184   2.411
17085W        W76830  41.361  39.463   0.737
17086W        W76831  12.202  32.922   3.364
17087W        W76832   1.842  31.575  14.849
17088W        W76833  38.334  23.064   0.807
17089W        W76834  20.766  40.045   2.822
17090W        W76835  14.822  26.170  10.595
17091W        W76836   7.787  13.337   3.656
17092W        W76837   6.890   1.246   1.285
17093W        W76838  39.008  31.081   2.700
17094W        W76839  10.732  28.158  11.538
17095W        W76840  25.986  38.349   4.678
17096W        W76841  24.106   5.836  13.846
17097W        W76842  19.075  14.155   1.721
17098W        W76843  22.121   6.225  12.921
17099W        W76844   9.358  36.877   2.832
17100W        W76845  21.633  21.550  10.580
17101W        W76846  16.108  41.483   4.114
17102W        W76847  28.509  13.675  12.918
17103W        W76848   6.182  35.507   9.949
17104W        W76849  16.228  44.441   3.353
17105W        W76850  11.367   9.277  14.987
17106W        W76851  44.912  37.911   2.842
17107W        W76852  13.808  12.617   3.778
17108W        W76853  12.126   9.197  10.461
17109W        W76854  14.772   1.361  14.499
17110W        W76855  39.831   6.774  12.971
17111W        W76856   0.463  17.101  13.942
17112W        W76857  22.557   1.243   9.513
17113W        W76858  18.271  32.001  10.952
17114W        W76859  10.314  30.067   1.815
17115W        W76860  30.501  29.962  14.467
17116W        W76861  27.123   1.813   5.211
17117W        W76862  19.149  31.083  14.831
17118W        W76863  40.848  15.639   2.708
17119W        W76864  11.862  21.687  12.830
17120W        W76865  27.509  11.232   4.795
17121W        W76866  11.127  33.037   0.367
17122W        W76867  15.799  12.285  14.861
17123W        W76868  14.834   3.808  14.481
17124W        W76869  17.598  28.543   4.835
17125W        W76870  19.241  14.659  14.305
17126W        W76871  12.827   1.264   0.245
17127W        W76872  14.191  39.930   3.310
17128W        W76873  38.852  24.593   1.439
17129W        W76874  20.223  35.936  11.023
17130W        W76875  21.141  21.712  13.389
17131W        W76876  27.461  14.596   1.752
17132W        W76877  12.208  18.790  11.112
17133W        W76878  34.870  32.518   2.862
17134W        W76879  27.967  11.737  13.044
17135W        W76880   7.811  22.585   2.717
17136W        W76881  27.059  14.659   0.792
17137W        W76882   1.902  14.110  14.907
17138W        W76883   9.874  18.750  11.497
17139W        W76884  11.832  27.951  13.477
17140W        W76885  17.274   6.855   1.821
17141W        W76886  23.148  20.743   0.370
17142W        W76887   4.721  28.672   2.366
17143W        W76888   5.215  29.943   2.356
17144W        W76889  11.202   3.232  14.906
17145W        W76890   0.889   0.265  14.016
17146W        W76891  39.473   3.938  12.986
17147W        W76892  16.765   4.843   3.230
17148W        W76893  44.462  23.013   2.778
17149W        W76894  11.722  25.595   3.170
17150W        W76895  35.105  39.815   0.848
17151W        W76896   0.307  16.158  14.816
17152W        W76897  17.157  37.047  14.858
17153W        W76898  42.393  17.302   0.474
17154W        W76899  17.074  39.361   4.163
17155W        W76900  17.725  40.928  12.079
17156W        W76901  13.329  25.992   4.272
17157W        W76902  38.469  35.392  13.807
17158W        W76903   5.849  18.265   3.173
17159W        W76904   9.707   5.248  13.017
17160W        W76905  31.099  35.516  11.590
17161W        W76906  13.134  17.091  12.078
17162W        W76907  40.812  35.419   3.374
17163W        W76908  25.616   9.701  11.129
17164W        W76909  21.671  22.142  13.517
17165W        W76910  33.019  21.535   4.813
17166W        W76911  24.624  12.612  13.900
17167W        W76912  38.526  39.527   4.674
17168W        W76913  14.223  18.732  12.954
17169W        W76914  25.193  10.739  14.988
17170W        W76915  42.297  14.174   1.364
17171W        W76916  42.991   0.310  14.377
17172W        W76917  28.553  35.926   3.694
17173W        W76918  38.027  37.433  11.950
17174W        W76919   0.446  17.614  14.348
17175W        W76920  21.075  34.466  10.413
17176W        W76921  29.527   9.812   4.795
17177W        W76922  44.893  42.935  12.390
17178W        W76923   9.791  43.799   4.758
17179W        W76924  40.011  24.983  12.026
17180W        W76925  13.301  16.167  13.000
17181W        W76926  12.839  11.838  13.535
17182W        W76927  39.019  15.653  11.379
17183W        W76928  31.523  40.321   1.443
17184W        W76929  11.656  41.959   0.422
17185W        W76930  13.279  16.742   4.267
17186W        W76931   3.357   4.875  11.401
17187W        W76932  23.540  11.805  10.421
17188W        W76933  32.987   2.453  10.911
17189W        W76934  19.078  31.905  12.493
17190W        W76935  27.171  39.850   2.859
17191W        W76936  11.328  17.266   2.787
17192W        W76937  37.384  19.089  14.917
17193W        W76938  24.715   8.312   1.890
17194W        W76939  42.000  27.013   3.282
17195W        W76940  26.181  28.624   2.734
17196W        W76941  28.133   0.935  14.511
17197W        W76942  37.467  10.716   3.723
17198W        W76943  43.952  37.499  14.016
17199W        W76944   3.878  24.151  12.491
17200W        W76945  37.437  12.678  12.571
17201W        W76946  42.509  18.172   3.694
17202W        W76947   2.354   2.764  12.457
17203W        W76948  16.278  36.497  13.366
17204W        W76949   7.838  42.318   4.602
17205W        W76950   7.683  34.536   4.198
17206W        W76951  22.524   5.770  11.383
17207W        W76952  25.165  34.508  13.044
17208W        W76953   0.953   9.287   2.333
17209W        W76954   9.838   6.778  14.906
17210W        W76955   3.933  42.868   2.856
17211W        W76956  32.508   9.849   0.761
17212W        W76957  43.428  15.670   0.292
17213W        W76958  15.629   2.860  14.406
17214W        W76959  15.237   8.172  11.425
17215W        W76960  24.522  24.060   0.847
17216W        W76961  20.053  10.320   2.784
17217W        W76962  10.226  14.767  13.319
17218W        W76963  23.724   0.867   2.756
17219W        W76964  12.217  25.178   4.826
17220W        W76965  14.288  18.126  10.504
17221W        W76966  27.128   0.457   3.745
17222W        W76967  13.640   8.327   3.212
17223W        W76968  23.720  44.310   2.205
17224W        W76969  38.443  40.917   1.933
17225W        W76970  10.180  34.059  11.378
17226W        W76971  37.396  29.580  12.347
17227W        W76972  43.377  24.540   4.757
17228W        W76973  37.989   7.817   4.334
17229W        W76974  40.981  12.350   2.863
17230W        W76975  38.878  41.311  12.029
17231W        W76976  12.760  13.345  12.870
17232W        W76977  21.596  28.104  14.941
17233W        W76978  35.976  33.403   2.282
17234W        W76979  28.185  25.494   3.669
17235W        W76980  40.883  21.531   1.751
17236W        W76981  18.682  38.000   0.438
17237W        W76982   7.187  30.479  14.363
17238W        W76983  15.761   4.258  11.939
17239W        W76984   7.241   2.822  13.991
17240W        W76985  33.521  42.523  12.832
17241W        W76986  20.206  20.648  13.998
17242W        W76987  39.346   6.415   1.237
17243W        W76988   4.262  25.988   3.646
17244W        W76989  12.299   7.394   0.467
17245W        W76990  36.905  39.356   1.218
17246W        W76991  12.245  23.714  11.563
17247W        W76992  19.694  25.493  13.825
17248W        W76993   6.184  26.956  13.354
17249W        W76994  34.565  37.378  14.421
17250W        W76995   6.217  37.019  11.554
17251W        W76996   0.288  36.001   5.743
17252W        W76997  41.971  38.365   2.697
17253W        W76998  10.137   8.254  13.431
17254W        W76999   8.286  25.555   1.922
17255W        W77000  28.554   0.853   3.822
17256W        W77001  39.421  42.340   1.304
17257W        W77002  41.413  11.128   0.335
17258W        W77003   0.444  23.687   4.143
17259W        W77004  41.037  43.380   2.784
17260W        W77005  11.155   3.292   2.686
17261W        W77006  26.598   5.812   3.151
17262W        W77007  27.975  26.528   4.203
17263W        W77008   3.714  32.142   2.203
17264W        W77009   7.286  33.534  13.444
17265W        W77010  32.064  25.048  14.910
17266W        W77011  21.517  42.444  11.500
17267W        W77012  41.798  12.334  14.829
17268W        W77013   0.335  27.073   3.820
17269W        W77014  25.552  40.910  11.504
17270W        W77015  22.575  18.724   1.376
17271W        W77016   1.318  10.363   0.939
17272W        W77017   3.940   1.283  12.539
17273W        W77018   4.709  10.873  12.413
17274W        W77019  25.577  10.828   4.325
17275W        W77020  38.038  16.610  14.914
17276W        W77021  20.244  38.964   1.814
17277W        W77022  20.656  18.075  13.320
17278W        W77023  23.565  32.038   3.852
17279W        W77024  32.128   6.381   1.788
17280W        W77025  15.652  33.009   3.692
17281W        W77026  19.162  11.317   4.726
17282W        W77027   3.836  28.044   2.285
17283W        W77028  13.200  38.544  14.007
17284W        W77029  12.854  34.001  10.074
17285W        W77030  10.147  26.606  14.868
17286W        W77031   2.292  16.643  12.378
17287W        W77032  43.345  10.773   1.764
17288W        W77033   0.841   3.770   3.293
17289W        W77034   9.169  10.323   1.907
17290W        W77035  28.106  35.053  13.063
17291W        W77036  19.058  32.928   0.856
17292W        W77037   2.331  25.473   1.717
17293W        W77038  44.416   6.759  13.430
17294W        W77039  44.771  34.525  14.940
17295W        W77040  23.197  36.544   4.141
17296W        W77041  23.134  21.694  14.380
17297W        W77042  18.687  44.309  11.491
17298W        W77043   0.341   1.417   1.815
17299W        W77044  28.115  26.607   2.404
17300W        W77045  31.519  38.930   2.309
17301W        W77046  42.469   9.320  12.031
17302W        W77047  15.093  21.538  12.513
17303W        W77048   0.845  25.707  13.421
17304W        W77049   1.254  40.411  12.847
17305W        W77050  24.155  13.189  12.010
17306W        W77051  39.869  21.534   0.886
17307W        W77052  16.311  13.835   2.399
17308W        W77053   4.898  16.758   1.730
17309W        W77054  34.976  40.996  10.430
17310W        W77055  31.013   6.863  13.399
17311W        W77056   8.276  18.674   4.743
17312W        W77057  13.766  33.474  11.537
17313W        W77058  28.584  35.993   4.256
17314W        W77059  40.871  28.480  12.933
17315W        W77060   4.207  11.354   3.181
17316W        W77061   6.350  17.625  11.485
17317W        W77062  25.201   0.360   2.293
17318W        W77063  11.184  43.839  12.898
17319W        W77064   3.795  35.044   0.459
17320W        W77065  37.442  16.786  14.442
17321W        W77066   6.867  21.593  11.116
17322W        W77067  23.654  15.235   0.242
17323W        W77068  13.747   1.803  12.917
17324W        W77069   8.811  34.902   3.702
17325W        W77070   4.241  37.965   2.886
17326W        W77071  18.548   8.851   3.353
17327W        W77072  18.064   8.680  13.403
17328W        W77073   4.326  29.607  12.844
17329W        W77074  10.264  31.592  12.859
17330W        W77075  19.215  34.430  14.815
17331W        W77076  26.040  38.345  10.497
17332W        W77077  28.114  31.601  12.864
17333W        W77078   4.872   4.770  14.365
17334W        W77079   0.828   3.283  11.097
17335W        W77080  30.421  40.984  14.337
17336W        W77081   4.814  16.220  11.445
17337W        W77082  33.580   9.268   0.343
17338W        W77083  37.385   4.352   2.230
17339W        W77084  17.157  31.540   1.343
17340W        W77085  11.152  35.537  14.849
17341W        W77086  41.509  18.145  13.917
17342W        W77087  32.949  44.470  14.862
17343W        W77088  27.634  38.051   3.636
17344W        W77089  25.085  22.558   0.323
17345W        W77090  20.677  36.017  13.316
17346W        W77091   7.361  33.510  12.976
17347W        W77092  29.010  15.745  10.563
17348W        W77093  20.738  37.016  12.507
17349W        W77094  42.303  36.491   4.224
17350W        W77095   5.348  33.530   4.303
17351W        W77096  22.523  21.024   4.248
17352W        W77097  34.475  15.284   0.459
17353W        W77098  32.918  20.717   3.171
17354W        W77099  16.087  32.445  10.934
17355W        W77100   4.365  20.528   4.191
17356W        W77101  30.597  28.462   2.352
17357W        W77102  38.852  23.072  13.397
17358W        W77103  10.311  20.656   1.724
17359W        W77104   9.889   2.743  13.928
17360W        W77105  43.353  17.795  10.958
17361W        W77106   4.908  27.170   2.671
17362W        W77107  36.018  34.946  14.776
17363W        W77108   7.855  33.468  10.137
17364W        W77109  38.992  11.670  13.052
17365W        W77110  21.219  37.066   0.961
17366W        W77111  22.011   6.768   1.368
17367W        W77112  26.057  34.489  14.331
17368W        W77113  12.283   2.909   0.358
17369W        W77114  26.573  32.938  10.974
17370W        W77115  29.449  31.403   2.804
17371W        W77116   3.834  35.559  13.384
17372W        W77117  42.776   5.285  10.887
17373W        W77118  36.846  33.613  10.910
17374W        W77119   4.917  16.705  13.393
17375W        W77120  23.602  10.191   0.937
17376W        W77121   0.300  39.815  13.966
17377W        W77122  28.955  11.241   0.790
17378W        W77123  10.850  35.418  14.363
17379W        W77124  40.021  39.535  11.963
17380W        W77125  31.072  35.914  10.564
17381W        W77126  35.897   8.380   2.266
17382W        W77127  11.232  32.422   4.263
17383W        W77128  10.868  22.684  11.108
17384W        W77129  37.900   4.447   1.338
17385W        W77130  15.106  10.771   3.184
17386W        W77131  37.479  19.764  11.859
17387W        W77132   0.423  40.415  10.479
17388W        W77133   9.228   2.374  12.068
17389W        W77134  27.091  13.122  12.981
17390W        W77135  33.474   7.237   1.241
17391W        W77136   8.678   3.915  12.500
17392W        W77137  38.511  21.076  12.845
17393W        W77138  10.269  33.967   0.883
17394W        W77139  40.487   6.720   2.858
17395W        W77140  18.253  20.100  13.548
17396W        W77141  14.592   9.216  10.580
17397W        W77142   8.301  10.733   1.896
17398W        W77143  24.479  31.567   2.822
17399W        W77144  15.161  29.990  13.434
17400W        W77145  17.279  15.752   1.912
17401W        W77146  29.099   9.377  12.967
17402W        W77147  11.195  37.901   2.772
17403W        W77148  24.046  20.184   4.116
17404W        W77149  13.254   4.374  11.964
17405W        W77150   3.375   1.945  11.098
17406W        W77151   2.330   2.858   3.298
17407W        W77152  34.097   6.887   4.612
17408W        W77153  19.277  26.123   1.912
17409W        W77154  23.032  11.146   4.207
17410W        W77155  22.664  10.750   1.767
17411W        W77156   3.843  26.063  14.778
17412W        W77157  38.470  12.810   0.447
17413W        W77158  35.455  27.667   0.325
17414W        W77159  42.966  35.511   0.913
17415W        W77160  23.590  11.315  10.009
17416W        W77161   4.409  16.677   9.932
17417W        W77162  28.607  21.122  10.939
17418W        W77163  21.051  28.570   1.337
17419W        W77164   7.750   9.375   3.821
17420W        W77165  12.178  16.272  14.902
17421W        W77166  15.090   0.414  12.970
17422W        W77167   0.416   3.256  14.787
17423W        W77168   0.270   5.357   4.241
17424W        W77169  15.148   4.314  14.813
17425W        W77170  24.650  14.202  12.918
17426W        W77171  44.984  15.666  10.641
17427W        W77172  18.109   4.778  13.802
17428W        W77173  36.844   1.876  11.597
17429W        W77174   2.440  34.589   3.636
17430W        W77175   7.183  35.994   0.942
17431W        W77176  41.454  34.592  10.950
17432W        W77177  12.802   0.387  13.888
17433W        W77178   0.758  26.077   4.720
17434W        W77179   7.246   7.416   3.320
17435W        W77180  42.911  39.458  14.974
17436W        W77181  19.661  33.567   0.953
17437W        W77182  35.427  29.088   4.801
17438W        W77183   9.865  29.596  12.864
17439W        W77184  26.681   0.470  12.413
17440W        W77185   1.894  37.861   2.730
17441W        W77186  40.417   0.415  11.997
17442W        W77187  12.246  44.912  14.013
17443W        W77188  19.640  35.531  10.971
17444W        W77189   5.902   6.856   1.420
17445W        W77190   1.443   2.805   4.658
17446W        W77191  34.936  25.533   2.842
17447W        W77192  12.278   2.334  13.492
17448W        W77193   6.208  19.222  12.020
17449W        W77194   0.908  16.783  11.906
17450W        W77195   5.269  43.858  11.536
17451W        W77196  34.060  29.497   4.756
17452W        W77197  39.547  18.586  12.515
17453W        W77198  43.812  16.158  11.397
17454W        W77199  35.404  22.592  14.791
17455W        W77200  12.654  43.381  12.523
17456W        W77201  14.647  15.112  12.943
17457W        W77202  30.646  22.246   0.398
17458W        W77203   4.354  27.075   3.187
17459W        W77204  31.500  36.445   1.410
17460W        W77205  26.120  44.366   0.268
17461W        W77206  17.766  36.861   3.374
17462W        W77207   6.303  28.955   4.699
17463W        W77208   2.856  23.575  10.900
17464W        W77209  23.209  10.251   3.846
17465W        W77210  20.208  44.480  12.374
17466W        W77211   9.834  21.526  14.871
17467W        W77212  40.505   4.284   4.114
17468W        W77213   9.857  38.472  12.893
17469W        W77214  40.943  29.129  13.459
17470W        W77215   2.816  22.531   9.466
17471W        W77216  43.020   7.306  12.468
17472W        W77217  24.045  44.404  14.766
17473W        W77218  22.020  21.092  13.423
17474W        W77219  19.648  17.118   9.925
17475W        W77220  23.157  20.704   3.220
17476W        W77221  11.812  31.034  12.027
17477W        W77222  25.666  41.372   2.727
17478W        W77223   1.911  13.151  14.029
17479W        W77224   8.849   2.324  11.014
17480W        W77225  30.976  40.933   4.663
17481W        W77226   1.396  28.000   4.732
17482W        W77227  19.088  24.045  13.493
17483W        W77228  12.672   5.798  13.845
17484W        W77229  31.543  18.073  12.400
17485W        W77230  30.981  34.077  11.078
17486W        W77231  39.502   8.300   1.914
17487W        W77232  38.905  24.639   3.183
17488W        W77233  25.070  11.837  11.581
17489W        W77234  40.451  42.369  11.428
17490W        W77235  14.317  11.325   4.115
17491W        W77236  36.351  43.487  11.114
17492W        W77237  42.785  21.619  13.464
17493W        W77238  35.396   9.281  11.875
17494W        W77239  40.308   4.214  14.021
17495W        W77240  11.748  35.048  11.997
17496W        W77241  29.637  41.886  13.898
17497W        W77242  20.600  17.709   1.225
17498W        W77243  36.477  25.206  12.462
17499W        W77244   4.405  26.099  11.544
17500W        W77245   6.358   0.359   3.341
17501W        W77246  26.570   7.743  12.055
17502W        W77247  43.893   9.373  13.307
17503W        W77248  23.586  26.571  13.942
17504W        W77249  33.470  19.267   2.406
17505W        W77250  39.384  13.203   4.282
17506W        W77251   1.816   3.423  13.063
17507W        W77252   6.387  13.608  10.497
17508W        W77253  41.930  19.239  13.409
17509W        W77254   6.352  27.506  11.597
17510W        W77255  35.453  36.407  11.426
17511W        W77256   5.794  23.228   2.296
17512W        W77257   0.412   6.301  13.981
17513W        W77258  23.544  16.580   0.916
17514W        W77259  40.882  34.500  14.910
17515W        W77260  30.481   5.898  12.406
17516W        W77261   4.284  14.772   3.199
17517W        W77262  23.986   2.319   3.263
17518W        W77263  30.128  17.078  12.513
17519W        W77264  20.044  21.720  12.580
17520W        W77265  22.116   1.427  14.343
17521W        W77266   5.225  13.715   0.253
17522W        W77267  27.070  40.385   2.361
17523W        W77268  27.019  17.625  14.032
17524W        W77269  12.643  12.278   0.914
17525W        W77270   4.889  10.335  12.447
17526W        W77271  31.431  27.691   2.261
17527W        W77272  18.774  30.657  14.421
17528W        W77273   4.731  32.414  11.520
17529W        W77274   8.190  10.780   3.181
17530W        W77275  27.687  12.189  14.322
17531W        W77276  12.679  41.377   1.308
17532W        W77277  36.076   5.356  10.592
17533W        W77278  26.018   0.344   4.179
17534W        W77279  33.936  25.619   3.852
17535W        W77280  11.754  16.701  13.821
17536W        W77281   9.346  10.862  14.316
17537W        W77282  12.770   8.671  10.522
17538W        W77283  30.548  38.039  13.471
17539W        W77284  39.535   5.318   0.251
17540W        W77285  21.205  18.789  12.540
17541W        W77286  12.660  12.803   2.399
17542W        W77287  41.977  18.565  13.452
17543W        W77288  13.268  29.582  11.520
17544W        W77289  24.052  32.564  10.143
17545W        W77290   4.708  21.722   2.867
17546W        W77291  41.879   1.750  11.937
17547W        W77292   3.917  42.506  13.446
17548W        W77293  40.876  42.504  14.858
17549W        W77294  44.792  43.309  11.422
17550W        W77295  19.179  42.885  13.509
17551W        W77296  28.588  20.057  11.456
17552W        W77297  15.635  40.465   2.340
17553W        W77298  43.992   4.250  12.378
17554W        W77299  18.608   5.414  11.079
17555W        W77300  18.582   5.256  14.507
17556W        W77301  26.062  39.841   1.734
17557W        W77302   3.803  20.736  11.554
17558W        W77303  27.678  30.022  13.988
17559W        W77304   4.360  26.160   0.794
17560W        W77305  12.314   4.893   0.740
17561W        W77306  23.112   5.707  14.928
17562W        W77307  13.691  15.329  11.387
17563W        W77308  32.138   0.420   2.900
17564W        W77309  20.611  22.102   2.385
17565W        W77310  40.005  28.509  10.474
17566W        W77311  14.191  21.136  14.809
17567W        W77312  30.964   3.745   3.831
17568W        W77313  37.841   6.330   3.786
17569W        W77314  32.013   5.822  12.877
17570W        W77315  25.630  23.584   2.359
17571W        W77316  31.612   0.780  10.506
17572W        W77317  35.038  23.600   2.400
17573W        W77318  15.143   9.803   2.670
17574W        W77319  26.180  35.369  12.536
17575W        W77320  30.628   0.809   3.299
17576W        W77321  14.779   6.719   4.819
17577W        W77322  23.084  12.296   3.187
17578W        W77323  38.444  28.637  14.760
17579W        W77324   3.389  38.907  13.351
17580W        W77325  33.874  42.810   4.828
17581W        W77326   0.808  23.694  10.149
17582W        W77327  33.595  22.517  14.452
17583W        W77328  29.597  17.596  10.994
17584W        W77329   3.800  13.206   4.699
17585W        W77330   5.366   0.334   0.452
17586W        W77331  35.489  21.214   1.406
17587W        W77332  41.997  16.703   3.703
17588W        W77333  12.690  29.557   2.832
17589W        W77334  43.441  43.282   2.306
17590W        W77335   1.307  34.866  14.297
17591W        W77336  10.754   7.815  11.482
17592W        W77337   2.323  35.934   2.827
17593W        W77338  10.841  40.893   2.730
17594W        W77339  43.910  15.231  14.429
17595W        W77340  17.303   7.238  11.473
17596W        W77341  35.454  18.694   4.228
17597W        W77342   9.282   9.772   4.166
17598W        W77343  30.056  22.093  11.920
17599W        W77344   6.423  13.140   3.200
17600W        W77345  42.519  29.149  14.406
17601W        W77346  15.128  17.151  10.519
17602W        W77347  37.562  44.826  10.427
17603W        W77348  42.292  24.490   0.852
17604W        W77349   3.794  10.346  13.432
17605W        W77350   2.795  15.088  11.896
17606W        W77351  25.558  18.093  12.898
17607W        W77352   0.900  23.111  14.789
17608W        W77353  26.059   8.386  13.888
17609W        W77354   2.451  17.166  13.910
17610W        W77355   2.926  44.476  14.477
17611W        W77356  30.155  30.539   1.809
17612W        W77357  10.765   4.791   2.191
17613W        W77358  14.766   1.318  13.483
17614W        W77359   7.373  20.648  14.957
17615W        W77360   0.914   6.208  14.425
17616W        W77361  28.469  27.043  12.032
17617W        W77362  39.423   5.779   3.865
17618W        W77363   1.328   8.809   5.112
17619W        W77364  27.095  39.835   4.684
17620W        W77365  25.498  23.199  14.493
17621W        W77366  43.769  37.451  14.897
17622W        W77367  32.027  15.295   2.197
17623W        W77368  15.730  30.156   1.731
17624W        W77369  22.609  43.965   3.685
17625W        W77370  29.658  32.577   3.789
17626W        W77371  40.391  21.743  14.480
17627W        W77372  34.876  27.507  11.060
17628W        W77373  19.110  41.897   3.202
17629W        W77374   9.278  34.915   1.325
17630W        W77375  20.699  11.215  10.580
17631W        W77376  39.871  12.757  13.357
17632W        W77377   8.300  31.983  10.049
17633W        W77378   0.751  23.536  12.923
17634W        W77379  26.034  39.438   2.696
17635W        W77380  24.036  31.638   0.437
17636W        W77381  18.055  25.554  14.813
17637W        W77382  39.440  40.531   2.828
17638W        W77383  21.546  14.179  12.075
17639W        W77384   8.846  20.218   4.202
17640W        W77385   0.309   2.855  11.506
17641W        W77386  12.315  42.020  14.924
17642W        W77387  12.715  42.403  12.837
17643W        W77388   0.867  31.567   0.338
17644W        W77389   8.760  35.398  12.563
17645W        W77390  41.935  36.857   1.216
17646W        W77391  13.671  35.106   4.801
17647W        W77392  33.567  38.369  12.487
17648W        W77393  13.803  39.939  12.914
17649W        W77394  43.883  32.909  14.312
17650W        W77395   0.808  15.224  14.930
17651W        W77396   3.419  37.339  12.006
17652W        W77397   4.934  19.204  13.797
17653W        W77398  23.641  29.472  10.403
17654W        W77399   3.402  23.704  12.465
17655W        W77400  24.061   0.482  11.873
17656W        W77401  17.175  31.057  10.418
17657W        W77402  17.780  11.742  12.511
17658W        W77403  13.634   0.838  10.477
17659W        W77404  43.335  11.702  10.908
17660W        W77405   0.845  44.000  10.585
17661W        W77406  21.097  39.883   0.299
17662W        W77407   2.462  36.456   1.754
17663W        W77408  24.175  16.636   4.127
17664W        W77409  16.193  37.519   0.472
17665W        W77410  36.448  29.499   4.179
17666W        W77411  21.743  21.084   1.304
17667W        W77412  41.326  10.827   4.208
17668W        W77413   7.873  27.084  10.588
17669W        W77414  40.021   8.861  10.454
17670W        W77415  38.056  27.482  11.470
17671W        W77416  19.537   8.383   2.284
17672W        W77417   0.444  15.224   3.252
17673W        W77418  18.705  18.738   4.763
17674W        W77419  14.159  31.111   3.777
17675W        W77420  38.549  41.486   4.323
17676W        W77421  44.486  23.675   5.182
17677W        W77422  42.787  23.734   1.217
17678W        W77423  31.045  22.244   0.256
17679W        W77424   2.890  16.605  14.503
17680W        W77425  20.124   5.874  13.956
17681W        W77426  34.080  44.412  11.462
17682W        W77427  14.696  30.471  14.367
17683W        W77428  23.642  17.640  10.562
17684W        W77429  11.205  15.693   0.819
17685W        W77430  33.012  30.521   0.338
17686W        W77431  31.143   9.757   4.306
17687W        W77432  13.290  42.920  13.483
17688W        W77433  26.171  25.539   1.724
17689W        W77434  42.894  39.519   0.786
17690W        W77435  43.467   1.267  10.958
17691W        W77436  29.949  41.019  11.958
17692W        W77437  23.708  32.002  11.902
17693W        W77438  21.107  24.209  14.012
17694W        W77439  28.460  43.017   0.289
17695W        W77440  25.614   2.410   1.789
17696W        W77441   3.283  37.919  13.941
17697W        W77442  16.618  38.871  14.495
17698W        W77443  24.515   7.850   3.233
17699W        W77444  22.182  40.480  10.458
17700W        W77445  31.970  36.425   4.804
17701W        W77446   9.813  21.565   4.636
17702W        W77447   1.934  42.472  12.518
17703W        W77448  40.920  36.378  14.928
17704W        W77449  36.524  14.189  13.358
17705W        W77450   5.826  11.698   3.284
17706W        W77451  19.556   4.230  10.997
17707W        W77452  10.677  40.963  12.030
17708W        W77453  31.415  22.012   0.809
17709W        W77454  22.048  17.247   1.759
17710W        W77455  26.106  31.634  13.922
17711W        W77456  36.350  30.071   4.168
17712W        W77457  35.962  11.651   2.261
17713W        W77458  12.323   7.229  11.984
17714W        W77459  43.449   7.876  13.792
17715W        W77460   8.687  37.901  10.414
17716W        W77461  30.645  31.632   5.750
17717W        W77462   3.238  44.876  13.354
17718W        W77463  25.507  20.667   0.251
17719W        W77464  17.557  42.865  14.284
17720W        W77465  26.060  19.072  11.923
17721W        W77466  20.090  26.046   1.828
17722W        W77467   7.825  17.740   0.255
17723W        W77468   6.420  11.663  11.429
17724W        W77469  29.979  13.640   3.229
17725W        W77470  15.580  42.453   3.230
17726W        W77471   5.756  26.508  13.311
17727W        W77472  32.897  42.839   3.191
17728W        W77473   8.258   2.429   4.663
17729W        W77474  43.496  36.548  12.010
17730W        W77475  15.312  40.548   3.261
17731W        W77476  40.469  42.422  12.839
17732W        W77477  41.324  15.786  12.473
17733W        W77478  38.905  14.331   4.324
17734W        W77479  10.778   4.231  14.323
17735W        W77480  20.688  29.998   0.914
17736W        W77481   5.277  44.895   4.203
17737W        W77482  16.744  29.058  13.048
17738W        W77483  39.024  13.152  14.875
17739W        W77484   8.273  18.086  12.942
17740W        W77485  38.942   1.349   4.185
17741W        W77486  28.644  34.106   4.603
17742W        W77487  37.045  26.012  14.871
17743W        W77488   0.481  27.653  11.404
17744W        W77489   6.335  19.258   0.289
17745W        W77490  42.499  43.777   4.200
17746W        W77491  42.878  36.998  11.017
17747W        W77492  38.412  31.444   4.749
17748W        W77493   0.478  30.938  11.927
17749W        W77494  11.640  18.166  14.433
17750W        W77495  12.805  26.078   3.214
17751W        W77496  27.125  44.285   3.797
17752W        W77497  23.034  44.834   1.264
17753W        W77498   3.823  37.924   4.131
17754W        W77499  15.748  32.020   2.722
17755W        W77500  43.394  27.995   2.892
17756W        W77501  18.701  15.762  12.542
17757W        W77502  18.612  42.814   4.313
17758W        W77503  12.338  19.066  12.386
17759W        W77504   9.821   4.318   1.701
17760W        W77505  23.203  13.244   2.352
17761W        W77506  17.584   9.367  10.611
17762W        W77507  23.634  36.498  14.356
17763W        W77508  22.666   7.367   1.813
17764W        W77509   4.897   6.185   3.203
17765W        W77510  37.409  23.180  11.855
17766W        W77511   1.967  36.347  13.396
17767W        W77512  10.272  41.327   2.814
17768W        W77513   3.396   1.375   2.369
17769W        W77514  14.781  25.990  14.879
17770W        W77515  24.592  25.205  11.078
17771W        W77516  31.533  13.320  11.117
17772W        W77517  33.070  12.236   2.332
17773W        W77518  39.517   1.901  14.508
17774W        W77519  40.902  12.624   1.378
17775W        W77520  17.063  33.085  11.464
17776W        W77521   7.859  27.120  10.935
17777W        W77522  16.707  10.211  14.449
17778W        W77523  41.990  28.650  10.540
17779W        W77524   5.221  30.418   4.263
17780W        W77525  26.184  28.950  11.970
17781W        W77526   2.965  36.846  14.328
17782W        W77527  15.223  26.104   1.305
17783W        W77528  40.815  27.467  14.016
17784W        W77529   6.850  35.489   4.741
17785W        W77530  18.096  11.290  14.952
17786W        W77531   0.390  40.044  14.306
17787W        W77532  17.199  30.130  12.354
17788W        W77533  25.166  12.650  12.005
17789W        W77534  26.567  30.605   3.765
17790W        W77535  28.102  31.001   0.791
17791W        W77536  44.501  43.287   4.659
17792W        W77537  25.537   1.458  13.028
17793W        W77538  38.969  33.918  12.870
17794W        W77539  44.354  36.977   2.314
17795W        W77540  36.854  39.488  14.432
17796W        W77541  42.449  35.520  14.410
17797W        W77542  37.385  14.106   1.791
17798W        W77543   8.892  11.678  13.458
17799W        W77544  42.801  13.678  12.438
17800W        W77545   5.316  30.999  12.944
17801W        W77546  44.386   5.271  13.432
17802W        W77547  24.118   8.276  14.940
17803W        W77548  34.922  21.579   2.722
17804W        W77549  30.156  24.095   4.240
17805W        W77550  39.877  29.620   1.362
17806W        W77551  28.146  13.673   3.145
17807W        W77552  11.348  31.133  12.022
17808W        W77553  16.750  31.064  14.933
17809W        W77554  43.908  38.424   5.137
17810W        W77555  22.670   3.821  13.811
17811W        W77556  40.532  31.413   1.310
17812W        W77557   3.874  32.937   3.782
17813W        W77558  19.582  38.450   3.217
17814W        W77559  16.202  17.074   1.429
17815W        W77560  44.777  16.316   0.874
17816W        W77561  38.433  35.031  10.621
17817W        W77562  20.625  29.084   4.626
17818W        W77563  16.725  44.419  12.552
17819W        W77564   6.286  32.498   4.208
17820W        W77565  32.110  15.779   2.399
17821W        W77566  21.621   0.975   4.829
17822W        W77567  33.488  26.543   3.244
17823W        W77568   8.261   4.391  14.812
17824W        W77569  42.838  26.660   2.734
17825W        W77570  10.277  15.246   4.237
17826W        W77571   2.317  29.009  13.824
17827W        W77572  24.177  15.191  10.510
17828W        W77573  22.150  24.099   3.643
17829W        W77574  13.169  15.685  10.949
17830W        W77575  19.284  44.470  14.939
17831W        W77576  12.620  16.121  11.119
17832W        W77577  25.525  40.326  14.434
17833W        W77578   6.298  28.500   1.805
17834W        W77579  40.815  44.397  11.431
17835W        W77580   9.670  36.904  10.967
17836W        W77581  24.563  36.358   1.399
17837W        W77582  39.463  24.085  14.506
17838W        W77583  28.664  31.479   1.407
17839W        W77584   0.442  35.360  10.046
17840W        W77585  38.911  21.622   1.326
17841W        W77586  10.750  40.498   1.364
17842W        W77587  34.987   7.831   1.721
17843W        W77588   7.855  36.954  12.988
17844W        W77589  41.864  33.939   1.254
17845W        W77590   4.909  31.054  11.893
17846W        W77591  24.617  21.077  13.350
17847W        W77592  23.611  12.793   3.860
17848W        W77593  26.114  20.096   3.301
17849W        W77594   7.264  44.772   0.817
17850W        W77595  43.948  10.182   4.271
17851W        W77596   3.313  23.735  12.843
17852W        W77597   2.353  42.512  11.117
17853W        W77598  39.940  16.307   3.183
17854W        W77599   1.337  17.299  14.467
17855W        W77600  37.430   9.814  14.451
17856W        W77601  41.867  35.541   4.798
17857W        W77602  36.395  16.605   2.835
17858W        W77603  42.339  35.458  11.917
17859W        W77604  43.891   4.913   3.175
17860W        W77605  39.442  20.179  13.884
17861W        W77606  19.247   0.890   3.224
17862W        W77607  31.146  21.661  14.394
17863W        W77608  41.409  36.918  12.065
17864W        W77609  36.497  41.877  12.570
17865W        W77610  18.645  27.163  14.811
17866W        W77611  11.323  14.673   3.722
17867W        W77612  35.465  29.576  14.277
17868W        W77613  22.106  36.872   4.344
17869W        W77614  20.662   6.748  11.513
17870W        W77615  11.334  14.620  11.968
17871W        W77616   1.900  25.497  14.402
17872W        W77617  42.920  36.356   1.220
17873W        W77618  30.540   1.368   1.783
17874W        W77619   1.898  41.345   5.148
17875W        W77620   5.802  42.360  11.450
17876W        W77621  14.622   0.365   0.383
17877W        W77622   2.829   0.448  14.477
17878W        W77623  24.631  16.154   2.397
17879W        W77624  13.156   5.865   2.728
17880W        W77625  41.823  10.636  14.297
17881W        W77626  23.633  18.196   4.630
17882W        W77627  44.951  17.137  11.396
17883W        W77628   5.250  41.418  12.979
17884W        W77629  44.408  27.116  10.016
17885W        W77630   1.348   9.186  11.576
17886W        W77631  13.242   7.261  14.764
17887W        W77632  35.098  16.079  11.059
17888W        W77633  17.168   4.840   0.865
17889W        W77634   3.763  38.535  11.024
17890W        W77635  35.090  29.548  10.463
17891W        W77636  30.473  35.972   0.813
17892W        W77637  10.212  23.734   3.368
17893W        W77638  16.730  20.654   0.838
17894W        W77639  19.759  26.131   2.205
17895W        W77640  43.335  35.997   3.658
17896W        W77641  41.792   8.257  10.440
17897W        W77642  20.557  28.956   1.393
17898W        W77643  40.912  40.998  13.962
17899W        W77644  40.808   2.803  13.025
17900W        W77645  38.347  20.238   1.915
17901W        W77646  23.115   8.861  12.491
17902W        W77647   9.772  40.922  14.799
17903W        W77648   3.856  32.464  10.459
17904W        W77649  40.939  22.086  13.351
17905W        W77650  18.743   1.773  13.896
17906W        W77651  25.188  20.115  12.452
17907W        W77652   3.905  40.022  12.891
17908W        W77653  24.505  30.462   2.798
17909W        W77654  28.966   9.739  11.928
17910W        W77655  14.117  27.141  13.842
17911W        W77656   3.888  11.179  11.123
17912W        W77657  19.119  17.728   0.345
17913W        W77658  16.136  44.006   1.782
17914W        W77659  37.934   1.757   3.162
17915W        W77660  33.922   3.349   1.242
17916W        W77661  39.013   2.234   4.212
17917W        W77662  29.043  41.940   2.825
17918W        W77663  34.960   3.393   4.194
17919W        W77664  23.663   5.741  11.937
17920W        W77665  42.887  40.383  13.428
17921W        W77666   7.231  31.025   1.243
17922W        W77667  35.932  37.388   0.744
17923W        W77668  36.890  21.029  14.443
17924W        W77669  31.128   2.820  12.506
17925W        W77670  25.146  15.091  10.150
17926W        W77671  40.345  39.926   4.609
17927W        W77672  23.591   7.789   2.900
17928W        W77673  22.609   4.352   1.393
17929W        W77674  27.989   4.224  14.903
17930W        W77675  13.343  16.176   1.320
17931W        W77676  43.812  35.421   2.721
17932W        W77677  23.127  42.854   1.728
17933W        W77678  24.059  10.241   3.247
17934W        W77679  42.312  24.693  14.975
17935W        W77680  12.362  28.520  14.799
17936W        W77681  27.978   7.773   4.347
17937W        W77682   0.918  33.110  13.033
17938W        W77683  18.225  19.756   0.259
17939W        W77684  31.904   5.205   2.305
17940W        W77685  18.725  20.142  14.024
17941W        W77686  37.879  13.684   3.774
17942W        W77687  17.728  15.708   0.891
17943W        W77688  43.436  21.171   4.815
17944W        W77689  11.213   0.865  14.024
17945W        W77690  42.453  13.347   3.332
17946W        W77691  16.640  38.000  10.475
17947W        W77692  29.561  41.875  11.114
17948W        W77693  13.762  23.087  11.602
17949W        W77694  22.153  19.049   0.267
17950W        W77695  22.539  19.717  11.440
17951W        W77696  12.180  25.138  14.293
17952W        W77697  18.648  22.675   3.855
17953W        W77698  10.276   6.728  10.975
17954W        W77699   3.918  11.668   4.328
17955W        W77700  18.227  22.704  11.910
17956W        W77701   9.859   8.390   2.821
17957W        W77702  19.196   3.927   2.292
17958W        W77703   2.926   7.318   1.768
17959W        W77704  35.852  30.585   1.386
17960W        W77705  25.623  35.874   3.186
17961W        W77706  13.198  14.326  12.895
17962W        W77707   6.272  24.115  13.452
17963W        W77708  18.551  25.992  11.911
17964W        W77709  39.560  24.997   1.248
17965W        W77710   3.710  17.580   1.841
17966W        W77711  42.823  33.035  13.443
17967W        W77712   5.289  35.935  12.446
17968W        W77713  21.242  29.992   1.838
17969W        W77714  33.939   3.406  11.552
17970W        W77715  21.612  43.511  13.020
17971W        W77716  25.075   7.861  12.057
17972W        W77717  32.136  41.825   3.826
17973W        W77718   2.804  11.312   2.828
17974W        W77719   8.796  18.724  12.058
17975W        W77720   4.819  27.629   2.838
17976W        W77721  20.584   8.218   0.956
17977W        W77722  19.598  10.342   4.729
17978W        W77723  18.774   1.751  11.956
17979W        W77724   7.239  19.103   4.686
17980W        W77725  30.031  41.923   4.734
17981W        W77726  14.694  31.605   3.641
17982W        W77727  43.360  36.513  11.117
17983W        W77728   1.291  38.034  12.916
17984W        W77729  35.454  23.684  11.499
17985W        W77730  36.504  12.787   3.301
17986W        W77731  23.642  34.430   5.174
17987W        W77732  41.481   6.704   0.840
17988W        W77733  33.993  34.469  11.937
17989W        W77734  15.577   7.287  10.891
17990W        W77735   6.253  25.206   3.655
17991W        W77736  38.505  39.439  11.055
17992W        W77737  13.118  15.693  14.957
17993W        W77738  27.057  16.620  11.054
17994W        W77739  33.460  32.920  11.515
17995W        W77740  14.200  35.469   2.795
17996W        W77741  17.209   5.718   2.823
17997W        W77742  20.636  38.972  13.868
17998W        W77743  14.125  35.597  11.982
17999W        W77744  28.556  25.707  12.851
18000W        W77745  26.149  20.230  10.469
18001W        W77746  28.008  37.429  12.553
18002W        W77747   4.744   8.371   2.198
18003W        W77748  17.723  32.533  12.961
18004W        W77749  23.727   7.230  12.921
18005W        W77750  19.688  20.614   1.796
18006W        W77751   8.325  19.771   3.688
18007W        W77752   5.877  20.081   1.405
18008W        W77753  36.885  27.087   1.280
18009W        W77754   1.941  31.453  12.831
18010W        W77755  19.137   5.209   5.132
18011W        W77756   7.373  25.107   1.712
18012W        W77757  14.653  26.034   3.634
18013W        W77758  35.020  30.959   2.776
18014W        W77759  32.132  13.652  11.916
18015W        W77760   0.948  20.252  11.107
18016W        W77761  38.990  35.548  14.366
18017W        W77762  35.541  41.036  12.577
18018W        W77763   3.874  16.230   1.736
18019W        W77764  33.438  28.944  10.405
18020W        W77765  38.518  39.823   4.696
18021W        W77766  24.010  42.380   4.741
18022W        W77767   1.444  40.894  14.293
18023W        W77768  38.881   3.926   0.409
18024W        W77769  20.705  32.898  10.597
18025W        W77770  22.527  40.016  14.903
18026W        W77771  11.161  36.981   3.220
18027W        W77772   6.386  10.683  11.885
18028W        W77773   9.338   9.227   2.664
18029W        W77774  27.536  20.214  11.981
18030W        W77775   5.352  43.834  12.487
18031W        W77776  21.195  14.783   3.369
18032W        W77777   5.322   5.281   3.816
18033W        W77778  44.468   0.417   1.293
18034W        W77779  40.355  17.768   2.394
18035W        W77780  40.846   6.324   3.295
18036W        W77781  22.682  38.922  13.487
18037W        W77782   7.715  41.003   2.322
18038W        W77783  23.991  16.811   2.760
18039W        W77784  19.630  21.728  12.081
18040W        W77785  35.495  28.143   0.821
18041W        W77786  26.613  44.966   1.825
18042W        W77787  34.075  23.503  14.368
18043W        W77788   1.377  38.872  11.482
18044W        W77789  15.149   4.944   2.418
18045W        W77790  35.504   9.329  12.380
18046W        W77791  27.985  38.033   3.189
18047W        W77792   4.893  44.470   2.183
18048W        W77793  33.616  24.681  11.016
18049W        W77794  16.123  33.612   2.189
18050W        W77795  26.177  30.559   2.186
18051W        W77796  32.076  26.692  12.906
18052W        W77797  19.726  39.866  12.382
18053W        W77798  39.868  36.086   0.364
18054W        W77799   1.342  15.304   5.097
18055W        W77800  20.086  30.624  10.952
18056W        W77801  37.967  38.360  10.482
18057W        W77802  24.544  41.866  14.905
18058W        W77803   8.866  40.409  11.497
18059W        W77804   0.305  13.278  11.400
18060W        W77805  40.536  29.602  13.510
18061W        W77806   6.862  12.342  11.535
18062W        W77807  10.744  27.192  12.864
18063W        W77808  42.906  31.986   0.878
18064W        W77809  26.994  25.130   1.395
18065W        W77810  36.894  11.758   2.784
18066W        W77811  39.008  23.160   4.687
18067W        W77812  43.874   9.672  10.960
18068W        W77813  38.571   1.282  12.493
18069W        W77814  44.993  16.294  12.026
18070W        W77815  17.196  30.500   0.445
18071W        W77816  16.202  12.234   0.775
18072W        W77817  10.807  42.286  13.990
18073W        W77818  43.291  23.633  11.058
18074W        W77819  10.316  35.036   4.135
18075W        W77820   7.788  42.418  13.350
18076W        W77821  30.045  12.263  13.002
18077W        W77822  13.616  44.794  10.581
18078W        W77823  28.135  29.507   0.767
18079W        W77824  21.686  24.562  10.916
18080W        W77825   0.801  37.964   3.689
18081W        W77826  33.099  40.384  11.963
18082W        W77827  37.880  33.945  10.906
18083W        W77828   5.903  37.853   1.300
18084W        W77829  16.251  20.204   0.336
18085W        W77830  24.149   3.427  14.303
18086W        W77831  23.180  40.423   3.742
18087W        W77832  12.251   0.951  12.474
18088W        W77833  28.145  42.295   1.767
18089W        W77834  12.289  34.040   2.684
18090W        W77835  12.718  37.374  13.046
18091W        W77836  12.647  41.495  13.412
18092W        W77837  38.007  44.399   4.662
18093W        W77838  15.819  21.090  13.467
18094W        W77839   1.339   0.892   2.780
18095W        W77840  13.678  24.684   4.242
18096W        W77841  26.082  17.272   4.834
18097W        W77842  20.224  31.057  14.902
18098W        W77843  36.934  10.739  12.359
18099W        W77844   2.444   2.244  11.470
18100W        W77845  44.388  40.457  13.033
18101W        W77846  28.652  18.180   1.354
18102W        W77847  31.931  28.522  10.036
18103W        W77848   3.755  15.111   2.280
18104W        W77849  11.726  15.157  10.142
18105W        W77850  37.072   4.290   4.759
18106W        W77851  18.207  14.814   2.860
18107W        W77852   2.307  13.818   4.353
18108W        W77853  20.611  31.630   5.312
18109W        W77854  21.649  17.292  13.372
18110W        W77855  25.660  21.544  13.433
18111W        W77856  42.519   7.809  12.447
18112W        W77857   8.276  23.605   0.791
18113W        W77858   6.815  14.220   3.751
18114W        W77859  34.012  44.918   4.705
18115W        W77860  22.072  18.277  13.044
18116W        W77861   4.419  28.481   1.821
18117W        W77862  44.323  44.361  11.579
18118W        W77863  10.743   1.261  10.901
18119W        W77864  13.789  37.401  10.910
18120W        W77865  36.483  10.667   3.280
18121W        W77866  10.309  14.192   2.858
18122W        W77867  42.022  23.060   1.808
18123W        W77868  11.249  14.755   3.201
18124W        W77869  11.735  40.363  11.886
18125W        W77870  27.055  16.690   1.762
18126W        W77871   0.815  34.077  11.071
18127W        W77872   4.423  16.217   1.295
18128W        W77873   8.224  40.477  13.984
18129W        W77874  15.109   9.342   1.873
18130W        W77875   8.747  11.245   3.159
18131W        W77876  38.009  13.200   0.927
18132W        W77877  37.979   4.390   3.817
18133W        W77878  17.762   5.291  12.485
18134W        W77879   8.217  21.134  11.377
18135W        W77880  16.301  25.102  11.596
18136W        W77881  37.456   8.778   2.254
18137W        W77882  19.717  20.753   2.712
18138W        W77883  20.100  32.067   5.081
18139W        W77884  16.153  31.075  13.463
18140W        W77885  25.037  26.083   4.239
18141W        W77886  27.148  28.088  10.629
18142W        W77887  24.132  28.038  14.510
18143W        W77888  21.199  25.144  14.505
18144W        W77889  14.143  31.446  12.577
18145W        W77890  38.980   8.319   2.839
18146W        W77891   6.776  13.209   0.734
18147W        W77892  43.852  19.258  13.868
18148W        W77893  11.362  25.480  11.038
18149W        W77894  30.929  19.159   3.720
18150W        W77895  22.559  25.098  14.988
18151W        W77896  33.451  33.395   5.273
18152W        W77897  28.098   7.889  10.136
18153W        W77898  24.483  35.564  11.016
18154W        W77899  15.711  20.142  14.504
18155W        W77900   9.875  11.261  10.498
18156W        W77901   7.825  12.623   5.185
18157W        W77902  33.591  33.483  10.148
18158W        W77903   0.976  44.768  12.348
18159W        W77904   3.949  27.050   3.860
18160W        W77905  39.842  24.514  10.547
18161W        W77906   9.811  25.183   2.855
18162W        W77907  17.768  23.598   4.772
18163W        W77908  34.959  32.104  14.815
18164W        W77909  19.694  42.374  12.381
18165W        W77910  27.050  16.104   2.305
18166W        W77911  24.546  44.470  13.934
18167W        W77912  25.470  17.797   1.445
18168W        W77913   2.392  44.262  11.116
18169W        W77914  25.097  44.409   2.806
18170W        W77915   8.855  23.649  10.141
18171W        W77916  19.753  18.273  10.583
18172W        W77917   9.812   9.850   3.799
18173W        W77918  18.246  17.570  14.401
18174W        W77919  41.839  30.653  12.962
18175W        W77920  11.196  13.646   0.255
18176W        W77921  37.855  25.517  13.828
18177W        W77922  10.844   4.702  10.117
18178W        W77923  24.992  12.345  13.048
18179W        W77924  21.535  44.485  11.605
18180W        W77925  20.104  33.108  14.392
18181W        W77926  22.703  36.527  10.408
18182W        W77927  17.632  42.458   1.864
18183W        W77928  11.775  26.070   1.297
18184W        W77929  39.327  20.047  14.848
18185W        W77930  18.189  14.267  12.871
18186W        W77931   2.744  24.062   3.863
18187W        W77932   9.787  43.287   1.902
18188W        W77933   6.302  36.361  11.388
18189W        W77934   9.224  29.006  11.981
18190W        W77935  36.050  25.584  12.552
18191W        W77936  28.532  15.212  11.076
18192W        W77937  42.501  28.179  13.936
18193W        W77938  37.551  28.955   0.255
18194W        W77939  44.761  24.153   4.343
18195W        W77940  40.850  39.924   3.842
18196W        W77941  29.002   3.277  11.589
18197W        W77942  26.085   6.188   0.862
18198W        W77943  44.499  37.475  13.063
18199W        W77944  28.102  11.259   4.247
18200W        W77945   2.870  24.986  11.996
18201W        W77946   1.322  29.449   1.383
18202W        W77947  18.195  38.504   0.362
18203W        W77948  21.560  28.599   2.315
18204W        W77949  23.023   5.259   4.336
18205W        W77950  15.619  29.457   4.831
18206W        W77951  18.282  12.356  14.957
18207W        W77952   6.901   5.343   4.609
18208W        W77953   2.391  24.725  12.427
18209W        W77954  16.306   7.200   4.246
18210W        W77955   3.929  40.027  14.947
18211W        W77956  10.814  42.367   0.843
18212W        W77957  37.938  40.392  12.417
18213W        W77958  34.097  36.993   4.773
18214W        W77959  15.601  41.417  13.997
18215W        W77960  38.503  28.981   1.378
18216W        W77961  24.648  18.722   5.296
18217W        W77962  10.697  43.327  11.858
18218W        W77963  39.442  24.665  12.898
18219W        W77964  13.776   2.863   4.703
18220W        W77965  35.365  34.918  13.898
18221W        W77966   1.732  44.462   4.710
18222W        W77967   2.289  41.498   5.575
18223W        W77968  36.050   3.765   1.389
18224W        W77969  16.639  27.453  14.836
18225W        W77970  30.034  39.913  10.993
18226W        W77971  37.018  43.314  13.436
18227W        W77972   6.389  10.191  11.551
18228W        W77973  18.569  28.663   0.735
18229W        W77974  10.727  12.751   4.216
18230W        W77975  12.132  33.531   3.728
18231W        W77976  29.662  29.119  14.506
18232W        W77977  11.148  40.875  11.559
18233W        W77978  32.087  31.042  13.940
18234W        W77979  26.178  43.983  12.834
18235W        W77980  22.677  36.916   3.304
18236W        W77981   4.436  12.274   1.708
18237W        W77982  32.995  36.897  10.573
18238W        W77983   0.313  33.380   2.324
18239W        W77984  18.076  33.963  12.580
18240W        W77985  14.804   8.733  11.386
18241W        W77986  33.916  12.624  12.427
18242W        W77987  36.409  14.236  13.843
18243W        W77988  30.942   7.175   2.688
18244W        W77989  16.624  33.985  14.901
18245W        W77990  15.224  19.769  13.909
18246W        W77991  34.399  43.875   0.751
18247W        W77992  22.060  24.195   1.751
18248W        W77993  39.901   4.206   1.800
18249W        W77994  35.098   2.268   4.800
18250W        W77995  13.715  26.545   0.421
18251W        W77996  39.339  28.534   3.345
18252W        W77997  14.813  38.067   4.607
18253W        W77998  26.688  15.089   1.826
18254W        W77999  32.420   5.725   1.420
18255W        W78000  29.656   4.789  12.552
18256W        W78001  16.097  23.571   1.778
18257W        W78002   7.361  35.098   2.663
18258W        W78003   4.829  14.755  13.889
18259W        W78004  24.624  42.449   3.367
18260W        W78005  43.989  25.620   2.297
18261W        W78006  22.006  12.202   0.273
18262W        W78007  27.453  19.541   2.827
18263W        W78008   8.871  39.014   3.239
18264W        W78009  24.056  35.533   0.841
18265W        W78010  18.713  12.227  13.325
18266W        W78011  30.422  40.885  11.529
18267W        W78012  11.657  19.721   3.318
18268W        W78013  21.544  37.408  12.911
18269W        W78014  18.175  41.530  12.928
18270W        W78015  29.161  44.332  14.971
18271W        W78016  40.509  38.453   4.243
18272W        W78017   5.779  27.488   4.785
18273W        W78018  41.802  34.870   5.191
18274W        W78019   9.203   8.247   4.603
18275W        W78020   8.262  36.573   0.357
18276W        W78021  16.121  18.559   3.345
18277W        W78022   6.352  19.584  10.522
18278W        W78023  19.175  24.514   0.357
18279W        W78024   1.913  44.968   4.126
18280W        W78025  28.987  18.596   0.277
18281W        W78026  44.313  24.102  10.946
18282W        W78027  10.323  10.382  11.483
18283W        W78028  34.505  22.050   2.393
18284W        W78029  35.034  20.094   3.324
18285W        W78030   6.221  42.504   4.331
18286W        W78031  22.077  30.489  14.789
18287W        W78032   6.798   4.236  12.889
18288W        W78033  35.434   6.301  14.498
18289W        W78034  21.626  24.227  14.295
18290W        W78035  17.571  33.984   4.790
18291W        W78036  20.073   6.345  12.048
18292W        W78037  36.518  14.273   2.183
18293W        W78038  10.250  44.862   1.277
18294W        W78039  35.446  21.137   3.357
18295W        W78040   9.724  32.578  10.568
18296W        W78041   5.431  39.038   0.742
18297W        W78042   7.757  27.968  10.421
18298W        W78043  36.987   8.187   4.750
18299W        W78044  35.854  33.621  12.456
18300W        W78045  42.845   3.228  10.447
18301W        W78046   0.842   4.732  10.512
18302W        W78047  14.271   6.256   3.679
18303W        W78048  32.446  23.669  10.535
18304W        W78049  12.714  13.246   3.324
18305W        W78050   1.423  37.565  11.106
18306W        W78051   1.888   1.808   3.841
18307W        W78052  44.410  30.137  12.577
18308W        W78053  16.195   0.382   2.775
18309W        W78054  37.471  33.959  12.953
18310W        W78055   2.463  25.531  12.042
18311W        W78056  15.327  23.206   1.871
18312W        W78057   9.797  40.425   1.409
18313W        W78058  40.502  22.135   2.877
18314W        W78059  32.494  26.165   2.790
18315W        W78060  37.874  35.567  14.344
18316W        W78061  30.639  33.069  10.473
18317W        W78062  44.420  15.160   1.790
18318W        W78063  21.634  38.376   1.846
18319W        W78064  15.135  29.162   0.877
18320W        W78065  30.033  32.486  13.500
18321W        W78066  41.537  25.573  14.411
18322W        W78067  32.896  19.156   4.153
18323W        W78068  33.380  14.220  13.890
18324W        W78069  31.441   3.256   2.262
18325W        W78070   2.728  10.823  14.311
18326W        W78071  24.708  12.356  12.441
18327W        W78072  31.075  32.003  11.608
18328W        W78073   1.914  17.602  10.463
18329W        W78074  20.184  36.079   1.231
18330W        W78075  10.329  41.450   0.475
18331W        W78076  30.458  25.534   1.298
18332W        W78077  16.106   5.817   4.825
18333W        W78078  36.077   1.384   0.432
18334W        W78079  44.766  35.024  13.373
18335W        W78080  28.493  28.136   1.344
18336W        W78081  31.117  24.603  13.963
18337W        W78082  23.577  28.142   4.783
18338W        W78083  30.957  38.504  12.028
18339W        W78084  12.174   9.322   2.711
18340W        W78085  41.948  37.998  13.930
18341W        W78086  44.499  33.502  13.952
18342W        W78087  26.102  16.141  11.427
18343W        W78088   7.394   1.257  14.353
18344W        W78089  12.215   2.855   3.378
18345W        W78090  30.082  12.749  10.993
18346W        W78091  26.094  27.955  14.286
18347W        W78092  37.022  12.752  11.925
18348W        W78093   7.899   8.259  10.473
18349W        W78094  28.619  39.836  14.431
18350W        W78095   7.358  31.403  10.626
18351W        W78096  13.245  14.674   3.682
18352W        W78097   4.893  21.738  12.388
18353W        W78098  31.068  43.478  11.042
18354W        W78099  24.524   9.306  12.092
18355W        W78100  33.434  34.547  13.799
18356W        W78101  24.095  36.536   3.699
18357W        W78102  16.140  20.749   1.234
18358W        W78103   0.303  31.611  13.473
18359W        W78104  14.818   3.426   1.767
18360W        W78105  31.563  18.577  12.451
18361W        W78106  10.795  41.413  11.965
18362W        W78107   9.230  44.905   2.700
18363W        W78108  16.143   5.380   4.270
18364W        W78109   6.263   1.763  13.039
18365W        W78110  20.629  20.105  11.043
18366W        W78111  12.792  27.594  11.102
18367W        W78112  18.584  38.915  10.434
18368W        W78113  17.154  33.394   3.799
18369W        W78114  21.632   4.227  10.115
18370W        W78115   3.938  20.028   3.351
18371W        W78116  38.399  37.504   0.459
18372W        W78117  30.152  15.754   1.930
18373W        W78118  29.619  34.874   0.814
18374W        W78119  22.122  21.263  12.852
18375W        W78120   5.371  34.893   3.646
18376W        W78121  27.121  41.531   2.333
18377W        W78122  13.750  14.228  13.345
18378W        W78123  35.050   7.699  13.452
18379W        W78124  26.680  25.205  11.465
18380W        W78125  13.794  23.138  14.012
18381W        W78126   6.346   9.256  11.897
18382W        W78127  40.326  18.636  12.964
18383W        W78128  37.031  14.129  11.958
18384W        W78129  39.008  23.613  11.415
18385W        W78130   3.735  33.480  12.917
18386W        W78131  26.104  20.093   1.285
18387W        W78132  18.610  43.017   4.750
18388W        W78133   1.773  26.493   0.939
18389W        W78134  10.255  43.998   1.699
18390W        W78135   7.865  25.504   4.160
18391W        W78136  15.718  12.790  11.894
18392W        W78137   8.284  18.639   2.262
18393W        W78138   4.405  39.343  12.535
18394W        W78139   2.416   4.912  13.925
18395W        W78140   7.302  18.728   4.252
18396W        W78141  40.019  28.490   0.737
18397W        W78142  14.666  18.767  13.542
18398W        W78143  24.067  10.879  14.917
18399W        W78144  20.105  11.204  14.440
18400W        W78145  26.101  38.965   2.828
18401W        W78146  18.682  43.883  14.311
18402W        W78147  35.912  32.528  14.338
18403W        W78148  13.292  37.997   4.599
18404W        W78149  15.665   5.727  11.596
18405W        W78150  25.564   7.846  10.933
18406W        W78151  14.193  25.009  10.084
18407W        W78152  18.584  21.705  12.982
18408W        W78153   2.747  42.955  10.620
18409W        W78154  41.446  43.773   2.298
18410W        W78155  42.805  18.569   5.093
18411W        W78156   8.263  24.512  11.004
18412W        W78157  20.181  43.954   1.918
18413W        W78158  21.117  21.608   2.748
18414W        W78159   1.430  17.232   3.167
18415W        W78160  24.204  18.672  12.836
18416W        W78161  36.941   5.284  13.853
18417W        W78162  32.065  12.835  13.500
18418W        W78163  23.105   4.439  11.050
18419W        W78164  41.472  21.638  11.984
18420W        W78165   5.231   5.344   2.882
18421W        W78166   1.858   2.782  11.415
18422W        W78167  32.097  20.187  14.437
18423W        W78168   5.869  19.078   2.199
18424W        W78169   3.431  33.513   2.755
18425W        W78170  22.607  40.047  13.879
18426W        W78171  18.274   0.446  11.005
18427W        W78172   2.810  11.300   0.472
18428W        W78173   0.878  40.965   1.795
18429W        W78174  31.576   8.368  10.928
18430W        W78175  41.993  24.514   1.382
18431W        W78176  11.686   0.757  14.885
18432W        W78177   5.933   2.894   4.127
18433W        W78178  42.404  38.007   4.274
18434W        W78179  32.060  35.980  14.305
18435W        W78180  42.017  41.447  14.850
18436W        W78181  14.109   4.748  13.970
18437W        W78182  24.131  23.694  13.480
18438W        W78183   1.774  16.313  12.937
18439W        W78184  39.808   7.234   0.407
18440W        W78185  19.687  10.143  11.077
18441W        W78186  13.628  14.209   1.360
18442W        W78187  44.820  27.558   0.255
18443W        W78188  44.430  32.502   2.704
18444W        W78189  36.874  16.702   1.296
18445W        W78190   2.890   1.418  14.764
18446W        W78191   7.306  28.591   1.846
18447W        W78192  15.325  37.887   0.930
18448W        W78193  12.684  15.217  11.888
18449W        W78194  44.963   5.928   1.799
18450W        W78195  36.913  26.699   2.892
18451W        W78196  17.263  15.773  13.521
18452W        W78197  32.549  17.279   1.407
18453W        W78198   0.350  36.994   2.285
18454W        W78199  22.117  32.888  13.880
18455W        W78200  21.688  26.115  10.418
18456W        W78201   5.433  21.173   3.721
18457W        W78202  27.564  28.642   4.712
18458W        W78203  24.534  40.416   0.478
18459W        W78204   4.342   7.726   2.868
18460W        W78205  10.796  21.125  11.432
18461W        W78206  18.573  37.569  13.925
18462W        W78207  29.051   9.380   2.745
18463W        W78208  13.133  38.399   4.232
18464W        W78209  27.497  37.530  13.969
18465W        W78210  37.557   7.751   3.274
18466W        W78211  15.246  30.108  13.042
18467W        W78212  11.191  38.558   1.717
18468W        W78213  32.550   8.790   5.180
18469W        W78214  33.002  33.940  12.018
18470W        W78215  25.194  33.896  14.869
18471W        W78216  35.423  21.220  14.414
18472W        W78217  31.438   9.313   4.818
18473W        W78218  43.310   9.229   1.294
18474W        W78219  14.657  27.495  14.870
18475W        W78220  25.186  24.033   4.190
18476W        W78221   2.771  16.737   2.808
18477W        W78222  19.678  30.133   1.862
18478W        W78223  22.189  11.688  14.027
18479W        W78224  19.539  38.531   0.394
18480W        W78225  34.943  22.220  14.277
18481W        W78226  37.387  43.362   3.768
18482W        W78227   4.283  23.673  10.612
18483W        W78228  25.989   0.752  14.363
18484W        W78229  11.781  37.956  12.377
18485W        W78230   2.404  33.052  11.863
18486W        W78231  10.785   0.744   3.314
18487W        W78232  40.487  12.180   1.392
18488W        W78233  44.959  22.244  10.949
18489W        W78234   2.444  22.574   3.637
18490W        W78235  22.086  12.223  12.554
18491W        W78236  30.119  20.696  13.035
18492W        W78237  15.746   4.257   3.165
18493W        W78238  40.813  28.164  14.341
18494W        W78239  16.176   1.406  14.483
18495W        W78240  23.720  13.309   1.778
18496W        W78241   2.319   9.733  14.970
18497W        W78242   4.408  39.022  11.506
18498W        W78243  32.564  17.147  14.793
18499W        W78244  27.660   0.403  14.511
18500W        W78245  39.023  21.757  14.379
18501W        W78246  30.547  37.530  14.841
18502W        W78247  37.953  11.625  13.453
18503W        W78248   7.749  32.483   1.321
18504W        W78249  41.990  44.278  11.404
18505W        W78250  31.938  31.475  13.498
18506W        W78251  30.515   9.847  11.597
18507W        W78252  39.844  36.981   2.368
18508W        W78253  34.013  37.853  12.940
18509W        W78254  22.013  39.863  14.813
18510W        W78255  43.780  32.595  10.972
18511W        W78256  21.056  22.665  14.403
18512W        W78257  17.601   9.311   3.208
18513W        W78258  16.173  11.263   4.683
18514W        W78259  11.218  31.996  10.149
18515W        W78260  40.525  14.655  13.902
18516W        W78261  21.669  18.262  12.466
18517W        W78262  32.116  22.669  12.567
18518W        W78263  32.112  22.177  14.890
18519W        W78264   0.470   3.951  13.033
18520W        W78265  42.492  43.812   0.776
18521W        W78266  17.157  40.501   4.599
18522W        W78267  25.179  30.070  13.326
18523W        W78268  19.689  27.041   3.185
18524W        W78269  44.766  34.531  11.553
18525W        W78270  29.533  13.302   0.888
18526W        W78271  19.590   2.957  11.461
18527W        W78272  20.765  22.999  14.472
18528W        W78273   0.446  16.621  12.500
18529W        W78274   1.317   8.853  13.445
18530W        W78275  14.324  20.559  10.921
18531W        W78276  11.344   6.252   1.912
18532W        W78277  20.588  10.836   3.819
18533W        W78278   7.708  24.563   1.870
18534W        W78279  25.041  18.060   0.318
18535W        W78280   9.183  31.438   4.232
18536W        W78281  13.256  25.480  10.558
18537W        W78282  33.474   9.314   2.339
18538W        W78283  39.897   2.277  12.438
18539W        W78284  21.252   9.876   1.275
18540W        W78285  34.955   5.836  11.057
18541W        W78286  24.205  41.909   3.811
18542W        W78287  33.874  10.159  10.010
18543W        W78288   8.347  25.654   3.734
18544W        W78289  21.018  44.778  14.290
18545W        W78290  44.770  26.025  14.954
18546W        W78291  28.081  11.261   0.857
18547W        W78292  10.165   7.174   5.137
18548W        W78293  34.957  25.600   0.411
18549W        W78294  44.274   1.391   2.415
18550W        W78295  43.485  44.501   1.222
18551W        W78296  41.860  28.118  12.007
18552W        W78297  13.648  33.877   1.818
18553W        W78298   3.934  21.148   3.180
18554W        W78299   0.271   8.398  14.284
18555W        W78300  41.425  22.090   2.812
18556W        W78301   5.329  19.129  13.064
18557W        W78302   0.843  14.112   3.808
18558W        W78303  31.904  37.914  14.488
18559W        W78304  25.553  41.401   4.179
18560W        W78305  28.053  25.093  11.107
18561W        W78306  40.998  26.669   3.645
18562W        W78307  20.767  28.962  14.297
18563W        W78308   6.693  25.496   0.387
18564W        W78309   2.744  42.954  12.828
18565W        W78310  24.123  15.214  13.060
18566W        W78311  13.831  37.007  13.867
18567W        W78312  11.147   7.731  13.843
18568W        W78313   7.799  42.446  14.303
18569W        W78314  40.045  14.095  13.970
18570W        W78315  31.572  21.205  11.913
18571W        W78316  31.001  18.622   1.250
18572W        W78317  42.388  30.443   0.875
18573W        W78318  10.277  42.931  13.794
18574W        W78319  25.649  34.974   2.398
18575W        W78320   5.417  32.993   0.472
18576W        W78321  17.084  38.442  13.474
18577W        W78322  35.861  12.127   2.343
18578W        W78323  34.002  13.136   4.319
18579W        W78324  26.464   6.917  14.964
18580W        W78325  40.539  14.806  11.937
18581W        W78326  43.292   9.696   4.273
18582W        W78327   1.875  33.581   3.822
18583W        W78328   0.480   2.252  12.453
18584W        W78329  27.951  40.054  13.867
18585W        W78330  18.598   2.959  10.908
18586W        W78331  35.973  39.436   0.472
18587W        W78332  40.482  10.310  13.441
18588W        W78333  30.551  16.171  13.978
18589W        W78334  13.324  14.133  14.926
18590W        W78335  22.232  11.294  11.425
18591W        W78336  38.435  36.035   4.199
18592W        W78337  14.822  24.685   3.772
18593W        W78338  19.229   9.660  11.071
18594W        W78339  30.023  37.376  12.833
18595W        W78340  11.169  14.338   1.355
18596W        W78341  22.689   8.239  13.416
18597W        W78342  12.771  27.177   1.325
18598W        W78343   7.909  17.597   1.383
18599W        W78344  38.951  20.267  14.459
18600W        W78345  22.246  16.291  13.968
18601W        W78346  43.784  34.991  14.409
18602W        W78347  31.454  33.981  12.503
18603W        W78348  12.306  18.764  13.410
18604W        W78349  29.963   4.745  13.415
18605W        W78350  17.230   0.844   1.432
18606W        W78351   0.409  12.230  10.419
18607W        W78352   7.791  36.455  13.488
18608W        W78353  35.445  18.654  10.599
18609W        W78354  39.500  22.727  14.386
18610W        W78355   1.840  21.094  13.528
18611W        W78356  36.983  43.867   2.842
18612W        W78357  17.682  12.319  11.550
18613W        W78358  34.883  20.607   4.231
18614W        W78359  20.104   7.306  12.046
18615W        W78360   3.259   8.162  12.923
18616W        W78361  44.424  34.424  13.466
18617W        W78362  15.690  18.632  11.970
18618W        W78363  22.030  40.923   3.385
18619W        W78364  43.500   1.307  13.944
18620W        W78365  28.680  30.094  14.305
18621W        W78366  21.071  12.296  12.094
18622W        W78367  10.347   2.454  14.429
18623W        W78368  10.327  20.526  12.889
18624W        W78369  34.932  20.631  12.909
18625W        W78370  28.670  22.095  14.290
18626W        W78371  38.040  24.103   0.887
18627W        W78372  15.206   2.863  14.885
18628W        W78373  38.968  33.978  14.294
18629W        W78374  42.936  11.314   3.312
18630W        W78375  38.380   6.801  13.312
18631W        W78376   1.441  39.960   1.918
18632W        W78377  41.967  22.580  14.835
18633W        W78378  29.572  36.522  14.899
18634W        W78379  32.460  10.245   3.346
18635W        W78380  33.494  30.561   3.247
18636W        W78381   2.792  30.006   2.808
18637W        W78382  33.534  28.599   9.659
18638W        W78383  40.834  39.953  12.936
18639W        W78384  43.403  21.254  14.484
18640W        W78385  41.457   8.276  13.855
18641W        W78386   7.707  44.830   2.206
18642W        W78387   9.324   6.854  13.928
18643W        W78388  27.013   0.411  13.941
18644W        W78389   6.315  44.411  10.104
18645W        W78390  27.951   2.277  12.043
18646W        W78391  18.700  27.965   5.265
18647W        W78392  42.026  19.581   3.695
18648W        W78393  37.560   3.248   2.696
18649W        W78394   3.904  31.945  13.986
18650W        W78395   2.230   0.893  10.472
18651W        W78396   5.352  20.245  12.840
18652W        W78397  43.794  15.586  12.578
18653W        W78398  11.356  36.454   0.736
18654W        W78399  37.458  36.960  11.057
18655W        W78400  41.830  42.779   2.820
18656W        W78401  44.299  13.251  13.997
18657W        W78402  22.723  33.493   2.333
18658W        W78403  43.929  13.195  11.378
18659W        W78404  15.158  22.734  12.891
18660W        W78405  12.624  19.216  11.471
18661W        W78406  15.663  23.667   1.278
18662W        W78407  27.127   7.329   0.809
18663W        W78408  17.086  27.551   0.777
18664W        W78409  17.244  40.046   0.741
18665W        W78410   0.886  26.141  13.796
18666W        W78411  21.221  10.187   1.401
18667W        W78412  34.458  30.945   2.395
18668W        W78413  15.795  12.314   4.603
18669W        W78414  23.001   1.863   1.392
18670W        W78415   4.793   5.777   1.283
18671W        W78416  43.993  32.953   2.275
18672W        W78417  18.291   5.740  11.914
18673W        W78418  16.265  16.307   2.230
18674W        W78419  27.654  40.804   4.654
18675W        W78420  16.316  33.618   3.785
18676W        W78421   3.407   1.280   1.370
18677W        W78422  16.181   5.850  14.920
18678W        W78423  32.463  43.334  12.384
18679W        W78424   9.762  13.136  12.342
18680W        W78425  26.641  40.494   4.628
18681W        W78426   6.423  11.162  11.041
18682W        W78427  17.219   5.853  10.499
18683W        W78428  33.573  38.952   5.146
18684W        W78429  17.121  34.954   0.324
18685W        W78430   6.776  41.819  12.411
18686W        W78431   1.237  25.082  11.122
18687W        W78432  25.513  23.113  11.404
18688W        W78433  41.338  22.076  10.497
18689W        W78434  35.555  20.155   4.248
18690W        W78435  26.108   1.310  11.468
18691W        W78436  10.271  21.745  11.020
18692W        W78437  18.244  22.636  11.401
18693W        W78438  29.159  34.086  14.951
18694W        W78439  34.418  10.840   4.226
18695W        W78440   5.740  27.637  14.307
18696W        W78441  36.581  21.215   2.772
18697W        W78442  32.537  37.849  10.598
18698W        W78443  25.689   8.791   4.179
18699W        W78444  29.666  44.974  13.494
18700W        W78445  12.638  40.319   4.759
18701W        W78446  26.956   2.333  13.386
18702W        W78447  27.618  17.175  11.008
18703W        W78448   6.807  14.253   0.456
18704W        W78449  28.058  32.592   0.949
18705W        W78450  24.508   2.263   2.179
18706W        W78451  27.996   0.762   1.751
18707W        W78452  20.603  15.097  12.836
18708W        W78453  36.481  16.301   1.905
18709W        W78454  31.952  13.169   3.759
18710W        W78455  30.957  36.992  13.315
18711W        W78456  43.323  25.117   2.686
18712W        W78457  42.349  41.402   4.724
18713W        W78458  44.796   5.194   4.753
18714W        W78459  11.331   4.703  14.009
18715W        W78460  26.024  12.345  12.058
18716W        W78461  24.708  36.907   0.896
18717W        W78462  43.956  43.437  10.951
18718W        W78463   3.436   8.875  12.971
18719W        W78464  13.803   2.295  11.879
18720W        W78465   4.375  10.178  13.838
18721W        W78466   1.409  37.962  13.463
18722W        W78467  42.298  23.155   0.943
18723W        W78468  12.694   4.347  12.968
18724W        W78469  15.823  19.044  12.888
18725W        W78470  32.539  36.988   1.922
18726W        W78471  27.489  31.498   0.304
18727W        W78472  27.511  26.692  13.046
18728W        W78473  42.905  23.172  10.472
18729W        W78474  44.899  11.679   4.322
18730W        W78475  25.024  36.027  12.495
18731W        W78476  39.319   6.774  13.921
18732W        W78477  41.438  34.428   3.372
18733W        W78478   0.760  39.373  14.889
18734W        W78479  32.103   3.804   2.700
18735W        W78480  13.315  39.054  10.894
18736W        W78481  16.315  25.504   2.791
18737W        W78482   9.290  16.596   0.874
18738W        W78483   1.880  20.190  12.358
18739W        W78484  25.087   4.257  12.508
18740W        W78485  38.983  44.845   1.362
18741W        W78486  24.058  15.815   5.694
18742W        W78487   0.315  12.658   2.367
18743W        W78488  41.316  30.949  10.464
18744W        W78489  29.665  18.605  11.956
18745W        W78490  29.034  22.670   0.455
18746W        W78491  35.098   8.803   0.256
18747W        W78492  39.540   1.360   0.946
18748W        W78493  41.514   6.729   2.702
18749W        W78494  35.914  36.539  11.883
18750W        W78495  27.621   6.724  12.457
18751W        W78496  37.576   9.248  12.914
18752W        W78497  37.915  24.029  13.940
18753W        W78498  25.968  30.007  10.923
18754W        W78499   7.672  39.511  12.096
18755W        W78500   6.784   8.871   0.734
18756W        W78501  39.390  22.579   0.296
18757W        W78502   9.831  33.990   2.181
18758W        W78503  30.469  37.454   3.367
18759W        W78504  34.927  32.912   0.273
18760W        W78505  36.447  41.904  13.806
18761W        W78506  10.371  22.141  14.507
18762W        W78507  11.638  39.911  14.414
18763W        W78508  18.735  18.631   3.181
18764W        W78509  14.620  28.555   2.762
18765W        W78510  28.620   6.862  14.508
18766W        W78511  40.984  15.756  11.868
18767W        W78512  41.462   9.682  13.326
18768W        W78513   1.870   1.967  14.962
18769W        W78514  14.634  44.336   3.631
18770W        W78515  33.885  13.312  12.561
18771W        W78516  23.672  28.451   2.687
18772W        W78517  39.401  11.223  10.478
18773W        W78518  13.645  16.130  12.928
18774W        W78519  26.190   0.987   1.246
18775W        W78520  37.018  27.538   1.762
18776W        W78521  27.152  37.431  12.438
18777W        W78522  27.988   8.361   1.880
18778W        W78523   3.338  18.054   1.914
18779W        W78524   1.345  38.018  11.951
18780W        W78525  26.967  14.666   2.195
18781W        W78526  23.137  24.106   0.326
18782W        W78527  30.018  40.807   2.742
18783W        W78528  29.446   9.289  13.816
18784W        W78529  33.076  42.856  14.864
18785W        W78530  17.156   3.227  14.021
18786W        W78531  28.154  17.296   2.821
18787W        W78532  10.317  27.160   3.754
18788W        W78533  12.129  30.603  12.523
18789W        W78534  35.598  28.513  14.282
18790W        W78535   6.812  27.950  11.026
18791W        W78536  30.943   4.843   1.748
18792W        W78537  41.870  41.352   0.332
18793W        W78538  15.234  32.108   4.320
18794W        W78539  42.783  18.582  11.022
18795W        W78540  40.322   5.835  10.464
18796W        W78541  40.953  28.987   1.741
18797W        W78542  19.169  34.970  12.483
18798W        W78543   7.864  34.992   0.427
18799W        W78544  42.912  22.676   2.789
18800W        W78545   0.308  21.618   2.750
18801W        W78546  43.329   5.346  12.830
18802W        W78547  35.977  26.983   3.728
18803W        W78548  39.391   2.286   2.814
18804W        W78549  11.727   1.280  12.346
18805W        W78550   3.380  22.107   1.239
18806W        W78551  34.423  24.497  14.390
18807W        W78552  30.636  13.300   0.826
18808W        W78553  15.806  33.024  14.361
18809W        W78554  40.013   8.768   0.842
18810W        W78555  19.078  36.524  12.852
18811W        W78556  20.258  30.614  11.518
18812W        W78557  14.324  18.714   4.276
18813W        W78558  31.557  22.508   2.883
18814W        W78559  20.213  40.532  14.507
18815W        W78560  15.822  21.684  11.484
18816W        W78561  39.396  10.879   1.826
18817W        W78562  15.252  14.326   0.399
18818W        W78563  32.886  28.045   4.199
18819W        W78564   8.748  12.842  14.028
18820W        W78565  11.325  39.963  11.455
18821W        W78566  41.498  16.088  12.827
18822W        W78567  24.023  11.198   2.707
18823W        W78568   1.891  12.232   3.367
18824W        W78569   0.385  35.543  13.313
18825W        W78570   7.227  28.495   0.242
18826W        W78571  36.021  42.883   1.815
18827W        W78572  13.612  25.613  14.889
18828W        W78573  21.143   7.298  11.891
18829W        W78574  29.094  20.545  11.103
18830W        W78575   2.734  29.618   5.726
18831W        W78576  15.696  11.768   3.862
18832W        W78577  14.281  34.075   9.479
18833W        W78578  10.258  41.294  13.404
18834W        W78579   3.876  17.116  11.093
18835W        W78580   0.486  15.206  10.448
18836W        W78581  38.917  26.602  13.328
18837W        W78582  23.693  28.441   2.256
18838W        W78583  16.220   0.425   3.215
18839W        W78584  30.656  44.294   2.872
18840W        W78585  44.469  10.238  11.597
18841W        W78586  14.225   9.330   0.386
18842W        W78587  32.491  15.679  10.073
18843W        W78588  20.040  22.722  10.573
18844W        W78589   9.698  13.647  13.808
18845W        W78590  21.025  15.702   1.864
18846W        W78591  42.959  43.022  12.046
18847W        W78592  38.874  41.811  10.065
18848W        W78593  37.875   3.715   4.800
18849W        W78594  25.615  26.592   2.880
18850W        W78595  10.221  36.525   1.409
18851W        W78596   4.425  36.850  12.415
18852W        W78597  30.096   6.807  11.541
18853W        W78598  23.024  25.676   1.344
18854W        W78599  19.558  29.108   2.820
18855W        W78600  34.477   4.712   0.291
18856W        W78601  16.570  24.679  11.388
18857W        W78602  13.747  29.115   4.603
18858W        W78603  13.256  36.381   1.224
18859W        W78604  31.098  12.801   2.183
18860W        W78605  32.601  22.134  11.876
18861W        W78606   8.364  16.207  12.839
18862W        W78607  31.031  18.732   9.501
18863W        W78608   8.884  20.658  13.968
18864W        W78609   6.726  12.803   1.802
18865W        W78610  28.483   6.370   9.591
18866W        W78611   1.871  25.482   2.698
18867W        W78612  14.768   6.325  11.451
18868W        W78613  40.533   4.855  13.468
18869W        W78614   3.713   7.678  14.906
18870W        W78615  32.057  16.745  13.488
18871W        W78616  20.641  15.094  10.504
18872W        W78617  36.498  40.980   1.837
18873W        W78618  28.652   5.252   0.417
18874W        W78619  36.875  36.539  11.506
18875W        W78620   3.827  38.884  11.543
18876W        W78621  30.527   9.776   3.162
18877W        W78622  42.330   0.460  13.316
18878W        W78623  12.230  17.574  11.067
18879W        W78624   3.795  30.127   4.731
18880W        W78625  24.114  14.683  14.483
18881W        W78626  11.267  17.247  12.351
18882W        W78627   0.798  26.619  13.833
18883W        W78628  16.079  36.405   4.790
18884W        W78629  20.165  39.486   4.133
18885W        W78630  10.782  20.611  13.429
18886W        W78631  10.279  22.189  12.575
18887W        W78632  18.148   1.465  12.927
18888W        W78633  10.209  38.446   1.780
18889W        W78634  19.281   1.805  10.085
18890W        W78635  33.435  16.591   3.778
18891W        W78636   1.443  13.638   3.638
18892W        W78637  11.795  22.006   4.255
18893W        W78638  10.723   0.945  13.033
18894W        W78639  33.107  21.087  14.804
18895W        W78640  20.259  16.138   9.973
18896W        W78641   8.877  41.407   1.367
18897W        W78642  33.500  25.553  14.887
18898W        W78643  42.306  16.256  13.315
18899W        W78644  25.178  15.106   3.853
18900W        W78645  28.029   7.209   0.453
18901W        W78646  27.450  14.638   2.695
18902W        W78647  41.393   2.960   4.607
18903W        W78648  31.420  21.584  13.008
18904W        W78649  31.131   0.381  13.369
18905W        W78650  16.662   7.911  12.894
18906W        W78651  37.997  44.422  13.475
18907W        W78652  40.923  28.034  11.866
18908W        W78653  42.325  21.168  10.437
18909W        W78654  31.415   2.800   0.898
18910W        W78655   8.327  13.195  11.061
18911W        W78656  29.510   7.252  14.388
18912W        W78657  24.177  31.016  12.355
18913W        W78658  10.684   0.755   0.813
18914W        W78659  32.086  31.079   3.840
18915W        W78660  22.662  36.379  13.063
18916W        W78661  25.607  38.914  10.428
18917W        W78662  26.536  20.680   4.786
18918W        W78663   0.890  11.648   1.804
18919W        W78664  23.523  30.487  12.542
18920W        W78665  20.629   7.245  12.568
18921W        W78666   2.372   6.304  10.462
18922W        W78667   9.857  17.673   3.771
18923W        W78668   4.235  22.134   2.321
18924W        W78669  11.838  11.130   0.426
18925W        W78670  17.752  35.413   1.292
18926W        W78671   3.327   4.395  11.404
18927W        W78672  10.280   4.428   4.274
18928W        W78673  34.501  26.963  12.860
18929W        W78674  32.463  28.663  10.499
18930W        W78675  15.712  25.595  12.954
18931W        W78676  27.621  28.958   1.387
18932W        W78677  39.024   7.185  10.107
18933W        W78678  14.232  37.511   4.325
18934W        W78679  34.870   8.851  13.310
18935W        W78680   5.398  20.614   3.803
18936W        W78681  31.055  12.765  13.877
18937W        W78682  40.332  40.963  13.059
18938W        W78683  13.222  13.174   1.345
18939W        W78684  26.092  26.592   4.117
18940W        W78685  21.676  28.669   1.267
18941W        W78686   0.971  19.568  14.880
18942W        W78687  34.464  25.147  14.513
18943W        W78688  11.779  16.636  10.064
18944W        W78689   4.339  16.570  11.377
18945W        W78690  35.069  32.456  13.492
18946W        W78691  28.945  29.599  13.474
18947W        W78692  39.065  42.347   4.289
18948W        W78693  36.369  35.998   0.304
18949W        W78694  18.109  26.508  12.886
18950W        W78695  39.058  39.845   0.880
18951W        W78696  29.536  18.234   0.947
18952W        W78697   8.167  24.035  12.518
18953W        W78698  44.954  30.460  13.968
18954W        W78699   1.784   4.706   1.211
18955W        W78700  42.914  39.419  13.816
18956W        W78701  42.392   0.453   4.170
18957W        W78702   7.732  21.735   1.768
18958W        W78703   8.709  41.394  14.779
18959W        W78704  28.644  18.606   2.394
18960W        W78705  17.100  27.066   3.258
18961W        W78706  33.893  35.016  12.858
18962W        W78707  37.058  18.220  11.413
18963W        W78708  38.391   5.381  10.993
18964W        W78709   7.717  24.975   3.147
18965W        W78710  13.309  29.106  14.504
18966W        W78711  44.376  38.550   5.201
18967W        W78712  14.811  43.286   2.249
18968W        W78713  28.540  16.598   3.847
18969W        W78714  17.096  20.610   4.833
18970W        W78715  30.499  19.239   3.754
18971W        W78716  44.837   8.297  12.895
18972W        W78717  14.125  23.678  12.982
18973W        W78718  36.883  15.267  14.308
18974W        W78719  22.724  43.294  12.835
18975W        W78720  42.346  27.013  11.515
18976W        W78721  14.732  17.294  10.033
18977W        W78722   0.449  24.510  13.888
18978W        W78723  34.006  42.404  13.873
18979W        W78724  41.393  34.038  11.035
18980W        W78725  11.144  22.079  13.414
18981W        W78726  14.794  36.502  13.046
18982W        W78727  22.181  32.887   0.428
18983W        W78728   1.872  43.422   4.756
18984W        W78729  25.472  20.096   0.826
18985W        W78730   4.742  15.687  13.388
18986W        W78731  36.913  39.056   2.835
18987W        W78732  42.454  29.570  12.428
18988W        W78733   3.928  21.058  12.045
18989W        W78734  28.446   1.749  11.023
18990W        W78735  19.606  15.183   2.361
18991W        W78736  20.127  15.765   0.457
18992W        W78737  43.512  43.489   2.698
18993W        W78738   2.798  17.169  14.980
18994W        W78739  18.119  17.644   1.768
18995W        W78740   0.490  39.856  11.519
18996W        W78741   8.761  10.374   0.476
18997W        W78742  16.106  21.533  14.976
18998W        W78743   4.329  16.638  13.792
18999W        W78744  31.029  15.212   4.697
19000W        W78745  23.149  36.392  11.519
19001W        W78746  31.070  41.906  14.016
19002W        W78747  21.241   6.214  14.907
19003W        W78748   6.244  33.432   0.400
19004W        W78749   7.741  43.960   4.765
19005W        W78750  43.380   0.309   3.730
19006W        W78751   8.743   2.795   0.328
19007W        W78752  44.471  10.252   0.901
19008W        W78753  38.956  22.104   3.209
19009W        W78754   5.813  10.866   2.418
19010W        W78755  43.362  10.192  10.026
19011W        W78756  23.039  42.363   2.847
19012W        W78757  20.626  12.278   4.734
19013W        W78758  42.783  37.063   2.377
19014W        W78759  41.840  23.563   3.865
19015W        W78760  35.106  10.658  10.991
19016W        W78761  44.903  23.731  14.795
19017W        W78762  24.004  18.066  14.453
19018W        W78763  39.971  30.978   4.632
19019W        W78764  27.564  18.786   4.598
19020W        W78765   3.312  18.162   2.829
19021W        W78766  17.600  29.556   0.459
19022W        W78767   5.409  40.034  10.598
19023W        W78768  19.065  23.168  12.919
19024W        W78769  14.114  16.166   0.340
19025W        W78770  44.991   3.349  11.557
19026W        W78771  28.671  14.212  11.375
19027W        W78772  12.293   9.226   0.737
19028W        W78773  41.908  22.044  14.947
19029W        W78774  21.151   9.332  10.554
19030W        W78775  41.486  19.699  10.565
19031W        W78776  16.616   5.859   3.319
19032W        W78777  26.144  11.811  10.921
19033W        W78778  21.635  19.713  10.027
19034W        W78779  25.028  25.154   3.181
19035W        W78780   6.873  21.720   4.690
19036W        W78781  41.458   9.781  14.995
19037W        W78782  23.202  19.146  14.379
19038W        W78783   5.785  15.739   1.337
19039W        W78784  18.730  12.172  11.060
19040W        W78785  14.781   3.307  13.986
19041W        W78786  41.887   9.374  13.980
19042W        W78787  22.568  10.707   3.215
19043W        W78788  10.172  16.221  11.412
19044W        W78789  26.636  33.617  13.393
19045W        W78790  30.450   9.372   1.242
19046W        W78791  37.009  12.180  10.948
19047W        W78792  35.436  41.030   1.916
19048W        W78793   4.882  42.001  12.553
19049W        W78794  19.245   2.236   1.889
19050W        W78795  19.192  22.144   2.675
19051W        W78796  13.769  22.192  10.924
19052W        W78797  12.662  42.413  10.599
19053W        W78798  39.828  33.612  14.869
19054W        W78799  30.547  30.604   4.126
19055W        W78800   3.341   7.819  13.511
19056W        W78801   5.424  16.770   1.290
19057W        W78802   1.733  24.659  12.038
19058W        W78803  28.563   0.833  11.930
19059W        W78804  29.574  24.639   0.742
19060W        W78805  22.588  38.465   0.945
19061W        W78806   6.280  37.834   4.615
19062W        W78807  27.464  18.789   3.172
19063W        W78808  11.721  40.422  12.576
19064W        W78809   9.678  42.358   1.293
19065W        W78810  37.898  37.046   4.312
19066W        W78811   8.900  41.499  12.460
19067W        W78812  26.579  42.521   4.746
19068W        W78813  14.107  12.760  11.591
19069W        W78814   9.250  28.676  12.919
19070W        W78815   0.400  36.936   1.403
19071W        W78816  10.772  36.449   2.247
19072W        W78817  41.912   1.324   1.761
19073W        W78818   5.778  35.864   2.226
19074W        W78819  24.506  16.620  12.464
19075W        W78820  29.033  38.857   1.405
19076W        W78821  13.287   2.750  10.966
19077W        W78822  18.151  35.013   1.777
19078W        W78823   9.843  11.307   1.424
19079W        W78824   4.232  40.387   3.771
19080W        W78825  27.190  28.961   2.217
19081W        W78826   5.810  40.391   4.598
19082W        W78827  14.716  38.009  11.469
19083W        W78828  32.993  16.580   5.160
19084W        W78829  16.205  20.131   2.282
19085W        W78830  37.987  21.734   3.330
19086W        W78831  40.536  32.055   1.712
19087W        W78832  40.879  41.792  13.972
19088W        W78833  31.150  30.969   0.944
19089W        W78834  11.127  29.432  13.471
19090W        W78835  38.061  25.156   3.288
19091W        W78836  39.988   9.171  12.929
19092W        W78837  16.741  19.754   1.793
19093W        W78838  15.107   7.681   4.166
19094W        W78839  13.657   9.780   1.275
19095W        W78840   6.908  29.008   0.866
19096W        W78841  39.544  35.398  11.901
19097W        W78842  43.810   2.396  14.855
19098W        W78843  24.158  14.819   3.228
19099W        W78844   2.942   6.288   1.282
19100W        W78845  40.811  40.546   4.263
19101W        W78846  30.923  13.178   0.831
19102W        W78847  11.254  12.742   4.711
19103W        W78848  24.507   8.760  11.991
19104W        W78849  24.002  23.704   1.894
19105W        W78850  11.360  12.671  12.983
19106W        W78851  17.087  17.683  14.421
19107W        W78852  12.134  40.996   4.683
19108W        W78853  17.629  21.717   1.932
19109W        W78854  18.751  25.075  14.410
19110W        W78855  23.132  42.983  13.471
19111W        W78856  23.064   4.229  11.519
19112W        W78857  32.410  25.686  14.320
19113W        W78858  39.974   3.329   3.797
19114W        W78859  24.511  35.545  14.885
19115W        W78860   5.845  43.503   2.220
19116W        W78861  10.379   1.952  12.459
19117W        W78862  27.614  17.086  13.804
19118W        W78863   1.754  42.282   3.354
19119W        W78864  16.283   8.338   0.468
19120W        W78865  15.277  42.388  13.912
19121W        W78866  30.013  29.025   1.412
19122W        W78867   8.815  32.470   0.261
19123W        W78868   0.800  15.216  10.626
19124W        W78869  25.602  33.920   3.844
19125W        W78870   9.242  27.682   4.775
19126W        W78871  14.171  36.915   3.753
19127W        W78872  44.942  24.502   1.380
19128W        W78873  18.098   3.395   2.362
19129W        W78874  29.513  11.683   5.165
19130W        W78875  26.620  32.127  11.876
19131W        W78876  31.962  21.636   1.879
19132W        W78877   6.409  12.675  14.313
19133W        W78878   5.897  33.386  10.573
19134W        W78879   1.311  25.090   0.286
19135W        W78880  11.331  25.669  10.550
19136W        W78881  35.573  25.681  12.566
19137W        W78882  24.707  10.804  11.490
19138W        W78883   9.726  26.106  10.628
19139W        W78884   8.284  24.077  12.954
19140W        W78885   0.763   8.886  13.454
19141W        W78886  34.014  12.820   4.226
19142W        W78887  34.404  12.695   3.380
19143W        W78888  28.057  30.483  10.891
19144W        W78889  11.225  40.494   4.319
19145W        W78890  34.427   3.817   4.160
19146W        W78891  27.955   9.696   3.294
19147W        W78892   3.715  16.100  12.830
19148W        W78893  27.492  31.897  14.027
19149W        W78894   0.402  13.766  10.935
19150W        W78895   7.335  18.126   4.321
19151W        W78896  17.711  36.983   5.617
19152W        W78897  27.016  40.928   0.324
19153W        W78898  26.654  42.783  14.513
19154W        W78899  23.085  25.029  13.909
19155W        W78900  19.183  28.627   2.328
19156W        W78901  14.829  36.388  14.385
19157W        W78902  25.977  13.740   5.110
19158W        W78903  17.759   3.356  12.906
19159W        W78904  37.070  11.642   4.272
19160W        W78905   0.378  28.108   3.324
19161W        W78906   8.803  15.108   0.733
19162W        W78907  17.791  34.426   5.276
19163W        W78908  23.160  10.773   3.674
19164W        W78909  31.914  17.556   3.149
19165W        W78910  40.033  12.749   1.442
19166W        W78911  17.571   0.433  13.947
19167W        W78912   7.281   6.223  14.407
19168W        W78913  23.145  23.029  10.590
19169W        W78914  23.201  14.629   1.260
19170W        W78915   3.420  41.986   4.658
19171W        W78916  27.522  35.998   2.233
19172W        W78917   5.233  42.335  13.856
19173W        W78918  32.493   2.268  10.411
19174W        W78919  10.677  43.888  10.633
19175W        W78920   2.270   2.337  12.416
19176W        W78921  23.121   2.378   1.829
19177W        W78922  39.446  11.735   4.817
19178W        W78923  27.032  38.546  13.888
19179W        W78924   7.886  28.143   3.385
19180W        W78925  26.471  18.208   2.783
19181W        W78926  20.030  13.170   1.785
19182W        W78927  37.438  23.035  11.492
19183W        W78928  28.551  18.637   4.687
19184W        W78929  17.249  32.956   1.361
19185W        W78930  25.040  13.812  13.858
19186W        W78931  10.775  21.145   3.653
19187W        W78932  21.586  16.224   4.691
19188W        W78933  25.507  34.590   0.869
19189W        W78934  19.262  35.402   0.947
19190W        W78935  39.843  32.493   2.709
19191W        W78936  14.268  37.460   5.090
19192W        W78937  40.026   5.896  10.627
19193W        W78938  38.545   6.330   3.219
19194W        W78939  33.880  22.516   2.730
19195W        W78940  27.106  32.067   3.190
19196W        W78941  27.981  25.071   0.244
19197W        W78942  25.074  16.307  13.898
19198W        W78943  24.200  18.134   2.409
19199W        W78944  14.743  30.476   4.742
19200W        W78945  19.219   3.456  10.612
19201W        W78946  43.360  14.665   0.746
19202W        W78947  26.070  35.104  14.379
19203W        W78948  20.744  41.837   3.375
19204W        W78949   9.776  14.664   4.319
19205W        W78950  18.092  38.880   2.773
19206W        W78951  42.990   0.962  12.421
19207W        W78952  38.330   2.459  11.397
19208W        W78953  36.404  10.193  14.795
19209W        W78954  26.703  15.638  11.555
19210W        W78955  37.082  42.502   3.341
19211W        W78956  12.355  25.043   2.355
19212W        W78957   9.231  35.103   4.354
19213W        W78958  39.358  40.810   0.428
19214W        W78959  40.496   9.783  13.941
19215W        W78960  15.796  41.425   3.158
19216W        W78961  31.035  26.079  12.835
19217W        W78962  11.843  22.584  10.113
19218W        W78963  10.247  41.480   1.230
19219W        W78964  31.514  13.226  13.344
19220W        W78965  14.611  14.198  10.641
19221W        W78966  39.994  14.622  10.888
19222W        W78967  42.381   3.327  12.555
19223W        W78968  28.543   8.865   1.758
19224W        W78969   9.291  12.345   2.370
19225W        W78970  20.123  42.942  14.811
19226W        W78971  24.581  20.594   2.404
19227W        W78972  19.154  39.047   0.300
19228W        W78973   9.770  13.210   4.224
19229W        W78974   9.173  24.003  10.919
19230W        W78975  37.013  31.485  10.968
19231W        W78976   0.850  17.191  13.992
19232W        W78977  20.152  38.887  10.557
19233W        W78978   6.265  14.337   3.768
19234W        W78979  17.670  28.182   0.867
19235W        W78980   0.479  24.226  12.960
19236W        W78981   9.650  41.357   4.320
19237W        W78982  41.433  42.031  13.917
19238W        W78983   7.195  40.964  11.527
19239W        W78984  41.491  34.944   3.818
19240W        W78985  24.562  22.744   0.339
19241W        W78986  14.795  44.313  10.640
19242W        W78987  17.764  18.073  12.890
19243W        W78988  31.036  43.432  10.502
19244W        W78989  17.724   9.265  11.911
19245W        W78990  31.482  41.434   4.751
19246W        W78991  39.886  32.598   1.890
19247W        W78992  34.399  24.182   1.905
19248W        W78993   9.270  27.110   2.803
19249W        W78994  33.382  14.160   3.642
19250W        W78995  37.400  36.051  13.856
19251W        W78996  25.714  27.058   4.785
19252W        W78997  41.312   3.281   0.372
19253W        W78998  43.319  37.359   0.746
19254W        W78999  38.015  20.697   0.295
19255W        W79000  39.428  37.024   0.856
19256W        W79001   6.320  13.296  10.078
19257W        W79002  34.514  20.053  14.438
19258W        W79003   7.354  13.789   4.234
19259W        W79004  19.721  25.204   4.278
19260W        W79005  14.668  30.440   0.420
19261W        W79006  28.011  29.081   1.268
19262W        W79007  19.241  40.005  11.983
19263W        W79008  33.891  19.073   3.224
19264W        W79009  33.081  11.346  10.935
19265W        W79010   1.906  39.358  14.399
19266W        W79011  15.327  38.499  12.968
19267W        W79012  15.125  37.344  12.990
19268W        W79013  41.293   0.960   3.703
19269W        W79014   8.712  29.176  14.910
19270W        W79015  12.258  38.536  12.089
19271W        W79016  37.973   8.403   0.836
19272W        W79017  20.677  29.074  14.905
19273W        W79018  43.326  42.812  10.586
19274W        W79019  16.236  37.514  12.433
19275W        W79020   6.917  20.073   0.301
19276W        W79021  24.215  20.183   3.342
19277W        W79022  35.558  14.222   1.290
19278W        W79023  22.606   6.857  11.914
19279W        W79024  40.919   2.883   1.339
19280W        W79025   2.333   2.307   3.679
19281W        W79026  32.931  24.518  13.861
19282W        W79027  12.761  37.895  11.117
19283W        W79028  40.009  29.445   1.805
19284W        W79029  35.861  44.478   9.926
19285W        W79030  34.509  19.707  13.447
19286W        W79031   6.340  32.409   0.264
19287W        W79032  34.591   6.184   9.626
19288W        W79033  29.651  20.538   4.677
19289W        W79034  12.357   9.804   0.743
19290W        W79035  41.962   3.349   4.664
19291W        W79036  43.917   2.333   4.722
19292W        W79037  14.188  14.783   4.779
19293W        W79038  25.050  23.113   1.306
19294W        W79039  15.308  20.634   4.722
19295W        W79040   1.938  23.653   4.837
19296W        W79041  18.770  35.543   0.441
19297W        W79042   1.288   0.481   1.378
19298W        W79043   2.853   4.925  12.953
19299W        W79044  31.050   3.775   4.209
19300W        W79045   6.371  11.204  13.470
19301W        W79046  12.703  12.126  12.375
19302W        W79047  23.599  35.079   1.258
19303W        W79048  17.792  38.939  13.395
19304W        W79049   8.784  41.894   3.241
19305W        W79050  23.045  39.990   4.800
19306W        W79051  34.459  30.422   5.185
19307W        W79052  26.989  26.681   2.682
19308W        W79053   4.850  42.519  13.016
19309W        W79054  26.570  29.118  14.763
19310W        W79055   0.799   7.775  13.440
19311W        W79056   8.375  29.149  11.391
19312W        W79057  31.578  10.315   1.285
19313W        W79058  43.502  39.408  10.929
19314W        W79059  24.643  15.210   5.669
19315W        W79060  22.591  33.027  10.024
19316W        W79061  28.968  34.532  12.932
19317W        W79062  17.771   5.213  13.922
19318W        W79063  13.805  25.146   3.656
19319W        W79064  31.491  36.905  10.523
19320W        W79065  33.078  31.504   3.816
19321W        W79066  14.216   6.807   3.688
19322W        W79067  35.000   4.428   2.833
19323W        W79068   8.394  40.345   3.329
19324W        W79069  39.436  30.963   4.690
19325W        W79070  20.649  33.530  12.941
19326W        W79071  37.557  17.156   0.765
19327W        W79072   8.724  30.977  14.308
19328W        W79073  18.607  40.902   2.369
19329W        W79074  31.547  39.829  10.979
19330W        W79075  14.746  19.567   1.229
19331W        W79076  18.614  29.442   0.361
19332W        W79077  26.571  15.761   0.407
19333W        W79078  21.182  17.742  13.792
19334W        W79079  18.156   7.836  14.405
19335W        W79080   9.809  30.115  12.033
19336W        W79081   2.279  41.410  13.504
19337W        W79082  22.067  39.400  14.352
19338W        W79083  10.332  31.075  10.531
19339W        W79084  21.148  23.115   9.923
19340W        W79085  24.581   3.773  14.494
19341W        W79086  41.906  19.623  14.408
19342W        W79087  26.518  13.333  12.070
19343W        W79088  19.203  27.662   4.259
19344W        W79089  20.226   1.807   2.833
19345W        W79090  16.683  17.261  11.398
19346W        W79091  14.220  24.645  11.977
19347W        W79092  17.729   5.275  14.942
19348W        W79093  29.918  21.649   0.450
19349W        W79094  21.517   6.345  11.537
19350W        W79095  31.425  29.990   9.968
19351W        W79096  22.156  20.221   3.300
19352W        W79097  24.171  28.587   3.379
19353W        W79098   7.367   9.250  14.007
19354W        W79099  42.880  16.701   4.241
19355W        W79100  34.904  23.638  13.495
19356W        W79101  13.119  19.580  13.934
19357W        W79102  29.154  11.238  13.959
19358W        W79103  16.280   4.304  12.066
19359W        W79104  26.097  14.332  14.761
19360W        W79105  26.584  24.977  10.041
19361W        W79106  35.551  30.919  13.386
19362W        W79107  41.509  21.593  14.294
19363W        W79108  41.989  16.235   1.213
19364W        W79109  26.544  35.102  11.040
19365W        W79110  23.189  32.049   0.285
19366W        W79111  27.572  38.950  12.027
19367W        W79112   4.929  33.995  14.335
19368W        W79113  18.082   4.875  12.871
19369W        W79114  12.766  16.761  11.566
19370W        W79115  25.121  23.225   0.754
19371W        W79116  40.902  28.938   0.273
19372W        W79117  17.565  39.846  12.432
19373W        W79118  18.198  31.096   3.360
19374W        W79119  21.052   3.832   0.251
19375W        W79120  29.628  44.871   1.231
19376W        W79121  17.607  33.013  14.343
19377W        W79122   1.416  19.204  12.861
19378W        W79123   8.317  34.112   0.450
19379W        W79124  24.112   9.847   1.832
19380W        W79125  20.086  15.244   0.268
19381W        W79126  39.939  44.448   1.885
19382W        W79127  28.184  17.571  12.922
19383W        W79128  11.829  37.460   1.832
19384W        W79129  33.923  10.283  11.997
19385W        W79130  26.487  34.906   3.812
19386W        W79131   0.813  27.006   5.210
19387W        W79132  12.160   5.280   2.272
19388W        W79133  44.452  19.603   0.919
19389W        W79134  12.771  16.783  14.882
19390W        W79135  19.756  10.356   0.737
19391W        W79136  10.654  23.623  13.876
19392W        W79137  35.069  11.705  11.532
19393W        W79138  29.167   9.695  13.384
19394W        W79139  34.982   8.700  14.831
19395W        W79140   1.963  23.580   2.198
19396W        W79141  17.782  13.107   3.324
19397W        W79142  14.680  36.060   3.751
19398W        W79143  14.700  44.281  12.882
19399W        W79144  30.066  14.100  12.886
19400W        W79145   1.326  14.754  13.451
19401W        W79146  41.903  14.240   4.743
19402W        W79147   1.244  15.196  11.449
19403W        W79148  23.088  24.178  14.444
19404W        W79149  24.169  43.986   4.259
19405W        W79150  13.609  18.750  12.947
19406W        W79151   1.471   9.387  10.405
19407W        W79152   2.472  43.843  11.534
19408W        W79153  41.405  24.480  13.482
19409W        W79154  31.004  27.965  10.106
19410W        W79155  37.930  38.980   4.787
19411W        W79156   4.210  14.293   4.248
19412W        W79157   0.422  37.432   2.271
19413W        W79158  24.523  44.976   4.211
19414W        W79159  40.905  21.590   2.199
19415W        W79160  16.693  39.929   2.815
19416W        W79161   3.722  16.667  14.394
19417W        W79162  36.079  34.383   2.760
19418W        W79163  37.401  18.082  10.616
19419W        W79164  44.374  17.775  14.805
19420W        W79165  19.108  41.510   1.398
19421W        W79166   4.303   5.845  10.419
19422W        W79167  37.557   4.258  11.901
19423W        W79168   2.853  24.599  12.351
19424W        W79169   1.337  29.959  11.082
19425W        W79170  27.599  13.735   1.299
19426W        W79171  10.644  30.488  10.544
19427W        W79172  29.930  37.445  14.787
19428W        W79173  24.503  30.144   3.225
19429W        W79174  20.711   9.306   1.913
19430W        W79175  26.595  29.109   0.392
19431W        W79176  37.986  33.939   1.842
19432W        W79177  31.154  41.334   1.409
19433W        W79178   2.365  26.141  10.538
19434W        W79179  27.053  16.690  11.873
19435W        W79180  43.327  37.553  13.802
19436W        W79181  43.803   7.782   0.285
19437W        W79182  16.582  29.496   1.744
19438W        W79183  20.674  35.489  10.448
19439W        W79184  38.359  34.449  11.927
19440W        W79185  37.485   8.223   1.733
19441W        W79186   0.754   4.779  11.935
19442W        W79187  27.485   0.275  12.578
19443W        W79188  14.775  22.099   4.635
19444W        W79189  16.159   6.351  13.517
19445W        W79190  23.179  43.817   0.451
19446W        W79191  26.686  13.718  14.919
19447W        W79192  16.123   5.811  11.047
19448W        W79193  14.739  27.588  13.354
19449W        W79194  43.934  27.607   2.717
19450W        W79195   9.830  39.820   3.787
19451W        W79196  16.120   9.769   3.327
19452W        W79197  26.556  16.584  12.479
19453W        W79198  41.990  17.133  12.424
19454W        W79199  42.348   9.221  11.113
19455W        W79200  14.787   5.796  10.975
19456W        W79201  24.207  28.609   1.804
19457W        W79202  34.452   8.660  11.868
19458W        W79203   8.357   4.850   3.147
19459W        W79204   4.860   8.850  14.373
19460W        W79205  24.494   0.793  13.516
19461W        W79206  25.217   1.806  10.585
19462W        W79207  13.238  34.958   2.838
19463W        W79208  33.913  18.123   3.706
19464W        W79209   5.879  44.832   1.814
19465W        W79210  39.519  22.658  13.032
19466W        W79211  41.798  12.855  12.511
19467W        W79212   7.845  24.075  14.865
19468W        W79213  35.908   2.300   4.335
19469W        W79214  13.601  30.600   4.148
19470W        W79215   0.842  40.411  10.458
19471W        W79216   0.341  24.158  12.500
19472W        W79217  34.892  23.684   0.300
19473W        W79218  28.664  26.174  11.416
19474W        W79219  11.312   6.817  11.030
19475W        W79220  16.758  34.482   1.290
19476W        W79221  28.175  13.121  13.508
19477W        W79222  32.997  31.425   0.746
19478W        W79223  41.524  27.596  12.459
19479W        W79224  20.586  12.832  14.345
19480W        W79225  44.841  38.427   2.843
19481W        W79226  35.088  25.134   0.478
19482W        W79227  32.107  44.276  13.360
19483W        W79228  31.552   2.246  14.456
19484W        W79229  13.153  44.892   0.364
19485W        W79230  39.514  32.522   4.324
19486W        W79231  17.556  42.420  10.579
19487W        W79232  24.519   2.322  12.917
19488W        W79233  18.578   9.883  11.073
19489W        W79234  25.008  30.939   2.733
19490W        W79235  36.485  13.663  14.819
19491W        W79236  44.476  30.604   2.377
19492W        W79237  14.644  24.162  12.425
19493W        W79238   4.440  43.409  14.825
19494W        W79239   1.952  16.187  10.943
19495W        W79240  19.097  19.616  14.423
19496W        W79241  25.210  20.144   2.383
19497W        W79242  15.687  38.977   0.365
19498W        W79243   4.252  32.467  13.888
19499W        W79244  23.224  19.071   2.874
19500W        W79245  29.176   9.646   2.228
19501W        W79246  37.470   9.247  14.293
19502W        W79247  28.933  32.042   2.378
19503W        W79248  11.775   9.317  11.510
19504W        W79249  34.968   5.208   4.796
19505W        W79250  42.013  10.730  11.517
19506W        W79251  35.089  19.216  14.299
19507W        W79252  41.914   7.415   0.436
19508W        W79253  38.969  38.876   4.728
19509W        W79254  37.034  18.765  12.397
19510W        W79255   6.692  16.760  13.440
19511W        W79256  39.457  41.478   3.261
19512W        W79257   1.910  41.018   2.825
19513W        W79258   5.713  23.573   2.814
19514W        W79259  14.103  30.497  13.368
19515W        W79260  35.363   7.369   3.654
19516W        W79261  22.122  41.982  13.029
19517W        W79262  28.544  38.928   0.367
19518W        W79263  37.573  41.947  11.944
19519W        W79264  12.766  14.150  13.336
19520W        W79265  44.424   4.706   2.853
19521W        W79266  26.572  41.311  12.541
19522W        W79267  31.060   5.823  12.855
19523W        W79268  32.067  41.524  12.472
19524W        W79269  38.945   9.338   0.411
19525W        W79270  11.255  10.364   3.711
19526W        W79271  12.329  16.302  10.969
19527W        W79272  24.706  12.206  14.922
19528W        W79273  15.617  13.163   0.736
19529W        W79274  12.671   9.171   3.829
19530W        W79275  42.995  30.525  12.008
19531W        W79276  29.032  21.021   2.393
19532W        W79277   7.355  39.811   4.743
19533W        W79278  10.722   5.317  12.891
19534W        W79279   6.392  43.987  14.447
19535W        W79280  10.345   8.812   3.331
19536W        W79281   4.830  42.949   0.808
19537W        W79282  34.475  43.920   4.816
19538W        W79283   1.732  32.599   0.950
19539W        W79284  18.718  25.138  11.933
19540W        W79285  34.594   0.906   2.858
19541W        W79286  14.655  14.729   4.299
19542W        W79287  16.760   1.359  12.005
19543W        W79288  33.907  12.210  13.528
19544W        W79289   6.813  15.318  11.492
19545W        W79290   5.298  44.279  12.970
19546W        W79291  10.719  11.654  13.447
19547W        W79292   5.310  43.404  12.018
19548W        W79293   8.251  43.906   4.631
19549W        W79294   8.747  31.044  13.870
19550W        W79295  22.055  33.467  11.929
19551W        W79296   3.772  18.696   1.232
19552W        W79297   0.329  41.806  12.924
19553W        W79298  20.551  31.405  14.291
19554W        W79299  32.935  27.099  14.496
19555W        W79300  16.225  24.577  11.450
19556W        W79301  31.078  41.981   1.395
19557W        W79302  38.915  17.120  13.330
19558W        W79303  21.128  20.698   4.657
19559W        W79304   8.176  24.004  10.922
19560W        W79305  29.546  32.440   5.110
19561W        W79306  13.654  36.007  11.990
19562W        W79307  11.837  15.632  14.306
19563W        W79308  11.794   0.864   3.761
19564W        W79309   8.402   7.768   0.850
19565W        W79310  34.956  25.547   1.697
19566W        W79311  38.507  11.702   2.721
19567W        W79312   9.370  35.582   1.432
19568W        W79313  13.623  37.444   4.607
19569W        W79314  17.621   7.685  11.017
19570W        W79315   5.822  33.450  12.986
19571W        W79316   9.738  31.133  12.910
19572W        W79317  16.077  18.228   0.846
19573W        W79318  10.697  27.152   3.252
19574W        W79319  13.711  36.995   5.260
19575W        W79320  11.269  22.573  14.437
19576W        W79321  12.121   4.393   2.826
19577W        W79322  33.467  43.979  12.347
19578W        W79323  34.079  19.691   0.965
19579W        W79324  13.776   4.305   3.358
19580W        W79325  42.904   3.214   2.768
19581W        W79326  38.530   2.465   4.354
19582W        W79327  36.883   1.899   2.768
19583W        W79328  40.936  19.221  14.455
19584W        W79329   9.828   8.766  14.305
19585W        W79330   0.850  41.985   9.967
19586W        W79331  28.995  20.259   4.764
19587W        W79332   8.859   0.802   3.229
19588W        W79333  38.957  35.910   4.825
19589W        W79334  11.198  25.130  13.013
19590W        W79335  18.782  37.960  12.577
19591W        W79336   4.833   6.257  11.027
19592W        W79337   6.885  20.648   4.768
19593W        W79338  25.127  37.062  13.494
19594W        W79339  20.532  16.813   4.170
19595W        W79340  15.298  43.395   2.871
19596W        W79341  32.607   3.812  11.519
19597W        W79342   5.933  32.957  10.888
19598W        W79343   0.318  33.963   0.440
19599W        W79344  42.782   5.755  11.040
19600W        W79345   7.706  23.735   0.295
19601W        W79346   8.249  20.252  11.948
19602W        W79347  35.040  35.862   0.402
19603W        W79348   5.409  43.475   1.754
19604W        W79349   5.732   4.732   1.712
19605W        W79350  38.063  27.601   3.726
19606W        W79351  42.461  31.417   3.194
19607W        W79352  19.743  10.202  14.347
19608W        W79353  14.730  16.186  13.918
19609W        W79354  17.269  12.223  14.964
19610W        W79355  22.063  10.642  10.411
19611W        W79356  38.935  43.948   4.183
19612W        W79357  36.944  38.485  14.843
19613W        W79358   7.259  42.378   1.790
19614W        W79359   1.818   9.715  12.418
19615W        W79360  39.868  15.754  14.337
19616W        W79361  35.403   9.770   4.796
19617W        W79362   7.833  31.572   0.771
19618W        W79363  36.093  19.678  14.473
19619W        W79364  13.667  40.963  11.533
19620W        W79365   6.417  19.666   3.242
19621W        W79366  24.216   0.263   2.824
19622W        W79367  21.684  22.995   2.289
19623W        W79368  23.708  18.563   2.733
19624W        W79369  19.544  34.559  14.861
19625W        W79370  34.941  40.014   3.758
19626W        W79371  19.706  22.591   3.686
19627W        W79372   9.177  35.364  14.841
19628W        W79373  35.410  36.536  12.579
19629W        W79374  16.127   8.345  12.549
19630W        W79375  22.190  35.075   4.710
19631W        W79376  30.040  22.016  13.941
19632W        W79377   8.825  25.694  13.477
19633W        W79378   2.955  32.627  12.471
19634W        W79379  20.764  31.419   5.716
19635W        W79380   9.170   4.821  10.076
19636W        W79381   7.209  35.965  12.064
19637W        W79382   9.775  37.893  14.894
19638W        W79383   5.727  22.667   3.737
19639W        W79384  37.076   6.752   3.852
19640W        W79385  11.234  26.029  12.385
19641W        W79386  24.554   2.465  14.863
19642W        W79387  29.956  24.568  14.392
19643W        W79388  35.568  22.528  12.445
19644W        W79389  44.376  30.606   1.792
19645W        W79390  14.297  34.949   1.835
19646W        W79391  42.480   4.387   2.725
19647W        W79392   7.340  28.601  10.630
19648W        W79393   8.833   0.896   2.208
19649W        W79394  18.067  19.613   0.909
19650W        W79395  10.653  28.572   4.606
19651W        W79396  18.261   6.355   0.467
19652W        W79397  34.939  38.929   5.283
19653W        W79398   8.732  29.954   0.916
19654W        W79399  29.592   6.299   4.178
19655W        W79400   8.377  34.071  14.905
19656W        W79401  27.565  14.094   3.720
19657W        W79402  23.691  27.016  14.505
19658W        W79403  32.135  40.936   2.706
19659W        W79404  38.509  23.492   4.656
19660W        W79405  16.786   4.391  14.497
19661W        W79406   4.386  31.528   1.223
19662W        W79407  35.591  37.835   4.331
19663W        W79408  33.066  10.224  12.047
19664W        W79409  43.328  18.147   3.153
19665W        W79410   6.281  22.502   0.316
19666W        W79411  25.612  18.095  10.144
19667W        W79412  15.819  11.265   1.306
19668W        W79413   8.837  39.449  12.062
19669W        W79414  36.931  17.179   1.794
19670W        W79415  28.120  17.671  14.489
19671W        W79416  27.570   4.809  10.449
19672W        W79417  36.065  39.501   2.670
19673W        W79418  36.957   5.856   0.900
19674W        W79419   9.680   0.341   0.300
19675W        W79420  39.907  27.650   2.300
19676W        W79421  35.996  10.257  11.011
19677W        W79422  37.970  28.567  11.892
19678W        W79423  42.326  44.000  11.126
19679W        W79424   1.928   4.278   2.276
19680W        W79425  44.487   5.411  10.493
19681W        W79426  43.448  27.614   1.856
19682W        W79427  11.171  24.638  12.410
19683W        W79428  42.363  41.007   1.252
19684W        W79429   3.234   9.679   3.637
19685W        W79430  34.470  19.169   2.246
19686W        W79431  12.235   5.380   4.667
19687W        W79432  12.164   6.268  10.994
19688W        W79433   9.749   8.205  14.792
19689W        W79434   7.336  15.085  11.565
19690W        W79435  37.879  24.186   1.412
19691W        W79436  27.685  21.670   2.386
19692W        W79437  42.380   4.913   1.244
19693W        W79438  24.619   3.403  13.493
19694W        W79439  28.988  17.725  12.026
19695W        W79440  22.730  29.511   2.384
19696W        W79441  43.771  28.617   1.340
19697W        W79442   8.294   4.442  10.422
19698W        W79443  25.633  15.194  14.874
19699W        W79444  20.162  42.925   4.669
19700W        W79445   2.813  16.667  13.346
19701W        W79446   8.844   8.210  10.467
19702W        W79447  25.047   5.823   4.317
19703W        W79448  34.369  40.827   0.764
19704W        W79449  28.611  39.447  11.087
19705W        W79450  25.669  26.630  12.524
19706W        W79451  21.037   7.278   3.258
19707W        W79452  44.322  32.402  12.464
19708W        W79453  36.394  27.605   0.736
19709W        W79454  25.507  44.833  11.917
19710W        W79455  39.937   2.294  14.312
19711W        W79456  19.285  26.607  13.850
19712W        W79457   5.282  33.874   4.205
19713W        W79458   1.390  32.974  12.475
19714W        W79459   2.823  14.220  14.446
19715W        W79460   0.967  31.409  13.871
19716W        W79461  34.106   8.178   1.737
19717W        W79462  20.751  27.490   4.331
19718W        W79463   4.224   1.846   4.826
19719W        W79464   7.799  21.540   2.793
19720W        W79465   8.372   4.798  11.869
19721W        W79466  38.384  43.422  10.545
19722W        W79467  40.365  31.086  14.834
19723W        W79468  41.376  14.173  12.502
19724W        W79469  30.155  33.054   4.198
19725W        W79470  42.830  36.849  12.438
19726W        W79471  11.864  38.013   0.799
19727W        W79472  16.243   7.312   1.850
19728W        W79473  24.203  26.677   2.680
19729W        W79474  17.070  18.231  13.862
19730W        W79475  33.398   4.241   5.587
19731W        W79476   6.262  39.531  11.122
19732W        W79477  33.414   1.308   1.228
19733W        W79478   4.937   9.168  14.424
19734W        W79479  27.957   4.862  13.005
19735W        W79480  24.149  26.684  11.607
19736W        W79481  17.161   2.315  11.898
19737W        W79482  26.078  38.067  12.827
19738W        W79483  37.532  42.819  12.369
19739W        W79484  20.111  40.038   0.886
19740W        W79485  37.917  18.574   1.930
19741W        W79486  30.920   8.733   3.846
19742W        W79487  15.716  33.106  14.928
19743W        W79488  37.032  28.579  10.558
19744W        W79489  35.021  28.667  10.039
19745W        W79490  23.217  13.671  14.433
19746W        W79491  14.217  29.636  11.543
19747W        W79492  13.781  17.071  14.947
19748W        W79493  37.883   9.752   0.793
19749W        W79494   4.764  26.602   2.818
19750W        W79495   0.938  33.622   1.432
19751W        W79496  24.224  33.005  11.944
19752W        W79497  34.422  35.928  11.953
19753W        W79498  24.102   9.232   0.823
19754W        W79499  20.664  40.049  11.888
19755W        W79500  10.378  37.921   2.858
19756W        W79501  17.070  11.759   3.318
19757W        W79502  24.229  12.247  13.528
19758W        W79503  32.534  26.173  11.447
19759W        W79504  14.281  32.020  11.106
19760W        W79505  13.692  25.530  12.954
19761W        W79506  21.120  41.995  14.458
19762W        W79507   6.907  23.717   2.301
19763W        W79508  29.991  13.190  13.341
19764W        W79509  29.007  43.377  11.905
19765W        W79510  13.348  32.012   4.613
19766W        W79511  23.582   9.173   2.274
19767W        W79512  16.625  17.294   1.792
19768W        W79513   7.709  25.001  12.046
19769W        W79514  44.278   6.883   2.290
19770W        W79515  26.011   5.836  14.328
19771W        W79516  28.498  33.110  14.326
19772W        W79517  34.510  31.995   2.335
19773W        W79518   7.862  13.335   1.722
19774W        W79519  21.743  28.669   4.326
19775W        W79520  17.166   7.889   1.790
19776W        W79521  11.786  41.830  13.547
19777W        W79522  43.794  30.522  14.956
19778W        W79523  21.703  30.511   3.705
19779W        W79524   3.887   3.917  13.531
19780W        W79525  14.247  35.526   0.872
19781W        W79526   2.855  43.856  12.833
19782W        W79527  23.571  23.076   0.277
19783W        W79528  29.959   0.470   3.858
19784W        W79529  10.827  10.864  11.047
19785W        W79530  43.478  15.778   3.871
19786W        W79531  25.135  41.024   2.848
19787W        W79532   9.660  32.637   0.927
19788W        W79533  19.103  28.174   1.446
19789W        W79534  23.674   5.778   2.797
19790W        W79535  42.918  20.553   0.343
19791W        W79536   9.796  14.104   0.311
19792W        W79537  10.203  21.526  11.939
19793W        W79538   7.713   5.702  10.624
19794W        W79539  30.099  24.086   3.191
19795W        W79540  27.646   3.817  12.475
19796W        W79541   9.713   9.654  13.332
19797W        W79542  11.809  28.070   2.224
19798W        W79543  38.526  29.574   3.338
19799W        W79544   3.813   3.323  12.409
19800W        W79545  33.530  27.638  14.327
19801W        W79546  40.327   8.208   4.729
19802W        W79547  29.649  42.032   3.288
19803W        W79548  21.535   3.448  11.026
19804W        W79549  19.191  13.302   3.168
19805W        W79550  25.094  30.075   2.786
19806W        W79551  13.599  20.200  14.851
19807W        W79552  33.927  37.438  11.560
19808W        W79553   2.733  29.169   9.579
19809W        W79554  26.656  18.758   4.322
19810W        W79555  23.571  34.571   0.320
19811W        W79556  43.384  39.910   3.362
19812W        W79557  38.376  30.431   2.666
19813W        W79558  20.665  38.487   2.742
19814W        W79559   0.286  32.537  13.936
19815W        W79560  13.825  36.948  12.855
19816W        W79561  44.998  43.303  13.936
19817W        W79562  25.598  29.933   2.315
19818W        W79563  34.531  12.245   2.360
19819W        W79564  41.014   0.423   1.235
19820W        W79565  21.038  44.882  11.110
19821W        W79566   1.743  37.938  13.535
19822W        W79567  38.349  25.013   2.686
19823W        W79568  20.041   6.782  13.471
19824W        W79569  36.991  42.385   3.687
19825W        W79570  18.699   1.265   4.630
19826W        W79571  16.691  35.476   2.709
19827W        W79572  34.919  27.114   4.256
19828W        W79573  25.190  40.309  13.960
19829W        W79574  39.053  39.375   1.784
19830W        W79575   6.324  22.711   4.627
19831W        W79576  19.633   5.289  11.911
19832W        W79577  23.012  15.141   0.914
19833W        W79578   6.730  11.767  13.390
19834W        W79579  26.508  42.295  12.094
19835W        W79580  10.641  16.647   2.367
19836W        W79581  41.439  22.516  10.500
19837W        W79582  34.991  37.965  12.973
19838W        W79583  19.161   7.794   4.830
19839W        W79584  22.031  17.602  14.996
19840W        W79585   2.405  25.130   2.713
19841W        W79586  26.167  43.289  14.939
19842W        W79587   3.748  33.106   0.301
19843W        W79588  28.126  30.561   1.283
19844W        W79589  23.702   7.401  11.991
19845W        W79590  16.747  24.016   1.393
19846W        W79591   2.348   6.742   1.377
19847W        W79592  31.001  33.431  10.531
19848W        W79593  16.162  40.013  12.879
19849W        W79594  11.167  38.957   0.447
19850W        W79595  11.829  12.713   1.429
19851W        W79596  26.076  41.883   3.781
19852W        W79597  41.392  12.836   2.897
19853W        W79598  11.757  11.815  13.871
19854W        W79599  27.179  42.312  12.938
19855W        W79600  13.718   7.733   2.255
19856W        W79601  18.258  23.638  11.389
19857W        W79602  39.939  43.506   4.329
19858W        W79603  12.839  43.414   4.118
19859W        W79604   0.463  17.147   2.777
19860W        W79605  13.261  14.143   0.483
19861W        W79606  36.987  20.211   3.787
19862W        W79607  25.085   7.237   1.410
19863W        W79608   7.875  27.987   0.356
19864W        W79609   0.470  22.508   2.332
19865W        W79610  18.097  13.264  14.839
19866W        W79611   0.942  35.972   3.785
19867W        W79612  20.728   5.419   0.347
19868W        W79613  22.146   0.787  13.391
19869W        W79614  24.578  29.984  11.612
19870W        W79615  30.546   8.833  14.889
19871W        W79616  44.844  34.063   4.701
19872W        W79617  37.407  17.250  14.291
19873W        W79618  22.195  18.245  13.422
19874W        W79619   1.912   4.313   0.933
19875W        W79620  15.653  41.032   1.434
19876W        W79621  14.099  39.450  12.479
19877W        W79622  32.985  10.355   3.788
19878W        W79623  20.267  32.999  10.516
19879W        W79624  42.472  19.742   3.734
19880W        W79625   6.915  38.500   3.297
19881W        W79626  12.123  42.425  11.464
19882W        W79627  32.631  38.565  13.059
19883W        W79628  37.043  30.937  12.839
19884W        W79629  25.484  11.225   4.800
19885W        W79630  42.373  15.303  12.964
19886W        W79631  31.488  40.891  10.425
19887W        W79632  28.121   1.423  11.458
19888W        W79633  40.325  18.288   1.772
19889W        W79634  28.177  16.215  11.001
19890W        W79635   6.218  17.632  10.134
19891W        W79636   8.856   7.909  13.805
19892W        W79637  29.939  31.533  14.462
19893W        W79638  27.616   5.402   3.864
19894W        W79639  32.629  37.428   0.782
19895W        W79640   3.866  37.538   4.306
19896W        W79641  17.151  36.995   1.320
19897W        W79642  12.661   7.282   0.381
19898W        W79643  11.292   8.176   0.455
19899W        W79644  44.263  41.331   1.831
19900W        W79645  41.995  30.154  13.969
19901W        W79646  32.597  28.499   0.341
19902W        W79647   8.381  13.219  13.004
19903W        W79648   1.971  38.847   5.591
19904W        W79649  18.246  21.591  13.521
19905W        W79650  16.622  43.962   3.320
19906W        W79651   0.802   4.702  13.009
19907W        W79652  31.456  26.124   3.347
19908W        W79653  37.375  31.035  14.941
19909W        W79654   0.275  22.135   4.677
19910W        W79655  15.694  15.193  11.061
19911W        W79656  10.661  38.476   0.389
19912W        W79657  33.946  41.901   1.434
19913W        W79658  39.833  29.481  14.474
19914W        W79659  34.385   4.881   1.307
19915W        W79660  34.929  36.944   3.701
19916W        W79661   5.219  41.528  10.524
19917W        W79662   2.331   8.396  11.996
19918W        W79663  22.130  38.953   4.308
19919W        W79664  14.706  30.908  14.966
19920W        W79665  19.641  28.545   4.209
19921W        W79666   8.235  38.438   4.694
19922W        W79667  11.202  12.138   2.178
19923W        W79668  39.506  34.504   4.178
19924W        W79669  22.640   0.410  13.019
19925W        W79670   1.763  12.794  13.010
19926W        W79671  33.531   5.363   1.393
19927W        W79672  18.544   5.316  11.504
19928W        W79673  26.517  13.775  11.373
19929W        W79674   6.230   1.860  13.861
19930W        W79675  27.686  43.793   4.671
19931W        W79676  35.533  19.551  10.060
19932W        W79677  44.858  36.881  13.352
19933W        W79678  20.563  39.940  10.638
19934W        W79679  43.977   3.804   3.713
19935W        W79680  42.025  24.510  12.564
19936W        W79681  16.105   5.393  11.858
19937W        W79682  21.208  39.904   1.253
19938W        W79683  10.167   0.321   4.338
19939W        W79684  29.534  14.795   4.122
19940W        W79685   7.180  42.015   1.829
19941W        W79686  17.695  25.051   2.272
19942W        W79687   4.698  31.582   4.690
19943W        W79688   4.853  24.028  11.416
19944W        W79689   0.421  20.737  11.862
19945W        W79690  27.088   0.784  11.969
19946W        W79691  23.578  31.621   4.353
19947W        W79692  34.614  31.476  11.871
19948W        W79693  12.130  23.193   2.242
19949W        W79694   6.360   5.292  13.863
19950W        W79695  31.133   1.806  13.054
19951W        W79696  29.113  23.116   3.690
19952W        W79697  21.146  35.047  10.420
19953W        W79698  11.346  28.152  13.803
19954W        W79699   1.427  41.356  13.881
19955W        W79700  21.553  38.984  11.905
19956W        W79701  36.083  16.092  13.800
19957W        W79702   7.676   1.832   4.678
19958W        W79703   2.819  25.157   2.351
19959W        W79704  13.110   7.756   1.241
19960W        W79705   8.771  30.997   0.257
19961W        W79706  31.451   7.282  12.385
19962W        W79707  40.863   3.308   2.814
19963W        W79708  20.645  36.094  14.001
19964W        W79709   5.785  42.335   1.278
19965W        W79710  14.732  27.955  12.831
19966W        W79711   7.726  28.179   3.642
19967W        W79712  16.765   8.320   1.395
19968W        W79713  40.972  22.035  14.310
19969W        W79714  41.994  42.807   1.344
19970W        W79715  42.353   2.763  12.048
19971W        W79716  15.296  33.063  13.458
19972W        W79717  11.364   8.303   3.633
19973W        W79718   0.392  22.671   0.851
19974W        W79719  21.643  38.985   2.270
19975W        W79720  40.515  32.604   0.297
19976W        W79721  12.203  20.080  10.988
19977W        W79722  19.079  13.699   3.246
19978W        W79723   3.376   6.692   3.173
19979W        W79724   8.851  38.420   1.837
19980W        W79725  30.101   2.956  11.010
19981W        W79726  22.602  28.515  13.956
19982W        W79727   8.822  27.001  14.771
19983W        W79728   4.380  14.653  13.055
19984W        W79729  21.117  32.913  11.983
19985W        W79730  22.179  21.082   1.372
19986W        W79731  16.167   0.395  12.537
19987W        W79732  18.775  20.731  14.344
19988W        W79733  34.093  23.718   0.762
19989W        W79734  15.104  26.016   2.811
19990W        W79735  21.240  16.700  13.874
19991W        W79736   0.762  37.448   4.150
19992W        W79737  38.401  16.658   2.715
19993W        W79738  14.642  43.826   2.852
19994W        W79739   8.663   5.411   3.362
19995W        W79740  42.327  38.905  10.930
19996W        W79741  18.068  19.653   4.302
19997W        W79742  43.002   7.898  13.044
19998W        W79743  32.397  30.160  12.443
19999W        W79744  35.461  20.048  12.052
20000W        W79745   1.761  14.162  12.404
20001W        W79746   4.777  36.090  14.459
20002W        W79747  39.395   7.714  13.995
20003W        W79748  24.494  37.858   0.903
20004W        W79749  21.523  26.095   4.648
20005W        W79750  15.633  41.385   2.344
20006W        W79751  41.417  42.520   0.481
20007W        W79752   3.710  20.147  11.086
20008W        W79753  10.693  25.033   5.093
20009W        W79754  28.540  22.631  13.497
20010W        W79755  39.536  30.150   1.328
20011W        W79756   9.822   9.375   0.401
20012W        W79757  34.514  32.124   0.867
20013W        W79758  34.943  26.457  14.947
20014W        W79759  31.600   4.746   2.389
20015W        W79760   8.200  37.066  11.111
20016W        W79761  20.696  42.480  12.462
20017W        W79762  40.529  36.396  14.806
20018W        W79763  33.914  31.056  14.777
20019W        W79764  33.985  18.225  12.962
20020W        W79765   1.289  18.614  13.890
20021W        W79766  17.286  33.434   5.156
20022W        W79767  10.741  36.054   4.148
20023W        W79768   6.707  44.442   2.291
20024W        W79769  20.188   5.820   1.721
20025W        W79770  33.596  21.608   5.259
20026W        W79771  10.324  27.546   3.162
20027W        W79772  27.059  36.848  13.024
20028W        W79773  24.598  23.663   1.713
20029W        W79774  26.487  19.659   3.690
20030W        W79775  12.820  21.214  13.858
20031W        W79776  22.169   7.327   0.906
20032W        W79777  43.821  31.457   0.322
20033W        W79778  33.429  42.411  11.899
20034W        W79779  20.653  21.573   4.717
20035W        W79780  38.070  24.052   3.314
20036W        W79781  41.504   0.806  10.586
20037W        W79782  11.674  32.612  14.967
20038W        W79783  29.457  16.806   3.777
20039W        W79784  10.288  19.733   9.983
20040W        W79785  17.305  20.258   1.794
20041W        W79786  40.925  19.151   1.853
20042W        W79787  28.077  21.731  12.986
20043W        W79788  41.028  39.970  11.957
20044W        W79789  26.104  38.417  12.028
20045W        W79790  42.897  42.786   2.385
20046W        W79791  14.830  39.889   4.781
20047W        W79792  24.692  35.109  10.160
20048W        W79793  39.871  31.994   0.852
20049W        W79794  34.082  26.542   0.764
20050W        W79795  23.988  22.733  12.000
20051W        W79796  38.397   8.868  14.830
20052W        W79797  43.904  32.499  14.425
20053W        W79798  28.516  22.025   2.419
20054W        W79799  15.792  18.614  14.284
20055W        W79800  37.925  36.053  14.286
20056W        W79801   8.666  12.732   2.241
20057W        W79802  26.204  26.076   4.669
20058W        W79803  16.261  28.977   4.186
20059W        W79804  25.036  37.496   3.182
20060W        W79805  21.142  17.592  13.469
20061W        W79806  29.454  24.201  11.478
20062W        W79807  13.153  14.756   1.873
20063W        W79808  39.896  19.720  11.081
20064W        W79809   1.811  18.264   0.417
20065W        W79810   6.198  23.221   3.670
20066W        W79811   9.387  19.217   0.319
20067W        W79812  42.920   8.817  10.555
20068W        W79813  33.397   1.899  14.857
20069W        W79814  31.473  30.086  14.462
20070W        W79815  14.131  37.074  12.030
20071W        W79816  16.584   7.210   4.789
20072W        W79817  38.423   6.787   4.610
20073W        W79818   0.487  18.054  11.502
20074W        W79819   8.664   9.196  10.611
20075W        W79820  23.573  44.785  12.032
20076W        W79821  43.507   2.277   2.841
20077W        W79822  20.120   5.203  14.832
20078W        W79823  44.956  26.486   4.147
20079W        W79824  11.836  36.512  14.450
20080W        W79825  25.547  20.536   2.741
20081W        W79826   7.257  15.283   0.814
20082W        W79827  14.704  44.356  13.985
20083W        W79828  43.970  40.373  12.959
20084W        W79829  29.562  35.101  14.395
20085W        W79830  13.740   2.342  14.909
20086W        W79831  24.592  15.616  13.853
20087W        W79832  14.252   0.341   4.207
20088W        W79833  40.464  36.001  10.927
20089W        W79834  21.190  35.912   1.781
20090W        W79835   3.305  16.091   3.333
20091W        W79836  25.132  34.392   2.867
20092W        W79837  14.279  27.051  11.994
20093W        W79838  18.078  35.884   0.740
20094W        W79839  38.821  26.611  12.528
20095W        W79840  41.833  42.395   3.771
20096W        W79841  12.346  18.289  14.940
20097W        W79842  32.119  39.421   2.320
20098W        W79843  27.587  43.477   0.802
20099W        W79844  36.466  12.802   4.736
20100W        W79845  41.337  13.797   0.964
20101W        W79846  41.429  42.380  12.853
20102W        W79847  29.110  31.640   0.320
20103W        W79848  34.011   9.764  11.941
20104W        W79849  14.716  38.883   3.831
20105W        W79850  37.354  41.409  14.375
20106W        W79851  36.431  16.697  10.923
20107W        W79852  39.842   6.211  11.106
20108W        W79853  21.211  11.324  12.063
20109W        W79854   6.862  31.584   3.186
20110W        W79855  39.949  34.087   4.171
20111W        W79856  21.609  34.006   4.689
20112W        W79857  38.371   6.211  11.981
20113W        W79858  15.653   9.798   3.290
20114W        W79859  17.077  38.998  11.010
20115W        W79860  13.660   2.964   3.281
20116W        W79861  17.564   1.351   0.864
20117W        W79862  22.629  20.158  14.328
20118W        W79863  19.108  44.948  13.427
20119W        W79864  32.637  31.071  13.434
20120W        W79865  24.683   6.321   1.767
20121W        W79866  24.587  31.150   1.377
20122W        W79867  20.158  17.762  11.389
20123W        W79868  11.153  21.114  12.869
20124W        W79869   7.399   8.771  11.414
20125W        W79870  37.340  13.748   0.469
20126W        W79871  28.948  44.376   1.739
20127W        W79872  27.180  34.526  12.052
20128W        W79873  10.778  34.384   4.791
20129W        W79874  37.387  36.516  14.459
20130W        W79875  26.043   6.217  11.539
20131W        W79876  36.885  17.208   2.391
20132W        W79877  42.945  19.280   1.293
20133W        W79878  19.633  22.701  11.525
20134W        W79879   9.860  32.583   2.863
20135W        W79880   3.909  17.153   4.782
20136W        W79881  16.723  13.820   0.336
20137W        W79882   2.256  35.899   4.824
20138W        W79883   3.885  38.348   4.735
20139W        W79884  16.684  24.096   4.279
20140W        W79885   5.437   7.896   4.296
20141W        W79886   8.762  13.140   1.300
20142W        W79887  17.623  32.045  12.401
20143W        W79888  44.889  10.870   2.869
20144W        W79889  36.898  38.958   4.116
20145W        W79890   0.765  35.445  10.962
20146W        W79891  17.214   7.856   0.730
20147W        W79892  13.730   1.930   2.375
20148W        W79893  37.425  44.429   0.859
20149W        W79894  31.482   4.367   2.770
20150W        W79895  16.770  18.272  13.943
20151W        W79896   6.840  25.104   4.602
20152W        W79897  18.743  16.634  10.410
20153W        W79898  20.612  35.084   2.783
20154W        W79899  35.951  12.724  10.570
20155W        W79900  41.994  31.991   2.371
20156W        W79901  41.347   9.308  13.056
20157W        W79902  17.661  31.932  13.521
20158W        W79903  22.703  19.072  13.376
20159W        W79904  26.645  35.881  12.523
20160W        W79905  10.819   5.407  11.983
20161W        W79906  23.726  24.513  11.939
20162W        W79907   6.341  10.231  12.961
20163W        W79908   0.449   0.323  13.009
20164W        W79909  14.288   2.463  10.427
20165W        W79910  29.116  38.394  10.990
20166W        W79911  24.146   6.769  10.434
20167W        W79912   8.280   6.271  11.027
20168W        W79913  23.660  12.670   5.139
20169W        W79914  32.007  30.045   1.274
20170W        W79915  25.575   1.374  10.031
20171W        W79916  10.194   1.836  14.326
20172W        W79917  29.585  17.233  11.093
20173W        W79918   0.824  22.728  14.474
20174W        W79919  10.636  14.175  14.370
20175W        W79920   1.377  36.879  14.825
20176W        W79921  33.519  34.520   1.385
20177W        W79922  34.487  33.440   4.611
20178W        W79923  32.493  11.786   0.746
20179W        W79924  25.576  18.737  12.887
20180W        W79925   2.732   0.860   1.763
20181W        W79926  35.025  26.658  10.138
20182W        W79927  36.060  18.575   0.941
20183W        W79928  16.611  23.494   1.806
20184W        W79929   8.364  25.693   4.836
20185W        W79930   2.269   9.393  11.107
20186W        W79931   1.900  34.507   4.826
20187W        W79932  30.976  33.076   2.771
20188W        W79933  10.296  27.065  12.567
20189W        W79934  20.667  24.152  12.051
20190W        W79935  18.699  39.365  12.894
20191W        W79936  20.063  21.102   0.746
20192W        W79937  27.637  26.611   4.678
20193W        W79938   1.455  32.406   1.925
20194W        W79939  36.873  43.431   3.718
20195W        W79940   6.829  15.597  14.841
20196W        W79941  27.690  35.522   1.851
20197W        W79942  25.563  16.624  10.601
20198W        W79943  34.502  34.469  13.318
20199W        W79944  44.843  44.266  11.980
20200W        W79945   4.785  31.942   4.718
20201W        W79946  21.194  30.654   4.284
20202W        W79947  16.717  31.408   2.343
20203W        W79948  17.676  21.089  13.801
20204W        W79949   4.943  32.559   0.819
20205W        W79950  37.066  40.865   4.835
20206W        W79951  31.924  39.444  10.438
20207W        W79952  32.580  21.644   3.731
20208W        W79953  20.712  35.974  10.924
20209W        W79954  17.608  18.583  10.973
20210W        W79955  12.348  28.470   2.236
20211W        W79956  29.127   3.769   4.683
20212W        W79957  42.898   1.306  10.914
20213W        W79958  25.650  30.144  14.308
20214W        W79959  34.042   5.709   5.220
20215W        W79960  30.544   0.288   3.724
20216W        W79961  23.621  27.975   0.392
20217W        W79962  14.182  44.924   0.295
20218W        W79963  42.967  42.823   1.736
20219W        W79964  43.945  23.171   1.323
20220W        W79965   6.841   2.860   3.186
20221W        W79966   8.264  33.447   4.222
20222W        W79967   4.840  11.863   2.874
20223W        W79968  10.665   7.292   4.693
20224W        W79969  41.011   7.851  13.522
20225W        W79970  33.034  40.004   0.735
20226W        W79971  35.529  43.782   3.334
20227W        W79972   4.924  41.017   4.823
20228W        W79973  29.151  28.588   3.207
20229W        W79974  33.522  29.147  14.290
20230W        W79975   0.373  20.747   1.245
20231W        W79976   4.324   1.963   1.390
20232W        W79977   8.776  39.445   0.482
20233W        W79978  20.066  19.582  11.438
20234W        W79979  31.441  42.923   3.368
20235W        W79980  33.101  20.208  11.546
20236W        W79981  14.789  29.572  14.358
20237W        W79982  19.610  18.162   4.197
20238W        W79983  40.329  37.478   2.792
20239W        W79984  29.083  22.009  13.394
20240W        W79985  20.693  10.860   3.359
20241W        W79986  13.188  16.662  10.407
20242W        W79987  10.179  38.020   1.402
20243W        W79988  29.580  16.693  12.913
20244W        W79989   9.878  37.964   4.791
20245W        W79990  28.511  15.187   0.270
20246W        W79991  29.507   0.458   1.730
20247W        W79992  41.031  40.367   3.247
20248W        W79993  44.872   9.870  13.908
20249W        W79994  42.432  37.041  12.365
20250W        W79995   9.162  38.365  12.952
20251W        W79996  31.460  11.686   4.718
20252W        W79997  36.391  19.177  11.955
20253W        W79998  21.644  40.423   3.365
20254W        W79999  24.185  17.244  10.578
20255W        W80000  14.272  34.476   4.641
20256W        W80001  34.580  35.390  12.373
20257W        W80002  43.013  43.798  12.829
20258W        W80003  31.060  38.884   4.599
20259W        W80004  10.659  25.066  10.627
20260W        W80005  24.113  25.019   1.742
20261W        W80006  34.527  35.888  14.012
20262W        W80007  39.485  19.146   4.652
20263W        W80008  36.900  26.008  13.467
20264W        W80009  29.472  10.181  11.922
20265W        W80010  39.397  10.188   2.854
20266W        W80011  28.985  25.586  13.510
20267W        W80012  42.823  38.363   4.600
20268W        W80013  36.027   4.211   4.699
20269W        W80014   7.198  24.168  14.474
20270W        W80015  19.575  17.183   3.661
20271W        W80016  26.685  25.576  13.403
20272W        W80017  40.319  18.756  13.372
20273W        W80018  34.919  24.199   4.221
20274W        W80019  36.973  17.664  11.604
20275W        W80020   6.382  20.130   0.273
20276W        W80021  26.139   6.344  10.473
20277W        W80022   1.775  43.876   1.399
20278W        W80023  15.289   7.765  11.938
20279W        W80024  12.160  11.252  14.503
20280W        W80025  29.651  30.449  10.486
20281W        W80026  31.130  12.676  14.836
20282W        W80027  21.515  35.904   1.739
20283W        W80028   3.423  17.228   0.429
20284W        W80029   2.862  25.056  12.538
20285W        W80030   3.344  29.540  13.034
20286W        W80031  30.478  30.446   2.678
20287W        W80032  15.288  20.036  12.949
20288W        W80033  12.826   6.805   3.743
20289W        W80034  16.116  14.187  14.953
20290W        W80035  40.877  30.160  13.011
20291W        W80036  40.417  25.551   4.615
20292W        W80037  36.008   7.323   1.227
20293W        W80038  23.014  35.877   1.898
20294W        W80039   7.773  17.241   3.319
20295W        W80040  23.490  35.882  11.606
20296W        W80041  38.885   3.757  14.319
20297W        W80042  29.548  44.890  14.490
20298W        W80043   5.208  41.467   3.351
20299W        W80044  24.100  42.914  14.367
20300W        W80045  23.065  33.061  12.351
20301W        W80046  24.666  22.156  14.344
20302W        W80047   6.707   8.208  12.842
20303W        W80048  40.045  14.834   3.689
20304W        W80049   7.306  22.041  14.278
20305W        W80050  28.652  11.254  14.292
20306W        W80051  38.939  10.346   3.289
20307W        W80052  37.998  33.074   1.216
20308W        W80053  32.953  41.895  12.984
20309W        W80054  24.025  24.607   3.693
20310W        W80055  20.228  36.846  10.481
20311W        W80056  21.173  43.768   1.255
20312W        W80057   3.743  27.106  12.894
20313W        W80058  18.715  16.753  14.382
20314W        W80059  42.020  19.285   4.287
20315W        W80060   5.291  32.533   1.359
20316W        W80061  38.860  16.567   0.475
20317W        W80062  25.551  21.251  13.799
20318W        W80063  18.228  26.598   1.253
20319W        W80064  25.043  29.487   3.772
20320W        W80065   5.834  16.714  14.492
20321W        W80066  10.684  38.430   4.200
20322W        W80067  25.524  29.598   0.888
20323W        W80068  44.268  22.017   0.366
20324W        W80069  38.017  39.065   3.381
20325W        W80070  25.193  42.796   0.337
20326W        W80071  12.177  27.022   0.244
20327W        W80072  33.934  10.359  14.800
20328W        W80073  27.544  27.164  14.488
20329W        W80074  33.388   0.926  11.119
20330W        W80075   4.432  28.966  10.406
20331W        W80076  28.646  44.985  11.427
20332W        W80077  10.811   5.896  14.024
20333W        W80078  10.761  19.128  14.811
20334W        W80079  40.007   6.267   0.440
20335W        W80080  31.153   9.187  13.947
20336W        W80081  22.722   0.830  12.090
20337W        W80082  36.419  24.058   4.179
20338W        W80083  28.963  10.181   0.906
20339W        W80084  11.370  33.909   2.680
20340W        W80085  31.033  18.770  10.559
20341W        W80086  23.652  16.182   4.276
20342W        W80087  32.426  26.547   0.278
20343W        W80088  10.215  19.746  11.930
20344W        W80089   8.202  32.576  11.612
20345W        W80090   0.884  24.498   4.617
20346W        W80091  12.177  18.154   2.267
20347W        W80092  33.952  18.564   0.257
20348W        W80093  33.580   5.729   2.747
20349W        W80094  18.186  27.670   4.208
20350W        W80095  38.516   4.409  13.016
20351W        W80096  40.497  12.632  11.910
20352W        W80097  37.581  35.965  14.420
20353W        W80098  21.044   9.392  10.917
20354W        W80099  29.483  13.676  12.354
20355W        W80100  24.182  14.181  14.375
20356W        W80101  35.969  19.572  10.541
20357W        W80102  29.992  38.060   3.756
20358W        W80103  37.538  13.198   2.387
20359W        W80104  29.556   0.337  12.404
20360W        W80105  35.360  12.665  11.932
20361W        W80106   0.330  22.588   1.783
20362W        W80107   4.344  36.512   3.861
20363W        W80108  12.237   2.820  11.079
20364W        W80109  22.599   7.897  14.967
20365W        W80110  44.002  25.999  14.344
20366W        W80111  16.283  43.993  14.281
20367W        W80112   1.402  32.429  12.455
20368W        W80113  38.391  23.564   2.245
20369W        W80114  12.209  11.783  13.856
20370W        W80115  27.475  29.612   3.334
20371W        W80116  29.663  40.403  13.027
20372W        W80117   7.880  29.940   3.384
20373W        W80118  23.654  11.792  12.498
20374W        W80119  25.678   9.708   0.901
20375W        W80120  10.277  41.835  12.463
20376W        W80121  10.329  36.405  13.830
20377W        W80122   2.850  32.038   3.266
20378W        W80123   5.821  16.230   0.358
20379W        W80124   3.821  32.004  11.498
20380W        W80125  42.793  40.355   1.358
20381W        W80126  11.851   8.671   2.668
20382W        W80127  24.122  21.586  12.341
20383W        W80128  41.955  21.662   2.895
20384W        W80129  18.185   7.723   1.795
20385W        W80130  43.783  30.995  13.834
20386W        W80131   2.759  19.629   1.438
20387W        W80132  10.779  28.930  13.001
20388W        W80133   3.228  28.535   4.714
20389W        W80134  40.861  39.825   1.221
20390W        W80135  33.556  31.519   2.681
20391W        W80136  24.681  26.156   4.764
20392W        W80137   5.270  23.544   1.821
20393W        W80138  43.475  28.959   0.865
20394W        W80139   4.417  40.511  11.860
20395W        W80140   5.217  40.978   4.332
20396W        W80141  43.422  32.069  12.444
20397W        W80142  42.332  28.974   4.669
20398W        W80143  29.944  15.142   3.276
20399W        W80144  38.497  24.673   1.374
20400W        W80145  40.508  30.007   3.328
20401W        W80146  15.813  35.477   2.302
20402W        W80147  25.120  18.062  12.850
20403W        W80148   8.270  29.425   4.315
20404W        W80149   6.753  37.856  14.374
20405W        W80150   5.757   5.732   2.333
20406W        W80151   8.876  33.931  11.587
20407W        W80152   4.261  27.028  11.462
20408W        W80153  18.753  15.702   3.650
20409W        W80154  25.650  41.300   1.901
20410W        W80155  35.071  32.517   1.387
20411W        W80156  18.108   4.244   2.719
20412W        W80157   8.789  18.589  13.035
20413W        W80158  44.941  25.113   1.378
20414W        W80159   5.872  31.453  14.815
20415W        W80160  39.945  21.045  10.995
20416W        W80161  38.363   2.945  13.355
20417W        W80162  22.707   6.299   4.810
20418W        W80163  33.501  39.969   0.741
20419W        W80164  29.473   5.348  13.401
20420W        W80165   9.198  18.227   4.126
20421W        W80166  18.187  26.046  11.059
20422W        W80167   5.852   5.877  13.942
20423W        W80168  35.943  26.551  14.928
20424W        W80169  42.340   4.364  10.898
20425W        W80170   5.423  16.291   4.635
20426W        W80171   1.398  20.611  13.844
20427W        W80172  39.929  39.559  11.427
20428W        W80173  26.012  30.995   1.441
20429W        W80174  39.981  24.141  11.114
20430W        W80175  40.364   2.289   3.238
20431W        W80176  38.043  12.842   4.655
20432W        W80177  21.665   1.318   4.710
20433W        W80178  35.083  44.886  10.971
20434W        W80179  13.670  38.923  11.522
20435W        W80180  14.258  29.036  13.311
20436W        W80181  27.584   5.396   4.681
20437W        W80182  21.595  33.040   3.631
20438W        W80183  30.147  33.603  10.501
20439W        W80184  28.566  43.302   1.871
20440W        W80185  12.706  34.570  14.968
20441W        W80186  30.542   1.767   2.286
20442W        W80187   3.833  22.668   1.810
20443W        W80188  25.694  44.422  12.841
20444W        W80189   4.395  44.269  13.985
20445W        W80190   5.796  25.710   1.390
20446W        W80191  28.071  29.019  12.938
20447W        W80192  21.098  32.053   4.185
20448W        W80193  24.669  25.701   3.252
20449W        W80194  24.624  27.098  11.580
20450W        W80195  12.703  10.840   2.712
20451W        W80196   2.762  12.824  13.979
20452W        W80197   6.753   3.393   4.730
20453W        W80198  13.300   6.306  14.285
20454W        W80199   9.275  37.354  12.901
20455W        W80200  23.035  17.094   2.366
20456W        W80201  26.554  32.469  13.520
20457W        W80202  22.074  44.871   1.442
20458W        W80203  27.197  17.635   0.828
20459W        W80204  29.621  36.420   0.794
20460W        W80205  35.090  37.419  12.428
20461W        W80206  26.981  42.288   1.284
20462W        W80207  11.296  43.327   2.703
20463W        W80208   3.756  34.610  10.463
20464W        W80209  29.170  12.353   0.447
20465W        W80210  20.726  38.461   0.908
20466W        W80211  25.592   5.231   4.797
20467W        W80212  32.047   3.370   1.382
20468W        W80213  44.869   2.404   2.220
20469W        W80214  42.988  12.173  12.380
20470W        W80215  35.543   5.852   0.472
20471W        W80216  17.779  28.512   3.708
20472W        W80217   8.236  35.372   0.460
20473W        W80218  37.862  23.667   3.254
20474W        W80219  23.521  15.277   1.916
20475W        W80220   6.756  40.855   4.631
20476W        W80221  16.287  30.953   2.789
20477W        W80222  15.677  16.206  12.460
20478W        W80223  22.212   4.809  13.957
20479W        W80224  19.220  37.503   1.336
20480W        W80225  28.644  36.057   5.246
20481W        W80226  20.584   9.255   0.848
20482W        W80227  36.475  14.179   4.651
20483W        W80228  38.332   1.248   1.288
20484W        W80229  15.306  37.481   0.339
20485W        W80230  27.635  24.651   0.932
20486W        W80231  40.465  36.020   3.680
20487W        W80232  34.512  25.968  11.081
20488W        W80233  31.571  16.574   2.399
20489W        W80234  22.626  21.220   0.298
20490W        W80235  19.131  22.617   4.813
20491W        W80236   9.761  22.179   3.709
20492W        W80237   6.280  33.590  13.032
20493W        W80238   9.695  19.106  13.870
20494W        W80239  36.873  23.087   0.437
20495W        W80240  10.336  13.660   0.362
20496W        W80241  37.078  33.414   2.356
20497W        W80242  12.123   2.869   2.704
20498W        W80243  10.748  30.950   4.232
20499W        W80244   6.791   5.238  10.461
20500W        W80245   7.353  38.420  14.332
20501W        W80246  33.980   2.809   0.465
20502W        W80247  43.993  41.882  14.008
20503W        W80248   8.678  10.734   2.351
20504W        W80249  37.979  42.491   1.820
20505W        W80250  31.069  28.522  11.375
20506W        W80251  37.475  37.499   4.318
20507W        W80252  17.250   6.207  10.439
20508W        W80253  26.688  34.036   2.351
20509W        W80254  34.608  44.829  12.366
20510W        W80255  28.436  15.788  13.024
20511W        W80256  29.991  15.306  13.364
20512W        W80257  20.576  34.396  14.898
20513W        W80258  17.244  41.955   4.809
20514W        W80259  41.915  43.870   1.418
20515W        W80260  10.764  28.495   0.748
20516W        W80261  40.905   6.870  12.501
20517W        W80262  13.678  11.288  12.063
20518W        W80263  22.737  33.086   3.212
20519W        W80264  41.012  35.087   0.948
20520W        W80265  44.925  15.176  11.056
20521W        W80266  18.720   0.905   0.375
20522W        W80267   7.807  43.895  13.966
20523W        W80268  38.049  21.247  10.430
20524W        W80269  37.389  19.552   0.367
20525W        W80270  42.864  28.016  12.023
20526W        W80271  13.339  43.770   4.639
20527W        W80272  11.179  41.416   3.858
20528W        W80273   6.682  38.946  11.038
20529W        W80274  38.529   0.877   4.723
20530W        W80275  11.261  26.112   0.861
20531W        W80276  31.615   3.354   5.804
20532W        W80277  23.113   0.286  12.846
20533W        W80278  16.314   9.267  11.520
20534W        W80279   4.817  19.589  12.541
20535W        W80280  36.537  28.125  11.544
20536W        W80281  27.968  33.405   1.841
20537W        W80282   0.334  32.506  14.291
20538W        W80283  31.497   9.151  10.513
20539W        W80284  32.482  26.963   3.835
20540W        W80285  16.118  33.498  10.464
20541W        W80286   5.838  28.121  11.428
20542W        W80287  42.910  21.576   0.358
20543W        W80288  44.831  23.215  13.331
20544W        W80289   9.389   9.874  11.455
20545W        W80290  20.733  24.133   0.797
20546W        W80291  10.833  12.120   1.790
20547W        W80292  26.065  12.327   3.697
20548W        W80293  13.775  13.719  12.947
20549W        W80294  41.912   8.755   4.212
20550W        W80295  43.468  37.015  10.519
20551W        W80296  20.149  24.983  10.517
20552W        W80297  29.615  11.311  14.982
20553W        W80298   6.806  38.946   0.855
20554W        W80299  31.475   9.731   4.129
20555W        W80300  32.569   9.663  13.431
20556W        W80301   4.857  42.888   0.310
20557W        W80302  35.867  35.097   0.468
20558W        W80303  28.103  31.428   1.332
20559W        W80304  29.661   9.755   0.813
20560W        W80305   4.757  35.068   3.274
20561W        W80306  33.957   8.367  11.457
20562W        W80307   0.437  38.523   2.200
20563W        W80308   7.685  31.528  13.443
20564W        W80309   3.824  19.253  12.990
20565W        W80310  17.664  34.032   3.172
20566W        W80311   0.962  14.829  13.510
20567W        W80312  40.047  37.522   3.853
20568W        W80313  41.874  26.967  13.465
20569W        W80314  13.325  21.208  13.384
20570W        W80315  41.930  33.604   3.255
20571W        W80316  30.954  36.404  11.411
20572W        W80317  23.048   2.756  12.400
20573W        W80318  15.296  39.939  11.570
20574W        W80319  23.227  14.217  12.007
20575W        W80320  12.209  28.522   2.720
20576W        W80321  36.981   0.754   2.198
20577W        W80322  33.578  14.296  12.530
20578W        W80323  39.546   5.752   3.213
20579W        W80324  26.108  42.418  11.452
20580W        W80325  11.314  21.024   1.906
20581W        W80326  11.802  14.712   1.828
20582W        W80327  18.265  31.945   3.341
20583W        W80328  32.892  19.667  11.938
20584W        W80329  34.941  39.012  10.441
20585W        W80330  17.605  12.696   1.339
20586W        W80331  10.314  33.089  13.029
20587W        W80332  31.444   8.264   3.669
20588W        W80333  41.988   5.844   4.210
20589W        W80334  42.438  43.282  13.995
20590W        W80335  15.146  25.196  10.408
20591W        W80336  23.491   9.671  10.411
20592W        W80337  36.423  22.618   2.685
20593W        W80338  11.255   7.675  14.836
20594W        W80339  43.918  25.471  10.527
20595W        W80340  23.101   6.839  14.382
20596W        W80341  29.126  15.155   4.783
20597W        W80342   8.731  37.868  12.864
20598W        W80343  43.280  30.101  14.971
20599W        W80344   4.432  38.053   3.243
20600W        W80345  19.213  33.915   3.665
20601W        W80346   6.844  31.956  14.895
20602W        W80347  19.628  10.703  14.348
20603W        W80348  17.125  19.606  12.867
20604W        W80349  16.613  21.157  12.085
20605W        W80350  21.221  44.355  14.962
20606W        W80351  30.025  12.290   0.378
20607W        W80352  21.627  18.658   3.702
20608W        W80353  20.639  14.281  12.900
20609W        W80354  37.939  16.638  11.878
20610W        W80355  25.091  23.545   4.120
20611W        W80356  40.364  29.632   0.899
20612W        W80357  12.728  12.634   4.622
20613W        W80358   5.314  31.509   4.836
20614W        W80359   5.872   5.216   2.394
20615W        W80360   8.168  10.379   2.774
20616W        W80361  38.867  22.670  11.078
20617W        W80362  10.158  43.901   4.239
20618W        W80363   9.184  15.093  11.124
20619W        W80364   7.413  25.487   4.822
20620W        W80365  32.540  18.061  10.410
20621W        W80366  21.029  18.148   0.455
20622W        W80367  34.580  15.112  10.549
20623W        W80368  41.844  17.178  14.494
20624W        W80369   6.423  33.590   1.212
20625W        W80370  40.468  32.951  14.346
20626W        W80371   9.383   6.251  10.056
20627W        W80372  40.949  17.565   4.143
20628W        W80373  28.487  22.169   1.764
20629W        W80374  41.408  31.923   1.921
20630W        W80375  24.684   9.346  13.548
20631W        W80376  34.045  32.118  12.907
20632W        W80377  15.240  43.290   4.347
20633W        W80378  10.359  39.049  10.435
20634W        W80379   7.383  28.609   0.780
20635W        W80380  15.190  16.739   2.282
20636W        W80381  40.393  21.083   0.282
20637W        W80382   8.299  30.016  12.004
20638W        W80383  37.406   6.305  11.580
20639W        W80384   9.182  16.085  14.951
20640W        W80385  20.202  21.124  12.906
20641W        W80386  39.039  21.037  10.099
20642W        W80387  28.996  42.857  12.983
20643W        W80388  18.183   0.318  14.334
20644W        W80389  37.548  13.167   2.689
20645W        W80390   6.710  36.968   3.730
20646W        W80391   6.695  32.952  11.381
20647W        W80392  36.585  16.312  14.308
20648W        W80393  39.015  29.576  13.325
20649W        W80394   0.908  36.857  13.792
20650W        W80395  29.052  31.607  10.938
20651W        W80396  22.629  44.332   4.262
20652W        W80397   8.755  19.759  11.508
20653W        W80398  20.727  33.553  14.770
20654W        W80399  26.498   1.256  14.897
20655W        W80400   1.828  17.697   0.851
20656W        W80401  12.690  19.651  14.511
20657W        W80402  37.064   4.214   0.461
20658W        W80403  17.184   5.773  11.400
20659W        W80404   9.650   2.429   2.281
20660W        W80405  35.002  33.489  11.610
20661W        W80406  26.090  35.384   2.808
20662W        W80407   5.359  44.818   4.778
20663W        W80408   7.247   8.192  10.406
20664W        W80409   5.878  43.351   3.327
20665W        W80410  33.438  31.147  11.504
20666W        W80411  39.978  41.991   1.848
20667W        W80412  14.595  41.841  13.344
20668W        W80413  41.967  26.568   0.287
20669W        W80414   7.906  12.832   1.380
20670W        W80415   4.841  11.261  12.918
20671W        W80416   1.891  27.967  13.388
20672W        W80417  26.597  24.618   4.344
20673W        W80418  13.655  12.285  12.891
20674W        W80419  15.824  28.053  10.442
20675W        W80420  18.147  42.380  12.430
20676W        W80421  17.162  26.675  13.819
20677W        W80422  41.369  23.674  11.423
20678W        W80423  34.415  11.266   4.293
20679W        W80424  19.164  44.948  14.853
20680W        W80425   9.762  43.435  12.033
20681W        W80426  17.726  18.707   3.705
20682W        W80427  36.871  24.133  12.988
20683W        W80428  43.918  35.534  14.408
20684W        W80429  44.456  28.473   1.905
20685W        W80430   4.751  39.465   4.698
20686W        W80431  24.055  26.613   3.149
20687W        W80432  21.714  20.265   2.858
20688W        W80433  28.111  18.089  11.092
20689W        W80434  11.703   2.721   4.268
20690W        W80435  42.922  44.328  14.503
20691W        W80436   0.844  21.569   3.797
20692W        W80437  36.958   4.415   1.280
20693W        W80438  26.597  40.549  14.762
20694W        W80439  44.943  12.801  12.931
20695W        W80440  37.460  24.187  14.001
20696W        W80441  37.421  11.672  12.361
20697W        W80442  17.696  38.898   1.236
20698W        W80443  16.085  20.223  12.530
20699W        W80444  19.677   1.251  12.852
20700W        W80445  43.934  38.486  13.441
20701W        W80446  21.570  26.991   1.889
20702W        W80447  34.967  37.526  14.782
20703W        W80448   2.425   0.421  13.980
20704W        W80449   4.216  38.540  11.461
20705W        W80450   7.359  33.078  11.913
20706W        W80451  14.112  14.310  10.898
20707W        W80452  32.009  31.030  12.403
20708W        W80453  11.741  15.111   3.742
20709W        W80454  41.469   8.817  14.882
20710W        W80455  30.107  11.732   0.743
20711W        W80456  17.144  26.984  14.919
20712W        W80457  27.062  13.796  14.372
20713W        W80458  20.172  14.693  14.940
20714W        W80459  39.338  42.389   3.729
20715W        W80460  36.592  20.196   0.436
20716W        W80461  19.172  22.206  12.379
20717W        W80462  25.047  37.577  11.404
20718W        W80463  13.222  20.713   0.786
20719W        W80464  33.501  41.334   3.190
20720W        W80465  19.144   8.732   1.850
20721W        W80466  43.436  44.355  10.117
20722W        W80467  20.183   5.434   4.194
20723W        W80468  26.044  23.509  10.604
20724W        W80469  34.872  37.579  11.548
20725W        W80470   6.699  19.130  11.089
20726W        W80471  25.677   8.812  10.448
20727W        W80472   8.231   1.807   1.307
20728W        W80473  43.864  31.945  11.054
20729W        W80474   4.279   8.200   4.602
20730W        W80475   9.156   1.355  13.862
20731W        W80476  23.721  32.032  13.473
20732W        W80477   0.885   0.284   4.815
20733W        W80478   6.837  11.855   1.895
20734W        W80479   6.268  28.042  10.018
20735W        W80480  22.512  36.403   4.292
20736W        W80481  14.308  23.500  14.777
20737W        W80482  31.037   6.817  11.878
20738W        W80483   2.298  33.054  10.551
20739W        W80484   5.420  20.749  14.871
20740W        W80485  37.558  26.956  12.425
20741W        W80486  42.362  28.619  14.417
20742W        W80487  10.360  43.326  13.469
20743W        W80488  42.495  23.539  13.872
20744W        W80489   1.418  32.512  13.003
20745W        W80490  16.237  44.469   4.127
20746W        W80491  30.540   2.378   2.240
20747W        W80492   2.918   6.875  14.395
20748W        W80493  42.503   1.244   0.826
20749W        W80494   0.392  41.364   0.254
20750W        W80495  38.530  44.753  12.567
20751W        W80496  11.216  39.924   2.669
20752W        W80497  35.008  43.509  11.883
20753W        W80498   7.728  30.109   4.144
20754W        W80499  22.581  27.656   1.721
20755W        W80500  26.110  27.028  13.964
20756W        W80501   0.277  40.825  10.575
20757W        W80502  26.588   8.395  11.044
20758W        W80503   4.213   7.879  11.102
20759W        W80504  13.238  37.455  14.346
20760W        W80505  13.670   8.788  13.948
20761W        W80506  10.258  19.595   4.748
20762W        W80507   6.368  32.527   4.636
20763W        W80508  17.203   0.275  11.532
20764W        W80509  38.359  32.619  13.884
20765W        W80510  31.582  20.562  13.544
20766W        W80511   9.338  19.645   3.656
20767W        W80512  17.622  34.372  11.478
20768W        W80513  34.581  31.973   2.664
20769W        W80514  23.648  31.923   0.928
20770W        W80515   0.892  43.466  13.901
20771W        W80516   3.251  10.384  11.103
20772W        W80517  29.445  14.218   9.933
20773W        W80518  10.177  34.575   1.746
20774W        W80519   2.950  34.507   3.796
20775W        W80520  15.191  31.563  10.622
20776W        W80521  40.346  37.058   3.754
20777W        W80522  21.040  20.659  13.888
20778W        W80523  43.812  27.625  12.411
20779W        W80524  43.871  15.228  12.912
20780W        W80525  28.050  44.781   1.381
20781W        W80526  11.759  16.215  13.339
20782W        W80527  36.430  42.967   2.782
20783W        W80528  12.652  39.838   4.177
20784W        W80529  40.363  10.739  11.036
20785W        W80530  13.707  34.067   4.666
20786W        W80531  22.588  40.799   0.304
20787W        W80532  41.977  43.288  14.343
20788W        W80533  12.854  44.831  12.919
20789W        W80534  17.681  23.222  10.529
20790W        W80535  33.492  34.577   2.711
20791W        W80536  36.883  29.603   2.402
20792W        W80537  29.533  30.929   4.790
20793W        W80538  14.802  19.779  14.460
20794W        W80539  27.517  34.499   0.919
20795W        W80540  15.097  40.484  12.432
20796W        W80541  36.074  29.521  13.984
20797W        W80542  43.440  15.101   3.689
20798W        W80543  29.601  17.261  10.573
20799W        W80544  14.243  15.772   3.763
20800W        W80545   3.877  22.106  10.633
20801W        W80546   6.828  17.066   0.425
20802W        W80547  28.666  37.847  13.896
20803W        W80548  12.220   7.214   3.857
20804W        W80549  33.916  41.303   1.909
20805W        W80550  14.168  34.942  14.850
20806W        W80551  22.036  29.497   1.695
20807W        W80552   9.752  24.711   0.870
20808W        W80553   3.263   9.844   4.301
20809W        W80554  16.124  15.088   0.919
20810W        W80555  19.620  33.051  13.856
20811W        W80556  22.584  20.739   1.211
20812W        W80557  44.336  21.719   5.260
20813W        W80558  27.492   3.884   9.984
20814W        W80559  36.905  33.100   1.306
20815W        W80560  38.935  43.822  12.538
20816W        W80561  15.776  27.185  10.461
20817W        W80562  34.588  32.119  11.485
20818W        W80563  11.373  12.794   1.299
20819W        W80564  37.021  34.389   2.305
20820W        W80565  23.122  27.001  11.971
20821W        W80566  32.015  17.792  14.877
20822W        W80567  22.189  34.560  14.282
20823W        W80568  32.506  39.984  12.410
20824W        W80569  39.967  39.405   4.703
20825W        W80570  38.894   1.406   4.711
20826W        W80571   4.842  23.691  10.076
20827W        W80572   2.926  35.545  12.507
20828W        W80573  42.390  38.385   1.722
20829W        W80574  42.359  30.154   0.335
20830W        W80575  10.248  24.064   3.284
20831W        W80576  27.020  40.016  14.886
20832W        W80577  29.500   4.795  12.024
20833W        W80578  41.389  43.464   4.150
20834W        W80579  15.298  18.125   0.813
20835W        W80580  29.483  11.716  14.450
20836W        W80581   2.298  14.797   2.774
20837W        W80582  14.142  38.905   2.758
20838W        W80583  16.654  17.800   4.212
20839W        W80584  12.703  12.305  13.377
20840W        W80585  41.876  16.149  10.892
20841W        W80586  12.697  25.133  14.481
20842W        W80587  13.302  43.954  12.068
20843W        W80588  35.378  44.356  13.523
20844W        W80589  25.538  32.618   1.393
20845W        W80590  19.562  15.195   0.353
20846W        W80591   1.247  24.029  10.562
20847W        W80592  32.548  44.422  10.581
20848W        W80593  32.997  29.549   3.644
20849W        W80594  17.631  19.601   2.837
20850W        W80595  12.688  23.129  10.536
20851W        W80596  28.588  22.237  11.983
20852W        W80597  39.875  22.133  12.440
20853W        W80598   1.766   2.728  14.832
20854W        W80599  11.623  39.907   2.329
20855W        W80600  40.809  31.517  14.424
20856W        W80601  25.198  38.515   4.147
20857W        W80602  11.827   7.347  14.990
20858W        W80603  38.931  25.500  13.353
20859W        W80604  15.325  44.765  13.545
20860W        W80605  16.690  25.012   1.343
20861W        W80606  14.304  33.385   0.418
20862W        W80607  16.643   3.458   4.270
20863W        W80608  19.701  27.669  14.354
20864W        W80609  24.091  13.679  14.885
20865W        W80610  22.147  14.107   1.359
20866W        W80611   0.764  35.012  10.444
20867W        W80612  10.848   7.774   2.267
20868W        W80613  30.515  11.168  13.445
20869W        W80614  13.653  39.020  12.497
20870W        W80615  24.146  43.913  12.360
20871W        W80616   2.294  23.088   0.952
20872W        W80617  40.894  37.404  14.778
20873W        W80618   7.899  23.556  13.884
20874W        W80619  10.871   7.365  10.594
20875W        W80620   5.428  14.301   1.754
20876W        W80621  13.264  40.941   4.783
20877W        W80622  26.540   9.258   4.814
20878W        W80623  17.583  37.950  10.924
20879W        W80624  36.441  33.451  12.549
20880W        W80625  30.055  12.202   2.295
20881W        W80626  22.577   1.267   3.228
20882W        W80627  11.705  20.533  10.957
20883W        W80628  21.148   0.952  12.862
20884W        W80629  23.734  33.433  14.354
20885W        W80630  40.867   4.383  10.422
20886W        W80631  40.809  14.159  13.890
20887W        W80632  10.139  10.376   0.386
20888W        W80633  35.988  43.890   3.284
20889W        W80634  44.422  28.611  11.546
20890W        W80635  43.951  36.931  14.388
20891W        W80636  43.854  25.526  12.995
20892W        W80637  23.563   4.342  11.965
20893W        W80638   5.895   2.900  11.500
20894W        W80639  33.442  26.468   0.866
20895W        W80640  25.986  35.562   4.293
20896W        W80641  18.763  22.165  12.477
20897W        W80642   2.951  15.624  14.766
20898W        W80643  19.758  30.424   4.132
20899W        W80644  17.692  28.463   2.676
20900W        W80645  37.561   2.403  14.901
20901W        W80646   3.796  38.054   2.808
20902W        W80647  17.248  44.909  12.954
20903W        W80648  39.420  38.408   1.866
20904W        W80649  41.903  35.542   2.790
20905W        W80650  33.566  22.657   4.715
20906W        W80651   2.933  34.450  12.059
20907W        W80652  17.279   5.867  13.534
20908W        W80653  35.570  21.171  12.540
20909W        W80654  39.373   5.215  13.416
20910W        W80655  11.756   4.891   2.823
20911W        W80656  13.197   2.388   3.712
20912W        W80657   5.252  19.118  11.942
20913W        W80658  14.204   7.281   4.815
20914W        W80659   2.819  26.652   1.289
20915W        W80660   8.254  39.438   2.344
20916W        W80661  36.508  13.819  11.947
20917W        W80662  17.614  34.949  13.048
20918W        W80663  21.220  10.761  12.396
20919W        W80664   5.780  26.522   4.705
20920W        W80665  25.596  20.049  14.878
20921W        W80666  10.685  11.669  12.360
20922W        W80667   8.381  42.829   3.670
20923W        W80668  10.762   9.719  10.931
20924W        W80669   4.830  33.544   0.266
20925W        W80670   3.927  40.350  11.483
20926W        W80671   3.251  33.896   3.672
20927W        W80672   5.257  28.525  13.428
20928W        W80673  33.494  26.030   4.818
20929W        W80674  39.860   0.484  12.968
20930W        W80675  21.110   0.336  13.913
20931W        W80676  31.071  29.099  13.357
20932W        W80677  17.270   0.445   1.294
20933W        W80678  20.668  25.699  10.455
20934W        W80679  13.768   5.316  14.771
20935W        W80680   5.779  14.634   3.757
20936W        W80681  36.025  20.036  11.452
20937W        W80682   5.356  18.228  14.331
20938W        W80683  29.552  38.030   3.750
20939W        W80684  35.095  36.494   2.878
20940W        W80685  42.808   3.277   4.329
20941W        W80686  26.587  14.239   4.768
20942W        W80687  26.022  29.502   1.779
20943W        W80688  39.018  28.141  10.901
20944W        W80689   8.813  44.407   1.760
20945W        W80690  15.315  10.802  13.522
20946W        W80691  14.220  33.093  12.958
20947W        W80692   6.186  14.646   2.864
20948W        W80693  43.494  15.648  10.895
20949W        W80694  21.586  28.679   0.748
20950W        W80695   3.890  36.900   9.638
20951W        W80696  40.052  37.362   4.677
20952W        W80697  36.441  10.822   2.883
20953W        W80698  11.724   9.218   4.298
20954W        W80699   4.747  26.160  12.030
20955W        W80700  31.001  26.464   5.199
20956W        W80701   7.712  13.311  12.969
20957W        W80702  22.687  19.688  13.378
20958W        W80703   1.771  13.260  11.542
20959W        W80704  25.622   4.760  12.482
20960W        W80705  33.580  23.632  11.087
20961W        W80706  20.719  44.754   4.205
20962W        W80707  17.642  10.867  14.810
20963W        W80708   0.479   4.699  13.892
20964W        W80709  44.424  44.006  14.975
20965W        W80710   1.959  27.618  12.057
20966W        W80711  39.974   9.764  11.073
20967W        W80712  27.599  35.068  12.967
20968W        W80713  16.312  24.196  14.929
20969W        W80714  37.864  27.053  12.083
20970W        W80715  17.250   1.339  10.918
20971W        W80716  27.188  30.066   3.362
20972W        W80717   5.698  18.657   2.209
20973W        W80718  11.366   7.285  13.478
20974W        W80719   8.802  27.987  12.095
20975W        W80720  42.358  20.765  12.455
20976W        W80721  34.477  44.775  14.939
20977W        W80722   7.822  10.318  11.918
20978W        W80723   0.978  16.703   4.259
20979W        W80724   8.348  19.733  14.995
20980W        W80725  30.006  36.064   0.955
20981W        W80726   9.282  22.073  14.977
20982W        W80727  30.918  38.898  13.803
20983W        W80728  33.979  41.885  14.281
20984W        W80729   1.436  44.927  10.411
20985W        W80730  30.450  41.339   2.372
20986W        W80731   9.871   4.831   1.412
20987W        W80732  44.448   9.852   1.697
20988W        W80733  32.457   7.417  13.526
20989W        W80734  31.579   5.317   3.696
20990W        W80735  35.906   9.378  12.985
20991W        W80736  17.773  11.803  13.433
20992W        W80737  35.508  33.408  13.961
20993W        W80738   7.417   3.251   1.695
20994W        W80739  40.450  14.675   0.292
20995W        W80740  15.218  31.027   1.252
20996W        W80741  10.829  44.931   1.871
20997W        W80742  35.442   9.692   3.646
20998W        W80743  44.398   9.844   3.679
20999W        W80744   8.794  28.485   1.405
21000W        W80745  34.376  19.734   1.358
21001W        W80746  16.663  15.113  12.356
21002W        W80747  27.180  11.684  14.444
21003W        W80748   1.796   3.726   3.700
21004W        W80749  41.303   7.374   3.272
21005W        W80750  14.133  35.469  13.998
21006W        W80751  34.890   8.361  10.432
21007W        W80752  13.792  35.954  11.011
21008W        W80753  16.113  19.691   1.230
21009W        W80754  36.444  38.854  13.345
21010W        W80755   3.756   8.848  12.370
21011W        W80756  30.655  33.554   2.246
21012W        W80757  20.706  43.973   1.272
21013W        W80758  39.987  43.873  14.795
21014W        W80759  44.910  23.657   4.145
21015W        W80760   9.257  10.642  13.413
21016W        W80761  23.216  43.510   4.187
21017W        W80762   9.259  26.490   4.147
21018W        W80763  44.423  11.772   2.861
21019W        W80764  27.052  10.711   1.867
21020W        W80765   6.231  33.014  14.381
21021W        W80766  25.064  12.669  14.800
21022W        W80767  42.816  36.026   0.866
21023W        W80768  22.138  17.197  11.918
21024W        W80769  15.606  25.081  14.301
21025W        W80770   9.237  17.163  11.880
21026W        W80771  44.787  42.823   2.859
21027W        W80772  44.474  33.885  14.888
21028W        W80773  44.867  29.458  12.962
21029W        W80774  31.573  10.681   1.719
21030W        W80775   2.878  26.154  12.063
21031W        W80776   7.751  32.099   4.212
21032W        W80777  38.326  15.216  11.920
21033W        W80778  39.033  29.032  14.944
21034W        W80779  35.960  21.678   1.382
21035W        W80780   2.401  40.525   4.343
21036W        W80781  22.161  34.518   1.278
21037W        W80782  42.916  10.841  14.428
21038W        W80783  18.215   4.935   3.855
21039W        W80784  15.761  19.610  13.859
21040W        W80785  42.019  33.501   2.810
21041W        W80786  38.535  20.562  13.433
21042W        W80787  23.132  25.492  14.311
21043W        W80788  29.452  34.603   3.709
21044W        W80789   5.330   4.726   3.170
21045W        W80790  43.793  24.580  14.508
21046W        W80791  39.825   3.739  10.552
21047W        W80792   2.821   9.207  13.352
21048W        W80793   3.902  44.870  13.327
21049W        W80794  21.065  12.276   1.439
21050W        W80795  37.430   4.259  14.380
21051W        W80796  44.917  33.093   1.215
21052W        W80797   5.436   6.183   2.255
21053W        W80798  30.443  38.513   3.322
21054W        W80799  18.294   6.813   1.915
21055W        W80800  15.704  14.662  12.033
21056W        W80801  19.260  14.635  13.059
21057W        W80802  12.857  30.599   4.287
21058W        W80803  39.436  17.683  11.469
21059W        W80804  29.507  21.049  11.883
21060W        W80805   9.153  43.000   4.231
21061W        W80806  39.386  38.842   0.304
21062W        W80807   6.857   5.430  11.943
21063W        W80808  33.070  14.771   0.442
21064W        W80809  41.869  15.147   2.668
21065W        W80810  43.865  15.248  14.805
21066W        W80811  40.917   6.397  12.524
21067W        W80812  22.594  22.510  14.450
21068W        W80813  39.381  38.979   0.735
21069W        W80814  33.019  18.226   3.255
21070W        W80815   8.363  15.608  10.940
21071W        W80816  38.526  42.336  11.936
21072W        W80817  11.333  44.762   4.171
21073W        W80818   7.268   8.273   1.822
21074W        W80819  40.960  20.708  13.039
21075W        W80820  44.468  28.109  14.025
21076W        W80821  31.948  32.035   2.706
21077W        W80822  25.164  30.441  13.823
21078W        W80823  14.340   7.286   1.831
21079W        W80824   8.386  24.584   4.645
21080W        W80825  17.180   8.184  10.921
21081W        W80826   2.809  12.263   2.209
21082W        W80827  17.755  27.505  14.513
21083W        W80828   2.806   5.237  12.413
21084W        W80829  21.252  35.365  12.555
21085W        W80830  15.659  32.949  13.931
21086W        W80831  21.109  15.775   4.127
21087W        W80832  22.680  20.042  10.976
21088W        W80833  25.190  21.157  10.495
21089W        W80834  24.040   7.351   4.633
21090W        W80835  44.465  19.176   4.668
21091W        W80836  17.689  36.412  12.089
21092W        W80837   6.286  43.381   4.326
21093W        W80838   4.941  43.977  14.888
21094W        W80839  23.560   6.319   1.388
21095W        W80840   2.759   2.351   4.346
21096W        W80841   7.402   8.710  13.974
21097W        W80842   8.793   4.699   3.281
21098W        W80843  23.052   7.849  13.359
21099W        W80844  14.095   6.274   3.243
21100W        W80845  35.961  16.173   4.224
21101W        W80846   4.435  34.582  13.939
21102W        W80847  12.344  13.124   1.371
21103W        W80848  35.878   9.167  10.436
21104W        W80849  41.852  20.198   1.834
21105W        W80850  13.315  12.332  12.912
21106W        W80851   6.683   3.214   3.863
21107W        W80852   9.191  15.737  13.047
21108W        W80853   2.770  25.067   4.324
21109W        W80854  36.446  20.235  14.358
21110W        W80855   5.349  18.157   4.258
21111W        W80856  15.287  21.201   4.213
21112W        W80857   3.359   1.416  14.851
21113W        W80858  23.067  44.434   0.940
21114W        W80859  18.675  11.632  10.602
21115W        W80860  15.143   8.398   2.672
21116W        W80861  32.568  12.623   1.280
21117W        W80862   3.781  17.288   3.644
21118W        W80863  17.628  19.121   2.220
21119W        W80864  18.594   2.296  14.396
21120W        W80865  40.904  10.815  14.961
21121W        W80866   6.685  16.189   3.353
21122W        W80867  13.831  28.636  14.337
21123W        W80868  14.162  12.169  13.800
21124W        W80869   4.857  31.556   3.232
21125W        W80870  20.036   0.949   2.217
21126W        W80871   0.308  16.232  14.357
21127W        W80872   1.242  35.964   1.413
21128W        W80873   2.819  23.572  12.524
21129W        W80874  44.954   3.829  14.978
21130W        W80875  18.117   2.228  11.426
21131W        W80876  28.668  35.909   0.922
21132W        W80877  17.250  14.593   2.883
21133W        W80878  26.034   7.908   4.137
21134W        W80879  22.615  44.366   4.745
21135W        W80880  42.402  43.927   3.753
21136W        W80881  35.424  18.218  14.918
21137W        W80882   5.397   1.342  13.337
21138W        W80883  31.991   8.895  13.438
21139W        W80884  15.743   8.258   1.887
21140W        W80885   4.300  30.937  13.540
21141W        W80886  31.446   4.356  12.340
21142W        W80887  29.655   8.344  14.837
21143W        W80888  41.501  26.168   1.345
21144W        W80889  44.303  36.994  12.861
21145W        W80890  24.711  29.504  12.573
21146W        W80891  26.495  11.675  12.906
21147W        W80892  21.133  32.933   2.874
21148W        W80893  23.573  14.334  13.319
21149W        W80894   6.744   4.875   4.217
21150W        W80895   3.417  43.881   1.243
21151W        W80896   1.289   4.792  14.302
21152W        W80897  27.984  37.946   4.348
21153W        W80898  11.674   7.294   2.238
21154W        W80899  21.048  25.020   2.784
21155W        W80900   0.852  29.976  14.803
21156W        W80901  40.465   0.821  10.006
21157W        W80902  12.789  42.933  14.006
21158W        W80903   9.304   5.849   0.927
21159W        W80904  43.975  42.318   2.381
21160W        W80905  28.176  10.803   0.953
21161W        W80906  24.078  34.942  14.441
21162W        W80907  35.598   1.863  10.521
21163W        W80908  22.194  25.015   0.769
21164W        W80909  19.099   7.384   0.404
21165W        W80910  39.899  21.539   1.731
21166W        W80911  27.149  10.773   1.223
21167W        W80912  31.434   7.403  11.120
21168W        W80913  23.638  12.679  12.357
21169W        W80914  29.598  15.716   2.354
21170W        W80915  16.138  20.179  10.524
21171W        W80916  19.695  40.337  11.486
21172W        W80917  42.430   9.379   3.282
21173W        W80918  20.640   5.749  13.402
21174W        W80919  29.638  28.546   0.250
21175W        W80920  43.883   9.747  11.473
21176W        W80921   7.672  30.986   4.711
21177W        W80922   0.841  28.536   3.267
21178W        W80923  44.460  23.168   1.260
21179W        W80924  22.232  31.146  12.938
21180W        W80925   0.753  41.365   4.648
21181W        W80926  18.163   5.229   4.696
21182W        W80927  38.475  17.106  11.598
21183W        W80928  15.812  12.697   3.308
21184W        W80929  38.916  44.875  12.968
21185W        W80930  20.725  36.426  12.376
21186W        W80931  26.514  14.731   3.189
21187W        W80932  16.213  33.119   2.805
21188W        W80933  18.235  20.681  14.792
21189W        W80934  29.996  40.966   4.300
21190W        W80935  20.766  42.307  11.573
21191W        W80936  34.873  44.884   0.845
21192W        W80937  26.098  17.183  10.910
21193W        W80938  16.319  29.556   1.379
21194W        W80939  22.148  34.964  13.432
21195W        W80940  16.806  11.721  14.980
21196W        W80941  44.320  25.699  13.820
21197W        W80942   6.348  40.954  13.023
21198W        W80943   7.791   8.235  13.400
21199W        W80944  27.479  16.314   0.474
21200W        W80945  18.076  18.555  14.919
21201W        W80946  10.875  20.724  11.592
21202W        W80947  24.602  17.166   3.202
21203W        W80948  15.268  39.468   3.261
21204W        W80949  23.529  31.071  11.031
21205W        W80950  18.669  39.343  13.325
21206W        W80951   2.317  11.653   0.349
21207W        W80952  40.855  25.043  14.011
21208W        W80953   0.293  21.587   0.385
21209W        W80954  33.027  28.957  13.470
21210W        W80955  40.357  15.204  12.509
21211W        W80956  23.671  36.943   2.770
21212W        W80957   1.265   6.268   4.130
21213W        W80958   5.319  38.973   1.713
21214W        W80959  35.367   9.320   1.927
21215W        W80960  34.544  20.733  11.114
21216W        W80961  23.090  27.175  10.491
21217W        W80962  23.233  16.197  11.912
21218W        W80963  29.038   5.256   2.699
21219W        W80964  25.516  37.535  14.307
21220W        W80965   9.282  25.653  12.911
21221W        W80966   8.289  32.118  10.565
21222W        W80967  37.855  18.761   2.750
21223W        W80968  18.259  10.808   1.275
21224W        W80969  10.317  25.113  14.277
21225W        W80970   6.387  34.566   0.737
21226W        W80971  18.245  28.017   4.797
21227W        W80972  43.882  18.634   5.130
21228W        W80973  34.030   7.692   2.841
21229W        W80974   2.396  33.603  12.956
21230W        W80975   2.849  43.400  12.576
21231W        W80976  10.262   3.441   3.324
21232W        W80977  21.686  32.985  14.306
21233W        W80978  39.818  14.126   3.238
21234W        W80979  42.974  23.518   3.191
21235W        W80980  17.713  25.497   2.800
21236W        W80981  26.655  28.632   2.255
21237W        W80982  20.216  24.226   5.180
21238W        W80983  17.086  36.017  14.014
21239W        W80984   1.949  39.914  12.010
21240W        W80985   9.174  29.985  14.973
21241W        W80986   3.299  37.502   1.418
21242W        W80987  25.016  25.978  12.493
21243W        W80988   5.373  17.588  13.347
21244W        W80989  30.586  32.503   3.867
21245W        W80990  13.107  34.013   0.788
21246W        W80991  35.074  24.655   2.822
21247W        W80992  37.985   2.336  13.474
21248W        W80993  26.074   2.728   3.216
21249W        W80994  29.152  16.111  11.567
21250W        W80995  32.969  31.404  13.819
21251W        W80996   7.177  37.900  13.798
21252W        W80997  29.504  33.874  12.914
21253W        W80998  11.302  21.153   0.903
21254W        W80999  23.660   8.850   1.405
21255W        W81000   7.397  19.550   2.276
21256W        W81001  27.486  43.513   3.293
21257W        W81002  36.491   8.296  14.957
21258W        W81003  34.441  23.642   3.864
21259W        W81004  38.513   3.892   2.741
21260W        W81005  31.406   6.353  11.860
21261W        W81006  14.331  37.470  11.553
21262W        W81007  18.653  43.360   1.332
21263W        W81008  40.465  14.621   3.793
21264W        W81009   0.780  26.469   4.831
21265W        W81010  29.930  14.197   1.805
21266W        W81011  42.852   1.813   2.684
21267W        W81012   1.404  18.085  13.849
21268W        W81013  27.602  16.670  14.023
21269W        W81014  36.582  35.022   2.833
21270W        W81015  29.589  21.524  11.887
21271W        W81016  16.299  38.481   1.305
21272W        W81017  25.069  15.167   2.307
21273W        W81018  26.999  35.090   0.280
21274W        W81019   8.658  44.793   0.814
21275W        W81020  44.504  30.121   9.946
21276W        W81021  28.020  24.713   0.760
21277W        W81022  26.495  44.809   0.272
21278W        W81023  43.813  17.657  11.017
21279W        W81024  11.158  25.984  14.939
21280W        W81025  17.665  24.051  12.374
21281W        W81026   4.809  44.899   1.240
21282W        W81027   7.231  24.212  11.106
21283W        W81028  33.020  21.569   3.710
21284W        W81029  15.646  33.428   2.419
21285W        W81030  32.082  22.151  12.393
21286W        W81031  14.309   2.290   3.318
21287W        W81032  13.259  25.131  13.452
21288W        W81033  16.312  41.522   0.794
21289W        W81034  18.193   6.200  10.913
21290W        W81035  21.187  30.920  12.471
21291W        W81036  21.242   6.273   3.204
21292W        W81037  43.766  36.941   3.261
21293W        W81038  44.376  24.679   4.222
21294W        W81039   6.728  17.574  11.589
21295W        W81040  34.570  36.992  10.491
21296W        W81041   0.291  30.969   1.914
21297W        W81042  44.863   3.837   3.161
21298W        W81043  43.829  23.612  12.557
21299W        W81044   9.385  34.093  12.868
21300W        W81045  11.139  31.442  10.899
21301W        W81046  27.638   1.919  10.990
21302W        W81047   3.324  42.796   1.826
21303W        W81048  34.079  31.103   0.918
21304W        W81049  43.343  35.423   4.280
21305W        W81050  42.846   1.437  13.447
21306W        W81051  43.977  24.568   1.713
21307W        W81052  12.304  34.418   3.827
21308W        W81053   2.393  34.071  11.128
21309W        W81054   3.790  39.899  11.606
21310W        W81055  11.260  25.513   1.894
21311W        W81056  19.714   2.780   4.682
21312W        W81057  37.433  44.823   0.733
21313W        W81058   2.844  16.221  13.339
21314W        W81059  25.212   4.307   1.297
21315W        W81060  39.363  14.292  12.061
21316W        W81061  31.416  12.758   3.165
21317W        W81062  35.929   5.744   1.327
21318W        W81063   3.803  19.764  10.006
21319W        W81064  44.792  12.308   1.323
21320W        W81065   4.264  23.121   4.283
21321W        W81066   2.350  31.130   3.288
21322W        W81067  17.705  32.544  11.877
21323W        W81068  39.819  30.121  14.904
21324W        W81069   1.351   7.786  14.949
21325W        W81070  30.957   1.750   4.263
21326W        W81071  18.562  30.480  11.496
21327W        W81072  34.002   6.381  14.349
21328W        W81073  20.755  14.737   3.668
21329W        W81074  24.661   5.797  14.347
21330W        W81075   2.466  36.050   0.937
21331W        W81076  19.047  12.659   1.343
21332W        W81077  16.120   3.865   0.256
21333W        W81078  14.226  39.002   1.767
21334W        W81079   5.220  35.564  13.360
21335W        W81080  31.556  34.091  13.956
21336W        W81081   5.382  35.006  12.450
21337W        W81082  41.462  28.050  14.961
21338W        W81083  16.248  43.300  11.550
21339W        W81084  14.198  14.734  12.962
21340W        W81085   7.417   4.300  10.428
21341W        W81086  30.582  10.171  10.552
21342W        W81087   1.366  39.345  10.006
21343W        W81088  18.106  40.411  10.960
21344W        W81089  42.824  30.128  13.938
21345W        W81090  18.642  37.891   3.362
21346W        W81091  21.021  20.242   5.163
21347W        W81092  29.063  43.848  10.506
21348W        W81093  13.193   2.739  12.082
21349W        W81094  10.825  29.661   4.697
21350W        W81095   0.418  20.555  12.838
21351W        W81096  18.060   0.408  14.780
21352W        W81097  17.298  27.970  10.943
21353W        W81098  22.141  19.734  12.937
21354W        W81099  18.781  26.505  11.454
21355W        W81100  20.765   6.360   4.340
21356W        W81101  24.066  25.643  12.979
21357W        W81102   1.330   9.701  10.457
21358W        W81103  19.571  20.245   4.158
21359W        W81104   7.691  39.964  12.420
21360W        W81105   6.701   5.799  13.976
21361W        W81106  38.059  42.318   1.408
21362W        W81107   6.333  38.389  10.976
21363W        W81108  15.088  31.621   0.910
21364W        W81109  11.710   3.386  11.872
21365W        W81110  21.179  26.631   1.755
21366W        W81111  32.478  22.184  12.533
21367W        W81112   8.371  37.497   4.760
21368W        W81113  26.502  18.195  10.408
21369W        W81114  27.524  33.028  12.031
21370W        W81115  23.702  16.731  10.957
21371W        W81116  18.696  21.167   1.916
21372W        W81117   8.229  25.151  11.981
21373W        W81118  12.616  37.071   1.728
21374W        W81119  31.530  12.764  11.917
21375W        W81120  17.564  15.114   0.377
21376W        W81121  44.892  28.182  10.406
21377W        W81122  34.957  40.511  11.514
21378W        W81123  36.905  32.094   3.368
21379W        W81124  13.186  34.499  13.817
21380W        W81125  12.308  37.565   2.723
21381W        W81126   6.344   2.470   2.814
21382W        W81127   9.319  19.702  14.927
21383W        W81128  26.204  35.997  12.463
21384W        W81129  36.952  37.367  10.543
21385W        W81130  17.638  34.045  14.949
21386W        W81131  35.032  18.773   3.191
21387W        W81132   0.913  23.103   1.396
21388W        W81133  37.565   5.387   3.708
21389W        W81134  21.591  41.334  12.865
21390W        W81135  36.039  10.712   1.223
21391W        W81136  40.054  28.053   4.352
21392W        W81137  13.108  40.335  11.085
21393W        W81138  35.366  37.966  12.881
21394W        W81139  32.529  10.167  12.462
21395W        W81140  21.118   9.332  11.555
21396W        W81141   7.342  44.429   1.802
21397W        W81142  15.715  24.194   0.363
21398W        W81143  25.220   9.355   1.705
21399W        W81144  19.221  19.736  12.997
21400W        W81145  12.666  17.711   1.332
21401W        W81146  37.849  40.403  13.415
21402W        W81147  23.239   1.377  12.495
21403W        W81148  34.090   9.338   2.695
21404W        W81149  36.844  36.420  13.905
21405W        W81150  44.973  38.435   0.406
21406W        W81151  26.984  19.559   1.392
21407W        W81152  12.691  27.651   2.387
21408W        W81153  31.066  42.932   3.796
21409W        W81154   5.823  32.900   3.232
21410W        W81155  43.337  15.325  10.413
21411W        W81156  13.745  34.373   5.743
21412W        W81157   5.884  13.281  10.620
21413W        W81158  12.303   3.953  12.978
21414W        W81159  16.139  23.641   3.183
21415W        W81160  18.780  20.575  11.966
21416W        W81161  42.310  41.013  14.315
21417W        W81162   9.651  25.177  11.902
21418W        W81163  13.225   8.874  11.030
21419W        W81164  41.360  26.961  12.556
21420W        W81165   7.746  11.184  13.466
21421W        W81166  32.411  22.031  10.480
21422W        W81167  33.880  20.544  14.943
21423W        W81168   9.320  25.498  11.892
21424W        W81169  32.429   1.801   3.330
21425W        W81170  25.626  43.836  11.996
21426W        W81171   5.838   9.292   1.901
21427W        W81172  16.073  13.624   2.876
21428W        W81173   9.656  32.909   0.349
21429W        W81174  21.748  43.966   0.310
21430W        W81175  31.558   0.914  13.001
21431W        W81176  20.102  15.319   4.227
21432W        W81177  17.097  10.829  10.594
21433W        W81178  11.291  30.068   2.266
21434W        W81179  20.051  41.909   1.308
21435W        W81180  18.624   3.421   2.688
21436W        W81181  40.963  13.259  10.575
21437W        W81182  27.691  17.254  11.383
21438W        W81183  25.675  15.623  14.441
21439W        W81184  37.038   8.859   2.674
21440W        W81185  31.569  14.758  14.913
21441W        W81186  35.034   0.846  10.451
21442W        W81187  16.644  33.056  11.103
21443W        W81188  43.896   3.937   0.791
21444W        W81189   2.890  37.947   2.731
21445W        W81190  36.501  41.851   2.292
21446W        W81191  14.227   5.741   4.767
21447W        W81192  14.264  18.735  14.768
21448W        W81193  42.292   0.270   4.649
21449W        W81194  40.510  37.894  12.990
21450W        W81195  20.236   8.374   4.692
21451W        W81196  43.464  26.007  11.969
21452W        W81197  39.535   6.884   1.420
21453W        W81198   6.817  27.994  12.579
21454W        W81199  17.699   2.367   1.279
21455W        W81200  12.336  11.217  13.402
21456W        W81201  44.902  28.000  11.544
21457W        W81202   5.827  40.535  13.812
21458W        W81203  20.195  22.710   1.720
21459W        W81204   1.752  16.630   9.519
21460W        W81205  27.160  39.819   2.418
21461W        W81206  25.998   8.304   0.336
21462W        W81207   5.363   3.776  12.529
21463W        W81208  39.405   3.819  13.953
21464W        W81209  25.666  25.529  14.320
21465W        W81210  38.374  35.947  11.981
21466W        W81211  25.597   3.822  11.479
21467W        W81212  26.964  40.964   1.773
21468W        W81213  15.782  22.625   4.655
21469W        W81214  42.321  41.425  11.475
21470W        W81215   4.447  12.645   4.210
21471W        W81216  39.520  34.952  14.775
21472W        W81217  24.584  19.738   1.248
21473W        W81218  24.127  27.691  13.466
21474W        W81219   8.312  20.069   2.414
21475W        W81220   9.196  30.558  14.981
21476W        W81221  36.434  35.941  11.391
21477W        W81222  10.858  28.509  12.063
21478W        W81223   5.344  35.857   1.777
21479W        W81224  17.233  44.331  10.961
21480W        W81225   8.795  23.573   4.693
21481W        W81226  26.521   5.399  11.924
21482W        W81227  42.368   1.302  14.963
21483W        W81228  39.858  34.595  13.889
21484W        W81229   8.223  36.439  14.812
21485W        W81230  33.412  21.149  12.451
21486W        W81231  28.052  30.513   5.098
21487W        W81232  20.140  21.189  11.866
21488W        W81233  13.261   1.820   1.853
21489W        W81234  30.512  10.324   1.707
21490W        W81235  25.036  23.113  14.497
21491W        W81236  14.628  11.142  12.424
21492W        W81237  33.034  36.441  11.012
21493W        W81238  41.997  17.133  11.922
21494W        W81239  37.867   3.233  11.382
21495W        W81240  22.046  43.483  11.572
21496W        W81241  18.278  25.592  13.956
21497W        W81242  17.127  43.878   0.319
21498W        W81243  41.419  36.966   0.438
21499W        W81244  12.762   0.766   3.863
21500W        W81245   2.270  14.733   4.794
21501W        W81246  22.097  18.203   3.363
21502W        W81247  22.132   2.387   3.288
21503W        W81248   6.203  44.878  12.455
21504W        W81249   4.353   3.944   1.228
21505W        W81250  44.404  20.048  13.840
21506W        W81251  10.287   5.778  10.990
21507W        W81252  19.706   1.479   5.297
21508W        W81253  39.431   5.252   3.185
21509W        W81254   3.395  44.834   1.810
21510W        W81255  13.321  33.555   5.706
21511W        W81256  29.944   0.302  11.459
21512W        W81257  29.033  41.465   0.919
21513W        W81258  23.553  27.973  11.502
21514W        W81259  32.928  32.573   0.316
21515W        W81260  17.119  10.342   3.660
21516W        W81261   6.917  13.148   1.422
21517W        W81262  21.125   6.258  13.040
21518W        W81263  42.898  25.679  11.006
21519W        W81264   4.884  21.710   5.261
21520W        W81265  24.558   5.296  12.342
21521W        W81266  21.169  30.657   4.803
21522W        W81267  23.669   1.390   0.247
21523W        W81268  31.931  39.437  13.892
21524W        W81269   6.240  24.175   3.850
21525W        W81270  34.457  24.505   2.386
21526W        W81271  18.123  31.142   0.760
21527W        W81272  33.011  13.778  11.024
21528W        W81273   5.301  24.536   0.253
21529W        W81274  11.228  18.624   3.366
21530W        W81275  30.052   3.424   0.840
21531W        W81276  16.209  28.036  11.939
21532W        W81277   1.806   4.334  11.105
21533W        W81278   5.256  18.259   0.812
21534W        W81279  25.017  13.775   1.824
21535W        W81280  41.410   0.870   4.686
21536W        W81281  33.483  23.563  13.895
21537W        W81282  43.901  16.583  12.404
21538W        W81283   4.881  23.604  13.060
21539W        W81284  40.502  39.498  12.356
21540W        W81285  30.077  16.770   2.230
21541W        W81286  42.281  11.330   0.912
21542W        W81287  30.913  13.753  10.963
21543W        W81288  14.174  35.360   0.337
21544W        W81289  44.765  21.107   3.158
21545W        W81290   6.192  35.884   4.605
21546W        W81291  12.293  16.170  12.525
21547W        W81292   6.753   0.384   2.809
21548W        W81293  40.937   4.771   2.335
21549W        W81294   6.687  18.055  13.821
21550W        W81295   9.760  10.643   0.816
21551W        W81296   5.417  39.012   4.836
21552W        W81297  27.965  15.303  13.007
21553W        W81298  13.659  39.065   1.428
21554W        W81299  36.395  18.644  10.546
21555W        W81300  41.895  34.415  12.379
21556W        W81301   5.721  34.458   0.248
21557W        W81302  35.506  41.823  11.592
21558W        W81303   4.234   7.885  11.433
21559W        W81304   8.896  19.698  12.905
21560W        W81305   0.833  43.981   1.754
21561W        W81306  24.031  18.662   0.943
21562W        W81307  43.507  42.506  12.520
21563W        W81308  29.016  19.079   1.927
21564W        W81309   7.193  32.082  12.389
21565W        W81310  16.801  23.539   1.226
21566W        W81311   1.960  10.320  11.494
21567W        W81312  21.676  20.582  14.825
21568W        W81313   0.309   9.355   3.775
21569W        W81314   9.890  32.983   2.415
21570W        W81315  28.474  18.226   0.806
21571W        W81316  25.163  39.014  12.040
21572W        W81317  25.554   5.925   3.692
21573W        W81318   5.732   1.761  12.537
21574W        W81319   2.803   1.734  14.758
21575W        W81320  32.616   9.192   5.702
21576W        W81321  36.518  24.650   3.745
21577W        W81322  34.915  10.861   0.882
21578W        W81323  18.783  19.232   0.860
21579W        W81324  42.984   8.267  10.499
21580W        W81325   5.876   2.363  13.351
21581W        W81326  42.882   6.353  14.999
21582W        W81327  33.009  11.813  12.013
21583W        W81328  36.556  36.919  11.069
21584W        W81329  34.880   4.330   1.708
21585W        W81330  17.110  44.479  14.382
21586W        W81331  27.580  39.862  13.015
21587W        W81332  30.044  27.194  13.037
21588W        W81333  16.807  35.972   0.450
21589W        W81334  27.097  43.293  14.975
21590W        W81335  11.196  18.652  12.454
21591W        W81336  28.440   8.863   1.330
21592W        W81337  32.070   9.717  13.925
21593W        W81338   4.288  41.326   0.341
21594W        W81339  32.030  12.345   1.326
21595W        W81340  34.468  12.660  13.319
21596W        W81341   8.863  17.216   4.255
21597W        W81342  13.795  35.863   1.832
21598W        W81343  34.045  24.504  13.871
21599W        W81344   7.176  36.862  14.290
21600W        W81345   7.214  30.020   3.380
21601W        W81346   2.336  40.379  10.422
21602W        W81347   8.855  32.536   2.745
21603W        W81348  23.654  33.113  14.030
21604W        W81349  13.711  33.499   0.920
21605W        W81350  38.834   3.882  13.472
21606W        W81351  28.664   1.929   0.828
21607W        W81352  41.833  18.245  11.400
21608W        W81353  25.630  42.838   4.162
21609W        W81354   4.872  21.700   3.211
21610W        W81355  18.617  18.058  11.966
21611W        W81356  23.493  42.829  11.579
21612W        W81357  43.857  21.206  13.839
21613W        W81358  24.054  37.413   0.430
21614W        W81359  35.020   2.753  11.877
21615W        W81360   1.406  41.946   3.807
21616W        W81361  10.732  12.173  10.990
21617W        W81362  39.912  43.477  13.013
21618W        W81363  23.135   4.879  13.881
21619W        W81364  38.432   7.357   3.716
21620W        W81365  15.749   5.757  12.892
21621W        W81366  13.313  24.489  11.942
21622W        W81367  22.079  41.894   4.130
21623W        W81368  41.420  27.149  14.836
21624W        W81369  36.437  33.081   0.752
21625W        W81370   0.835  35.435   1.240
21626W        W81371  34.507  23.183  11.570
21627W        W81372  28.154  15.650   3.860
21628W        W81373  18.579  11.766  14.322
21629W        W81374  41.825  42.836   4.715
21630W        W81375  17.152  15.158   0.735
21631W        W81376  43.849  31.445   2.277
21632W        W81377   0.930  25.711  10.617
21633W        W81378  19.150  41.911  12.076
21634W        W81379  20.107  37.042   4.138
21635W        W81380  19.568  19.248   2.681
21636W        W81381  40.896   8.366  11.043
21637W        W81382   1.260  41.522  14.790
21638W        W81383  30.431  35.029  10.414
21639W        W81384  17.212  16.234  11.063
21640W        W81385  14.619  22.513   4.656
21641W        W81386  15.109  12.189   4.346
21642W        W81387  40.951  44.489  13.500
21643W        W81388  41.980  22.601  11.024
21644W        W81389   9.255   8.177  14.379
21645W        W81390  13.349  25.164  14.933
21646W        W81391   3.858  30.498  13.420
21647W        W81392  39.332  14.724  12.851
21648W        W81393   1.808  15.735  12.059
21649W        W81394  19.261   1.290  10.415
21650W        W81395  17.630  10.768   4.332
21651W        W81396   9.788   6.426   4.609
21652W        W81397  15.666   2.367   3.763
21653W        W81398  37.411  24.686  13.877
21654W        W81399  29.616  44.319   0.258
21655W        W81400  41.394  28.056   3.262
21656W        W81401  20.576   3.409   0.816
21657W        W81402  27.540  43.866  11.100
21658W        W81403  32.984  16.769   1.833
21659W        W81404  41.407  42.314   4.342
21660W        W81405  40.799  32.573  14.992
21661W        W81406   0.867   5.279   4.187
21662W        W81407  29.567  12.698   4.253
21663W        W81408  41.791  39.930  14.462
21664W        W81409   5.914  17.763   2.699
21665W        W81410  17.754  10.315  14.510
21666W        W81411  18.098   8.896   3.782
21667W        W81412  20.166  20.708  11.450
21668W        W81413  44.435  13.829   0.432
21669W        W81414   1.447  42.922   4.173
21670W        W81415  36.494  25.088  12.970
21671W        W81416  42.032  13.784  13.001
21672W        W81417  31.984  11.255   1.845
21673W        W81418  17.560  40.045  12.871
21674W        W81419   3.947  36.411  12.921
21675W        W81420   7.743  20.733  10.477
21676W        W81421   9.714  26.596   4.784
21677W        W81422   5.333  40.526   3.759
21678W        W81423  21.593  41.313  13.444
21679W        W81424  24.114   4.260  14.948
21680W        W81425   9.769  27.549   1.818
21681W        W81426  30.031  12.252   2.903
21682W        W81427  22.179  13.133  12.370
21683W        W81428   6.426   4.823  14.458
21684W        W81429  29.606  18.059  12.434
21685W        W81430  10.340  24.983  10.550
21686W        W81431  26.106  21.158   1.337
21687W        W81432  18.131  35.937  10.605
21688W        W81433  20.667  27.674   1.929
21689W        W81434   0.333  29.063  10.578
21690W        W81435  23.238  15.711  14.992
21691W        W81436   4.352  42.375   0.750
21692W        W81437  10.241  38.518  11.474
21693W        W81438  17.690  27.604  11.015
21694W        W81439  41.865  32.930  14.504
21695W        W81440  43.471  37.051   2.337
21696W        W81441  39.549  40.902  11.586
21697W        W81442  30.114  23.493   1.246
21698W        W81443  37.542   2.927  13.840
21699W        W81444  41.389  19.171  10.930
21700W        W81445  10.846  20.268  12.933
21701W        W81446  10.365  38.564  10.065
21702W        W81447  23.109  17.738  10.920
21703W        W81448  33.469  13.826  12.533
21704W        W81449   1.390  38.023  13.972
21705W        W81450  44.289  44.944  12.505
21706W        W81451   4.798  20.064   4.168
21707W        W81452  28.590  20.601  12.499
21708W        W81453   1.320   6.344   3.190
21709W        W81454  11.703  35.071  11.487
21710W        W81455  25.577  35.888   4.243
21711W        W81456  12.748  20.259  13.973
21712W        W81457   9.236  32.495   0.741
21713W        W81458  35.985   2.275  11.890
21714W        W81459  43.350   0.278  11.392
21715W        W81460   5.811   5.218  14.967
21716W        W81461  24.585   9.270   4.831
21717W        W81462   1.289   6.293  12.880
21718W        W81463  12.314  13.792   1.427
21719W        W81464  39.935  43.866   1.334
21720W        W81465   9.794  11.205  12.929
21721W        W81466  40.540   7.200  13.039
21722W        W81467  20.143  40.004  13.811
21723W        W81468   3.872  28.141   4.763
21724W        W81469  23.155   3.754  14.986
21725W        W81470  10.853   8.727   4.741
21726W        W81471  11.692   3.951  12.377
21727W        W81472   1.967  19.780   3.681
21728W        W81473  23.543  44.342   1.842
21729W        W81474  33.997   9.255  12.939
21730W        W81475  38.328  23.148  13.015
21731W        W81476   7.363  21.023  11.873
21732W        W81477  25.514  42.451  11.902
21733W        W81478  29.571   4.871  13.347
21734W        W81479   9.290   3.273  10.122
21735W        W81480  10.173   6.715   1.241
21736W        W81481  31.575  34.532   0.729
21737W        W81482  24.695  35.585   0.955
21738W        W81483   0.295  39.529   0.740
21739W        W81484  13.311  31.497  14.993
21740W        W81485  10.858  19.193  14.468
21741W        W81486   2.820  40.972  14.934
21742W        W81487  10.695  12.327  14.971
21743W        W81488  22.542  16.660   0.401
21744W        W81489  20.676  38.882  13.001
21745W        W81490  33.502  30.455  10.442
21746W        W81491  25.100  34.070   3.194
21747W        W81492  28.012  27.547  13.541
21748W        W81493   6.905  19.692  13.495
21749W        W81494  25.211  21.130   1.330
21750W        W81495   2.403   7.680   2.241
21751W        W81496   9.387  42.929   4.677
21752W        W81497  26.505  13.768   4.773
21753W        W81498  41.387   3.867  14.427
21754W        W81499  37.521  26.961   3.670
21755W        W81500   7.183  29.013  13.031
21756W        W81501   6.878   5.348   2.680
21757W        W81502  17.124   5.393   1.235
21758W        W81503  30.144  12.665  13.314
21759W        W81504  43.848   2.381  14.347
21760W        W81505   5.264  20.129  11.123
21761W        W81506  32.503   6.321  13.044
21762W        W81507  25.005   0.493  10.526
21763W        W81508  21.558  33.385   1.740
21764W        W81509   4.775  44.942  13.912
21765W        W81510  36.930  37.473   4.292
21766W        W81511  21.056  35.479  14.447
21767W        W81512  31.620  15.823  12.005
21768W        W81513  28.117  17.109   0.870
21769W        W81514  40.507   5.883  13.952
21770W        W81515  43.966   8.658  13.847
21771W        W81516  30.128  37.065  14.383
21772W        W81517  32.044  30.074   2.254
21773W        W81518  40.036   0.954  12.899
21774W        W81519  28.578   9.301  11.115
21775W        W81520  21.240  44.286  11.094
21776W        W81521  10.317   8.346  10.505
21777W        W81522  26.034  36.403   4.640
21778W        W81523  34.482  31.490   0.343
21779W        W81524  21.589  26.607   1.426
21780W        W81525   4.345   6.895  13.018
21781W        W81526   9.769  20.261   1.334
21782W        W81527  43.471  38.012  12.389
21783W        W81528  44.263  37.066  10.469
21784W        W81529   7.897  24.059   2.704
21785W        W81530  33.578  30.105   0.766
21786W        W81531  27.572  44.437  11.486
21787W        W81532  10.164  20.604  10.412
21788W        W81533  15.632  18.119  12.453
21789W        W81534  18.706  14.186   4.341
21790W        W81535  35.576  16.766   1.213
21791W        W81536  24.184  28.620  13.002
21792W        W81537  32.597   3.765   1.804
21793W        W81538  18.625  15.303  13.910
21794W        W81539  14.168  23.727   2.822
21795W        W81540   6.878   5.273  12.884
21796W        W81541  43.416  11.271  14.001
21797W        W81542  26.606   1.808   3.201
21798W        W81543  15.628  11.344   3.798
21799W        W81544  25.480  29.650   3.332
21800W        W81545   2.749  30.511  14.306
21801W        W81546   0.347  39.544   1.449
21802W        W81547  18.136  13.265  12.559
21803W        W81548  12.162  43.388   3.748
21804W        W81549  38.064  28.183  13.809
21805W        W81550  24.481  19.544  14.407
21806W        W81551   3.895  26.001   3.343
21807W        W81552  34.111  32.993   3.644
21808W        W81553  32.561   5.756  10.152
21809W        W81554  10.383  34.391   0.323
21810W        W81555  43.284  34.594   3.206
21811W        W81556  16.730  36.582  13.424
21812W        W81557  18.249  40.034  10.634
21813W        W81558   9.335  12.184  11.969
21814W        W81559   0.926  18.643  12.394
21815W        W81560  40.484  11.826  14.400
21816W        W81561   8.673  42.936   2.417
21817W        W81562  17.070  14.810  14.031
21818W        W81563  27.965  18.204  13.001
21819W        W81564  27.536  14.763   0.475
21820W        W81565   6.321  19.563  13.044
21821W        W81566  43.002   7.187  14.389
21822W        W81567  11.351  42.804   3.692
21823W        W81568   3.830  30.094  14.887
21824W        W81569   8.847   4.441   0.379
21825W        W81570  39.437  44.880  10.458
21826W        W81571  20.165  43.972   2.351
21827W        W81572  41.418  14.618  12.437
21828W        W81573  28.050  34.958   4.642
21829W        W81574  21.240  40.461   3.187
21830W        W81575  10.196  37.085  11.874
21831W        W81576  41.517  23.163  12.371
21832W        W81577   3.387  27.018  11.580
21833W        W81578  43.353  15.156   2.355
21834W        W81579  19.653   2.244   1.695
21835W        W81580  33.982  26.588   4.828
21836W        W81581  35.023  37.521  10.988
21837W        W81582  14.336  16.732  14.379
21838W        W81583  16.721   0.767   2.859
21839W        W81584  21.239  22.152  11.966
21840W        W81585  18.672   4.293   9.638
21841W        W81586  33.930  42.862   3.211
21842W        W81587   6.323  18.160   0.829
21843W        W81588   8.386  25.556   2.727
21844W        W81589  33.596  29.446   1.298
21845W        W81590   0.745  24.528  10.506
21846W        W81591  44.357   6.256   4.752
21847W        W81592   3.916  19.587   0.433
21848W        W81593  34.512  23.673  11.559
21849W        W81594  36.387  11.280   2.691
21850W        W81595  28.661   4.280  10.620
21851W        W81596   0.889  32.936   4.602
21852W        W81597  25.074   2.437  10.623
21853W        W81598  28.518   4.773   3.697
21854W        W81599   5.257  32.952  14.444
21855W        W81600  42.948  15.212   4.246
21856W        W81601  26.611  40.450   1.419
21857W        W81602  26.554  30.024  12.887
21858W        W81603   0.742  25.546   1.744
21859W        W81604  18.244  10.752  12.359
21860W        W81605  34.899   3.341  10.636
21861W        W81606   3.408  35.007  11.492
21862W        W81607  29.460  30.105  11.866
21863W        W81608  20.673  43.285  10.969
21864W        W81609   4.755  15.797   3.713
21865W        W81610  32.414  10.853   4.653
21866W        W81611  44.823  44.412  12.933
21867W        W81612  37.361  36.042   0.395
21868W        W81613   5.884  32.079  14.515
21869W        W81614  25.105  19.646  11.470
21870W        W81615  16.774  15.819   3.335
21871W        W81616   0.257  39.057   4.752
21872W        W81617  41.332  37.941  11.473
21873W        W81618  25.552  37.479   5.310
21874W        W81619  22.634  22.729   1.820
21875W        W81620   8.732  17.231   0.419
21876W        W81621  10.319  16.117  10.455
21877W        W81622  18.274   4.721  11.539
21878W        W81623  29.487  14.147   3.150
21879W        W81624  36.569  30.110   3.745
21880W        W81625  35.941  29.118  14.493
21881W        W81626  15.634  21.685   4.176
21882W        W81627  14.166  19.178  10.628
21883W        W81628  28.988  20.750  12.040
21884W        W81629  22.682   7.230  14.499
21885W        W81630  32.989  34.906  14.978
21886W        W81631  44.430  20.271  12.983
21887W        W81632  13.693  26.077   4.311
21888W        W81633  10.197  22.056   1.284
21889W        W81634  38.868  25.031  13.377
21890W        W81635  44.333   7.323  14.946
21891W        W81636  36.439  42.811  10.036
21892W        W81637  29.087  38.556   2.256
21893W        W81638  30.130  40.366   3.630
21894W        W81639  14.250  15.666  11.055
21895W        W81640   5.208  19.576  14.970
21896W        W81641  35.861  38.420  11.981
21897W        W81642  43.829  40.999  11.393
21898W        W81643  13.747  43.423  12.563
21899W        W81644  25.188  18.735  10.965
21900W        W81645   5.293  19.541   0.461
21901W        W81646  31.602  34.614   0.425
21902W        W81647   5.774  23.602   1.850
21903W        W81648  27.970   2.746   2.248
21904W        W81649  32.495  24.620   2.891
21905W        W81650   8.879   2.416   3.261
21906W        W81651  23.704  17.277  12.856
21907W        W81652   0.890   1.957  11.602
21908W        W81653  26.956  40.331  13.539
21909W        W81654  34.996  33.951  11.052
21910W        W81655  12.349   4.407  13.322
21911W        W81656   5.332  33.559   0.866
21912W        W81657  34.877   6.194  13.810
21913W        W81658  16.170  19.575   4.243
21914W        W81659  27.603   7.348  10.915
21915W        W81660  12.249  18.690   0.801
21916W        W81661   0.293  12.702  13.806
21917W        W81662   3.781  40.943  12.861
21918W        W81663  31.641  37.557   2.813
21919W        W81664  36.347  29.068   1.211
21920W        W81665  21.725  36.084  14.322
21921W        W81666  14.283  33.510   4.303
21922W        W81667  27.960  30.641   3.177
21923W        W81668  43.416   6.256  14.442
21924W        W81669  10.830  15.751   2.899
21925W        W81670   6.187  27.973   4.790
21926W        W81671  39.955   6.388   4.190
21927W        W81672  30.089  20.203  15.000
21928W        W81673   9.755  12.150   4.817
21929W        W81674  29.939  17.210  14.953
21930W        W81675  36.930  27.446  14.278
21931W        W81676  17.573  40.386  10.935
21932W        W81677  26.504  35.516  13.825
21933W        W81678  40.433  43.821  12.995
21934W        W81679  20.217  23.589   2.340
21935W        W81680  14.141  28.648  13.048
21936W        W81681  19.106  13.689   2.810
21937W        W81682  19.206  31.983   1.824
21938W        W81683  40.358   8.348  13.812
21939W        W81684  25.206   0.474  12.409
21940W        W81685  16.087  35.927  12.835
21941W        W81686   6.773  41.443   3.743
21942W        W81687   2.393   6.846   4.257
21943W        W81688  38.344  39.958   3.719
21944W        W81689  17.688   1.257   2.346
21945W        W81690  33.603  44.325  14.882
21946W        W81691  28.183  15.726   1.933
21947W        W81692  19.681  24.593   4.733
21948W        W81693  39.889  37.537  14.935
21949W        W81694  24.671  26.027  11.604
21950W        W81695  11.827  26.570  14.932
21951W        W81696   4.842  28.578   1.437
21952W        W81697  40.916  38.908   3.219
21953W        W81698  27.113  11.212   3.223
21954W        W81699   1.736  16.189   2.405
21955W        W81700  43.944  14.660  11.439
21956W        W81701   0.749   0.772  14.383
21957W        W81702  10.714  41.786   2.814
21958W        W81703  12.152  42.285   1.841
21959W        W81704   7.299  24.053  12.921
21960W        W81705  27.570  10.223   2.343
21961W        W81706   1.852  39.416  12.459
21962W        W81707  16.253  30.430  12.096
21963W        W81708  31.943  11.287   3.209
21964W        W81709   5.277  25.979   3.326
21965W        W81710  17.625  38.945   2.721
21966W        W81711  18.755  23.560   4.223
21967W        W81712  14.316  10.144  11.941
21968W        W81713  33.985  20.630  13.928
21969W        W81714   4.262  31.096   3.755
21970W        W81715   4.759  14.748  11.465
21971W        W81716  31.527  37.887   1.733
21972W        W81717  13.689  12.245  11.095
21973W        W81718  32.907  18.106   2.870
21974W        W81719  32.445  42.867   5.181
21975W        W81720  23.032  40.010   2.757
21976W        W81721  26.499  32.414   2.282
21977W        W81722  18.230  25.053  13.992
21978W        W81723  34.400  40.971  10.939
21979W        W81724  16.097  15.741   4.179
21980W        W81725  28.604   2.280  13.488
21981W        W81726  21.543  44.333   0.367
21982W        W81727  42.355  13.731  11.490
21983W        W81728  37.425   1.823   1.859
21984W        W81729  12.760  36.981  10.428
21985W        W81730  44.924  24.546   4.747
21986W        W81731  16.641  38.461  13.964
21987W        W81732   5.929   8.701  11.106
21988W        W81733  35.383  19.154   2.834
21989W        W81734  30.105  29.037  11.910
21990W        W81735  32.053   1.390  14.990
21991W        W81736  43.978   2.453   0.959
21992W        W81737  11.244  40.889   3.333
21993W        W81738   4.218  42.995   2.199
21994W        W81739  24.558  15.300  12.870
21995W        W81740   7.755  35.870  11.409
21996W        W81741  11.813  28.437  14.405
21997W        W81742  18.577  22.218   4.135
21998W        W81743  41.329  38.548   2.685
21999W        W81744  34.892  18.170  14.796
22000W        W81745  29.141  28.511  11.926
22001W        W81746  19.770   4.829   2.770
22002W        W81747  42.443  17.214   1.852
22003W        W81748  25.053  18.725   0.920
22004W        W81749   0.827  38.404  12.522
22005W        W81750   3.953   7.331   2.270
22006W        W81751  13.800   1.338   0.260
22007W        W81752  44.350  34.415  10.108
22008W        W81753  33.573  24.560   1.241
22009W        W81754  20.065  41.355   4.721
22010W        W81755   8.172  19.222  11.060
22011W        W81756  37.876   9.303   4.612
22012W        W81757  15.197  32.582  12.453
22013W        W81758  27.624  28.583   4.185
22014W        W81759  41.474  43.800   2.903
22015W        W81760  11.680   5.276   2.749
22016W        W81761  44.329  35.946   2.796
22017W        W81762  11.324  14.309   1.705
22018W        W81763  14.718  24.985  14.422
22019W        W81764  17.699  23.090   3.708
22020W        W81765   7.173  20.257  10.619
22021W        W81766  10.865   4.229  11.489
22022W        W81767   2.272  44.406  11.539
22023W        W81768   4.437  38.006   3.847
22024W        W81769  38.922  13.632  14.420
22025W        W81770  11.290  32.074  10.957
22026W        W81771  15.271  20.749  14.437
22027W        W81772  22.565  10.149   3.863
22028W        W81773   3.424   8.667   3.752
22029W        W81774  28.949   8.283   1.284
22030W        W81775  14.739  42.907  11.607
22031W        W81776  38.538  20.654  14.486
22032W        W81777   9.714  17.114  12.908
22033W        W81778   1.381  13.669   2.229
22034W        W81779  40.383  37.581   9.930
22035W        W81780  38.331   2.860  11.031
22036W        W81781  13.138  43.901   1.314
22037W        W81782  38.387  19.213   1.923
22038W        W81783  37.048  17.305  14.919
22039W        W81784  31.522  35.533   0.411
22040W        W81785  11.351   9.351   0.321
22041W        W81786  43.022  24.665   1.319
22042W        W81787  19.077  27.680  12.502
22043W        W81788  11.676   2.923  12.580
22044W        W81789   4.295   3.458   0.438
22045W        W81790  18.096  38.835  12.835
22046W        W81791  28.607   3.913   0.758
22047W        W81792   2.460  12.750   3.277
22048W        W81793  20.557  25.664   4.155
22049W        W81794  42.815   7.289   1.695
22050W        W81795   7.799  42.374  10.591
22051W        W81796  26.683  32.600  12.510
22052W        W81797  16.763  17.216   0.363
22053W        W81798  43.785   4.728  13.059
22054W        W81799  28.679  16.275   2.785
22055W        W81800  39.058  17.637   0.457
22056W        W81801   2.818  33.564  10.489
22057W        W81802  25.674  42.516  14.994
22058W        W81803  19.221  18.178  10.571
22059W        W81804  34.076  29.124   3.193
22060W        W81805   8.193   9.715   0.398
22061W        W81806  26.968   5.317   1.794
22062W        W81807  13.842  19.557   1.904
22063W        W81808  28.186   1.946  13.967
22064W        W81809  42.972  21.067  10.976
22065W        W81810  22.703   3.821  11.952
22066W        W81811   1.352  10.212  14.370
22067W        W81812  33.572  23.505  12.540
22068W        W81813  22.742  32.104   2.277
22069W        W81814  32.417  13.653   0.334
22070W        W81815  37.379  30.035   2.325
22071W        W81816  32.423  27.043  14.432
22072W        W81817  39.461  21.657   3.289
22073W        W81818  25.136  44.880   0.963
22074W        W81819  10.702  43.274   4.812
22075W        W81820  36.887  35.511  14.441
22076W        W81821   2.756  21.028  10.118
22077W        W81822   0.440  32.454  10.054
22078W        W81823  35.922   7.769  11.104
22079W        W81824   9.705   1.803   0.331
22080W        W81825  14.624  19.734   2.277
22081W        W81826  17.594  18.163  11.129
22082W        W81827   1.906  41.338   1.870
22083W        W81828  39.489  20.745   1.443
22084W        W81829  18.209  32.089   1.917
22085W        W81830  35.102  32.993  10.493
22086W        W81831  19.223  32.928  14.810
22087W        W81832  39.986  11.307   1.434
22088W        W81833   1.263  25.012   0.825
22089W        W81834  13.114  40.979  10.978
22090W        W81835   5.704  36.913  13.445
22091W        W81836  30.629  18.728  14.485
22092W        W81837  30.534  23.580   3.757
22093W        W81838  28.159  13.677  12.024
22094W        W81839   6.199  15.213  14.492
22095W        W81840  22.508  30.504  13.415
22096W        W81841  42.019  22.507  12.553
22097W        W81842   6.751  15.786   2.786
22098W        W81843  41.522  31.422   4.698
22099W        W81844  41.351  11.700   4.301
22100W        W81845  37.064   2.320  13.940
22101W        W81846  37.060  13.174  13.039
22102W        W81847  26.998  15.168   5.299
22103W        W81848  25.540   4.746   4.258
22104W        W81849  42.982  30.566   3.654
22105W        W81850  13.256  38.060   2.373
22106W        W81851   2.273  44.354   2.705
22107W        W81852  22.552   1.811  14.795
22108W        W81853  26.605   6.266   2.837
22109W        W81854  20.616  35.885   0.963
22110W        W81855  34.464  29.022  13.804
22111W        W81856  37.513  40.033  12.026
22112W        W81857  10.347  12.754   0.446
22113W        W81858   1.783  20.126   0.772
22114W        W81859   3.859  22.132   1.905
22115W        W81860  40.925   7.853  10.480
22116W        W81861  27.118   6.698   2.673
22117W        W81862  16.077  22.048  10.460
22118W        W81863   9.715  40.408   2.788
22119W        W81864   5.736  27.630  11.890
22120W        W81865  36.525  21.133   4.779
22121W        W81866  25.039  28.578   4.803
22122W        W81867   1.825  15.759  14.319
22123W        W81868  16.163  22.515   1.714
22124W        W81869   3.300  42.985  14.025
22125W        W81870  28.077  11.840   1.717
22126W        W81871  40.413  39.062  13.462
22127W        W81872  13.607  34.079   1.404
22128W        W81873   9.328   3.449  12.055
22129W        W81874   8.702  37.056   3.643
22130W        W81875  18.125  33.461  11.374
22131W        W81876  21.101  37.407   5.081
22132W        W81877  20.629  11.743   4.154
22133W        W81878  15.130  39.487   1.351
22134W        W81879   5.423  10.149  11.054
22135W        W81880  32.896  15.197   4.680
22136W        W81881   3.852  36.448   2.353
22137W        W81882  19.675  29.468  11.383
22138W        W81883  16.790  37.986  13.007
22139W        W81884  19.179   1.946   1.871
22140W        W81885  43.327  16.099   1.838
22141W        W81886  36.070  30.594  11.924
22142W        W81887   4.870  17.208   3.746
22143W        W81888  19.110  42.474  10.552
22144W        W81889  41.310  22.236   1.754
22145W        W81890   0.371  14.261   0.874
22146W        W81891  26.188  38.979  12.543
22147W        W81892  26.675   9.186   4.298
22148W        W81893  34.582  42.943   4.177
22149W        W81894  25.597  16.132  14.772
22150W        W81895  30.046  25.117  14.776
22151W        W81896  26.476  20.116   3.300
22152W        W81897  15.191  31.096   2.756
22153W        W81898  42.938  11.707  11.575
22154W        W81899   0.940  31.149   0.382
22155W        W81900  10.721  13.219  10.407
22156W        W81901  44.908  34.387  12.441
22157W        W81902   1.341  28.531   3.309
22158W        W81903   9.162  26.477   2.881
22159W        W81904  21.154  31.001  12.997
22160W        W81905  10.761  29.650   2.209
22161W        W81906  43.494  18.215   3.745
22162W        W81907   5.784   6.378  11.502
22163W        W81908  14.136   5.865  14.388
22164W        W81909   8.351  19.591   2.280
22165W        W81910  14.628  18.709   2.260
22166W        W81911  27.052   5.296  12.996
22167W        W81912  27.449  12.170   4.161
22168W        W81913  39.533  22.701  13.401
22169W        W81914  42.795   9.811   2.204
22170W        W81915  20.204  14.278   5.604
22171W        W81916  22.728   9.886   3.723
22172W        W81917  28.099  17.631   1.825
22173W        W81918  37.925  43.877   1.316
22174W        W81919   9.689  44.345   4.606
22175W        W81920   1.745  31.110  12.857
22176W        W81921   5.839  12.625   0.306
22177W        W81922  39.370   1.746  13.973
22178W        W81923  31.602  36.554  10.555
22179W        W81924  18.657  11.295  13.950
22180W        W81925   3.907  11.675   3.735
22181W        W81926  11.210  16.188  13.005
22182W        W81927  12.817  15.294  14.810
22183W        W81928  12.752  10.238  13.497
22184W        W81929  10.717   6.682   0.467
22185W        W81930  44.830  27.081   0.781
22186W        W81931  10.165   4.859  11.598
22187W        W81932  17.263  30.943   4.608
22188W        W81933  27.036   9.295  13.842
22189W        W81934  43.977  25.561   4.169
22190W        W81935  22.006  35.415   4.328
22191W        W81936   0.948  33.971  14.017
22192W        W81937  32.094  13.789   2.204
22193W        W81938  10.861  30.932  10.562
22194W        W81939  18.178  29.468   4.833
22195W        W81940  21.614   1.850   0.891
22196W        W81941  35.547   0.940   3.147
22197W        W81942  38.018   5.268   3.704
22198W        W81943  29.638  17.646  14.275
22199W        W81944  29.008  13.822  11.948
22200W        W81945  18.772  32.955  11.859
22201W        W81946   3.253  40.840   3.763
22202W        W81947  33.054  31.456  13.523
22203W        W81948  11.799  33.898   3.285
22204W        W81949   7.760  15.312  12.005
22205W        W81950  17.213  29.122   0.730
22206W        W81951  28.179  10.286   1.419
22207W        W81952   8.234  31.061  13.927
22208W        W81953  36.078  13.808   3.784
22209W        W81954  37.479  21.611  11.977
22210W        W81955  27.503  14.207   1.382
22211W        W81956  30.633  31.088  14.317
22212W        W81957  17.235  25.694  14.760
22213W        W81958   0.449  20.040  13.487
22214W        W81959  35.932  20.111  14.349
22215W        W81960  37.976  25.207   1.697
22216W        W81961  40.464   4.911  11.970
22217W        W81962   8.808   9.286  10.978
22218W        W81963  24.551  24.189  11.416
22219W        W81964  43.881  39.491  14.920
22220W        W81965  42.869   5.321   3.224
22221W        W81966  41.028  40.474  14.397
22222W        W81967   0.794  25.624   0.847
22223W        W81968  31.490  10.653  10.937
22224W        W81969  19.678   4.431   0.861
22225W        W81970   8.261  24.111  14.949
22226W        W81971  16.287   8.187   4.188
22227W        W81972  33.952   9.797   1.756
22228W        W81973  11.171  32.448  14.974
22229W        W81974   3.729   5.437   4.161
22230W        W81975  39.855  36.979  14.377
22231W        W81976  26.100   6.187  12.065
22232W        W81977  26.196  23.086   1.403
22233W        W81978  19.607   7.185  13.432
22234W        W81979   9.737  31.413  11.043
22235W        W81980   7.355  32.514   4.279
22236W        W81981   4.901   8.280  14.500
22237W        W81982  24.131   5.922  11.509
22238W        W81983  23.510   3.217  11.092
22239W        W81984  38.866   2.810  11.963
22240W        W81985  39.892  43.824  12.418
22241W        W81986  25.106  44.271  13.886
22242W        W81987  21.170  10.698   2.736
22243W        W81988  36.845  36.351  12.536
22244W        W81989  37.865  36.939   1.278
22245W        W81990  32.995  20.769  13.805
22246W        W81991  19.538  44.811  12.367
22247W        W81992   3.287   0.801  11.862
22248W        W81993  26.978  14.281   0.382
22249W        W81994  42.492  31.058  13.385
22250W        W81995  29.125  37.042   0.855
22251W        W81996   3.215  27.943  10.424
22252W        W81997  13.723  41.478   3.663
22253W        W81998  20.173  26.082   2.778
22254W        W81999  12.715  27.564   3.162
22255W        W82000   0.456   7.360   0.845
22256W        W82001  12.143  37.912   3.265
22257W        W82002  40.311  21.515   1.823
22258W        W82003  11.259  38.335   4.828
22259W        W82004  24.575  40.470  14.333
22260W        W82005  36.459   8.820  13.487
22261W        W82006  11.232   4.783  13.020
22262W        W82007  43.344  43.374   3.364
22263W        W82008  42.291   4.915  14.405
22264W        W82009   4.755   9.755   5.180
22265W        W82010  10.635  32.130   3.333
22266W        W82011  36.568  22.634   4.651
22267W        W82012   1.349  14.779   3.865
22268W        W82013  39.829  20.274  11.028
22269W        W82014  12.703  42.315  13.885
22270W        W82015  19.098  27.134  10.409
22271W        W82016  15.105   7.385  10.580
22272W        W82017  36.536  27.042   4.601
22273W        W82018  28.960  33.568   3.317
22274W        W82019   7.416   3.915  11.017
22275W        W82020  11.283  24.683  14.916
22276W        W82021  23.702   7.881   1.431
22277W        W82022  10.728  10.276  11.559
22278W        W82023  38.893  18.146  10.528
22279W        W82024  37.964  23.726  12.050
22280W        W82025  11.849   3.805   0.299
22281W        W82026  40.951  23.136  12.510
22282W        W82027   6.353  15.109   4.274
22283W        W82028  35.552  42.450  12.863
22284W        W82029  30.146  29.949   0.756
22285W        W82030   0.808  26.546   1.386
22286W        W82031  27.197   0.252  14.352
22287W        W82032   0.744  39.879   2.282
22288W        W82033   2.230  38.511   5.173
22289W        W82034  25.522  32.603  10.595
22290W        W82035  40.335  12.155   3.722
22291W        W82036  24.605  28.078   1.428
22292W        W82037   6.867  13.770  12.956
22293W        W82038   5.396  35.534  11.509
22294W        W82039  24.578  24.723  13.480
22295W        W82040  43.495  12.317  14.777
22296W        W82041  26.165  24.722  12.975
22297W        W82042  24.646  10.789  14.329
22298W        W82043  10.852  20.040   2.724
22299W        W82044  18.086  24.090   3.227
22300W        W82045  13.313  42.418   3.839
22301W        W82046  20.761  13.178  14.280
22302W        W82047  31.957  40.828   3.768
22303W        W82048  44.410   6.386  11.008
22304W        W82049   0.875  40.857  11.391
22305W        W82050  11.719  35.088   1.782
22306W        W82051  10.845  25.087   2.841
22307W        W82052   8.700  37.534   0.430
22308W        W82053   3.336   3.309  12.572
22309W        W82054  20.621   2.868   0.742
22310W        W82055  42.899  31.060  12.500
22311W        W82056  35.906  14.625  13.793
22312W        W82057  34.000  38.859   0.404
22313W        W82058  21.593  41.339   2.181
22314W        W82059  24.648  16.176  12.831
22315W        W82060   6.796  12.618  11.893
22316W        W82061  34.031  28.543   0.312
22317W        W82062  20.629   1.967   0.857
22318W        W82063  38.528  22.668  12.370
22319W        W82064  15.199  17.125   0.465
22320W        W82065   2.265   5.298   4.705
22321W        W82066  25.096  21.529   1.854
22322W        W82067   1.833  22.684  14.770
22323W        W82068  27.123  43.796   2.690
22324W        W82069  30.424  43.453   3.867
22325W        W82070   4.450  29.976  14.904
22326W        W82071   6.318  21.178  13.355
22327W        W82072  14.724  10.694  11.445
22328W        W82073  17.757  20.581  13.988
22329W        W82074  36.428  11.315  14.347
22330W        W82075   4.388  10.712   2.323
22331W        W82076  38.003  12.618  13.896
22332W        W82077  35.868  29.995   3.824
22333W        W82078  22.618  26.014   0.894
22334W        W82079  25.658  14.096   0.310
22335W        W82080  42.301  23.105   2.789
22336W        W82081  39.021  32.454   5.148
22337W        W82082  39.489  11.839   1.838
22338W        W82083  24.019  11.312   0.795
22339W        W82084  36.963  17.096  10.547
22340W        W82085  25.036   0.829   4.750
22341W        W82086  35.553  14.630   3.205
22342W        W82087  14.254  41.437  12.949
22343W        W82088  39.356  17.069  12.050
22344W        W82089  36.847   7.202   4.760
22345W        W82090  42.802   7.194   3.172
22346W        W82091  20.653  34.920   1.738
22347W        W82092   2.935  42.441  11.998
22348W        W82093  25.706  33.454  14.498
22349W        W82094  29.002   1.477  13.909
22350W        W82095  39.428  15.188   1.313
22351W        W82096   8.729   6.193  14.350
22352W        W82097  18.677  31.405   4.615
22353W        W82098  23.236   0.823  14.856
22354W        W82099  36.537  33.891  12.559
22355W        W82100  26.083   3.956  12.954
22356W        W82101  38.383  37.881   2.389
22357W        W82102  44.505  21.035   4.181
22358W        W82103  25.686  28.031   1.781
22359W        W82104  16.216  26.195   4.256
22360W        W82105   6.397  29.981  12.027
22361W        W82106  16.255  22.142  13.377
22362W        W82107  22.097  17.596  11.991
22363W        W82108  33.546  32.044  10.438
22364W        W82109  34.954   3.324  12.474
22365W        W82110  24.724   7.665  14.902
22366W        W82111  35.984  27.969  14.436
22367W        W82112  33.981   6.750  14.406
22368W        W82113   0.258  14.226   1.326
22369W        W82114  38.451  31.002  13.343
22370W        W82115  11.288  11.748  12.091
22371W        W82116  25.572  27.457   1.433
22372W        W82117   1.889  44.323   2.678
22373W        W82118  43.768  42.460   4.232
22374W        W82119   0.424  23.634  14.491
22375W        W82120  44.887  12.267   4.226
22376W        W82121  43.939  11.819  13.941
22377W        W82122  40.370  21.083   3.303
22378W        W82123  44.452  20.225  14.485
22379W        W82124  10.320  10.636  11.113
22380W        W82125  24.215  44.272  10.911
22381W        W82126   2.463  33.565  11.392
22382W        W82127  28.085   4.246   4.353
22383W        W82128  16.234  28.111  11.604
22384W        W82129  13.828  16.690   1.403
22385W        W82130  24.196   0.777   2.777
22386W        W82131  44.393  15.312  14.511
22387W        W82132  14.295  32.136  14.410
22388W        W82133  21.172  21.617  11.067
22389W        W82134  29.460   5.877   0.434
22390W        W82135  25.016  12.693  12.513
22391W        W82136  12.643  11.779   4.788
22392W        W82137  34.916   4.728  13.369
22393W        W82138  36.416  12.818  11.519
22394W        W82139   3.755  41.397   4.352
22395W        W82140  15.629  44.276   1.900
22396W        W82141  21.542  37.538   2.232
22397W        W82142   7.739  21.582   0.248
22398W        W82143  23.685  22.237  14.346
22399W        W82144  39.335  19.776  10.932
22400W        W82145  32.089   9.735   0.914
22401W        W82146  28.675  30.124  10.446
22402W        W82147  18.751  17.071  13.447
22403W        W82148  39.380  16.637   0.756
22404W        W82149  15.626  26.165  10.626
22405W        W82150  37.557  40.308   1.324
22406W        W82151  10.865  35.865   3.821
22407W        W82152  24.155  34.561  13.874
22408W        W82153  29.174  11.166  14.408
22409W        W82154  25.523  25.684   4.641
22410W        W82155  15.241  22.607  14.386
22411W        W82156   7.906  28.585  13.058
22412W        W82157  30.954  21.182  13.974
22413W        W82158  18.719  13.310   3.749
22414W        W82159  31.494  25.146   3.683
22415W        W82160   6.685   8.360   3.356
22416W        W82161  28.132  27.169  11.407
22417W        W82162  44.299  27.120  13.496
22418W        W82163  17.106  37.017  10.141
22419W        W82164  27.461  19.285  13.379
22420W        W82165   7.281  28.066   0.758
22421W        W82166  13.664  37.548  14.425
22422W        W82167   1.292  34.527   0.313
22423W        W82168  26.999  35.392   4.683
22424W        W82169   4.261  14.823   0.448
22425W        W82170  21.603   6.310   2.346
22426W        W82171  43.281   2.237   4.723
22427W        W82172  37.013  20.641   0.743
22428W        W82173  16.272  38.431   4.754
22429W        W82174  21.748  20.606   2.404
22430W        W82175   5.436  39.460  13.821
22431W        W82176  24.545   0.423   2.847
22432W        W82177  19.202  27.682  12.867
22433W        W82178  13.276  28.519   1.313
22434W        W82179   3.218  36.381  13.003
22435W        W82180  13.147  20.250   4.814
22436W        W82181  15.649  25.994  13.471
22437W        W82182  18.196  10.379  13.450
22438W        W82183   8.850  24.665  12.024
22439W        W82184  16.767  23.143  12.355
22440W        W82185   1.854   7.744  10.607
22441W        W82186  43.373   7.296   3.285
22442W        W82187  11.796  20.713   1.811
22443W        W82188  19.556  32.549  12.972
22444W        W82189  15.231  27.581   0.757
22445W        W82190  22.011  30.992  14.914
22446W        W82191   8.371  33.934  11.858
22447W        W82192  19.713   2.773  10.569
22448W        W82193  12.804  31.997  13.453
22449W        W82194  38.035  28.157   2.771
22450W        W82195  29.529   3.374  14.365
22451W        W82196   7.680  40.856  12.069
22452W        W82197   4.382   5.413   1.405
22453W        W82198  24.710  24.520  11.882
22454W        W82199  41.802  42.450  12.856
22455W        W82200  14.706  43.495   4.276
22456W        W82201  18.088  44.309  10.468
22457W        W82202   8.228  21.088   1.243
22458W        W82203   8.790  28.601  13.410
22459W        W82204  10.176  44.404  11.125
22460W        W82205  28.605  38.983  14.317
22461W        W82206  27.587  17.756  13.424
22462W        W82207  23.015  26.097   0.373
22463W        W82208  18.591  38.437  14.867
22464W        W82209  18.544  43.371   3.745
22465W        W82210  15.814  43.502  14.505
22466W        W82211  16.290  22.686  13.058
22467W        W82212  29.494  44.488  14.422
22468W        W82213  40.459  39.860  13.871
22469W        W82214  42.408  13.234  14.944
22470W        W82215   3.918  19.265  11.919
22471W        W82216  20.695  34.990  11.371
22472W        W82217   7.695  18.115  10.989
22473W        W82218  11.680  31.630  14.965
22474W        W82219  27.483  14.640  11.947
22475W        W82220  13.651   1.274   1.285
22476W        W82221  31.573   4.438   2.229
22477W        W82222  35.426  25.534   1.313
22478W        W82223  13.340  42.463  12.574
22479W        W82224  21.166  41.435   3.710
22480W        W82225  25.157  16.309  11.569
22481W        W82226  23.026  33.607  14.409
22482W        W82227  32.522  41.471   2.783
22483W        W82228   2.342   1.416  12.576
22484W        W82229   1.314  43.320   0.450
22485W        W82230   6.883  39.916   1.822
22486W        W82231  13.230  44.944   2.184
22487W        W82232  44.430  38.378  13.365
22488W        W82233  40.895  39.381  14.985
22489W        W82234  21.043  10.798   1.866
22490W        W82235   1.397  20.152   1.869
22491W        W82236   2.329  31.136   4.134
22492W        W82237   1.306  33.610   3.382
22493W        W82238  32.912  14.146  14.504
22494W        W82239  26.204   0.978  10.514
22495W        W82240   0.777  33.882  12.533
22496W        W82241  27.007   6.369   2.413
22497W        W82242  41.838   0.277   0.426
22498W        W82243   4.365  28.990  12.363
22499W        W82244  40.054  21.537  14.885
22500W        W82245  31.530   6.826  10.501
22501W        W82246  11.341  17.782  13.317
22502W        W82247   7.802  20.143   3.382
22503W        W82248  20.617  35.542  12.828
22504W        W82249  13.128  26.037   1.933
22505W        W82250  30.546   8.303  12.060
22506W        W82251  24.163  27.057   2.836
22507W        W82252   0.448   0.897   0.740
22508W        W82253  44.968  39.888   2.415
22509W        W82254  36.486  39.503  12.453
22510W        W82255  36.939  32.533  13.813
22511W        W82256   4.223   4.320  10.509
22512W        W82257  25.205  29.588   4.258
22513W        W82258  22.535   8.380  13.062
22514W        W82259  41.851  14.261  13.333
22515W        W82260   7.388   0.379   3.356
22516W        W82261   5.236  25.102  12.528
22517W        W82262   4.229  15.093  10.506
22518W        W82263  33.584  32.546  10.068
22519W        W82264   3.427  44.355   2.872
22520W        W82265  30.605  22.152   2.209
22521W        W82266   3.296   6.202  10.926
22522W        W82267  11.353  29.443  13.006
22523W        W82268   1.360  37.414  12.906
22524W        W82269   4.261  35.366  12.857
22525W        W82270   8.853  41.333   3.786
22526W        W82271   5.860   3.760  13.842
22527W        W82272  37.410  37.943  11.513
22528W        W82273  32.627   4.731  12.958
22529W        W82274  44.353   9.685  13.851
22530W        W82275  14.622  35.926   1.297
22531W        W82276  42.431   2.821  13.543
22532W        W82277  27.457  10.249  14.029
22533W        W82278  41.346  30.048   3.231
22534W        W82279  31.630   0.278  11.936
22535W        W82280  44.421  28.939  14.445
22536W        W82281   1.764  42.829  11.429
22537W        W82282  23.212  30.148  13.493
22538W        W82283   2.924   5.258   0.800
22539W        W82284  33.987  10.875  11.024
22540W        W82285   9.209  28.097   0.323
22541W        W82286  34.929  29.097   4.325
22542W        W82287  18.697   9.881   2.190
22543W        W82288   6.259  33.040   0.923
22544W        W82289  40.427  32.059  14.289
22545W        W82290  10.146  32.106  14.454
22546W        W82291  33.429  23.000  12.556
22547W        W82292  44.500  44.802  13.389
22548W        W82293   4.364  31.915   4.660
22549W        W82294   7.726  31.134  13.323
22550W        W82295   9.749  33.386  10.526
22551W        W82296   5.742  35.896   1.725
22552W        W82297   4.857  39.471   1.245
22553W        W82298   6.395  25.165  11.054
22554W        W82299  24.491  41.008   1.253
22555W        W82300  43.880  19.195  14.475
22556W        W82301  21.149  12.178  14.967
22557W        W82302  33.100   7.392  13.421
22558W        W82303  38.011  39.936   4.683
22559W        W82304  16.097  25.981  14.323
22560W        W82305  21.037  17.162   2.780
22561W        W82306  12.785  27.017   4.696
22562W        W82307  41.412  20.654  13.850
22563W        W82308  23.634  12.223  11.417
22564W        W82309   1.465  27.021   3.387
22565W        W82310   8.714  23.078   2.209
22566W        W82311   1.318  41.418   2.183
22567W        W82312   1.443   5.892   0.332
22568W        W82313   4.206  35.500  10.951
22569W        W82314  31.127  10.273  11.896
22570W        W82315  10.167  43.277   0.435
22571W        W82316  16.595  36.405   1.719
22572W        W82317   6.862  18.737   0.408
22573W        W82318  42.930  43.276  13.322
22574W        W82319  38.526  19.252  10.563
22575W        W82320  22.141  26.657   0.880
22576W        W82321  25.129  44.807   1.308
22577W        W82322   0.255  32.555  10.948
22578W        W82323   5.410   0.396   0.737
22579W        W82324  19.608   6.770   1.714
22580W        W82325  43.959  22.214   1.739
22581W        W82326   1.755  10.664  14.849
22582W        W82327  11.729   7.265  12.883
22583W        W82328   7.176  13.200  14.413
22584W        W82329  19.213   6.782  10.889
22585W        W82330   0.388  37.855   3.257
22586W        W82331  20.750   2.753  14.491
22587W        W82332  23.090  31.066   1.698
22588W        W82333  31.593  38.964   4.824
22589W        W82334  24.494  25.177   3.698
22590W        W82335   1.289  24.486   2.326
22591W        W82336  43.386  43.344  11.879
22592W        W82337   3.845   1.881   5.100
22593W        W82338  12.747   0.804   3.322
22594W        W82339  14.738  23.700   4.266
22595W        W82340  34.899  26.980   1.706
22596W        W82341  13.660   9.378   3.316
22597W        W82342   4.815  24.543  11.942
22598W        W82343  24.089  10.381  10.929
22599W        W82344   0.927  26.533   0.731
22600W        W82345  41.293  43.426  14.920
22601W        W82346  34.372  35.429  10.619
22602W        W82347   8.232  35.072   3.752
22603W        W82348   7.773  32.411  14.390
22604W        W82349  29.488  39.922   2.291
22605W        W82350  44.377   1.474  10.926
22606W        W82351  37.467  44.274  11.044
22607W        W82352  13.271  30.059  11.549
22608W        W82353  29.981  27.643   4.191
22609W        W82354  13.633  26.532   2.273
22610W        W82355  33.487  12.212   1.741
22611W        W82356  36.943   6.349  10.572
22612W        W82357  28.031   2.295  12.869
22613W        W82358  35.064  21.101   4.209
22614W        W82359  10.196  18.132   3.249
22615W        W82360  29.166  36.454  13.032
22616W        W82361  19.199  24.678  14.787
22617W        W82362   7.174   1.378  13.902
22618W        W82363  29.548   8.859  13.498
22619W        W82364  13.296  12.755  12.349
22620W        W82365  21.647  34.420  11.990
22621W        W82366  24.556  21.260   0.417
22622W        W82367  27.456  11.279   2.862
22623W        W82368   6.864  24.098   0.835
22624W        W82369  29.483  25.178   5.250
22625W        W82370  21.719   9.720   2.182
22626W        W82371  10.212  41.820  13.944
22627W        W82372  41.520  36.854  13.447
22628W        W82373   8.372  28.476  10.620
22629W        W82374  41.492  12.783   0.383
22630W        W82375  19.751  12.177  11.409
22631W        W82376  37.469  21.127  11.128
22632W        W82377  33.985  24.640   4.729
22633W        W82378  21.668  18.674   2.716
22634W        W82379  28.933  43.854   4.225
22635W        W82380   4.889  27.554   0.822
22636W        W82381  37.455  41.413  14.952
22637W        W82382  19.715  43.974  13.931
22638W        W82383  29.655  14.133   4.799
22639W        W82384   1.848  25.148   4.768
22640W        W82385  22.182  34.056  12.846
22641W        W82386   3.857  24.994   2.254
22642W        W82387  41.514  18.601  14.818
22643W        W82388  16.707  25.614  13.015
22644W        W82389  22.110  16.080   2.307
22645W        W82390  19.774  27.605  13.963
22646W        W82391  35.946  42.342   1.882
22647W        W82392  25.083  13.215  13.823
22648W        W82393  34.433  11.759  11.021
22649W        W82394  10.262  16.150  13.820
22650W        W82395   8.190  44.377   2.347
22651W        W82396  37.496  16.102   4.778
22652W        W82397  36.003  31.076   4.694
22653W        W82398  20.101  25.193  14.514
22654W        W82399  42.358   1.323   0.269
22655W        W82400  41.527  26.498  13.518
22656W        W82401  28.073   1.950  12.944
22657W        W82402  27.194  38.011   4.676
22658W        W82403   3.460  42.829  12.019
22659W        W82404  29.975  44.379   3.768
22660W        W82405  41.437  32.920  11.050
22661W        W82406  20.665  38.564  14.508
22662W        W82407  38.548   5.911   4.684
22663W        W82408  41.505  14.656  14.804
22664W        W82409  10.729   2.459   0.729
22665W        W82410  13.752  19.159   3.747
22666W        W82411  24.149  13.221   2.210
22667W        W82412  42.858  14.299   0.412
22668W        W82413  37.549   2.821   4.610
22669W        W82414   5.413  29.617   2.179
22670W        W82415  42.321  16.234  12.949
22671W        W82416   3.366  23.503   2.357
22672W        W82417  21.659   7.828   2.288
22673W        W82418  23.530   3.267   0.908
22674W        W82419   5.436   2.950  13.423
22675W        W82420  35.427  40.325  14.822
22676W        W82421  41.898  38.845   0.330
22677W        W82422   3.355  12.769   3.868
22678W        W82423  22.661   2.850   2.737
22679W        W82424   2.941   4.427   1.722
22680W        W82425   8.279  24.046  14.314
22681W        W82426  14.679  10.303  14.296
22682W        W82427   7.859  32.628  11.102
22683W        W82428  33.617  29.152  10.041
22684W        W82429   7.397   0.986   2.729
22685W        W82430  15.222  33.457   3.657
22686W        W82431   0.353  33.047   2.196
22687W        W82432  38.353  14.653   2.414
22688W        W82433   9.826  10.382   4.196
22689W        W82434  16.698  11.798   1.843
22690W        W82435  37.418  26.008  13.400
22691W        W82436  25.695  43.868  12.355
22692W        W82437   2.276  41.912   1.694
22693W        W82438  10.829   4.250   4.780
22694W        W82439  27.093  11.337  10.978
22695W        W82440  39.436  33.927   1.891
22696W        W82441  19.725  36.060   0.358
22697W        W82442  25.128  43.481  10.475
22698W        W82443  10.773  34.380  13.834
22699W        W82444   1.405  13.714   4.179
22700W        W82445  32.963  39.424   1.876
22701W        W82446  44.856   5.874   2.827
22702W        W82447  38.051  25.204  10.513
22703W        W82448  41.971  44.409   0.771
22704W        W82449  37.501  40.935   3.675
22705W        W82450  26.967  18.746   3.822
22706W        W82451  37.414  37.873   3.688
22707W        W82452  14.215  16.197   4.669
22708W        W82453  15.245   4.378   4.350
22709W        W82454  41.979  30.497  11.917
22710W        W82455  25.982   6.852  13.527
22711W        W82456  38.471  23.699   1.307
22712W        W82457   2.419  31.975   0.848
22713W        W82458  31.046  24.656   0.891
22714W        W82459  30.975  13.844   4.777
22715W        W82460  28.593  16.676  12.078
22716W        W82461  32.601   6.312   1.412
22717W        W82462  36.883   3.806   2.802
22718W        W82463  39.443  38.428  13.031
22719W        W82464  30.529   6.274  10.525
22720W        W82465  32.014  21.732   1.263
22721W        W82466   5.222  19.745  12.360
22722W        W82467  36.930   5.832  13.445
22723W        W82468   0.320  30.070   1.790
22724W        W82469  30.575  18.608  14.902
22725W        W82470  22.136  25.197  12.386
22726W        W82471   2.775   8.271  10.995
22727W        W82472  30.105  39.884  13.321
22728W        W82473  42.507  14.636   1.709
22729W        W82474  24.036  16.637  12.835
22730W        W82475  17.261  32.143  10.543
22731W        W82476   5.881  23.023   2.894
22732W        W82477  25.602   8.897   0.862
22733W        W82478  38.564  32.065   4.653
22734W        W82479  24.177  39.468   0.312
22735W        W82480   8.768  21.583   3.649
22736W        W82481  29.547  37.361   0.291
22737W        W82482  22.162  28.030   4.676
22738W        W82483  24.489  36.943   0.289
22739W        W82484  22.113   8.659  13.539
22740W        W82485  29.154  34.579  13.438
22741W        W82486   0.436  34.872   2.370
22742W        W82487  24.569  29.534  14.003
22743W        W82488  23.507  26.499   0.912
22744W        W82489  41.959  13.188   0.290
22745W        W82490  25.544  20.619  10.982
22746W        W82491   6.784  27.671   4.637
22747W        W82492  33.452  41.964  12.029
22748W        W82493  44.985  32.474  10.904
22749W        W82494  23.560  18.610  13.968
22750W        W82495   5.818  25.036  14.394
22751W        W82496  30.594  29.471   2.189
22752W        W82497   0.816  19.248  10.031
22753W        W82498  20.039  17.208  11.392
22754W        W82499  24.190  31.947   0.796
22755W        W82500  11.266  36.555   0.432
22756W        W82501  23.038  19.126   4.140
22757W        W82502   0.923  10.292   2.300
22758W        W82503  41.490   4.422   4.803
22759W        W82504  11.654  40.840  13.355
22760W        W82505  34.988  18.622   5.767
22761W        W82506  28.168  11.718  13.513
22762W        W82507   4.851  22.643  14.023
22763W        W82508  32.574  21.659  13.953
22764W        W82509  44.467   2.881   3.177
22765W        W82510  24.082  33.387   0.831
22766W        W82511  21.121  26.964   2.178
22767W        W82512  41.958  31.920   4.809
22768W        W82513  41.302  25.214  10.989
22769W        W82514   1.416  36.490   2.231
22770W        W82515  14.595  44.920  11.515
22771W        W82516  30.449  10.798   1.432
22772W        W82517  12.238  28.034  14.498
22773W        W82518   6.323  33.576  13.947
22774W        W82519  21.234  41.886  12.407
22775W        W82520   9.180  21.529  12.573
22776W        W82521   2.270   8.168   4.320
22777W        W82522  21.226   0.314   2.355
22778W        W82523  19.249  10.322   4.746
22779W        W82524   2.370  10.740   1.355
22780W        W82525   1.761  32.531   3.370
22781W        W82526  42.525  37.904   0.315
22782W        W82527  24.002  23.173   2.205
22783W        W82528  40.451  29.974   4.306
22784W        W82529  43.278   4.886  13.022
22785W        W82530  32.405  15.616  10.515
22786W        W82531  34.909  30.611  14.953
22787W        W82532  36.989  32.902   0.893
22788W        W82533  39.050  23.629   2.360
22789W        W82534   3.314  35.477   1.253
22790W        W82535   5.721  17.666   1.372
22791W        W82536  26.529  16.684  10.980
22792W        W82537  33.958  28.179   3.728
22793W        W82538  43.884  44.498   3.786
22794W        W82539  28.039   7.835  12.394
22795W        W82540   6.343  13.129  11.862
22796W        W82541  17.250  12.271  13.313
22797W        W82542  39.940   7.280   0.864
22798W        W82543  33.504  28.589   2.821
22799W        W82544  39.502  18.050  14.855
22800W        W82545  12.650  12.698  10.486
22801W        W82546   2.236  40.303   4.712
22802W        W82547  34.404   0.344   1.438
22803W        W82548  16.180  30.021  10.437
22804W        W82549  26.679  43.019  10.000
22805W        W82550  33.067  38.546  13.371
22806W        W82551  25.003  40.986  10.622
22807W        W82552   1.857   4.361  14.456
22808W        W82553  39.890  31.402   4.788
22809W        W82554   0.838   6.335   4.281
22810W        W82555  26.638  13.151  10.116
22811W        W82556   7.192  13.348  14.018
22812W        W82557   5.237   8.873  14.343
22813W        W82558  37.946  10.280   0.811
22814W        W82559  19.658  29.109  13.419
22815W        W82560  44.385   7.870   0.838
22816W        W82561   1.343  23.058  11.020
22817W        W82562  40.490  39.830   0.450
22818W        W82563   4.277   4.436   4.280
22819W        W82564  21.108  22.513  11.113
22820W        W82565  14.300  37.532   0.454
22821W        W82566  10.162  10.376   1.898
22822W        W82567   6.362  30.552   4.283
22823W        W82568  29.566  19.081  14.894
22824W        W82569   4.255  18.164  11.964
22825W        W82570  23.588  33.621   2.747
22826W        W82571  34.472  43.412  12.567
22827W        W82572  20.566   7.880   4.189
22828W        W82573  42.778  11.175  10.596
22829W        W82574  30.646  23.083   4.264
22830W        W82575  35.422  33.462   0.832
22831W        W82576  26.074  15.681   4.122
22832W        W82577  15.203  31.083  12.389
22833W        W82578  19.731  13.807  12.353
22834W        W82579  15.767  17.721   4.680
22835W        W82580  24.631  26.563   2.382
22836W        W82581  34.070  26.130   0.802
22837W        W82582  30.475  27.948  12.083
22838W        W82583  28.533  43.956   2.322
22839W        W82584  38.368  31.077   2.836
22840W        W82585  36.874   2.874  10.492
22841W        W82586  12.831  11.290  12.074
22842W        W82587   4.741  12.348   2.688
22843W        W82588   6.759  26.087  12.074
22844W        W82589  22.123   6.921   2.855
22845W        W82590  20.166   7.883   3.765
22846W        W82591   5.235  12.229  11.400
22847W        W82592  14.800  25.193   3.351
22848W        W82593  34.525  22.226  10.980
22849W        W82594  19.187  12.796  14.896
22850W        W82595  43.373  20.672  10.943
22851W        W82596   4.820  17.247  13.942
22852W        W82597   6.700   3.293  14.373
22853W        W82598  40.473  40.965   1.703
22854W        W82599  42.004  44.379   1.300
22855W        W82600  14.206  24.622   1.370
22856W        W82601  28.530  29.167   5.743
22857W        W82602  11.645   9.221  13.370
22858W        W82603   7.752  38.002   4.721
22859W        W82604   7.898  16.303  10.925
22860W        W82605  30.628  32.582  12.852
22861W        W82606  13.310  30.078   4.681
22862W        W82607  36.991  27.633  10.935
22863W        W82608  18.758  40.004   0.786
22864W        W82609  14.652  38.477  10.052
22865W        W82610  12.798   8.193   1.857
22866W        W82611   2.895  20.165   0.384
22867W        W82612   0.927  28.980   2.711
22868W        W82613  23.725  44.863  13.956
22869W        W82614  40.422  38.386  11.398
22870W        W82615  34.039  31.062  12.083
22871W        W82616  39.018   3.262   1.424
22872W        W82617   5.847  13.600  12.936
22873W        W82618  27.615  27.467  12.504
22874W        W82619  23.036  24.148  11.917
22875W        W82620   3.402   7.292  12.427
22876W        W82621  19.273  10.290   0.787
22877W        W82622  38.547  38.427   0.752
22878W        W82623  29.134  42.451  14.467
22879W        W82624  26.200  36.077   2.236
22880W        W82625   7.724  41.292  13.882
22881W        W82626   0.857  15.783   3.780
22882W        W82627  38.346  43.948  12.916
22883W        W82628  12.335  32.012   2.701
22884W        W82629  42.457   4.267   4.290
22885W        W82630   5.696  35.093   0.926
22886W        W82631  14.670  33.939  13.513
22887W        W82632  13.328  36.539   0.890
22888W        W82633  43.420  13.255   2.823
22889W        W82634  41.367  41.400   0.850
22890W        W82635  28.938  23.564  13.048
22891W        W82636   9.846  32.492  14.006
22892W        W82637  16.169  43.821   3.640
22893W        W82638  14.787  38.025   5.167
22894W        W82639   9.721  10.146  11.000
22895W        W82640  31.508   2.274   0.423
22896W        W82641  29.095  25.145  11.447
22897W        W82642   4.844  31.409   2.848
22898W        W82643  29.997  16.572   3.249
22899W        W82644  19.114  29.514   2.319
22900W        W82645  14.778  41.956  12.399
22901W        W82646  34.078  42.837  14.841
22902W        W82647  42.919  17.222   3.329
22903W        W82648  13.279   9.683   2.698
22904W        W82649   4.846  30.435  11.038
22905W        W82650  24.201  17.791  11.875
22906W        W82651  35.402  38.822   1.925
22907W        W82652   1.323  23.229  14.482
22908W        W82653   3.793   0.852  12.418
22909W        W82654   2.455  36.435  11.007
22910W        W82655  39.410   6.829   2.225
22911W        W82656   9.353  34.372   3.746
22912W        W82657   4.931  25.050  13.009
22913W        W82658  44.470  32.558   0.824
22914W        W82659  18.133  31.493   0.427
22915W        W82660  28.532  38.484   0.247
22916W        W82661  19.737  36.060   0.963
22917W        W82662  10.249  21.612   0.473
22918W        W82663  15.800  28.990  13.825
22919W        W82664  44.441  21.242  14.798
22920W        W82665  37.990  31.027   1.932
22921W        W82666  18.650  32.595   4.699
22922W        W82667  39.341  17.682  11.949
22923W        W82668   0.759   7.845   4.215
22924W        W82669  21.632   3.890   2.868
22925W        W82670  28.084   6.825  12.573
22926W        W82671  20.227  14.309   2.290
22927W        W82672   7.411  22.007  13.491
22928W        W82673  27.966   2.382  14.900
22929W        W82674  11.824  28.529   0.407
22930W        W82675   8.794   9.818   4.205
22931W        W82676  38.826  41.334   4.205
22932W        W82677  34.502  20.118   3.644
22933W        W82678   8.808  25.524  10.997
22934W        W82679  24.223  14.767   2.706
22935W        W82680  15.234   7.837   3.713
22936W        W82681  27.669  38.437   4.122
22937W        W82682  18.065  12.687  13.481
22938W        W82683  33.902  26.999   0.406
22939W        W82684  21.107  42.916  11.540
22940W        W82685   9.752  16.569   3.797
22941W        W82686   3.415  29.503   2.407
22942W        W82687  27.071  36.468   2.856
22943W        W82688  36.420  27.633  12.518
22944W        W82689  42.014  34.003   2.749
22945W        W82690   2.885  15.124  10.568
22946W        W82691  39.468  13.790  13.375
22947W        W82692   7.274  23.133   1.213
22948W        W82693   0.968  24.502  11.417
22949W        W82694  32.110  15.707  10.028
22950W        W82695  44.805  26.592  14.928
22951W        W82696  42.477  26.505  13.490
22952W        W82697  18.644   4.266   4.254
22953W        W82698  19.054   5.332   9.922
22954W        W82699  11.841  28.043   3.735
22955W        W82700  35.058  29.622  13.029
22956W        W82701  32.521  30.001  10.951
22957W        W82702   7.341  22.605   3.821
22958W        W82703   0.294  33.006  11.029
22959W        W82704  44.794  44.940   1.368
22960W        W82705  13.621  11.153   3.184
22961W        W82706  38.517   3.886   0.898
22962W        W82707   0.909  39.362   3.201
22963W        W82708  35.987  31.068  14.503
22964W        W82709   7.773  17.774   2.262
22965W        W82710   2.406  10.811  12.081
22966W        W82711  29.122  21.575   0.769
22967W        W82712  28.618  21.114   3.214
22968W        W82713  33.066  26.595  11.495
22969W        W82714  19.604  24.098   0.778
22970W        W82715  32.457   2.823  14.766
22971W        W82716  17.191   4.273  14.861
22972W        W82717  21.147  33.425   2.297
22973W        W82718  24.183   5.877  14.384
22974W        W82719  23.508  35.435  10.608
22975W        W82720  27.073  34.552   4.751
22976W        W82721  20.125  39.900  12.900
22977W        W82722   0.419  26.176  12.532
22978W        W82723  42.846  17.151  11.871
22979W        W82724   5.395   5.688   3.778
22980W        W82725  14.711   1.811   3.741
22981W        W82726  26.981   9.867   2.368
22982W        W82727   0.865  20.760  13.960
22983W        W82728  14.154  30.976  13.512
22984W        W82729  11.803  22.181  12.470
22985W        W82730   9.728  32.598   4.828
22986W        W82731  14.694  12.786  13.324
22987W        W82732  30.097  17.075  11.598
22988W        W82733  30.464   2.229  11.543
22989W        W82734  39.926  13.605   4.617
22990W        W82735  34.511  39.053   1.247
22991W        W82736  33.075  14.772  11.049
22992W        W82737  14.338  39.430  14.860
22993W        W82738  11.286  39.995  12.489
22994W        W82739   1.841  14.705   2.735
22995W        W82740  34.380  27.153  11.603
22996W        W82741   8.281  23.002   4.832
22997W        W82742   8.858  12.748  12.962
22998W        W82743  33.070  22.526   2.232
22999W        W82744  37.508   1.389  11.091
23000W        W82745  35.879   2.315   1.307
23001W        W82746  41.835  23.512  14.318
23002W        W82747  43.439  34.578  13.061
23003W        W82748  44.958  33.442   3.305
23004W        W82749  28.551  43.983  14.871
23005W        W82750  25.004  43.345  12.907
23006W        W82751  11.710  13.649  14.001
23007W        W82752  12.635   4.286   4.836
23008W        W82753   2.936  38.938   2.689
23009W        W82754   5.299  32.022   0.267
23010W        W82755  25.126   7.907   0.935
23011W        W82756  38.445  31.461   2.285
23012W        W82757  35.366  27.165   0.265
23013W        W82758  43.002  14.655  12.557
23014W        W82759  31.138  39.005   2.827
23015W        W82760  22.139  25.190   3.699
23016W        W82761  22.648   8.728  14.879
23017W        W82762  17.071  11.759   0.934
23018W        W82763   4.740  29.944  10.546
23019W        W82764  27.515  27.601   1.428
23020W        W82765  14.209  30.092   0.318
23021W        W82766   9.178  20.690  10.498
23022W        W82767   8.804  39.427   1.384
23023W        W82768  12.139   3.265   1.921
23024W        W82769  29.488  19.612   0.369
23025W        W82770  28.483  22.653  14.760
23026W        W82771  44.459  30.974   3.651
23027W        W82772  40.363  13.680  13.799
23028W        W82773   1.418  18.122  12.482
23029W        W82774  40.351  41.017   3.322
23030W        W82775  29.432  39.884   0.812
23031W        W82776  28.591  31.140   1.813
23032W        W82777  14.626  19.206   4.740
23033W        W82778  35.364  20.655   2.255
23034W        W82779  34.908  13.719  13.058
23035W        W82780  29.143  33.409   2.232
23036W        W82781  44.925  41.359   2.408
23037W        W82782   6.797  25.074   5.312
23038W        W82783  38.523  25.703   4.661
23039W        W82784  22.246  27.522   3.254
23040W        W82785  31.463  38.472  12.441
23041W        W82786  23.070   7.400   2.681
23042W        W82787   1.471  17.572  13.336
23043W        W82788   4.726  40.400   1.371
23044W        W82789  22.639  43.501  10.969
23045W        W82790  12.641   0.825  11.386
23046W        W82791  18.582  40.809   0.933
23047W        W82792  37.021  10.337  13.853
23048W        W82793  36.448  24.705  11.030
23049W        W82794  34.552  44.909  13.028
23050W        W82795  32.465  35.918   3.813
23051W        W82796  38.847  18.293   4.318
23052W        W82797  22.105  35.411   4.744
23053W        W82798  33.968  33.045  14.011
23054W        W82799  36.523  20.229   1.433
23055W        W82800   1.922  21.690  12.995
23056W        W82801  43.447  25.071  12.006
23057W        W82802  19.634   1.776   9.623
23058W        W82803  40.380  32.418   3.230
23059W        W82804   3.331  13.603  12.483
23060W        W82805   5.728  43.809  11.513
23061W        W82806  35.032  12.611   0.470
23062W        W82807  36.022  28.071   2.416
23063W        W82808  43.809  41.405  11.410
23064W        W82809  11.818  23.020   2.215
23065W        W82810  12.668  33.877  11.573
23066W        W82811  28.096  21.546  13.871
23067W        W82812  36.035  17.685   3.246
23068W        W82813   9.263  32.926  12.405
23069W        W82814  18.180   3.731   9.556
23070W        W82815   3.719  23.571  10.644
23071W        W82816  11.679  20.705  12.938
23072W        W82817  44.983  44.935  12.976
23073W        W82818  21.071  24.582   1.279
23074W        W82819  24.725  32.436   2.312
23075W        W82820   3.366  33.567  12.539
23076W        W82821  44.002  40.525  13.343
23077W        W82822   9.341  28.073   2.673
23078W        W82823  42.327  41.917  13.060
23079W        W82824  40.989  33.969  13.871
23080W        W82825  26.081  29.146  11.551
23081W        W82826  42.312  26.105   4.281
23082W        W82827  26.500  43.454   0.836
23083W        W82828  33.449   1.764  13.878
23084W        W82829   1.278  42.423  12.078
23085W        W82830  33.417  23.615  11.381
23086W        W82831   2.951  41.817  12.438
23087W        W82832  44.432  37.048   3.151
23088W        W82833  21.088  26.676   3.859
23089W        W82834  20.602   3.452  14.449
23090W        W82835   8.275  14.824  14.928
23091W        W82836  19.638  20.542   3.733
23092W        W82837   1.459  10.307   0.349
23093W        W82838   5.909  11.166  13.861
23094W        W82839   8.876  17.774  11.019
23095W        W82840  30.649  13.230  12.862
23096W        W82841  23.668  37.878   2.796
23097W        W82842  22.728  25.612   1.839
23098W        W82843  40.981  10.632  11.513
23099W        W82844  41.455  27.515  11.960
23100W        W82845  14.778   6.746  13.891
23101W        W82846  28.599   7.202  13.024
23102W        W82847  13.343   5.709  12.373
23103W        W82848  15.798  18.205  12.843
23104W        W82849   5.358  38.479  13.444
23105W        W82850   9.164  25.591  13.880
23106W        W82851  32.016  38.955  10.966
23107W        W82852  21.725  42.886  12.073
23108W        W82853  35.538   2.288   4.144
23109W        W82854   1.961  38.930   1.254
23110W        W82855  21.241  39.328  12.995
23111W        W82856  25.053   4.294   1.752
23112W        W82857  10.283  19.668  12.346
23113W        W82858  26.697  13.209  12.997
23114W        W82859  34.464  44.303  14.763
23115W        W82860   7.675  15.192  13.530
23116W        W82861  15.667  19.188  13.832
23117W        W82862  20.627   0.379  13.934
23118W        W82863   7.221  19.244  14.816
23119W        W82864  13.668  42.352  13.000
23120W        W82865  15.270  38.069   0.447
23121W        W82866   5.371  22.511   2.831
23122W        W82867  33.051  40.834   2.311
23123W        W82868  22.078  33.992  12.361
23124W        W82869  31.550  23.233   2.237
23125W        W82870  40.425  40.984   2.672
23126W        W82871  10.878   9.820   4.181
23127W        W82872   0.797   9.240  13.008
23128W        W82873  19.737  33.508  10.974
23129W        W82874  25.041  41.460   4.287
23130W        W82875  19.779  30.567  13.416
23131W        W82876  34.563  11.623   0.952
23132W        W82877  16.142  15.598  14.814
23133W        W82878  26.984  41.499  12.950
23134W        W82879  18.177  25.051   1.310
23135W        W82880   1.405  35.006  11.449
23136W        W82881  29.038   6.313   1.231
23137W        W82882   3.302  31.938  12.078
23138W        W82883   0.878  22.527  13.352
23139W        W82884  16.214   1.381   0.378
23140W        W82885  38.983   2.243   4.781
23141W        W82886  23.586  39.019   3.249
23142W        W82887  20.580  37.006  13.057
23143W        W82888   1.886  39.470   2.706
23144W        W82889   5.905  38.539   4.247
23145W        W82890  20.115  19.557  12.485
23146W        W82891  17.557   9.774   3.805
23147W        W82892  23.189  20.640  12.362
23148W        W82893  20.210   4.773   2.790
23149W        W82894  17.268  19.681  14.348
23150W        W82895  23.134   1.740   3.863
23151W        W82896  30.595  30.431   4.694
23152W        W82897   9.270  29.053  14.304
23153W        W82898  28.482  36.980  13.327
23154W        W82899   6.720  24.167  11.046
23155W        W82900  14.788  38.547  13.965
23156W        W82901  34.428  28.515   3.791
23157W        W82902  11.294  22.094  12.903
23158W        W82903  30.463   1.912   0.372
23159W        W82904   3.913   5.193   2.339
23160W        W82905   5.784  42.940   0.839
23161W        W82906  10.808   7.727  13.522
23162W        W82907   6.337   4.248  10.000
23163W        W82908  17.583  29.498  12.053
23164W        W82909  15.216  26.135   0.296
23165W        W82910  28.054  34.484  10.484
23166W        W82911  37.573  31.078   1.919
23167W        W82912   5.850  18.191  13.059
23168W        W82913   5.411  43.486   4.288
23169W        W82914   8.821  16.238   3.185
23170W        W82915  10.784  30.912   0.483
23171W        W82916   1.367  40.011   3.154
23172W        W82917   7.182  12.834  11.034
23173W        W82918  27.038   0.970   9.998
23174W        W82919  33.938  28.511   3.211
23175W        W82920  25.179  12.756   1.733
23176W        W82921  28.462  34.567   4.276
23177W        W82922  24.101  10.758  12.487
23178W        W82923   9.157   4.822   0.951
23179W        W82924  44.436  15.165  13.939
23180W        W82925  29.463  19.055   5.777
23181W        W82926  10.726   2.294   3.256
23182W        W82927  29.149  29.014  14.410
23183W        W82928  19.680  16.150  14.926
23184W        W82929  30.988  24.989   2.343
23185W        W82930   9.202   7.861   3.700
23186W        W82931  32.515   3.457  14.482
23187W        W82932   4.447  35.456   3.752
23188W        W82933  41.481   2.395   2.255
23189W        W82934  10.658  31.422   0.454
23190W        W82935  10.286  32.947   2.864
23191W        W82936  29.618  13.116   0.282
23192W        W82937  19.621  23.568   3.815
23193W        W82938  15.124  38.893   2.772
23194W        W82939  39.810  23.004   0.284
23195W        W82940  40.957  32.085  14.502
23196W        W82941  41.514  42.844  14.769
23197W        W82942  38.555  12.648  11.093
23198W        W82943  18.054  26.688   4.661
23199W        W82944  29.527   1.926  10.443
23200W        W82945  22.176  24.978  13.932
23201W        W82946  12.851  34.962  12.842
23202W        W82947  24.550  16.754  13.944
23203W        W82948  25.102  17.228  11.567
23204W        W82949  26.687  33.894  12.042
23205W        W82950   4.221  13.736  11.428
23206W        W82951  12.260   4.275  14.281
23207W        W82952  41.874  33.080   1.811
23208W        W82953  15.268  12.749  13.037
23209W        W82954  32.569   5.304   2.356
23210W        W82955  39.438  44.349   4.342
23211W        W82956  38.427  24.113  11.436
23212W        W82957  23.005  16.170   0.404
23213W        W82958   7.765  35.968   1.429
23214W        W82959  35.569  30.075   3.715
23215W        W82960  20.261  43.018  10.064
23216W        W82961  36.057  18.626   1.773
23217W        W82962   7.333  30.567  10.553
23218W        W82963  21.071  23.512   0.477
23219W        W82964  22.641  21.117  14.993
23220W        W82965  28.082  37.071   1.300
23221W        W82966  27.119   5.872  13.376
23222W        W82967  16.651   9.356   3.795
23223W        W82968  22.564   2.844  13.404
23224W        W82969  31.953  32.030   4.288
23225W        W82970  13.314  33.518  10.513
23226W        W82971  19.072   5.360  13.855
23227W        W82972   0.463  34.110   0.793
23228W        W82973  37.058  33.532  13.414
23229W        W82974  14.109  41.296  14.283
23230W        W82975   4.852  28.460  12.873
23231W        W82976  18.756  18.215  13.803
23232W        W82977  14.232   0.764   0.397
23233W        W82978  16.280  34.458  11.482
23234W        W82979  43.794  14.260   3.148
23235W        W82980   2.471  36.561   2.710
23236W        W82981   0.422  17.668   3.663
23237W        W82982  42.924  24.546  14.511
23238W        W82983  27.456  18.586   0.895
23239W        W82984  17.106  34.108   3.739
23240W        W82985  10.871  14.628  11.448
23241W        W82986  26.476  32.953  10.414
23242W        W82987  21.068  26.667  14.893
23243W        W82988   0.314  23.037   4.781
23244W        W82989  33.406  10.878   3.385
23245W        W82990  27.977  36.056   0.731
23246W        W82991  24.587  10.287  10.973
23247W        W82992   5.300  24.658   3.191
23248W        W82993  40.343  41.499  14.790
23249W        W82994  34.468   8.850  13.888
23250W        W82995  27.604  25.708  11.037
23251W        W82996  22.623  44.981   0.403
23252W        W82997   9.325  32.973  10.913
23253W        W82998   1.754   4.321  11.470
23254W        W82999  17.744  14.238   0.886
23255W        W83000  27.169  30.494  11.589
23256W        W83001  28.146  19.286   0.843
23257W        W83002  18.700  41.459  11.013
23258W        W83003  31.589  15.117  10.918
23259W        W83004   6.749   5.235   1.395
23260W        W83005  11.849  42.826  12.344
23261W        W83006  35.420  28.096   3.182
23262W        W83007  35.891  40.946  12.078
23263W        W83008  19.245  16.160  13.872
23264W        W83009  32.031  28.546   3.306
23265W        W83010   2.452  21.709   3.371
23266W        W83011  36.895  42.784  12.853
23267W        W83012   2.880  44.803  11.029
23268W        W83013   7.356  18.716   0.924
23269W        W83014   6.752  30.024  10.556
23270W        W83015  20.156   2.960   2.745
23271W        W83016  32.008   6.890  14.492
23272W        W83017   4.719  39.382  11.471
23273W        W83018  25.526   1.402  14.785
23274W        W83019   3.355  30.530   1.769
23275W        W83020  26.658  21.150   4.748
23276W        W83021   1.736   5.824  12.033
23277W        W83022  24.715   5.207   4.333
23278W        W83023  14.184  37.354   2.887
23279W        W83024   3.790  29.947  13.328
23280W        W83025  19.646   3.875   2.776
23281W        W83026  35.578  30.545  10.578
23282W        W83027  12.829   8.371  11.483
23283W        W83028  44.956  35.449  10.956
23284W        W83029  34.573   9.834  11.867
23285W        W83030   7.294   0.959   2.242
23286W        W83031  21.541  29.481   2.208
23287W        W83032   3.282  40.387  13.999
23288W        W83033   7.323  33.450  13.927
23289W        W83034  44.878   2.464   0.816
23290W        W83035   5.332   7.414  13.814
23291W        W83036  10.149  22.586   5.264
23292W        W83037  21.656  22.176  14.412
23293W        W83038  14.171  13.754  13.023
23294W        W83039   4.833  31.470   0.844
23295W        W83040   9.312  44.392   0.249
23296W        W83041  11.252  17.739  11.518
23297W        W83042  37.053  38.062  10.984
23298W        W83043   7.810  27.649  10.912
23299W        W83044   3.286   0.450   3.229
23300W        W83045  19.254   4.740   0.774
23301W        W83046  33.973   8.749  10.971
23302W        W83047  12.624   2.800  14.903
23303W        W83048   9.688  37.039  12.013
23304W        W83049   3.882  13.798   3.188
23305W        W83050  28.055  44.961  11.880
23306W        W83051  26.550  14.231   1.697
23307W        W83052  19.215   2.813  13.529
23308W        W83053  34.535  23.567   3.159
23309W        W83054  26.517  30.627   1.769
23310W        W83055  43.417  41.859   1.777
23311W        W83056  15.632  40.818   4.319
23312W        W83057  41.006  28.626  14.839
23313W        W83058  14.250  11.231  12.450
23314W        W83059   5.409  43.286  13.805
23315W        W83060  13.209  35.375  14.466
23316W        W83061  26.006  20.749   0.385
23317W        W83062  17.729  23.591   2.248
23318W        W83063   1.287  43.853  13.968
23319W        W83064  31.898  31.435  12.963
23320W        W83065  14.097   3.760  14.400
23321W        W83066  39.346  31.506  10.575
23322W        W83067   4.347   5.891   1.873
23323W        W83068  20.533  25.028  12.379
23324W        W83069  43.454  37.877  14.838
23325W        W83070  40.370  44.414  13.851
23326W        W83071  33.447  25.686   3.312
23327W        W83072   3.774  38.468   0.838
23328W        W83073  40.397  29.102   4.790
23329W        W83074  33.921  25.571   2.895
23330W        W83075  24.143   3.746   1.305
23331W        W83076   5.353   8.807   3.279
23332W        W83077  11.231   1.775   2.734
23333W        W83078   7.833   2.864  10.572
23334W        W83079  29.054   6.420  13.416
23335W        W83080  22.710  33.531   3.837
23336W        W83081  40.840  37.973  12.401
23337W        W83082  17.151  21.604  14.290
23338W        W83083  27.663  28.087   3.736
23339W        W83084  37.034  15.262   3.825
23340W        W83085   4.220  35.963   3.252
23341W        W83086  19.706   1.974   1.396
23342W        W83087  34.370  31.548   3.723
23343W        W83088  39.397  14.242   3.705
23344W        W83089  12.199  21.518  10.483
23345W        W83090  42.779  30.626   1.812
23346W        W83091  35.576  16.663   0.863
23347W        W83092  33.490   3.380  11.119
23348W        W83093  19.116   7.704  11.926
23349W        W83094  41.795  28.020   4.627
23350W        W83095  31.072  36.859   3.766
23351W        W83096  39.408  15.324   3.264
23352W        W83097  25.511  27.101  14.876
23353W        W83098  17.258  38.052   5.202
23354W        W83099  38.404  24.052   3.650
23355W        W83100   4.305  44.494   3.337
23356W        W83101  17.116   8.165  10.492
23357W        W83102  35.491  39.533  14.280
23358W        W83103  22.515  19.668   0.857
23359W        W83104  16.191  26.690  13.463
23360W        W83105  30.101   3.809  12.840
23361W        W83106  43.947  15.313  11.909
23362W        W83107  42.946  24.993  10.421
23363W        W83108   9.688  12.825  13.812
23364W        W83109  15.174  36.007  11.076
23365W        W83110   0.469   8.216   2.868
23366W        W83111   5.246  10.348   0.823
23367W        W83112  17.268  31.478   1.898
23368W        W83113   5.280  18.552   1.873
23369W        W83114   4.845  17.121  11.392
23370W        W83115   1.839  17.169   4.791
23371W        W83116  33.492  16.147  11.977
23372W        W83117  12.191   6.280  10.001
23373W        W83118  21.258   2.763  11.534
23374W        W83119  28.624   1.460   0.749
23375W        W83120  17.695   5.798  14.487
23376W        W83121   4.838  25.497   3.286
23377W        W83122  44.305  40.985  11.899
23378W        W83123  14.824   6.820   4.296
23379W        W83124  17.778  30.502   3.807
23380W        W83125  22.242  43.504  14.428
23381W        W83126  39.885  17.256   1.308
23382W        W83127   7.274  22.505   0.380
23383W        W83128   1.756  19.651  13.981
23384W        W83129   5.868  21.128  14.965
23385W        W83130  14.826  19.683   3.685
23386W        W83131  28.023  14.130   2.200
23387W        W83132  38.850   9.206  11.471
23388W        W83133  25.695  33.092   0.763
23389W        W83134  17.202  42.346   2.406
23390W        W83135  19.183  36.404  11.513
23391W        W83136  15.585  25.542   4.274
23392W        W83137   3.397  28.492  13.511
23393W        W83138   0.882   0.834   2.193
23394W        W83139  12.817  34.936   3.274
23395W        W83140  20.177  23.558  10.577
23396W        W83141  33.517  40.833  12.944
23397W        W83142   6.317  10.808   0.911
23398W        W83143  13.172  20.638   0.262
23399W        W83144  10.318   7.729   5.243
23400W        W83145  17.702  12.117   1.774
23401W        W83146  35.015  16.291  11.503
23402W        W83147  39.054  31.008  12.932
23403W        W83148   1.964  31.632   4.705
23404W        W83149  25.006  12.658  11.484
23405W        W83150  20.754  17.648   4.611
23406W        W83151  14.151  16.264   2.866
23407W        W83152   5.705  17.635   4.173
23408W        W83153  22.062   0.814  12.442
23409W        W83154  41.844  38.409  12.464
23410W        W83155   4.431  33.929  13.372
23411W        W83156  30.619   8.772   3.652
23412W        W83157  28.478  44.930  13.876
23413W        W83158  18.647  27.611  13.899
23414W        W83159  42.416   2.417  13.470
23415W        W83160  43.809  17.722   0.382
23416W        W83161  29.449  23.675  11.877
23417W        W83162  32.461  34.593  11.073
23418W        W83163   2.833  17.179  11.869
23419W        W83164  27.464  10.655   4.335
23420W        W83165  36.928   4.794  14.452
23421W        W83166   1.834   5.193  11.538
23422W        W83167  16.688  39.985   2.246
23423W        W83168  18.085   3.245  10.527
23424W        W83169  26.475   0.745  13.834
23425W        W83170  28.175  24.636  11.862
23426W        W83171  32.549  44.813  11.468
23427W        W83172  12.795  43.404  11.586
23428W        W83173  19.188  27.059   0.434
23429W        W83174  12.240  13.331   4.714
23430W        W83175  11.767   1.809  13.919
23431W        W83176  11.854  14.198  12.559
23432W        W83177  42.346  14.697  10.487
23433W        W83178  37.846   1.831  13.012
23434W        W83179   0.919  12.856   4.230
23435W        W83180  21.184  28.998   4.685
23436W        W83181  27.586   6.871   2.705
23437W        W83182  18.209  22.659   0.795
23438W        W83183   2.763  12.773  13.313
23439W        W83184  32.960   6.376  11.109
23440W        W83185  39.888  19.708  14.427
23441W        W83186  37.500  30.938   2.853
23442W        W83187   2.790   2.263  13.062
23443W        W83188  35.521   6.256   0.424
23444W        W83189   4.263  32.499  10.901
23445W        W83190   4.779  27.024  14.908
23446W        W83191  19.630  41.379  12.416
23447W        W83192  10.297  28.177  11.951
23448W        W83193   5.401   8.715   4.271
23449W        W83194   9.254  14.116   2.246
23450W        W83195  18.259  41.388  11.601
23451W        W83196  40.969  41.923  10.971
23452W        W83197  33.991   4.254  11.610
23453W        W83198   5.325  15.783   4.136
23454W        W83199  19.549  17.087  11.033
23455W        W83200   4.337  15.759  14.869
23456W        W83201  13.284  32.084  12.094
23457W        W83202  15.678  33.579   0.826
23458W        W83203  23.527   5.692   1.740
23459W        W83204  16.258  17.748   2.840
23460W        W83205  12.337  22.728   1.301
23461W        W83206  40.324  39.436   2.848
23462W        W83207  15.796   7.829  13.317
23463W        W83208  39.330  30.605  12.985
23464W        W83209  33.491  28.458  11.892
23465W        W83210  32.952   9.743  12.031
23466W        W83211   6.680  41.917  10.430
23467W        W83212  23.694   9.684  14.451
23468W        W83213  21.523  34.519  12.993
23469W        W83214  25.191  44.906  13.030
23470W        W83215   7.912  29.499  10.119
23471W        W83216  20.668  15.619  12.360
23472W        W83217   1.970  27.054  11.566
23473W        W83218   1.363  12.708   4.770
23474W        W83219  38.352  11.774  10.623
23475W        W83220  14.177  15.160  14.338
23476W        W83221  10.149  44.440   1.784
23477W        W83222  42.451  13.797   3.348
23478W        W83223  16.715  16.075  13.851
23479W        W83224   8.403  33.003  11.555
23480W        W83225   3.750  24.010   3.629
23481W        W83226  26.467  28.618  11.404
23482W        W83227  13.724  22.542   4.198
23483W        W83228  12.678   2.455   4.740
23484W        W83229  44.291  30.108  10.575
23485W        W83230  37.561  31.050   3.148
23486W        W83231  42.860  16.132  12.985
23487W        W83232  22.640  15.129   2.776
23488W        W83233  37.009  23.717  12.531
23489W        W83234  30.612   9.751   4.818
23490W        W83235  11.651  29.940  14.929
23491W        W83236  11.257   1.388  10.635
23492W        W83237  24.120  32.963  11.590
23493W        W83238  27.042  18.065   3.777
23494W        W83239  26.165  19.610   2.814
23495W        W83240  40.822  20.727  14.428
23496W        W83241  11.156  42.492  11.378
23497W        W83242  37.935  28.676   2.336
23498W        W83243  19.698   9.322  10.542
23499W        W83244  19.576  38.375  11.602
23500W        W83245  27.154  32.068   4.294
23501W        W83246  12.191  11.645   1.857
23502W        W83247   9.348   7.855  14.910
23503W        W83248  35.573  28.465  10.943
23504W        W83249  44.261   3.352   5.123
23505W        W83250  22.611  39.527  11.983
23506W        W83251  40.921  42.009   0.364
23507W        W83252  18.108  37.940  14.480
23508W        W83253  21.713  41.453   1.406
23509W        W83254  37.961   9.270   2.190
23510W        W83255  42.367   8.679   1.308
23511W        W83256  17.698  15.604   3.849
23512W        W83257   1.420  38.829   2.799
23513W        W83258  26.046  34.100  14.459
23514W        W83259  17.288  10.771  12.086
23515W        W83260   5.854  41.964  10.642
23516W        W83261  37.578  21.064   3.250
23517W        W83262  34.113  22.565   5.258
23518W        W83263  43.474   9.312  12.871
23519W        W83264  41.952  33.474  12.468
23520W        W83265  25.556   7.215  14.873
23521W        W83266  11.689  40.351  10.895
23522W        W83267  10.313  19.160  11.909
23523W        W83268  39.533  23.629  12.890
23524W        W83269  42.380  34.905   3.822
23525W        W83270   7.770   2.267   1.852
23526W        W83271  36.361  41.392   3.755
23527W        W83272  36.455  43.476  10.631
23528W        W83273  42.792  27.516  13.793
23529W        W83274   9.674  40.813  12.376
23530W        W83275  39.418   3.842  13.468
23531W        W83276  16.623  44.438   3.286
23532W        W83277  26.111   3.864  10.898
23533W        W83278  21.125   0.862   1.920
23534W        W83279  38.921  22.662   3.204
23535W        W83280  40.518  11.264  10.921
23536W        W83281  21.102  12.149   3.166
23537W        W83282  40.965  41.382   1.803
23538W        W83283  25.701  39.459   4.223
23539W        W83284  29.670  11.723  13.344
23540W        W83285  34.380  44.332  13.959
23541W        W83286  18.073  10.758   3.794
23542W        W83287   0.313  42.984   1.354
23543W        W83288  28.540   0.363  13.495
23544W        W83289  12.325   7.718  12.548
23545W        W83290  41.865  24.715  14.866
23546W        W83291   2.947  38.970  10.575
23547W        W83292  24.715   7.356   0.828
23548W        W83293  27.607  14.739  12.984
23549W        W83294   5.244   5.718   1.268
23550W        W83295  29.923  26.004  11.484
23551W        W83296   6.757   0.417   2.206
23552W        W83297  23.186  11.312  11.875
23553W        W83298  30.997   0.488   1.241
23554W        W83299  20.189   0.327   4.124
23555W        W83300   4.223  25.167   1.873
23556W        W83301  29.474  37.881   2.893
23557W        W83302  34.867   1.269   3.817
23558W        W83303  31.615  26.575   3.668
23559W        W83304  11.852  44.988   0.421
23560W        W83305   5.224  15.312  10.408
23561W        W83306   4.259  11.137   1.884
23562W        W83307  29.614  12.337  10.895
23563W        W83308  10.240  15.634   3.808
23564W        W83309  29.449  35.924   2.189
23565W        W83310   7.404  21.661   2.723
23566W        W83311  40.823   6.307  13.015
23567W        W83312  35.040   3.277  11.437
23568W        W83313  35.579  41.468  11.069
23569W        W83314   4.883  33.438   2.747
23570W        W83315  20.083  23.161   3.320
23571W        W83316  23.053  10.265  13.942
23572W        W83317   0.949  28.936  14.282
23573W        W83318  16.610   3.398  10.909
23574W        W83319  14.593   8.790  14.882
23575W        W83320  14.296   0.923  11.475
23576W        W83321  27.596  29.460  14.495
23577W        W83322  34.429  41.457   1.449
23578W        W83323   7.343  17.253  13.470
23579W        W83324  26.011  15.611  11.929
23580W        W83325   3.816  11.336  13.792
23581W        W83326   7.367  22.596  12.378
23582W        W83327  26.136  11.851  14.766
23583W        W83328  12.345   6.714  12.947
23584W        W83329  44.844   3.904  13.820
23585W        W83330  28.553  37.377   3.272
23586W        W83331  40.839  44.475   3.255
23587W        W83332  37.370   3.461   4.605
23588W        W83333  34.953  18.279  11.105
23589W        W83334   2.721   0.807  14.848
23590W        W83335  25.991  14.814  13.888
23591W        W83336  26.055  34.041  11.906
23592W        W83337  41.353  12.724  11.976
23593W        W83338  40.899  42.304   1.267
23594W        W83339  31.114  31.596   9.954
23595W        W83340  34.996  18.208  14.360
23596W        W83341  20.064  19.615   1.872
23597W        W83342  31.040  15.130   2.240
23598W        W83343  10.270  36.417   2.395
23599W        W83344  23.585  20.701  10.899
23600W        W83345  25.200  20.162  10.513
23601W        W83346  11.203  28.082   0.455
23602W        W83347  13.813  18.598  14.015
23603W        W83348  19.649   6.396   2.408
23604W        W83349  18.193  35.975  12.482
23605W        W83350  30.922  21.748   4.291
23606W        W83351  24.106  35.938   1.711
23607W        W83352   5.694  38.568   3.731
23608W        W83353  10.676  44.329   3.308
23609W        W83354  14.631  25.534   4.709
23610W        W83355  30.471  42.010   3.795
23611W        W83356   1.378   6.916   3.238
23612W        W83357  33.512  41.834  11.507
23613W        W83358  13.791  24.031   4.744
23614W        W83359  29.567  23.700  13.801
23615W        W83360  34.988  19.275   3.866
23616W        W83361  29.480  24.007   1.758
23617W        W83362  29.530  30.549  14.894
23618W        W83363   2.914  10.282   1.760
23619W        W83364   6.767   6.805  11.966
23620W        W83365  23.608  27.546  12.924
23621W        W83366  44.912  27.598   2.361
23622W        W83367  14.666  19.044  12.046
23623W        W83368  17.253  40.347  14.937
23624W        W83369  19.154  14.666   0.276
23625W        W83370  41.816   0.465  14.275
23626W        W83371  16.698   3.769   4.185
23627W        W83372  12.320   0.395  10.980
23628W        W83373  39.863  20.224  12.830
23629W        W83374  34.490  20.128  11.506
23630W        W83375  29.078  13.703  10.985
23631W        W83376   6.733  28.564   2.242
23632W        W83377   0.798  25.037  11.054
23633W        W83378  29.137  33.423  13.791
23634W        W83379  16.670  35.976   1.351
23635W        W83380  20.674  41.448   0.276
23636W        W83381  33.036  14.171   2.334
23637W        W83382  25.611   3.931  12.503
23638W        W83383  22.181  16.651  14.343
23639W        W83384  44.376  12.702   4.176
23640W        W83385  37.884  40.028  13.802
23641W        W83386  26.163  17.114   2.837
23642W        W83387  21.724  14.115  13.956
23643W        W83388   4.245  21.102  11.509
23644W        W83389  29.616  22.532   0.328
23645W        W83390  31.083  12.711   4.264
23646W        W83391  12.272  18.222   4.756
23647W        W83392   1.820  22.096   0.757
23648W        W83393  33.431  21.538   2.829
23649W        W83394   3.863  35.070   1.824
23650W        W83395   7.761  11.180   0.408
23651W        W83396  16.098  16.180  14.777
23652W        W83397   7.891   5.313  11.600
23653W        W83398   8.262   9.876  11.409
23654W        W83399  36.350  11.819  10.520
23655W        W83400   6.344  31.921   0.850
23656W        W83401   1.397  10.691   1.916
23657W        W83402   3.319  25.021   2.351
23658W        W83403  44.369  17.793   3.692
23659W        W83404  30.493  31.405  14.360
23660W        W83405   5.703  29.017  11.106
23661W        W83406   2.916  36.953   1.852
23662W        W83407   2.883  40.886  12.344
23663W        W83408  14.126  38.827   3.310
23664W        W83409  38.844  18.265  12.954
23665W        W83410  11.640  18.708  13.544
23666W        W83411  35.943  29.028  14.882
23667W        W83412  13.727  16.605  12.374
23668W        W83413  31.537  32.003  13.803
23669W        W83414  15.627   2.389   0.420
23670W        W83415  30.040   6.381  11.891
23671W        W83416   6.731   3.407   0.747
23672W        W83417  22.024  29.973   2.182
23673W        W83418  22.509  12.733  12.825
23674W        W83419  38.510  36.057  11.560
23675W        W83420  19.200  44.770   3.172
23676W        W83421   0.438  33.604   2.736
23677W        W83422  39.884  25.008  14.931
23678W        W83423   3.873  41.394   0.803
23679W        W83424  37.867  16.782   1.771
23680W        W83425  40.951  22.010  12.832
23681W        W83426  20.134  21.044  10.037
23682W        W83427  19.251   3.764   3.293
23683W        W83428  10.253  26.971  10.588
23684W        W83429  38.952   6.706  12.993
23685W        W83430  21.747  12.316  13.322
23686W        W83431  10.256  14.094  13.451
23687W        W83432   8.258  12.276  10.991
23688W        W83433  31.523  18.772  14.488
23689W        W83434  13.650  23.173  12.003
23690W        W83435  41.900   4.243   1.904
23691W        W83436   0.983  18.168   2.785
23692W        W83437  37.913  33.100  12.009
23693W        W83438  33.937   9.878   3.159
23694W        W83439  12.126  30.026  12.479
23695W        W83440  36.470  18.168  13.344
23696W        W83441  18.589  27.540   3.825
23697W        W83442  43.399   5.394  13.491
23698W        W83443  29.097  30.442  11.493
23699W        W83444   8.310  18.269   1.404
23700W        W83445   3.385  19.592   5.282
23701W        W83446  12.838  15.318   0.787
23702W        W83447  11.813  28.449   2.217
23703W        W83448  25.977   1.957   0.834
23704W        W83449   8.348  41.386  12.494
23705W        W83450   0.444  43.375  13.542
23706W        W83451  17.667   3.789  13.536
23707W        W83452   5.268  30.085   3.328
23708W        W83453  17.215  22.024   1.218
23709W        W83454  31.530  31.609  12.963
23710W        W83455   3.715  26.098  11.536
23711W        W83456  18.569  27.039  13.024
23712W        W83457  40.419  11.644   2.735
23713W        W83458  15.581  21.238   1.899
23714W        W83459  16.283  26.678  12.035
23715W        W83460  33.047  30.058   2.665
23716W        W83461  30.581  37.861   1.220
23717W        W83462   2.859  10.670   1.926
23718W        W83463   9.848  15.109  12.351
23719W        W83464   7.675  31.633  14.019
23720W        W83465  26.102  11.830  10.441
23721W        W83466  22.223   1.353  12.047
23722W        W83467   6.836  14.317  11.526
23723W        W83468  34.431  40.819   2.891
23724W        W83469   2.727  23.571   4.113
23725W        W83470  20.065  44.895   1.927
23726W        W83471  11.168   8.360  14.868
23727W        W83472  23.986  24.030  14.315
23728W        W83473  43.300  20.241   0.446
23729W        W83474  32.002  16.195   2.804
23730W        W83475  28.478   1.912  11.424
23731W        W83476  10.641  40.533   4.253
23732W        W83477  30.570  30.461  13.448
23733W        W83478  12.777  31.452   2.215
23734W        W83479  15.671  23.172  12.868
23735W        W83480  25.117  16.168  13.032
23736W        W83481  40.364  15.812   3.753
23737W        W83482  26.558  38.397   3.327
23738W        W83483  13.836  16.614  14.826
23739W        W83484  31.558  24.566   4.145
23740W        W83485  13.764  13.619   4.245
23741W        W83486   0.477  37.568   1.241
23742W        W83487  43.272  16.314   0.315
23743W        W83488   2.462  33.478  14.513
23744W        W83489   2.339  24.639  14.321
23745W        W83490  35.557  44.950  12.374
23746W        W83491   4.387  18.258  13.350
23747W        W83492  25.091  34.456   0.938
23748W        W83493  15.210   5.833   2.372
23749W        W83494  11.269   9.251  13.458
23750W        W83495  44.832  39.028  14.811
23751W        W83496  20.660   0.925   4.158
23752W        W83497  20.610  15.310  14.333
23753W        W83498   9.376  27.103  11.507
23754W        W83499  15.290  38.066  12.494
23755W        W83500  20.072  16.641   4.129
23756W        W83501  36.022  37.984  12.358
23757W        W83502  19.233   3.855  14.482
23758W        W83503   8.246   8.787  14.966
23759W        W83504  26.166  40.830  11.064
23760W        W83505  37.342  35.538   3.245
23761W        W83506   3.362  30.091   0.263
23762W        W83507   4.719   0.926  11.903
23763W        W83508  32.117  12.325   4.603
23764W        W83509  22.731  30.589   1.308
23765W        W83510  19.674   2.907   3.333
23766W        W83511  31.926   3.901  12.409
23767W        W83512  33.560   7.225   1.822
23768W        W83513  35.028  23.601  12.870
23769W        W83514   3.298  27.462  13.349
23770W        W83515  38.383  28.153  11.980
23771W        W83516  19.183  19.745   3.256
23772W        W83517   7.400   9.658  13.824
23773W        W83518  37.030   7.382   3.685
23774W        W83519   5.911  20.622   4.206
23775W        W83520  31.000  24.585  13.406
23776W        W83521  40.437  26.607   5.148
23777W        W83522  23.081  24.681   4.762
23778W        W83523   4.916  31.097  10.994
23779W        W83524   5.296  18.180  11.061
23780W        W83525  25.202   6.765   1.869
23781W        W83526  23.545  22.670  12.840
23782W        W83527  38.826  38.408  12.021
23783W        W83528   0.790  39.437   3.737
23784W        W83529  29.484  15.082  12.467
23785W        W83530  26.679  13.693   5.806
23786W        W83531  20.746   1.314   3.168
23787W        W83532  19.574  29.524   3.650
23788W        W83533   4.415  36.544   0.863
23789W        W83534  44.871  26.014   4.615
23790W        W83535   7.842  42.835   4.169
23791W        W83536  36.565  24.154  11.599
23792W        W83537  10.338  31.031   0.841
23793W        W83538  44.987  13.661   3.187
23794W        W83539  41.907  20.536  13.439
23795W        W83540   9.336   2.460   3.803
23796W        W83541  28.061   6.379   0.833
23797W        W83542  36.873  29.508  14.834
23798W        W83543  11.176   4.374  12.847
23799W        W83544  32.430  16.604   4.789
23800W        W83545   8.336  17.731  14.932
23801W        W83546   4.806  31.147   2.696
23802W        W83547  12.769  40.807  14.361
23803W        W83548  16.319  15.582  10.605
23804W        W83549  21.578  10.805  10.623
23805W        W83550  21.033  23.609  12.484
23806W        W83551  29.504   3.756  13.357
23807W        W83552   8.808  42.287  11.424
23808W        W83553   0.746  44.309  10.072
23809W        W83554  39.504   1.845   3.374
23810W        W83555  24.587  43.431   4.627
23811W        W83556   2.876  12.844   2.795
23812W        W83557  12.622  35.480   3.243
23813W        W83558  20.073  44.946  10.894
23814W        W83559  10.834  24.704   1.401
23815W        W83560  11.632  42.821  14.364
23816W        W83561  40.961  12.833   4.323
23817W        W83562  35.395  43.446   1.755
23818W        W83563  41.931   8.401  14.779
23819W        W83564  30.440  31.439  13.795
23820W        W83565  29.057  37.476   0.395
23821W        W83566   2.778  42.332  13.462
23822W        W83567   5.765  24.588   3.639
23823W        W83568  42.424  32.912  13.320
23824W        W83569  23.603  11.180  10.909
23825W        W83570   6.284   1.381   3.243
23826W        W83571  22.137  34.099   1.253
23827W        W83572  36.971  12.160   2.238
23828W        W83573  33.593   0.815   3.718
23829W        W83574  23.055  12.155   1.845
23830W        W83575  28.469   2.729   0.922
23831W        W83576   9.741  37.530   0.310
23832W        W83577  44.453  24.615   4.634
23833W        W83578  18.175  43.789   1.759
23834W        W83579  34.940  12.624  12.064
23835W        W83580   7.855  27.568   4.609
23836W        W83581   0.875  35.502   2.827
23837W        W83582  34.102  17.279   3.684
23838W        W83583  34.603  10.803   0.880
23839W        W83584  33.101   3.268  13.528
23840W        W83585  39.330  38.486  11.857
23841W        W83586   8.273  38.055   4.270
23842W        W83587   6.260  40.399   1.920
23843W        W83588  19.172  44.790  12.481
23844W        W83589  25.079  13.777   4.345
23845W        W83590  38.532  30.091   3.375
23846W        W83591  35.575  15.751  11.030
23847W        W83592   8.811  14.817   4.214
23848W        W83593  35.574  34.886   0.858
23849W        W83594   7.209  10.709  12.992
23850W        W83595   5.215  30.918   2.749
23851W        W83596  10.366  43.940   3.733
23852W        W83597  12.213  43.998  12.866
23853W        W83598  39.467  29.517  11.412
23854W        W83599  30.952  26.207   1.837
23855W        W83600  20.710  28.096   1.276
23856W        W83601  41.028   6.254  10.430
23857W        W83602   1.749  44.439   1.352
23858W        W83603   4.774   2.446   3.305
23859W        W83604  38.953  34.065   2.702
23860W        W83605  13.806   4.207  13.925
23861W        W83606   5.374   1.877  14.916
23862W        W83607  14.671   4.806   3.204
23863W        W83608  43.819   1.817   0.405
23864W        W83609  13.157  43.353  11.488
23865W        W83610  25.010  35.886   1.816
23866W        W83611  33.451  40.442   2.264
23867W        W83612  19.640  27.647   0.880
23868W        W83613  42.368  42.801  10.927
23869W        W83614  19.608  28.590   3.318
23870W        W83615  11.343   4.425   0.248
23871W        W83616  39.897  43.880   2.764
23872W        W83617  40.332  10.238   2.285
23873W        W83618  41.011   1.930  13.916
23874W        W83619  20.111  33.398  12.935
23875W        W83620  11.753   7.698   2.858
23876W        W83621   2.432  25.035  13.420
23877W        W83622   3.782  40.375   3.372
23878W        W83623  27.069   9.727   0.826
23879W        W83624  40.008  22.673  14.760
23880W        W83625  37.897  10.272   4.689
23881W        W83626  44.423   1.359  11.373
23882W        W83627  17.105   8.393   3.193
23883W        W83628  42.897  10.761  10.551
23884W        W83629  29.929  34.540  10.605
23885W        W83630  28.491  15.738  11.406
23886W        W83631   7.277  23.019  12.847
23887W        W83632  11.193  19.623   2.790
23888W        W83633   6.721  39.466   2.689
23889W        W83634  20.530  25.128   4.748
23890W        W83635   6.332  44.311   0.862
23891W        W83636   7.173   0.269  10.424
23892W        W83637  26.593   2.753  13.904
23893W        W83638  22.017   3.262  12.383
23894W        W83639  16.201  20.253   2.663
23895W        W83640   9.856  42.418   3.371
23896W        W83641  38.503  27.632   4.231
23897W        W83642  16.171  32.411  14.903
23898W        W83643  30.930  41.311   4.767
23899W        W83644  24.015  26.698   0.757
23900W        W83645   2.844  40.414  14.832
23901W        W83646  23.077  32.482  14.772
23902W        W83647  24.606  40.518  14.793
23903W        W83648  17.570  22.544   3.869
23904W        W83649   9.676  37.372  13.378
23905W        W83650  10.674  39.329   1.365
23906W        W83651   5.816  37.573  11.920
23907W        W83652  17.226  21.517   4.710
23908W        W83653   3.758   0.301   2.244
23909W        W83654  27.138  32.540  12.897
23910W        W83655  43.916  16.791   2.383
23911W        W83656  41.385  42.509  13.830
23912W        W83657  15.263  31.909   1.912
23913W        W83658  40.377   6.314  10.917
23914W        W83659  11.621  16.219   0.883
23915W        W83660   5.854  35.386   1.398
23916W        W83661  12.821  26.963   0.902
23917W        W83662  11.182  18.590  14.326
23918W        W83663   3.365  38.454  10.101
23919W        W83664  17.277  43.955  13.477
23920W        W83665   4.706  16.278   1.773
23921W        W83666  16.258  15.636  14.499
23922W        W83667  33.445  22.113  10.408
23923W        W83668  44.826  17.767   1.891
23924W        W83669  31.643  12.679   1.447
23925W        W83670  12.768  15.275  12.527
23926W        W83671  41.792  26.973  14.024
23927W        W83672  37.544  43.435   2.269
23928W        W83673  24.691  41.473   2.419
23929W        W83674  32.528  22.539  11.888
23930W        W83675  29.587  23.052  10.453
23931W        W83676  34.923  23.199  10.548
23932W        W83677  36.916  34.866   1.220
23933W        W83678  18.693  34.057  13.374
23934W        W83679   3.939  44.463  12.525
23935W        W83680  13.829  36.962   3.303
23936W        W83681  26.683  29.611   3.261
23937W        W83682   8.755  39.553   2.883
23938W        W83683   9.277  41.018   2.303
23939W        W83684  19.699  24.700   1.440
23940W        W83685  39.852  17.161  11.419
23941W        W83686  34.080  29.570   4.208
23942W        W83687  14.166  20.523  10.611
23943W        W83688   6.262  39.379   0.922
23944W        W83689  26.668  25.093  12.384
23945W        W83690  30.938  43.463   1.366
23946W        W83691  19.644  13.121   0.846
23947W        W83692  42.017  38.036   2.876
23948W        W83693   5.884  27.190  12.383
23949W        W83694  43.352  44.413  11.443
23950W        W83695  21.602  20.553   3.696
23951W        W83696   5.434  14.101  14.351
23952W        W83697  31.041   4.915  11.997
23953W        W83698  21.192  13.108  12.927
23954W        W83699   7.678  17.701   3.149
23955W        W83700  40.890   2.412   0.319
23956W        W83701  15.110  31.017  13.978
23957W        W83702  19.723  12.705   0.401
23958W        W83703  17.144  37.838  14.279
23959W        W83704  19.072  19.728   1.826
23960W        W83705  39.526   8.849   5.161
23961W        W83706  44.396  43.778  10.907
23962W        W83707  31.007   3.712   4.809
23963W        W83708  10.309  29.445  11.097
23964W        W83709  35.098   7.822  12.957
23965W        W83710  29.922  21.082   3.357
23966W        W83711  22.121  42.796  13.880
23967W        W83712   6.873   1.384  13.958
23968W        W83713  29.086   2.440  10.514
23969W        W83714  18.052  24.688   1.874
23970W        W83715  33.610  24.555  13.032
23971W        W83716   6.683   7.265   4.793
23972W        W83717  43.802   1.280  14.991
23973W        W83718  38.413  22.534  11.970
23974W        W83719  11.669  32.462  11.416
23975W        W83720  37.995  26.587   4.328
23976W        W83721   1.319  38.454  11.571
23977W        W83722  30.986  17.214   3.737
23978W        W83723  12.610   5.379  12.546
23979W        W83724  24.164  30.056   2.795
23980W        W83725  16.623  13.286  14.474
23981W        W83726  17.229  43.924   4.726
23982W        W83727  26.471   5.300   1.896
23983W        W83728   6.905  16.137   0.810
23984W        W83729  10.745  34.559   1.809
23985W        W83730   4.330  27.129  11.126
23986W        W83731  30.004  20.677  13.851
23987W        W83732  28.576  41.344   0.770
23988W        W83733   6.320  29.537  11.987
23989W        W83734  42.483  38.539   3.652
23990W        W83735  22.196  13.177   2.784
23991W        W83736  25.665  28.963   3.168
23992W        W83737  33.951  18.149  13.818
23993W        W83738   6.218  39.365   2.729
23994W        W83739  12.724   5.340   1.892
23995W        W83740   4.859  42.991   1.353
23996W        W83741  16.790   8.239  11.010
23997W        W83742  26.092   8.891   0.410
23998W        W83743  19.116  24.129  11.520
23999W        W83744  20.207  38.831  11.128
24000W        W83745  33.565  28.065   0.812
24001W        W83746   4.357  40.452  11.122
24002W        W83747   2.397  37.378   2.248
24003W        W83748  11.233  34.954  12.877
24004W        W83749  36.532  14.257   4.277
24005W        W83750   3.806  44.002   2.278
24006W        W83751   5.814  14.151  13.467
24007W        W83752   2.935  15.669   0.414
24008W        W83753  36.587  23.046  12.476
24009W        W83754  28.437  21.695  13.945
24010W        W83755   2.314   0.445   2.857
24011W        W83756  27.991  17.695   4.685
24012W        W83757  33.972   0.858   0.361
24013W        W83758  40.334  29.003  10.111
24014W        W83759   6.379  19.137   2.902
24015W        W83760   3.842   4.900  12.860
24016W        W83761  18.160  36.568   0.938
24017W        W83762   1.393  17.061  10.548
24018W        W83763  31.139  29.929  10.422
24019W        W83764   4.710  39.355  13.038
24020W        W83765   9.826  33.131   4.794
24021W        W83766   9.877  23.179  14.439
24022W        W83767  25.658  18.126   1.734
24023W        W83768  14.695  34.466  13.894
24024W        W83769  21.618  28.656  12.348
24025W        W83770   1.824  21.664   4.211
24026W        W83771   8.207  21.028   0.861
24027W        W83772  40.898   5.688  11.514
24028W        W83773  31.620  27.008  12.836
24029W        W83774  24.081  39.336   2.355
24030W        W83775  35.107  12.190   3.838
24031W        W83776  21.547   2.351  12.431
24032W        W83777  12.274  16.162   2.829
24033W        W83778  42.890  32.456  14.847
24034W        W83779   1.423  27.060  10.894
24035W        W83780   6.267  16.623   3.663
24036W        W83781  11.800  23.646   2.819
24037W        W83782  39.324  34.927   4.719
24038W        W83783  17.169  19.271  11.565
24039W        W83784   5.869  10.226  12.091
24040W        W83785  11.147  24.628   0.319
24041W        W83786   9.808  13.223   4.813
24042W        W83787   7.864  26.690   1.263
24043W        W83788  44.465  11.783   0.401
24044W        W83789  14.117   2.376   1.306
24045W        W83790   2.342   2.262  10.515
24046W        W83791   6.738  39.935   3.671
24047W        W83792  34.612  30.064  13.396
24048W        W83793   6.921  38.973   2.255
24049W        W83794  27.083   7.236   1.753
24050W        W83795  29.445   9.292  11.596
24051W        W83796  18.736  15.577   2.710
24052W        W83797  13.709  16.610  10.927
24053W        W83798  22.122   7.272  14.346
24054W        W83799  18.653   2.273   4.242
24055W        W83800  34.441  14.599  13.489
24056W        W83801   6.748  41.470  12.358
24057W        W83802  38.829   5.265  13.031
24058W        W83803   2.781  39.999   2.232
24059W        W83804  13.127   8.230   0.750
24060W        W83805   4.702  43.344   4.835
24061W        W83806  27.502  31.434   2.677
24062W        W83807  13.193  27.144  11.388
24063W        W83808  23.034  30.042  10.567
24064W        W83809   7.711  23.638  12.892
24065W        W83810  19.722  25.512  10.945
24066W        W83811  40.346   1.371   2.686
24067W        W83812  25.474  40.493   4.832
24068W        W83813  31.913  24.049  10.567
24069W        W83814  18.682  23.495  12.572
24070W        W83815  11.315  30.987   3.359
24071W        W83816  14.796  19.740  11.071
24072W        W83817   6.390   9.380   1.380
24073W        W83818  18.582  33.579  12.900
24074W        W83819  37.920  44.439  13.871
24075W        W83820   9.779  36.886  11.427
24076W        W83821  24.487  13.788  12.084
24077W        W83822  28.436  18.741  14.463
24078W        W83823  26.587   6.695  12.399
24079W        W83824  24.630  32.592   1.875
24080W        W83825   9.237  42.370   3.663
24081W        W83826  19.734   5.812  11.020
24082W        W83827  36.580   4.285   2.752
24083W        W83828   4.215  29.643   1.371
24084W        W83829   2.283   6.427  13.931
24085W        W83830  16.678  42.377   2.850
24086W        W83831  38.882  22.237   0.928
24087W        W83832   3.417  15.595  10.544
24088W        W83833  36.540  10.833   0.245
24089W        W83834  43.918  37.037   4.682
24090W        W83835   5.722  23.114   0.407
24091W        W83836  24.684  21.701   2.794
24092W        W83837  20.156  13.302  10.458
24093W        W83838  34.561  24.545   0.835
24094W        W83839   3.299  23.596  11.498
24095W        W83840  15.675  38.568  14.802
24096W        W83841  32.060  11.329   1.403
24097W        W83842  34.592   5.260   2.861
24098W        W83843   9.372  27.489  12.953
24099W        W83844  17.678  18.728  14.797
24100W        W83845  18.759  17.717   4.811
24101W        W83846   3.397  27.994   2.897
24102W        W83847  40.803  37.340   3.276
24103W        W83848  38.467  12.784   3.770
24104W        W83849  33.536  41.509   4.721
24105W        W83850  42.945   3.825   4.806
24106W        W83851  24.639  35.090  14.816
24107W        W83852  43.866  40.528   0.872
24108W        W83853  27.975  41.828   1.842
24109W        W83854  39.908   2.907   0.924
24110W        W83855  19.535  21.754   4.771
24111W        W83856  15.130  29.434   0.259
24112W        W83857  27.115  36.464  12.883
24113W        W83858  11.809  39.497   3.854
24114W        W83859  11.278  34.078  12.072
24115W        W83860   1.954   4.375  12.012
24116W        W83861  17.079  16.151   3.666
24117W        W83862  33.126  15.667   0.431
24118W        W83863  32.003  27.999  13.970
24119W        W83864  17.581  27.472  12.342
24120W        W83865  36.555  38.024   3.664
24121W        W83866   3.763  27.173   0.404
24122W        W83867  43.355  11.721  10.151
24123W        W83868  27.553   4.369   0.920
24124W        W83869  41.895  13.684  13.328
24125W        W83870  38.999  28.500  12.900
24126W        W83871   6.737  18.232  11.568
24127W        W83872  17.161  41.010   3.234
24128W        W83873   7.790  19.213  14.306
24129W        W83874   4.860   2.397  13.426
24130W        W83875  15.658  36.593   0.268
24131W        W83876  33.382   6.919   3.684
24132W        W83877   6.722  27.465  10.605
24133W        W83878  39.967  16.646  11.596
24134W        W83879  24.178   3.388  11.084
24135W        W83880   2.285  15.785  14.933
24136W        W83881  31.591  20.130   1.768
24137W        W83882  39.942  13.717   1.833
24138W        W83883  10.786  21.249  14.855
24139W        W83884  43.496  25.633   1.230
24140W        W83885   9.186  15.682  10.567
24141W        W83886  35.412   7.276   4.130
24142W        W83887  29.098  11.865   1.273
24143W        W83888   2.459  36.418  10.522
24144W        W83889  30.020   4.738   2.793
24145W        W83890  37.564   3.342  10.519
24146W        W83891  16.238  35.040   1.270
24147W        W83892   2.829  15.166   2.277
24148W        W83893  23.145   9.345   0.266
24149W        W83894   3.275  23.082  11.461
24150W        W83895  37.877   6.374   4.771
24151W        W83896   3.946  28.004  12.851
24152W        W83897  44.941   6.363   3.217
24153W        W83898   3.249   2.965   4.774
24154W        W83899  32.886  37.922  12.523
24155W        W83900  18.709  34.455   2.183
24156W        W83901  28.086   9.803   4.815
24157W        W83902  30.484  15.792  14.861
24158W        W83903  36.470  43.864  12.866
24159W        W83904  38.546  17.155  14.379
24160W        W83905  13.821  38.567  12.562
24161W        W83906  29.555  30.995   3.869
24162W        W83907  38.337  17.183   0.323
24163W        W83908  18.143   0.810  11.875
24164W        W83909  30.623  13.738  12.970
24165W        W83910   5.362  43.300  11.072
24166W        W83911  21.557  36.542  12.411
24167W        W83912  44.281  28.126   0.816
24168W        W83913  35.038  35.560  11.078
24169W        W83914  43.353   2.227  13.064
24170W        W83915  17.276  44.460   1.242
24171W        W83916   7.834  41.790  14.330
24172W        W83917  32.962  22.210   4.147
24173W        W83918  27.475  11.356  12.354
24174W        W83919  26.008   5.764   1.246
24175W        W83920  12.119  17.575  10.500
24176W        W83921  38.507  40.803   2.767
24177W        W83922  30.520  16.741   3.165
24178W        W83923  37.922  41.811  11.528
24179W        W83924  26.970  41.387  11.556
24180W        W83925   2.324  22.686   2.392
24181W        W83926  37.443   0.483  13.996
24182W        W83927   1.783  35.918   0.756
24183W        W83928  31.953  39.927   0.786
24184W        W83929  43.020   0.903   2.338
24185W        W83930   2.449  40.332  12.976
24186W        W83931  41.803  23.625   3.244
24187W        W83932  29.606  41.787   1.710
24188W        W83933  13.220   8.697   0.935
24189W        W83934  21.622   3.764   1.824
24190W        W83935   1.850  39.493  13.791
24191W        W83936  27.952  12.748  13.407
24192W        W83937   6.751   4.874  14.439
24193W        W83938  32.624  37.056  13.958
24194W        W83939   3.424  36.841  10.441
24195W        W83940  27.964  30.934  13.898
24196W        W83941  35.026  28.514  14.417
24197W        W83942  13.717   1.916  14.831
24198W        W83943  22.642  34.434   2.851
24199W        W83944  43.821  10.281   3.748
24200W        W83945  30.922  19.608  13.446
24201W        W83946  13.652  21.220  11.936
24202W        W83947  32.625  27.613   2.262
24203W        W83948  21.693  22.998  14.851
24204W        W83949   9.831  32.561   0.333
24205W        W83950  28.945  33.412  13.480
24206W        W83951  35.048  24.061  11.056
24207W        W83952  17.254  34.608  10.938
24208W        W83953  11.765  31.916   2.710
24209W        W83954  23.987   8.392  10.941
24210W        W83955   0.864  41.424  10.474
24211W        W83956  33.619  36.389  13.333
24212W        W83957  31.905   4.844  13.815
24213W        W83958  23.725  39.006   3.716
24214W        W83959  12.831  15.710   1.766
24215W        W83960   7.321  21.714   2.216
24216W        W83961  39.442  15.758   1.373
24217W        W83962   2.343  19.053   9.992
24218W        W83963  28.542  38.015   1.915
24219W        W83964   1.972  35.074   2.237
24220W        W83965  14.646  17.237  13.850
24221W        W83966  40.391  16.783  14.991
24222W        W83967  25.170  21.736   0.796
24223W        W83968  39.833  13.334   3.802
24224W        W83969  17.733  41.445   0.305
24225W        W83970  23.206   2.790  13.426
24226W        W83971  40.440  40.009  14.797
24227W        W83972  34.495  18.221  13.899
24228W        W83973  28.059  22.154  13.955
24229W        W83974  32.917  35.092  11.593
24230W        W83975   0.277   1.392  14.886
24231W        W83976   3.894  11.187   4.301
24232W        W83977  40.865   6.749  14.516
24233W        W83978  27.052  25.962   2.744
24234W        W83979  31.471  31.075  12.516
24235W        W83980  11.648  44.336  14.766
24236W        W83981  21.588  17.166   1.228
24237W        W83982  32.005  31.563   3.342
24238W        W83983  35.939   6.377  11.006
24239W        W83984  19.129  13.109   0.959
24240W        W83985  13.685  25.177   0.930
24241W        W83986  15.590  15.197   2.195
24242W        W83987  33.960   5.416  14.973
24243W        W83988   2.340  40.330  14.005
24244W        W83989   5.704  34.069   3.352
24245W        W83990  29.160  33.119   0.345
24246W        W83991  11.213  28.671   0.790
24247W        W83992  29.925  39.470   3.363
24248W        W83993  40.007   3.412   0.283
24249W        W83994   6.243  43.894   3.665
24250W        W83995  28.167   0.834  12.037
24251W        W83996  30.464   0.306   3.369
24252W        W83997  31.110  30.024  12.920
24253W        W83998  11.749  41.350   1.408
24254W        W83999   4.401   3.325  14.345
24255W        W84000   4.219  17.766  12.533
24256W        W84001  24.053   3.893  12.992
24257W        W84002  34.429   5.370  14.347
24258W        W84003  42.877  19.157   3.818
24259W        W84004  36.419  13.275   3.279
24260W        W84005   5.861   2.812   0.386
24261W        W84006  39.894  13.600   3.841
24262W        W84007  29.551  20.224  12.986
24263W        W84008  20.068  32.051  13.044
24264W        W84009  24.560  39.437   1.825
24265W        W84010  40.501  23.055   3.670
24266W        W84011   5.737   1.474  11.015
24267W        W84012  39.425  24.535   1.396
24268W        W84013  21.241  29.152   2.805
24269W        W84014   7.676  35.881   0.893
24270W        W84015  11.837   1.851   0.389
24271W        W84016  43.322  22.203  14.284
24272W        W84017  31.970   9.166   2.837
24273W        W84018   6.390  24.645   2.359
24274W        W84019  15.133  27.030   3.225
24275W        W84020  31.153  29.956   2.324
24276W        W84021   3.890  18.177   3.303
24277W        W84022  13.689  17.096   0.728
24278W        W84023  29.657  27.019   3.214
24279W        W84024  11.866  14.277   1.908
24280W        W84025  27.561   0.778  13.811
24281W        W84026  16.095   9.679  11.485
24282W        W84027  43.425  18.565  14.297
24283W        W84028  23.726  12.240  13.840
24284W        W84029  39.987   3.876  14.780
24285W        W84030  40.996  24.132   3.845
24286W        W84031  23.503  27.988   2.258
24287W        W84032  12.836  33.389  11.490
24288W        W84033  44.356   2.735  14.763
24289W        W84034  23.671  17.192  14.307
24290W        W84035  24.721  18.591   4.234
24291W        W84036  17.570   7.405   1.282
24292W        W84037  41.835   6.356   0.883
24293W        W84038  18.603  11.670  14.022
24294W        W84039  31.939  21.025   3.660
24295W        W84040   3.720  30.419   1.394
24296W        W84041  34.116  31.150  12.386
24297W        W84042  40.482  44.922  11.561
24298W        W84043  11.710   4.874   0.435
24299W        W84044  43.963  22.108   0.336
24300W        W84045  29.936  16.811  14.453
24301W        W84046  39.918  44.895  14.898
24302W        W84047  23.683  34.972  11.912
24303W        W84048  39.002  25.678  14.823
24304W        W84049  24.511  39.555   4.124
24305W        W84050   9.770  14.246   1.222
24306W        W84051  11.290  34.428   3.356
24307W        W84052  39.408  12.793   0.896
24308W        W84053  34.013  23.086   9.935
24309W        W84054  20.075  16.307   1.746
24310W        W84055  22.691  13.143   4.218
24311W        W84056   6.835   9.335  12.502
24312W        W84057  31.053  35.502  10.911
24313W        W84058  11.679  42.467   4.151
24314W        W84059  15.736   5.698  11.946
24315W        W84060  30.004   2.376   1.315
24316W        W84061   8.244  11.192   3.154
24317W        W84062  43.356  11.210   3.182
24318W        W84063   0.297  30.023   0.475
24319W        W84064  44.362  28.629   2.215
24320W        W84065   8.761  44.884   0.263
24321W        W84066  11.832  12.841  10.521
24322W        W84067  24.163   5.396  12.492
24323W        W84068  38.437  40.328   4.254
24324W        W84069  13.831  27.099  13.496
24325W        W84070  21.580   4.329   4.208
24326W        W84071  10.310  39.819   5.236
24327W        W84072  40.968  14.620   3.852
24328W        W84073  25.007  11.280   0.938
24329W        W84074  25.181  17.673   2.342
24330W        W84075   2.924  35.444   0.787
24331W        W84076  29.983  33.880   0.797
24332W        W84077  35.419   8.888   1.328
24333W        W84078   4.785   4.320   2.323
24334W        W84079  43.822   9.302  11.411
24335W        W84080  24.993   1.914  14.956
24336W        W84081  30.094  41.408   1.271
24337W        W84082  44.451   2.801   0.846
24338W        W84083   7.353  35.970  10.937
24339W        W84084  29.581  21.743  14.901
24340W        W84085  16.183  42.028  12.826
24341W        W84086   5.843  41.873   4.332
24342W        W84087  11.163  25.686   4.709
24343W        W84088  42.344  44.444  11.066
24344W        W84089  29.657  35.958  12.929
24345W        W84090  19.593  41.308   0.304
24346W        W84091   7.263   3.461  10.571
24347W        W84092   6.315   2.765   1.832
24348W        W84093   9.869  14.167   2.766
24349W        W84094  38.061  42.919  14.764
24350W        W84095  41.443  36.562   1.398
24351W        W84096  28.500  29.492   5.287
24352W        W84097  14.821  18.086  12.038
24353W        W84098  16.153  19.098   3.360
24354W        W84099  27.055  24.184   0.449
24355W        W84100  17.799  16.792   2.757
24356W        W84101  30.161  35.976  12.094
24357W        W84102  41.919  22.683  11.526
24358W        W84103  26.004   2.422  14.925
24359W        W84104  38.993  10.854   2.863
24360W        W84105   0.286  29.643  11.031
24361W        W84106  16.645  36.927   1.311
24362W        W84107  16.301  34.874   4.268
24363W        W84108   6.897   8.842  11.002
24364W        W84109  24.176  22.551  14.878
24365W        W84110   6.185  29.631  13.941
24366W        W84111   8.851  21.568   0.737
24367W        W84112   7.844  31.586  10.567
24368W        W84113  25.156  17.222  12.948
24369W        W84114  23.225  37.433   1.744
24370W        W84115   8.730  13.841  12.919
24371W        W84116  44.435  19.599   2.313
24372W        W84117  41.305  44.263  12.436
24373W        W84118  21.669  14.600  13.544
24374W        W84119   4.812  22.118  11.087
24375W        W84120  36.942   0.850   1.418
24376W        W84121  24.654  14.825  13.330
24377W        W84122  33.513  23.995   3.630
24378W        W84123  12.320  27.446  11.434
24379W        W84124  19.107  24.052  12.847
24380W        W84125  12.183  19.709   2.317
24381W        W84126  16.223   3.221   1.795
24382W        W84127  33.453  40.985   3.243
24383W        W84128  12.759  11.666   0.457
24384W        W84129   6.378  28.462  14.444
24385W        W84130  27.606   2.891  14.779
24386W        W84131  31.500   7.710   4.322
24387W        W84132  27.091  44.333  14.027
24388W        W84133  18.247  18.079  13.957
24389W        W84134   1.378   7.801   1.313
24390W        W84135   9.260  24.539  14.786
24391W        W84136  36.971   5.879  11.996
24392W        W84137  42.315   8.869   3.654
24393W        W84138  26.132   1.249  11.025
24394W        W84139  20.580  16.217   4.222
24395W        W84140  36.355  23.190   0.314
24396W        W84141  11.671  19.146   2.840
24397W        W84142   3.868  27.562  10.044
24398W        W84143  42.949  33.398   1.377
24399W        W84144   8.236  15.174  11.967
24400W        W84145  23.229   4.800  11.492
24401W        W84146  44.836  31.462  13.497
24402W        W84147  34.396  17.632  12.400
24403W        W84148  19.160   4.351  12.945
24404W        W84149  25.073  24.214   3.868
24405W        W84150   4.810   8.706  13.434
24406W        W84151   6.861  26.654  10.940
24407W        W84152  36.905  34.026   1.312
24408W        W84153  18.170  30.456  11.573
24409W        W84154  20.757  32.502  12.560
24410W        W84155   7.780  21.053  11.603
24411W        W84156  40.799  24.216  11.529
24412W        W84157  35.077   1.841  10.598
24413W        W84158  30.049  35.435  11.465
24414W        W84159  27.496   8.809   4.295
24415W        W84160  30.607  39.874  11.873
24416W        W84161  28.176  10.857   2.270
24417W        W84162  40.874  13.294   0.411
24418W        W84163  10.683   7.185  12.867
24419W        W84164  29.982  26.971   5.173
24420W        W84165  34.990  25.096  14.928
24421W        W84166  16.190  29.512  12.891
24422W        W84167  30.476  27.010   3.788
24423W        W84168   0.779   3.384   1.427
24424W        W84169  30.926  12.225  11.913
24425W        W84170   2.365  43.008  13.849
24426W        W84171  36.427  18.168   0.283
24427W        W84172  15.249  26.051   3.716
24428W        W84173  25.677  12.294   5.272
24429W        W84174   0.373   3.823  11.547
24430W        W84175  33.426   0.378   1.281
24431W        W84176   6.856  35.472   2.222
24432W        W84177   1.296  16.310  11.882
24433W        W84178  20.221   6.300   1.421
24434W        W84179   7.185  20.589  14.401
24435W        W84180  37.510  19.715  13.445
24436W        W84181  22.026  36.498   1.702
24437W        W84182  25.603  28.158   4.216
24438W        W84183  25.076  44.873  14.962
24439W        W84184  23.680  12.747  11.010
24440W        W84185   7.707  14.109  10.126
24441W        W84186  38.975  19.620   2.402
24442W        W84187  27.635  27.043  10.946
24443W        W84188   0.430  19.210   2.844
24444W        W84189  35.038  13.198  11.537
24445W        W84190   0.975  13.625  11.943
24446W        W84191  13.318  33.491   4.285
24447W        W84192  30.938  21.722   3.273
24448W        W84193  14.328  44.449  13.409
24449W        W84194  25.008  44.263   5.258
24450W        W84195  35.020  44.320   9.948
24451W        W84196  38.072   1.890  14.777
24452W        W84197  17.629  34.463   4.121
24453W        W84198  11.186  34.877  10.937
24454W        W84199  18.090  39.883  11.545
24455W        W84200  10.248  27.188  11.072
24456W        W84201  21.695   6.786  14.445
24457W        W84202  21.184  38.860  14.867
24458W        W84203  31.006  26.553  11.867
24459W        W84204   4.348   3.761   4.124
24460W        W84205   9.336  36.512  11.947
24461W        W84206  29.515  44.351  11.431
24462W        W84207  25.503   3.724  13.963
24463W        W84208  30.144  20.694   1.821
24464W        W84209   3.317  21.034   4.256
24465W        W84210  31.008  12.353   4.710
24466W        W84211  27.169  33.561  13.884
24467W        W84212  21.192  23.066   3.733
24468W        W84213  21.030  20.103  10.441
24469W        W84214  10.879  13.724  10.472
24470W        W84215  43.400  11.369  14.775
24471W        W84216   8.751  28.112   4.769
24472W        W84217  42.878  13.329   4.348
24473W        W84218  38.914  13.350  12.358
24474W        W84219  22.625   6.314  11.564
24475W        W84220  44.321   8.251  12.433
24476W        W84221   8.879  44.998   4.117
24477W        W84222  29.515   6.252  14.975
24478W        W84223   1.915  36.912  14.468
24479W        W84224  30.972  13.349   4.308
24480W        W84225  28.675   1.874   3.659
24481W        W84226   4.233  38.567  12.376
24482W        W84227   3.929  27.684   0.301
24483W        W84228  40.023  34.935  12.547
24484W        W84229  41.339  31.569   1.725
24485W        W84230  27.191  44.960   1.890
24486W        W84231  43.951  30.552  12.890
24487W        W84232  16.248  13.119  10.479
24488W        W84233  17.305  28.930  11.078
24489W        W84234   6.909  32.991  14.000
24490W        W84235  31.616   7.893  12.072
24491W        W84236  10.325   9.197  12.377
24492W        W84237   5.688  40.829   3.854
24493W        W84238  36.091  15.258  14.476
24494W        W84239  34.555  42.017   3.303
24495W        W84240  12.661  13.625   2.194
24496W        W84241  32.106   9.221   0.282
24497W        W84242  35.102  19.776   9.671
24498W        W84243  17.758  20.730  11.062
24499W        W84244  42.501   6.693  14.489
24500W        W84245  13.659  44.994   3.695
24501W        W84246   2.774  19.080  11.602
24502W        W84247  42.914  15.083  11.863
24503W        W84248  42.291   7.732   0.474
24504W        W84249   1.306  11.680   0.304
24505W        W84250  38.014  17.105  13.828
24506W        W84251  35.879  32.589   1.353
24507W        W84252  36.358   6.223  14.341
24508W        W84253   4.364  20.601   4.826
24509W        W84254  19.219  27.587   4.626
24510W        W84255  42.933  19.606  10.568
24511W        W84256   9.831  43.468   2.309
24512W        W84257  33.387   0.304  13.471
24513W        W84258  21.686  24.193  13.456
24514W        W84259   7.418  10.252   1.915
24515W        W84260  25.043  21.214  11.986
24516W        W84261   0.903  34.381  12.477
24517W        W84262  38.365  23.103   4.805
24518W        W84263  39.484  16.307   1.919
24519W        W84264  16.665  34.055  11.884
24520W        W84265   5.875  13.607  13.350
24521W        W84266   0.941   7.219  12.381
24522W        W84267  35.468  19.265  14.477
24523W        W84268  37.351   9.239  14.024
24524W        W84269  20.728  25.685  13.324
24525W        W84270  10.778   5.203   2.349
24526W        W84271  38.825  32.905   4.283
24527W        W84272  31.932   1.924  10.500
24528W        W84273  18.736  26.588  12.340
24529W        W84274  26.485  35.574   2.252
24530W        W84275  10.286   2.272  12.437
24531W        W84276   7.898  17.232   4.118
24532W        W84277  36.456   2.845   0.339
24533W        W84278   4.206  38.527   0.309
24534W        W84279  13.151   1.270   4.738
24535W        W84280  13.794  32.535  12.862
24536W        W84281   4.223  27.082  14.399
24537W        W84282  32.444  13.728   1.357
24538W        W84283  22.216  33.087  14.295
24539W        W84284  26.679   2.855   1.293
24540W        W84285  43.961   0.444  12.448
24541W        W84286   9.302  33.970   2.355
24542W        W84287  16.801   8.896   4.638
24543W        W84288   6.428  19.608  12.059
24544W        W84289   5.340  18.664  12.082
24545W        W84290  13.186  42.793  10.482
24546W        W84291  40.929  12.119  13.469
24547W        W84292   1.757   8.376   4.629
24548W        W84293  30.162  26.545   1.841
24549W        W84294  38.418  17.748   4.815
24550W        W84295  24.023  18.571  11.464
24551W        W84296  44.918  31.930  12.085
24552W        W84297  38.879  14.835   3.802
24553W        W84298  14.815  27.181  10.903
24554W        W84299  33.541  16.710   5.250
24555W        W84300  10.804  22.252  12.437
24556W        W84301  41.930   0.936  13.055
24557W        W84302  19.749   5.236   2.796
24558W        W84303  42.949  20.139  14.971
24559W        W84304  35.406  43.834  14.473
24560W        W84305  27.558  19.194  13.852
24561W        W84306   8.726  19.581   0.776
24562W        W84307   8.695  15.622  10.536
24563W        W84308   3.238   5.360   0.817
24564W        W84309   8.331  27.646  14.880
24565W        W84310   4.916  36.043  13.853
24566W        W84311  44.421  12.241   3.303
24567W        W84312  20.629   4.714  12.082
24568W        W84313  13.264   5.764   0.388
24569W        W84314  12.819   4.732   2.878
24570W        W84315   4.376   7.318   0.788
24571W        W84316  28.058  33.090   4.246
24572W        W84317   5.424   5.733   1.892
24573W        W84318  36.419  16.598   1.389
24574W        W84319  20.663   4.774  14.458
24575W        W84320  43.765  36.392  14.969
24576W        W84321  18.164   6.693  10.506
24577W        W84322  20.535  17.589  14.976
24578W        W84323   6.287  41.043   2.870
24579W        W84324  42.431  43.883   4.652
24580W        W84325  41.518   9.318   0.377
24581W        W84326  32.091  36.940  11.021
24582W        W84327   1.798   0.292  12.094
24583W        W84328   2.226   6.419  12.429
24584W        W84329  28.535   8.830  14.837
24585W        W84330  38.019  10.292  12.539
24586W        W84331  29.649  29.044  14.857
24587W        W84332  26.200  43.916   2.687
24588W        W84333  38.900   9.288   3.158
24589W        W84334  42.783  22.653   3.297
24590W        W84335  24.106   4.720   3.274
24591W        W84336  10.243  26.626  13.060
24592W        W84337   4.231  35.394  13.507
24593W        W84338  36.842  18.652   4.757
24594W        W84339  31.423  41.531  11.888
24595W        W84340  36.415  44.315   1.876
24596W        W84341   4.837  41.901  11.950
24597W        W84342   3.776  22.150  14.791
24598W        W84343  13.311   7.388  13.986
24599W        W84344  11.175  15.805   1.316
24600W        W84345  10.161  31.453  12.368
24601W        W84346  29.567   0.310   0.309
24602W        W84347  19.267  22.121  13.969
24603W        W84348   4.401   1.337   0.287
24604W        W84349  11.292  28.506   1.376
24605W        W84350  43.886  35.097  13.433
24606W        W84351   5.724  39.536  11.944
24607W        W84352   7.887  16.175   3.804
24608W        W84353  29.062  32.898   2.217
24609W        W84354  41.516  40.502  10.914
24610W        W84355   0.965   4.227   2.361
24611W        W84356   2.329  40.026   1.448
24612W        W84357  10.831   0.914  11.469
24613W        W84358  18.110  38.067  12.899
24614W        W84359  28.181  27.617   2.311
24615W        W84360   5.882  16.611   2.303
24616W        W84361  43.814   1.359  11.461
24617W        W84362   9.298  25.997   0.735
24618W        W84363  37.883  22.049   1.369
24619W        W84364   7.695   9.890  10.983
24620W        W84365  14.765   5.874  12.935
24621W        W84366  37.971  31.415  13.339
24622W        W84367  13.140  33.074  14.779
24623W        W84368   0.270  14.282   1.876
24624W        W84369  30.909  20.138   4.657
24625W        W84370  34.952  31.140   3.341
24626W        W84371  26.148  33.415   0.384
24627W        W84372  40.033  39.858  14.915
24628W        W84373  41.500   4.845   4.156
24629W        W84374  31.929   4.788  11.914
24630W        W84375  40.898  31.947   3.243
24631W        W84376  16.111  23.636  12.366
24632W        W84377  15.744  13.714   0.921
24633W        W84378  22.180  17.725   3.735
24634W        W84379  43.924   8.216   0.768
24635W        W84380  43.840  36.358   5.155
24636W        W84381  30.563  34.400  11.118
24637W        W84382   4.908  14.647  10.420
24638W        W84383  41.870   7.184   2.740
24639W        W84384  27.954  25.694  11.466
24640W        W84385   2.859  33.574  12.410
24641W        W84386  18.689  17.745  14.017
24642W        W84387   7.296  11.225  13.978
24643W        W84388  10.285  34.913   3.861
24644W        W84389  14.310  18.665   1.359
24645W        W84390  35.961  25.176   2.312
24646W        W84391  32.532  39.880  14.388
24647W        W84392  31.455  18.662  14.763
24648W        W84393  44.484  18.143  12.861
24649W        W84394   9.670  36.077   0.400
24650W        W84395  35.377  31.911   1.851
24651W        W84396   8.856  40.450   0.771
24652W        W84397  25.647  29.100  10.067
24653W        W84398   0.924  35.085  13.902
24654W        W84399  27.092  39.905   0.423
24655W        W84400   8.336  14.123  11.947
24656W        W84401  39.531  12.129  13.052
24657W        W84402  32.438  26.480   2.328
24658W        W84403  40.333   7.748  13.932
24659W        W84404   7.701  44.875  11.091
24660W        W84405   2.919   2.816  11.991
24661W        W84406  33.899  32.451   2.290
24662W        W84407  36.411  38.466  12.375
24663W        W84408  43.339  43.501  10.980
24664W        W84409   3.728  28.078   9.588
24665W        W84410  29.026  12.133  12.393
24666W        W84411  40.821  30.599   0.784
24667W        W84412  13.262  14.107   2.840
24668W        W84413  14.202   8.326  10.442
24669W        W84414  21.196  41.495   0.904
24670W        W84415  30.485  29.088  14.418
24671W        W84416  33.928  20.274   5.211
24672W        W84417  21.575   7.364  14.286
24673W        W84418   7.355  36.065   0.269
24674W        W84419  21.164   0.335  10.586
24675W        W84420  41.364  44.362  13.871
24676W        W84421  30.001  18.290   4.651
24677W        W84422  11.175   5.290   2.394
24678W        W84423   3.852  43.289   0.324
24679W        W84424   7.411  34.990   5.282
24680W        W84425  17.657  15.791   4.823
24681W        W84426  31.616  28.079   2.354
24682W        W84427  44.004  31.639   4.820
24683W        W84428  35.488   0.336   0.468
24684W        W84429  44.414  22.235  11.088
24685W        W84430  27.525  33.003  10.943
24686W        W84431   9.679  28.493   2.197
24687W        W84432  19.142  17.703   3.854
24688W        W84433  41.372  18.637  11.468
24689W        W84434  23.033  22.686   3.383
24690W        W84435   2.395  17.223  11.578
24691W        W84436  21.251  20.139  12.344
24692W        W84437  17.111  44.987   1.384
24693W        W84438   0.329  14.168  13.853
24694W        W84439  25.701  13.168   1.247
24695W        W84440  15.630  22.531  14.783
24696W        W84441  26.169  14.315  10.523
24697W        W84442  10.791  30.941   3.202
24698W        W84443   3.779  14.739   2.901
24699W        W84444  33.051  12.669  12.371
24700W        W84445  30.975  32.984  13.011
24701W        W84446  16.278  30.922  10.966
24702W        W84447   9.853  34.918   1.737
24703W        W84448   7.352  28.170  10.485
24704W        W84449  26.061  32.550   2.874
24705W        W84450  17.103  21.106   3.385
24706W        W84451  35.460   6.325  12.565
24707W        W84452   5.333   8.295  10.457
24708W        W84453  24.128  19.552   4.143
24709W        W84454  12.268  24.605  11.970
24710W        W84455  20.670  12.317  13.377
24711W        W84456   4.424   6.275   2.880
24712W        W84457  40.818  13.119  11.100
24713W        W84458  26.657  37.971  12.965
24714W        W84459  11.647  40.531  12.941
24715W        W84460  26.077  18.548   4.719
24716W        W84461  36.355   7.736  10.474
24717W        W84462  43.475  33.588   9.967
24718W        W84463  33.384  27.554   3.216
24719W        W84464  23.087  42.448  13.486
24720W        W84465  26.002  43.394  12.400
24721W        W84466  42.996  15.621   5.246
24722W        W84467  33.922  19.724  14.507
24723W        W84468  31.017  10.357   2.754
24724W        W84469   0.762  33.393   2.209
24725W        W84470  34.042  44.885  12.409
24726W        W84471   2.745  28.617  11.462
24727W        W84472  16.151   1.819  10.922
24728W        W84473  11.216   7.377   2.791
24729W        W84474   1.292  42.443   0.762
24730W        W84475  23.716   0.819   4.682
24731W        W84476  16.167  44.483  14.329
24732W        W84477  31.478  27.579   3.254
24733W        W84478   9.366  20.696  11.078
24734W        W84479   4.244  42.849   3.832
24735W        W84480  29.009  43.506  10.976
24736W        W84481  42.822  12.189   3.686
24737W        W84482  11.627   7.904   0.868
24738W        W84483   9.712  42.999  13.828
24739W        W84484   4.730  26.052   1.770
24740W        W84485  44.984  34.951   2.785
24741W        W84486  25.092  10.745   2.837
24742W        W84487  14.621  17.253   3.204
24743W        W84488  33.604  18.767  13.946
24744W        W84489  42.526  24.130  11.010
24745W        W84490   9.392  24.704   1.918
24746W        W84491  40.911  38.012  11.465
24747W        W84492   9.280  35.879   1.826
24748W        W84493  22.732   2.281  10.573
24749W        W84494  13.347  26.674  10.574
24750W        W84495  38.899  42.311  14.391
24751W        W84496  36.094  20.078   4.817
24752W        W84497  44.446  28.152  10.581
24753W        W84498  37.887  38.498   1.893
24754W        W84499   8.176  10.697   4.262
24755W        W84500  11.639  25.020  14.859
24756W        W84501  31.606  31.104   1.304
24757W        W84502  29.558  31.984   3.349
24758W        W84503  15.238  42.818  10.446
24759W        W84504  15.222  31.061   3.746
24760W        W84505   4.939  22.042   0.245
24761W        W84506  15.607  27.941   0.810
24762W        W84507  42.950  39.313  11.433
24763W        W84508  28.436  32.395  12.968
24764W        W84509   4.385  42.937  11.877
24765W        W84510  33.962   4.711  11.105
24766W        W84511  20.114   0.945   1.905
24767W        W84512  10.282  18.223  13.516
24768W        W84513  15.280   1.888  14.982
24769W        W84514  31.961   2.315   1.792
24770W        W84515  30.609  34.573  13.813
24771W        W84516  21.663   9.365   2.708
24772W        W84517  21.087   8.374  11.113
24773W        W84518   7.681  41.421   2.303
24774W        W84519   5.200  30.920   4.758
24775W        W84520  14.766  39.462   3.704
24776W        W84521  26.074   0.416  14.516
24777W        W84522  39.017  41.943   0.807
24778W        W84523  13.229  18.610   4.616
24779W        W84524  24.168  42.386   2.837
24780W        W84525  35.031  19.697   0.934
24781W        W84526  24.112  14.645  10.004
24782W        W84527  33.132  21.135  11.938
24783W        W84528  10.719  26.039  13.880
24784W        W84529  23.129  30.580  13.932
24785W        W84530  36.943   5.342  11.895
24786W        W84531  43.858  40.935  13.490
24787W        W84532   2.275  13.826   2.760
24788W        W84533  42.519  41.453   2.355
24789W        W84534  19.579  44.847   1.449
24790W        W84535  29.667  42.808   0.942
24791W        W84536   2.842  34.373   0.419
24792W        W84537  33.501  19.177   0.934
24793W        W84538  17.141  21.617   3.839
24794W        W84539  28.581  17.179  12.855
24795W        W84540  21.035  29.603  14.385
24796W        W84541  34.589  29.555  13.411
24797W        W84542  39.529  34.439  11.470
24798W        W84543  34.040  27.197   2.270
24799W        W84544  10.756  32.126   0.246
24800W        W84545   6.883  44.813   4.235
24801W        W84546  22.175  43.278  12.977
24802W        W84547   7.870  43.893  12.395
24803W        W84548   5.350  37.976   1.353
24804W        W84549  30.576  35.500  13.928
24805W        W84550  25.698  15.219  14.496
24806W        W84551  44.470  38.434  10.900
24807W        W84552  33.551   6.774   0.415
24808W        W84553  10.671  26.056   4.173
24809W        W84554  19.134   8.246  10.915
24810W        W84555  12.205   4.289   3.643
24811W        W84556   3.917   2.312   4.304
24812W        W84557  44.872  16.299   2.837
24813W        W84558  40.002  12.760  10.644
24814W        W84559   9.302  17.759  11.046
24815W        W84560  26.963  37.431   1.421
24816W        W84561  36.427  11.327  11.490
24817W        W84562   9.848   7.899   3.255
24818W        W84563   4.769   8.666   2.797
24819W        W84564   5.798  33.906  11.456
24820W        W84565  36.963   5.696   0.348
24821W        W84566  21.567  27.665  11.540
24822W        W84567  31.118   3.457   9.649
24823W        W84568  28.957  28.983   3.308
24824W        W84569  26.061  29.007   1.334
24825W        W84570   9.203  42.809  13.867
24826W        W84571   3.266  20.538   1.407
24827W        W84572  42.986   4.714  11.486
24828W        W84573   4.782  44.956  12.894
24829W        W84574   7.853  25.692   3.209
24830W        W84575  13.749  33.004  10.636
24831W        W84576   5.730  19.153  13.830
24832W        W84577  37.494  20.745  13.371
24833W        W84578  32.479  15.317  12.823
24834W        W84579  35.436   7.762   3.166
24835W        W84580  42.416   4.769   0.879
24836W        W84581   5.884  31.567  12.827
24837W        W84582  15.613   4.368  11.373
24838W        W84583  17.111  39.508   1.312
24839W        W84584  34.522  44.445   2.392
24840W        W84585  24.171  21.124   1.854
24841W        W84586  32.986  39.866   4.313
24842W        W84587  30.977   6.784   1.788
24843W        W84588   8.800  43.808   3.262
24844W        W84589  29.068   4.739   5.695
24845W        W84590   7.668  36.954  14.292
24846W        W84591  23.058  36.082   3.167
24847W        W84592   7.842  14.279  14.797
24848W        W84593   7.876  31.422   1.427
24849W        W84594  42.902  27.492   4.745
24850W        W84595  34.025  11.177  14.876
24851W        W84596  41.340  43.375  13.462
24852W        W84597  17.697  34.975   2.233
24853W        W84598  16.736   9.267  14.434
24854W        W84599  18.788   9.721  14.509
24855W        W84600  33.098  42.373   2.847
24856W        W84601  18.125  17.569   3.831
24857W        W84602   6.235   4.446   0.778
24858W        W84603  35.051  27.171   0.461
24859W        W84604  23.142   3.387   2.217
24860W        W84605  27.975  30.604   4.711
24861W        W84606  24.191  15.619   5.104
24862W        W84607   1.790  36.586   3.146
24863W        W84608   9.338  23.625   3.247
24864W        W84609  39.461  36.843  14.499
24865W        W84610  36.395   2.746   0.782
24866W        W84611   5.305  44.809  12.052
24867W        W84612  17.728  26.993  12.828
24868W        W84613  23.238   2.391  12.988
24869W        W84614   6.767  23.711  11.047
24870W        W84615   7.813  16.701   4.602
24871W        W84616   5.784  28.058  10.419
24872W        W84617  20.054  40.940  12.906
24873W        W84618  14.789   3.905   3.361
24874W        W84619  28.002  26.620   0.259
24875W        W84620  23.664   7.677   2.184
24876W        W84621  38.891  17.713  12.371
24877W        W84622   3.459  36.583   0.734
24878W        W84623   6.678  18.586   1.313
24879W        W84624  11.317  34.552  11.404
24880W        W84625  23.518  39.463  14.299
24881W        W84626  21.573   3.421  13.997
24882W        W84627  25.981  17.636  14.292
24883W        W84628  18.226  34.534  10.887
24884W        W84629  29.617  15.614   4.142
24885W        W84630  26.463  42.312   3.826
24886W        W84631  31.590  44.931  14.776
24887W        W84632  13.825  39.349  10.466
24888W        W84633  43.272   8.687  11.455
24889W        W84634  26.011  29.918   4.213
24890W        W84635  40.866  20.593  14.813
24891W        W84636  36.962  19.137  13.546
24892W        W84637  11.224   8.844   1.366
24893W        W84638  14.792  14.169   3.789
24894W        W84639  36.003  31.101  11.478
24895W        W84640  34.451  43.323  13.385
24896W        W84641  23.089  42.995  10.942
24897W        W84642   1.270   7.229   3.213
24898W        W84643  15.657  31.098  12.077
24899W        W84644  44.858   1.881   4.700
24900W        W84645  14.772   6.865  11.526
24901W        W84646  38.032   6.356  10.633
24902W        W84647  34.868  39.815   4.244
24903W        W84648  43.427  28.677  11.591
24904W        W84649  34.880  36.447  10.579
24905W        W84650  22.515   7.412   4.777
24906W        W84651  10.752  20.706  11.070
24907W        W84652   4.777   0.832   3.338
24908W        W84653  39.863   4.910   4.729
24909W        W84654  34.967  42.371  12.009
24910W        W84655  40.980   8.843  12.384
24911W        W84656  37.473  29.983   4.307
24912W        W84657  15.726  40.844  11.109
24913W        W84658  38.031  33.085   0.261
24914W        W84659  24.185  27.175  14.400
24915W        W84660  31.589   0.939   3.169
24916W        W84661   8.247   1.349  14.772
24917W        W84662  22.095  32.548  10.021
24918W        W84663   4.817   3.791   2.666
24919W        W84664  15.216   8.726  10.446
24920W        W84665  44.298  14.713  12.543
24921W        W84666  35.853   5.380  12.063
24922W        W84667  32.467  12.761  10.572
24923W        W84668  24.556  31.477  13.951
24924W        W84669  30.016  12.668   3.692
24925W        W84670   1.735  24.537   1.817
24926W        W84671  12.719  19.130  13.861
24927W        W84672  16.690  34.931  13.034
24928W        W84673  41.041  17.654   2.748
24929W        W84674  39.391  35.567  14.372
24930W        W84675  40.897  22.694  11.482
24931W        W84676   7.789  36.967  14.010
24932W        W84677  31.073  18.068   4.236
24933W        W84678   0.835  22.050  14.029
24934W        W84679  10.277   2.867   1.746
24935W        W84680  32.608  28.450   0.845
24936W        W84681  39.050  36.993   2.774
24937W        W84682  18.236   2.821  14.959
24938W        W84683  15.683  39.384  10.456
24939W        W84684  43.443   1.900   1.780
24940W        W84685   4.746  25.092   3.371
24941W        W84686   7.873  10.712   0.841
24942W        W84687  24.551  20.727  13.955
24943W        W84688   4.934  36.889   0.347
24944W        W84689   9.372  42.365  11.039
24945W        W84690  37.969   1.823   5.174
24946W        W84691  18.780  31.004   4.317
24947W        W84692  39.844  16.287  13.002
24948W        W84693  28.040  18.558  11.919
24949W        W84694   2.942   6.310   3.278
24950W        W84695  22.667  37.073  14.347
24951W        W84696  36.354  15.291   1.742
24952W        W84697  10.235   5.274   3.640
24953W        W84698  22.520  14.735  13.052
24954W        W84699  23.573  25.598   3.226
24955W        W84700  10.711  13.331   2.260
24956W        W84701   6.769  38.914   3.298
24957W        W84702  23.561  40.826   3.270
24958W        W84703  36.861  13.816  13.488
24959W        W84704  32.448  33.087   0.325
24960W        W84705  16.758   3.322  12.909
24961W        W84706  16.160  13.349  11.867
24962W        W84707   9.199  37.074   2.415
24963W        W84708  23.192  32.948  11.966
24964W        W84709   2.404  19.071   1.768
24965W        W84710  25.679  17.118   4.300
24966W        W84711  34.958  11.768   2.847
24967W        W84712   2.250  40.801  12.423
24968W        W84713  35.960  28.616   1.394
24969W        W84714  43.502  11.339  11.483
24970W        W84715  16.636  30.075   0.908
24971W        W84716  35.089   1.473  14.791
24972W        W84717  13.802   6.403  12.845
24973W        W84718  25.618  38.902  11.909
24974W        W84719  38.995  23.163  10.492
24975W        W84720   4.293  29.077   3.797
24976W        W84721   2.309   8.284  10.921
24977W        W84722  41.904  42.791  14.938
24978W        W84723  42.381   5.434  12.575
24979W        W84724   6.416  32.947   3.788
24980W        W84725  29.468  38.463  14.991
24981W        W84726  29.559  23.007  11.011
24982W        W84727  27.973  18.551  12.929
24983W        W84728  17.205  18.089  13.387
24984W        W84729  12.626  32.598   2.802
24985W        W84730  35.445  40.914  13.496
24986W        W84731  12.633  12.183   4.126
24987W        W84732  25.162  10.828  13.384
24988W        W84733   6.323  26.951  14.287
24989W        W84734  27.196  28.116   4.651
24990W        W84735   7.760   9.210  12.911
24991W        W84736   9.656  31.609   3.346
24992W        W84737   2.899  13.278   2.881
24993W        W84738  12.825   9.819  14.006
24994W        W84739  29.095   1.875  12.381
24995W        W84740   5.834   0.455   3.339
24996W        W84741  34.381  28.461  10.082
24997W        W84742  21.173   9.699   2.396
24998W        W84743  44.269  30.610  13.892
24999W        W84744  25.023  17.653  13.518
25000W        W84745  32.128  22.738   2.835
25001W        W84746  25.072  42.965  14.313
25002W        W84747  20.157  35.984   1.740
25003W        W84748   2.353  29.077  11.099
25004W        W84749  19.165   3.793   3.643
25005W        W84750  43.929  36.048  13.387
25006W        W84751  39.322  17.099  13.847
25007W        W84752   9.819  40.531  10.995
25008W        W84753  30.037  20.063  11.415
25009W        W84754  38.033  27.998  14.401
25010W        W84755  24.193  21.628   1.911
25011W        W84756  11.838  22.634   1.403
25012W        W84757   2.460   5.697  10.987
25013W        W84758   5.927  15.776  11.598
25014W        W84759  12.129  21.173   4.747
25015W        W84760  36.058  40.536   3.380
25016W        W84761  34.481  37.928  13.318
25017W        W84762  32.007  42.894   5.189
25018W        W84763  30.957  43.449  13.907
25019W        W84764  19.254   6.834  14.989
25020W        W84765   3.333   0.258  14.415
25021W        W84766  15.817  18.288  12.016
25022W        W84767  31.967  37.487  14.433
25023W        W84768  43.468   0.925   3.385
25024W        W84769  39.407   7.749  13.051
25025W        W84770  29.122   7.880   1.801
25026W        W84771  36.370  11.254   4.287
25027W        W84772  40.940  19.207  11.127
25028W        W84773   0.417  42.800  14.968
25029W        W84774  34.387   7.819   2.390
25030W        W84775  17.691  28.963   1.250
25031W        W84776  14.781   2.965  11.883
25032W        W84777  14.745  38.832   2.276
25033W        W84778  15.615   4.270  12.361
25034W        W84779  11.291  42.426  10.507
25035W        W84780  12.766  31.101   4.805
25036W        W84781  21.106   0.758   9.930
25037W        W84782  16.177  20.220  13.378
25038W        W84783   8.895  28.045  14.321
25039W        W84784  22.243   7.750  12.951
25040W        W84785  10.668  30.515   2.293
25041W        W84786  20.719   6.355   1.914
25042W        W84787   7.241  27.601   1.353
25043W        W84788   4.338  28.551   9.608
25044W        W84789  29.151  40.966  14.407
25045W        W84790   2.915  27.605  13.428
25046W        W84791  38.051  16.108  13.355
25047W        W84792   8.386  35.874  12.936
25048W        W84793  10.173  36.439  11.932
25049W        W84794   8.896   0.360   3.379
25050W        W84795  37.048  18.731  14.826
25051W        W84796  24.687  24.595   4.294
25052W        W84797  15.141   6.366   2.185
25053W        W84798  23.564  14.588   4.151
25054W        W84799  26.111  12.302   0.730
25055W        W84800  22.604  32.128  11.934
25056W        W84801  16.607   1.367  11.376
25057W        W84802  16.696  26.011  12.871
25058W        W84803  22.706  37.969  12.841
25059W        W84804  39.997  14.293  14.934
25060W        W84805  25.686   9.762   1.447
25061W        W84806  20.665  29.623  14.446
25062W        W84807   6.273  24.715   2.892
25063W        W84808  37.963  26.466   2.769
25064W        W84809  14.178  25.636  11.525
25065W        W84810   8.391  27.627  11.473
25066W        W84811  40.943   3.781  12.929
25067W        W84812  29.023  14.340   3.257
25068W        W84813  17.155   8.884   4.113
25069W        W84814  26.157  42.825   0.392
25070W        W84815  24.567  23.232   3.703
25071W        W84816  19.238  36.090  13.393
25072W        W84817  34.572  29.089  11.598
25073W        W84818  21.702  17.790  10.999
25074W        W84819  28.018  17.801   2.879
25075W        W84820  14.717  17.307  11.502
25076W        W84821  44.000  33.950   1.223
25077W        W84822  34.960  20.611  14.330
25078W        W84823   3.381  44.420  14.909
25079W        W84824  12.835  22.104  12.051
25080W        W84825   3.401  16.235  11.575
25081W        W84826  36.462  36.010  10.538
25082W        W84827   6.799  37.975  11.574
25083W        W84828  17.237  28.638   3.803
25084W        W84829  27.143  26.656   1.274
25085W        W84830  19.198  25.148   1.755
25086W        W84831  15.661   3.749   3.760
25087W        W84832  38.482  18.260   0.254
25088W        W84833  32.092  31.594   0.272
25089W        W84834  22.117  43.775   0.283
25090W        W84835  25.185  10.676   3.807
25091W        W84836  38.413  11.737   2.361
25092W        W84837  15.189  25.158   3.155
25093W        W84838  33.526  27.497  13.856
25094W        W84839  43.458   4.373   3.348
25095W        W84840  27.644  24.670  13.015
25096W        W84841  30.153   9.860   3.229
25097W        W84842   7.303  18.601  12.443
25098W        W84843  31.934  44.920   4.266
25099W        W84844  26.470  10.871   4.798
25100W        W84845  18.674  28.081  12.376
25101W        W84846   4.211   3.447   4.133
25102W        W84847  11.767  35.505   9.619
25103W        W84848  15.744   5.354  12.037
25104W        W84849  38.467  31.149  14.010
25105W        W84850  21.074  43.900   1.901
25106W        W84851  38.474  43.799   1.815
25107W        W84852  11.636   6.275  14.331
25108W        W84853  33.625  21.225  12.061
25109W        W84854  39.873  21.690   0.440
25110W        W84855   8.735  20.200  13.797
25111W        W84856  21.042  34.466   3.819
25112W        W84857   9.212   9.164  13.057
25113W        W84858  18.549  43.880  11.447
25114W        W84859  14.793  15.674  14.992
25115W        W84860  27.080  41.934   4.180
25116W        W84861  12.663   3.252   1.836
25117W        W84862   9.277  21.054   3.676
25118W        W84863  23.035  26.539   1.255
25119W        W84864  39.845  15.139  12.017
25120W        W84865  14.283  41.017  11.079
25121W        W84866   7.222  17.771  13.375
25122W        W84867  25.108  24.705   2.779
25123W        W84868  13.276  40.919   3.711
25124W        W84869  21.543   7.833   0.295
25125W        W84870  42.818   6.253   3.793
25126W        W84871  34.947   7.265   4.114
25127W        W84872  22.547  12.683   3.266
25128W        W84873  43.296   7.416  13.454
25129W        W84874   3.726   2.867   4.754
25130W        W84875  29.987  29.986   1.339
25131W        W84876  28.950   1.348  10.550
25132W        W84877   8.737  36.485  10.888
25133W        W84878   7.856  35.504  12.445
25134W        W84879  24.123  12.302   4.287
25135W        W84880   5.352  18.767   3.773
25136W        W84881  32.439  25.496   1.387
25137W        W84882  22.012  22.025  13.439
25138W        W84883  43.481   7.223  11.925
25139W        W84884  33.118   3.868   3.379
25140W        W84885   9.358  11.692  13.386
25141W        W84886  38.888   5.282  14.859
25142W        W84887   8.692  20.148  13.333
25143W        W84888  13.153   1.926   4.222
25144W        W84889  10.234   6.333   4.115
25145W        W84890  12.687  18.213  13.319
25146W        W84891  20.724  41.973   0.823
25147W        W84892  31.131  14.722   0.781
25148W        W84893  11.814  17.652  13.486
25149W        W84894  37.437  30.518  14.373
25150W        W84895  10.833  31.645  11.938
25151W        W84896   5.249  40.393  10.523
25152W        W84897  23.099  41.483  13.984
25153W        W84898   1.779  33.083   4.219
25154W        W84899  24.140  31.048  11.583
25155W        W84900  17.667  13.835  12.887
25156W        W84901  22.505  19.769  10.083
25157W        W84902  10.233  11.307  13.966
25158W        W84903  32.462   7.297  14.761
25159W        W84904  16.081  30.501   3.288
25160W        W84905  30.119  29.654   1.842
25161W        W84906  43.497   6.423  12.391
25162W        W84907  40.541  20.715  11.121
25163W        W84908  21.743  10.861   1.281
25164W        W84909   7.264  24.614   4.178
25165W        W84910  10.156  14.596   1.358
25166W        W84911  43.368  30.063   0.291
25167W        W84912  23.232  32.421   2.810
25168W        W84913  33.398   3.239  13.840
25169W        W84914  30.551  37.882  12.384
25170W        W84915  34.399   3.443  13.809
25171W        W84916  13.701  43.389   1.856
25172W        W84917   7.849  31.931  10.542
25173W        W84918  26.059  41.449   3.285
25174W        W84919  15.764  17.130  11.548
25175W        W84920  37.410  15.163   4.633
25176W        W84921  34.411  18.685  13.816
25177W        W84922   4.277  33.924  12.471
25178W        W84923  39.931  23.998  13.042
25179W        W84924  38.967   6.830   0.469
25180W        W84925   0.959  34.002   4.341
25181W        W84926  27.976   8.232  12.967
25182W        W84927  17.772  31.464  13.956
25183W        W84928  41.405  31.461  10.534
25184W        W84929  40.834  27.182  12.876
25185W        W84930  23.004  19.756   2.723
25186W        W84931   0.852  43.798   2.342
25187W        W84932  37.562  28.623   1.782
25188W        W84933  19.748  20.639  14.900
25189W        W84934  34.095  32.446  11.010
25190W        W84935  22.091  31.113  10.439
25191W        W84936  36.847  11.352  12.528
25192W        W84937  31.548  33.411   5.291
25193W        W84938  19.091  27.069   2.416
25194W        W84939  18.236  35.579   4.679
25195W        W84940  10.325  40.411  14.919
25196W        W84941  36.478   9.280  14.934
25197W        W84942  35.554   5.843  12.532
25198W        W84943  23.595  27.449   4.296
25199W        W84944  18.755  43.898  12.932
25200W        W84945  27.128   9.165   1.851
25201W        W84946   7.311  24.211  12.407
25202W        W84947  30.994   1.866   3.822
25203W        W84948   3.723  39.967  10.891
25204W        W84949  38.368   0.421   0.342
25205W        W84950   9.215  43.393   0.338
25206W        W84951  10.337  37.960  12.481
25207W        W84952  31.430   4.422  14.420
25208W        W84953  27.447  18.193   2.317
25209W        W84954  44.316  16.105  13.953
25210W        W84955  29.537   9.248  12.926
25211W        W84956  16.098   7.354  12.478
25212W        W84957   5.220  16.690   1.850
25213W        W84958  24.226  11.355  10.583
25214W        W84959  32.898   9.298  11.528
25215W        W84960   0.323   5.316  14.350
25216W        W84961  12.239   9.847   3.726
25217W        W84962  26.016  30.163  13.524
25218W        W84963  39.419   7.355   1.278
25219W        W84964  43.324  25.706   3.813
25220W        W84965  36.095  33.449   1.263
25221W        W84966  18.232  23.699   0.967
25222W        W84967   7.300  11.661   3.283
25223W        W84968   6.400  24.084  12.837
25224W        W84969  35.962  30.949  12.875
25225W        W84970  25.660  30.450  11.016
25226W        W84971  24.004  31.523  14.967
25227W        W84972  10.795  25.151   1.422
25228W        W84973  36.076  12.838   3.362
25229W        W84974  27.606  16.736  14.485
25230W        W84975  34.552  40.926  11.611
25231W        W84976  39.836   4.759  13.998
25232W        W84977  26.182  10.850  14.306
25233W        W84978  44.336   8.794   2.837
25234W        W84979  29.647  41.923  12.560
25235W        W84980   6.857  13.613  13.431
25236W        W84981  11.281  34.377  10.503
25237W        W84982  36.844  42.799   0.742
25238W        W84983   5.347  26.977   3.198
25239W        W84984   7.192  35.489   2.810
25240W        W84985  24.197   6.355  11.600
25241W        W84986  11.771   7.171  12.087
25242W        W84987  24.592   8.740  11.031
25243W        W84988  27.529  13.833  14.355
25244W        W84989  38.072  44.834  14.371
25245W        W84990   7.822  14.594  14.887
25246W        W84991  31.011  26.496  13.459
25247W        W84992  36.909   0.299  14.332
25248W        W84993  28.157   4.884   0.880
25249W        W84994  30.059   0.919   4.752
25250W        W84995  32.617  13.803   2.892
25251W        W84996  36.054  41.986   0.251
25252W        W84997  26.100  24.561   2.378
25253W        W84998  35.867  41.508   2.700
25254W        W84999  41.388   2.911  11.418
25255W        W85000  15.607   8.704  12.422
25256W        W85001  28.513  41.865   0.446
25257W        W85002  37.543  30.650   0.829
25258W        W85003  44.931  36.883   2.279
25259W        W85004  16.623  25.647   4.660
25260W        W85005  13.173  38.932  14.994
25261W        W85006  26.075  32.421  10.061
25262W        W85007  14.608  39.951   1.411
25263W        W85008   5.384   7.344   4.779
25264W        W85009  20.573   5.901  14.871
25265W        W85010   8.363  31.956  11.887
25266W        W85011  18.649   8.744  12.041
25267W        W85012  42.388  10.374  12.546
25268W        W85013  13.304  15.803   2.897
25269W        W85014   0.774  42.351   0.268
25270W        W85015  43.811  34.043  14.967
25271W        W85016  12.203  34.011  13.547
25272W        W85017  14.748  32.502   9.607
25273W        W85018  32.592  11.663   0.317
25274W        W85019  41.333  30.470   0.888
25275W        W85020  36.418  24.127   0.385
25276W        W85021  44.926   8.858   2.755
25277W        W85022  38.349   9.841   0.406
25278W        W85023  43.289  42.996   3.343
25279W        W85024  42.941  30.033  12.580
25280W        W85025   6.785   0.331   0.747
25281W        W85026  44.986  20.650   4.342
25282W        W85027  12.856  40.377   3.636
25283W        W85028   8.850   0.490   4.268
25284W        W85029  44.875  15.817  13.794
25285W        W85030   9.262  28.163   0.773
25286W        W85031  27.078  38.545  14.434
25287W        W85032  24.098  25.145   3.170
25288W        W85033  31.631   7.231   3.773
25289W        W85034  40.957  30.964   4.194
25290W        W85035  25.577  13.605   4.178
25291W        W85036   3.737  39.385  13.911
25292W        W85037  38.049  17.303   0.777
25293W        W85038   9.240   6.821  11.592
25294W        W85039  11.825  27.182  13.530
25295W        W85040  43.943   8.304   0.377
25296W        W85041  44.327  36.925  10.943
25297W        W85042  33.966  18.632   3.356
25298W        W85043   5.783  16.234   2.415
25299W        W85044  12.780  28.001  10.617
25300W        W85045  40.432  33.538  10.475
25301W        W85046  14.597   1.251  14.876
25302W        W85047  42.437   0.835  12.535
25303W        W85048  20.250  11.749  13.478
25304W        W85049  14.212  42.801  14.435
25305W        W85050   0.946   5.849   2.286
25306W        W85051   1.387   1.272  13.039
25307W        W85052   3.278  41.860  14.393
25308W        W85053   8.329  43.400   4.704
25309W        W85054   9.339   7.328  11.444
25310W        W85055   8.314   0.870  13.471
25311W        W85056  32.037  43.326   4.652
25312W        W85057  11.213  15.327  12.373
25313W        W85058   9.760  28.594   4.754
25314W        W85059  41.016   3.718  12.030
25315W        W85060  28.041  16.661   1.780
25316W        W85061  13.792  43.288  14.821
25317W        W85062  32.586  31.095  11.073
25318W        W85063  12.694  10.328   2.790
25319W        W85064  39.485  26.092   1.345
25320W        W85065  26.651   7.221   4.684
25321W        W85066  11.848  17.300  14.909
25322W        W85067  15.691  12.215  14.325
25323W        W85068  38.977  40.898   2.862
25324W        W85069  41.292  36.447  13.890
25325W        W85070   8.288   9.277   4.344
25326W        W85071  33.555   9.395   0.894
25327W        W85072  30.424  22.227   4.130
25328W        W85073   4.216  11.147  11.593
25329W        W85074  14.336  35.583  13.332
25330W        W85075  18.602  22.576   1.705
25331W        W85076   3.765  29.919  10.533
25332W        W85077  18.769   7.341  12.885
25333W        W85078  44.790  29.582   0.829
25334W        W85079   8.239  44.398  10.596
25335W        W85080  16.129  29.957   3.186
25336W        W85081  30.010  19.595  10.545
25337W        W85082  27.942  34.873  11.478
25338W        W85083  34.444  25.166   3.768
25339W        W85084  23.119  34.019  12.067
25340W        W85085  30.025  20.084  13.030
25341W        W85086  22.087  41.408  12.413
25342W        W85087  43.987  10.211   0.730
25343W        W85088  40.536  34.867   4.276
25344W        W85089  12.844  15.285  13.019
25345W        W85090  37.955  39.961   2.306
25346W        W85091  19.584  35.556  14.315
25347W        W85092   3.789  40.827   2.285
25348W        W85093  43.929  25.045   0.848
25349W        W85094   7.355  24.057  10.467
25350W        W85095  34.537   5.696   4.730
25351W        W85096  36.464   5.832   2.179
25352W        W85097  32.508  30.029   0.732
25353W        W85098  41.504  43.388   3.220
25354W        W85099  33.542  17.640   3.230
25355W        W85100  38.932  14.114  11.526
25356W        W85101  33.988  27.607  14.020
25357W        W85102   1.347  28.967  14.423
25358W        W85103  28.059  16.627   3.639
25359W        W85104  16.114  12.252  14.340
25360W        W85105   7.233   3.426   0.728
25361W        W85106  14.185   5.291  12.431
25362W        W85107   2.787  23.697   2.406
25363W        W85108   9.256  39.886   1.311
25364W        W85109  37.368   3.424  12.001
25365W        W85110  27.658  20.264   3.705
25366W        W85111  25.016  34.006  14.457
25367W        W85112  29.505  16.711   2.250
25368W        W85113  42.353  30.656  11.372
25369W        W85114  16.621  28.162  10.619
25370W        W85115  35.468  22.105   5.153
25371W        W85116  33.513  41.015   1.741
25372W        W85117   5.289  28.930   1.225
25373W        W85118  26.129  30.999   5.631
25374W        W85119  41.328   4.920  14.847
25375W        W85120  43.425  16.625  12.952
25376W        W85121  21.651  21.118  14.310
25377W        W85122   5.345   3.731   2.204
25378W        W85123  18.256  22.646  12.420
25379W        W85124  25.010  40.829  13.943
25380W        W85125  10.745   7.742   3.806
25381W        W85126  38.031   6.851  12.087
25382W        W85127   1.851   3.746   3.183
25383W        W85128  34.040  29.129   0.316
25384W        W85129  42.321  38.561   3.156
25385W        W85130  44.314  41.817   0.832
25386W        W85131  11.157   8.365  13.398
25387W        W85132  24.648   2.796   4.139
25388W        W85133   7.705  40.381   2.330
25389W        W85134  21.635  31.114   1.784
25390W        W85135  14.204  26.670   2.776
25391W        W85136  20.264   7.721  11.478
25392W        W85137  15.704  18.770   1.306
25393W        W85138   0.410  14.669  13.390
25394W        W85139  31.976  27.620  12.544
25395W        W85140   2.765  23.693   0.287
25396W        W85141  21.693  29.101  14.861
25397W        W85142  27.176  31.633   4.242
25398W        W85143  20.128  26.199   4.774
25399W        W85144  40.345  41.514  10.889
25400W        W85145  27.570  38.055   3.146
25401W        W85146   9.870  18.708   0.875
25402W        W85147  12.321   1.335  13.909
25403W        W85148  30.437   5.780   2.775
25404W        W85149  36.489  37.912  12.027
25405W        W85150  30.983  38.996  12.470
25406W        W85151  37.450  20.744   1.720
25407W        W85152  34.977  42.363  14.799
25408W        W85153  21.699  19.704   1.249
25409W        W85154  33.883  27.983  10.098
25410W        W85155   9.213  23.571   3.779
25411W        W85156  16.163   8.350  10.548
25412W        W85157  11.763  20.611  10.631
25413W        W85158  13.306  24.205  10.545
25414W        W85159  42.865  30.466  14.474
25415W        W85160  30.007   7.690  13.544
25416W        W85161  22.690   6.236   4.317
25417W        W85162  37.418   2.910   3.253
25418W        W85163  37.965  41.452  11.546
25419W        W85164  26.076  24.199   4.296
25420W        W85165  21.559  35.361   1.761
25421W        W85166  34.478  42.848  10.465
25422W        W85167  41.988  31.918  14.426
25423W        W85168  20.554  11.228   0.378
25424W        W85169  12.634  25.514  12.386
25425W        W85170  42.978   9.655  12.957
25426W        W85171  30.129  19.224   2.742
25427W        W85172   8.162  25.679   4.209
25428W        W85173   7.304  28.487  14.445
25429W        W85174  20.641  44.371   1.304
25430W        W85175   3.809  34.598   0.810
25431W        W85176  27.617  25.209  13.931
25432W        W85177   6.234  23.658   3.825
25433W        W85178  36.353  29.952  14.482
25434W        W85179   9.376   3.376   2.417
25435W        W85180  13.144   8.684  10.531
25436W        W85181  42.477  32.953  10.517
25437W        W85182   1.859  11.152   4.237
25438W        W85183   8.770  38.553  13.058
25439W        W85184  39.366   3.273  14.889
25440W        W85185  39.037  33.536  14.984
25441W        W85186  31.524  22.120  14.895
25442W        W85187   4.814  12.699  13.406
25443W        W85188   5.852   7.786  14.840
25444W        W85189   3.381   6.864  12.418
25445W        W85190  27.563  15.816   4.233
25446W        W85191  10.676  42.891   1.226
25447W        W85192   7.188  43.833  12.417
25448W        W85193  19.576  23.091   4.607
25449W        W85194  21.612   0.753  10.023
25450W        W85195  11.276  36.430   4.643
25451W        W85196  18.090  31.585  14.783
25452W        W85197  42.928  24.228  13.476
25453W        W85198  38.932  44.267  12.965
25454W        W85199  24.652  41.534   3.182
25455W        W85200  30.995  37.883   2.869
25456W        W85201  18.184   3.883  14.974
25457W        W85202   6.319  15.818  10.491
25458W        W85203   9.754  30.009  13.826
25459W        W85204  24.984   4.418   0.304
25460W        W85205  31.549  11.786   2.268
25461W        W85206  39.045  23.611  14.476
25462W        W85207   7.704  33.910   3.287
25463W        W85208  22.081  22.139  14.328
25464W        W85209  35.445   3.831  11.531
25465W        W85210  22.639   1.974  12.560
25466W        W85211  19.050  14.267  12.845
25467W        W85212  42.874  21.642  13.013
25468W        W85213   1.321  15.249   0.252
25469W        W85214  43.422  43.303   4.687
25470W        W85215  29.041  24.132  14.367
25471W        W85216  44.988  13.294   2.187
25472W        W85217  30.982  37.893   0.956
25473W        W85218   4.398  19.136   2.734
25474W        W85219  14.120   7.682   2.361
25475W        W85220  33.098  23.692   2.875
25476W        W85221  27.195  26.200  14.516
25477W        W85222  16.292  19.206  10.560
25478W        W85223  25.470   2.817  12.554
25479W        W85224  26.195  27.510  12.853
25480W        W85225   2.951  35.919   2.699
25481W        W85226  19.271  35.451   4.243
25482W        W85227  20.551  40.438  13.933
25483W        W85228  17.765  24.158   2.235
25484W        W85229  22.634  13.259  12.570
25485W        W85230  32.459  37.086  13.546
25486W        W85231  13.693   3.414  11.935
25487W        W85232  15.272  40.885  12.895
25488W        W85233  26.653  29.008   2.295
25489W        W85234   5.929  31.114  12.374
25490W        W85235  10.288   2.373  14.853
25491W        W85236  17.586  44.436   3.783
25492W        W85237  32.965   2.810   1.372
25493W        W85238  18.121  38.445   4.814
25494W        W85239   5.849   3.870   2.765
25495W        W85240  17.556   8.309  13.503
25496W        W85241  17.081   1.255   1.244
25497W        W85242  21.219  42.281  10.625
25498W        W85243  41.335  14.190  12.870
25499W        W85244  31.565  32.115   3.827
25500W        W85245  15.803  17.624  14.952
25501W        W85246  10.156  23.712   4.354
25502W        W85247   7.368  25.528  10.608
25503W        W85248  11.221  36.362  12.068
25504W        W85249  11.219  29.931  11.409
25505W        W85250  38.839  28.012  12.522
25506W        W85251   7.851  14.129   1.423
25507W        W85252  10.790  30.596  14.356
25508W        W85253  18.551   6.362   2.681
25509W        W85254  15.820  37.069   1.724
25510W        W85255  10.791  23.510   4.330
25511W        W85256  40.937  38.963  14.322
25512W        W85257  34.410  42.333  11.859
25513W        W85258  14.326  31.458  14.425
25514W        W85259  39.405  39.401  12.559
25515W        W85260  10.651   4.751   0.398
25516W        W85261  26.560  32.508   1.845
25517W        W85262  20.255   7.414   4.308
25518W        W85263  19.571   7.216  14.299
25519W        W85264  29.537   0.825   0.854
25520W        W85265   4.747  29.479  12.836
25521W        W85266  23.044  11.369  12.855
25522W        W85267  38.846  20.596  13.340
25523W        W85268  11.217  17.128   3.281
25524W        W85269   5.861  44.412  10.888
25525W        W85270  24.480  24.721   3.857
25526W        W85271   7.819  11.678   5.221
25527W        W85272   5.751   8.180   4.331
25528W        W85273  30.134  26.560   2.811
25529W        W85274  12.665  30.566  13.473
25530W        W85275  10.158  39.823   0.435
25531W        W85276  12.144  33.468   1.389
25532W        W85277   9.674  12.132  10.523
25533W        W85278   4.217  43.402  12.046
25534W        W85279  25.032   2.839   1.757
25535W        W85280  20.687  12.249  13.835
25536W        W85281   7.280  12.354   1.751
25537W        W85282  17.694   4.411  12.522
25538W        W85283  39.348  43.330  14.456
25539W        W85284  38.024  22.681   1.834
25540W        W85285  25.656  25.591  13.844
25541W        W85286   1.814  35.533  12.068
25542W        W85287  33.954  23.987  12.427
25543W        W85288  28.132  41.786  13.346
25544W        W85289  38.423  32.518  14.473
25545W        W85290  42.954  32.117   2.269
25546W        W85291  38.024  34.913   0.821
25547W        W85292   6.191  33.924   3.332
25548W        W85293   9.314   4.423  13.992
25549W        W85294   8.387  30.534  10.962
25550W        W85295   1.240  33.470  10.512
25551W        W85296   3.881  27.488  10.520
25552W        W85297   5.822   3.340   1.364
25553W        W85298   1.413   1.861  13.843
25554W        W85299  44.393  12.681  12.544
25555W        W85300  43.897  26.627   0.372
25556W        W85301  16.613  13.105  12.430
25557W        W85302  22.025  29.940   0.447
25558W        W85303  21.174  29.507   3.643
25559W        W85304  18.095  18.754   2.215
25560W        W85305  23.580   9.340  14.947
25561W        W85306  14.835   2.362   3.646
25562W        W85307  21.028   3.413   5.280
25563W        W85308   2.870  24.025   2.817
25564W        W85309  40.434  19.164  12.346
25565W        W85310   1.304  41.918  14.873
25566W        W85311  19.675  24.141  12.011
25567W        W85312  39.856  19.771  13.539
25568W        W85313  29.155  40.513   4.679
25569W        W85314  29.638  23.687  12.985
25570W        W85315  11.186   2.888  14.406
25571W        W85316  14.290  18.759   0.291
25572W        W85317  20.665  34.943  13.873
25573W        W85318  30.588  26.961   5.128
25574W        W85319  44.923  36.080  13.364
25575W        W85320  37.025  24.519  12.550
25576W        W85321  42.420  39.927  13.331
25577W        W85322   0.422  42.426  14.310
25578W        W85323  25.574   1.458   3.847
25579W        W85324  11.288  13.761   4.304
25580W        W85325  18.229  10.367  11.532
25581W        W85326  13.108  37.506   1.370
25582W        W85327   8.184  14.340   2.190
25583W        W85328  27.064  35.930   1.334
25584W        W85329  29.476   0.299  13.322
25585W        W85330  17.783   1.805   0.886
25586W        W85331  21.563  19.179  11.557
25587W        W85332  36.024  17.728  11.992
25588W        W85333  23.590  31.067   4.656
25589W        W85334  33.075   0.922   4.312
25590W        W85335  43.345  24.699  12.392
25591W        W85336   3.857  30.103   4.155
25592W        W85337  42.787  27.103   1.871
25593W        W85338  28.495  23.088   2.269
25594W        W85339  29.542  28.591  11.984
25595W        W85340  28.606  24.117   1.763
25596W        W85341   9.207   9.720   0.839
25597W        W85342  19.568  31.556   1.284
25598W        W85343   7.287  34.589   1.292
25599W        W85344  15.704  30.161  11.909
25600W        W85345  12.689  24.520   2.392
25601W        W85346  38.543  30.623   0.276
25602W        W85347  24.014  39.982   1.793
25603W        W85348  19.712  39.379   0.830
25604W        W85349   8.379  23.608   2.746
25605W        W85350   1.830   2.818  12.881
25606W        W85351  38.502   5.909   2.715
25607W        W85352  32.434  34.502  14.819
25608W        W85353  40.423  15.675   4.683
25609W        W85354  32.108   9.282   5.169
25610W        W85355   3.805  11.141   2.404
25611W        W85356  11.841  17.198   3.832
25612W        W85357  25.674  13.800   4.632
25613W        W85358  40.392  21.534   2.720
25614W        W85359  13.654  18.155   1.221
25615W        W85360  18.633  23.633   2.294
25616W        W85361  31.000  21.682  13.853
25617W        W85362   0.394   5.213   2.354
25618W        W85363  17.766  36.851   1.227
25619W        W85364  39.819  23.192  14.355
25620W        W85365   2.352  11.132  13.509
25621W        W85366  40.323   7.814   4.606
25622W        W85367  18.758  22.170   3.333
25623W        W85368  19.557  41.825  12.914
25624W        W85369  17.065  15.309   3.222
25625W        W85370  28.522  25.596  14.346
25626W        W85371   8.217  28.591   3.204
25627W        W85372   3.841  40.049   2.371
25628W        W85373  10.713  26.089  13.428
25629W        W85374   3.256   3.901  11.856
25630W        W85375  21.259   9.817   2.793
25631W        W85376  26.169  32.559  12.053
25632W        W85377   5.341  15.713  11.085
25633W        W85378  30.163   2.232   2.312
25634W        W85379  19.764  35.579   3.870
25635W        W85380   3.403   0.935   1.231
25636W        W85381  20.573  28.505  14.292
25637W        W85382  36.583  26.621   3.677
25638W        W85383   0.314  25.684   2.774
25639W        W85384  18.207  33.412   1.782
25640W        W85385  11.792  28.454  11.011
25641W        W85386   0.860  25.639  12.574
25642W        W85387  13.167  43.476   2.798
25643W        W85388  26.170  42.947  11.398
25644W        W85389  19.646  39.943  10.435
25645W        W85390   3.451  32.486   4.329
25646W        W85391  26.546  25.085  13.872
25647W        W85392  18.566  14.734   1.419
25648W        W85393  18.651   9.344   2.844
25649W        W85394  21.179  16.797   9.653
25650W        W85395  32.074  16.293  10.077
25651W        W85396  26.643   1.814  12.379
25652W        W85397  33.008  15.118   1.369
25653W        W85398   8.191   3.820   3.367
25654W        W85399  42.995  12.685   0.770
25655W        W85400  19.124  34.566  12.956
25656W        W85401  26.529  25.029   3.646
25657W        W85402  37.430  18.673   5.148
25658W        W85403   3.351  33.413   2.351
25659W        W85404  18.152  41.506   0.360
25660W        W85405  28.521   0.834  14.867
25661W        W85406  18.211  28.503   0.773
25662W        W85407  34.421  13.748  11.380
25663W        W85408  36.453   4.829  10.042
25664W        W85409  18.692   7.223  13.534
25665W        W85410   4.781   3.259   1.748
25666W        W85411   3.756  37.976  14.459
25667W        W85412  24.588  32.092  10.550
25668W        W85413  32.506  20.083   4.700
25669W        W85414  19.589   0.394  14.848
25670W        W85415  21.619  18.595  12.507
25671W        W85416  16.600   9.325   4.786
25672W        W85417  33.548  31.447  14.390
25673W        W85418   9.228   8.264  12.927
25674W        W85419  36.863   3.267  14.915
25675W        W85420   1.760  23.525   0.453
25676W        W85421   3.365  27.491  12.002
25677W        W85422  15.741  22.697  13.899
25678W        W85423  27.070  19.081   1.932
25679W        W85424   6.864  21.079   4.837
25680W        W85425   9.840  43.512   2.713
25681W        W85426  41.352  37.036   2.405
25682W        W85427  17.125  23.086   1.910
25683W        W85428  12.824  17.773  14.977
25684W        W85429  27.476   3.823   4.198
25685W        W85430  35.078  23.095  12.089
25686W        W85431  12.339  22.536   1.806
25687W        W85432  43.342  42.016   2.758
25688W        W85433  19.575   1.267   9.457
25689W        W85434  13.222  29.967  14.853
25690W        W85435   4.317   3.911  11.126
25691W        W85436   9.232  21.029  11.400
25692W        W85437  37.953  34.418  14.427
25693W        W85438  36.929  44.865   4.754
25694W        W85439  21.101  44.276   0.798
25695W        W85440  36.436  36.096  13.355
25696W        W85441  38.895  39.973  12.493
25697W        W85442   1.272  39.413  13.329
25698W        W85443  31.072  24.173   1.241
25699W        W85444  44.807  13.317   0.458
25700W        W85445  28.439  11.257  14.843
25701W        W85446  22.681  13.203  13.435
25702W        W85447  17.236  37.473   4.220
25703W        W85448  40.336  28.063   5.172
25704W        W85449  14.209   3.954   2.859
25705W        W85450  21.634  40.486  12.905
25706W        W85451  27.559  25.154   2.243
25707W        W85452   4.384  31.942   1.870
25708W        W85453  24.161  12.255  11.585
25709W        W85454  21.718  27.068   4.209
25710W        W85455  30.639  20.141  13.962
25711W        W85456  16.635  27.491   2.815
25712W        W85457   8.209  30.485  14.318
25713W        W85458   3.827   2.363  12.082
25714W        W85459  32.442  41.481  11.973
25715W        W85460  39.355   3.356   1.252
25716W        W85461   3.789  15.296  13.952
25717W        W85462  29.019  34.382   4.764
25718W        W85463  41.376  11.868   2.750
25719W        W85464   5.780  40.810  11.112
25720W        W85465  30.989  35.061   2.893
25721W        W85466  25.060  18.293  11.459
25722W        W85467  25.689  26.095  14.337
25723W        W85468  37.086  36.368   1.817
25724W        W85469  34.583   2.464  13.999
25725W        W85470  41.915  15.775   3.317
25726W        W85471   7.373  34.451  12.094
25727W        W85472  12.126   6.722   4.644
25728W        W85473   6.422  15.099   4.757
25729W        W85474  30.580   8.837   4.660
25730W        W85475  40.954  16.184  11.075
25731W        W85476  35.465  40.379   3.220
25732W        W85477  42.361  12.676   3.149
25733W        W85478   9.696  36.349  13.464
25734W        W85479  15.674  18.117   3.763
25735W        W85480  18.191  12.751  12.524
25736W        W85481   5.875   6.393  12.392
25737W        W85482   4.874  20.126  11.419
25738W        W85483  42.020  23.171   1.365
25739W        W85484  18.191  34.600   1.747
25740W        W85485  39.007   7.715  13.056
25741W        W85486  42.910  34.615   3.347
25742W        W85487  16.632  38.943   4.822
25743W        W85488  39.957  17.580   4.786
25744W        W85489  37.039   5.270   0.430
25745W        W85490   8.784  32.061   9.991
25746W        W85491  28.555  10.767  14.869
25747W        W85492  25.665  36.492  14.371
25748W        W85493   2.962   3.757  12.355
25749W        W85494  39.029  13.129   2.754
25750W        W85495  19.662  42.366  14.294
25751W        W85496  39.556  34.459  12.032
25752W        W85497   1.370   3.929   4.810
25753W        W85498   6.747  10.817  12.063
25754W        W85499  31.637   3.808   4.631
25755W        W85500  27.196  19.615   0.348
25756W        W85501  31.996  18.202  11.573
25757W        W85502  32.025  35.553   3.238
25758W        W85503   0.890  11.169  13.902
25759W        W85504  14.167  17.665  11.544
25760W        W85505  40.352   9.673   2.664
25761W        W85506   7.835  44.486   1.297
25762W        W85507   3.228  11.784  10.554
25763W        W85508  24.587  35.573   9.651
25764W        W85509  14.284  22.513  13.814
25765W        W85510  24.626  27.026   2.260
25766W        W85511   5.830  42.794   1.922
25767W        W85512  18.744  21.690   1.875
25768W        W85513   0.306  32.902   2.681
25769W        W85514  33.047  21.702   5.207
25770W        W85515  40.939  37.572  11.925
25771W        W85516  39.890  34.598  10.957
25772W        W85517  22.116   7.731   4.735
25773W        W85518  29.429  11.220   0.379
25774W        W85519  37.926  18.170  14.992
25775W        W85520  17.221   1.845   1.769
25776W        W85521  27.987   6.837  11.994
25777W        W85522  24.718  16.781   4.255
25778W        W85523  12.142  41.807  12.836
25779W        W85524  15.264  14.228   2.253
25780W        W85525  20.270  42.318   1.847
25781W        W85526   5.879  36.888   0.287
25782W        W85527  39.030   5.213   4.700
25783W        W85528  37.083  41.991   3.749
25784W        W85529   6.390  20.703   1.341
25785W        W85530  15.207  24.985   1.234
25786W        W85531  42.329  38.392   0.413
25787W        W85532  26.698  11.638   3.782
25788W        W85533   7.842  40.046   4.170
25789W        W85534  14.332   2.941   2.309
25790W        W85535  19.726  34.915   2.677
25791W        W85536   0.957   5.359  13.874
25792W        W85537   2.731  25.979  12.376
25793W        W85538  11.681  43.286  11.419
25794W        W85539   4.801  36.951   5.671
25795W        W85540   7.731   4.257   0.830
25796W        W85541  13.345  23.711  14.282
25797W        W85542  28.025  12.227  13.456
25798W        W85543   6.370   7.249   3.645
25799W        W85544  18.116   5.209  11.471
25800W        W85545  38.986  43.482   0.818
25801W        W85546  30.470  28.500  13.958
25802W        W85547   3.877  31.114   9.624
25803W        W85548  23.573  40.863  11.080
25804W        W85549  10.236  31.992   5.118
25805W        W85550  15.134  22.069  13.479
25806W        W85551  14.790  31.126   3.723
25807W        W85552  20.594   8.187  13.857
25808W        W85553  30.596  24.116   3.155
25809W        W85554   3.430  22.142   3.690
25810W        W85555  43.804  29.135   5.651
25811W        W85556   0.956  17.639   1.802
25812W        W85557  36.026  37.434   1.354
25813W        W85558  34.933  10.729  14.293
25814W        W85559  16.305  16.202   1.218
25815W        W85560  23.158  21.238  11.446
25816W        W85561  14.611   7.711   0.778
25817W        W85562  34.407  37.394  14.923
25818W        W85563  42.403  21.732   3.635
25819W        W85564  44.416  44.501  12.091
25820W        W85565  39.412  32.579   4.762
25821W        W85566  29.470  36.887  11.446
25822W        W85567  35.958  34.495  11.548
25823W        W85568  26.185  26.169   4.166
25824W        W85569  15.278  18.079  12.367
25825W        W85570  23.570  33.500  10.003
25826W        W85571  41.881  13.697   4.806
25827W        W85572   0.455  44.474  14.295
25828W        W85573  12.693   2.863  13.357
25829W        W85574  39.431  39.509   4.753
25830W        W85575  37.336   5.927  14.942
25831W        W85576  35.920  32.987  14.472
25832W        W85577  38.386  30.114  12.580
25833W        W85578   9.289  38.838  10.979
25834W        W85579  33.471   2.782   0.467
25835W        W85580  32.443   7.380   9.612
25836W        W85581  37.866  31.152  10.407
25837W        W85582   4.860  36.874  11.981
25838W        W85583  39.028  13.135   3.357
25839W        W85584  22.108  26.567  13.033
25840W        W85585  19.695  11.714   5.231
25841W        W85586  41.882  28.600   1.299
25842W        W85587  31.012  41.348  10.978
25843W        W85588  18.078   2.412   3.777
25844W        W85589   1.251  28.667  13.322
25845W        W85590  23.623  27.133   2.330
25846W        W85591  37.033  18.255   2.754
25847W        W85592  33.430   1.814   5.100
25848W        W85593  35.429  11.129   3.285
25849W        W85594   5.814  21.663  14.012
25850W        W85595  32.932  38.837  14.336
25851W        W85596  13.834  25.170   3.173
25852W        W85597  20.104  19.778  13.501
25853W        W85598  12.142  17.168   2.718
25854W        W85599  22.080  35.104   0.837
25855W        W85600  32.913  27.160   4.349
25856W        W85601  33.532   0.916   3.184
25857W        W85602  27.165  17.167  11.092
25858W        W85603   5.872  26.032   2.828
25859W        W85604   4.851  43.494  11.501
25860W        W85605  32.443  12.681  14.510
25861W        W85606  30.983  25.013  13.475
25862W        W85607  40.986  16.251  13.002
25863W        W85608  32.042  31.450   0.750
25864W        W85609  21.546  20.094   4.177
25865W        W85610  36.940   1.439   3.274
25866W        W85611  15.200  16.185  14.768
25867W        W85612  19.107  38.957   0.884
25868W        W85613   6.205  32.590   1.886
25869W        W85614  43.764  44.504  12.467
25870W        W85615   0.785  33.874   4.714
25871W        W85616  44.485  22.744  11.861
25872W        W85617  18.254  12.166  13.511
25873W        W85618   1.424  43.944   1.769
25874W        W85619  38.351  39.845   4.198
25875W        W85620   6.310  12.636   2.739
25876W        W85621   6.794  44.271   0.447
25877W        W85622  15.329  31.139   1.791
25878W        W85623  35.863  35.452   3.798
25879W        W85624  20.524  34.438  12.527
25880W        W85625  15.776   8.796  11.512
25881W        W85626  27.997  21.514  10.430
25882W        W85627   0.269  33.517   4.127
25883W        W85628  21.046  42.413   2.240
25884W        W85629  25.211  37.853  11.860
25885W        W85630  37.836  36.526   1.240
25886W        W85631  21.663  26.467  10.470
25887W        W85632   8.705  27.034   3.147
25888W        W85633  13.785  27.153  14.954
25889W        W85634  37.343  39.013   3.288
25890W        W85635  24.548   2.890   0.903
25891W        W85636  11.371   7.693  12.070
25892W        W85637  23.677  38.853  11.959
25893W        W85638  16.626  40.804   4.620
25894W        W85639  34.950  26.650   2.338
25895W        W85640   8.860   9.887  11.965
25896W        W85641  23.675  20.660  13.547
25897W        W85642  30.477  40.929   4.354
25898W        W85643   6.267   0.307   0.785
25899W        W85644  34.046  13.344  10.982
25900W        W85645  29.651  44.374   5.304
25901W        W85646  27.983   8.889   5.313
25902W        W85647  29.613   3.363  13.364
25903W        W85648  19.540  31.902  10.453
25904W        W85649  43.373   8.304  14.850
25905W        W85650   8.180  13.232  13.818
25906W        W85651  32.079  16.305   0.382
25907W        W85652  22.082  28.016   2.711
25908W        W85653  29.478   8.716  12.952
25909W        W85654  21.724  43.813   1.919
25910W        W85655   3.224  23.194  13.030
25911W        W85656  30.035  24.518  14.915
25912W        W85657  20.607  17.097   4.255
25913W        W85658  34.957  34.102   3.648
25914W        W85659   0.974   9.742  13.809
25915W        W85660  15.585  31.051   4.192
25916W        W85661  14.219  40.008  11.436
25917W        W85662  40.442  20.630   0.847
25918W        W85663   8.860  22.104  14.979
25919W        W85664  14.106  24.218   3.776
25920W        W85665   5.871  38.991   3.330
25921W        W85666  43.461  24.498  10.936
25922W        W85667  29.655  28.115  13.940
25923W        W85668  31.589  11.204  13.814
25924W        W85669  28.972  17.602   1.398
25925W        W85670  21.181  33.553   0.751
25926W        W85671  12.306   1.452   4.807
25927W        W85672  26.066  25.614   2.889
25928W        W85673   7.723  16.178   3.189
25929W        W85674  38.953  19.626   1.777
25930W        W85675  12.729   0.284  11.067
25931W        W85676  10.189   0.479  10.095
25932W        W85677  28.052  24.617   2.749
25933W        W85678  25.545  12.209   4.792
25934W        W85679   2.959  13.168  13.509
25935W        W85680  23.511   2.435   1.746
25936W        W85681  30.108  42.791   4.198
25937W        W85682  22.013  35.535   0.875
25938W        W85683  10.768  20.073   3.702
25939W        W85684  29.104  38.032   1.836
25940W        W85685  35.518   2.416   3.667
25941W        W85686  42.357   1.773  10.917
25942W        W85687  43.940   1.407   3.693
25943W        W85688   1.840   5.889   1.355
25944W        W85689  40.819  34.577  13.364
25945W        W85690  37.006  26.954  11.571
25946W        W85691   7.371  44.350   0.862
25947W        W85692  20.218  27.472   1.718
25948W        W85693   2.299  43.377   0.739
25949W        W85694  36.028  36.844  12.511
25950W        W85695  29.667  20.246  14.013
25951W        W85696  22.702  10.633  13.031
25952W        W85697  18.162  18.129  10.892
25953W        W85698   6.384  39.454   3.218
25954W        W85699  37.394   1.461   1.824
25955W        W85700  10.785  26.602   1.215
25956W        W85701  14.179  28.141  12.069
25957W        W85702  30.939  40.952   3.747
25958W        W85703  35.361  32.571  13.531
25959W        W85704  23.605  14.321  14.413
25960W        W85705  40.852  19.117   3.251
25961W        W85706   6.792   6.885   4.642
25962W        W85707  25.674  41.950  14.375
25963W        W85708   2.949  10.812  12.507
25964W        W85709   6.680  22.027  14.899
25965W        W85710  22.076  27.508  10.458
25966W        W85711  35.561  38.838  14.507
25967W        W85712  29.665   5.233   9.492
25968W        W85713   7.210  28.544  11.914
25969W        W85714  44.456  30.426   1.281
25970W        W85715   4.748  19.226   3.327
25971W        W85716  36.904  23.016  11.127
25972W        W85717  40.909  17.768   4.680
25973W        W85718  30.602  37.536   0.799
25974W        W85719   7.267   0.880   1.915
25975W        W85720  18.090   2.882   3.860
25976W        W85721  11.659  31.915  14.861
25977W        W85722  11.662  41.906   4.670
25978W        W85723  16.787   0.341  11.398
25979W        W85724  11.308  15.714  11.107
25980W        W85725  12.830  29.569   0.918
25981W        W85726  25.616  36.861   2.762
25982W        W85727  37.484  13.629   1.908
25983W        W85728   8.175  41.984   1.444
25984W        W85729  11.169   2.768  12.844
25985W        W85730   8.223  21.523   0.273
25986W        W85731  16.304  32.436  12.997
25987W        W85732  36.575  43.847  14.809
25988W        W85733   4.270  18.142   1.359
25989W        W85734  24.557   2.277  14.027
25990W        W85735  10.682  17.265   1.876
25991W        W85736  12.328   3.813   3.149
25992W        W85737   7.834  32.084   3.363
25993W        W85738  17.625  39.859  14.370
25994W        W85739  13.131  26.632   4.207
25995W        W85740  13.831   6.688  14.452
25996W        W85741  15.732  34.108  12.020
25997W        W85742  28.143   4.840  14.877
25998W        W85743  10.366  40.492   1.917
25999W        W85744  30.538  18.290   3.713
26000W        W85745  19.282  25.692  13.904
26001W        W85746  34.070  29.993   1.422
26002W        W85747   6.764   6.784   3.801
26003W        W85748  36.922  30.651   1.759
26004W        W85749   5.719  15.291  12.419
26005W        W85750  32.128   1.354   2.191
26006W        W85751  20.590  44.829   0.934
26007W        W85752  28.534  12.291   3.716
26008W        W85753  10.249   7.252  10.026
26009W        W85754  38.899   3.278   3.184
26010W        W85755   7.254  11.149  10.545
26011W        W85756  12.844  39.419  14.815
26012W        W85757  23.233  24.996   4.151
26013W        W85758  39.893   0.421   2.817
26014W        W85759   5.720  22.111   3.783
26015W        W85760  40.935  44.323   0.392
26016W        W85761   5.431  10.380  14.287
26017W        W85762  32.467  22.612   2.820
26018W        W85763  44.896  32.517   4.741
26019W        W85764  27.542  28.510  11.037
26020W        W85765  10.808  33.920   3.799
26021W        W85766  32.093  40.459   2.192
26022W        W85767   4.758  14.236   2.300
26023W        W85768  32.011   4.204  12.994
26024W        W85769   7.312  23.001  14.950
26025W        W85770  15.683   1.845   2.417
26026W        W85771  16.601  14.608  14.498
26027W        W85772  29.171  14.337   4.245
26028W        W85773  25.681   4.723   0.810
26029W        W85774   3.714  32.092   3.316
26030W        W85775  29.580  13.738   4.639
26031W        W85776  13.342  27.154   2.339
26032W        W85777  31.619  40.967   2.386
26033W        W85778  15.321   9.708  14.371
26034W        W85779   1.901  40.881  14.376
26035W        W85780  24.077  26.174   3.787
26036W        W85781  31.077   1.475   9.607
26037W        W85782  26.111   4.233  10.920
26038W        W85783  44.963  26.499   3.696
26039W        W85784  15.734  24.107  12.483
26040W        W85785  37.041  17.119   3.683
26041W        W85786   0.271  22.743   1.437
26042W        W85787   9.878  16.727  14.407
26043W        W85788  21.160  41.333  12.084
26044W        W85789  26.982   7.172  10.917
26045W        W85790  10.653  13.694   3.665
26046W        W85791  17.800   8.363  12.905
26047W        W85792   3.261  17.261  10.599
26048W        W85793  36.078  23.033  14.428
26049W        W85794  40.500   8.835  14.332
26050W        W85795  29.589  41.330   0.459
26051W        W85796  19.544   1.257  13.822
26052W        W85797  35.966   2.358  10.608
26053W        W85798  25.126  34.887   0.866
26054W        W85799  21.045   0.265  11.373
26055W        W85800   7.806  26.952  14.987
26056W        W85801  34.036  24.210   1.696
26057W        W85802  11.151  12.833  14.363
26058W        W85803  32.061  27.654   3.327
26059W        W85804  42.985  40.375  10.962
26060W        W85805  16.315  23.144  12.858
26061W        W85806   8.355  36.934   1.296
26062W        W85807  37.545  40.342  12.030
26063W        W85808   2.254   0.897  12.854
26064W        W85809  43.866  28.092   3.731
26065W        W85810  21.217  35.415   4.348
26066W        W85811  42.314  16.072  11.004
26067W        W85812  38.500   2.916  11.553
26068W        W85813  44.348  16.696  11.570
26069W        W85814  16.151   8.169   2.291
26070W        W85815  39.034  42.374   1.899
26071W        W85816  33.924   7.279  13.905
26072W        W85817  42.303  25.596  10.972
26073W        W85818  41.811  23.118  13.527
26074W        W85819  25.208  15.754   0.459
26075W        W85820  18.281  38.435   3.691
26076W        W85821  39.968  17.684  13.413
26077W        W85822  35.527  40.338   2.290
26078W        W85823   1.913  29.005  13.377
26079W        W85824  43.929  32.544  12.884
26080W        W85825   0.285   6.805  10.622
26081W        W85826  19.116  36.894  10.528
26082W        W85827  30.546  11.774   0.329
26083W        W85828   8.352  37.518   3.367
26084W        W85829  17.183  42.025  12.874
26085W        W85830  26.005   3.870   1.368
26086W        W85831  40.538  43.974  14.954
26087W        W85832   1.750  37.361   3.320
26088W        W85833  11.653   0.247   4.810
26089W        W85834  28.148  15.621   4.317
26090W        W85835   9.650  44.482   1.752
26091W        W85836  31.058  10.191  13.540
26092W        W85837  22.206  35.403   2.841
26093W        W85838  42.356  10.323   0.311
26094W        W85839   2.953  35.860   3.675
26095W        W85840  37.581  34.050   3.161
26096W        W85841  42.481  34.566   4.245
26097W        W85842  13.771  13.124   2.844
26098W        W85843  20.706  26.487   1.409
26099W        W85844  38.365   1.832   3.268
26100W        W85845  19.065  37.570  10.540
26101W        W85846   5.359   6.772   2.809
26102W        W85847  24.186   5.424   4.719
26103W        W85848  35.587  14.652   2.708
26104W        W85849   5.223  23.633   0.248
26105W        W85850  19.722  29.959  10.579
26106W        W85851  18.257   3.895   9.925
26107W        W85852   5.312  41.885  13.519
26108W        W85853  37.054  25.103  13.017
26109W        W85854   5.334  14.599  13.475
26110W        W85855  36.459   5.206   0.825
26111W        W85856  12.311   2.734  12.079
26112W        W85857   8.203   3.829   4.210
26113W        W85858  40.009   3.312   2.223
26114W        W85859  18.700  32.409   2.332
26115W        W85860  31.089  18.561   0.866
26116W        W85861  26.023  18.590   1.786
26117W        W85862  16.187  22.091   3.338
26118W        W85863   3.757   7.692   2.773
26119W        W85864  11.269  30.573   4.707
26120W        W85865  44.478   3.302  13.823
26121W        W85866   0.968  14.831   3.246
26122W        W85867  18.773  38.531   0.283
26123W        W85868  17.275  24.009  10.523
26124W        W85869  37.016  41.512   0.304
26125W        W85870   1.762   4.767  10.160
26126W        W85871   4.430  43.799   4.282
26127W        W85872  11.141  39.471  14.928
26128W        W85873   9.737  13.268  11.940
26129W        W85874  31.035  29.108  12.919
26130W        W85875   7.854  39.549   3.205
26131W        W85876  31.616  27.489  13.548
26132W        W85877  14.726  42.950   0.475
26133W        W85878  35.852  11.280  11.419
26134W        W85879  18.238   3.402  12.503
26135W        W85880  13.701   7.711  11.560
26136W        W85881   3.302  37.394   3.288
26137W        W85882   1.792  21.019  14.321
26138W        W85883  30.649  37.467  10.939
26139W        W85884  27.191  20.123   2.880
26140W        W85885  25.481  12.759   4.618
26141W        W85886  40.852   6.344  11.579
26142W        W85887  38.031   0.494  14.507
26143W        W85888  38.019  10.239   2.840
26144W        W85889   1.298  23.224  12.463
26145W        W85890   5.801  13.820  10.536
26146W        W85891  30.487  26.162   3.851
26147W        W85892   4.932  31.901   4.220
26148W        W85893   4.252  42.311  14.340
26149W        W85894  35.071   9.721   0.826
26150W        W85895  35.975  12.218   0.455
26151W        W85896  22.048  41.802   1.397
26152W        W85897  15.210  15.323  13.961
26153W        W85898  22.661   7.700  12.079
26154W        W85899  38.836  30.030  10.442
26155W        W85900  34.052  38.919   3.859
26156W        W85901  37.420  11.816   3.767
26157W        W85902  16.253  42.374  14.347
26158W        W85903  28.090  14.128   5.101
26159W        W85904  32.993  27.043  10.955
26160W        W85905  39.435  35.065   2.304
26161W        W85906   4.326  11.294  12.945
26162W        W85907  27.590  38.430  11.924
26163W        W85908  38.564  34.584  13.321
26164W        W85909  38.407  42.386  12.525
26165W        W85910   3.946   1.848   2.337
26166W        W85911  28.071  33.601   5.285
26167W        W85912   5.384  38.015   0.941
26168W        W85913  11.144  34.368   1.399
26169W        W85914  39.344   9.211  11.489
26170W        W85915  14.646  41.506   5.265
26171W        W85916   6.775  25.073   1.283
26172W        W85917  17.669  20.734   3.216
26173W        W85918  19.091  32.531   3.707
26174W        W85919  36.560  38.453  10.482
26175W        W85920  25.590  28.078  14.005
26176W        W85921  13.680  34.116  11.877
26177W        W85922   2.776  41.464  11.989
26178W        W85923   8.388   2.903  11.123
26179W        W85924  34.968  41.394   3.317
26180W        W85925  28.649  33.431   3.223
26181W        W85926  12.615  28.618  13.539
26182W        W85927   1.414  31.932  10.988
26183W        W85928  27.683  21.599   3.708
26184W        W85929  10.726   2.752  13.039
26185W        W85930  31.039  44.371  10.524
26186W        W85931  27.162  30.139  13.791
26187W        W85932  24.700   6.248  12.845
26188W        W85933   3.895  36.921   0.776
26189W        W85934  20.544   3.321  13.412
26190W        W85935  15.205  42.364  14.858
26191W        W85936  29.588  35.882  14.328
26192W        W85937  26.486   1.354   0.889
26193W        W85938  35.092   1.463   4.765
26194W        W85939  20.094  23.208   4.812
26195W        W85940  29.040  18.154  12.520
26196W        W85941  21.059   2.312   2.870
26197W        W85942   5.250  38.995  12.477
26198W        W85943  16.712  16.133   0.857
26199W        W85944   0.340  35.998  12.381
26200W        W85945  19.282   6.881   2.285
26201W        W85946  20.625  21.709  12.530
26202W        W85947   1.958   6.823  12.460
26203W        W85948   4.376  37.847  13.833
26204W        W85949   9.735  37.874   3.241
26205W        W85950  25.587  22.519  12.949
26206W        W85951  26.673  40.417   0.290
26207W        W85952  18.552   8.162  12.050
26208W        W85953   2.242  31.422   0.925
26209W        W85954  25.634  25.523  10.601
26210W        W85955  37.453  22.194  14.475
26211W        W85956   4.916  16.252   0.368
26212W        W85957   1.395  36.071  12.830
26213W        W85958  38.037  26.615  14.003
26214W        W85959  22.631  36.442  11.893
26215W        W85960  37.919  10.778  11.421
26216W        W85961  22.545  12.233  13.534
26217W        W85962  17.748  40.331   3.146
26218W        W85963  30.093  10.339   3.658
26219W        W85964  34.898  17.238   0.423
26220W        W85965   7.848  17.129   0.304
26221W        W85966  44.888   2.758  11.415
26222W        W85967   9.163   0.347   2.702
26223W        W85968  30.954  29.660  12.492
26224W        W85969  33.560  42.840  10.035
26225W        W85970  43.488  27.070  11.416
26226W        W85971  25.707   9.775  10.470
26227W        W85972  42.307  43.320   0.388
26228W        W85973   7.347  29.923  14.927
26229W        W85974   1.425  29.956   0.243
26230W        W85975   0.444  33.955   2.707
26231W        W85976  18.275  35.560   1.423
26232W        W85977   5.194   5.898   2.857
26233W        W85978   8.184  43.431  14.436
26234W        W85979  38.904   0.960  10.995
26235W        W85980  21.115  39.375   0.780
26236W        W85981   9.281  11.725   4.642
26237W        W85982  19.269  19.624   4.258
26238W        W85983  36.380  36.031  12.477
26239W        W85984  28.648  11.340   0.321
26240W        W85985   0.401   7.209   0.458
26241W        W85986  27.143   9.770  12.888
26242W        W85987  24.619  13.215  12.563
26243W        W85988  38.892   1.300  13.895
26244W        W85989  19.186  32.056   2.330
26245W        W85990  26.051  11.296   2.735
26246W        W85991  22.232  20.180   3.716
26247W        W85992  35.377  23.171   1.744
26248W        W85993  24.083   1.291   0.876
26249W        W85994   1.308  41.792  13.891
26250W        W85995  21.220   6.702  12.524
26251W        W85996   8.658  22.090   4.150
26252W        W85997  37.538   7.315  12.385
26253W        W85998  26.561  15.292   9.464
26254W        W85999  34.403  43.280   2.309
26255W        W86000   6.296  18.634  13.904
26256W        W86001  27.668  42.951   2.801
26257W        W86002  30.064  41.935  14.494
26258W        W86003  16.243  12.640  13.050
26259W        W86004   2.759  20.061   2.729
26260W        W86005  22.218  34.485   2.248
26261W        W86006  20.675   7.728   1.765
26262W        W86007  40.856  12.672   3.195
26263W        W86008   6.687  12.232  14.387
26264W        W86009  24.506  30.078   4.789
26265W        W86010   9.177  41.030  14.397
26266W        W86011  23.016  32.462  12.026
26267W        W86012  27.609  13.685   4.141
26268W        W86013  24.574  28.480   0.327
26269W        W86014  27.019  19.244   0.907
26270W        W86015   8.657  11.157   1.703
26271W        W86016  29.984  42.320   3.209
26272W        W86017  43.918  35.876  10.916
26273W        W86018  27.092  36.030   2.872
26274W        W86019  17.697  41.040   0.963
26275W        W86020  37.087  42.369   1.746
26276W        W86021  30.015   0.789   3.734
26277W        W86022  26.628  17.587   2.226
26278W        W86023  35.984  38.358  13.923
26279W        W86024  22.037  22.237  12.357
26280W        W86025  23.549  23.987   4.211
26281W        W86026  15.151  20.661  11.869
26282W        W86027  28.024  16.744   3.336
26283W        W86028  27.666  38.342  14.901
26284W        W86029  19.672   1.908   3.688
26285W        W86030   5.769  40.479   3.813
26286W        W86031  40.815  13.290   0.755
26287W        W86032  43.843  11.203   2.852
26288W        W86033  18.713  31.014   0.749
26289W        W86034   8.337  17.697   4.197
26290W        W86035  19.648  28.136   0.291
26291W        W86036   3.847  42.838  12.463
26292W        W86037  20.753  33.924   2.809
26293W        W86038  15.689  27.574   0.863
26294W        W86039  22.183   3.228   0.306
26295W        W86040  16.113  20.134  11.441
26296W        W86041  12.784  39.328  10.522
26297W        W86042   1.756  42.976   0.272
26298W        W86043  18.735  24.704   4.208
26299W        W86044  38.327  35.436   4.745
26300W        W86045  21.134   4.251   1.274
26301W        W86046  33.480  39.979  13.491
26302W        W86047   2.244  26.009  14.918
26303W        W86048  37.525   2.944  12.863
26304W        W86049   1.262  38.445   0.838
26305W        W86050  30.541  44.275  11.039
26306W        W86051   8.314  16.573  14.798
26307W        W86052  35.392  24.580   1.253
26308W        W86053  29.445  13.746  13.028
26309W        W86054  34.610   2.939   2.198
26310W        W86055  30.596  12.353  13.432
26311W        W86056  26.648  30.126   2.704
26312W        W86057   4.447  33.412   2.345
26313W        W86058  37.083  16.760  11.399
26314W        W86059  11.728  28.972   3.805
26315W        W86060   8.299  22.185   4.826
26316W        W86061   7.378  22.650  13.408
26317W        W86062   3.882   4.261  12.056
26318W        W86063  40.047   5.225  11.094
26319W        W86064  30.481  33.049  14.470
26320W        W86065   7.858   7.911  13.050
26321W        W86066  43.813  28.048   1.383
26322W        W86067  16.694  30.930  14.321
26323W        W86068  39.963  27.624  12.345
26324W        W86069  40.997  28.492   2.239
26325W        W86070  17.295   3.726   3.721
26326W        W86071  11.641   9.159   3.816
26327W        W86072  16.683  24.158  13.870
26328W        W86073  19.236  36.383  14.368
26329W        W86074  40.884  39.955   0.893
26330W        W86075   0.863  12.200  13.037
26331W        W86076  17.112  40.992  11.064
26332W        W86077   9.676  24.509  11.933
26333W        W86078   4.347  24.226  14.923
26334W        W86079   0.890  44.284   1.926
26335W        W86080   6.835   5.874   0.433
26336W        W86081  10.768  14.727  13.353
26337W        W86082  12.799  30.514   2.743
26338W        W86083   9.272  44.985   3.796
26339W        W86084  12.734  21.606   2.701
26340W        W86085  39.473   4.760   2.413
26341W        W86086  28.542  30.074   1.386
26342W        W86087   3.786   8.173  13.499
26343W        W86088   0.963  39.941  14.492
26344W        W86089  15.790   5.344  10.896
26345W        W86090  20.605  14.229   4.189
26346W        W86091  36.060  26.201  13.516
26347W        W86092   4.259  41.985  14.799
26348W        W86093  27.068  35.492   2.381
26349W        W86094  20.738  23.574  13.411
26350W        W86095   5.349  35.422   3.653
26351W        W86096  15.727  33.470   1.450
26352W        W86097  15.244  29.448  14.815
26353W        W86098  17.733  32.034  13.879
26354W        W86099  21.023  17.723   5.281
26355W        W86100   6.897  19.266   4.623
26356W        W86101  21.664  42.301   2.337
26357W        W86102  12.178  14.644   1.336
26358W        W86103  17.762   3.449   5.081
26359W        W86104  42.499  24.594  11.553
26360W        W86105  21.059   4.788  13.402
26361W        W86106  43.885  22.741  12.085
26362W        W86107  24.982  41.792  10.537
26363W        W86108  44.956  44.474  13.364
26364W        W86109  21.736  42.997   0.306
26365W        W86110  32.120   8.795   2.254
26366W        W86111  31.524  10.718   2.751
26367W        W86112  30.119  18.181  13.936
26368W        W86113  25.578  39.808  12.977
26369W        W86114  10.207  32.919   4.335
26370W        W86115  22.505  29.924   1.430
26371W        W86116   6.222   8.757   3.802
26372W        W86117  22.549   0.761   0.757
26373W        W86118   6.386  13.717   3.322
26374W        W86119  13.162  41.491   2.245
26375W        W86120  19.206  19.655  11.471
26376W        W86121  35.412  41.963   4.219
26377W        W86122   5.319   9.232  13.001
26378W        W86123  34.439  32.973   4.694
26379W        W86124  15.689   3.425   3.652
26380W        W86125  29.493  35.383  13.883
26381W        W86126  11.694   0.294   0.415
26382W        W86127  28.080   3.225  10.487
26383W        W86128  16.306   0.778  13.392
26384W        W86129  37.085   2.877   2.671
26385W        W86130  20.749  29.560   3.797
26386W        W86131  31.136  44.452   2.671
26387W        W86132  36.971  31.132  14.362
26388W        W86133  20.758  24.646  10.985
26389W        W86134  39.921  11.694  12.410
26390W        W86135   0.345  34.545  13.418
26391W        W86136   7.202  11.733  10.546
26392W        W86137   9.887  44.813  11.605
26393W        W86138  44.261  17.292  11.582
26394W        W86139  30.156  39.545   0.484
26395W        W86140   0.892  23.145   4.130
26396W        W86141  17.646  35.593  12.351
26397W        W86142  13.119  22.548   2.191
26398W        W86143  28.652   1.444  11.098
26399W        W86144  26.178  30.422  10.467
26400W        W86145  37.039  40.387  14.862
26401W        W86146  41.326  25.501  10.978
26402W        W86147  37.053   8.748  12.482
26403W        W86148  34.016   5.307  10.476
26404W        W86149  22.217  30.536  14.469
26405W        W86150  30.564  19.558   3.165
26406W        W86151   9.220  33.385   1.329
26407W        W86152  14.773  36.471   5.678
26408W        W86153  42.915  17.710  11.919
26409W        W86154  34.564  16.670  12.356
26410W        W86155  16.628  17.590   2.674
26411W        W86156  12.647   2.273   1.225
26412W        W86157   5.276  30.610   2.203
26413W        W86158   9.686  36.436  11.418
26414W        W86159  29.511   6.262   1.906
26415W        W86160  25.196  44.441  14.336
26416W        W86161  10.705  16.702   0.857
26417W        W86162  10.268  13.674  10.934
26418W        W86163  39.469  11.204  13.859
26419W        W86164  13.265  41.947  11.918
26420W        W86165  35.918   9.733  14.293
26421W        W86166   4.325  21.650   3.367
26422W        W86167  30.109  21.022   3.653
26423W        W86168   0.430  43.274   1.931
26424W        W86169  35.555   5.901   2.669
26425W        W86170  14.201  40.314   1.867
26426W        W86171  36.572   4.239   0.876
26427W        W86172  24.588  24.194  13.365
26428W        W86173  43.514   3.885  12.867
26429W        W86174  36.843   7.768  12.346
26430W        W86175  22.525  20.062  12.524
26431W        W86176  11.633  20.076  14.420
26432W        W86177  22.569  37.036   1.337
26433W        W86178  21.181  18.684  13.020
26434W        W86179  35.940   4.251  14.775
26435W        W86180  18.775  39.920   4.795
26436W        W86181  18.766  17.738   0.876
26437W        W86182  13.230  34.106  10.625
26438W        W86183   1.311  12.670  10.895
26439W        W86184  12.354  31.527  13.021
26440W        W86185  41.964  29.442  10.482
26441W        W86186  32.998   0.754  12.397
26442W        W86187  34.414   4.781  10.498
26443W        W86188  16.197  44.007  12.087
26444W        W86189   5.791  41.853  11.387
26445W        W86190  24.674   1.333   5.313
26446W        W86191  17.200  38.530   2.351
26447W        W86192  37.934  20.750   2.869
26448W        W86193   0.776   3.870  13.313
26449W        W86194  20.690  14.805   1.246
26450W        W86195  28.138  34.524   4.802
26451W        W86196  31.114  12.223  11.012
26452W        W86197  16.222  38.447  12.360
26453W        W86198   3.739   6.781  12.539
26454W        W86199  37.004   0.379  14.762
26455W        W86200  36.420   4.895   2.840
26456W        W86201  22.546   9.226  10.118
26457W        W86202  43.848  36.911   0.291
26458W        W86203  32.505   1.443  13.005
26459W        W86204   8.799   9.670  10.520
26460W        W86205  25.059   2.389   1.320
26461W        W86206  13.698  20.690  13.796
26462W        W86207  16.596  33.084   2.271
26463W        W86208  43.858  43.846  14.422
26464W        W86209   8.839   8.888   2.416
26465W        W86210  38.380  16.293  12.893
26466W        W86211  34.014   8.347  12.824
26467W        W86212  32.923  29.669   2.341
26468W        W86213   8.868   3.877  10.443
26469W        W86214  28.589   7.904   4.707
26470W        W86215  39.049  12.735   4.803
26471W        W86216  27.000  29.474  13.314
26472W        W86217  43.016   9.375  14.919
26473W        W86218  29.033  41.518   1.769
26474W        W86219   3.360  26.064   4.121
26475W        W86220   2.447  11.276  10.483
26476W        W86221  43.794  19.548  13.959
26477W        W86222  44.441   5.707  10.583
26478W        W86223   2.891  15.709   4.647
26479W        W86224  20.137  14.601   4.319
26480W        W86225  20.109  13.763   3.374
26481W        W86226  44.841  39.327   1.924
26482W        W86227  10.201  26.200  11.863
26483W        W86228  11.787  29.092  11.490
26484W        W86229  11.364  13.815  11.524
26485W        W86230  10.642  29.137  11.945
26486W        W86231   1.398  19.250   3.253
26487W        W86232   9.217  27.605   0.869
26488W        W86233  19.638  29.971  12.886
26489W        W86234  11.787  34.429  11.426
26490W        W86235   0.902  17.298  10.939
26491W        W86236  40.372  28.175   9.999
26492W        W86237  38.511  39.007   1.436
26493W        W86238   1.736   1.294   3.754
26494W        W86239  39.041  20.530   4.700
26495W        W86240   7.280  14.202   1.305
26496W        W86241   1.971  28.091  12.450
26497W        W86242  28.564   1.806  13.452
26498W        W86243  15.619   8.800  14.392
26499W        W86244   9.195  10.675   4.133
26500W        W86245  11.794  31.996  12.353
26501W        W86246   8.226  31.519   0.730
26502W        W86247  11.302  28.065  14.943
26503W        W86248  43.365  17.094   1.446
26504W        W86249  42.450  26.472  12.036
26505W        W86250  41.820   9.203  10.510
26506W        W86251   2.253  40.924   3.195
26507W        W86252   3.324  42.025  11.414
26508W        W86253   7.314  17.566   0.852
26509W        W86254  43.011  31.051  14.502
26510W        W86255  25.689  40.033   3.216
26511W        W86256  44.948  32.003   3.159
26512W        W86257  11.272  23.522   2.840
26513W        W86258   0.889  31.086  11.890
26514W        W86259   9.158  32.566  11.574
26515W        W86260  43.306   5.312  14.328
26516W        W86261  29.111  26.564   3.780
26517W        W86262  21.133  18.640   2.803
26518W        W86263  41.849  44.823  12.029
26519W        W86264  20.675  13.784  10.033
26520W        W86265  40.400  44.960   4.773
26521W        W86266   2.860  41.354  10.565
26522W        W86267  25.159  10.340  12.436
26523W        W86268  27.630  18.093  14.512
26524W        W86269   4.210  44.454  11.473
26525W        W86270   8.282  11.244   3.859
26526W        W86271  28.151  39.936   4.756
26527W        W86272  31.084  34.027   3.189
26528W        W86273  14.680  19.637  10.628
26529W        W86274  35.585  44.442   4.131
26530W        W86275  10.803   1.392  14.493
26531W        W86276  35.073  16.107   0.788
26532W        W86277  13.802  25.551  13.831
26533W        W86278  41.947  42.991  11.468
26534W        W86279  18.613  26.582  13.977
26535W        W86280  11.363  27.655   4.155
26536W        W86281  31.090  13.706  11.448
26537W        W86282   7.885  41.312   0.259
26538W        W86283  21.708  25.488   1.854
26539W        W86284  35.519  27.452   2.773
26540W        W86285  25.697   5.894  12.001
26541W        W86286  36.512   1.770  13.834
26542W        W86287  21.045  10.242  10.640
26543W        W86288   3.221   6.846  12.975
26544W        W86289  18.651   9.692   2.841
26545W        W86290  18.639  41.442   4.738
26546W        W86291  30.913  37.061  12.026
26547W        W86292  41.013  27.601   0.829
26548W        W86293  44.760  24.180   4.689
26549W        W86294  36.853  15.698   2.896
26550W        W86295   0.248  41.854   5.158
26551W        W86296   2.743   8.342  14.341
26552W        W86297  39.042   1.301  10.893
26553W        W86298  18.763  14.271   3.266
26554W        W86299  36.350  38.536   3.706
26555W        W86300   5.230  40.043  14.877
26556W        W86301  42.426  42.298   1.363
26557W        W86302  10.712  35.055   4.630
26558W        W86303   5.437   3.739   0.477
26559W        W86304  20.672  24.656  12.443
26560W        W86305   2.304  24.102   4.750
26561W        W86306   1.294  15.744  12.459
26562W        W86307  37.509   2.329  11.561
26563W        W86308   0.863  38.467   1.391
26564W        W86309  19.667  21.075  11.049
26565W        W86310  25.174  13.197  13.043
26566W        W86311  21.700   9.649   0.470
26567W        W86312  29.488   6.223  12.855
26568W        W86313  14.189  14.180  14.301
26569W        W86314  41.498  36.019   0.771
26570W        W86315  32.539  19.123   4.719
26571W        W86316   3.781  39.536  12.527
26572W        W86317   9.175  26.989  14.284
26573W        W86318  21.679  40.851  12.986
26574W        W86319  33.456  31.148   4.212
26575W        W86320  42.884  35.382   4.785
26576W        W86321  37.532  26.548   4.695
26577W        W86322  33.088   6.908  14.775
26578W        W86323  29.936  23.047  12.512
26579W        W86324  41.309  12.271  13.469
26580W        W86325  16.200   0.447   0.246
26581W        W86326   5.295  41.461  13.395
26582W        W86327  31.963  44.767  13.856
26583W        W86328  14.293  40.333  13.975
26584W        W86329  15.089  42.932  12.554
26585W        W86330  15.262  43.005  13.407
26586W        W86331  26.697   2.833   4.321
26587W        W86332   1.884   7.898  13.345
26588W        W86333   7.699  28.503   4.197
26589W        W86334  10.816  24.076   1.263
26590W        W86335  30.654   8.678  14.454
26591W        W86336  37.337  15.092   1.751
26592W        W86337   6.897  33.949   2.188
26593W        W86338   7.347   5.766   4.761
26594W        W86339   1.731  14.310  12.893
26595W        W86340   1.791  35.064  11.602
26596W        W86341  27.470   2.870   0.849
26597W        W86342  27.555   8.282  12.435
26598W        W86343  37.833  28.535  12.896
26599W        W86344  15.318  43.771   0.314
26600W        W86345  23.044  43.934   3.710
26601W        W86346  12.192  32.583   2.869
26602W        W86347  42.816  17.771  12.863
26603W        W86348  11.630   8.349   3.687
26604W        W86349   1.962  26.094  12.569
26605W        W86350  38.959  40.418  10.419
26606W        W86351   5.278  13.239   3.841
26607W        W86352  11.194  21.077  10.588
26608W        W86353   2.957  34.109   4.190
26609W        W86354  25.206  27.012   3.828
26610W        W86355  21.698  14.736  14.300
26611W        W86356  14.807  41.472   3.740
26612W        W86357  20.735  28.583   4.311
26613W        W86358  41.871  20.718   2.397
26614W        W86359   7.364  25.198   3.258
26615W        W86360  18.251  28.588  12.057
26616W        W86361  36.097  21.668  14.940
26617W        W86362  25.046  15.200   1.909
26618W        W86363  17.623   9.792   0.390
26619W        W86364   9.385  23.068  14.783
26620W        W86365  22.163  25.052  14.811
26621W        W86366  10.655   7.188   0.917
26622W        W86367  23.539  42.004   3.645
26623W        W86368   2.944  26.097   0.937
26624W        W86369  10.739  25.993  14.301
26625W        W86370  15.272   4.344   2.725
26626W        W86371  19.267  12.769   1.713
26627W        W86372  38.980  24.507  11.057
26628W        W86373  28.172  25.479   0.389
26629W        W86374  11.680  13.722   3.783
26630W        W86375  14.096   5.294  14.331
26631W        W86376  18.727  19.648   0.909
26632W        W86377  25.475  32.037  13.548
26633W        W86378  24.082  11.341  13.318
26634W        W86379  17.779   1.878  14.397
26635W        W86380   3.374  23.196   3.750
26636W        W86381  14.174   7.183  10.477
26637W        W86382   0.289  12.349   0.303
26638W        W86383  15.744  21.664   3.204
26639W        W86384   4.797  37.410  10.106
26640W        W86385  21.754  15.200   0.910
26641W        W86386   4.826  23.704   0.412
26642W        W86387   5.845  10.338  14.887
26643W        W86388   9.889  18.684   2.319
26644W        W86389  31.469  35.904   3.380
26645W        W86390  37.904  33.050   3.811
26646W        W86391   7.687  28.032  14.877
26647W        W86392  32.408   1.343  10.436
26648W        W86393  17.197  41.904  14.803
26649W        W86394  28.533  29.105   3.651
26650W        W86395  40.967  35.081  11.890
26651W        W86396  32.891  20.269   1.419
26652W        W86397  43.494  36.409  10.475
26653W        W86398  31.937  11.800   3.386
26654W        W86399  36.441  31.555   0.274
26655W        W86400  21.608   6.343   1.315
26656W        W86401   5.393  29.955  10.424
26657W        W86402  13.776  21.211   4.715
26658W        W86403  44.316  38.902  12.918
26659W        W86404  12.256  42.488   0.850
26660W        W86405  37.988  29.505   3.312
26661W        W86406  28.959  12.352   4.641
26662W        W86407  31.105  26.624   4.166
26663W        W86408  24.170  17.259   3.841
26664W        W86409  13.224  44.844   4.829
26665W        W86410  22.566  14.717  14.009
26666W        W86411  19.176   3.455   3.652
26667W        W86412  30.107  11.763   3.154
26668W        W86413  19.112  44.768   1.862
26669W        W86414   5.333   3.730  11.933
26670W        W86415  35.054  35.912  14.287
26671W        W86416  18.069  43.771  13.326
26672W        W86417   3.874  28.079  12.449
26673W        W86418  41.905  28.137  11.438
26674W        W86419  41.853   8.403  12.071
26675W        W86420  25.587  11.668  10.944
26676W        W86421   2.462  14.215  13.014
26677W        W86422   1.340  30.054  12.838
26678W        W86423   2.299  24.112   2.308
26679W        W86424  17.126  37.078  13.844
26680W        W86425   0.930  12.348   0.409
26681W        W86426  24.018  22.523  13.318
26682W        W86427  44.888   7.373  11.921
26683W        W86428  19.089   4.404  11.527
26684W        W86429  14.300   7.772   3.224
26685W        W86430  16.272  42.924   1.405
26686W        W86431   0.365  28.967  14.457
26687W        W86432   7.203  19.048  12.991
26688W        W86433   9.200  20.204  13.425
26689W        W86434  23.549  37.386  11.861
26690W        W86435   4.808  32.516  12.450
26691W        W86436  14.216  28.530   2.184
26692W        W86437   1.416  13.712  13.978
26693W        W86438  14.265  17.281   2.397
26694W        W86439  20.542   3.430   2.331
26695W        W86440  27.095  29.107  12.004
26696W        W86441  12.258  14.747   3.283
26697W        W86442   3.780  20.707   2.180
26698W        W86443  20.709  30.541  10.518
26699W        W86444  28.453   4.927   3.331
26700W        W86445   5.333  40.930  12.413
26701W        W86446   5.329  31.606   2.779
26702W        W86447  44.429  20.620  12.979
26703W        W86448   7.277   1.822  11.534
26704W        W86449   3.894   4.371   0.878
26705W        W86450  12.284  21.146  10.988
26706W        W86451  12.168  17.156   1.272
26707W        W86452  38.478  22.607   2.899
26708W        W86453  42.804   6.891  13.956
26709W        W86454  22.145   8.314   4.355
26710W        W86455  17.584  12.339  14.444
26711W        W86456  39.918  14.175   3.685
26712W        W86457   1.914  29.176  14.331
26713W        W86458   8.789   9.751  14.814
26714W        W86459  34.542  21.097  13.399
26715W        W86460  19.212  31.466  11.915
26716W        W86461  26.530  19.576  13.881
26717W        W86462  39.386  26.583  10.428
26718W        W86463  43.276  16.714   0.307
26719W        W86464  35.588  19.766   2.418
26720W        W86465  12.618  24.704  11.068
26721W        W86466   4.795  18.062  14.379
26722W        W86467   3.855   4.324  13.904
26723W        W86468  34.369  35.468  14.340
26724W        W86469  14.139  22.239  11.961
26725W        W86470  38.053   9.763  12.443
26726W        W86471   7.267   0.477   1.412
26727W        W86472  30.479  29.946  12.449
26728W        W86473  27.638  12.348  10.436
26729W        W86474   0.288  10.812  13.814
26730W        W86475  37.892  18.750   0.425
26731W        W86476  34.407   7.891  14.358
26732W        W86477  43.513  41.428  13.981
26733W        W86478   3.335  12.151  13.961
26734W        W86479  42.902  30.094   2.206
26735W        W86480  30.495  26.972  13.794
26736W        W86481   5.740  41.006  13.047
26737W        W86482  10.717  40.508   2.372
26738W        W86483  31.638  37.480  10.508
26739W        W86484  25.157  42.879   2.287
26740W        W86485  15.605  41.443  14.778
26741W        W86486   2.282  28.017  11.124
26742W        W86487  40.897  31.432   0.301
26743W        W86488   5.215   1.442  13.900
26744W        W86489  28.610   2.860   3.681
26745W        W86490  20.535   6.363  14.877
26746W        W86491  16.652  10.363  10.475
26747W        W86492  18.614   6.220  10.938
26748W        W86493  40.897  41.526  13.791
26749W        W86494  34.493  24.183  12.371
26750W        W86495  32.562  38.042   3.743
26751W        W86496   0.306   0.369   3.671
26752W        W86497  30.619   4.936   1.370
26753W        W86498  27.527  26.487   1.304
26754W        W86499  33.024  40.341   1.769
26755W        W86500  16.653  30.434   3.299
26756W        W86501   8.763  40.804   4.657
26757W        W86502  15.212  42.446   1.326
26758W        W86503  33.933  24.559   3.230
26759W        W86504  33.550  30.510  12.932
26760W        W86505  27.162  25.497   0.928
26761W        W86506  17.168   4.728   2.283
26762W        W86507  17.220  26.969  13.911
26763W        W86508  16.206   3.348  11.541
26764W        W86509  14.681   0.260   0.785
26765W        W86510  32.492  37.394   2.380
26766W        W86511  17.074  18.163   0.474
26767W        W86512   6.915  24.226   2.181
26768W        W86513  31.452  28.513   2.713
26769W        W86514  21.063  17.229   0.879
26770W        W86515  13.818   8.322  13.472
26771W        W86516  27.140   7.713  14.909
26772W        W86517   7.835   1.467   2.747
26773W        W86518  34.015  39.552   3.279
26774W        W86519  11.285  20.541  14.437
26775W        W86520   0.859   0.417   0.349
26776W        W86521  37.972   0.457   1.928
26777W        W86522  32.555  15.248   4.174
26778W        W86523  31.589  17.631   0.332
26779W        W86524   1.731  30.575  12.468
26780W        W86525  30.155  28.000   0.373
26781W        W86526  27.050  32.128  13.382
26782W        W86527   0.788  43.898  14.928
26783W        W86528  38.001  43.423  12.909
26784W        W86529  42.485  33.040  12.053
26785W        W86530  36.934  21.147  13.011
26786W        W86531  44.306  13.804  13.840
26787W        W86532  39.407   3.417  14.315
26788W        W86533  18.188  11.776  10.537
26789W        W86534   1.379  34.116  13.381
26790W        W86535  29.443   0.288   3.867
26791W        W86536   4.392  14.702   3.636
26792W        W86537  18.733   5.829  12.555
26793W        W86538  10.348   7.801   0.269
26794W        W86539   8.831  35.941   2.729
26795W        W86540  16.594  22.556  14.887
26796W        W86541  40.051  15.286  13.511
26797W        W86542  15.288  40.378  11.856
26798W        W86543  30.418   6.874  13.313
26799W        W86544  31.963  17.788  12.987
26800W        W86545  22.586  30.451  13.970
26801W        W86546  28.050  28.991  10.916
26802W        W86547  44.770  27.987   9.940
26803W        W86548  34.983  24.208  13.053
26804W        W86549  34.083  28.442   2.353
26805W        W86550  25.014  20.259  13.900
26806W        W86551  16.305  31.602  11.520
26807W        W86552  11.827   9.317   3.155
26808W        W86553  38.439  22.172   2.309
26809W        W86554  17.690   4.360  13.040
26810W        W86555   9.851  44.343  12.971
26811W        W86556  20.547  38.824   0.958
26812W        W86557  29.017  38.069   1.341
26813W        W86558   0.803  28.038  13.517
26814W        W86559  44.323  18.773   3.706
26815W        W86560   5.704  32.897  13.315
26816W        W86561  40.030  13.742  14.883
26817W        W86562  33.510   8.324   2.393
26818W        W86563  14.126  19.731  11.860
26819W        W86564  17.613  32.394  11.060
26820W        W86565  17.128  12.264  11.964
26821W        W86566  25.610   0.851   2.901
26822W        W86567  33.537   1.279  14.383
26823W        W86568  23.033  29.130   0.962
26824W        W86569   7.671  19.170   2.358
26825W        W86570   7.293   4.904   3.772
26826W        W86571  40.847   7.393   2.234
26827W        W86572   3.434  39.048  14.775
26828W        W86573   7.715  14.671  12.077
26829W        W86574  26.682  15.818   2.185
26830W        W86575  27.462  12.652  11.027
26831W        W86576   1.736   5.419   1.804
26832W        W86577  22.026  42.982   9.960
26833W        W86578  17.571  30.552  13.502
26834W        W86579  27.692  26.508  13.796
26835W        W86580  38.376  33.098   3.782
26836W        W86581  31.902   5.360  13.814
26837W        W86582   5.779  22.070   1.331
26838W        W86583  38.930  31.622  13.885
26839W        W86584  26.020   7.799  12.872
26840W        W86585  18.187   2.442   0.748
26841W        W86586  13.271  40.932  14.865
26842W        W86587  29.495   0.934   5.158
26843W        W86588  43.811  43.854   2.720
26844W        W86589  34.587  35.418   0.320
26845W        W86590  30.023  15.229  14.793
26846W        W86591   2.885   7.890  11.582
26847W        W86592  35.884  42.318  13.992
26848W        W86593  30.558  28.950  10.981
26849W        W86594  25.507  28.563  11.941
26850W        W86595  12.705  13.224   4.674
26851W        W86596   9.346  37.542   5.299
26852W        W86597  36.898  22.553   3.221
26853W        W86598  12.193   8.182  13.857
26854W        W86599   6.415   3.348   4.352
26855W        W86600   9.309  34.397   3.184
26856W        W86601  23.000  14.270   4.628
26857W        W86602  41.483  24.085   5.205
26858W        W86603  36.362  19.065   1.443
26859W        W86604  40.478  15.257   0.944
26860W        W86605  15.697   9.872  14.463
26861W        W86606  21.022   8.858   1.375
26862W        W86607   6.326  41.382  12.900
26863W        W86608  32.025   2.333  13.511
26864W        W86609  34.903  29.581   3.155
26865W        W86610   2.422  32.902  13.532
26866W        W86611   3.327  43.499   2.887
26867W        W86612  38.996  33.497  11.455
26868W        W86613  11.195  13.324   3.162
26869W        W86614  44.960   3.946   4.237
26870W        W86615  34.381  18.061   5.118
26871W        W86616  37.031  33.514   3.262
26872W        W86617   1.790  35.379  12.882
26873W        W86618   2.796  44.395   0.248
26874W        W86619   3.439  32.083  13.053
26875W        W86620  37.412   7.906  12.024
26876W        W86621  43.283  25.196  10.133
26877W        W86622  32.485  36.017   3.368
26878W        W86623  17.135  38.481  11.489
26879W        W86624  11.280  42.786  13.425
26880W        W86625  17.198  26.998   0.475
26881W        W86626   2.867  18.547  13.547
26882W        W86627  30.510   2.327  10.089
26883W        W86628   5.326  17.562   3.727
26884W        W86629   8.354   3.801   4.740
26885W        W86630  19.080  12.654   0.468
26886W        W86631  40.979  36.391   1.379
26887W        W86632  40.430  23.137  12.072
26888W        W86633  43.399  35.455  10.889
26889W        W86634  18.182  33.029   0.935
26890W        W86635  31.961  29.979  14.383
26891W        W86636  20.030  12.339   3.225
26892W        W86637  28.576  27.091  12.384
26893W        W86638  23.666  15.235  14.355
26894W        W86639  16.257   0.945   0.855
26895W        W86640   0.922  34.444  13.025
26896W        W86641  30.608  23.622  13.956
26897W        W86642   3.428   5.335  10.588
26898W        W86643  40.869   5.860   1.711
26899W        W86644  13.258  41.350   3.344
26900W        W86645  27.514  10.792   2.765
26901W        W86646   2.339  34.488  12.032
26902W        W86647  32.955  22.642   0.862
26903W        W86648  29.049   6.861  10.893
26904W        W86649   4.861  19.128  11.528
26905W        W86650  28.542  36.488  11.877
26906W        W86651  41.341  39.953   2.764
26907W        W86652   3.338   8.751  12.395
26908W        W86653  34.490  15.222  14.444
26909W        W86654  42.825  29.663  11.981
26910W        W86655  26.070  43.918   1.855
26911W        W86656  25.639   6.864  11.040
26912W        W86657  21.102   8.244  14.505
26913W        W86658  24.004  19.150  10.409
26914W        W86659   4.919  43.764  13.928
26915W        W86660  20.751  16.705   1.365
26916W        W86661  41.042  35.574  13.848
26917W        W86662  20.611  27.197  12.483
26918W        W86663  43.286  10.864   4.698
26919W        W86664  20.617   0.812  10.612
26920W        W86665  21.055   6.739   3.671
26921W        W86666  19.745   8.696  13.807
26922W        W86667  34.026  40.889  13.375
26923W        W86668  39.325   9.762  14.357
26924W        W86669  36.993   9.763  13.358
26925W        W86670  42.389   5.250  12.843
26926W        W86671  21.631  21.233   2.903
26927W        W86672  25.493  34.053   0.314
26928W        W86673  26.483  28.503  12.093
26929W        W86674  26.691  16.137  11.038
26930W        W86675  30.006  24.595   4.199
26931W        W86676  10.281  15.787   5.251
26932W        W86677  44.902  13.316  10.927
26933W        W86678   8.270  39.539  14.903
26934W        W86679  37.514   2.395   1.795
26935W        W86680  40.455  37.890  12.360
26936W        W86681   0.914   5.209   3.716
26937W        W86682   3.339  11.327   3.692
26938W        W86683   5.327  23.669   1.422
26939W        W86684  42.878  32.044   2.794
26940W        W86685  34.085  17.781   4.651
26941W        W86686  19.193  17.304  10.983
26942W        W86687  19.615   6.412  12.437
26943W        W86688  20.137  42.827  12.550
26944W        W86689  12.305  38.029  12.829
26945W        W86690  40.999  20.057   3.342
26946W        W86691   7.909  11.346   1.239
26947W        W86692  30.055  24.185  11.923
26948W        W86693  11.731  42.012  11.584
26949W        W86694  10.869  44.764  14.284
26950W        W86695  42.921  15.292   2.848
26951W        W86696   0.321  21.211  11.923
26952W        W86697  36.350  25.211   3.743
26953W        W86698  26.672  31.074   1.219
26954W        W86699  38.918  16.163  10.515
26955W        W86700  17.100  37.514  13.388
26956W        W86701  16.638  30.923  10.973
26957W        W86702  20.080  30.517  10.497
26958W        W86703   1.849   9.292   4.631
26959W        W86704  13.262  39.375  12.083
26960W        W86705  22.110   9.315   3.818
26961W        W86706  30.051  15.758  11.604
26962W        W86707  35.928  41.855  12.878
26963W        W86708  35.591  31.593  14.447
26964W        W86709  32.605   9.705   1.279
26965W        W86710  36.992  43.473   0.441
26966W        W86711  21.623  15.791  12.829
26967W        W86712  44.270   8.763   0.899
26968W        W86713  16.722   0.300  14.306
26969W        W86714  24.069  40.473  14.444
26970W        W86715   2.724  22.683   3.802
26971W        W86716  18.588  12.701   4.285
26972W        W86717   9.379  27.062  10.529
26973W        W86718  19.049  33.532  10.449
26974W        W86719  20.223  43.272   3.174
26975W        W86720  40.037  28.968  12.417
26976W        W86721  17.672  38.421   4.209
26977W        W86722  29.439  30.104  12.417
26978W        W86723  41.296   9.390  10.436
26979W        W86724  36.849   9.308  13.539
26980W        W86725  11.788  32.050   2.255
26981W        W86726  22.532  12.323   0.257
26982W        W86727  15.612  37.562  10.977
26983W        W86728  30.448  37.452  12.827
26984W        W86729  12.650  44.901   3.840
26985W        W86730  43.954  36.966   1.736
26986W        W86731  42.842  17.271   2.407
26987W        W86732  25.215  43.394   0.939
26988W        W86733  32.011  25.180  11.033
26989W        W86734  22.572  31.898   2.790
26990W        W86735  10.688  32.002   5.122
26991W        W86736   1.435  29.515   2.317
26992W        W86737  35.919   9.242  11.470
26993W        W86738  43.787   6.876  11.545
26994W        W86739   6.279  37.493  13.848
26995W        W86740   0.328  33.099  13.867
26996W        W86741   5.819  44.446   2.700
26997W        W86742  14.619  16.616  12.909
26998W        W86743   6.344   4.218   4.614
26999W        W86744  44.476  34.489  10.956
27000W        W86745  39.868  11.290  12.050
27001W        W86746  40.538   9.329   1.332
27002W        W86747  44.829   9.290   4.130
27003W        W86748  40.894  23.520   3.267
27004W        W86749  20.240  26.992  11.016
27005W        W86750  16.210   4.771   2.233
27006W        W86751  34.863  39.932  10.570
27007W        W86752  34.546   6.796   4.154
27008W        W86753  25.207   9.749  13.865
27009W        W86754   9.318  26.064  14.906
27010W        W86755  20.536  11.128   2.226
27011W        W86756  15.124  23.721   3.859
27012W        W86757  16.200   1.387   2.768
27013W        W86758  31.024   7.198  10.635
27014W        W86759  20.747  39.466  11.490
27015W        W86760  20.088  40.993  14.968
27016W        W86761   1.783  33.918  12.342
27017W        W86762  30.603   2.944  10.121
27018W        W86763   7.307   9.218   4.265
27019W        W86764   4.231  11.731   0.925
27020W        W86765  15.230  12.696  11.448
27021W        W86766  19.573  35.858   1.236
27022W        W86767  34.412  30.497   0.788
27023W        W86768  15.243  34.031  14.788
27024W        W86769   2.763  37.439   0.422
27025W        W86770   1.817  40.814  11.942
27026W        W86771   1.362   9.305  13.451
27027W        W86772  22.610  15.792  12.054
27028W        W86773   0.923  43.278  10.900
27029W        W86774  12.227  22.163   2.385
27030W        W86775  42.464  16.603   2.346
27031W        W86776  34.412  42.427  13.791
27032W        W86777  36.407   5.377   1.832
27033W        W86778  10.372  37.070  13.320
27034W        W86779  29.948  31.532   0.439
27035W        W86780  25.478  35.520  13.960
27036W        W86781  18.076  38.012   3.360
27037W        W86782  30.130  19.216  12.475
27038W        W86783  23.127   8.169   0.826
27039W        W86784  16.705   5.880  12.077
27040W        W86785  24.549   2.269   1.813
27041W        W86786  35.920  38.833   4.680
27042W        W86787  37.581  14.728  12.926
27043W        W86788   0.292  10.779  11.509
27044W        W86789  34.039  32.001  10.525
27045W        W86790   3.940  19.576  11.933
27046W        W86791  32.526   3.942   9.934
27047W        W86792   5.327  30.095   2.763
27048W        W86793  40.936  37.867   3.252
27049W        W86794  33.574  23.604  13.004
27050W        W86795  19.161  38.468   1.706
27051W        W86796   0.890  18.272  13.944
27052W        W86797   8.397  38.342  14.976
27053W        W86798  20.581   0.295  12.039
27054W        W86799  22.111  14.690   1.766
27055W        W86800   5.918   9.745  14.918
27056W        W86801   8.792  34.090   2.764
27057W        W86802  28.064  26.485   3.782
27058W        W86803  26.594  11.161   0.483
27059W        W86804  22.201   5.297   1.695
27060W        W86805  41.879  12.270   0.852
27061W        W86806  25.005  14.745   2.721
27062W        W86807   5.742   5.376  14.359
27063W        W86808  30.008  35.990   4.289
27064W        W86809  28.070  44.010  12.054
27065W        W86810   6.877  10.377  12.448
27066W        W86811   6.339  39.379   2.332
27067W        W86812  23.105  33.579  11.377
27068W        W86813  16.677   3.284   0.882
27069W        W86814   6.322   8.389   2.834
27070W        W86815  26.207  24.555   4.645
27071W        W86816  31.523  40.028   0.406
27072W        W86817   5.755  28.052  14.762
27073W        W86818  25.496   6.294  14.963
27074W        W86819  12.224  34.111  11.373
27075W        W86820  30.013  35.563  10.985
27076W        W86821   3.452  10.317   2.811
27077W        W86822  38.505  35.083  13.044
27078W        W86823   8.794  24.670   0.282
27079W        W86824  28.024  26.092   0.846
27080W        W86825  33.570  13.839  13.506
27081W        W86826   2.889  40.351  14.323
27082W        W86827  42.860   5.242  14.784
27083W        W86828  34.093   5.363  11.981
27084W        W86829  14.243  12.816  10.131
27085W        W86830  28.485  19.094   0.919
27086W        W86831  25.078   7.187  12.385
27087W        W86832  40.540   1.879   2.808
27088W        W86833  39.965   9.685  11.884
27089W        W86834  30.532  36.937  12.973
27090W        W86835  42.909  14.134   1.364
27091W        W86836  21.196  44.473  13.044
27092W        W86837  26.503  35.470   2.755
27093W        W86838  21.623   6.422  10.950
27094W        W86839  41.017  21.694  11.955
27095W        W86840  36.039  32.570   4.621
27096W        W86841  30.132  39.827  12.049
27097W        W86842  30.967  34.491  14.334
27098W        W86843   1.952  34.380  12.900
27099W        W86844  33.498  42.474   1.876
27100W        W86845  41.456  41.987  12.953
27101W        W86846  37.509   3.739   0.372
27102W        W86847  14.166  23.625  11.371
27103W        W86848   3.244  11.361   2.823
27104W        W86849  23.494  30.045  14.391
27105W        W86850  37.840  20.574  11.459
27106W        W86851   4.769  38.032  13.869
27107W        W86852  28.048   6.354   1.904
27108W        W86853   3.429   2.427  12.067
27109W        W86854   6.739  10.842  10.911
27110W        W86855   4.875  44.940  13.542
27111W        W86856  26.189  19.665   3.198
27112W        W86857  22.119   9.351  13.856
27113W        W86858  24.544   9.332   1.795
27114W        W86859  43.839  35.877   2.259
27115W        W86860  29.499  33.970  11.989
27116W        W86861  34.061   1.424   0.459
27117W        W86862   1.752  18.161  14.760
27118W        W86863  37.065  39.900   0.425
27119W        W86864  11.286  19.280   2.801
27120W        W86865  22.710  43.871   2.208
27121W        W86866   9.664  44.972  13.440
27122W        W86867  43.924  35.358  13.453
27123W        W86868  38.356  19.596  13.387
27124W        W86869  40.423  42.325   1.414
27125W        W86870   0.834   4.257   4.746
27126W        W86871  43.290  41.834   4.714
27127W        W86872   0.288   7.726   1.855
27128W        W86873  30.964  10.206   0.338
27129W        W86874   3.847  41.917  11.473
27130W        W86875  31.021  11.191  10.642
27131W        W86876  38.010  41.461   5.144
27132W        W86877  29.995  30.617  13.339
27133W        W86878  34.104  28.493   4.211
27134W        W86879  35.408  27.162   3.725
27135W        W86880  31.597  39.954   2.343
27136W        W86881  15.677  42.347  13.966
27137W        W86882  31.560  33.577  11.539
27138W        W86883  16.655  20.624   3.323
27139W        W86884  43.488   2.765   2.219
27140W        W86885  38.010  10.857  12.424
27141W        W86886  15.152   8.677   0.747
27142W        W86887   2.304  16.776   0.379
27143W        W86888  36.521  25.053  10.929
27144W        W86889  17.562  24.000   0.413
27145W        W86890  10.810  43.010   3.670
27146W        W86891  33.093  16.656  13.827
27147W        W86892  29.630   0.866   1.803
27148W        W86893  11.772  19.632  14.281
27149W        W86894   1.818  37.861  10.118
27150W        W86895  29.535  36.553  13.377
27151W        W86896  34.064  22.232  11.004
27152W        W86897  23.735  25.178   2.373
27153W        W86898   9.705  26.192  14.947
27154W        W86899  22.020  19.230   1.297
27155W        W86900  13.310  30.434   5.226
27156W        W86901   3.762  26.984   4.326
27157W        W86902  20.690  28.540   3.298
27158W        W86903  12.175  36.001   1.318
27159W        W86904  36.921  19.183  10.610
27160W        W86905  39.531   9.154   2.867
27161W        W86906  43.412  38.020  14.307
27162W        W86907   9.264  13.831  13.497
27163W        W86908  44.843  33.541   2.219
27164W        W86909  35.426  38.848   4.186
27165W        W86910   0.929  34.927  13.469
27166W        W86911  22.634  20.246   0.463
27167W        W86912   3.390  21.580   2.817
27168W        W86913   9.875  28.566   1.778
27169W        W86914  16.724  38.912   1.768
27170W        W86915  29.008   9.660   4.285
27171W        W86916  39.466  40.521  12.520
27172W        W86917  40.349  23.241   1.305
27173W        W86918  13.688   2.466  13.828
27174W        W86919  23.176  21.651  13.463
27175W        W86920   1.893  13.793  10.565
27176W        W86921  30.576  13.723   2.291
27177W        W86922  37.044  34.949  12.090
27178W        W86923  39.879  10.279   1.226
27179W        W86924  38.400  37.491  11.501
27180W        W86925  42.972  30.606  10.979
27181W        W86926  43.993  25.655  13.364
27182W        W86927  25.167  40.930  14.875
27183W        W86928   2.832  27.082   1.395
27184W        W86929   1.916   2.250  13.439
27185W        W86930   2.395  21.185  13.819
27186W        W86931  37.497  37.027   1.810
27187W        W86932  31.913  39.341   3.686
27188W        W86933  30.026  34.027  14.822
27189W        W86934  42.348  18.654   3.195
27190W        W86935  39.893  23.528  13.396
27191W        W86936  38.549  25.215   0.389
27192W        W86937   4.435   0.276  13.518
27193W        W86938   1.271  26.563   1.757
27194W        W86939   2.264  31.947  13.526
27195W        W86940  18.660  31.076   2.751
27196W        W86941  15.820   6.330  13.529
27197W        W86942  35.933   5.815   0.320
27198W        W86943   9.185  40.845  13.003
27199W        W86944  19.626  19.723  10.109
27200W        W86945  16.227  21.061  11.988
27201W        W86946  16.713  42.959  11.017
27202W        W86947  37.582  17.647   2.729
27203W        W86948  12.661  27.672   3.769
27204W        W86949  42.786  34.490   3.752
27205W        W86950  18.770  24.036   3.815
27206W        W86951  42.417  12.692  14.800
27207W        W86952  12.322  13.682   0.336
27208W        W86953  32.455   4.242   0.807
27209W        W86954   2.854  17.672  12.464
27210W        W86955  27.044  41.508   2.800
27211W        W86956  39.028  10.269   4.780
27212W        W86957   7.835  35.031  12.956
27213W        W86958  15.231  19.633   0.249
27214W        W86959  13.701  11.686   0.739
27215W        W86960  39.968  35.894   4.831
27216W        W86961  17.072   3.785   0.919
27217W        W86962  44.899  44.916  12.504
27218W        W86963  44.882  12.223  13.033
27219W        W86964  16.137  28.152   4.796
27220W        W86965  33.962   6.404   3.348
27221W        W86966  32.126  37.018   0.321
27222W        W86967  43.319  22.717   0.730
27223W        W86968  37.013  40.920  13.370
27224W        W86969  20.053  32.467   3.169
27225W        W86970  30.072  33.554  11.449
27226W        W86971  25.986  21.186   0.439
27227W        W86972   6.427   2.817   4.628
27228W        W86973  11.761  43.936   3.242
27229W        W86974  17.779  33.441   1.364
27230W        W86975  40.987  35.970  12.927
27231W        W86976  22.636  44.854  12.000
27232W        W86977  38.372  26.642   3.249
27233W        W86978  28.186  39.436  11.035
27234W        W86979  39.021  22.203   2.416
27235W        W86980  24.521  38.339   4.675
27236W        W86981  22.563  26.121   1.752
27237W        W86982   0.951  43.863  10.947
27238W        W86983   8.213  12.742  10.889
27239W        W86984  25.069   8.186   1.806
27240W        W86985   5.788   3.792  14.332
27241W        W86986  36.356  40.304  11.031
27242W        W86987  43.415  23.226   1.322
27243W        W86988  41.036  19.619   1.899
27244W        W86989  16.705  41.790   2.852
27245W        W86990  10.291  32.517  11.611
27246W        W86991  32.603  39.865   1.701
27247W        W86992   5.346   8.260  13.902
27248W        W86993   7.892  36.062  14.028
27249W        W86994  13.786  12.358   3.855
27250W        W86995  38.418   2.327   0.461
27251W        W86996  39.001  36.552  14.813
27252W        W86997  31.110   5.790  13.311
27253W        W86998   1.865  32.583  13.479
27254W        W86999  44.972  25.598  10.440
27255W        W87000  26.097  29.161  12.521
27256W        W87001  17.183  34.549   1.342
27257W        W87002  25.700   0.308  11.612
27258W        W87003  31.636  41.500   3.699
27259W        W87004   6.303  41.892   4.669
27260W        W87005   8.789   1.381   3.384
27261W        W87006  32.043  19.138   1.805
27262W        W87007  24.673  24.527   0.951
27263W        W87008  44.858  33.114  11.456
27264W        W87009   6.860  39.877   2.235
27265W        W87010  20.148  40.020  10.047
27266W        W87011  11.861  16.581  12.945
27267W        W87012  32.965  19.541   0.943
27268W        W87013  16.280  42.497   0.259
27269W        W87014   6.266  23.735   0.260
27270W        W87015  24.573   4.889  11.425
27271W        W87016  42.471  22.728   1.774
27272W        W87017  42.401  36.887   1.811
27273W        W87018   4.342  21.667   4.329
27274W        W87019  28.110  35.983   1.302
27275W        W87020   0.962  13.342   1.317
27276W        W87021   2.350  13.121   1.445
27277W        W87022  18.572   8.202   3.713
27278W        W87023   1.945  33.067   4.775
27279W        W87024   1.929  22.169  11.874
27280W        W87025  32.130  41.358  11.491
27281W        W87026  32.140  28.157  10.102
27282W        W87027  14.223  18.607   4.710
27283W        W87028  25.486  17.730   3.725
27284W        W87029  20.555  36.482  13.448
27285W        W87030  12.807   2.876   3.238
27286W        W87031  12.804  21.222   2.742
27287W        W87032  16.159  11.695  13.791
27288W        W87033  23.021  13.255   2.857
27289W        W87034  33.380  20.546   2.821
27290W        W87035  18.186  17.587   2.684
27291W        W87036  14.098  35.853  11.977
27292W        W87037  12.229  40.813   1.903
27293W        W87038   9.849   0.355   4.773
27294W        W87039  18.560  37.846  12.972
27295W        W87040  39.009   7.382   3.323
27296W        W87041   7.244   4.779   2.749
27297W        W87042  17.218  10.339   2.210
27298W        W87043   4.239  36.583   1.305
27299W        W87044  32.530  26.571  14.779
27300W        W87045  39.012  44.268   0.381
27301W        W87046  31.627  17.728  12.024
27302W        W87047  20.631  41.819   4.274
27303W        W87048  29.440  17.727  11.910
27304W        W87049  28.116  38.899   4.663
27305W        W87050   7.177   1.809  10.586
27306W        W87051   0.268  16.283   2.757
27307W        W87052  38.426  15.159   2.193
27308W        W87053   2.289  13.176  12.030
27309W        W87054  14.186  42.461  14.847
27310W        W87055  16.805  21.250  13.477
27311W        W87056  22.636   0.818   1.752
27312W        W87057  26.183  29.591  14.907
27313W        W87058   3.752  38.441   5.776
27314W        W87059  32.599  20.581  14.770
27315W        W87060  24.035   2.929  12.484
27316W        W87061  38.553  38.468   4.262
27317W        W87062   3.738   8.879  14.938
27318W        W87063  34.931  16.624  14.898
27319W        W87064  15.291  44.905   1.746
27320W        W87065   6.869   6.723   1.816
27321W        W87066  42.501  24.174  11.944
27322W        W87067   0.744   9.714  10.420
27323W        W87068   9.153  21.252   4.597
27324W        W87069   0.419   6.789   1.403
27325W        W87070  35.104  34.395   2.776
27326W        W87071  16.257  11.347  13.517
27327W        W87072  40.460   9.392  14.509
27328W        W87073   6.279  30.110  11.500
27329W        W87074   9.240  24.002   0.892
27330W        W87075  21.560   6.289  10.613
27331W        W87076  31.077  24.168  11.476
27332W        W87077  19.085   0.342  11.597
27333W        W87078  43.392  11.621   0.451
27334W        W87079  26.523  26.494   4.343
27335W        W87080  36.556  11.848   0.283
27336W        W87081  42.490  12.702  10.477
27337W        W87082  44.315  25.107  11.904
27338W        W87083  23.576  34.039  12.984
27339W        W87084   2.330  35.905   1.803
27340W        W87085  44.796  38.996  11.490
27341W        W87086  18.106  25.626   3.146
27342W        W87087   0.407   2.860  14.883
27343W        W87088  24.985  13.712  13.406
27344W        W87089  12.754  33.475   5.279
27345W        W87090   6.700   4.310  14.374
27346W        W87091  26.557  10.783  10.429
27347W        W87092  32.947  40.901   4.612
27348W        W87093   3.765   3.286   4.212
27349W        W87094  23.234  38.957   4.823
27350W        W87095  38.898   1.311   0.765
27351W        W87096  40.421  23.726   3.819
27352W        W87097  16.606   0.265   0.897
27353W        W87098  28.582  30.473   4.638
27354W        W87099  20.722  20.742  14.307
27355W        W87100   0.907  19.221   5.688
27356W        W87101  38.871  16.591   9.930
27357W        W87102  16.649   1.809   2.185
27358W        W87103  29.620  40.356  11.855
27359W        W87104  22.043  42.413  11.927
27360W        W87105   8.673  38.052   3.198
27361W        W87106  40.355   9.645  11.597
27362W        W87107   5.856  23.088  12.437
27363W        W87108  23.203  19.094   1.725
27364W        W87109  16.174   4.891   3.264
27365W        W87110   9.316  42.350   1.850
27366W        W87111  14.292  24.561   4.222
27367W        W87112  30.942  14.137  11.409
27368W        W87113  27.197  28.080  13.808
27369W        W87114  18.612  25.586   0.850
27370W        W87115  10.269  37.911   3.700
27371W        W87116  20.203  19.661   4.178
27372W        W87117  35.874  43.862  11.500
27373W        W87118  27.665  31.134   0.406
27374W        W87119  18.551  15.121   0.893
27375W        W87120  31.001  39.909   0.817
27376W        W87121  24.577   1.939  13.918
27377W        W87122  23.645  44.496  10.918
27378W        W87123  38.038  11.243  14.280
27379W        W87124  34.566  31.571   4.746
27380W        W87125  13.662  17.125  13.058
27381W        W87126  37.515  11.291  12.450
27382W        W87127   1.884   9.317   0.814
27383W        W87128  20.591   7.293  13.015
27384W        W87129  40.898  30.646   2.351
27385W        W87130  25.059   2.456  14.939
27386W        W87131  11.838  32.571   2.776
27387W        W87132  15.140  14.165   1.285
27388W        W87133  26.068  21.648   3.374
27389W        W87134  26.499   3.378  13.496
27390W        W87135  18.191  26.569   0.800
27391W        W87136  26.679  11.130  12.030
27392W        W87137  29.926   2.289  11.875
27393W        W87138   5.900   1.366   3.359
27394W        W87139  33.082  40.971   3.320
27395W        W87140  13.699  32.612  10.971
27396W        W87141  37.451  30.639  13.878
27397W        W87142  43.324   6.388  11.901
27398W        W87143  30.605  16.714   2.786
27399W        W87144  16.185  32.041  13.903
27400W        W87145  16.241   8.827   4.214
27401W        W87146  26.670  33.602  12.507
27402W        W87147  32.506   1.290  14.332
27403W        W87148  42.359  15.226   0.451
27404W        W87149   4.942  30.565  10.414
27405W        W87150   4.313  35.005   0.955
27406W        W87151  24.980   7.375   0.432
27407W        W87152  32.887  13.792   0.300
27408W        W87153  15.212  13.155  12.379
27409W        W87154   2.807  33.079   2.717
27410W        W87155  33.018   1.859   1.223
27411W        W87156  10.819  33.985   1.273
27412W        W87157  25.140  43.464  14.865
27413W        W87158   7.222  12.301   4.114
27414W        W87159  37.883  33.513   3.225
27415W        W87160  24.559   8.708  10.644
27416W        W87161   5.256  24.689  11.057
27417W        W87162  20.063   1.897   1.382
27418W        W87163  28.075  35.510  11.571
27419W        W87164   3.765  10.872   1.243
27420W        W87165  34.079  22.175  13.859
27421W        W87166  29.923  24.016  11.076
27422W        W87167  18.162  34.911  10.634
27423W        W87168  22.231   7.809   2.891
27424W        W87169   2.960   7.206   0.449
27425W        W87170  30.456  34.999  14.284
27426W        W87171  26.165  25.146   0.455
27427W        W87172  41.389  33.424  10.930
27428W        W87173   6.394  17.621   1.776
27429W        W87174  24.179  10.306   1.846
27430W        W87175  36.027  21.109  10.534
27431W        W87176   4.719  38.506   4.158
27432W        W87177  38.864   8.213  13.331
27433W        W87178  13.688  18.652   1.811
27434W        W87179   8.774  40.896   3.298
27435W        W87180  38.462  29.575  12.068
27436W        W87181   5.919  29.625  14.329
27437W        W87182   4.792   1.272   3.730
27438W        W87183   8.345   9.148  13.366
27439W        W87184  32.523  29.087  11.527
27440W        W87185  23.680  42.456  13.456
27441W        W87186  16.297  39.558   0.882
27442W        W87187  44.824  41.957  12.886
27443W        W87188  13.156  31.502  11.050
27444W        W87189   6.289  23.211  13.046
27445W        W87190  12.834  19.603   0.253
27446W        W87191  37.897  27.614   0.360
27447W        W87192  41.007  29.591  10.961
27448W        W87193  31.898  36.541   3.641
27449W        W87194  41.897  19.602   3.361
27450W        W87195  37.562  30.643  12.095
27451W        W87196  12.821  19.625  10.567
27452W        W87197  22.218  40.451   0.410
27453W        W87198  19.727  35.975   4.691
27454W        W87199  14.315  17.301   3.189
27455W        W87200  17.087  27.490   2.289
27456W        W87201  21.142  42.012  14.781
27457W        W87202  18.693  13.350   2.758
27458W        W87203  39.994  28.973   4.213
27459W        W87204  23.123  41.365   4.675
27460W        W87205  32.583  28.450   4.135
27461W        W87206  18.210   7.778  12.447
27462W        W87207   8.241  32.014  14.509
27463W        W87208   0.272  40.921   0.760
27464W        W87209   8.849  29.499   4.706
27465W        W87210  12.655  21.036   0.921
27466W        W87211  27.132  34.446  14.893
27467W        W87212  10.317  19.240  10.466
27468W        W87213  11.182  35.411   2.749
27469W        W87214   9.176  37.468  14.794
27470W        W87215  10.750   4.801   0.952
27471W        W87216  19.698   3.724   3.799
27472W        W87217  43.448   7.332   0.274
27473W        W87218  19.709  30.025   2.258
27474W        W87219  31.514  17.636   2.700
27475W        W87220   0.953  18.146  12.083
27476W        W87221  41.865  21.560   3.860
27477W        W87222  29.923  43.843  12.080
27478W        W87223  29.504  13.760   4.351
27479W        W87224  34.388  30.452  14.465
27480W        W87225   3.255  30.982   4.635
27481W        W87226   2.947  21.114   4.761
27482W        W87227  44.429  26.204  10.599
27483W        W87228  19.752   7.385   0.845
27484W        W87229  23.000  29.627   1.766
27485W        W87230  35.437  42.433  11.483
27486W        W87231  17.609   8.686  10.404
27487W        W87232  26.012   1.960  12.444
27488W        W87233  27.680  29.664   2.347
27489W        W87234  40.918  25.023   3.309
27490W        W87235  21.047  17.175   0.442
27491W        W87236  29.458   4.274   2.875
27492W        W87237  20.668  15.232   2.754
27493W        W87238  18.566  22.537  14.936
27494W        W87239  30.618  41.948   3.246
27495W        W87240  20.145   3.830  13.023
27496W        W87241   8.333  15.118   0.869
27497W        W87242  21.198  32.566  11.451
27498W        W87243  21.640   9.811   1.861
27499W        W87244  33.040  33.117  10.496
27500W        W87245  35.079   4.824  14.915
27501W        W87246   9.283  38.401  13.437
27502W        W87247  11.628   6.353  13.848
27503W        W87248  21.194  23.132   0.830
27504W        W87249  13.145  23.070  10.433
27505W        W87250  40.496  43.311   3.701
27506W        W87251  33.877  17.638   2.359
27507W        W87252  44.989  40.430   0.792
27508W        W87253  40.974  10.845  13.050
27509W        W87254  35.534  36.539   1.427
27510W        W87255  30.073   9.352   0.795
27511W        W87256  29.975  15.816  14.281
27512W        W87257  13.346  12.198  14.300
27513W        W87258   6.404  17.560   2.375
27514W        W87259  36.351  22.697   0.451
27515W        W87260  17.792  13.770   1.881
27516W        W87261  29.587  42.502   4.336
27517W        W87262  13.197  39.965  13.503
27518W        W87263  36.493  12.250  11.065
27519W        W87264  11.145  22.720  12.942
27520W        W87265  15.718  30.650   0.321
27521W        W87266  37.539  43.021  13.888
27522W        W87267   4.217  16.683   4.748
27523W        W87268  29.438  15.767   4.745
27524W        W87269   7.194   3.320   2.878
27525W        W87270  32.498  15.779  14.952
27526W        W87271   2.462   3.431   0.399
27527W        W87272  23.053   2.371   3.680
27528W        W87273  43.340   4.818   1.842
27529W        W87274  32.949  27.501  11.508
27530W        W87275   0.349  32.106  12.965
27531W        W87276  36.445   0.855  14.816
27532W        W87277  25.663   0.956   0.355
27533W        W87278  18.620  32.113  14.510
27534W        W87279  27.022  12.783   1.810
27535W        W87280  14.124  23.173   4.755
27536W        W87281  40.365  25.606   3.207
27537W        W87282  17.090  14.196   0.248
27538W        W87283  31.965  33.457  11.028
27539W        W87284  19.157   4.902  11.540
27540W        W87285  30.609  17.702  14.477
27541W        W87286  28.509  38.848   1.253
27542W        W87287  26.461  22.053  12.920
27543W        W87288  43.853  28.621   0.837
27544W        W87289  36.074  41.988   5.295
27545W        W87290   0.287  27.024  10.523
27546W        W87291  12.334   2.784   0.879
27547W        W87292  35.864  19.576  12.538
27548W        W87293  32.589  17.647   1.260
27549W        W87294   3.796  10.224  11.984
27550W        W87295  13.315  11.757   5.198
27551W        W87296   1.848  35.056  11.026
27552W        W87297  44.875  21.253  12.938
27553W        W87298  35.455  18.674   4.794
27554W        W87299  19.625  36.851  11.432
27555W        W87300  20.199  40.497  13.859
27556W        W87301  31.494  34.541  13.897
27557W        W87302  26.073  23.204  11.444
27558W        W87303  25.061  40.907   4.243
27559W        W87304  36.031  43.895   1.845
27560W        W87305  43.872  44.874  10.514
27561W        W87306  27.950  30.637   3.715
27562W        W87307  27.514  15.644  14.344
27563W        W87308  15.678   5.795  10.406
27564W        W87309   6.244  13.133   2.363
27565W        W87310  33.605   0.910   0.779
27566W        W87311  28.144  15.256   1.872
27567W        W87312   4.305   7.726   1.757
27568W        W87313  34.426   5.422   0.788
27569W        W87314  17.678  36.901  13.938
27570W        W87315  19.084   8.777  12.498
27571W        W87316  10.228  26.206   2.309
27572W        W87317  22.642  31.433   1.246
27573W        W87318  22.083  37.997  13.321
27574W        W87319  16.215  32.045   2.769
27575W        W87320  39.426  17.683   0.404
27576W        W87321  19.667   6.876  11.461
27577W        W87322   5.396  18.569  12.507
27578W        W87323  16.287  32.037   2.281
27579W        W87324  18.076  38.067   3.652
27580W        W87325  36.533  34.976  10.504
27581W        W87326  15.190  34.561  11.484
27582W        W87327  24.708  35.928   1.783
27583W        W87328  28.114  42.854  10.091
27584W        W87329   1.810  35.463  13.828
27585W        W87330  32.091  23.167  14.991
27586W        W87331  30.146   0.763   1.921
27587W        W87332  27.577   5.775   0.855
27588W        W87333   4.205  16.110  13.037
27589W        W87334  22.243  11.349  13.842
27590W        W87335   1.819  34.968  12.546
27591W        W87336  23.237   8.374  11.026
27592W        W87337  44.004  39.057  10.978
27593W        W87338   2.267  29.518   0.952
27594W        W87339  32.565  15.737  13.470
27595W        W87340  22.665  31.986  12.340
27596W        W87341  26.069  42.000  11.496
27597W        W87342  13.842  17.234  10.413
27598W        W87343  36.526  44.948  14.940
27599W        W87344  33.491  15.785   1.859
27600W        W87345  20.161  31.559  13.827
27601W        W87346  20.266  22.201   0.296
27602W        W87347   9.296  30.923   0.394
27603W        W87348   3.386  32.488   2.257
27604W        W87349  42.375  33.536  14.969
27605W        W87350   1.840   2.732  10.519
27606W        W87351  15.275  11.655  12.044
27607W        W87352  20.135  27.049  12.454
27608W        W87353   1.893  24.720   3.212
27609W        W87354  34.401   4.222   2.724
27610W        W87355  21.641  41.897   0.854
27611W        W87356   7.323   1.918   1.229
27612W        W87357  41.920  37.489   2.382
27613W        W87358  30.648  36.856  13.488
27614W        W87359  18.140   6.281   2.264
27615W        W87360  20.124  33.392   4.769
27616W        W87361  35.930   1.250  13.843
27617W        W87362   8.364   3.820  14.329
27618W        W87363  21.033  44.937   3.228
27619W        W87364  36.551  26.188   4.726
27620W        W87365  11.680   2.938  10.452
27621W        W87366  27.986  25.485  10.898
27622W        W87367   6.183  16.281  11.950
27623W        W87368  38.049  44.885   1.438
27624W        W87369  22.079  43.306  13.849
27625W        W87370  13.604  38.536  12.923
27626W        W87371   6.249  23.615   2.390
27627W        W87372   2.328  34.945   2.251
27628W        W87373  23.693  15.171   1.447
27629W        W87374   9.339  20.118   0.910
27630W        W87375  28.952   5.253   3.241
27631W        W87376  30.063  36.860  12.413
27632W        W87377  22.531   8.312   0.451
27633W        W87378  29.958   1.353   4.153
27634W        W87379  32.908  39.331  12.525
27635W        W87380  19.557  32.122  11.467
27636W        W87381  14.727   8.288  13.492
27637W        W87382  12.331   2.754   1.864
27638W        W87383  30.511  37.523   2.277
27639W        W87384  21.076  43.377  14.482
27640W        W87385  29.547  39.412  11.880
27641W        W87386  23.102  40.477  12.433
27642W        W87387  27.585  33.107   5.703
27643W        W87388  33.043  28.606  14.850
27644W        W87389   3.353  20.683  14.855
27645W        W87390  29.148  20.637  13.965
27646W        W87391  22.012  35.602   3.755
27647W        W87392   1.439  29.111   1.780
27648W        W87393  16.147  15.134   0.374
27649W        W87394  20.228  39.521  12.457
27650W        W87395   4.220   6.792  13.799
27651W        W87396  17.235  34.093  11.097
27652W        W87397  27.004  15.146  10.950
27653W        W87398  39.378  33.411  12.950
27654W        W87399  26.032  19.538   5.266
27655W        W87400  18.739  15.772  14.342
27656W        W87401  18.148  14.325   3.285
27657W        W87402   7.749   7.738   0.892
27658W        W87403  44.979  34.109  12.886
27659W        W87404  24.162  19.285  13.541
27660W        W87405  15.287   9.828  10.504
27661W        W87406  42.332  11.211  12.890
27662W        W87407  34.915  14.732   1.787
27663W        W87408  23.997  26.118  10.409
27664W        W87409  43.884  42.859   0.336
27665W        W87410  24.179  38.557   4.157
27666W        W87411  20.053   1.847  14.902
27667W        W87412  19.102  35.430  12.398
27668W        W87413  39.037  32.496   4.800
27669W        W87414  44.276  24.064   3.664
27670W        W87415  15.607   7.243  11.447
27671W        W87416  29.958  35.946   2.232
27672W        W87417  35.359  16.115   3.197
27673W        W87418  27.168  11.845   4.308
27674W        W87419  24.076  19.573  10.490
27675W        W87420  21.239  44.850   0.829
27676W        W87421  37.522  43.367  12.959
27677W        W87422  39.360  16.166   2.896
27678W        W87423   5.874   7.185   4.774
27679W        W87424  18.067  21.733  10.637
27680W        W87425  31.071  28.608  12.051
27681W        W87426   6.411  41.007   3.825
27682W        W87427  28.029  39.548   0.947
27683W        W87428  26.666   3.928   3.864
27684W        W87429   7.807  33.499   0.413
27685W        W87430  28.184  37.835  11.447
27686W        W87431  44.267   5.696   1.364
27687W        W87432   1.458  18.188   3.194
27688W        W87433   6.239  19.552   1.374
27689W        W87434   2.441  42.776  11.911
27690W        W87435  27.088  21.743   0.376
27691W        W87436  43.900  42.394  11.497
27692W        W87437   5.917  25.219  11.021
27693W        W87438   9.224   1.364   1.359
27694W        W87439   6.697  39.902  14.452
27695W        W87440   6.725  41.405  14.789
27696W        W87441  11.647  28.538  11.420
27697W        W87442  26.207  12.315   2.283
27698W        W87443  14.185  34.501   0.288
27699W        W87444  22.519  22.052   2.362
27700W        W87445  20.564  21.081  14.447
27701W        W87446  25.217  29.425   2.306
27702W        W87447  35.529  37.837   2.662
27703W        W87448   7.726  19.772   4.697
27704W        W87449   8.706  29.457  11.990
27705W        W87450  20.237  10.200  11.115
27706W        W87451   1.330  40.499   1.851
27707W        W87452  42.402  22.632  11.922
27708W        W87453  19.222   2.938  14.993
27709W        W87454   5.816  29.442   2.884
27710W        W87455  41.931  16.101  11.540
27711W        W87456  42.848  38.410  10.033
27712W        W87457  10.185  28.657   2.182
27713W        W87458   8.308  32.499   0.930
27714W        W87459  29.633   8.883   1.302
27715W        W87460  31.612  32.971   1.241
27716W        W87461  16.156  23.006  14.833
27717W        W87462  14.127   9.382  12.460
27718W        W87463  20.171  19.698  11.877
27719W        W87464   0.315  22.650  11.051
27720W        W87465  35.878  16.805   3.255
27721W        W87466  24.687   5.199  10.517
27722W        W87467  19.116  34.545   3.339
27723W        W87468  27.547  41.933   1.918
27724W        W87469  13.641  27.519   0.838
27725W        W87470  10.207  12.731  13.986
27726W        W87471  31.613  42.897  10.575
27727W        W87472  27.045   6.772   3.772
27728W        W87473  30.930  33.974  12.370
27729W        W87474  42.435  20.552  11.860
27730W        W87475  10.715  15.671  13.396
27731W        W87476  16.087  41.459   0.250
27732W        W87477  42.873  42.944   2.757
27733W        W87478  23.216  41.323  14.514
27734W        W87479   8.677   4.753  13.033
27735W        W87480  31.451   2.245   5.310
27736W        W87481   2.723  40.008  12.827
27737W        W87482  27.096  38.852   2.384
27738W        W87483  38.536   5.411   2.765
27739W        W87484  32.594   7.857   3.324
27740W        W87485   1.288  39.494  11.520
27741W        W87486  18.078  24.574   1.313
27742W        W87487  34.415  36.967   3.200
27743W        W87488  12.826  22.130   3.663
27744W        W87489  31.465  41.877  14.398
27745W        W87490  37.958  10.177   1.724
27746W        W87491  40.960  31.455  13.011
27747W        W87492  40.437  15.731   0.410
27748W        W87493  44.775  37.061  14.485
27749W        W87494  42.948  36.415   1.871
27750W        W87495  13.153  21.080   0.819
27751W        W87496  39.026   3.866   2.738
27752W        W87497   6.845  21.712   4.319
27753W        W87498  25.489  22.119  14.480
27754W        W87499  31.632  25.558  11.560
27755W        W87500  10.185   3.446   0.373
27756W        W87501  12.724   4.704   4.122
27757W        W87502  27.523  42.474  14.802
27758W        W87503  22.090  35.380  11.116
27759W        W87504  10.252  15.719   4.608
27760W        W87505  42.987  36.518  10.999
27761W        W87506  38.481  12.127   4.340
27762W        W87507  31.939  35.425  12.946
27763W        W87508  20.256  39.385   2.306
27764W        W87509   5.429  26.462   0.727
27765W        W87510  20.273  18.236   0.796
27766W        W87511   0.932  22.039  12.087
27767W        W87512  39.432  41.824  14.894
27768W        W87513   9.345  12.739  11.110
27769W        W87514   6.732  40.013   3.334
27770W        W87515  10.688   6.202   4.698
27771W        W87516  44.928  26.166   2.255
27772W        W87517  34.878  15.121  14.306
27773W        W87518  22.636  10.850  10.591
27774W        W87519   0.927   0.934  10.074
27775W        W87520  28.561  22.708  14.453
27776W        W87521  30.471  32.033   2.717
27777W        W87522  33.880  36.939   4.197
27778W        W87523   2.923  14.215  14.031
27779W        W87524  14.225  34.568  12.557
27780W        W87525  20.201  14.793   1.701
27781W        W87526  32.442  34.022   1.863
27782W        W87527  22.104  29.116   2.187
27783W        W87528  30.475   1.444  11.969
27784W        W87529  31.647  26.977   3.201
27785W        W87530  44.281  17.728  10.998
27786W        W87531  41.409  10.345  14.323
27787W        W87532  38.884   3.750  11.572
27788W        W87533  32.021  26.616   2.781
27789W        W87534  16.684  15.250   0.750
27790W        W87535  21.553  32.432   2.842
27791W        W87536  25.705  13.750   1.393
27792W        W87537  14.785   0.854  14.913
27793W        W87538   7.865  40.395   4.650
27794W        W87539  17.710  39.019  10.465
27795W        W87540  14.166  17.256  13.818
27796W        W87541   8.823   3.763  14.957
27797W        W87542  22.622  31.620  12.865
27798W        W87543  34.093  27.070   2.746
27799W        W87544   4.426  14.712  11.873
27800W        W87545   6.844   6.686  14.764
27801W        W87546  31.110  18.113  13.495
27802W        W87547   2.890  26.596   2.253
27803W        W87548  25.523  35.429  14.307
27804W        W87549  19.623   7.744  13.811
27805W        W87550  22.504  42.826  14.510
27806W        W87551  22.608  36.502   1.765
27807W        W87552  16.713  38.381   1.345
27808W        W87553  22.157  40.027  13.309
27809W        W87554  29.953  42.843  14.477
27810W        W87555   1.864   5.240  12.548
27811W        W87556  16.623  44.791   0.424
27812W        W87557  22.685   2.780   0.935
27813W        W87558  12.300  25.098  11.572
27814W        W87559   3.459  30.052   4.258
27815W        W87560  35.072  37.568   2.851
27816W        W87561  19.182   8.176  12.571
27817W        W87562  10.307  11.626  10.926
27818W        W87563  31.050  26.061   2.701
27819W        W87564  26.561   8.257   3.758
27820W        W87565   4.314  35.423  10.040
27821W        W87566  42.480  12.691  11.886
27822W        W87567  12.338  32.415   3.686
27823W        W87568  31.479   9.299  13.047
27824W        W87569  14.331  12.270   4.241
27825W        W87570  14.728  40.544  11.399
27826W        W87571  38.978   7.727  11.873
27827W        W87572  30.619  11.654   3.651
27828W        W87573   4.370  31.495  14.816
27829W        W87574  29.510   0.823  14.325
27830W        W87575  15.268   3.261   0.803
27831W        W87576  22.013  18.719  10.458
27832W        W87577   9.154  42.415   2.896
27833W        W87578   4.814  40.355  14.458
27834W        W87579  32.974  14.302   0.841
27835W        W87580  37.526   2.917  10.983
27836W        W87581  19.681   1.299  12.449
27837W        W87582  44.891   0.919   3.203
27838W        W87583   2.332  36.850   0.445
27839W        W87584  27.946  36.512   2.397
27840W        W87585   9.378  38.857  11.473
27841W        W87586  21.611  28.656  14.349
27842W        W87587   5.752  11.207   4.609
27843W        W87588  15.171  43.877  14.990
27844W        W87589  10.740  16.771   4.223
27845W        W87590   1.420  44.427  12.366
27846W        W87591  31.641  23.236  14.960
27847W        W87592  14.626  12.718   4.650
27848W        W87593  38.438  13.328  10.934
27849W        W87594  16.158   3.326  11.074
27850W        W87595   7.407  10.815   0.375
27851W        W87596  27.021  39.461  11.072
27852W        W87597  30.982  33.475  11.403
27853W        W87598   8.900  41.883   1.862
27854W        W87599   1.819  27.103  10.966
27855W        W87600  15.591  12.314   3.647
27856W        W87601   5.348  42.874  11.911
27857W        W87602  26.509  22.521   4.658
27858W        W87603  18.599   9.885   3.211
27859W        W87604  38.832   5.825   4.122
27860W        W87605  19.769  19.105  11.443
27861W        W87606  19.704  12.341   2.210
27862W        W87607  25.186  33.411  11.984
27863W        W87608  43.944  26.169  13.541
27864W        W87609  12.749   0.256   3.148
27865W        W87610  11.834  39.496  10.629
27866W        W87611   0.270  36.959  14.866
27867W        W87612  21.580  34.043   1.280
27868W        W87613  14.712  38.437  12.458
27869W        W87614   8.398   1.460   0.856
27870W        W87615  24.632  44.797  14.862
27871W        W87616  25.180  35.990  12.828
27872W        W87617  43.321  31.565  14.906
27873W        W87618   6.206  30.996  10.146
27874W        W87619   7.287  33.558  14.290
27875W        W87620  24.661  43.873   0.870
27876W        W87621  10.205  41.865  14.878
27877W        W87622  27.036  33.579  14.310
27878W        W87623  19.281  32.141  12.057
27879W        W87624   0.832  39.345  13.955
27880W        W87625  14.629  19.718  12.060
27881W        W87626  28.032  40.954   1.918
27882W        W87627   8.388  23.164   2.679
27883W        W87628  15.747  44.818   0.944
27884W        W87629  31.961  29.115  14.795
27885W        W87630  27.615   5.222   0.902
27886W        W87631  31.920  15.619   4.766
27887W        W87632  11.641   2.836   0.839
27888W        W87633  25.012   5.902   1.859
27889W        W87634  23.000  34.481  10.912
27890W        W87635  11.684  34.562   2.673
27891W        W87636  34.992  25.985  14.896
27892W        W87637  31.109   4.905   3.181
27893W        W87638  38.058   2.391  11.911
27894W        W87639  40.822   0.947  10.487
27895W        W87640  36.016  16.296   1.829
27896W        W87641  42.440  24.217   3.699
27897W        W87642  19.713  29.663   2.285
27898W        W87643  33.972  18.177   5.799
27899W        W87644  29.067  24.696  12.829
27900W        W87645  36.064  11.813  11.899
27901W        W87646   9.315  44.947  13.451
27902W        W87647  30.137  40.517  14.408
27903W        W87648  19.135   1.350  12.020
27904W        W87649  34.120  19.261   1.332
27905W        W87650  40.411  37.411   1.361
27906W        W87651   4.210  11.193  14.379
27907W        W87652  38.870  33.480   3.693
27908W        W87653  32.531  16.663   3.298
27909W        W87654   5.379  25.543  11.585
27910W        W87655  37.567   8.785   0.377
27911W        W87656  27.977  40.362   2.392
27912W        W87657  35.509  16.073  13.349
27913W        W87658   3.357  21.658   0.314
27914W        W87659  21.105  20.095   4.721
27915W        W87660  37.510   6.347   4.185
27916W        W87661   6.339  15.597   0.726
27917W        W87662   6.409   5.821   2.853
27918W        W87663  11.339  26.203  13.413
27919W        W87664  35.436  24.626  13.962
27920W        W87665  28.483   1.755  14.412
27921W        W87666  19.150  40.459   1.705
27922W        W87667  39.903  44.973   3.205
27923W        W87668  37.428  19.640  10.458
27924W        W87669   6.690   2.921  10.975
27925W        W87670  33.544   3.334   4.649
27926W        W87671  33.474   9.764   1.794
27927W        W87672  11.662  10.828  12.990
27928W        W87673   5.757   1.316   1.349
27929W        W87674  26.694  15.139  13.385
27930W        W87675  14.708  20.629   4.728
27931W        W87676   1.752  40.307  13.894
27932W        W87677  11.161  16.642   0.758
27933W        W87678  41.419   8.199  12.901
27934W        W87679  37.428  41.884   1.899
27935W        W87680  13.238  23.649   1.277
27936W        W87681   9.784  22.091   4.188
27937W        W87682  18.209   7.188   2.363
27938W        W87683  16.626  30.145   3.158
27939W        W87684  13.713  28.008   1.410
27940W        W87685   3.403   9.324   2.737
27941W        W87686  24.556  16.073  12.403
27942W        W87687  29.999   9.302   2.662
27943W        W87688   8.372   1.862   0.452
27944W        W87689  30.489  38.831  11.421
27945W        W87690  20.612  21.258  12.564
27946W        W87691  44.907  27.680  11.526
27947W        W87692   8.291   3.342   1.273
27948W        W87693  27.102  22.117  11.961
27949W        W87694  27.043  10.681  11.031
27950W        W87695   3.302  42.353   0.737
27951W        W87696  15.772  42.470   4.614
27952W        W87697   3.364   2.722  11.056
27953W        W87698  14.263  39.958   1.931
27954W        W87699   2.395  14.657   0.329
27955W        W87700  28.983  16.716  13.937
27956W        W87701  40.538  15.745  13.520
27957W        W87702  13.621  22.030   0.924
27958W        W87703   3.899   6.365   4.736
27959W        W87704   8.671  10.831  10.459
27960W        W87705   8.328  33.605  13.916
27961W        W87706   6.349  15.606   1.267
27962W        W87707  33.998  30.940   9.565
27963W        W87708  26.193  26.067   3.841
27964W        W87709   8.257  17.262  14.489
27965W        W87710  20.694  12.161  14.460
27966W        W87711  20.138  21.043   2.347
27967W        W87712   9.676  32.006  14.423
27968W        W87713  25.055   3.450   0.383
27969W        W87714   3.291  24.141   3.156
27970W        W87715  38.443   4.432  11.960
27971W        W87716  12.281  40.858   2.883
27972W        W87717  15.128  16.570   4.169
27973W        W87718  16.300  14.702   2.210
27974W        W87719  28.096  39.808   3.176
27975W        W87720  29.980  19.164   5.288
27976W        W87721  31.077   6.264   4.205
27977W        W87722  33.516  33.506   0.451
27978W        W87723  36.535  10.819   1.863
27979W        W87724  19.172  31.051  11.430
27980W        W87725   7.767   2.796  11.566
27981W        W87726   4.896  43.972   0.433
27982W        W87727  37.360  18.733  13.041
27983W        W87728  16.707  16.595   3.863
27984W        W87729  19.556  14.146  14.313
27985W        W87730   0.437  28.957  11.102
27986W        W87731  17.081  42.986  14.886
27987W        W87732   2.373  41.895   4.320
27988W        W87733  43.829  23.078   4.799
27989W        W87734  28.081   4.762   3.732
27990W        W87735   2.312  12.117  14.984
27991W        W87736  21.728  20.751   0.818
27992W        W87737  18.057  35.926  14.984
27993W        W87738  24.715   8.816  14.401
27994W        W87739  33.003   9.877  10.942
27995W        W87740  38.061  44.321   0.845
27996W        W87741  44.797   0.803   1.260
27997W        W87742  25.087  43.378   5.303
27998W        W87743  28.076  14.203  11.939
27999W        W87744  15.298   1.800   1.296
28000W        W87745   5.365  10.710   4.208
28001W        W87746  27.981  15.762   2.309
28002W        W87747  41.013  28.451  12.499
28003W        W87748  18.189   7.323  10.418
28004W        W87749  24.663   4.708   4.313
28005W        W87750  18.249  37.882  11.878
28006W        W87751  11.372   5.719  11.071
28007W        W87752  22.701  14.152  11.898
28008W        W87753  20.763  41.821   3.638
28009W        W87754  14.811  40.501  10.115
28010W        W87755  31.026  44.483   1.235
28011W        W87756  16.175   6.908   4.187
28012W        W87757  23.703  16.106  13.331
28013W        W87758  21.048   6.206   2.299
28014W        W87759  14.720  12.840   1.774
28015W        W87760   8.762  40.403   0.420
28016W        W87761  30.523  36.062   2.333
28017W        W87762  31.532  25.966  12.984
28018W        W87763   0.297  13.180  12.928
28019W        W87764  41.928  39.536   0.419
28020W        W87765  28.973  13.767  12.520
28021W        W87766  42.519  38.841  13.796
28022W        W87767  27.942   6.258  10.539
28023W        W87768  17.102  23.720   1.721
28024W        W87769  31.963  15.155  11.965
28025W        W87770  44.444  19.659  11.609
28026W        W87771  37.945   0.750   4.229
28027W        W87772  34.891   8.713   2.859
28028W        W87773  12.150  43.389   1.732
28029W        W87774  37.875   8.359   0.399
28030W        W87775  33.874  42.781  11.990
28031W        W87776  14.268  19.548   2.798
28032W        W87777   7.833  33.934   1.222
28033W        W87778  11.255  38.507   2.808
28034W        W87779  35.595  23.103   3.336
28035W        W87780  43.999  11.325   2.388
28036W        W87781   0.859  15.320   3.786
28037W        W87782  21.084  10.861  11.008
28038W        W87783  13.610  24.524  10.917
28039W        W87784  24.595  10.338   1.902
28040W        W87785  26.599  15.160   0.942
28041W        W87786  28.997  22.235  13.902
28042W        W87787   3.429  44.889   1.346
28043W        W87788   0.412  14.235  13.399
28044W        W87789  29.133  38.954  13.964
28045W        W87790  40.966  24.000  11.874
28046W        W87791   8.173  37.923  13.807
28047W        W87792   2.354  29.464   2.257
28048W        W87793  22.166  41.831  13.879
28049W        W87794  29.608  34.585  11.128
28050W        W87795  28.987  22.557   3.721
28051W        W87796  30.133  28.004   1.322
28052W        W87797  10.379  39.532  13.472
28053W        W87798  34.893  12.774   2.886
28054W        W87799  32.452  21.713  12.378
28055W        W87800  44.775  24.009   1.864
28056W        W87801  34.557   7.815  10.052
28057W        W87802  23.660  34.012  14.897
28058W        W87803  20.194  31.406   3.694
28059W        W87804  22.112   7.369  13.328
28060W        W87805  43.767   7.288   0.357
28061W        W87806  23.106  36.561   2.801
28062W        W87807  27.681  16.785   2.199
28063W        W87808   3.921   0.968   3.705
28064W        W87809   2.783   1.918   4.199
28065W        W87810   6.337  27.577  13.988
28066W        W87811  16.270  39.339  11.605
28067W        W87812   4.318   4.264  11.474
28068W        W87813  30.939  21.095  10.502
28069W        W87814  33.514  31.942   3.247
28070W        W87815  23.615  43.506  14.806
28071W        W87816  35.407  28.950  11.535
28072W        W87817  36.027   7.757   3.714
28073W        W87818  16.120  35.577  14.419
28074W        W87819  23.081   9.855  14.804
28075W        W87820  38.504   3.389  10.615
28076W        W87821   4.243   1.306   3.777
28077W        W87822  33.884  18.552  14.311
28078W        W87823  14.643  11.695   9.962
28079W        W87824  30.052  37.359   0.929
28080W        W87825  39.938  38.410   0.962
28081W        W87826  27.560  40.388   4.779
28082W        W87827  37.581   2.775  11.539
28083W        W87828  39.981   3.915  12.406
28084W        W87829  31.953  31.978   1.333
28085W        W87830  26.646  12.182   1.273
28086W        W87831  34.445  36.456  13.037
28087W        W87832  20.701   9.723   2.836
28088W        W87833   3.453  37.513   2.696
28089W        W87834  16.095  21.174   1.789
28090W        W87835  12.137  24.206   2.258
28091W        W87836  19.563  43.903  12.824
28092W        W87837  18.689  34.424  13.835
28093W        W87838  32.587  34.944  14.478
28094W        W87839  39.991  33.556  14.410
28095W        W87840  13.299   6.883   3.283
28096W        W87841   7.266   7.186   0.920
28097W        W87842  28.987  23.679   0.914
28098W        W87843  10.178  32.101   4.334
28099W        W87844  39.977   5.933  12.388
28100W        W87845  27.542  24.492  14.901
28101W        W87846  39.808  30.962  12.360
28102W        W87847   2.722  39.995  14.461
28103W        W87848  23.180   1.264  11.972
28104W        W87849  26.596   2.451   0.480
28105W        W87850  13.749  42.986  13.057
28106W        W87851  30.526   0.982  12.492
28107W        W87852  32.041  42.853  14.464
28108W        W87853  42.478  22.232   2.758
28109W        W87854  25.991   2.721  14.425
28110W        W87855   9.771  34.881   3.245
28111W        W87856   8.183  20.272  10.503
28112W        W87857  22.677  11.712   9.929
28113W        W87858   6.728  42.792  13.982
28114W        W87859  44.898  37.951  10.149
28115W        W87860  36.020  24.591  10.473
28116W        W87861   0.814  34.869   5.238
28117W        W87862  33.625   0.474  10.104
28118W        W87863   3.330  22.639  13.361
28119W        W87864  21.217  33.900  14.831
28120W        W87865  20.547  17.694   0.445
28121W        W87866  14.697  25.584  13.423
28122W        W87867   0.818  39.859   2.853
28123W        W87868   7.841  12.137   1.364
28124W        W87869  22.663  12.187   0.759
28125W        W87870   1.454   6.920   1.850
28126W        W87871   8.250  16.188   2.683
28127W        W87872  19.653  40.914  11.068
28128W        W87873  13.620  42.818   3.733
28129W        W87874  27.654  23.157  10.540
28130W        W87875  26.573  16.220  13.797
28131W        W87876  17.109  15.774   1.366
28132W        W87877  28.013  32.906   1.873
28133W        W87878   9.873  44.404  12.384
28134W        W87879  37.012  37.831   0.836
28135W        W87880  35.424  29.541  14.951
28136W        W87881  15.302  14.751   0.421
28137W        W87882  44.351  27.101   1.344
28138W        W87883   4.323  28.669  12.072
28139W        W87884  42.448  13.185   0.732
28140W        W87885  33.537   7.796   0.285
28141W        W87886   9.887   5.226   3.728
28142W        W87887  33.547   4.894   3.709
28143W        W87888  41.812  35.102   0.849
28144W        W87889   6.205  43.388  13.915
28145W        W87890  14.696  41.343   1.247
28146W        W87891   8.369  28.622   4.767
28147W        W87892  23.600  25.600   3.864
28148W        W87893  27.147   6.916  11.997
28149W        W87894  30.467  10.756   1.828
28150W        W87895  15.316   0.326   4.331
28151W        W87896  21.673  39.343   3.712
28152W        W87897  25.147  17.287  14.416
28153W        W87898  25.106   7.896   3.200
28154W        W87899  16.212   9.192  13.437
28155W        W87900  27.077  30.449  13.409
28156W        W87901   5.727   7.685   2.344
28157W        W87902  23.731  44.774   4.671
28158W        W87903  41.497  39.031   9.928
28159W        W87904  17.779  26.612   1.367
28160W        W87905   8.793  40.978   1.695
28161W        W87906   9.751  10.155   4.832
28162W        W87907  35.439  11.199  12.003
28163W        W87908  38.471   5.283   4.722
28164W        W87909  33.958  44.278  13.529
28165W        W87910  12.197  36.020   0.939
28166W        W87911  27.167   8.893  13.047
28167W        W87912  16.160  34.387   0.876
28168W        W87913   6.312  15.276  12.366
28169W        W87914  31.985  17.583   9.987
28170W        W87915  10.234  40.472   5.262
28171W        W87916  20.546  23.537  14.313
28172W        W87917  33.485  42.522   0.483
28173W        W87918  14.207   9.294  13.922
28174W        W87919  20.100  25.506   1.793
28175W        W87920  11.682  23.172  12.923
28176W        W87921  13.828  42.382  14.298
28177W        W87922   1.880  41.830   2.893
28178W        W87923  42.464  30.629   2.298
28179W        W87924   5.735   3.902  11.605
28180W        W87925  16.794  24.023   0.957
28181W        W87926  20.234  21.699  14.387
28182W        W87927  16.725  18.214   2.243
28183W        W87928   2.452  35.863  13.509
28184W        W87929   7.212  13.271   3.827
28185W        W87930   3.879  42.386  11.489
28186W        W87931  27.190  42.370   2.418
28187W        W87932  14.310  39.483   4.148
28188W        W87933  24.150   8.331   4.212
28189W        W87934  17.604   8.243   1.725
28190W        W87935  30.036  39.416  11.955
28191W        W87936  13.737  37.354  10.560
28192W        W87937  16.677  25.645   2.712
28193W        W87938  19.535  25.487  10.466
28194W        W87939   2.246  30.036  13.992
28195W        W87940  13.198  33.117   5.087
28196W        W87941  18.773  25.526   2.770
28197W        W87942  14.188  40.322  10.594
28198W        W87943   7.396  43.828  13.948
28199W        W87944  23.991   7.841  13.002
28200W        W87945  30.926  36.530  14.488
28201W        W87946  14.701  35.396   3.327
28202W        W87947  20.261   5.872   3.345
28203W        W87948  38.569  34.425  14.404
28204W        W87949  43.780  23.697   2.713
28205W        W87950   7.394   8.822  14.470
28206W        W87951   6.856   4.247   4.668
28207W        W87952  42.362  39.985  12.052
28208W        W87953  43.856  10.370   2.186
28209W        W87954  31.648  12.761   2.876
28210W        W87955  37.839  22.185  14.445
28211W        W87956  41.479   4.753  13.031
28212W        W87957  16.693   9.393   1.835
28213W        W87958   6.410  16.657  13.955
28214W        W87959  33.879   1.903  12.505
28215W        W87960  44.376  22.675  10.916
28216W        W87961  23.552  33.905  11.540
28217W        W87962  24.645  21.511  10.403
28218W        W87963  43.351  33.888   2.300
28219W        W87964  35.538   6.877   1.744
28220W        W87965   6.333   8.816  12.063
28221W        W87966  34.009  21.175  11.888
28222W        W87967   6.401   6.207   1.731
28223W        W87968  28.057  33.041  11.555
28224W        W87969  23.603  32.569  10.451
28225W        W87970   6.881  30.575  10.406
28226W        W87971  39.866  24.006  13.338
28227W        W87972  13.819   0.287  13.962
28228W        W87973  17.564  34.105  14.296
28229W        W87974  22.724  19.186   4.198
28230W        W87975  28.437  38.426   1.822
28231W        W87976  28.576   3.336   4.805
28232W        W87977  12.139  33.562  13.527
28233W        W87978  26.070  40.826   2.307
28234W        W87979  26.523  31.493  11.872
28235W        W87980  33.588  31.508  10.490
28236W        W87981  10.228  42.912  11.378
28237W        W87982  37.484  15.669  11.413
28238W        W87983  11.174  25.200  11.476
28239W        W87984  23.989  27.512   4.317
28240W        W87985   0.959  10.648  12.343
28241W        W87986  11.728  16.111   4.681
28242W        W87987  23.005   4.246  12.825
28243W        W87988  44.433  35.941  12.959
28244W        W87989  21.220  40.329   4.766
28245W        W87990  39.831  31.102  11.514
28246W        W87991  27.955  32.935   2.406
28247W        W87992  37.928  31.431   0.832
28248W        W87993  32.416   2.453   0.786
28249W        W87994  10.156   1.782   4.708
28250W        W87995  10.799  16.259   3.649
28251W        W87996  42.030  10.838   0.842
28252W        W87997  29.144   3.810  13.393
28253W        W87998  19.563  18.285   1.303
28254W        W87999  33.562   3.426   1.295
28255W        W88000   8.800  14.731   4.615
28256W        W88001  41.450   9.241   1.934
28257W        W88002  37.071  14.340   4.700
28258W        W88003  27.532  40.413   2.372
28259W        W88004  21.758  21.723   2.855
28260W        W88005   6.919   5.730   3.339
28261W        W88006  35.603  18.228  14.371
28262W        W88007   0.808  19.090  12.961
28263W        W88008  18.554   0.963   2.242
28264W        W88009  17.741  23.078   2.264
28265W        W88010  14.149  23.587  14.344
28266W        W88011  36.385  30.069   3.209
28267W        W88012  14.295  24.597   2.345
28268W        W88013   7.782  38.015  14.448
28269W        W88014  42.408  28.650   2.255
28270W        W88015  24.723  40.926  10.976
28271W        W88016  26.044  19.186   4.266
28272W        W88017  41.328  31.057  12.565
28273W        W88018  37.358  37.562   3.804
28274W        W88019   8.795  43.389  14.380
28275W        W88020  36.910   8.297  12.929
28276W        W88021  39.451  31.617   3.738
28277W        W88022  12.116  43.846  10.430
28278W        W88023  30.434  13.316  13.871
28279W        W88024   3.262   1.766   0.794
28280W        W88025   2.430  19.108   9.672
28281W        W88026   1.288  25.154  12.469
28282W        W88027   9.725   9.889   1.935
28283W        W88028  13.813  12.840  11.513
28284W        W88029   5.884  33.622   4.131
28285W        W88030   7.265  31.580  12.535
28286W        W88031  23.593  21.088   0.831
28287W        W88032  14.822  10.830  13.990
28288W        W88033  20.253  37.574  12.516
28289W        W88034  39.856  36.955   3.249
28290W        W88035   9.838  33.129  10.990
28291W        W88036  20.141   2.796  12.837
28292W        W88037  31.109  17.305  14.443
28293W        W88038   1.879  16.753   5.739
28294W        W88039  32.974  22.036   2.202
28295W        W88040  30.924  42.909  14.309
28296W        W88041  31.486  35.372   1.762
28297W        W88042  41.454  27.033  13.990
28298W        W88043  44.377  36.512  12.420
28299W        W88044  27.138  39.455   3.756
28300W        W88045  33.540  38.876   1.433
28301W        W88046  32.458  10.298  14.926
28302W        W88047   2.377  34.944   4.613
28303W        W88048   2.419  24.069   3.146
28304W        W88049   3.798  34.408  13.408
28305W        W88050   7.724  14.204  13.419
28306W        W88051  19.091  39.326   1.795
28307W        W88052   7.778  28.045   2.779
28308W        W88053  27.181  30.453   2.815
28309W        W88054  41.366  18.617  14.296
28310W        W88055  29.161  11.240  12.525
28311W        W88056  14.325  31.619   2.709
28312W        W88057   1.401  32.908  13.497
28313W        W88058  28.627   3.258   4.264
28314W        W88059  12.747  30.529   0.331
28315W        W88060  16.619   5.897   0.854
28316W        W88061   2.741  18.756  11.912
28317W        W88062  11.836  15.295   2.266
28318W        W88063  27.636  16.721   2.757
28319W        W88064  19.759  22.145  12.064
28320W        W88065  22.105   2.294   2.416
28321W        W88066  24.549  16.280   2.719
28322W        W88067  31.552  41.008   1.800
28323W        W88068  25.512  41.335  11.904
28324W        W88069   6.822  18.625  12.444
28325W        W88070  22.735   7.769   0.396
28326W        W88071  32.897   4.817   1.935
28327W        W88072  13.658   4.242   4.650
28328W        W88073  23.058  27.125   1.270
28329W        W88074  11.672  16.719   2.227
28330W        W88075  21.698  43.978  12.537
28331W        W88076   8.726  34.924   1.702
28332W        W88077  27.001  28.629  10.964
28333W        W88078  36.041  11.328  10.459
28334W        W88079  29.938  11.648  12.368
28335W        W88080  30.460  33.902  12.455
28336W        W88081  24.631  12.684  11.877
28337W        W88082  20.252   0.396   0.957
28338W        W88083  37.901  42.801  11.400
28339W        W88084  38.420  36.573   0.785
28340W        W88085  18.605  28.517   4.599
28341W        W88086  20.141  18.767   3.221
28342W        W88087  32.611   2.420   2.283
28343W        W88088   6.792  13.181  13.419
28344W        W88089  28.033  38.328  11.046
28345W        W88090  14.774   5.691  14.882
28346W        W88091  17.632  34.370  13.338
28347W        W88092  30.470  35.403  12.827
28348W        W88093  25.622  33.096  10.617
28349W        W88094  30.108   3.928  12.055
28350W        W88095  18.592  33.404  12.449
28351W        W88096  11.367  31.049   0.791
28352W        W88097  44.860  36.086   4.620
28353W        W88098  10.677   4.702  12.548
28354W        W88099  29.429  32.433   9.985
28355W        W88100  18.620  34.531   3.384
28356W        W88101  25.503  42.370   3.289
28357W        W88102  31.964   9.800   2.703
28358W        W88103  32.077  35.580   2.360
28359W        W88104  31.627   2.470  11.985
28360W        W88105  12.230  44.465  14.403
28361W        W88106  17.202  41.425  14.380
28362W        W88107  40.865   3.294   2.224
28363W        W88108   1.794   8.220  12.464
28364W        W88109  27.496  33.385   0.452
28365W        W88110  35.105   4.803   2.808
28366W        W88111  33.037  23.078  12.943
28367W        W88112  41.482   4.829  11.959
28368W        W88113  20.254  14.202   3.791
28369W        W88114  16.218  21.039   3.630
28370W        W88115   2.724  37.488   3.379
28371W        W88116  25.645  44.000   1.331
28372W        W88117  21.102  20.252  13.832
28373W        W88118  35.581  40.529   0.355
28374W        W88119  39.042   9.675   1.393
28375W        W88120  40.475  13.265  11.520
28376W        W88121  31.075   0.810  12.382
28377W        W88122  23.648  24.195   2.842
28378W        W88123  28.551   4.739   5.280
28379W        W88124  10.145  36.535  14.929
28380W        W88125  41.910  27.131  12.040
28381W        W88126  26.673   8.885  13.997
28382W        W88127   8.804   1.738  12.539
28383W        W88128  15.791  12.671   0.276
28384W        W88129  33.979  29.483  14.956
28385W        W88130  33.876  30.500  12.366
28386W        W88131  34.014  26.603  14.364
28387W        W88132  28.536  32.903  11.116
28388W        W88133  33.033  38.838   4.625
28389W        W88134  27.640  22.141   1.449
28390W        W88135  38.075  24.131   2.840
28391W        W88136  15.199  29.055  10.640
28392W        W88137  14.799  16.611  12.479
28393W        W88138  29.050  13.184  12.930
28394W        W88139  41.831   3.286   3.357
28395W        W88140  41.893   8.232   3.348
28396W        W88141  13.228  29.989  10.987
28397W        W88142  18.165  37.527   1.423
28398W        W88143  36.440  44.333   0.892
28399W        W88144  38.895  28.546  12.385
28400W        W88145   0.421   2.263  12.842
28401W        W88146  26.609  38.512  11.524
28402W        W88147   8.360  33.496  10.574
28403W        W88148  33.602  16.625   4.248
28404W        W88149  22.577   3.364   2.274
28405W        W88150  27.502   2.442   4.727
28406W        W88151  22.686  17.080   4.167
28407W        W88152  19.621  11.741  11.029
28408W        W88153  36.372  12.825  12.830
28409W        W88154   1.392  17.084  11.930
28410W        W88155   4.742  28.137  11.439
28411W        W88156  40.957  19.156   4.816
28412W        W88157  29.583  30.584   2.774
28413W        W88158  43.976   9.699   2.897
28414W        W88159  15.685  25.021   1.765
28415W        W88160  22.665  29.972   4.714
28416W        W88161  44.270  31.434  11.942
28417W        W88162  41.491  36.443  14.899
28418W        W88163  21.557  18.551   1.411
28419W        W88164  38.451  17.637  11.575
28420W        W88165  24.674  24.007  13.826
28421W        W88166  43.355  16.286  13.877
28422W        W88167   6.335  38.034  14.334
28423W        W88168   4.442   0.920  14.313
28424W        W88169  28.640  41.405   2.776
28425W        W88170  13.680  24.989  11.539
28426W        W88171   6.862  34.932   4.272
28427W        W88172  19.089   0.483  13.482
28428W        W88173  33.484   7.412  14.953
28429W        W88174  38.994  27.108  13.514
28430W        W88175  26.113  44.981   4.739
28431W        W88176  15.620  17.159   1.890
28432W        W88177  40.504  43.969   0.315
28433W        W88178  26.662  28.079   3.708
28434W        W88179  24.623   1.288   2.806
28435W        W88180   0.919  33.546   0.950
28436W        W88181  17.149  16.136  14.817
28437W        W88182  17.204   8.740  12.567
28438W        W88183  27.637   0.966   4.707
28439W        W88184  11.236  32.545   2.242
28440W        W88185   7.848  38.046  14.851
28441W        W88186  11.781  16.677  12.478
28442W        W88187  33.093  43.855  13.024
28443W        W88188  16.079  32.401  12.556
28444W        W88189  16.080  40.997   0.744
28445W        W88190  44.298   6.774   0.726
28446W        W88191   8.736  33.074   2.341
28447W        W88192  21.584  25.655   4.747
28448W        W88193  12.250  21.145   2.334
28449W        W88194  29.996  31.897   0.374
28450W        W88195  18.278  28.019  12.906
28451W        W88196  38.440   4.297   4.160
28452W        W88197  31.520   3.445   3.220
28453W        W88198  38.832  29.659   1.224
28454W        W88199  44.395  17.063  10.613
28455W        W88200  10.800  28.121  10.046
28456W        W88201  25.522  18.678   4.286
28457W        W88202   7.871  43.339   4.349
28458W        W88203  39.552  11.314   0.739
28459W        W88204  27.599  26.512  14.799
28460W        W88205   2.961  21.140  13.966
28461W        W88206   0.952   3.386   0.407
28462W        W88207   8.894  30.022   3.667
28463W        W88208   8.354  27.619   1.323
28464W        W88209  25.012  42.028   1.326
28465W        W88210  38.059  34.555   3.362
28466W        W88211  35.963  22.738  14.511
28467W        W88212  44.476  28.594  12.907
28468W        W88213  27.087  29.014  10.445
28469W        W88214  17.068   6.760  11.124
28470W        W88215   5.902  11.747  13.443
28471W        W88216  30.085  30.655  14.372
28472W        W88217  28.969  19.252   4.333
28473W        W88218  27.612  35.448  14.438
28474W        W88219  12.285   5.336  12.878
28475W        W88220  35.900  23.991  13.037
28476W        W88221  36.098  19.678  13.923
28477W        W88222  13.647  20.102  12.382
28478W        W88223  23.179  24.488  11.387
28479W        W88224   5.273  11.723  12.512
28480W        W88225  17.093  14.798   4.691
28481W        W88226  11.272  29.483   2.683
28482W        W88227  16.746  29.938  13.308
28483W        W88228  12.748  40.484   3.194
28484W        W88229  32.536  32.898   0.857
28485W        W88230  14.235  27.613   3.745
28486W        W88231  27.167  28.596  12.880
28487W        W88232  41.461  43.300  12.062
28488W        W88233  38.402   6.858   4.114
28489W        W88234  41.348  14.646  12.077
28490W        W88235   4.769  31.078   2.374
28491W        W88236   6.771  39.377   2.316
28492W        W88237  30.512  30.087   2.708
28493W        W88238  37.086  35.596   1.275
28494W        W88239  44.500  14.303  10.422
28495W        W88240  26.694   2.770  13.376
28496W        W88241  12.324  31.578  11.899
28497W        W88242  20.272  28.520  12.937
28498W        W88243  16.144  29.072  13.451
28499W        W88244  24.581   8.368   3.230
28500W        W88245  44.455  11.712  13.461
28501W        W88246  16.743  44.927  14.779
28502W        W88247   9.195  29.502  10.577
28503W        W88248  25.562   7.281  14.504
28504W        W88249   2.232  18.252   0.935
28505W        W88250   8.372  34.488  14.276
28506W        W88251  16.180  21.555   0.955
28507W        W88252  34.565   2.336  12.571
28508W        W88253  22.583  12.767   4.151
28509W        W88254  11.833  18.597   2.739
28510W        W88255  27.546  34.469  14.388
28511W        W88256   1.738  42.028   4.691
28512W        W88257  28.476  10.760  10.545
28513W        W88258  33.595  20.550   3.865
28514W        W88259  33.569   2.819  13.894
28515W        W88260  15.158   9.275  10.964
28516W        W88261  10.755  10.227  14.854
28517W        W88262  20.041  23.116   2.213
28518W        W88263  10.817  10.370   1.759
28519W        W88264   0.757  33.625  13.846
28520W        W88265  24.547  27.465   2.829
28521W        W88266   1.895  17.182   5.619
28522W        W88267  13.674  16.691   1.694
28523W        W88268  29.014   8.665  13.815
28524W        W88269  25.551   6.717   2.797
28525W        W88270  35.472  13.143  12.421
28526W        W88271  39.469  23.704  14.324
28527W        W88272  11.271  33.527   4.350
28528W        W88273  20.080  13.217  14.912
28529W        W88274  42.339  16.169   3.158
28530W        W88275  20.258  15.648   2.796
28531W        W88276  42.966   8.697   3.762
28532W        W88277  16.665  15.119  14.026
28533W        W88278   7.681  40.872   4.823
28534W        W88279  41.974  41.311  10.931
28535W        W88280  34.580  30.099  14.500
28536W        W88281  14.128  19.070   0.282
28537W        W88282  19.633  11.700  11.418
28538W        W88283  30.643  18.183  11.126
28539W        W88284   7.368  33.568   2.716
28540W        W88285  40.968  26.097  11.551
28541W        W88286  21.535  17.185  12.489
28542W        W88287  39.945  36.917   2.783
28543W        W88288  30.089  21.670   2.261
28544W        W88289   5.324  44.401   2.178
28545W        W88290   4.894  25.704  14.847
28546W        W88291  38.977   8.177   1.788
28547W        W88292   0.264   1.394  11.378
28548W        W88293  39.896  37.392   0.281
28549W        W88294   1.246  38.342   3.801
28550W        W88295  22.700  28.040   0.901
28551W        W88296  29.092   4.339  11.496
28552W        W88297  32.456  28.142  13.964
28553W        W88298  15.663   1.390   3.844
28554W        W88299  43.441  19.260  12.012
28555W        W88300   1.325  26.157   1.728
28556W        W88301  23.610  38.854  11.378
28557W        W88302   2.386  33.505   4.691
28558W        W88303  35.866   0.394   3.633
28559W        W88304  35.019  35.548  13.537
28560W        W88305   2.312  14.110  14.922
28561W        W88306  17.304  36.402  13.320
28562W        W88307  17.630  23.085   4.808
28563W        W88308  14.644  14.815   4.671
28564W        W88309   4.357  24.546   4.610
28565W        W88310   3.840  42.963  10.065
28566W        W88311  17.120   9.178  13.443
28567W        W88312  36.399  18.599  13.340
28568W        W88313  31.470  21.567  13.358
28569W        W88314  44.396   4.441   4.693
28570W        W88315  17.256  22.192  12.032
28571W        W88316  39.029  42.354  12.481
28572W        W88317  21.687  16.610  11.890
28573W        W88318  26.617  37.925   3.850
28574W        W88319   8.259  26.580   2.313
28575W        W88320   1.860  42.830   5.126
28576W        W88321  20.713  33.012  13.359
28577W        W88322  29.989  20.153  11.926
28578W        W88323   1.741  40.503  11.944
28579W        W88324   2.266   5.348   0.251
28580W        W88325  38.544  14.108  14.335
28581W        W88326  28.446  38.023   0.473
28582W        W88327  22.196  15.707  13.488
28583W        W88328  27.043  33.572  12.580
28584W        W88329  27.554  35.488   4.755
28585W        W88330  30.119  34.389  12.946
28586W        W88331   8.891  40.004   4.346
28587W        W88332  28.000  31.522  14.867
28588W        W88333  38.368  18.245  13.357
28589W        W88334   1.383  29.069   1.291
28590W        W88335  40.405  30.466   0.876
28591W        W88336  21.624  33.050  13.866
28592W        W88337  26.119  12.787   3.187
28593W        W88338  23.664  16.573   3.250
28594W        W88339  17.632  14.113   3.335
28595W        W88340  40.463  14.725   2.903
28596W        W88341  16.213  20.768   4.656
28597W        W88342  28.543  30.413  13.905
28598W        W88343  18.544  17.279   1.893
28599W        W88344  16.794  20.064   3.293
28600W        W88345  18.743  14.237  12.448
28601W        W88346  32.131  12.291  12.444
28602W        W88347  17.107   3.810  11.473
28603W        W88348  21.650   8.742  14.885
28604W        W88349  26.071  19.232   1.420
28605W        W88350   4.398   6.893   3.204
28606W        W88351   1.325  25.134  14.503
28607W        W88352   4.794  21.561   0.459
28608W        W88353  12.342   3.784  10.497
28609W        W88354  43.919  33.479  13.312
28610W        W88355  20.532  27.118   3.757
28611W        W88356  10.317  15.083   3.812
28612W        W88357  37.430  39.912   3.772
28613W        W88358  20.704  16.709  12.017
28614W        W88359  35.480   6.843   0.261
28615W        W88360   6.342  40.036   4.259
28616W        W88361  26.680  21.122  12.376
28617W        W88362  23.099   2.854   4.330
28618W        W88363  21.086  18.708   3.302
28619W        W88364   1.760  24.028  11.555
28620W        W88365  21.617  34.970   2.742
28621W        W88366  40.533  12.278  13.832
28622W        W88367  37.376   3.783  11.449
28623W        W88368   2.871  11.651   0.249
28624W        W88369  20.729  16.699   3.146
28625W        W88370   0.965   8.811  10.890
28626W        W88371  38.962  10.674   2.202
28627W        W88372  32.068  37.897  13.929
28628W        W88373  30.077  39.544   2.839
28629W        W88374   4.864  19.197  10.460
28630W        W88375  34.402   3.851  12.826
28631W        W88376   0.851   6.367   3.185
28632W        W88377  34.373  11.731   1.430
28633W        W88378  13.105  16.759  12.844
28634W        W88379  30.565  32.436  11.880
28635W        W88380   9.781  26.035  11.054
28636W        W88381   8.711  17.188   2.729
28637W        W88382  12.719  39.863  14.468
28638W        W88383  37.375   5.370   3.202
28639W        W88384  25.123  35.108   3.365
28640W        W88385   5.855   5.270  10.428
28641W        W88386  41.934  41.523  10.411
28642W        W88387   0.331  20.176  13.025
28643W        W88388  20.618  26.468   1.881
28644W        W88389  22.743  28.447   3.869
28645W        W88390   3.414  11.692   3.160
28646W        W88391  33.963  24.558  12.408
28647W        W88392  35.926  39.400  13.037
28648W        W88393  28.953  21.234  10.061
28649W        W88394  21.027  21.113   1.294
28650W        W88395  31.927  29.557  12.939
28651W        W88396  40.899  22.090   2.796
28652W        W88397  14.808  26.473   4.653
28653W        W88398  23.679  27.546  11.128
28654W        W88399   7.717  16.726   2.255
28655W        W88400  13.763  41.358  10.891
28656W        W88401  43.390   0.899  11.489
28657W        W88402  40.367  21.542   2.346
28658W        W88403  40.351  23.660  10.995
28659W        W88404  34.373  17.683   2.297
28660W        W88405   2.736  23.512  13.974
28661W        W88406  14.812   0.335  10.896
28662W        W88407  13.655  14.193   3.665
28663W        W88408  18.617  36.450   3.726
28664W        W88409  22.998  17.291  11.968
28665W        W88410  34.598  16.684  11.904
28666W        W88411  24.609  17.115  14.384
28667W        W88412  41.900  17.249   4.761
28668W        W88413  10.369  32.058  11.863
28669W        W88414   0.989   3.334  14.887
28670W        W88415  15.662   8.404  12.465
28671W        W88416  44.858  37.424  14.803
28672W        W88417  27.149  41.926  14.504
28673W        W88418  35.039  39.541   1.446
28674W        W88419   3.932  14.218  12.530
28675W        W88420   9.704  19.596   2.336
28676W        W88421  10.291   2.918   3.684
28677W        W88422  36.928  10.693   0.740
28678W        W88423  29.153  25.986  12.967
28679W        W88424  36.843   0.379  13.335
28680W        W88425  40.448  19.690   1.727
28681W        W88426  25.001  21.170  14.305
28682W        W88427  15.304   3.234  11.559
28683W        W88428   9.265  30.632  10.934
28684W        W88429   8.264  25.652   1.251
28685W        W88430   8.887   7.717   2.729
28686W        W88431  36.077  36.367   1.808
28687W        W88432  28.058  20.166   4.257
28688W        W88433  23.214  29.925   9.618
28689W        W88434  38.475  39.338  14.773
28690W        W88435  21.704  24.687  13.425
28691W        W88436  15.176  11.373  13.956
28692W        W88437  16.750  30.969  10.469
28693W        W88438   5.369  11.835   2.303
28694W        W88439  37.411  27.646  14.368
28695W        W88440   5.390  27.190   4.239
28696W        W88441  33.430  34.505  13.400
28697W        W88442   2.427  27.152   4.301
28698W        W88443  22.508  38.365  10.566
28699W        W88444  13.718  34.548   5.218
28700W        W88445  35.955  30.531  14.279
28701W        W88446  37.031  12.666   2.830
28702W        W88447  20.110  22.586   4.629
28703W        W88448  28.041   8.751  10.961
28704W        W88449  26.505  31.019   3.299
28705W        W88450  16.584  11.745   4.825
28706W        W88451   7.417   7.355   2.396
28707W        W88452  35.966  14.736  12.472
28708W        W88453  32.923  37.452   0.962
28709W        W88454  17.778  38.934   3.305
28710W        W88455  19.122  37.901  12.904
28711W        W88456  36.013  26.671   3.638
28712W        W88457   1.291  37.361  12.360
28713W        W88458  25.014   0.860  11.094
28714W        W88459   5.211  33.894   1.296
28715W        W88460   2.452  32.448   0.776
28716W        W88461  10.241   3.777  11.100
28717W        W88462  36.362   9.776   1.899
28718W        W88463  38.923   5.851  13.331
28719W        W88464   3.733  43.448   3.266
28720W        W88465  36.922  11.778   2.193
28721W        W88466  33.419  15.582  12.538
28722W        W88467  24.667   1.382   4.820
28723W        W88468  30.106  20.136  10.467
28724W        W88469  21.562  28.444   4.672
28725W        W88470   9.709  41.410  10.526
28726W        W88471  11.670   1.376   0.880
28727W        W88472   3.404  32.611  12.888
28728W        W88473  34.476  39.935  14.389
28729W        W88474  40.972  12.764   2.742
28730W        W88475   6.349  18.204  13.834
28731W        W88476  26.541  35.528   0.906
28732W        W88477  38.938   7.706  12.388
28733W        W88478  23.562  37.492   3.710
28734W        W88479  14.803  28.960   2.764
28735W        W88480  11.655   9.349   2.832
28736W        W88481  31.086  41.509  12.900
28737W        W88482   7.232  40.309  13.371
28738W        W88483  44.941   7.805  14.428
28739W        W88484  33.619  26.963   1.449
28740W        W88485   0.280  33.064  12.518
28741W        W88486   0.470  12.296   3.748
28742W        W88487  42.359  30.632  10.002
28743W        W88488  41.804   4.870  13.436
28744W        W88489  17.095   0.399   0.737
28745W        W88490  20.625  39.865  13.920
28746W        W88491   0.494  29.556   0.479
28747W        W88492   1.961  10.836   0.409
28748W        W88493  14.181  41.457  14.869
28749W        W88494   7.377   5.746   0.307
28750W        W88495  39.875  12.354   1.229
28751W        W88496  17.093  41.786  11.501
28752W        W88497  28.668   4.835  14.985
28753W        W88498  38.387  25.113   1.811
28754W        W88499   7.793   4.215   1.802
28755W        W88500  24.551  28.161   4.738
28756W        W88501  20.565  18.089  13.921
28757W        W88502  35.517  22.088  14.965
28758W        W88503   7.264  13.246   4.703
28759W        W88504   9.379   0.934  12.380
28760W        W88505  33.452  35.425  13.008
28761W        W88506  29.078  29.630   0.898
28762W        W88507  13.609  17.273  12.483
28763W        W88508  41.323  28.078  12.913
28764W        W88509  29.595  34.087   3.352
28765W        W88510   9.805  15.189  12.979
28766W        W88511  34.370  43.430   3.147
28767W        W88512  23.710   2.358  12.012
28768W        W88513  18.747  29.026  14.921
28769W        W88514  21.175  27.131   1.388
28770W        W88515  22.656  21.061  10.422
28771W        W88516  42.790  27.602   1.739
28772W        W88517  11.797  17.568  11.929
28773W        W88518   8.281   2.446   4.284
28774W        W88519   5.202   0.892   4.611
28775W        W88520   4.796   6.835   3.661
28776W        W88521  27.684  10.641   1.437
28777W        W88522  27.668   1.809   2.179
28778W        W88523  25.629  19.685  14.999
28779W        W88524   2.893  14.111   2.773
28780W        W88525  41.928  13.314   1.336
28781W        W88526  19.745  44.898   0.774
28782W        W88527   8.791  17.782   4.790
28783W        W88528  19.660  24.715  11.910
28784W        W88529  15.793   4.735  14.507
28785W        W88530  28.665  14.126   0.953
28786W        W88531  23.656  26.501   9.950
28787W        W88532   2.413  11.736   2.672
28788W        W88533  37.454  43.363   1.257
28789W        W88534  42.989  10.875   2.391
28790W        W88535  38.984  43.988  12.074
28791W        W88536   4.788   2.834  12.085
28792W        W88537  10.158   2.936   5.260
28793W        W88538  21.661  26.026  11.889
28794W        W88539  17.683  21.107  14.819
28795W        W88540  44.318  43.772   2.685
28796W        W88541  42.397   2.428  11.578
28797W        W88542  28.107  31.100  11.382
28798W        W88543  29.016  16.678  10.436
28799W        W88544  35.601  43.484   3.195
28800W        W88545  10.815   1.870   2.376
28801W        W88546   1.755  20.664  14.308
28802W        W88547  28.083  11.334   1.229
28803W        W88548  38.858  26.514   1.700
28804W        W88549  32.627  25.002   1.813
28805W        W88550  41.899  30.545  13.864
28806W        W88551  24.115  16.630  10.066
28807W        W88552   2.774  15.688   1.853
28808W        W88553  25.157  35.877  10.978
28809W        W88554   2.743   6.260   3.689
28810W        W88555  19.608  30.479   4.613
28811W        W88556   9.179  30.922  11.904
28812W        W88557  40.813  22.996   3.767
28813W        W88558  44.936   5.392   0.749
28814W        W88559  14.612   9.272  11.498
28815W        W88560  42.838  33.132  11.987
28816W        W88561   1.799   4.770  13.984
28817W        W88562   7.390  11.767   1.249
28818W        W88563  40.311  18.150  12.567
28819W        W88564  23.553   3.379  11.567
28820W        W88565  23.021  44.860   3.187
28821W        W88566  24.006  29.123   1.321
28822W        W88567   9.804   2.355   3.707
28823W        W88568  38.568  13.220  10.495
28824W        W88569  14.124   8.387  12.982
28825W        W88570  11.849  26.576   0.966
28826W        W88571  37.506   3.831  12.943
28827W        W88572  20.715  32.913  10.139
28828W        W88573  24.136  25.669   2.390
28829W        W88574  32.451  23.609  14.482
28830W        W88575   3.770  34.950   3.181
28831W        W88576  34.049  22.672  13.439
28832W        W88577  20.543  19.672  12.037
28833W        W88578  35.880   4.916   2.851
28834W        W88579  13.679  17.301  10.962
28835W        W88580  27.602  20.566   0.281
28836W        W88581  39.935  14.689   1.910
28837W        W88582  20.760  18.708  11.060
28838W        W88583   3.340  32.944   9.928
28839W        W88584  27.107  24.514  14.499
28840W        W88585  14.282  10.347   5.288
28841W        W88586  40.491  24.114   1.268
28842W        W88587  35.001  29.111  13.878
28843W        W88588  38.983   9.646   2.698
28844W        W88589  22.232  15.725  13.905
28845W        W88590  27.033  11.317  14.513
28846W        W88591  30.650  40.456  12.345
28847W        W88592   0.950  19.256   1.414
28848W        W88593  41.868  12.696   4.760
28849W        W88594   5.385  29.939   4.113
28850W        W88595   6.870  37.881   1.431
28851W        W88596  39.382  15.321   2.245
28852W        W88597  24.712   2.756   1.851
28853W        W88598   7.701  36.435   3.724
28854W        W88599  39.029  34.109  13.927
28855W        W88600   6.890  31.023  12.464
28856W        W88601  16.299   9.688   1.866
28857W        W88602  36.053  44.405  13.516
28858W        W88603  17.258  17.225   3.645
28859W        W88604  18.072  24.167  11.011
28860W        W88605  23.098  34.098  13.951
28861W        W88606  17.788   2.417  10.572
28862W        W88607  37.993   8.338  10.492
28863W        W88608   7.752  24.115   3.163
28864W        W88609   3.373  13.137   4.831
28865W        W88610   9.279  18.564  13.520
28866W        W88611  12.693  16.256  13.527
28867W        W88612  25.183  42.024  11.999
28868W        W88613   4.389  34.927  11.601
28869W        W88614  29.637  18.116  13.007
28870W        W88615  14.790  15.709   1.211
28871W        W88616  32.107  37.005   2.382
28872W        W88617  16.227  41.298  11.422
28873W        W88618   9.255  44.000   0.359
28874W        W88619  29.919  19.736  14.802
28875W        W88620  43.294   6.403  14.966
28876W        W88621  43.829  29.078  12.407
28877W        W88622   1.339  43.987  14.469
28878W        W88623  16.739  28.011   0.453
28879W        W88624  12.806  17.192   0.358
28880W        W88625  23.586  29.564   0.303
28881W        W88626  37.941  39.001  11.000
28882W        W88627  22.062  39.049   0.908
28883W        W88628  34.440  34.550   0.463
28884W        W88629   9.242  21.692   0.345
28885W        W88630  21.741  10.338  11.965
28886W        W88631   8.289  28.486   1.250
28887W        W88632   1.739  10.252   4.261
28888W        W88633   0.891   0.396  11.015
28889W        W88634  15.703  35.095   4.137
28890W        W88635  16.670  33.100  13.849
28891W        W88636  35.917  43.976   3.667
28892W        W88637  30.644  32.920   3.858
28893W        W88638  18.187  28.994  10.434
28894W        W88639  44.807  22.520  14.327
28895W        W88640  16.778  19.184   4.271
28896W        W88641  10.263   2.260   2.285
28897W        W88642  32.032   6.858  13.028
28898W        W88643  35.901   7.238   0.377
28899W        W88644   0.888   9.698   4.688
28900W        W88645  13.297  19.779  10.089
28901W        W88646  41.878  27.075   2.852
28902W        W88647  44.006   8.809  14.784
28903W        W88648  42.805  34.463  11.901
28904W        W88649  41.372  40.874   2.386
28905W        W88650  24.113   0.877   3.687
28906W        W88651  22.007  22.230   1.809
28907W        W88652  32.492  37.377   1.353
28908W        W88653  37.854  34.998  14.372
28909W        W88654   6.737  33.959  10.454
28910W        W88655  39.936  44.896   1.754
28911W        W88656  35.408  21.198   0.798
28912W        W88657   1.417  20.708  12.916
28913W        W88658   1.271  10.298   3.223
28914W        W88659   3.850  11.765   3.179
28915W        W88660  18.545  10.261  14.967
28916W        W88661   6.719  10.337  11.894
28917W        W88662  35.954  23.522   0.808
28918W        W88663  37.934  25.670   1.396
28919W        W88664  41.860  26.160   0.876
28920W        W88665  21.653  37.393  14.438
28921W        W88666  38.006   1.274  12.093
28922W        W88667  31.646  41.328  10.930
28923W        W88668  43.991  30.140  13.860
28924W        W88669  28.930  32.467  13.353
28925W        W88670  25.618  14.631   1.738
28926W        W88671  13.226  13.125   0.430
28927W        W88672  32.912  13.179  11.440
28928W        W88673  11.769  12.662  11.468
28929W        W88674  42.946  22.024  11.533
28930W        W88675  19.043  34.971   1.298
28931W        W88676  32.633  34.121   0.259
28932W        W88677  22.705  38.062   4.726
28933W        W88678   5.787   7.370  13.936
28934W        W88679  34.440  21.069  12.078
28935W        W88680  39.538  27.453   1.263
28936W        W88681  29.065  43.900   3.206
28937W        W88682  44.966   8.782  14.428
28938W        W88683  34.945  21.527   0.841
28939W        W88684  10.356  26.457   2.413
28940W        W88685  31.645  28.183   4.634
28941W        W88686  33.490  27.596   2.314
28942W        W88687   6.838  42.907   0.462
28943W        W88688  44.259  20.064   5.795
28944W        W88689  19.635   1.473  10.626
28945W        W88690  22.703   8.220   2.725
28946W        W88691   4.857  33.041   3.287
28947W        W88692  41.459  11.177  11.925
28948W        W88693   1.748   8.867   2.790
28949W        W88694   4.703  44.757  12.402
28950W        W88695   0.291  22.062  13.439
28951W        W88696   4.340  44.410   1.291
28952W        W88697  15.792  13.801   4.186
28953W        W88698  25.475   7.839   4.177
28954W        W88699   4.274   6.365   2.253
28955W        W88700  27.497  13.153  10.558
28956W        W88701  11.706  24.034   4.296
28957W        W88702  31.100  39.045   3.745
28958W        W88703  44.314   0.369   0.283
28959W        W88704  40.534   1.815  11.486
28960W        W88705  12.830  42.334   2.314
28961W        W88706   9.751  24.003  11.011
28962W        W88707  16.154  14.226   3.329
28963W        W88708  29.572  14.257   5.181
28964W        W88709   1.886  15.629  14.920
28965W        W88710  24.515   8.160   4.353
28966W        W88711  29.475  12.280  11.384
28967W        W88712  11.211  39.344   2.760
28968W        W88713   5.208  10.311   4.323
28969W        W88714  34.562  21.664  14.001
28970W        W88715  28.567  32.476  14.902
28971W        W88716   5.353  44.959   0.826
28972W        W88717   6.388  44.340  10.913
28973W        W88718  38.342  22.247   2.789
28974W        W88719  40.525  15.292  11.105
28975W        W88720  13.764  36.070  12.526
28976W        W88721  31.094  36.399   1.878
28977W        W88722   3.850  14.198  13.317
28978W        W88723  41.026  22.138   1.378
28979W        W88724  26.961  37.521   3.290
28980W        W88725  43.978  35.991   1.786
28981W        W88726  38.859   7.727   1.412
28982W        W88727  31.498   2.409  14.856
28983W        W88728  23.226  34.508   4.700
28984W        W88729  34.064   6.847   0.862
28985W        W88730  40.354  41.024  10.432
28986W        W88731  19.647  21.127  12.872
28987W        W88732   6.331  33.990  13.828
28988W        W88733  16.795  27.979  12.452
28989W        W88734  10.799   2.267  14.955
28990W        W88735  42.800  27.113  11.445
28991W        W88736  13.650  32.399   1.250
28992W        W88737  18.204  35.489   0.958
28993W        W88738   2.823   0.481   0.376
28994W        W88739  15.307  28.004   4.805
28995W        W88740  43.949  14.654   1.890
28996W        W88741  13.724  29.112  13.324
28997W        W88742  39.942  28.475   4.744
28998W        W88743  39.374  19.252  14.500
28999W        W88744  17.285  40.043   3.672
29000W        W88745  41.822   5.425  12.893
29001W        W88746  24.148  23.585  14.803
29002W        W88747  10.344  32.517   3.810
29003W        W88748  23.685  36.471  12.484
29004W        W88749  26.066   3.218  14.425
29005W        W88750  18.263  35.601   2.252
29006W        W88751   0.282   3.324   1.838
29007W        W88752  24.724  40.902   2.307
29008W        W88753  28.549  18.671  13.943
29009W        W88754  17.069  29.555   4.154
29010W        W88755  13.156  11.288  12.007
29011W        W88756   4.414   1.475   0.909
29012W        W88757   4.369  31.152  14.302
29013W        W88758  36.517  25.155  14.409
29014W        W88759  15.658  15.179   4.689
29015W        W88760  38.382  33.537   4.606
29016W        W88761  22.578  38.989   3.343
29017W        W88762  29.532  38.385  10.515
29018W        W88763   4.874  29.176   2.878
29019W        W88764   8.392  11.736  10.573
29020W        W88765  17.168  37.472   1.446
29021W        W88766  16.173  33.497  13.934
29022W        W88767  40.866  44.802  12.948
29023W        W88768  24.586   6.330  13.407
29024W        W88769  12.357  15.261  11.127
29025W        W88770  10.264  13.726   1.247
29026W        W88771  22.142  19.144  11.421
29027W        W88772  37.366  27.990  14.950
29028W        W88773   4.369  17.742   1.224
29029W        W88774  44.863  22.627  13.388
29030W        W88775  35.401  38.842  14.926
29031W        W88776  43.336  23.527   1.916
29032W        W88777   5.300   8.196   3.780
29033W        W88778   8.729  23.523  13.511
29034W        W88779  34.956  27.068   3.190
29035W        W88780  37.563  12.810  10.107
29036W        W88781  32.080  33.592   3.652
29037W        W88782  39.871   4.280  10.555
29038W        W88783  10.301  32.127   1.900
29039W        W88784  13.709  16.104  13.518
29040W        W88785  16.644  13.625  12.364
29041W        W88786  13.793  21.692  11.906
29042W        W88787  36.858  39.394   3.296
29043W        W88788  26.518  31.048  14.973
29044W        W88789  14.164  39.318   0.246
29045W        W88790  42.389  34.531  12.046
29046W        W88791  39.979  32.050  12.556
29047W        W88792  33.418  25.991   3.826
29048W        W88793   8.691  20.567   4.785
29049W        W88794  32.412  32.480   0.772
29050W        W88795  16.158  17.231  14.399
29051W        W88796  25.153  41.821   3.671
29052W        W88797  26.176  44.923  14.277
29053W        W88798  15.795  16.802  13.378
29054W        W88799  12.734  24.544  13.063
29055W        W88800  12.330  39.033   3.677
29056W        W88801   4.926  33.092  12.468
29057W        W88802   8.321  43.899  10.413
29058W        W88803  16.715  28.593   0.873
29059W        W88804  13.128  33.904   2.726
29060W        W88805  31.043  23.708   2.883
29061W        W88806  36.350  22.646  11.084
29062W        W88807  19.206  24.719  13.409
29063W        W88808  13.251  20.091  11.531
29064W        W88809  15.214  27.180   4.207
29065W        W88810   8.314  10.803   0.949
29066W        W88811   5.806  13.819  11.085
29067W        W88812  37.514  32.904   3.365
29068W        W88813  35.438  29.085   2.405
29069W        W88814   3.873  23.729   0.815
29070W        W88815  39.330  20.089   3.655
29071W        W88816  31.543  14.211  10.433
29072W        W88817  11.269  26.959   0.301
29073W        W88818   7.404   1.242  12.475
29074W        W88819  35.073  34.996  14.468
29075W        W88820  13.106  20.754  11.392
29076W        W88821  11.290  11.685  13.012
29077W        W88822  38.970  41.307  13.930
29078W        W88823  15.745   9.229   0.313
29079W        W88824  35.958  23.682  11.948
29080W        W88825  25.155   5.196  13.358
29081W        W88826  21.122  42.000   3.688
29082W        W88827  31.942  43.795   4.257
29083W        W88828  11.279   1.466  12.999
29084W        W88829   6.312   6.273   4.201
29085W        W88830  35.582  17.683   1.318
29086W        W88831   8.361  12.138   2.285
29087W        W88832   1.795  17.688  13.036
29088W        W88833  20.159  21.099  14.945
29089W        W88834  42.380   2.728  13.903
29090W        W88835   6.814  37.349  12.362
29091W        W88836   0.481  44.772  13.879
29092W        W88837  24.061   3.280   1.300
29093W        W88838  19.694   3.297  10.914
29094W        W88839  29.021  16.680  12.890
29095W        W88840  19.120  15.082  14.817
29096W        W88841  42.906  31.146   2.892
29097W        W88842   3.215   8.216   0.416
29098W        W88843  17.128  30.434   2.364
29099W        W88844  26.489  34.022   0.765
29100W        W88845  40.973  38.509   4.173
29101W        W88846  31.004   8.654  11.868
29102W        W88847  13.193  37.952   3.343
29103W        W88848  37.390  34.922  12.085
29104W        W88849   9.290  43.767  11.933
29105W        W88850  25.156   2.308   0.256
29106W        W88851  11.197   7.857   0.461
29107W        W88852  22.066   3.784   4.296
29108W        W88853  39.418  23.142   3.338
29109W        W88854  16.607  18.282   1.905
29110W        W88855  22.599  13.270   1.275
29111W        W88856   5.734   2.793   3.856
29112W        W88857  10.768   2.341  11.035
29113W        W88858  34.867  39.018  14.982
29114W        W88859  10.825  34.443   4.147
29115W        W88860  39.530   0.793   1.328
29116W        W88861  19.098   3.792  14.950
29117W        W88862  39.914   6.186  12.514
29118W        W88863  33.491  15.149  13.799
29119W        W88864   2.747  20.761  10.983
29120W        W88865  36.077  25.521  12.858
29121W        W88866  16.179  23.649   3.674
29122W        W88867  39.501   5.691  12.426
29123W        W88868  43.480  33.910  14.005
29124W        W88869  40.366  38.453   4.631
29125W        W88870  43.353  25.615   2.281
29126W        W88871  29.034  26.089   1.764
29127W        W88872  37.884   7.312   4.733
29128W        W88873  33.056  36.866  12.560
29129W        W88874  30.988  21.164  13.352
29130W        W88875  27.980   8.303  14.814
29131W        W88876  23.991  19.780  12.891
29132W        W88877   9.330   5.763  14.808
29133W        W88878  14.105   1.378  13.839
29134W        W88879   4.937  26.614   1.824
29135W        W88880  34.035  11.784   1.336
29136W        W88881  12.241  17.577   0.295
29137W        W88882  23.026  37.402  12.371
29138W        W88883  20.262   5.321  14.341
29139W        W88884   1.413  12.281   3.222
29140W        W88885  33.028  15.289   0.454
29141W        W88886  37.565   6.807  11.421
29142W        W88887  38.998   0.494  10.068
29143W        W88888  36.075  32.025  14.921
29144W        W88889   5.431   3.377   2.303
29145W        W88890  34.460  33.470  10.586
29146W        W88891  31.500   4.217  10.895
29147W        W88892  20.056  25.623  11.505
29148W        W88893  19.586  26.023  13.019
29149W        W88894  14.662  15.608  12.369
29150W        W88895  38.454  25.974  12.394
29151W        W88896  12.622  21.061  12.445
29152W        W88897  36.076   3.904   3.782
29153W        W88898  19.259  30.563  10.530
29154W        W88899  23.186   8.804   3.631
29155W        W88900  24.992  15.746   2.198
29156W        W88901  42.457  14.203  11.872
29157W        W88902  28.142  43.832   4.291
29158W        W88903  21.617  22.060  12.952
29159W        W88904  10.822   9.692   0.825
29160W        W88905  37.374  12.805  12.877
29161W        W88906  27.589  29.154   0.959
29162W        W88907  34.948   3.386   0.424
29163W        W88908  23.011  37.340   4.647
29164W        W88909  25.532  15.735   2.410
29165W        W88910  31.970  23.161  12.889
29166W        W88911  23.226  35.457  13.368
29167W        W88912  44.943   2.240  10.636
29168W        W88913  13.185  23.190  12.885
29169W        W88914  11.744  24.602   0.798
29170W        W88915  20.125  15.257   3.865
29171W        W88916  44.403  36.407  12.851
29172W        W88917  41.295  17.791   1.369
29173W        W88918  31.914  31.646  13.836
29174W        W88919  43.764  18.098  13.484
29175W        W88920  10.795  20.633   3.830
29176W        W88921  35.475   7.303  13.865
29177W        W88922   4.713  16.315  12.857
29178W        W88923   3.731  31.944   1.797
29179W        W88924  25.705  17.655   2.281
29180W        W88925  18.751  16.606   0.475
29181W        W88926  25.157   3.317  10.901
29182W        W88927  31.498  20.749  11.375
29183W        W88928  21.569  33.398   4.615
29184W        W88929  30.931  39.908   2.710
29185W        W88930   0.272   2.848  13.042
29186W        W88931  22.240  33.874  13.792
29187W        W88932  21.134  19.747  10.418
29188W        W88933  44.920  10.175  14.423
29189W        W88934  34.399  42.002   1.810
29190W        W88935   9.245  30.915   0.757
29191W        W88936  39.828  20.132   1.918
29192W        W88937  35.899   9.264  13.322
29193W        W88938   6.846  30.659   3.308
29194W        W88939  35.888  43.896   2.244
29195W        W88940  10.813  34.587  12.456
29196W        W88941   0.989  40.476   1.257
29197W        W88942   7.798  35.923  12.363
29198W        W88943  23.695  18.173  13.366
29199W        W88944  29.974  42.331   0.266
29200W        W88945  40.960  12.673  13.910
29201W        W88946  13.245  17.696   0.480
29202W        W88947   2.330  12.256   0.828
29203W        W88948  15.792  16.683   3.731
29204W        W88949  24.166  32.028  14.904
29205W        W88950  37.505  34.014   0.457
29206W        W88951   7.862   2.868   2.414
29207W        W88952  17.137  12.686  10.068
29208W        W88953  41.965  18.270  10.587
29209W        W88954  36.527  36.867  11.430
29210W        W88955  31.425  32.431  13.019
29211W        W88956  26.559  41.371  10.998
29212W        W88957  19.231  34.967  12.894
29213W        W88958  41.857  16.739  10.904
29214W        W88959  33.037  31.026  13.037
29215W        W88960  15.086  41.441   1.308
29216W        W88961  12.655  12.633  12.037
29217W        W88962  18.095   9.347  14.325
29218W        W88963  28.455  19.627   0.287
29219W        W88964  13.635  35.416   1.324
29220W        W88965   2.242   1.929  12.521
29221W        W88966  28.086   4.701  12.392
29222W        W88967   0.333   3.769   4.726
29223W        W88968  30.504   5.796   1.392
29224W        W88969  23.218  13.658  11.386
29225W        W88970  44.926  30.585  12.903
29226W        W88971  44.321   8.176   2.230
29227W        W88972  36.023  20.141   3.236
29228W        W88973  23.088  19.602  12.348
29229W        W88974  43.868   3.857  11.484
29230W        W88975   1.927  44.842   2.709
29231W        W88976  17.713   7.318  10.602
29232W        W88977  31.564  37.907   2.795
29233W        W88978  38.001  25.040   3.815
29234W        W88979  34.588  19.057  14.275
29235W        W88980  12.337  30.046  14.499
29236W        W88981  23.684  19.727  11.102
29237W        W88982  33.080  44.267   2.292
29238W        W88983  19.568  32.033  13.320
29239W        W88984   6.870  21.246   5.221
29240W        W88985  31.583  35.583  11.103
29241W        W88986  12.614  31.923  11.957
29242W        W88987  17.668  17.152  10.405
29243W        W88988  13.657  32.522  14.316
29244W        W88989   0.442   8.819  14.001
29245W        W88990  39.994  10.712  11.009
29246W        W88991  35.060  15.621   4.195
29247W        W88992  44.904  41.945   1.810
29248W        W88993  41.034  41.414  10.968
29249W        W88994  22.689  18.725   0.450
29250W        W88995  11.634   6.743   0.780
29251W        W88996  24.610  37.849  11.931
29252W        W88997   0.466  37.488   2.880
29253W        W88998   0.320   7.229   1.303
29254W        W88999  26.493   1.840   9.970
29255W        W89000   9.263  28.478  14.773
29256W        W89001   7.217   8.295   4.163
29257W        W89002  33.941  34.102  13.525
29258W        W89003   1.777  35.427   0.386
29259W        W89004  34.505  19.779  11.480
29260W        W89005  40.039  11.859  13.919
29261W        W89006   4.710  41.982   2.389
29262W        W89007  11.786  14.730  14.815
29263W        W89008  25.051  17.608   0.841
29264W        W89009  33.040  16.073   3.771
29265W        W89010   8.747  17.085  11.921
29266W        W89011  17.558  27.183   3.657
29267W        W89012  40.350   3.798  12.865
29268W        W89013  15.784  21.567  10.998
29269W        W89014  22.693  41.986   2.688
29270W        W89015  41.326   8.846   1.249
29271W        W89016  19.560   5.368  10.103
29272W        W89017  22.035  29.117  13.325
29273W        W89018  44.265   8.359  11.052
29274W        W89019  18.134  17.269   3.323
29275W        W89020  13.627  20.105  11.077
29276W        W89021  13.737   5.816   1.808
29277W        W89022  44.794  21.131  10.894
29278W        W89023  41.947  13.688   4.126
29279W        W89024  44.452  41.928   2.730
29280W        W89025  25.652  22.046   2.362
29281W        W89026  14.676  30.023  10.907
29282W        W89027   1.795  16.695  13.425
29283W        W89028   7.351  31.044  12.859
29284W        W89029  10.723  10.634  14.392
29285W        W89030   3.254  14.227  13.835
29286W        W89031   8.206   4.328  11.066
29287W        W89032  40.540   5.859  12.533
29288W        W89033  25.590  25.180   1.898
29289W        W89034  30.999  37.892   4.164
29290W        W89035  41.527  38.925  13.384
29291W        W89036  35.456  43.382   4.246
29292W        W89037   7.783  20.742  11.955
29293W        W89038  11.330  33.910  12.907
29294W        W89039   8.170  40.003   1.293
29295W        W89040  23.230  18.738   5.166
29296W        W89041  23.497  37.380  13.922
29297W        W89042  36.565  28.488  11.384
29298W        W89043   2.285   4.311   1.783
29299W        W89044   4.786   3.315   1.308
29300W        W89045  12.343   5.776   0.344
29301W        W89046  36.497  37.569  13.835
29302W        W89047  42.021   1.391   0.452
29303W        W89048  20.700  37.569  11.429
29304W        W89049   1.750  13.113   2.681
29305W        W89050  44.394  34.116   2.403
29306W        W89051  43.853  28.519   2.223
29307W        W89052   9.201   9.371   0.269
29308W        W89053  24.659  22.145   0.858
29309W        W89054  19.047  24.622  12.465
29310W        W89055  33.551  36.874   0.928
29311W        W89056  28.168  44.814   3.373
29312W        W89057  40.938  33.435   3.220
29313W        W89058  33.927   3.906  14.872
29314W        W89059  26.595  30.611  13.996
29315W        W89060   0.959   2.762   4.269
29316W        W89061  13.334  37.872   9.577
29317W        W89062  32.392   9.755  11.921
29318W        W89063  40.431  25.112  14.783
29319W        W89064  41.956  30.488   4.736
29320W        W89065  16.778  37.434  14.893
29321W        W89066  27.127  42.861  10.583
29322W        W89067  31.916  15.579   3.635
29323W        W89068  38.509  40.489   2.726
29324W        W89069   8.216   0.347  14.307
29325W        W89070  12.713  33.911   1.735
29326W        W89071  41.426  34.381   0.901
29327W        W89072  39.473   5.426   4.293
29328W        W89073   9.350   3.317   2.775
29329W        W89074  26.173  33.894  13.800
29330W        W89075   3.937  29.960   0.284
29331W        W89076  14.699  37.546  13.410
29332W        W89077  40.961  16.313   0.281
29333W        W89078  35.955  33.554   0.916
29334W        W89079  27.547  35.002  14.284
29335W        W89080   6.859  18.699   2.342
29336W        W89081  18.214  15.190   2.285
29337W        W89082  29.475  32.033   4.262
29338W        W89083  42.377   2.920   3.186
29339W        W89084  27.074  27.146  10.543
29340W        W89085  19.664   1.471   0.421
29341W        W89086  16.647  19.622   4.737
29342W        W89087  27.087  17.643   4.186
29343W        W89088  27.605  42.894  11.567
29344W        W89089  32.928   1.376   2.365
29345W        W89090  28.929   6.827  13.010
29346W        W89091   6.233  31.078   4.345
29347W        W89092   2.781  41.496  13.916
29348W        W89093  37.067   4.265   4.287
29349W        W89094  11.648  29.057  14.457
29350W        W89095  27.995  41.878   2.396
29351W        W89096  13.705  38.004   5.789
29352W        W89097  20.163  32.607   1.336
29353W        W89098  35.938   5.357   4.760
29354W        W89099   4.861   3.903  12.003
29355W        W89100  22.239  37.922  12.992
29356W        W89101  36.988  17.728   4.824
29357W        W89102   3.233  12.174   4.755
29358W        W89103  20.544  16.746  12.884
29359W        W89104  20.735  16.114  11.474
29360W        W89105  42.400   1.336   4.329
29361W        W89106   7.377  27.013   1.909
29362W        W89107  30.479  31.441   3.303
29363W        W89108   3.858  16.267  11.372
29364W        W89109  34.014  18.205  13.442
29365W        W89110  19.123  16.188   4.267
29366W        W89111  39.898  10.683  11.860
29367W        W89112  42.322  26.084  10.527
29368W        W89113  44.913  25.654   2.889
29369W        W89114  11.809  30.486   5.161
29370W        W89115   9.816   8.791  11.413
29371W        W89116  19.178  31.415  14.927
29372W        W89117   4.206  33.395   3.770
29373W        W89118  41.962  38.912   5.157
29374W        W89119  29.975  13.674   1.241
29375W        W89120  27.517  43.923   3.385
29376W        W89121   1.321  44.834   0.872
29377W        W89122  38.422   2.423   2.280
29378W        W89123  40.363  33.619  13.538
29379W        W89124   7.898  20.674  14.906
29380W        W89125  32.583  41.413  12.470
29381W        W89126  36.056   8.732   3.713
29382W        W89127  41.791   3.366   2.776
29383W        W89128  28.930   8.761   3.168
29384W        W89129  32.422  35.971  11.570
29385W        W89130  42.976  32.933   0.816
29386W        W89131  11.307  14.219   2.185
29387W        W89132  39.319  30.991  13.421
29388W        W89133  44.842  35.432   0.447
29389W        W89134  11.332   3.951   3.271
29390W        W89135  29.608  25.498   3.827
29391W        W89136   0.489   4.718  10.541
29392W        W89137  28.118  13.792   3.672
29393W        W89138  40.389  37.887   3.238
29394W        W89139   5.711  44.862   3.829
29395W        W89140  34.960  31.545   1.753
29396W        W89141  42.526   2.389   4.188
29397W        W89142  34.894  13.300   4.341
29398W        W89143   5.746  42.400   2.816
29399W        W89144  43.798  25.032  10.991
29400W        W89145  44.911  36.417   1.768
29401W        W89146  30.656  17.212  12.904
29402W        W89147  32.908  33.532  10.451
29403W        W89148  27.497  38.970   4.597
29404W        W89149  43.439  10.711  12.358
29405W        W89150   9.850  18.112   3.153
29406W        W89151  10.859  32.479   3.691
29407W        W89152  11.740   1.242  14.872
29408W        W89153   1.348  17.716  14.872
29409W        W89154  23.069   0.422  11.857
29410W        W89155  18.105  38.851  11.375
29411W        W89156  26.188  12.742  13.502
29412W        W89157  32.498  42.400  11.551
29413W        W89158  30.629   9.349  11.099
29414W        W89159   4.237  21.621   1.341
29415W        W89160  38.463  43.812   4.231
29416W        W89161  36.950  30.494  14.962
29417W        W89162  37.919   1.804  10.627
29418W        W89163  44.004  19.657   5.203
29419W        W89164  41.310  23.238   0.770
29420W        W89165   9.807   3.726   2.209
29421W        W89166  32.596   4.843  14.370
29422W        W89167   0.959  16.193  12.407
29423W        W89168  35.583  19.197   1.714
29424W        W89169   3.420   3.838  12.445
29425W        W89170  40.007  24.184   0.312
29426W        W89171  18.688  43.413   1.909
29427W        W89172  19.159  38.330  14.425
29428W        W89173  17.108   7.810  14.502
29429W        W89174  41.038  33.046   2.338
29430W        W89175   3.791  14.145  10.452
29431W        W89176  25.115  40.324   3.648
29432W        W89177  36.571  23.103  11.440
29433W        W89178  24.166  39.314  14.424
29434W        W89179  19.553  39.316  13.517
29435W        W89180   7.864  28.021   4.630
29436W        W89181  35.381  35.909   3.864
29437W        W89182  39.895  35.517  13.893
29438W        W89183  34.922  18.160   4.648
29439W        W89184   8.808   6.796   2.342
29440W        W89185  21.089   1.307   4.237
29441W        W89186  27.091  23.239  10.964
29442W        W89187  38.973  15.160   2.255
29443W        W89188   5.224  29.920   1.728
29444W        W89189  27.003  31.534   2.395
29445W        W89190  21.693  12.730  14.830
29446W        W89191  29.539  40.848   1.214
29447W        W89192   7.674  12.312   4.657
29448W        W89193   0.933  11.799   4.636
29449W        W89194   5.306   2.857   2.202
29450W        W89195  41.301  40.539  14.290
29451W        W89196   1.345   5.793   2.893
29452W        W89197  10.639  37.081  13.799
29453W        W89198  33.081  36.567   4.138
29454W        W89199  18.135   8.822   0.756
29455W        W89200  34.480   9.378   4.653
29456W        W89201  38.042  42.822  13.024
29457W        W89202  15.324  23.046   3.199
29458W        W89203  27.666  16.148  13.026
29459W        W89204   9.282  37.417  10.476
29460W        W89205  11.135  23.181  12.040
29461W        W89206  42.815  34.881   3.754
29462W        W89207  17.161   8.232  10.083
29463W        W89208  25.118  37.833   2.755
29464W        W89209  29.536  20.769  13.447
29465W        W89210  10.180  44.488   4.202
29466W        W89211   4.860  24.108  13.831
29467W        W89212  39.047  43.335  13.539
29468W        W89213  13.144   3.789  12.061
29469W        W89214  11.227  19.628  14.971
29470W        W89215  31.004   4.800   3.693
29471W        W89216  29.441  12.728  10.622
29472W        W89217  19.544  27.015   2.733
29473W        W89218   9.368  39.036   1.368
29474W        W89219  14.624  17.157  10.608
29475W        W89220  10.328  15.175  10.120
29476W        W89221  19.715   2.365   1.372
29477W        W89222  14.313  44.872   4.206
29478W        W89223   8.796   1.795  10.431
29479W        W89224  26.072  18.573  11.394
29480W        W89225  14.154   5.879   1.418
29481W        W89226  32.604   0.754   2.765
29482W        W89227  32.022  33.396  10.485
29483W        W89228  22.537  20.658   2.708
29484W        W89229   7.672  25.686  11.539
29485W        W89230  19.712   4.921   1.312
29486W        W89231  17.797  37.458  10.538
29487W        W89232   2.950  44.868   3.174
29488W        W89233  20.136  14.642   2.804
29489W        W89234  32.410   7.227   1.396
29490W        W89235   9.236  35.074  14.955
29491W        W89236  16.779  21.079   4.275
29492W        W89237  24.681  37.459   4.676
29493W        W89238  30.534  25.633  10.635
29494W        W89239   7.356  39.932   4.271
29495W        W89240  13.150  14.825  10.956
29496W        W89241  39.911  13.744   3.302
29497W        W89242  38.509  32.984   4.831
29498W        W89243  10.689  44.919  13.937
29499W        W89244  17.618  38.937  10.928
29500W        W89245  39.344  40.495   1.438
29501W        W89246  10.237  10.154   3.171
29502W        W89247  37.986  29.448  11.970
29503W        W89248  40.003  42.995  14.304
29504W        W89249  34.601   6.274   2.283
29505W        W89250  29.524   8.400   0.288
29506W        W89251   2.726  20.246  13.501
29507W        W89252  28.619  19.263  14.361
29508W        W89253  25.711   0.290  10.618
29509W        W89254   8.815   8.201  13.321
29510W        W89255  17.194  22.181   3.858
29511W        W89256  24.003  25.079   2.774
29512W        W89257  21.066  23.605   0.860
29513W        W89258  18.600  11.221   1.240
29514W        W89259  39.992  41.432   1.262
29515W        W89260  12.648   7.879   0.378
29516W        W89261  10.647  22.100   0.411
29517W        W89262  24.077  26.493  13.878
29518W        W89263  41.469  17.098  11.033
29519W        W89264  33.476  34.090  14.994
29520W        W89265   8.192  16.145  10.507
29521W        W89266  23.505  18.231   1.777
29522W        W89267   4.721  34.958  13.035
29523W        W89268  25.492  41.044   4.780
29524W        W89269   3.442  40.412   0.781
29525W        W89270  25.199   6.206  10.950
29526W        W89271   9.307  35.969   0.328
29527W        W89272   5.785  11.797  10.890
29528W        W89273   9.386  40.444   3.746
29529W        W89274  28.099  43.885   0.398
29530W        W89275  23.722   7.236   2.181
29531W        W89276  37.074  10.708   2.798
29532W        W89277  14.099  19.650   1.248
29533W        W89278   4.324  34.478   4.836
29534W        W89279  35.413   7.701  14.366
29535W        W89280  30.125  44.802  13.008
29536W        W89281   6.887  36.934  12.887
29537W        W89282  26.071  38.347   1.910
29538W        W89283  11.833  37.988   3.275
29539W        W89284   6.829   1.438  14.769
29540W        W89285   5.292  28.512   4.328
29541W        W89286  34.910  16.570  10.027
29542W        W89287   2.360  44.950   3.239
29543W        W89288  39.891  16.664   0.247
29544W        W89289   9.782   3.855  14.920
29545W        W89290  40.054  10.182   4.300
29546W        W89291  23.105  11.816   0.419
29547W        W89292   2.815  15.772   1.294
29548W        W89293  21.637  25.505  14.876
29549W        W89294  17.737  19.559  12.896
29550W        W89295  30.962   1.404   2.317
29551W        W89296  21.196  11.637  13.891
29552W        W89297  12.234  17.296   4.300
29553W        W89298  35.595  33.625  11.430
29554W        W89299  41.934  27.136  12.351
29555W        W89300  26.642  11.868   0.364
29556W        W89301  23.119   5.431  11.097
29557W        W89302   6.679   4.214  10.423
29558W        W89303  16.296   5.289   4.814
29559W        W89304  38.975  38.926   0.332
29560W        W89305  18.766  23.645   0.838
29561W        W89306  15.742  18.146  10.033
29562W        W89307  37.430  36.348   4.664
29563W        W89308  15.286  44.466   0.930
29564W        W89309   0.932   8.241   3.377
29565W        W89310   0.425  18.175   0.289
29566W        W89311   5.847  11.346  13.510
29567W        W89312  14.621  12.617   2.230
29568W        W89313   6.403  41.801   0.330
29569W        W89314  16.787   0.492  13.518
29570W        W89315  39.930   9.885   3.190
29571W        W89316   1.339  12.234   4.287
29572W        W89317  42.519  36.089   0.319
29573W        W89318  24.080  13.299  12.906
29574W        W89319  25.206  32.512   3.205
29575W        W89320  29.991  33.013   3.338
29576W        W89321  26.589  28.185   4.285
29577W        W89322  16.619  23.657   3.153
29578W        W89323  43.782  22.723   1.297
29579W        W89324  44.894  11.213  14.916
29580W        W89325  37.961  32.517   3.279
29581W        W89326  19.211   4.870  13.887
29582W        W89327  21.573  21.064  10.433
29583W        W89328  22.531  10.253   5.209
29584W        W89329   7.905   9.740   4.306
29585W        W89330  44.342   7.252  10.114
29586W        W89331  21.069  25.114  12.922
29587W        W89332  28.452  26.684   1.355
29588W        W89333  32.635  23.682   4.279
29589W        W89334   0.869  29.166   3.864
29590W        W89335  39.512  19.625  12.392
29591W        W89336  29.142  28.181  14.967
29592W        W89337  30.532  41.293   3.677
29593W        W89338  42.991  40.440   0.762
29594W        W89339  10.352   1.972  14.895
29595W        W89340   8.874  31.037   3.244
29596W        W89341  27.183  32.588  13.478
29597W        W89342  44.948  42.901   1.780
29598W        W89343  44.269  28.019   1.934
29599W        W89344  30.918  42.373   0.734
29600W        W89345  22.248  24.166  10.436
29601W        W89346  42.464  23.238  13.820
29602W        W89347   5.697  14.238   4.767
29603W        W89348  38.343  19.727  12.003
29604W        W89349  26.169  13.285   4.828
29605W        W89350  16.313  16.633   4.603
29606W        W89351  20.665  23.008   3.246
29607W        W89352  14.749  30.051   0.454
29608W        W89353  14.644  42.942  11.869
29609W        W89354  17.680  12.214  13.025
29610W        W89355  43.865  20.099  10.103
29611W        W89356   5.349   4.400   3.182
29612W        W89357  24.594  42.450  11.558
29613W        W89358  43.333   8.807  11.883
29614W        W89359   0.424   8.191  13.889
29615W        W89360  18.280  33.431  14.968
29616W        W89361  20.236  40.350   2.865
29617W        W89362  29.130  21.644   4.238
29618W        W89363   1.966  11.312   2.776
29619W        W89364  40.004   4.838   3.225
29620W        W89365   2.385   8.389   3.678
29621W        W89366   6.913  22.690  11.124
29622W        W89367  21.067  33.511  12.083
29623W        W89368  33.029  15.216   2.384
29624W        W89369  15.671  17.168   2.683
29625W        W89370  29.102  19.093  11.856
29626W        W89371   5.708  27.121   4.796
29627W        W89372  31.073  44.328   2.309
29628W        W89373  34.000  43.983   3.173
29629W        W89374  22.537   1.802  13.985
29630W        W89375   8.192  43.990   2.270
29631W        W89376  24.709   4.910   2.710
29632W        W89377   8.775  18.663   1.448
29633W        W89378   3.854  16.791   0.432
29634W        W89379  27.163  12.130   4.751
29635W        W89380  25.117  15.217   3.379
29636W        W89381  29.939  25.151   4.340
29637W        W89382  20.758  11.853   3.811
29638W        W89383  39.920  28.182  11.590
29639W        W89384  44.004  24.113   1.250
29640W        W89385  25.496  10.301   4.159
29641W        W89386  34.001  11.810  11.875
29642W        W89387   7.269  23.636  13.016
29643W        W89388  38.557  21.757   1.734
29644W        W89389  43.771  18.578  14.408
29645W        W89390  43.379  35.977   0.901
29646W        W89391  40.456   7.804  14.286
29647W        W89392  21.220  13.271  10.552
29648W        W89393   4.442  42.805   0.854
29649W        W89394  10.210  24.995  12.985
29650W        W89395  25.614  37.392   4.818
29651W        W89396  13.824  26.992   1.313
29652W        W89397   6.236  36.366   0.249
29653W        W89398  20.170  14.644   9.473
29654W        W89399   4.283   0.349  14.340
29655W        W89400   3.347  37.964   9.650
29656W        W89401  24.621  43.279  13.545
29657W        W89402  31.466  29.166   0.278
29658W        W89403  37.040  10.241   2.903
29659W        W89404   9.856   0.745   1.360
29660W        W89405  20.082   0.272   0.344
29661W        W89406  40.923  22.175   0.840
29662W        W89407  17.690  29.622   1.699
29663W        W89408  10.354  19.670  11.013
29664W        W89409  16.177   6.714  12.367
29665W        W89410  27.978  36.960   0.747
29666W        W89411  39.548   7.798   2.677
29667W        W89412  36.443  21.231  10.489
29668W        W89413  18.168  28.939  13.978
29669W        W89414  31.589  23.997  12.972
29670W        W89415   2.824  23.715  11.870
29671W        W89416  41.012  21.083   4.827
29672W        W89417  16.725  22.567  14.466
29673W        W89418  37.507  29.973  13.354
29674W        W89419  35.049  27.585  10.444
29675W        W89420  12.348  37.087   2.206
29676W        W89421  26.132  39.837  13.969
29677W        W89422  31.090  34.947   1.902
29678W        W89423  22.618   4.312   2.219
29679W        W89424  35.531  12.333   2.680
29680W        W89425  21.261  31.897   4.767
29681W        W89426  28.648  15.293  12.401
29682W        W89427  16.568  36.964  13.432
29683W        W89428  22.098  25.647   0.380
29684W        W89429  27.549  14.327   1.794
29685W        W89430  42.295   6.323  13.987
29686W        W89431  41.810  12.826  13.492
29687W        W89432  27.623  27.648   5.776
29688W        W89433  27.973  22.615  14.358
29689W        W89434  11.772  25.485   3.851
29690W        W89435  37.344   7.720   0.927
29691W        W89436  10.227  43.872  14.986
29692W        W89437   9.181  43.363   3.244
29693W        W89438  40.863   9.384  10.555
29694W        W89439  14.203   8.821   2.837
29695W        W89440  42.983  28.052   3.275
29696W        W89441  17.639  32.539  14.847
29697W        W89442  29.589   7.259   1.783
29698W        W89443  39.991  34.560   4.745
29699W        W89444   3.396  17.567   3.766
29700W        W89445  26.174  37.868  11.593
29701W        W89446  37.000  24.034   1.933
29702W        W89447   6.882  15.722  14.354
29703W        W89448  20.637   1.928   1.782
29704W        W89449  16.198   8.840   1.821
29705W        W89450  43.313  32.000   0.385
29706W        W89451  27.465   2.321   2.410
29707W        W89452   6.828  26.135  14.999
29708W        W89453   0.911  29.573  13.891
29709W        W89454   8.834  22.505  10.544
29710W        W89455  39.918  29.020  11.451
29711W        W89456   0.967  43.500   0.953
29712W        W89457  11.138  10.769   4.239
29713W        W89458  24.036  35.581   4.603
29714W        W89459  10.240  21.741   2.843
29715W        W89460  18.753  31.939   2.213
29716W        W89461  42.011  23.568   2.188
29717W        W89462  26.156  18.260   0.327
29718W        W89463   1.905  22.660  13.439
29719W        W89464   8.805   0.828  10.552
29720W        W89465  15.141  34.519   3.243
29721W        W89466  37.933  23.173  10.456
29722W        W89467  23.023  14.139   0.829
29723W        W89468  23.649  42.909   0.483
29724W        W89469  14.170  33.091  11.379
29725W        W89470  17.776  42.864   3.162
29726W        W89471  35.968  12.678  13.884
29727W        W89472  37.508  25.653  14.950
29728W        W89473  34.466  18.210  11.571
29729W        W89474   5.317   8.255   4.761
29730W        W89475  32.943   0.327   4.805
29731W        W89476   3.933  41.981   3.341
29732W        W89477  15.148  13.627   1.831
29733W        W89478  39.903  17.177  14.968
29734W        W89479  11.200  29.121  13.430
29735W        W89480   1.976   5.722   0.828
29736W        W89481  23.662  32.887  10.585
29737W        W89482  15.271  32.992   2.663
29738W        W89483  43.437  30.624   3.305
29739W        W89484  15.214   5.735  14.879
29740W        W89485  39.912  42.846  11.453
29741W        W89486  38.413  34.969  14.985
29742W        W89487  18.580  40.813  13.883
29743W        W89488  33.006  23.132  12.383
29744W        W89489   1.459   9.855  14.506
29745W        W89490   0.413  41.968   2.755
29746W        W89491   5.321  39.819   3.292
29747W        W89492  13.217  29.996  12.570
29748W        W89493  14.716   8.388   2.693
29749W        W89494  21.229   4.326  12.846
29750W        W89495  22.996  16.727   1.443
29751W        W89496  26.068  35.504  13.934
29752W        W89497  26.618  44.883   2.249
29753W        W89498  15.717   7.261  10.118
29754W        W89499  11.773  41.963   1.806
29755W        W89500  20.744   1.472   1.339
29756W        W89501  44.883  13.108   3.383
29757W        W89502  29.638  21.183   0.778
29758W        W89503   2.884  12.249   0.758
29759W        W89504  36.488  21.602  12.089
29760W        W89505   3.458  16.254   4.261
29761W        W89506  34.932   2.865   0.439
29762W        W89507  21.130  40.469  11.129
29763W        W89508  40.824  21.179   1.259
29764W        W89509  21.218  10.238  13.493
29765W        W89510  41.921  39.457  10.990
29766W        W89511  14.287   9.371  14.510
29767W        W89512  20.662   5.256   1.860
29768W        W89513  18.120   0.414   3.722
29769W        W89514  24.586   9.684   0.253
29770W        W89515  39.326  19.057   2.789
29771W        W89516  15.649   3.335   4.297
29772W        W89517  22.103  17.796   1.860
29773W        W89518  15.270  33.976   1.451
29774W        W89519   3.778  40.918   5.083
29775W        W89520  12.224  33.951   2.179
29776W        W89521  18.078  24.670   4.650
29777W        W89522  42.030  44.002   4.147
29778W        W89523  30.544  31.899   0.480
29779W        W89524  43.959  38.530   0.851
29780W        W89525   5.925  19.611  10.008
29781W        W89526  34.969   4.352   4.186
29782W        W89527  17.675  44.798   1.767
29783W        W89528  13.733  25.553  12.518
29784W        W89529   7.338  11.631   2.263
29785W        W89530  44.895  37.391  12.981
29786W        W89531  17.662  41.819  12.354
29787W        W89532  32.895  37.884   2.832
29788W        W89533  40.537  25.630   2.800
29789W        W89534  19.043  33.131  13.912
29790W        W89535   2.455   0.317   1.287
29791W        W89536  42.868  25.685  14.510
29792W        W89537  31.610  25.217   4.223
29793W        W89538   8.729   0.331  13.521
29794W        W89539  12.722  43.349   2.750
29795W        W89540   3.275   7.206  11.874
29796W        W89541  18.242  38.421  12.009
29797W        W89542   7.852  35.917   1.738
29798W        W89543  30.079  16.720  11.532
29799W        W89544  26.961  22.130  12.369
29800W        W89545  26.470  14.595   0.416
29801W        W89546   2.361  15.729  10.029
29802W        W89547  44.843  13.705   1.762
29803W        W89548  36.367  39.983  10.904
29804W        W89549  30.916   3.350   4.641
29805W        W89550  11.860  11.756  10.592
29806W        W89551  24.138  35.381   2.258
29807W        W89552  35.601   0.327   2.854
29808W        W89553  11.843  38.562  13.373
29809W        W89554  37.984  33.974  10.638
29810W        W89555  12.165  41.411  12.565
29811W        W89556  37.347   4.414   4.689
29812W        W89557  29.932  24.219   0.916
29813W        W89558   9.243  13.779  10.614
29814W        W89559  14.591  18.104  14.823
29815W        W89560  13.231  15.797  13.836
29816W        W89561  27.455  28.669   1.360
29817W        W89562   6.330  20.272   4.637
29818W        W89563  15.149   9.170   3.837
29819W        W89564  30.447  34.379  11.979
29820W        W89565  28.652  41.997  11.374
29821W        W89566  36.856  41.969   2.308
29822W        W89567  42.966  40.481   3.366
29823W        W89568   7.745   1.918  13.340
29824W        W89569   9.289  35.095   2.362
29825W        W89570  10.280  31.604   2.886
29826W        W89571  35.425  15.308   4.617
29827W        W89572  20.117  31.478  14.907
29828W        W89573   4.877  14.665   2.307
29829W        W89574   9.295  15.197   1.247
29830W        W89575  40.303   7.183   2.699
29831W        W89576  25.536   5.853   2.845
29832W        W89577   5.394  38.992   4.133
29833W        W89578  33.554  37.945  13.494
29834W        W89579   5.891  38.939   1.338
29835W        W89580  16.737  14.119   3.645
29836W        W89581  40.882  18.581  13.816
29837W        W89582  14.700  17.753   2.273
29838W        W89583   2.247  15.157   4.742
29839W        W89584  42.969  34.062   0.415
29840W        W89585   7.220  39.439   2.856
29841W        W89586   0.822  21.158  14.032
29842W        W89587  42.299  21.088  11.049
29843W        W89588  14.621  25.675  14.785
29844W        W89589   0.490  13.313  10.406
29845W        W89590  30.579   7.187   4.200
29846W        W89591  20.226  33.929   4.807
29847W        W89592  25.697  28.102  11.413
29848W        W89593  17.659   1.276  14.918
29849W        W89594  37.479  24.628   1.318
29850W        W89595   9.829   0.813  12.034
29851W        W89596  15.111  17.666   4.289
29852W        W89597  24.069  20.056  14.974
29853W        W89598  44.453  21.087  13.393
29854W        W89599  32.404   3.393   0.294
29855W        W89600  31.057  26.520   2.215
29856W        W89601   8.809  30.428   2.693
29857W        W89602   8.765   6.254  14.911
29858W        W89603   4.258  20.706  11.421
29859W        W89604  21.051  27.161   4.647
29860W        W89605   1.349   7.895   0.960
29861W        W89606  28.048  12.812   0.902
29862W        W89607  24.509  13.187   0.315
29863W        W89608  29.160  25.637  10.478
29864W        W89609  44.866   6.801  11.526
29865W        W89610  16.762  17.561  12.425
29866W        W89611  16.110  38.466  14.818
29867W        W89612  34.506  26.657   2.762
29868W        W89613  12.225   9.236   1.841
29869W        W89614  17.646  16.733   4.605
29870W        W89615  11.166  32.961  13.388
29871W        W89616  36.523  36.062   3.289
29872W        W89617  12.851  30.159  14.025
29873W        W89618   8.746  44.416  13.824
29874W        W89619  27.518  37.391  14.786
29875W        W89620  37.436   0.891   3.340
29876W        W89621  28.642  12.165   3.383
29877W        W89622   1.392  39.954  10.422
29878W        W89623  37.904  38.380   4.769
29879W        W89624   2.446  35.046  13.895
29880W        W89625  15.675  34.969   1.854
29881W        W89626  35.573  25.133   1.756
29882W        W89627  27.947  26.100  12.904
29883W        W89628  13.675  27.185  11.939
29884W        W89629  30.994  34.927  11.496
29885W        W89630  43.860   0.989   0.810
29886W        W89631  38.422  42.025   3.631
29887W        W89632  21.255   5.853  13.985
29888W        W89633  21.541  37.896  14.490
29889W        W89634  24.629  37.511   0.814
29890W        W89635  19.054  37.877   3.151
29891W        W89636  10.772   0.404  14.819
29892W        W89637  22.573  32.126   1.823
29893W        W89638  29.633   3.275  11.122
29894W        W89639  42.396  30.519   2.725
29895W        W89640  44.309  13.333  11.107
29896W        W89641  16.623   5.227   1.811
29897W        W89642  18.729  28.675  12.520
29898W        W89643  34.027  19.569  11.510
29899W        W89644  19.559   7.808   4.282
29900W        W89645  41.409  34.529   4.732
29901W        W89646  30.568  41.421  12.080
29902W        W89647  36.881  30.157   3.238
29903W        W89648   8.707  22.634  12.506
29904W        W89649  13.340  11.828  10.636
29905W        W89650  18.646   3.358   1.356
29906W        W89651  19.607  24.974  13.796
29907W        W89652   7.382  13.304  10.433
29908W        W89653  32.922   1.482  14.939
29909W        W89654  15.184  26.983  14.357
29910W        W89655  22.718  33.957  11.984
29911W        W89656  25.534   5.806   1.409
29912W        W89657  40.376  24.588   1.326
29913W        W89658  38.479  33.965   3.755
29914W        W89659  36.986  10.318  11.545
29915W        W89660  35.974  32.975   4.216
29916W        W89661  40.919  38.036  11.060
29917W        W89662  38.388  44.755  14.509
29918W        W89663  37.842  38.841   1.417
29919W        W89664   6.739  13.744   0.280
29920W        W89665  20.095  28.608   3.321
29921W        W89666  22.741   6.234   2.887
29922W        W89667  34.515  18.244  14.420
29923W        W89668  38.370  15.597   3.746
29924W        W89669  43.931  28.993  14.772
29925W        W89670  44.955  20.253   4.748
29926W        W89671  27.033  19.225  10.465
29927W        W89672  44.946  15.789   0.304
29928W        W89673  29.085  22.121   9.472
29929W        W89674  25.045  22.576   3.652
29930W        W89675   1.387  32.424  14.398
29931W        W89676  24.102  20.687   3.336
29932W        W89677  32.053  12.326   3.716
29933W        W89678   6.726  11.218  13.323
29934W        W89679  24.993  15.085  14.381
29935W        W89680  14.665   8.679   3.288
29936W        W89681  31.557  36.579   2.775
29937W        W89682   1.825  42.438   4.289
29938W        W89683  18.195  13.261  10.615
29939W        W89684  38.405   3.773  13.533
29940W        W89685  19.618  28.172  12.047
29941W        W89686  15.765   0.479   2.676
29942W        W89687  40.536  26.602   3.315
29943W        W89688   7.279   4.830  10.902
29944W        W89689   8.355  36.850  13.970
29945W        W89690  25.962  13.193   0.823
29946W        W89691  19.270   7.399  13.502
29947W        W89692  19.706  41.002  12.439
29948W        W89693  28.664  19.763  12.047
29949W        W89694  39.369  32.464  11.017
29950W        W89695  35.002   3.243   5.270
29951W        W89696  18.283  41.959  12.534
29952W        W89697  20.717   8.877   0.796
29953W        W89698  10.672   8.712   4.352
29954W        W89699  21.626  32.537   4.633
29955W        W89700  34.992   3.799  13.382
29956W        W89701   3.842  16.779   1.346
29957W        W89702  38.996  28.537  14.371
29958W        W89703  23.503  19.571   4.815
29959W        W89704  21.698  13.255   1.426
29960W        W89705  28.004   7.722  11.472
29961W        W89706  27.658  44.294  13.392
29962W        W89707   9.224   8.791  13.492
29963W        W89708  22.112  25.645  12.071
29964W        W89709   1.371   6.356  14.010
29965W        W89710  17.176  25.126   1.863
29966W        W89711  21.589  33.996  11.915
29967W        W89712  38.329  36.517  10.924
29968W        W89713  34.048  29.999  10.048
29969W        W89714  37.937  24.053  11.440
29970W        W89715   2.894  27.943   0.824
29971W        W89716   3.303  33.428  11.042
29972W        W89717  42.854  44.854  10.421
29973W        W89718  37.837  22.623  11.542
29974W        W89719   1.277   3.856  12.046
29975W        W89720  11.142  35.012  11.912
29976W        W89721  28.557  42.799  12.905
29977W        W89722  12.198   2.313  11.611
29978W        W89723  36.421  40.869   2.845
29979W        W89724  12.801  39.829  11.384
29980W        W89725  21.135  32.473   2.243
29981W        W89726   0.248  14.141  11.964
29982W        W89727  18.627  25.505   3.189
29983W        W89728  37.836  42.011  11.951
29984W        W89729   6.739   0.361  14.790
29985W        W89730   6.705  26.079  12.492
29986W        W89731   4.880  14.706  11.074
29987W        W89732   4.866  30.972  14.926
29988W        W89733  39.488  33.449   0.798
29989W        W89734  25.636  38.459   4.193
29990W        W89735  36.915  39.878  10.516
29991W        W89736  30.432  23.196  10.905
29992W        W89737  15.217  44.994   3.290
29993W        W89738  23.148   5.401  13.831
29994W        W89739  36.375   8.675   2.261
29995W        W89740   7.861  20.135  10.630
29996W        W89741   9.239  18.153   1.237
29997W        W89742  38.327  20.270  13.026
29998W        W89743  32.400  35.083  10.014
29999W        W89744  17.189  31.052  11.021
30000W        W89745  35.569  41.896   2.787
30001W        W89746  14.329  35.591   3.695
30002W        W89747  20.234  22.512  14.978
30003W        W89748  13.765  11.806   2.761
30004W        W89749  39.001  35.054  13.350
30005W        W89750   3.313  41.807   4.241
30006W        W89751  41.942  19.218   3.153
30007W        W89752  25.030  11.181  11.874
30008W        W89753   5.244  10.180  14.021
30009W        W89754   1.281  35.560   4.704
30010W        W89755  33.567  25.584  14.347
30011W        W89756   3.883  10.206  11.076
30012W        W89757  21.605  44.870  14.478
30013W        W89758  23.210  24.632  12.986
30014W        W89759  20.228  37.522  10.541
30015W        W89760  28.484   5.863   2.400
30016W        W89761  44.907   0.383  13.544
30017W        W89762  34.469  44.767   1.704
30018W        W89763  37.895   1.361  14.893
30019W        W89764  29.448  11.259  12.485
30020W        W89765   2.342  16.650   1.294
30021W        W89766  16.745  29.958  12.854
30022W        W89767  12.675  29.010   0.927
30023W        W89768  17.143  27.675  13.317
30024W        W89769  14.608  29.970  13.502
30025W        W89770  20.747  37.886  10.582
30026W        W89771  42.314  11.707  12.422
30027W        W89772  19.132  36.936  12.371
30028W        W89773  25.706  12.842   3.668
30029W        W89774  26.631  21.040  11.469
30030W        W89775  15.719  10.293  14.350
30031W        W89776  33.062  12.691   4.353
30032W        W89777  37.413   1.761  13.801
30033W        W89778  30.994  28.123  12.840
30034W        W89779  30.038  10.728  11.972
30035W        W89780  13.614  12.232   1.443
30036W        W89781  37.377   8.814  10.490
30037W        W89782  17.613  11.331  11.414
30038W        W89783   6.876   2.407  13.978
30039W        W89784  22.661  25.695   4.631
30040W        W89785  41.844  19.571  12.015
30041W        W89786  28.670  39.361  11.556
30042W        W89787  40.005  16.236  11.389
30043W        W89788  26.067  25.686  13.519
30044W        W89789  23.615   1.257  12.487
30045W        W89790  41.430  40.438  12.992
30046W        W89791  25.212  29.098   9.929
30047W        W89792   2.408  11.285  13.824
30048W        W89793  22.041  35.871  10.417
30049W        W89794  24.223  38.382   0.834
30050W        W89795   2.436   1.973   1.304
30051W        W89796  18.061   2.894  11.993
30052W        W89797  28.490  18.124  12.372
30053W        W89798  42.867  30.459   3.264
30054W        W89799  35.584  30.585  14.004
30055W        W89800  28.943  18.269  12.996
30056W        W89801   4.718  17.740  12.485
30057W        W89802  16.803  13.163   4.786
30058W        W89803  27.489  40.350  11.920
30059W        W89804  42.507  21.146  13.024
30060W        W89805  16.226  25.023  14.431
30061W        W89806  37.496  36.570  11.866
30062W        W89807  16.127  25.131  12.976
30063W        W89808  38.529   1.898  14.356
30064W        W89809  20.184  19.198   3.194
30065W        W89810   8.810  38.504  13.531
30066W        W89811  16.655  31.032  12.939
30067W        W89812   2.903   6.805   3.288
30068W        W89813   9.311  30.486   4.617
30069W        W89814  44.504  20.102   1.278
30070W        W89815   5.436  19.589   3.322
30071W        W89816   3.784  17.620   0.380
30072W        W89817  26.657  29.148  11.088
30073W        W89818  27.072   3.735   2.849
30074W        W89819  16.716  39.025  12.004
30075W        W89820  37.403  36.472   1.285
30076W        W89821  35.097  25.177   0.885
30077W        W89822  35.403  18.123  13.461
30078W        W89823  31.583  26.039   3.750
30079W        W89824   4.209   8.373   2.310
30080W        W89825   7.900   9.373  10.452
30081W        W89826  28.946  10.215  13.416
30082W        W89827  25.489   0.971   1.818
30083W        W89828   6.806  16.104  11.563
30084W        W89829   6.362   6.238  13.887
30085W        W89830  22.015   0.464  14.375
30086W        W89831  29.147  28.668   4.217
30087W        W89832  39.815  43.290  10.951
30088W        W89833   4.846   0.315   1.808
30089W        W89834  41.461  12.649   4.325
30090W        W89835  28.018  30.157  13.000
30091W        W89836  35.532  22.203  10.574
30092W        W89837  43.785  36.068  10.432
30093W        W89838  29.099  40.399  11.013
30094W        W89839  14.116  32.069   0.883
30095W        W89840   1.899   9.700  13.884
30096W        W89841  23.078  20.768  13.874
30097W        W89842  18.050   8.236  11.608
30098W        W89843  29.964  40.037   1.732
30099W        W89844  33.041  17.161   4.186
30100W        W89845  15.821   2.920   1.744
30101W        W89846  41.950  10.783   0.355
30102W        W89847  18.271  26.073  13.374
30103W        W89848  41.381  25.486   2.744
30104W        W89849  26.096  21.581   1.341
30105W        W89850   3.951   8.781   0.465
30106W        W89851  11.672  19.596   0.402
30107W        W89852   2.298  38.449  14.799
30108W        W89853  26.081  44.352  10.536
30109W        W89854  38.825  44.406  13.473
30110W        W89855  40.963  25.535   2.237
30111W        W89856  21.628  37.848  12.925
30112W        W89857   3.743   2.720  11.371
30113W        W89858   5.688  39.485   1.878
30114W        W89859   6.832  34.607   1.210
30115W        W89860   4.712   9.274   3.282
30116W        W89861  42.994  26.141  11.457
30117W        W89862  10.318  32.479  14.935
30118W        W89863  38.426  25.561  12.952
30119W        W89864  10.749  16.242   3.185
30120W        W89865  25.524   0.382  14.465
30121W        W89866  25.161  13.730   0.739
30122W        W89867  41.470   1.909   2.751
30123W        W89868   9.712  39.503   2.810
30124W        W89869  17.233  12.656   2.757
30125W        W89870  35.536  16.099   0.830
30126W        W89871  36.348   4.805  13.369
30127W        W89872  24.092  16.085   0.820
30128W        W89873  16.771  37.840  13.508
30129W        W89874   2.904  13.804   0.322
30130W        W89875  11.651  18.652   4.801
30131W        W89876  40.337  23.556   3.170
30132W        W89877  11.765  30.636  14.830
30133W        W89878   4.761  33.565  14.760
30134W        W89879  29.554  16.710  11.991
30135W        W89880   0.842  44.410   4.817
30136W        W89881  27.130  41.446   0.929
30137W        W89882   8.893  13.732   1.281
30138W        W89883  11.839  34.102  13.032
30139W        W89884  25.517  18.120  14.855
30140W        W89885  14.809  21.558   2.844
30141W        W89886   4.406  15.096  11.549
30142W        W89887  22.061   4.331   5.127
30143W        W89888  24.118  19.132   1.302
30144W        W89889  36.514  20.661   4.722
30145W        W89890  26.532  25.156   3.272
30146W        W89891   8.803  42.468  11.878
30147W        W89892  43.861   0.898  13.339
30148W        W89893   0.941  11.779   3.798
30149W        W89894   2.228  40.377  12.075
30150W        W89895  37.474   2.370  11.081
30151W        W89896  23.184   9.335  14.478
30152W        W89897  18.732   0.891  10.902
30153W        W89898  41.898  15.717  14.345
30154W        W89899  12.841  21.047  10.565
30155W        W89900  14.146  12.719   4.292
30156W        W89901  35.531  39.445   1.863
30157W        W89902  29.549  13.118   2.229
30158W        W89903  43.969   6.799   2.892
30159W        W89904  28.174  33.440   2.844
30160W        W89905  18.760  39.864  13.820
30161W        W89906  27.488  36.039   0.731
30162W        W89907  29.527  12.259   4.624
30163W        W89908  13.673  14.208   4.222
30164W        W89909  43.314  37.382  10.002
30165W        W89910  12.643  36.055  11.966
30166W        W89911  38.327   9.375  10.410
30167W        W89912  38.870  34.996  11.025
30168W        W89913  12.195  35.445   1.829
30169W        W89914  30.029  35.448   1.773
30170W        W89915  29.019  21.072   5.118
30171W        W89916  25.166  31.069   0.319
30172W        W89917  20.716  31.514   2.346
30173W        W89918  25.116   6.793   2.889
30174W        W89919  28.944  38.867  10.639
30175W        W89920  38.023   5.709  10.538
30176W        W89921   3.876  38.980  11.054
30177W        W89922  26.085  42.334   1.374
30178W        W89923  24.507  17.637   1.926
30179W        W89924   3.221  27.531  11.073
30180W        W89925  14.650  19.741   4.157
30181W        W89926   5.324  13.799  12.510
30182W        W89927   1.385   2.246  12.517
30183W        W89928  16.253  11.793   2.381
30184W        W89929  25.554   7.749   0.921
30185W        W89930  39.920  36.928   1.224
30186W        W89931  36.387   8.236   4.265
30187W        W89932  16.745  32.448  13.441
30188W        W89933   8.671  32.509  11.095
30189W        W89934  36.401  17.625   9.677
30190W        W89935   3.254   0.434   4.151
30191W        W89936   4.942  43.865   2.408
30192W        W89937  20.743   2.869  14.032
30193W        W89938  23.627  14.749  11.533
30194W        W89939  32.006   7.263  12.434
30195W        W89940  30.047  22.519   3.706
30196W        W89941  40.413  10.230  12.457
30197W        W89942  15.179  22.132   1.287
30198W        W89943   5.334  35.084   4.118
30199W        W89944  28.031  25.041   3.700
30200W        W89945  42.940  27.472  13.397
30201W        W89946  24.522  36.490  14.765
30202W        W89947   8.696  21.249   0.410
30203W        W89948  23.690  41.339  13.389
30204W        W89949  26.479  22.735  11.977
30205W        W89950  25.076   6.407   1.442
30206W        W89951  10.201  23.195   4.352
30207W        W89952  36.079  40.515   4.655
30208W        W89953  22.006  34.077   0.767
30209W        W89954   3.348  25.664   4.293
30210W        W89955  42.856  37.861   1.314
30211W        W89956  10.171   9.387  13.817
30212W        W89957  32.495  15.651   1.230
30213W        W89958  30.432   1.896  12.344
30214W        W89959  16.780   2.384  14.922
30215W        W89960  33.522   9.645   3.790
30216W        W89961  11.781   6.391   3.847
30217W        W89962  22.067  14.243   1.931
30218W        W89963  43.367  32.137  11.397
30219W        W89964  20.709  44.006   2.795
30220W        W89965   0.946  32.637  12.447
30221W        W89966   6.774  21.125  14.980
30222W        W89967   8.719  29.931   4.280
30223W        W89968  33.410  42.346   3.281
30224W        W89969   5.358  20.754  11.550
30225W        W89970  20.074   8.363  14.348
30226W        W89971  36.576  26.697   1.251
30227W        W89972  40.988   1.302   3.307
30228W        W89973  37.368  35.446  11.424
30229W        W89974  41.950   9.819   0.354
30230W        W89975   1.852  36.860  13.400
30231W        W89976   4.329  25.548   0.293
30232W        W89977  40.470  43.873   2.246
30233W        W89978  20.252  17.114   3.289
30234W        W89979  22.015   6.725  13.049
30235W        W89980  14.624  41.919  14.007
30236W        W89981  28.011   1.375   3.740
30237W        W89982  13.679  23.237   2.902
30238W        W89983  29.918   3.792   0.836
30239W        W89984   4.341  34.565  10.921
30240W        W89985  15.165  38.450   2.280
30241W        W89986   4.369   4.288  14.772
30242W        W89987  34.899  11.302   3.631
30243W        W89988  30.562  22.097  10.481
30244W        W89989   2.922   7.263   1.318
30245W        W89990  10.731  27.453  13.330
30246W        W89991  35.880  28.536   4.616
30247W        W89992  17.666  31.005   3.849
30248W        W89993  43.800  35.098   3.321
30249W        W89994  30.072  12.761  14.954
30250W        W89995   8.181   2.907   3.853
30251W        W89996  35.432  24.974   0.274
30252W        W89997  44.440  14.094   1.740
30253W        W89998  23.718  33.017  14.891
30254W        W89999  31.441   5.830   5.272
30255W        W90000  10.382  25.534  11.049
30256W        W90001  41.851  32.490   3.290
30257W        W90002   8.662  35.567   3.145
30258W        W90003   7.853  32.556  12.572
30259W        W90004   2.887  39.333  13.406
30260W        W90005  11.305   0.352   0.424
30261W        W90006  38.993  20.270  13.826
30262W        W90007   6.795  34.568  14.861
30263W        W90008  24.151  21.145   3.245
30264W        W90009  23.097  10.234  14.295
30265W        W90010  16.792   7.346  14.298
30266W        W90011  17.211   8.686  13.990
30267W        W90012  18.728  28.465   3.381
30268W        W90013  29.574  22.693   4.140
30269W        W90014  33.951  17.100   1.348
30270W        W90015  27.592  18.175   4.827
30271W        W90016  29.583  19.769   1.426
30272W        W90017   7.395  24.587  12.441
30273W        W90018  18.268  36.564   3.638
30274W        W90019   3.394  12.641   0.728
30275W        W90020   2.740  20.236   5.082
30276W        W90021  33.952  24.152   4.232
30277W        W90022   0.449  12.779  10.549
30278W        W90023  26.535  26.181  11.970
30279W        W90024  16.656  32.081  14.495
30280W        W90025  22.051  34.912  10.007
30281W        W90026  37.574  30.502  13.510
30282W        W90027  44.315  17.188  11.948
30283W        W90028  29.583  17.602   0.448
30284W        W90029  41.821   6.874   0.770
30285W        W90030   8.175  39.479   1.807
30286W        W90031  22.194  10.294  13.809
30287W        W90032  41.909  44.864   4.131
30288W        W90033   0.819  30.593  13.063
30289W        W90034   1.461   5.380  10.534
30290W        W90035  42.381  31.985  10.433
30291W        W90036  27.144  19.605   3.276
30292W        W90037  25.601   2.865   0.963
30293W        W90038   5.334  40.053   4.755
30294W        W90039  32.449   7.812  13.511
30295W        W90040  41.354  13.755  13.020
30296W        W90041  28.624  20.243   2.731
30297W        W90042  31.441  41.309   1.360
30298W        W90043  12.694  17.268  13.984
30299W        W90044   3.332  34.538   0.750
30300W        W90045  33.116  29.939  13.011
30301W        W90046   8.309   0.392  10.996
30302W        W90047  30.439   2.908  14.287
30303W        W90048  18.167  10.729   0.904
30304W        W90049  30.080  44.786   2.729
30305W        W90050  13.106  18.571  11.896
30306W        W90051   7.828  34.528  11.094
30307W        W90052  28.028  39.946   0.952
30308W        W90053  20.269   0.899  14.285
30309W        W90054   1.766  39.527  12.928
30310W        W90055   8.330   6.919  11.943
30311W        W90056   0.875   6.367   0.392
30312W        W90057  18.235  20.160   4.623
30313W        W90058  27.118  26.038  11.117
30314W        W90059   6.300  35.079  10.564
30315W        W90060  42.508  20.763   3.804
30316W        W90061   5.707  31.012  12.032
30317W        W90062  21.155  28.468   1.788
30318W        W90063  39.987  38.954  13.906
30319W        W90064   7.194  36.031   2.214
30320W        W90065   7.220  41.425  12.436
30321W        W90066   8.775   4.235  12.457
30322W        W90067   4.700  39.522  13.367
30323W        W90068  28.024  37.521  10.019
30324W        W90069   2.950  44.964  11.431
30325W        W90070  31.993  15.717   0.334
30326W        W90071  29.125  37.573  13.926
30327W        W90072  13.115  23.992  12.372
30328W        W90073  39.922   3.787   3.787
30329W        W90074  24.720   8.286   2.852
30330W        W90075  11.634  32.903   4.777
30331W        W90076  25.986  41.464  12.951
30332W        W90077  40.533  17.572   0.354
30333W        W90078  16.086  43.464  13.910
30334W        W90079   7.341  15.703  12.004
30335W        W90080  23.044  10.851  13.966
30336W        W90081   1.283  19.728  13.929
30337W        W90082   4.225  27.452   3.376
30338W        W90083  28.660  33.457  14.938
30339W        W90084  44.887  28.609   2.303
30340W        W90085  12.195  32.021   1.407
30341W        W90086  12.761  11.353  10.461
30342W        W90087  28.172   6.283  11.901
30343W        W90088  20.155  22.175  11.949
30344W        W90089  23.512  19.214   1.889
30345W        W90090  23.549  44.909   1.930
30346W        W90091  38.390  41.906  13.006
30347W        W90092  24.152  36.944  14.385
30348W        W90093  39.921  37.581  11.857
30349W        W90094  18.184  14.209  13.374
30350W        W90095  14.192   7.239  11.447
30351W        W90096  15.585   6.427  14.419
30352W        W90097   2.250  12.645  10.439
30353W        W90098  37.983  36.353  14.290
30354W        W90099  31.444  15.201   1.708
30355W        W90100   9.345  12.611   1.259
30356W        W90101  24.637   2.276  10.603
30357W        W90102  21.651  23.521  11.936
30358W        W90103  28.675   6.386  13.820
30359W        W90104  24.011   8.763  12.059
30360W        W90105  11.850  34.502  13.006
30361W        W90106   0.401  14.337   4.133
30362W        W90107  39.964   8.729  13.815
30363W        W90108   0.782  15.623   3.362
30364W        W90109  41.982  12.831  10.518
30365W        W90110  38.563  38.825   0.874
30366W        W90111  40.903  30.625   4.256
30367W        W90112  38.906  35.023   0.470
30368W        W90113  32.960  36.954   2.876
30369W        W90114   8.799  14.285  11.079
30370W        W90115  30.433  40.896   3.845
30371W        W90116   5.215  41.840   2.715
30372W        W90117  28.112  31.647   0.797
30373W        W90118  30.155   3.837  13.943
30374W        W90119  24.667  15.683  13.497
30375W        W90120   9.746   4.826   4.817
30376W        W90121  39.931  34.045  12.971
30377W        W90122  28.528  28.569  13.950
30378W        W90123   7.910  44.345   4.831
30379W        W90124  36.098  36.031  11.443
30380W        W90125  42.915   5.736   2.753
30381W        W90126  12.205  19.223   3.700
30382W        W90127  42.799  17.090  14.806
30383W        W90128  31.583   2.411   4.202
30384W        W90129  26.065  40.529  10.926
30385W        W90130   8.733  14.614   3.639
30386W        W90131  29.084  17.229  13.381
30387W        W90132  28.457  20.124  14.493
30388W        W90133  10.833  44.468  10.641
30389W        W90134  30.447  11.736  10.474
30390W        W90135   3.304   6.414  14.886
30391W        W90136   8.774  31.076  13.491
30392W        W90137  39.491   4.864   4.665
30393W        W90138  18.082   4.362  12.839
30394W        W90139   6.833   8.220   4.259
30395W        W90140   1.363   7.233   0.248
30396W        W90141   9.843  26.131   3.223
30397W        W90142   6.761   1.797  10.418
30398W        W90143   8.699   2.380   3.689
30399W        W90144  19.133  22.174  10.582
30400W        W90145   6.897  36.392  11.509
30401W        W90146  15.157  30.001   0.896
30402W        W90147  39.822  33.436   1.314
30403W        W90148  41.976   5.374   1.752
30404W        W90149  34.023   4.748  12.547
30405W        W90150  38.913  18.709  13.482
30406W        W90151  28.165  11.278   3.789
30407W        W90152  19.706  42.970   5.245
30408W        W90153  35.412  44.894   1.319
30409W        W90154  28.595  28.096  10.460
30410W        W90155  30.419  28.450   1.917
30411W        W90156   3.883   8.284  13.014
30412W        W90157  23.164  40.844  12.340
30413W        W90158  26.621  11.147   2.844
30414W        W90159  41.299  12.771  14.347
30415W        W90160   3.728   0.424  12.032
30416W        W90161  29.469  37.999  13.055
30417W        W90162  32.078  14.740  12.966
30418W        W90163  42.013  23.069   0.882
30419W        W90164  41.478  27.452   1.409
30420W        W90165   7.312   7.375  12.833
30421W        W90166  18.141  23.666   1.933
30422W        W90167  29.970   3.886   2.683
30423W        W90168  20.252  11.714  12.087
30424W        W90169   4.234   9.291   1.300
30425W        W90170  21.200   4.310   0.791
30426W        W90171  21.121   4.218  10.955
30427W        W90172  34.977  26.001   0.800
30428W        W90173  38.914  44.874   2.795
30429W        W90174  41.941  12.772   1.768
30430W        W90175   9.764  30.593   1.295
30431W        W90176  17.669  34.995   1.818
30432W        W90177  28.679  30.593  11.042
30433W        W90178  15.679  22.541   2.300
30434W        W90179  36.578   2.458   1.308
30435W        W90180   3.417  14.589  14.766
30436W        W90181  42.355  19.590   2.316
30437W        W90182  16.149  27.508   1.446
30438W        W90183  33.571  25.141   0.295
30439W        W90184  24.683   4.821   3.189
30440W        W90185  17.103  16.078  10.557
30441W        W90186  12.147  12.676   2.220
30442W        W90187  19.162  32.478   2.702
30443W        W90188   9.232  43.995  13.895
30444W        W90189  33.432   6.908   4.685
30445W        W90190  29.479  21.596   0.321
30446W        W90191  38.445   8.656  10.974
30447W        W90192  30.658  41.421  11.540
30448W        W90193  18.594  31.972   5.109
30449W        W90194  32.400  28.647   4.740
30450W        W90195  16.600  34.029   2.803
30451W        W90196  44.947  37.402   0.850
30452W        W90197   2.234  43.313   3.185
30453W        W90198  19.714  10.804   3.164
30454W        W90199   0.829  19.761  12.951
30455W        W90200  37.917  28.639  11.118
30456W        W90201  13.183  33.419   3.277
30457W        W90202  15.124  37.476  12.357
30458W        W90203   3.896  14.181   3.653
30459W        W90204  41.489  35.357  12.993
30460W        W90205  21.740  29.433  12.839
30461W        W90206   2.793  43.285  12.919
30462W        W90207  41.416  44.780   2.844
30463W        W90208  30.512  10.774   3.866
30464W        W90209   1.766  14.099   2.676
30465W        W90210   5.210  28.092   0.851
30466W        W90211  31.406  29.999   3.165
30467W        W90212  33.109   1.315   2.739
30468W        W90213   1.468  33.620   2.317
30469W        W90214  11.754   0.794   1.821
30470W        W90215   1.807  28.569   2.742
30471W        W90216   7.880  29.113  10.610
30472W        W90217  19.774  24.023   4.128
30473W        W90218   5.743  14.729  12.399
30474W        W90219  35.484  44.355   4.802
30475W        W90220  44.972   4.207  13.000
30476W        W90221   6.740  32.525   2.336
30477W        W90222   0.815  24.086   1.838
30478W        W90223  27.548   7.313   0.768
30479W        W90224  36.483  39.002  13.884
30480W        W90225  11.836  17.130   0.747
30481W        W90226  40.053   1.365  14.464
30482W        W90227   4.718  33.559  10.035
30483W        W90228  16.621   2.440   0.272
30484W        W90229  42.283  22.022   1.796
30485W        W90230  15.229  30.529   1.844
30486W        W90231  33.527  10.819  10.550
30487W        W90232  16.810   6.370   1.696
30488W        W90233  33.031  22.593  12.051
30489W        W90234  32.898   7.379   0.264
30490W        W90235  35.908  36.865   1.414
30491W        W90236  22.175  23.038  12.506
30492W        W90237  27.509   4.389  11.555
30493W        W90238  42.506  30.960   2.674
30494W        W90239  37.499   4.911  13.517
30495W        W90240   7.212   6.404  11.106
30496W        W90241  41.489  44.798  11.595
30497W        W90242  27.161  44.961  14.808
30498W        W90243  37.855  13.829  11.096
30499W        W90244  18.087  18.622  10.470
30500W        W90245  17.227   9.205  10.532
30501W        W90246   0.978  21.662  13.860
30502W        W90247  28.626  37.837   0.960
30503W        W90248  13.117  32.914  10.508
30504W        W90249  29.078  12.265   4.353
30505W        W90250  16.732  14.765  11.970
30506W        W90251  39.007  33.395   4.333
30507W        W90252  25.013  23.623  12.035
30508W        W90253  25.555  22.016   1.276
30509W        W90254  43.413  38.071  11.014
30510W        W90255  30.020  20.679   3.243
30511W        W90256   8.219  41.406  14.976
30512W        W90257   9.282   9.882   1.773
30513W        W90258   6.853  39.328  13.802
30514W        W90259  31.132   7.876   4.141
30515W        W90260  35.897  29.630  10.409
30516W        W90261  37.960  11.678  10.601
30517W        W90262  39.398   3.224  10.898
30518W        W90263  33.564  40.001  13.824
30519W        W90264  21.025  41.516   1.334
30520W        W90265  28.169  23.621   4.816
30521W        W90266  40.932  44.279  12.824
30522W        W90267  33.926  38.509   3.833
30523W        W90268   0.431  41.475   3.809
30524W        W90269   0.804  36.084   2.205
30525W        W90270   2.333  43.290  13.508
30526W        W90271  10.680   5.803   0.929
30527W        W90272  12.652  16.138   3.336
30528W        W90273   6.693  30.616  12.872
30529W        W90274  28.081  18.763   4.329
30530W        W90275  43.473  27.084  11.956
30531W        W90276  12.806   1.309   1.368
30532W        W90277  23.073   1.447  13.899
30533W        W90278  15.231  23.711  13.819
30534W        W90279  44.966   5.345   3.787
30535W        W90280   6.802  27.124  13.319
30536W        W90281  31.037   4.227  13.542
30537W        W90282   2.804  28.131  13.906
30538W        W90283  33.536  44.364   4.665
30539W        W90284   4.868  38.922  12.889
30540W        W90285  20.666   3.220  12.386
30541W        W90286  23.709  12.117  10.978
30542W        W90287  32.520  15.177   0.907
30543W        W90288  36.086   1.808  13.324
30544W        W90289  39.890  21.577  13.059
30545W        W90290  24.121  40.021   3.645
30546W        W90291  13.264  35.383   3.276
30547W        W90292  33.461  19.594   3.304
30548W        W90293  42.800   4.735   1.348
30549W        W90294  37.543  22.213  12.382
30550W        W90295   5.925  20.656   2.199
30551W        W90296  41.792  44.870  13.975
30552W        W90297   9.679  35.549  10.996
30553W        W90298  41.414  12.721  14.862
30554W        W90299  35.396  29.593   0.867
30555W        W90300  30.537  37.870   3.380
30556W        W90301  19.600   0.985   1.292
30557W        W90302  39.988  40.421  12.367
30558W        W90303  32.055  35.519  10.533
30559W        W90304  26.152  11.787   3.641
30560W        W90305  38.564  13.351   0.465
30561W        W90306  15.120   0.464  12.537
30562W        W90307  27.521  27.153   1.889
30563W        W90308  29.114  44.424   3.767
30564W        W90309  29.512   4.241  12.968
30565W        W90310  21.547  39.317  10.601
30566W        W90311  18.785  24.641  12.388
30567W        W90312  20.082  26.497  10.979
30568W        W90313  23.724  37.034  11.560
30569W        W90314  19.662  24.563  12.352
30570W        W90315   8.895  14.721  10.956
30571W        W90316  36.052  41.420  12.873
30572W        W90317  23.735  38.872  10.951
30573W        W90318  23.018  24.616   0.418
30574W        W90319   9.794  15.165   1.770
30575W        W90320  14.800  10.306  13.986
30576W        W90321  29.463  12.696  11.965
30577W        W90322  16.187  33.607  14.366
30578W        W90323   9.673  41.477   0.360
30579W        W90324  18.081  40.363  12.828
30580W        W90325  15.128  42.347   3.167
30581W        W90326   3.322  38.452  11.562
30582W        W90327  18.790   6.904  11.976
30583W        W90328  26.159  23.675   0.475
30584W        W90329  40.914   7.171  11.388
30585W        W90330  21.747  25.078   3.264
30586W        W90331  26.146   8.667  14.452
30587W        W90332  43.471  36.990   1.216
30588W        W90333  15.267  10.806  14.817
30589W        W90334  28.616  26.513   3.204
30590W        W90335   9.282  26.551  11.089
30591W        W90336   4.339  33.396  11.976
30592W        W90337  20.184  10.796   0.779
30593W        W90338  25.089  17.723  10.618
30594W        W90339  36.491  19.169   3.169
30595W        W90340  26.573  10.706  13.843
30596W        W90341  10.185  16.744  13.499
30597W        W90342  10.176  23.616   1.239
30598W        W90343   7.851  38.839   4.173
30599W        W90344  38.341  40.890  12.456
30600W        W90345  18.767  16.572  13.362
30601W        W90346  17.747   9.808   4.304
30602W        W90347  22.232  37.870  11.533
30603W        W90348  39.815  34.441   0.391
30604W        W90349  43.811  23.062   2.752
30605W        W90350  18.707   4.711   0.265
30606W        W90351  43.990  24.617  10.974
30607W        W90352  40.397  28.987  14.418
30608W        W90353   5.808  17.760  13.010
30609W        W90354   3.400  26.687  14.364
30610W        W90355  27.501  22.023  11.505
30611W        W90356  39.399  21.560   4.637
30612W        W90357  42.363  15.821   1.754
30613W        W90358   6.194  18.069  12.557
30614W        W90359  42.865  11.799   1.892
30615W        W90360  24.499  43.480  13.874
30616W        W90361   3.417  26.630  13.968
30617W        W90362  21.167  21.685   4.158
30618W        W90363   3.460   8.219  12.421
30619W        W90364  33.024  15.130  11.534
30620W        W90365   7.789  18.776   2.295
30621W        W90366   9.383   2.290  10.979
30622W        W90367  35.109  38.932   9.984
30623W        W90368  31.055  11.206   4.199
30624W        W90369  38.476  14.710   0.880
30625W        W90370  32.436  24.227  13.361
30626W        W90371   1.237   2.779   3.254
30627W        W90372  10.768   1.871  14.326
30628W        W90373  32.019  36.500  10.505
30629W        W90374   7.198  37.875  11.955
30630W        W90375  31.574  42.941   1.396
30631W        W90376  19.208  35.862   4.816
30632W        W90377  29.466  25.189  10.974
30633W        W90378   8.369  30.121  13.959
30634W        W90379  14.244  44.283  11.907
30635W        W90380  25.069  19.739  12.949
30636W        W90381  16.136  13.155  14.337
30637W        W90382  33.537  44.956  13.417
30638W        W90383   0.983  13.188  13.052
30639W        W90384  11.798  37.949  13.827
30640W        W90385  23.728  12.239   4.823
30641W        W90386  42.375  36.982  14.878
30642W        W90387   4.263   1.852  10.899
30643W        W90388   8.845  14.122  14.342
30644W        W90389  13.310  17.127  10.056
30645W        W90390   6.397   7.760  14.380
30646W        W90391  20.253  21.651  14.924
30647W        W90392  32.920  41.843   0.798
30648W        W90393  17.629  11.828   2.880
30649W        W90394  15.670  28.466  10.951
30650W        W90395  26.572  29.093  14.421
30651W        W90396  27.556  31.118  12.942
30652W        W90397  34.080  22.552  11.601
30653W        W90398  41.826  21.033   1.810
30654W        W90399  41.388   5.900  13.926
30655W        W90400  21.594  14.684  11.965
30656W        W90401  28.604  42.818   3.283
30657W        W90402  23.636  14.760  12.543
30658W        W90403  25.041  11.278   0.477
30659W        W90404  36.884  33.383   0.307
30660W        W90405  32.020   0.926  13.513
30661W        W90406  44.850  22.664   0.258
30662W        W90407  41.825   6.839  11.989
30663W        W90408  29.123  22.526   0.858
30664W        W90409  42.024  11.350   0.789
30665W        W90410  40.523  10.275  10.993
30666W        W90411  15.779  23.661  12.894
30667W        W90412  23.695  32.909   3.185
30668W        W90413  19.179  36.463  12.030
30669W        W90414  34.108   8.316  12.435
30670W        W90415  36.412  21.526  12.882
30671W        W90416  43.474   8.230  13.031
30672W        W90417  17.161   9.200   2.881
30673W        W90418  44.293  16.274  12.886
30674W        W90419  10.154  32.115   2.388
30675W        W90420  42.030  34.589  14.005
30676W        W90421  31.541   6.294   1.392
30677W        W90422  19.043  19.564   5.320
30678W        W90423  15.577   0.485   4.687
30679W        W90424  31.595  11.341   3.191
30680W        W90425  23.207   1.346   4.166
30681W        W90426  15.592  24.989  10.915
30682W        W90427   3.432  32.486  14.383
30683W        W90428  20.575   5.398  13.876
30684W        W90429  40.993  24.724   0.399
30685W        W90430  29.083   7.202   2.732
30686W        W90431  38.328  19.646  12.542
30687W        W90432  36.847  38.453  11.510
30688W        W90433  15.755  16.083  11.874
30689W        W90434   3.942  13.783   0.275
30690W        W90435   7.315  13.119  14.779
30691W        W90436  36.356  20.720  14.786
30692W        W90437  41.787  29.451   1.695
30693W        W90438  33.938  37.337   4.802
30694W        W90439  16.669   7.835   1.883
30695W        W90440  41.415  36.920   2.711
30696W        W90441  15.733  12.647  14.491
30697W        W90442  19.684  36.018  12.561
30698W        W90443  43.510  18.143   1.237
30699W        W90444  43.004  24.607   0.796
30700W        W90445  29.619  10.730   3.650
30701W        W90446  11.164  28.014   3.670
30702W        W90447  15.602  26.533   2.283
30703W        W90448  17.709   4.841  11.387
30704W        W90449  34.385   4.762   2.226
30705W        W90450   1.958   7.673  11.484
30706W        W90451  42.398  17.680   4.147
30707W        W90452  10.683  19.771  13.949
30708W        W90453   3.250   1.476  13.999
30709W        W90454  24.611  17.588   9.984
30710W        W90455  38.923   3.321   2.869
30711W        W90456  25.040  40.488   4.192
30712W        W90457  42.835  30.613  11.470
30713W        W90458  12.769  23.224  12.835
30714W        W90459  33.906  16.234  12.408
30715W        W90460  15.103  18.685  13.046
30716W        W90461  12.350  32.405  12.371
30717W        W90462   7.894   8.367   2.263
30718W        W90463  33.569   4.387   0.416
30719W        W90464   8.838   6.916  13.801
30720W        W90465  13.699  10.254   4.292
30721W        W90466   9.810  19.680  10.959
30722W        W90467  29.634  27.621   3.316
30723W        W90468  15.255   7.843   3.317
30724W        W90469   0.274   0.438   1.268
30725W        W90470  14.279  38.459   3.774
30726W        W90471  27.025  37.354   3.776
30727W        W90472  10.143  16.106   1.882
30728W        W90473  28.446  18.245  10.429
30729W        W90474  38.849   3.372  11.459
30730W        W90475  26.065   5.814   0.349
30731W        W90476  15.628  25.650  13.441
30732W        W90477  34.606  14.217  11.046
30733W        W90478  16.623  22.174  13.837
30734W        W90479  44.379   7.682  10.569
30735W        W90480  44.505  24.205   2.320
30736W        W90481  38.526  14.258  13.373
30737W        W90482  32.465  40.538  13.510
30738W        W90483   2.926  13.613  12.055
30739W        W90484  40.022  36.880   1.849
30740W        W90485  34.053  11.187  12.426
30741W        W90486  25.089   4.420   9.458
30742W        W90487  35.592   6.363  10.080
30743W        W90488  37.962  35.540   2.812
30744W        W90489  22.692   7.337  14.959
30745W        W90490   3.739   7.288  13.428
30746W        W90491   0.973  27.565   9.640
30747W        W90492  12.133  43.919  11.123
30748W        W90493  40.375   3.406   2.791
30749W        W90494  10.784   8.354   3.726
30750W        W90495   3.827   5.768   0.880
30751W        W90496  27.481  27.189   0.384
30752W        W90497  28.169   3.245  11.601
30753W        W90498   3.778   0.428   2.731
30754W        W90499   8.669   0.313  13.814
30755W        W90500  18.750  27.549  10.902
30756W        W90501  19.549  44.448  10.921
30757W        W90502  18.665  31.503   1.846
30758W        W90503  32.916  10.182  10.991
30759W        W90504  41.502   1.280  13.803
30760W        W90505  21.111  38.964  11.454
30761W        W90506  29.010  28.497  12.482
30762W        W90507  28.461  24.575  12.538
30763W        W90508   9.166  33.882   3.769
30764W        W90509  31.104   8.342  13.432
30765W        W90510  24.123  22.711  12.417
30766W        W90511  29.462   0.748   4.278
30767W        W90512  15.709  40.883   4.656
30768W        W90513  30.049  14.627  13.374
30769W        W90514  10.842  25.037   3.328
30770W        W90515  29.585  37.478  12.965
30771W        W90516  30.602  32.415  11.589
30772W        W90517   9.856  43.351  11.494
30773W        W90518  21.093  28.438   0.269
30774W        W90519  13.238  19.254  12.065
30775W        W90520  18.754  24.621  14.363
30776W        W90521  33.441  32.627  12.494
30777W        W90522  37.033   1.815  14.388
30778W        W90523   2.321  11.662  13.955
30779W        W90524   7.260   8.675   4.201
30780W        W90525   7.407  33.393   4.137
30781W        W90526  16.099  24.488  11.033
30782W        W90527  37.354  17.698   4.220
30783W        W90528  29.003  20.199   3.763
30784W        W90529  39.923  28.937   3.208
30785W        W90530  13.140  29.589  14.419
30786W        W90531  16.607   3.243  12.017
30787W        W90532  33.436   6.195  13.978
30788W        W90533   3.370  28.464  11.893
30789W        W90534  31.031   2.889  10.475
30790W        W90535   0.905  40.482   3.822
30791W        W90536  12.765  14.798  12.021
30792W        W90537  13.222  11.689   0.397
30793W        W90538  18.111  22.161   0.745
30794W        W90539  28.525  27.117  14.017
30795W        W90540  39.380  35.554  13.923
30796W        W90541  42.513  36.091   4.294
30797W        W90542   7.417  21.587  12.577
30798W        W90543  11.833   7.384   4.654
30799W        W90544  23.154  20.591   2.282
30800W        W90545  22.705  42.805   5.222
30801W        W90546  37.844   5.703   4.812
30802W        W90547  25.036  23.207  12.976
30803W        W90548   0.816   1.823  13.837
30804W        W90549  11.641  28.186   2.705
30805W        W90550  14.645  21.726   4.765
30806W        W90551  22.134  44.416  14.006
30807W        W90552  28.658  32.136  10.010
30808W        W90553  13.268  19.631   0.803
30809W        W90554   5.827  33.597  14.889
30810W        W90555   9.867   9.721  14.022
30811W        W90556  42.025   4.320  11.998
30812W        W90557  18.637   7.680  10.644
30813W        W90558  26.500   7.806   1.337
30814W        W90559  23.547  43.944  11.906
30815W        W90560  34.999  33.548  13.841
30816W        W90561   0.269  22.190  12.989
30817W        W90562  18.238   2.852   2.898
30818W        W90563   2.343  29.516  13.966
30819W        W90564  41.309  23.119   2.394
30820W        W90565  27.945  28.451   1.352
30821W        W90566   0.891   5.326  13.348
30822W        W90567  10.146   1.361  13.836
30823W        W90568   5.762  39.978  10.965
30824W        W90569   1.779  23.084   4.173
30825W        W90570  44.261   6.417   4.132
30826W        W90571  20.569  30.091  14.398
30827W        W90572  22.633   0.788   0.426
30828W        W90573  43.768  32.142  14.954
30829W        W90574  12.652  22.016  14.849
30830W        W90575  31.444  30.570  13.793
30831W        W90576  13.234   3.272  12.441
30832W        W90577  16.800  16.231   1.349
30833W        W90578   1.254  12.694   2.250
30834W        W90579  36.374  17.284   1.784
30835W        W90580  39.003   8.723   4.668
30836W        W90581  12.228   8.834   4.325
30837W        W90582  32.954  38.832  12.886
30838W        W90583  44.876  15.631  13.347
30839W        W90584  25.010  34.447   3.684
30840W        W90585  21.664  41.521   4.244
30841W        W90586  41.828  12.699   3.242
30842W        W90587  31.608  13.190   4.701
30843W        W90588  17.638  19.062   4.703
30844W        W90589   9.384  11.319  10.611
30845W        W90590  33.574  40.431  10.972
30846W        W90591  17.118  30.426  12.087
30847W        W90592   7.272  43.284   3.658
30848W        W90593  11.327  31.926  14.814
30849W        W90594   2.728  41.953  11.537
30850W        W90595  32.597  41.919   2.877
30851W        W90596  16.136  15.113   3.338
30852W        W90597  25.693  31.537  13.472
30853W        W90598  19.752  36.530  14.775
30854W        W90599  41.375  34.032   4.763
30855W        W90600  32.975  19.635  11.076
30856W        W90601  44.810   7.253  13.458
30857W        W90602  25.081  36.984  11.112
30858W        W90603  13.215   4.213  11.603
30859W        W90604  25.476  35.383   2.395
30860W        W90605   1.854  29.560  14.803
30861W        W90606  30.087   1.853  14.371
30862W        W90607   4.715   2.923  13.850
30863W        W90608   1.279  40.344  10.643
30864W        W90609  29.582   5.413   0.454
30865W        W90610  34.877  25.166  11.911
30866W        W90611  26.564   1.429   3.351
30867W        W90612  28.594  13.211   0.789
30868W        W90613  29.659   2.346  10.493
30869W        W90614  30.063  23.147   1.339
30870W        W90615   9.852  33.910  11.385
30871W        W90616  14.772  24.121   0.771
30872W        W90617   6.723  40.305   4.657
30873W        W90618   9.751  24.685   1.776
30874W        W90619  18.163  33.095  11.609
30875W        W90620  32.403  21.079  14.782
30876W        W90621  42.454  10.722   4.312
30877W        W90622  34.038  17.729  11.925
30878W        W90623  40.397  42.326  13.950
30879W        W90624  26.580  11.751  13.315
30880W        W90625   0.354   7.838  14.994
30881W        W90626  42.482   3.224   3.700
30882W        W90627  20.249  12.849  14.005
30883W        W90628  31.421  38.919  13.867
30884W        W90629  21.250   7.738   1.283
30885W        W90630  24.537  13.286  10.440
30886W        W90631  28.500  25.541   2.384
30887W        W90632  32.593  36.512   3.788
30888W        W90633  23.082  18.225  11.892
30889W        W90634  22.513  35.555  14.453
30890W        W90635  16.669  32.564   3.834
30891W        W90636  37.004  42.978  11.437
30892W        W90637   8.783  27.180   3.747
30893W        W90638   9.772  18.702  12.447
30894W        W90639  23.176  32.087   2.857
30895W        W90640  31.927  44.424  14.472
30896W        W90641   0.935  39.509   5.129
30897W        W90642  23.517  24.672   1.317
30898W        W90643  44.913  10.778   1.790
30899W        W90644   3.873  32.452   1.268
30900W        W90645  11.149  37.892  13.942
30901W        W90646  13.653  44.418   3.233
30902W        W90647   5.837  25.640  12.462
30903W        W90648  28.994  26.602  12.570
30904W        W90649  11.694  24.536  10.986
30905W        W90650  10.873  27.502   0.423
30906W        W90651  14.323  44.466   4.640
30907W        W90652   5.787   0.432   0.917
30908W        W90653  10.739   8.260   2.663
30909W        W90654  23.189   1.834  14.455
30910W        W90655   3.749  29.119  11.950
30911W        W90656  28.455  44.435  14.927
30912W        W90657  37.072  20.591  11.374
30913W        W90658  33.956   1.916  14.328
30914W        W90659  33.095  13.305   1.405
30915W        W90660  38.549   7.749   3.815
30916W        W90661  10.310   2.397   1.433
30917W        W90662  40.891  11.202  10.493
30918W        W90663   4.327  30.115   3.368
30919W        W90664  32.483  40.450  11.879
30920W        W90665  37.531  33.071  12.493
30921W        W90666  26.550  23.501   3.835
30922W        W90667  18.556   4.781   3.771
30923W        W90668   1.789   0.947   1.232
30924W        W90669  14.173   1.274   1.731
30925W        W90670  29.072  38.528   1.346
30926W        W90671  34.959  10.648   2.897
30927W        W90672  35.953  25.571  12.089
30928W        W90673   6.275  23.129   3.250
30929W        W90674  18.719   0.831  14.871
30930W        W90675   2.818   3.873   4.696
30931W        W90676  19.049  14.283   4.601
30932W        W90677  28.931   3.751  12.827
30933W        W90678   6.689  25.711  13.432
30934W        W90679  43.946   4.243   2.259
30935W        W90680   1.316  14.716  12.410
30936W        W90681  23.012  38.515   0.327
30937W        W90682  40.889  13.222  14.843
30938W        W90683   2.390   4.387  12.972
30939W        W90684   6.427  36.019  13.832
30940W        W90685   3.905  32.422  12.493
30941W        W90686   5.205  12.836  12.056
30942W        W90687   9.170  40.476  10.513
30943W        W90688   3.309   9.321  13.505
30944W        W90689  39.485  15.580   9.950
30945W        W90690  39.405  27.500  14.494
30946W        W90691  38.976  27.160   4.651
30947W        W90692  11.200  35.877  14.809
30948W        W90693  11.231   0.274  13.392
30949W        W90694  17.724  41.349  12.991
30950W        W90695   5.414  44.417  14.962
30951W        W90696   6.682  17.587  13.839
30952W        W90697  36.940   5.361   2.274
30953W        W90698  30.606  44.419  13.925
30954W        W90699  22.157  10.339  13.327
30955W        W90700  19.202  14.793  11.987
30956W        W90701   4.779  43.898  13.410
30957W        W90702   9.235  37.053   1.259
30958W        W90703  34.038  34.445  11.125
30959W        W90704  29.550  13.210  11.461
30960W        W90705  32.975  40.400  11.493
30961W        W90706  38.370  34.584  12.505
30962W        W90707  23.587  39.396   2.814
30963W        W90708  32.421  10.239   2.264
30964W        W90709  40.897   5.863   3.300
30965W        W90710  12.342  44.756   3.379
30966W        W90711  12.299   9.383  11.403
30967W        W90712  25.651  21.155   3.797
30968W        W90713  36.410  23.218  14.971
30969W        W90714   4.724  33.919   3.724
30970W        W90715  44.875   4.361   3.817
30971W        W90716  42.287   1.423   3.260
30972W        W90717   7.694  13.678  10.553
30973W        W90718  32.557  37.501  10.549
30974W        W90719   5.839   0.758   4.135
30975W        W90720  10.821  37.030   9.959
30976W        W90721  43.872  26.198   1.417
30977W        W90722  35.504  13.206   4.818
30978W        W90723  30.001  43.908   4.119
30979W        W90724   7.725   2.751   2.779
30980W        W90725  31.952  21.072   0.391
30981W        W90726  27.624  38.919   2.351
30982W        W90727  18.721  30.598  13.527
30983W        W90728  39.399   9.305  14.487
30984W        W90729  37.901  22.724   1.430
30985W        W90730   3.406  15.703  14.016
30986W        W90731  19.626   6.182  14.514
30987W        W90732  44.833  10.855  11.941
30988W        W90733  10.142  31.597  11.070
30989W        W90734  26.696  37.880   5.245
30990W        W90735  40.546  20.094  10.633
30991W        W90736  14.276  17.664   0.730
30992W        W90737   0.900  14.642   3.698
30993W        W90738  19.578  16.211   0.323
30994W        W90739  32.495  26.665  14.276
30995W        W90740  31.404  39.033  14.956
30996W        W90741   8.238   9.235  10.426
30997W        W90742  13.214   0.368  11.896
30998W        W90743  11.779  24.564  13.492
30999W        W90744  16.596   6.723   0.964
31000W        W90745   9.225  44.369  10.045
31001W        W90746  19.099  20.076   3.337
31002W        W90747  41.940  26.634  10.610
31003W        W90748   0.301  25.577  13.395
31004W        W90749  27.124  16.248   4.195
31005W        W90750  32.085   8.812   3.784
31006W        W90751   5.395  40.913  14.987
31007W        W90752  44.763   3.874  12.825
31008W        W90753  35.499  29.159  12.862
31009W        W90754  13.342   7.344   0.404
31010W        W90755   7.798  41.516  11.503
31011W        W90756  28.548  44.462   2.721
31012W        W90757  23.670  42.809   2.405
31013W        W90758  27.611  44.488   2.333
31014W        W90759  11.266  26.133   2.855
31015W        W90760   8.399  24.164   0.948
31016W        W90761   4.317  39.461   4.176
31017W        W90762  44.803  20.576   1.867
31018W        W90763  16.095   5.769  13.444
31019W        W90764  29.168   8.387   9.964
31020W        W90765  23.097  39.359   4.232
31021W        W90766  27.553  34.555  13.990
31022W        W90767  43.379  22.735  11.930
31023W        W90768  40.020  41.902  12.863
31024W        W90769  14.109  37.973   3.166
31025W        W90770   5.391   9.841  14.017
31026W        W90771  42.825  44.293  12.918
31027W        W90772   9.314  22.620  12.827
31028W        W90773  40.818  20.735   1.712
31029W        W90774  13.756   2.252  10.556
31030W        W90775  39.960  33.026  13.056
31031W        W90776   1.248  35.937   3.244
31032W        W90777  32.091  11.793  14.412
31033W        W90778  29.659  33.543   1.266
31034W        W90779  14.715   5.272   4.288
31035W        W90780  30.965  29.446  12.917
31036W        W90781  15.307  15.197   1.755
31037W        W90782  18.648  27.960   0.293
31038W        W90783  34.039  24.218   4.731
31039W        W90784  30.971   1.447  10.489
31040W        W90785  27.585  34.397  14.921
31041W        W90786  20.640  30.912  12.054
31042W        W90787  22.689  20.523  13.815
31043W        W90788   8.839  33.899   0.258
31044W        W90789  34.918  27.678  13.524
31045W        W90790  30.645   9.687  14.372
31046W        W90791   6.856  13.702  14.382
31047W        W90792  12.670  40.941   2.884
31048W        W90793  17.697  13.699  13.543
31049W        W90794  27.969  35.994   3.246
31050W        W90795   0.303  23.034  14.919
31051W        W90796   1.939  27.464   1.932
31052W        W90797  38.997   9.667  12.489
31053W        W90798  35.398   9.305   4.744
31054W        W90799   8.258  39.025   2.397
31055W        W90800  41.528  18.593   2.400
31056W        W90801  39.343   2.929   1.878
31057W        W90802  13.728  24.538  12.415
31058W        W90803  44.449   9.867   0.858
31059W        W90804   6.254  42.988   2.215
31060W        W90805  24.516  33.088   0.961
31061W        W90806  35.493   7.256  14.512
31062W        W90807  22.539  34.025  13.921
31063W        W90808  18.703  41.446  10.062
31064W        W90809  32.404  29.474   1.716
31065W        W90810  33.074  39.405   0.730
31066W        W90811  35.015   3.926  12.378
31067W        W90812   8.293  23.053  13.524
31068W        W90813  35.068  40.458   2.336
31069W        W90814  43.503  12.144  12.544
31070W        W90815  20.170  20.650   1.915
31071W        W90816  31.511  14.797   2.854
31072W        W90817  17.278  25.020  12.385
31073W        W90818  27.452  41.849  14.882
31074W        W90819  19.059  20.200  14.788
31075W        W90820  27.187   4.710   1.260
31076W        W90821  31.908  30.163   0.423
31077W        W90822  24.101  27.643   3.153
31078W        W90823  23.160  12.192   3.690
31079W        W90824  28.562  43.435   3.653
31080W        W90825   3.874  23.695  14.471
31081W        W90826  40.470  30.121   0.757
31082W        W90827  35.413  17.152  14.467
31083W        W90828  10.297  20.154  13.807
31084W        W90829  13.262  23.674  13.336
31085W        W90830  17.191   8.819   0.282
31086W        W90831  41.951  22.154   2.825
31087W        W90832   4.230   2.766   2.693
31088W        W90833  36.942  35.450  12.981
31089W        W90834  39.332  31.050  14.427
31090W        W90835  22.513   8.663  12.010
31091W        W90836   8.669  13.149   5.240
31092W        W90837  44.784  36.451  14.507
31093W        W90838  17.574  17.221   2.684
31094W        W90839  43.304  12.678   1.245
31095W        W90840  24.707  16.156  14.417
31096W        W90841  32.086  11.346   4.240
31097W        W90842  44.504  20.523  13.418
31098W        W90843  23.019  11.289  12.536
31099W        W90844  14.668  38.473  13.472
31100W        W90845   0.897   9.209  12.065
31101W        W90846  26.614  12.691  14.277
31102W        W90847   2.721  19.096  10.153
31103W        W90848  34.566  18.683  11.007
31104W        W90849  26.073  41.005   4.681
31105W        W90850  42.356  41.415   0.350
31106W        W90851  34.595  10.834  14.924
31107W        W90852  40.414  12.647  10.954
31108W        W90853   9.343  25.072   2.304
31109W        W90854   3.240  32.535   1.858
31110W        W90855   0.336  11.761  11.034
31111W        W90856  27.037  24.088  12.473
31112W        W90857  17.090  39.937  13.530
31113W        W90858   9.770  26.666   1.849
31114W        W90859  17.795  25.051  11.984
31115W        W90860  18.572  24.065   2.215
31116W        W90861  28.175   0.451   1.824
31117W        W90862  22.535  21.222   2.336
31118W        W90863   9.773   9.836   2.663
31119W        W90864  24.502  40.519  13.046
31120W        W90865  21.726  37.503   4.754
31121W        W90866  43.912   1.851  12.513
31122W        W90867   9.194  19.573   0.280
31123W        W90868  10.153  16.600   2.278
31124W        W90869  33.601   5.369  14.801
31125W        W90870  25.594   6.758  13.538
31126W        W90871  11.271  37.392  11.948
31127W        W90872  17.725   5.416   1.374
31128W        W90873  23.190  12.208  11.530
31129W        W90874   4.737  23.528   4.297
31130W        W90875  39.344  36.463  11.123
31131W        W90876  20.723  40.475  11.531
31132W        W90877  43.435  38.447  11.075
31133W        W90878  44.377  25.187  13.361
31134W        W90879  32.021  17.284  11.519
31135W        W90880  39.459  25.525   4.151
31136W        W90881  43.804  26.463   1.423
31137W        W90882  18.734  12.297   2.752
31138W        W90883  27.477  13.819  12.579
31139W        W90884  32.142  33.895  11.394
31140W        W90885  12.615  26.057   1.768
31141W        W90886  19.702  20.050   4.623
31142W        W90887  36.030  20.610  10.441
31143W        W90888   4.296  15.118   4.809
31144W        W90889  13.753   4.427  11.972
31145W        W90890  18.174  14.726  11.448
31146W        W90891  23.003  15.179  11.935
31147W        W90892  24.525  15.688  14.511
31148W        W90893  41.513  40.865  13.802
31149W        W90894  40.352  27.520   3.325
31150W        W90895  18.622  29.100   2.383
31151W        W90896  39.341   2.381  12.007
31152W        W90897  38.366  39.342   1.730
31153W        W90898  36.003  41.328  11.860
31154W        W90899  43.901  12.211  14.003
31155W        W90900  30.453  27.511  11.954
31156W        W90901  27.473  10.364   4.161
31157W        W90902  10.340  33.085   1.343
31158W        W90903   2.756  14.636   4.299
31159W        W90904  12.717  21.647  12.985
31160W        W90905  14.684   6.704  10.643
31161W        W90906  33.600   8.173   1.286
31162W        W90907   7.696   6.290   4.216
31163W        W90908  10.366  25.070   4.716
31164W        W90909   4.265  36.028  13.360
31165W        W90910   2.350  11.747  12.570
31166W        W90911  22.693   4.729  11.932
31167W        W90912   8.201  40.853   4.705
31168W        W90913  10.356  38.414   0.400
31169W        W90914  33.901   7.412  13.496
31170W        W90915   3.909  14.704   2.292
31171W        W90916   3.303   9.290  10.952
31172W        W90917  22.169   2.830  11.867
31173W        W90918  11.789  28.129  10.931
31174W        W90919  42.510   6.828   3.273
31175W        W90920  26.157  23.572   2.216
31176W        W90921  44.336   6.206  10.104
31177W        W90922  18.150  18.590  12.497
31178W        W90923  17.115  44.951   1.918
31179W        W90924  14.311  24.615  12.385
31180W        W90925   9.651  38.977   4.179
31181W        W90926  39.538  11.721  12.368
31182W        W90927  21.154  43.405  12.852
31183W        W90928  11.810  19.152  12.339
31184W        W90929  31.940  19.183  13.815
31185W        W90930   5.917  35.969   3.836
31186W        W90931  27.630   7.766  14.963
31187W        W90932  17.063  26.040   4.260
31188W        W90933  17.581  39.869   2.861
31189W        W90934  43.919  26.521   1.831
31190W        W90935  37.918  19.150  14.808
31191W        W90936  23.624  41.013   1.270
31192W        W90937  15.755  21.160  10.576
31193W        W90938  16.211   8.762   0.304
31194W        W90939  21.171  35.060   2.757
31195W        W90940   7.194   0.910  13.889
31196W        W90941  10.840  36.990   1.362
31197W        W90942  28.575   2.345  10.582
31198W        W90943  42.407   1.320  11.412
31199W        W90944   4.343   1.332  11.907
31200W        W90945   2.768  20.597  10.013
31201W        W90946   5.437  21.735   1.772
31202W        W90947   3.225  13.139   3.203
31203W        W90948  38.388  23.490  10.968
31204W        W90949  31.531  36.456   2.401
31205W        W90950  38.549  29.440   4.789
31206W        W90951  38.927  31.533   3.231
31207W        W90952  20.032  14.251  10.434
31208W        W90953  20.227  36.502  13.520
31209W        W90954  44.348  38.954   0.756
31210W        W90955  16.729   2.276  11.065
31211W        W90956  33.543  38.337   0.314
31212W        W90957  40.927  16.669   1.212
31213W        W90958  16.155  24.152  13.487
31214W        W90959  19.547  31.143  10.452
31215W        W90960  19.766   2.293  13.934
31216W        W90961  33.539  18.052  12.071
31217W        W90962   2.937  16.201  12.479
31218W        W90963   0.255  31.416  11.093
31219W        W90964  35.037   0.323   9.981
31220W        W90965  27.623  28.990   3.722
31221W        W90966   3.420  37.405   3.869
31222W        W90967   1.814  20.533   2.720
31223W        W90968  20.541   9.681   0.765
31224W        W90969   1.300  20.121  13.037
31225W        W90970   5.751   7.861   3.668
31226W        W90971  17.732  20.127   1.212
31227W        W90972  35.556  37.018  11.453
31228W        W90973  14.238   4.269  13.852
31229W        W90974  43.996   7.279   0.829
31230W        W90975  40.835  24.636  13.991
31231W        W90976  14.627  21.642  12.468
31232W        W90977   7.292  14.274  14.351
31233W        W90978  16.278  25.120  13.824
31234W        W90979  12.277  15.135   4.324
31235W        W90980  44.906  23.572  11.955
31236W        W90981  25.115  23.092   4.155
31237W        W90982  18.650  32.104   1.818
31238W        W90983   8.322  22.195  10.405
31239W        W90984  18.182  36.844  10.622
31240W        W90985  38.540  10.826  14.827
31241W        W90986   7.217  30.595  10.925
31242W        W90987  36.377  40.820  10.550
31243W        W90988   4.733  29.003   4.690
31244W        W90989  21.106  40.341   2.902
31245W        W90990  17.284  42.899  10.149
31246W        W90991  16.079  24.643   1.930
31247W        W90992  14.339  22.251   1.270
31248W        W90993  41.973  39.055  14.281
31249W        W90994   5.723  14.660   0.838
31250W        W90995  31.490  12.695  11.020
31251W        W90996  10.690   0.783   3.759
31252W        W90997  18.254  23.585   2.737
31253W        W90998   9.171   9.802   4.718
31254W        W90999  29.091  13.122   0.327
31255W        W91000  37.012   3.921  12.828
31256W        W91001  40.477  13.785   0.292
31257W        W91002  16.142   8.713  10.404
31258W        W91003  42.953  29.533   1.876
31259W        W91004  25.990  15.156  11.885
31260W        W91005  13.349  37.043  11.052
31261W        W91006  43.469  42.338   2.897
31262W        W91007  13.280  37.831   4.192
31263W        W91008  18.142  39.841  13.847
31264W        W91009   4.891   1.822  14.331
31265W        W91010  27.192  31.402  14.485
31266W        W91011  13.126  22.616  12.893
31267W        W91012  14.296  44.827   3.650
31268W        W91013   1.938  34.431  11.936
31269W        W91014   5.214  42.906  11.557
31270W        W91015  14.205  32.539   0.366
31271W        W91016   0.424  29.579   4.285
31272W        W91017   0.803  31.058  14.475
31273W        W91018  37.976  33.914   0.385
31274W        W91019   7.297   5.903   2.221
31275W        W91020  36.417  42.392  12.432
31276W        W91021  39.813  43.945   2.246
31277W        W91022  19.182  37.024   4.224
31278W        W91023  23.660  39.065  13.913
31279W        W91024  32.019   9.780  11.127
31280W        W91025  44.989  37.924   1.810
31281W        W91026  16.290   7.669   3.283
31282W        W91027  31.070  35.887  12.371
31283W        W91028  38.457  27.551  12.355
31284W        W91029  13.657  27.176  12.441
31285W        W91030   0.285   5.890  14.806
31286W        W91031  36.523  44.845   0.914
31287W        W91032  14.747  14.244   4.607
31288W        W91033   8.741  29.425   0.303
31289W        W91034   0.338   1.903  10.961
31290W        W91035  24.516  24.103  14.850
31291W        W91036  16.081  13.787  14.951
31292W        W91037  32.499  10.339  10.559
31293W        W91038  13.112  44.437   0.480
31294W        W91039  18.164  17.144  13.500
31295W        W91040   0.260   2.248   1.764
31296W        W91041   8.668   9.322   0.913
31297W        W91042  42.940  13.842   2.710
31298W        W91043  41.802   1.751   3.695
31299W        W91044   3.427   9.183   1.758
31300W        W91045   5.318  19.223  13.354
31301W        W91046  11.241  23.700  13.988
31302W        W91047  43.943  38.865   3.270
31303W        W91048   5.736  27.629   2.334
31304W        W91049   4.852  29.048  14.760
31305W        W91050   0.762  44.475  14.006
31306W        W91051  33.054  37.473   5.129
31307W        W91052  36.972   5.790  11.538
31308W        W91053  21.126  34.421   2.312
31309W        W91054   5.338   4.412   2.731
31310W        W91055   3.910  34.425   4.630
31311W        W91056  15.132  35.042   1.311
31312W        W91057  19.086  16.680  12.447
31313W        W91058  41.999  11.195   2.675
31314W        W91059  33.049  11.291  13.821
31315W        W91060  33.004  37.411  12.900
31316W        W91061  17.113  34.998   4.226
31317W        W91062  25.214  14.603   3.809
31318W        W91063   9.668  25.628   3.192
31319W        W91064  24.580  19.548  13.876
31320W        W91065  30.947  34.567  10.483
31321W        W91066   2.363  10.248   0.960
31322W        W91067  34.999  17.675   0.758
31323W        W91068  10.837  33.578  12.361
31324W        W91069  24.230  23.131  10.630
31325W        W91070   2.948   8.873   1.843
31326W        W91071  18.241   3.867  12.954
31327W        W91072  25.219   6.785  14.367
31328W        W91073  16.612   7.678   4.292
31329W        W91074   1.896  27.481  12.840
31330W        W91075  20.737  44.995   5.604
31331W        W91076  22.542  36.348  11.059
31332W        W91077  28.939  30.562   1.934
31333W        W91078   1.440  26.596  13.335
31334W        W91079  30.998  44.340  12.873
31335W        W91080   4.432  28.608  13.365
31336W        W91081  39.458  40.945   1.302
31337W        W91082  39.515  33.957   0.383
31338W        W91083  31.452  18.263   5.199
31339W        W91084  21.210  37.410   0.465
31340W        W91085  25.473  22.536   2.214
31341W        W91086  18.238  19.263   2.212
31342W        W91087  22.519  32.113   3.291
31343W        W91088   0.456  42.961   3.630
31344W        W91089   7.727  36.967   1.902
31345W        W91090  15.642   6.325   4.253
31346W        W91091  26.497  29.057   4.783
31347W        W91092  30.056   1.793   1.878
31348W        W91093  12.627  27.458  14.357
31349W        W91094  10.753   5.821   1.350
31350W        W91095   7.358  15.767   2.677
31351W        W91096  44.356  12.758  11.576
31352W        W91097  27.460  41.414  12.538
31353W        W91098   9.306   8.715  14.401
31354W        W91099  19.158   4.729   2.279
31355W        W91100  30.046  28.042  14.447
31356W        W91101   0.470  30.599  13.309
31357W        W91102  29.150  43.408   1.878
31358W        W91103   5.211  36.951  13.536
31359W        W91104  11.350  39.918  14.407
31360W        W91105  16.307   7.402  12.875
31361W        W91106  13.801  10.201   0.411
31362W        W91107  18.601  30.422   2.830
31363W        W91108  40.443  40.798   0.387
31364W        W91109  22.100  41.789   3.229
31365W        W91110  25.650  32.046   9.660
31366W        W91111  14.325  11.634   2.195
31367W        W91112  15.665  31.516  10.455
31368W        W91113   2.797   5.872  14.452
31369W        W91114  16.801  33.443   3.367
31370W        W91115   4.819  22.683  12.074
31371W        W91116  26.664   3.794   4.605
31372W        W91117  10.681  25.704  10.631
31373W        W91118  27.129  41.011   4.727
31374W        W91119  18.223  40.050   1.714
31375W        W91120  23.631  20.592  10.510
31376W        W91121  28.669  29.055   2.855
31377W        W91122  26.069  20.759   3.780
31378W        W91123   6.864  14.652  10.888
31379W        W91124   5.848  39.362   4.235
31380W        W91125  27.529  20.248  13.488
31381W        W91126   4.805  24.118   3.170
31382W        W91127  26.126  37.078   2.418
31383W        W91128   5.912  25.126  11.381
31384W        W91129  23.663   3.316   0.335
31385W        W91130  37.481  39.342   0.847
31386W        W91131  15.701  13.765   1.425
31387W        W91132  24.993  28.668   0.267
31388W        W91133  44.263   2.402  11.860
31389W        W91134   0.890  16.143   1.754
31390W        W91135   3.400  24.502   1.280
31391W        W91136  26.205  15.268   3.749
31392W        W91137  33.015   6.677  13.893
31393W        W91138  15.299  33.927  13.796
31394W        W91139  31.643  11.365  12.083
31395W        W91140  19.650  31.550  14.372
31396W        W91141  42.322  27.006  12.048
31397W        W91142  26.560   8.311   4.129
31398W        W91143  27.997   0.264  10.114
31399W        W91144  31.971  41.950   0.856
31400W        W91145  40.391  44.494  12.069
31401W        W91146  35.595  37.442  12.869
31402W        W91147  41.352  40.331   0.747
31403W        W91148  15.651  44.476   0.862
31404W        W91149   7.910  25.018   2.178
31405W        W91150   8.659  44.404   4.781
31406W        W91151  44.300   0.760   0.461
31407W        W91152  33.881  36.585  12.558
31408W        W91153  11.813  19.733  13.899
31409W        W91154  32.054  24.186  14.913
31410W        W91155  15.272   4.425  11.512
31411W        W91156  14.232  15.153  10.581
31412W        W91157  37.917  16.181  13.796
31413W        W91158  20.193  19.595  13.822
31414W        W91159   7.385  16.087  13.347
31415W        W91160  22.125  35.446  10.405
31416W        W91161  36.524  34.520   1.332
31417W        W91162   9.760  36.865   0.411
31418W        W91163  33.506  35.539   4.837
31419W        W91164   2.787  37.841   3.206
31420W        W91165   3.730   6.777   3.677
31421W        W91166   4.781  19.103   5.614
31422W        W91167   6.388   3.723  10.019
31423W        W91168  25.609   2.322   3.727
31424W        W91169  12.648  13.255   0.861
31425W        W91170  26.576  37.474   3.831
31426W        W91171  42.890  38.422  11.904
31427W        W91172  33.464  31.931   3.637
31428W        W91173  14.225   6.228   0.901
31429W        W91174  13.724   2.926   1.262
31430W        W91175  23.598  27.174  12.433
31431W        W91176  19.716  34.010  14.906
31432W        W91177  29.434  14.264  14.451
31433W        W91178  43.820  16.646   4.166
31434W        W91179  25.683  14.296   5.223
31435W        W91180  40.946  10.148  14.903
31436W        W91181   3.376  42.363  14.374
31437W        W91182   4.792  33.907   4.170
31438W        W91183  17.713  38.422  10.489
31439W        W91184  34.505  39.843   1.823
31440W        W91185  41.336  39.898  12.363
31441W        W91186  15.768  17.666   1.705
31442W        W91187  39.362  42.963   3.155
31443W        W91188   5.798   4.247  12.386
31444W        W91189  12.726  38.344   1.345
31445W        W91190  23.727  32.887  11.970
31446W        W91191  33.920  39.378  11.996
31447W        W91192  25.588  23.499  13.422
31448W        W91193  39.020  15.120  10.479
31449W        W91194   6.237  17.158   2.770
31450W        W91195  40.534  29.107   1.449
31451W        W91196  13.215  28.555  13.957
31452W        W91197  26.464   2.835   0.331
31453W        W91198  40.892  16.287   0.764
31454W        W91199  34.488  12.798  12.561
31455W        W91200   9.265  18.079  12.881
31456W        W91201  14.652  35.918  11.477
31457W        W91202  26.180  29.023   1.838
31458W        W91203   8.363   5.912  12.478
31459W        W91204   5.244  36.870   2.368
31460W        W91205  20.221   4.449   0.386
31461W        W91206  21.659  36.440  13.955
31462W        W91207  17.678  20.263   1.718
31463W        W91208  37.974  22.164  12.439
31464W        W91209  23.634  35.933   0.451
31465W        W91210  44.342  44.946  11.375
31466W        W91211   5.925  43.480  13.895
31467W        W91212  14.760  33.956   4.761
31468W        W91213  43.399   1.304   1.447
31469W        W91214  31.496  15.260  13.544
31470W        W91215  23.609   5.341   4.301
31471W        W91216  20.046  35.408  11.963
31472W        W91217   5.222  41.291   4.630
31473W        W91218  21.576  34.920  14.483
31474W        W91219  15.137  37.394  13.346
31475W        W91220  15.237  29.584   1.319
31476W        W91221  20.078  30.455   0.413
31477W        W91222  16.309  43.881  11.113
31478W        W91223  38.946  30.034  12.012
31479W        W91224  25.192  16.177   0.330
31480W        W91225  43.785   0.804   4.778
31481W        W91226  44.954  44.818   0.860
31482W        W91227  10.373   5.261   0.291
31483W        W91228   7.805  27.502   0.945
31484W        W91229  25.600  34.919   3.705
31485W        W91230   4.220  20.718   0.299
31486W        W91231  44.355  34.552   2.826
31487W        W91232  28.948   1.945  10.913
31488W        W91233  21.534  13.816  14.887
31489W        W91234  29.581  36.909   4.636
31490W        W91235  16.677  12.282  10.611
31491W        W91236  40.378  10.265  14.769
31492W        W91237   6.702  17.281   1.446
31493W        W91238  30.482  23.991  13.487
31494W        W91239  27.635  14.691   3.729
31495W        W91240  28.646   3.358   0.418
31496W        W91241  32.015  14.636   0.846
31497W        W91242  16.076  23.719  10.515
31498W        W91243  20.216  35.400   2.415
31499W        W91244   7.391  10.705  12.422
31500W        W91245  21.081  14.729  13.458
31501W        W91246  12.614  26.118  14.332
31502W        W91247  14.250  33.530   2.298
31503W        W91248  16.194   5.225  11.494
31504W        W91249  35.865  32.086   4.144
31505W        W91250  38.893   0.257   1.867
31506W        W91251   4.431  17.201  11.560
31507W        W91252   7.854  35.063  12.075
31508W        W91253  15.702   9.273   1.408
31509W        W91254  44.837  24.104  11.996
31510W        W91255  31.489  26.179   1.827
31511W        W91256  23.238   8.300  13.932
31512W        W91257  32.127  36.542  13.432
31513W        W91258  25.624   0.883  12.993
31514W        W91259  33.037  44.341   3.256
31515W        W91260  40.040   5.356  12.826
31516W        W91261  35.911  21.227   2.274
31517W        W91262  13.757  34.492  11.109
31518W        W91263  18.694   9.712   4.343
31519W        W91264   0.912  44.338  12.441
31520W        W91265  25.115  27.043   0.727
31521W        W91266  38.890  26.612  11.937
31522W        W91267  17.602  19.264   0.288
31523W        W91268   0.356  28.523   3.354
31524W        W91269  13.615   2.748   2.880
31525W        W91270   8.837   6.692  10.894
31526W        W91271  30.121  13.642   2.242
31527W        W91272   4.915  16.128   2.256
31528W        W91273  31.508  43.772   4.784
31529W        W91274  34.120  30.584  12.009
31530W        W91275  22.738  10.266  13.869
31531W        W91276  40.513  29.542   3.305
31532W        W91277  13.223  27.040  13.838
31533W        W91278   7.677  12.260  10.982
31534W        W91279   8.690  31.515  12.398
31535W        W91280  30.557  42.331   3.673
31536W        W91281  37.965  35.400  11.553
31537W        W91282  33.962  25.084  11.006
31538W        W91283   8.690  34.487   3.633
31539W        W91284  24.211  39.317  13.405
31540W        W91285  11.332  11.369   1.808
31541W        W91286  22.614  36.931  13.850
31542W        W91287  20.637   1.255   1.929
31543W        W91288  28.560  23.235  10.587
31544W        W91289  38.414  26.166   3.330
31545W        W91290  22.698  21.583  14.434
31546W        W91291   6.351  34.500   0.457
31547W        W91292  22.740  10.637  14.762
31548W        W91293  15.147  40.529   2.219
31549W        W91294  17.100  32.002  11.876
31550W        W91295   7.848  39.922  10.538
31551W        W91296  13.156   6.272   3.652
31552W        W91297   2.945  40.857  13.345
31553W        W91298   0.855  34.610   0.449
31554W        W91299  26.680  10.218  10.979
31555W        W91300  27.634  25.046   2.859
31556W        W91301  30.617  27.558   4.291
31557W        W91302   7.810   4.785  14.781
31558W        W91303   4.284  38.449  13.020
31559W        W91304   4.351  39.035   2.706
31560W        W91305  41.881  29.956  10.522
31561W        W91306  43.878  24.725  11.609
31562W        W91307  19.056  36.967   3.759
31563W        W91308  29.519  40.951  12.979
31564W        W91309  18.211  28.132  11.899
31565W        W91310  40.484  17.592   2.778
31566W        W91311  17.163  30.527   3.713
31567W        W91312  41.949  39.873   3.723
31568W        W91313  28.182  32.054  10.564
31569W        W91314  42.911  22.636   5.135
31570W        W91315  40.422  44.477   5.119
31571W        W91316  18.204  11.304  12.456
31572W        W91317   6.204  41.814  13.885
31573W        W91318  19.107  12.206  12.369
31574W        W91319  16.654  22.714   4.315
31575W        W91320   0.911   1.893   4.782
31576W        W91321   7.741  40.973  10.465
31577W        W91322  11.644  21.051   4.139
31578W        W91323  32.914  38.932  12.451
31579W        W91324  33.393  20.047   5.214
31580W        W91325  41.515  18.642   1.707
31581W        W91326  41.816  15.206  12.377
31582W        W91327  40.888  43.971   2.723
31583W        W91328  39.924  38.884   1.924
31584W        W91329   9.168  42.476  12.873
31585W        W91330  43.795  43.772  14.845
31586W        W91331  17.264   6.268   0.469
31587W        W91332  12.721  33.025  12.546
31588W        W91333  44.832  33.517   0.379
31589W        W91334   2.245  39.861   0.892
31590W        W91335   8.276  38.041  12.088
31591W        W91336  39.944  30.035  11.535
31592W        W91337  43.299  41.824  12.362
31593W        W91338  32.440   8.406   5.759
31594W        W91339  11.264  19.633   5.242
31595W        W91340   0.895  33.616  11.569
31596W        W91341  25.025  35.008  10.913
31597W        W91342  18.258   6.405  13.923
31598W        W91343  44.875  43.793   2.349
31599W        W91344  16.120  15.622  12.507
31600W        W91345  37.839  34.496   0.290
31601W        W91346  38.044   7.785   1.723
31602W        W91347  19.669   4.364  12.034
31603W        W91348  19.053   1.330   5.242
31604W        W91349  11.237   5.375   4.707
31605W        W91350  41.445   7.855   3.870
31606W        W91351  35.403  29.545  13.889
31607W        W91352  27.165  25.186   4.175
31608W        W91353  32.054  12.174  14.381
31609W        W91354  24.495  36.589  11.391
31610W        W91355  19.253  42.781  13.945
31611W        W91356  10.344  12.831   4.672
31612W        W91357  40.952  21.716   4.209
31613W        W91358  44.376  33.386  11.126
31614W        W91359  22.246  20.527  13.481
31615W        W91360  19.247  40.414   3.197
31616W        W91361  26.093   6.808   3.799
31617W        W91362  43.835  25.172  10.598
31618W        W91363   1.289  16.304  12.551
31619W        W91364  42.882  40.444   5.155
31620W        W91365  42.798  27.961   0.914
31621W        W91366   2.361  35.540  12.093
31622W        W91367  42.853  28.449   2.222
31623W        W91368  39.520  44.439   0.326
31624W        W91369  25.592  42.315   0.476
31625W        W91370  37.556  32.943  11.553
31626W        W91371   4.274   2.932   1.761
31627W        W91372   5.810  29.423  13.468
31628W        W91373  10.801  30.420  14.820
31629W        W91374  26.545  40.026  12.029
31630W        W91375  13.279  14.240  11.389
31631W        W91376  30.130  34.591   0.400
31632W        W91377  16.098  14.161  11.084
31633W        W91378  14.697  14.152  10.933
31634W        W91379  29.548  16.644  13.829
31635W        W91380  42.316   9.724  14.386
31636W        W91381  34.104  19.214  11.868
31637W        W91382  22.046  38.826  12.460
31638W        W91383  38.438   6.835  12.984
31639W        W91384  41.439   0.262  13.024
31640W        W91385  21.713  27.100   1.264
31641W        W91386  35.895   0.891  11.073
31642W        W91387  10.789  20.680  12.895
31643W        W91388   7.414  34.563  13.793
31644W        W91389  22.588  41.043  12.875
31645W        W91390  17.719  44.454   2.382
31646W        W91391  17.166  41.980  12.435
31647W        W91392   9.880  41.818  14.870
31648W        W91393  39.516  40.529  14.815
31649W        W91394  14.601   5.755  11.873
31650W        W91395  21.129  29.670   4.353
31651W        W91396  33.619   9.170  13.911
31652W        W91397  15.683   2.855   2.213
31653W        W91398  41.944  11.210  12.467
31654W        W91399   8.712   9.770   2.256
31655W        W91400  37.893  26.129  12.366
31656W        W91401  25.577  15.113  13.815
31657W        W91402  14.738  21.699  10.581
31658W        W91403  13.255   1.876  11.072
31659W        W91404  21.674   5.242  13.348
31660W        W91405  18.251  17.740  10.997
31661W        W91406  40.840  18.077   0.755
31662W        W91407  34.885  34.952  11.034
31663W        W91408  37.915   0.795  11.871
31664W        W91409  33.893  13.150  11.412
31665W        W91410  41.395  34.460  12.068
31666W        W91411   8.302  36.001  11.562
31667W        W91412  13.317   4.884  14.491
31668W        W91413  13.256   7.375   4.778
31669W        W91414   2.802   1.417  12.494
31670W        W91415  19.230  17.272   0.336
31671W        W91416  37.938   0.348   1.323
31672W        W91417  40.882  24.204   4.611
31673W        W91418  36.533   6.683  14.898
31674W        W91419  14.795  15.709   4.158
31675W        W91420  29.069  14.765   0.830
31676W        W91421   5.705  29.979   3.741
31677W        W91422  19.167  10.862  14.963
31678W        W91423   0.834  40.823  13.322
31679W        W91424  21.545  18.684   2.180
31680W        W91425  13.189   1.866   0.938
31681W        W91426   2.240  37.472   1.419
31682W        W91427   8.202   1.909  14.831
31683W        W91428   8.174  17.734  12.364
31684W        W91429  11.717  39.904  13.444
31685W        W91430   5.767  10.742   3.307
31686W        W91431  43.306  44.879   2.793
31687W        W91432  13.226  34.416   3.152
31688W        W91433  33.960   8.267  10.539
31689W        W91434  17.127  27.685  14.318
31690W        W91435  38.961  13.207   3.636
31691W        W91436  26.154  17.217  12.450
31692W        W91437  20.064  28.162  14.452
31693W        W91438  20.062  18.264  10.550
31694W        W91439  19.562  14.787  13.033
31695W        W91440  28.490  37.042  10.605
31696W        W91441  21.181  25.535  12.436
31697W        W91442   4.354  37.388   0.797
31698W        W91443   9.754  40.462   3.733
31699W        W91444  20.215  32.570   4.318
31700W        W91445  29.543  34.933  12.085
31701W        W91446  18.696   3.340  10.443
31702W        W91447   8.312  30.030  12.963
31703W        W91448  43.890  26.179   2.763
31704W        W91449  42.915  26.625  14.013
31705W        W91450  13.834  44.870   1.826
31706W        W91451  21.584   9.707   1.270
31707W        W91452  27.615  42.385  13.508
31708W        W91453  22.006  22.098   1.385
31709W        W91454  16.651  44.967  10.992
31710W        W91455  42.808   4.912   3.173
31711W        W91456  16.220  11.151   3.224
31712W        W91457   9.317  19.750  14.515
31713W        W91458  16.766  27.057  11.866
31714W        W91459  15.643  41.489   5.183
31715W        W91460  17.628  38.070   9.660
31716W        W91461   8.166  19.636  12.462
31717W        W91462  40.427  32.025  11.415
31718W        W91463  38.993  31.103  10.409
31719W        W91464  20.076   7.881   4.226
31720W        W91465  17.204  28.145   1.220
31721W        W91466   1.359  32.902  11.475
31722W        W91467  21.631  23.121   4.761
31723W        W91468  11.250  43.917  14.025
31724W        W91469  34.564   3.710   1.893
31725W        W91470   4.767   8.406  13.392
31726W        W91471  27.077  24.613   0.810
31727W        W91472   2.288  30.623  11.112
31728W        W91473  26.002  28.070  12.481
31729W        W91474  15.600   8.683  10.574
31730W        W91475   6.767  20.573  11.423
31731W        W91476  23.664  35.085  11.099
31732W        W91477  31.456  36.847   2.217
31733W        W91478  42.910   6.318  14.021
31734W        W91479  29.035  32.019   1.300
31735W        W91480  44.305  37.500  13.402
31736W        W91481  38.836  22.019  14.371
31737W        W91482  23.003  19.246   1.251
31738W        W91483   8.816  16.694  14.329
31739W        W91484  38.977  29.502  10.956
31740W        W91485  13.611  19.623   0.953
31741W        W91486  22.677  15.121   1.340
31742W        W91487   4.295  26.653   1.834
31743W        W91488  44.324   3.783   4.754
31744W        W91489   0.334  12.823   1.289
31745W        W91490   5.775  37.506  14.911
31746W        W91491  13.656  40.335   1.237
31747W        W91492  36.430  14.738  11.524
31748W        W91493  37.494   0.393  11.432
31749W        W91494  43.830  34.944   1.326
31750W        W91495  25.645  29.107   9.587
31751W        W91496   8.805  15.660   4.238
31752W        W91497  26.096  43.837   1.280
31753W        W91498  21.191   4.320  13.854
31754W        W91499  20.265  31.517  11.898
31755W        W91500  20.741  30.415  13.547
31756W        W91501  17.597  20.541  13.408
31757W        W91502  26.149  31.008   2.725
31758W        W91503  25.666   3.829   0.918
31759W        W91504  33.480  16.202   4.777
31760W        W91505  43.874  34.394  14.357
31761W        W91506  17.119  40.821   1.309
31762W        W91507  35.569  32.446   4.838
31763W        W91508   6.325  35.039  12.080
31764W        W91509   0.318   8.186  10.480
31765W        W91510  43.913  19.121  12.486
31766W        W91511  39.344  44.851   3.160
31767W        W91512   4.880  29.616  10.420
31768W        W91513  15.164   8.885  13.524
31769W        W91514  14.273  43.931  13.429
31770W        W91515  18.572  30.597  10.971
31771W        W91516  39.854   1.386  11.953
31772W        W91517  16.717   5.228  12.082
31773W        W91518  35.944  44.910  13.511
31774W        W91519   3.848   9.356  14.933
31775W        W91520  32.092  44.916   0.869
31776W        W91521  33.009  33.385   2.811
31777W        W91522  12.202   5.362   3.661
31778W        W91523  21.584  29.478  14.460
31779W        W91524  42.818   0.430   0.913
31780W        W91525  22.071  16.301  11.985
31781W        W91526  23.687  41.914   2.211
31782W        W91527  43.377  18.100   2.306
31783W        W91528  31.958  12.657   1.399
31784W        W91529  10.860  18.148   2.295
31785W        W91530  39.505  17.160  11.432
31786W        W91531   7.704  35.378   3.231
31787W        W91532   1.289  18.095  12.983
31788W        W91533  15.227  42.941   4.749
31789W        W91534  12.287  31.607   4.298
31790W        W91535  12.289  27.640  12.881
31791W        W91536   0.432  34.901   0.873
31792W        W91537  38.006   3.341  11.074
31793W        W91538  41.909  29.121   4.671
31794W        W91539   3.728   2.887   2.851
31795W        W91540   6.846  39.989  12.825
31796W        W91541  14.682   5.194  11.414
31797W        W91542   8.233  11.820  14.923
31798W        W91543  24.590   1.365   4.339
31799W        W91544  43.795  10.838   0.927
31800W        W91545   9.393  11.704  12.902
31801W        W91546  33.012  40.038   2.386
31802W        W91547  44.833  40.901  13.515
31803W        W91548  31.044   3.934   3.297
31804W        W91549  30.981  21.592   2.865
31805W        W91550  16.639  13.602  14.021
31806W        W91551  44.882  11.764  10.063
31807W        W91552  36.583   3.274   0.825
31808W        W91553  34.369   7.790  12.391
31809W        W91554  13.832  26.523  10.630
31810W        W91555  29.591  10.357   4.688
31811W        W91556  11.288  42.861   1.385
31812W        W91557  32.478   7.729  14.389
31813W        W91558  31.471   7.277  10.465
31814W        W91559   7.835  12.360  13.465
31815W        W91560   7.723  30.917  14.911
31816W        W91561  34.456  43.507  14.992
31817W        W91562  44.937   2.768   4.347
31818W        W91563  42.008  33.118  12.515
31819W        W91564   4.847   8.897  13.008
31820W        W91565  21.149  13.179  14.949
31821W        W91566  29.541  18.741   2.727
31822W        W91567  22.192  40.797  11.600
31823W        W91568  39.824  34.942  10.437
31824W        W91569  21.244  22.504  11.506
31825W        W91570  16.591  29.150   1.410
31826W        W91571  20.644   4.714   4.258
31827W        W91572  13.320  33.984  12.012
31828W        W91573  41.912  13.165   2.767
31829W        W91574  32.634   3.386   3.384
31830W        W91575   0.904   7.748  12.934
31831W        W91576  17.747  43.307  13.539
31832W        W91577   9.715  13.602  11.022
31833W        W91578  23.141  13.839  10.418
31834W        W91579  11.183   0.830   4.125
31835W        W91580   0.753  44.845   4.789
31836W        W91581  26.552  40.823   3.317
31837W        W91582  34.909  30.457   4.340
31838W        W91583  18.245  19.703  11.500
31839W        W91584   9.749  27.519  10.467
31840W        W91585  19.560  38.827  12.428
31841W        W91586  26.184  39.355  12.052
31842W        W91587  13.281  21.546   4.685
31843W        W91588  11.818   9.795  13.966
31844W        W91589   4.784  37.847   3.854
31845W        W91590  42.030  43.940   1.820
31846W        W91591  13.770   7.746   1.756
31847W        W91592  19.275  31.491   1.210
31848W        W91593   7.306   1.793   0.834
31849W        W91594  42.507  42.970   0.390
31850W        W91595   2.839   7.349  13.908
31851W        W91596  35.927  31.520   2.333
31852W        W91597  14.303  32.472  14.809
31853W        W91598  30.112  28.460   0.446
31854W        W91599   2.263  28.544  14.770
31855W        W91600  17.568  36.497  10.423
31856W        W91601  40.031  24.083   0.793
31857W        W91602   5.801  10.235   2.838
31858W        W91603  11.153  44.985  13.379
31859W        W91604  16.197  26.955  11.950
31860W        W91605  30.510   7.274  12.893
31861W        W91606   6.746  19.729  13.841
31862W        W91607  24.977  11.801  10.503
31863W        W91608  18.116  30.544  13.805
31864W        W91609  13.756  12.281  13.452
31865W        W91610  28.106  37.852   3.781
31866W        W91611  38.565  26.669   0.467
31867W        W91612   4.827  18.248   9.931
31868W        W91613  29.518   6.380   3.706
31869W        W91614   7.185  40.004   3.727
31870W        W91615   2.822  19.578  13.816
31871W        W91616  19.066   5.805  10.430
31872W        W91617  40.495  44.858   0.475
31873W        W91618  33.414  17.303   4.330
31874W        W91619  25.107  12.830   0.953
31875W        W91620  15.147  16.604  11.527
31876W        W91621  39.913  18.191   3.790
31877W        W91622  27.040  13.203   2.349
31878W        W91623  32.520  28.016   1.337
31879W        W91624  30.469  41.813  14.360
31880W        W91625   2.471  31.536  13.548
31881W        W91626  23.615   7.899   4.798
31882W        W91627  14.276  12.118   1.739
31883W        W91628   9.783  41.042   1.903
31884W        W91629  18.708  23.196   2.706
31885W        W91630  23.241  18.088   4.232
31886W        W91631  35.094  40.383   3.800
31887W        W91632   9.812  16.573  12.007
31888W        W91633  28.497  22.106   0.398
31889W        W91634   2.442  40.919   0.818
31890W        W91635  24.565   3.925   2.697
31891W        W91636  23.202  37.904   2.699
31892W        W91637  25.066   6.217  13.486
31893W        W91638  33.021  26.199  10.532
31894W        W91639  10.845  17.617  14.011
31895W        W91640  31.909  43.287  13.822
31896W        W91641   6.882   2.390   0.869
31897W        W91642   6.793  30.917  14.462
31898W        W91643  40.435  31.078   2.860
31899W        W91644  10.873  21.193  13.382
31900W        W91645  11.191  44.005  10.637
31901W        W91646   8.297   7.376  12.992
31902W        W91647  42.358  10.747   3.760
31903W        W91648  11.203  27.470   4.732
31904W        W91649  38.877  18.726   0.397
31905W        W91650   3.380  23.637   1.791
31906W        W91651  29.962  33.036   9.488
31907W        W91652  21.075  22.548   0.884
31908W        W91653   6.190  11.368  12.578
31909W        W91654  34.909   8.701   2.257
31910W        W91655  11.291   3.954   1.290
31911W        W91656  13.718  11.238   0.435
31912W        W91657  34.468   1.853  13.966
31913W        W91658  25.671   5.880   4.774
31914W        W91659  13.117  10.258   0.883
31915W        W91660  39.316   3.833   1.395
31916W        W91661  33.998  26.463   2.274
31917W        W91662  37.398  42.494  13.996
31918W        W91663  16.285  30.640   2.258
31919W        W91664  33.909  20.119  14.391
31920W        W91665  21.138  18.558  11.026
31921W        W91666  14.673  10.227  14.937
31922W        W91667  32.050  24.168   0.482
31923W        W91668  37.392   1.359   2.833
31924W        W91669  19.254  13.612  10.528
31925W        W91670  33.598  44.401  11.067
31926W        W91671  10.731  31.428   4.269
31927W        W91672   2.431  11.371   4.830
31928W        W91673  19.637  32.047   4.729
31929W        W91674   1.926  39.511   3.722
31930W        W91675  25.527  32.927  10.067
31931W        W91676  39.510  28.613   2.674
31932W        W91677  13.241  10.176  14.009
31933W        W91678  15.775  10.691  14.898
31934W        W91679  10.341  37.541  14.369
31935W        W91680  41.897   2.394   4.714
31936W        W91681  13.164   2.790   0.814
31937W        W91682  23.172   7.332   3.850
31938W        W91683   3.428  22.225   4.814
31939W        W91684   0.309  32.026   2.674
31940W        W91685  44.279  23.551   9.953
31941W        W91686   8.760   4.239  12.089
31942W        W91687   9.669  26.647  14.766
31943W        W91688  26.613  15.118  14.929
31944W        W91689  39.942   8.815   2.804
31945W        W91690  21.261  37.547  14.467
31946W        W91691   6.769  16.681  11.043
31947W        W91692  11.338  20.228   1.445
31948W        W91693  30.563   7.715   0.379
31949W        W91694  41.340  21.607   2.245
31950W        W91695  41.527  27.678  11.596
31951W        W91696  35.056   7.325   4.671
31952W        W91697  33.527   7.713   2.712
31953W        W91698  27.036  36.016   3.705
31954W        W91699  32.057  36.004   2.320
31955W        W91700  34.121  27.182  14.973
31956W        W91701   9.151  22.088  12.948
31957W        W91702  17.160  38.011   2.330
31958W        W91703  22.046  27.197  12.064
31959W        W91704  13.194  16.660  13.480
31960W        W91705   5.379   5.263   0.328
31961W        W91706  40.513  25.024   3.630
31962W        W91707   5.351   1.404   4.269
31963W        W91708  14.094  39.464   2.303
31964W        W91709  40.048  31.946  14.910
31965W        W91710  20.581  18.757   1.380
31966W        W91711  32.434  30.539  12.958
31967W        W91712  19.119  18.064   3.670
31968W        W91713  40.994  22.109  14.932
31969W        W91714  37.005  25.646  12.369
31970W        W91715   2.246   8.304   2.323
31971W        W91716  37.521  11.735  13.469
31972W        W91717  41.462  11.706  10.446
31973W        W91718   4.260  21.517  12.887
31974W        W91719  12.302   6.204   2.193
31975W        W91720  12.722  23.086  11.080
31976W        W91721   4.703   7.413  13.861
31977W        W91722  42.949  37.349   4.632
31978W        W91723   3.900  23.216  11.520
31979W        W91724  38.862  12.330  11.071
31980W        W91725   6.776  20.082  11.972
31981W        W91726   1.746  43.999   3.291
31982W        W91727  24.097  20.679  10.517
31983W        W91728  18.739  12.696  13.803
31984W        W91729  32.634  16.221   2.298
31985W        W91730   7.282   3.360  13.968
31986W        W91731  15.202  21.586  13.453
31987W        W91732  17.780  16.151   3.708
31988W        W91733  31.615  39.929  12.868
31989W        W91734   5.862  23.517  14.942
31990W        W91735   6.257  17.634  13.961
31991W        W91736  35.473  36.468  13.059
31992W        W91737  37.337  25.661   3.748
31993W        W91738  22.632  42.394  14.389
31994W        W91739  42.928  30.428   0.799
31995W        W91740   7.720  11.862  12.537
31996W        W91741  44.915  25.651   1.436
31997W        W91742  24.560  28.161  11.046
31998W        W91743  39.405  35.938  13.975
31999W        W91744  34.023  34.544  10.493
32000W        W91745  18.649   2.912  13.843
32001W        W91746  44.264  34.608   3.156
32002W        W91747  35.460   9.380   2.297
32003W        W91748  30.092  30.651  12.004
32004W        W91749  33.467  23.662   2.397
32005W        W91750   1.385  43.815   0.867
32006W        W91751  27.517  33.940  14.013
32007W        W91752  16.120  12.180   1.414
32008W        W91753  27.117  22.624   2.238
32009W        W91754  37.464  19.651   0.832
32010W        W91755  25.601  18.653  11.551
32011W        W91756  11.294   0.345  12.977
32012W        W91757   6.781  40.004  11.063
32013W        W91758  31.483  11.172   2.376
32014W        W91759  33.983  22.142   2.900
32015W        W91760  29.034  16.802   0.294
32016W        W91761  14.171  21.066   2.330
32017W        W91762  44.840  27.942   5.170
32018W        W91763  35.572  19.564  14.432
32019W        W91764  10.708   0.372   0.748
32020W        W91765   8.883  26.179   1.763
32021W        W91766   9.271  14.653  13.833
32022W        W91767  42.909  31.909   3.370
32023W        W91768  20.045  36.058  10.490
32024W        W91769  18.572  12.351   1.883
32025W        W91770  34.969   7.854  14.452
32026W        W91771  36.530  20.082   2.357
32027W        W91772  44.897  37.885  11.888
32028W        W91773  12.736  41.530   4.249
32029W        W91774  17.740  14.658  13.391
32030W        W91775  29.943   5.771   0.282
32031W        W91776  15.783   3.925  14.013
32032W        W91777  34.065  40.407  14.888
32033W        W91778  15.232   5.779   1.395
32034W        W91779  28.041  31.954  12.524
32035W        W91780  36.951  12.131  12.536
32036W        W91781  20.682  19.553  13.339
32037W        W91782  22.643   6.272  12.408
32038W        W91783  41.312   0.470   2.307
32039W        W91784  37.875   0.923  10.627
32040W        W91785  39.470   8.881  11.424
32041W        W91786  12.771  30.975   1.365
32042W        W91787  34.873   1.242  11.953
32043W        W91788  16.118  23.539  11.034
32044W        W91789  13.202  15.244  13.947
32045W        W91790  27.080  29.438  11.011
32046W        W91791  33.049  27.601   1.700
32047W        W91792   3.783   2.770  10.446
32048W        W91793   2.826  29.080   3.863
32049W        W91794  44.450  36.917  14.833
32050W        W91795  30.112   7.884   0.270
32051W        W91796  40.323  14.725  11.106
32052W        W91797  23.207  22.686  12.031
32053W        W91798  13.278  32.918  11.979
32054W        W91799  28.072  14.137  11.537
32055W        W91800  29.112  41.387  13.033
32056W        W91801  13.126   8.828  12.443
32057W        W91802  44.392   5.268  11.426
32058W        W91803  20.703   1.756  13.421
32059W        W91804  12.294  41.838   4.612
32060W        W91805  39.524  16.614   2.336
32061W        W91806   1.951  39.920  10.963
32062W        W91807  19.619  40.306   5.304
32063W        W91808   6.724  15.616  13.932
32064W        W91809  20.240  13.846  13.921
32065W        W91810  23.106  17.095  13.843
32066W        W91811  17.761  37.412   3.761
32067W        W91812  19.123  22.148   2.219
32068W        W91813  36.067  34.516  13.857
32069W        W91814   5.891  26.009  10.479
32070W        W91815  32.614   9.396   0.750
32071W        W91816  24.483  44.956   4.724
32072W        W91817   4.346   7.877  13.991
32073W        W91818   8.761   7.221  14.359
32074W        W91819  40.505  14.676  12.929
32075W        W91820  20.726   2.924   1.875
32076W        W91821  17.135   0.472   0.411
32077W        W91822  24.142   6.788   3.724
32078W        W91823   4.220  18.733   2.210
32079W        W91824   9.317  41.999  11.476
32080W        W91825  43.511   6.807   1.340
32081W        W91826  30.424  32.139   1.397
32082W        W91827  14.826  21.559   0.802
32083W        W91828  24.670   5.805  11.969
32084W        W91829  34.997  32.623  14.404
32085W        W91830  18.201  27.542   1.395
32086W        W91831   1.265  35.399  14.852
32087W        W91832   2.299  11.732  12.081
32088W        W91833   7.242  38.417   0.817
32089W        W91834  37.077   5.238   1.262
32090W        W91835   0.890  42.521  12.411
32091W        W91836  29.964  38.955   4.737
32092W        W91837  16.597  36.044   5.218
32093W        W91838  19.079  29.468  11.882
32094W        W91839   1.798  14.726  13.384
32095W        W91840  36.445  12.316   0.477
32096W        W91841  36.907  22.191   3.742
32097W        W91842  44.863  27.456  12.960
32098W        W91843  32.957  16.812  11.944
32099W        W91844  13.254  41.939   4.788
32100W        W91845  40.366  27.644  11.934
32101W        W91846  34.909  18.674   2.854
32102W        W91847   4.424  31.480   1.807
32103W        W91848   4.770   6.422  14.808
32104W        W91849  37.874  42.412   4.234
32105W        W91850  29.157  26.157  11.546
32106W        W91851   2.349   9.811  12.023
32107W        W91852  41.306  27.486   2.759
32108W        W91853  14.626  16.150   2.701
32109W        W91854  30.074   3.744  13.489
32110W        W91855  36.866  17.702   2.301
32111W        W91856  22.746   5.235   3.652
32112W        W91857   6.188  16.646   4.688
32113W        W91858  28.559  40.945   0.748
32114W        W91859  36.577  44.839  11.395
32115W        W91860   6.812  15.664   5.081
32116W        W91861  40.517  41.458  12.516
32117W        W91862  25.022  21.042   3.730
32118W        W91863  22.707   4.444   0.261
32119W        W91864  34.580  39.021  10.559
32120W        W91865  30.551  15.584  14.459
32121W        W91866   9.367   6.911   0.794
32122W        W91867  44.849  39.058   2.751
32123W        W91868   6.823  21.119  13.514
32124W        W91869  42.963  19.764   0.420
32125W        W91870   3.352  17.635   5.174
32126W        W91871  25.172  20.211  14.894
32127W        W91872   6.754  44.440  12.373
32128W        W91873   0.285  11.682  14.979
32129W        W91874  42.009  29.038   0.812
32130W        W91875  35.890  18.741  14.392
32131W        W91876  14.306  23.643  10.413
32132W        W91877  11.279  29.108   3.825
32133W        W91878  10.306  14.752  14.411
32134W        W91879  25.157  26.524   3.158
32135W        W91880  31.505  10.284   3.272
32136W        W91881  15.663   5.767  14.853
32137W        W91882  15.584  29.620  14.913
32138W        W91883  27.069  22.132  10.506
32139W        W91884   7.888  11.857   3.843
32140W        W91885  27.979  24.198  14.917
32141W        W91886  16.101   4.815   1.740
32142W        W91887  37.047  36.357  14.828
32143W        W91888  10.669  31.467   3.322
32144W        W91889  37.425  24.724   0.246
32145W        W91890  14.098  20.257   3.183
32146W        W91891  31.447  37.951   4.268
32147W        W91892   7.713   8.218   2.696
32148W        W91893   3.331  22.679   1.754
32149W        W91894  31.644  33.460   1.774
32150W        W91895  36.523   7.243   2.838
32151W        W91896  17.140  40.411   1.734
32152W        W91897  14.747  23.656   0.286
32153W        W91898  21.124   7.841  13.040
32154W        W91899  22.647  43.862   1.857
32155W        W91900   9.858  17.074  12.569
32156W        W91901  16.698   4.784  12.513
32157W        W91902   5.269  25.178  11.082
32158W        W91903  39.336   6.366  12.961
32159W        W91904  41.934  29.953   1.417
32160W        W91905   2.807  17.659   1.934
32161W        W91906  41.508  42.025   0.921
32162W        W91907  15.114  30.601  11.049
32163W        W91908  38.841  10.346  14.987
32164W        W91909  43.954   3.381   0.761
32165W        W91910  13.184   2.429   5.216
32166W        W91911   4.758  23.702  11.484
32167W        W91912   6.863   2.735   4.751
32168W        W91913  30.605  15.160  12.896
32169W        W91914   9.840  32.944  10.613
32170W        W91915   6.244   7.753   1.316
32171W        W91916  21.577   6.748  11.121
32172W        W91917  38.419  42.003  10.992
32173W        W91918   3.260  42.910   1.268
32174W        W91919  43.773   2.408  12.981
32175W        W91920  17.080  11.225   1.411
32176W        W91921  41.493  30.659   4.665
32177W        W91922   1.272  44.404  12.015
32178W        W91923   9.223  33.063  13.890
32179W        W91924  29.548  43.866  14.827
32180W        W91925  15.680  10.207  10.598
32181W        W91926  30.599  41.808  12.011
32182W        W91927   2.957   0.474   2.378
32183W        W91928  41.886  12.128   1.400
32184W        W91929   3.348  22.532  14.470
32185W        W91930  19.702   7.723   1.792
32186W        W91931  28.596   7.233  13.425
32187W        W91932   5.346  21.725  11.002
32188W        W91933  31.033  36.855   2.290
32189W        W91934  36.406  35.988   4.624
32190W        W91935  34.589  32.633   2.247
32191W        W91936  23.204   1.311   5.164
32192W        W91937   5.900  39.869   0.790
32193W        W91938  33.077   4.424  13.887
32194W        W91939  23.656  15.627  11.886
32195W        W91940  14.110  38.356  13.977
32196W        W91941  18.771   2.321   3.859
32197W        W91942  35.858  39.454   2.413
32198W        W91943  17.146   6.278  12.423
32199W        W91944  22.072   6.194  11.943
32200W        W91945  43.391   9.331   4.753
32201W        W91946  34.951  16.730   3.338
32202W        W91947  34.960   2.797  13.971
32203W        W91948  43.380  17.252   4.351
32204W        W91949   2.890   4.888   4.788
32205W        W91950  19.618  19.058   0.362
32206W        W91951  41.844  29.947   2.375
32207W        W91952  14.252   1.798  12.847
32208W        W91953  41.871  36.572   3.239
32209W        W91954  41.494  33.108  13.795
32210W        W91955  25.125  30.604  12.580
32211W        W91956  31.423  38.548  11.562
32212W        W91957   6.730   8.195   2.314
32213W        W91958  16.757  31.959   0.871
32214W        W91959   7.411   5.394   3.260
32215W        W91960  27.017  34.067   1.868
32216W        W91961  39.810  22.084   4.125
32217W        W91962  19.275  19.249   1.931
32218W        W91963  22.078  32.513  12.850
32219W        W91964  17.706  11.756   1.267
32220W        W91965  43.864   2.467   1.322
32221W        W91966   7.725  43.837   1.266
32222W        W91967  41.870  36.445   2.796
32223W        W91968  33.565   8.853  10.128
32224W        W91969  41.865  28.020   2.319
32225W        W91970  22.150  10.692  11.906
32226W        W91971   2.333  39.849   4.122
32227W        W91972  15.173   1.475  14.000
32228W        W91973  10.813  39.339   4.331
32229W        W91974   1.844  34.040   0.821
32230W        W91975  16.578   5.739  14.841
32231W        W91976  17.302  26.046  10.587
32232W        W91977  20.263  33.417   3.860
32233W        W91978  27.684  23.028  13.530
32234W        W91979   4.873   5.842   0.449
32235W        W91980  30.154  20.603  13.351
32236W        W91981  14.714  40.440   5.087
32237W        W91982  37.944  21.062  13.831
32238W        W91983  24.036   5.873   2.297
32239W        W91984   5.800  21.624  12.022
32240W        W91985  12.764  28.145   1.874
32241W        W91986  24.203   6.806   3.324
32242W        W91987  24.488  10.332   0.270
32243W        W91988  25.621  21.574  11.041
32244W        W91989   9.822  21.031  12.058
32245W        W91990  14.246  21.187   1.443
32246W        W91991  35.889   5.223  13.385
32247W        W91992  43.327  21.547  11.889
32248W        W91993  26.986   0.407  11.098
32249W        W91994  41.033  33.598  10.538
32250W        W91995  26.470  41.031   0.262
32251W        W91996  25.701  28.493  10.990
32252W        W91997  18.257  15.182   4.793
32253W        W91998  10.367  14.233  12.863
32254W        W91999  11.324  36.452  13.910
32255W        W92000  37.359   1.818  11.024
32256W        W92001  14.615  36.954  11.986
32257W        W92002  24.519  34.031   1.836
32258W        W92003  42.838  44.331  13.360
32259W        W92004  11.252  41.803  11.078
32260W        W92005  22.594  25.559   0.812
32261W        W92006  27.976   5.889  13.459
32262W        W92007  16.684  22.177   0.479
32263W        W92008  27.982  40.012  11.863
32264W        W92009  42.882   1.273   4.304
32265W        W92010   7.369   2.465  14.805
32266W        W92011  25.702   2.830   4.155
32267W        W92012  18.574  24.525  10.634
32268W        W92013  24.618  27.056   0.806
32269W        W92014  13.743  20.037   0.818
32270W        W92015  42.391  26.966   4.696
32271W        W92016   2.244   4.807   2.348
32272W        W92017  43.300  39.015   0.867
32273W        W92018   5.215   7.402  12.567
32274W        W92019   3.864   9.278  12.057
32275W        W92020  42.958  19.165   2.317
32276W        W92021   2.785  28.130   1.856
32277W        W92022   2.871  31.923   1.761
32278W        W92023  21.726  44.438   2.773
32279W        W92024  43.818   8.744   5.242
32280W        W92025  39.425  36.018  11.987
32281W        W92026   8.351  23.590  13.450
32282W        W92027  11.675  28.172  12.934
32283W        W92028  12.122  40.053  10.473
32284W        W92029  34.390  41.397  11.077
32285W        W92030  33.074  17.130   1.364
32286W        W92031  33.046  11.373  12.094
32287W        W92032  26.503  11.623  14.280
32288W        W92033  14.201  40.428   0.920
32289W        W92034   6.914   7.800  14.450
32290W        W92035  28.492  22.616   0.246
32291W        W92036  39.402  10.147  12.474
32292W        W92037  26.142  12.773   0.264
32293W        W92038  24.134  16.173  14.875
32294W        W92039   7.193  40.999  14.379
32295W        W92040  10.865  15.651   0.379
32296W        W92041   9.261   4.698  13.005
32297W        W92042  19.609  42.820   1.851
32298W        W92043  25.652  43.366  11.466
32299W        W92044  30.113  26.172   0.435
32300W        W92045   9.152  17.276   2.718
32301W        W92046  30.165  35.489  13.815
32302W        W92047  42.980   1.876  14.277
32303W        W92048  13.204   5.240  14.953
32304W        W92049  17.123  43.917   2.883
32305W        W92050  15.626  44.993  11.447
32306W        W92051  27.122   8.194  10.984
32307W        W92052  44.912  33.496  11.996
32308W        W92053   2.809  28.555   3.236
32309W        W92054  23.099  44.460   2.228
32310W        W92055   5.222  25.188   3.672
32311W        W92056  19.755   8.876  13.354
32312W        W92057  17.106   8.732   3.736
32313W        W92058  32.409  15.612  12.825
32314W        W92059   0.372  37.503  14.915
32315W        W92060  40.955  28.018   4.715
32316W        W92061  11.222  34.050  14.863
32317W        W92062  28.118   4.750  11.059
32318W        W92063   6.275  14.133   4.662
32319W        W92064  35.557   8.819  12.444
32320W        W92065  21.023   8.809   3.330
32321W        W92066   6.248   5.749   3.261
32322W        W92067  30.965  25.037  12.463
32323W        W92068  17.719  13.754   3.682
32324W        W92069  13.724  18.211  14.925
32325W        W92070  12.700  39.530  14.487
32326W        W92071  37.928  43.319  13.895
32327W        W92072   2.289  10.264  12.848
32328W        W92073  11.154  25.059  10.444
32329W        W92074  40.997  21.647  12.538
32330W        W92075  33.947   6.786  12.402
32331W        W92076  41.928  33.625   1.444
32332W        W92077  12.660  30.011   4.343
32333W        W92078  37.037  38.017  11.532
32334W        W92079  29.120   4.411   4.224
32335W        W92080  12.712   5.358  10.507
32336W        W92081  43.767   0.926  12.080
32337W        W92082   8.317  16.727  12.063
32338W        W92083  39.436   1.834  13.062
32339W        W92084  25.024  20.094   3.258
32340W        W92085  26.965  16.076   2.724
32341W        W92086   2.408  11.226  14.833
32342W        W92087   3.443  12.709   4.795
32343W        W92088  15.702  26.203   3.316
32344W        W92089  15.668  22.715  12.442
32345W        W92090  20.766   0.847   0.388
32346W        W92091  11.827  39.857   4.630
32347W        W92092  40.901  26.666  13.849
32348W        W92093  41.821  35.013   3.846
32349W        W92094  43.425  10.254  10.444
32350W        W92095  43.764  27.065   1.306
32351W        W92096  21.654  36.990   4.773
32352W        W92097   7.383  18.092  13.907
32353W        W92098   3.783  26.572   4.759
32354W        W92099  40.970  29.056  14.947
32355W        W92100  30.637   8.371   0.475
32356W        W92101  33.502  29.918  11.547
32357W        W92102   2.382  30.507  13.482
32358W        W92103   0.380  30.461   3.640
32359W        W92104  23.054  40.470  12.085
32360W        W92105  23.059  35.406   4.812
32361W        W92106   0.334  44.952  10.977
32362W        W92107  18.094  34.418  14.881
32363W        W92108  34.074  26.169   1.915
32364W        W92109  14.224  43.355   3.836
32365W        W92110  37.471  17.788  12.062
32366W        W92111  27.610  14.813   4.256
32367W        W92112  28.593  20.691   2.193
32368W        W92113  31.648  31.991  10.594
32369W        W92114   0.380  14.175  12.340
32370W        W92115  22.737  21.736   0.413
32371W        W92116  39.835  18.266   4.344
32372W        W92117  16.601  16.638  12.009
32373W        W92118  25.623  38.023  11.535
32374W        W92119   0.296  42.032   1.427
32375W        W92120  19.255   9.349  13.426
32376W        W92121  24.071  38.881  10.495
32377W        W92122  43.271  22.529   4.340
32378W        W92123  28.581   4.722  14.363
32379W        W92124  14.634  13.756  12.354
32380W        W92125   9.379  36.878   1.924
32381W        W92126  40.840  17.730  11.446
32382W        W92127  41.813  38.498   3.678
32383W        W92128  32.933  22.106   3.177
32384W        W92129  15.282  21.718   0.785
32385W        W92130  15.255   3.436  10.503
32386W        W92131   8.754  35.516  11.938
32387W        W92132  31.504   4.211   0.359
32388W        W92133  38.534   7.224  14.864
32389W        W92134  42.806  17.201  13.954
32390W        W92135  34.453   4.310   5.659
32391W        W92136   3.412  35.061   1.445
32392W        W92137  12.246   3.830   2.191
32393W        W92138  23.553  40.817  11.982
32394W        W92139  30.472  28.932   3.182
32395W        W92140  16.680  41.854  12.863
32396W        W92141  23.691  17.612   3.261
32397W        W92142  33.096   5.915   2.349
32398W        W92143  23.561  42.407  13.842
32399W        W92144  24.124  42.438  13.800
32400W        W92145   8.355  43.766   0.940
32401W        W92146  24.701  17.188  12.044
32402W        W92147  36.867  13.158   1.429
32403W        W92148  16.282   9.153   2.691
32404W        W92149  27.164  39.867   4.260
32405W        W92150   4.897  10.633  13.999
32406W        W92151  39.348  23.695  12.560
32407W        W92152  13.164  19.146   1.430
32408W        W92153   2.922   7.892   0.323
32409W        W92154  25.521  29.607   1.410
32410W        W92155  41.036  29.972   4.789
32411W        W92156   1.237  40.482   2.737
32412W        W92157   5.200   4.904   2.220
32413W        W92158  10.642  32.925  10.527
32414W        W92159   1.374  31.406   1.753
32415W        W92160  42.463  37.386   4.653
32416W        W92161  27.015   5.320  10.929
32417W        W92162   4.425  14.643   4.240
32418W        W92163  17.080  16.800  12.491
32419W        W92164  26.045  34.589   0.311
32420W        W92165   0.847  34.105   1.918
32421W        W92166  13.723   3.721   1.848
32422W        W92167  11.144  30.602   0.356
32423W        W92168  42.957  33.905   3.264
32424W        W92169  11.859  29.005   1.320
32425W        W92170   5.384  20.693  12.443
32426W        W92171  27.572  40.026   4.261
32427W        W92172  22.712  16.705   2.733
32428W        W92173  25.646   8.785   3.174
32429W        W92174   4.206   7.312  13.440
32430W        W92175  29.126  16.199  14.409
32431W        W92176  11.269  40.508  13.830
32432W        W92177  24.565  32.514  12.519
32433W        W92178   6.752  18.739  13.995
32434W        W92179   6.212  20.171   4.278
32435W        W92180   5.347  35.557   3.171
32436W        W92181  14.628  43.335   0.866
32437W        W92182  40.807  28.149  12.549
32438W        W92183   0.893  15.810  10.470
32439W        W92184  36.486  10.214  13.905
32440W        W92185  30.150   0.353   0.386
32441W        W92186  35.423   7.826   3.830
32442W        W92187  22.074  16.628   0.384
32443W        W92188  28.081  25.663   1.809
32444W        W92189  41.843  41.508   9.999
32445W        W92190  36.855   9.713   0.733
32446W        W92191  13.665  36.924  10.600
32447W        W92192  23.163  30.419   2.868
32448W        W92193  17.139  12.633  10.431
32449W        W92194  36.461  21.749   1.387
32450W        W92195  18.596  23.213  12.454
32451W        W92196   8.792  10.700  12.020
32452W        W92197  23.509  17.583   4.702
32453W        W92198  44.860  37.843  12.425
32454W        W92199  11.207   7.193   3.676
32455W        W92200  28.523   6.790   1.444
32456W        W92201  39.872  16.767   1.257
32457W        W92202  31.924  35.915  12.969
32458W        W92203  15.628   1.881  13.315
32459W        W92204  30.003  39.417  14.277
32460W        W92205   2.885  31.896  12.517
32461W        W92206  18.116  13.273  13.520
32462W        W92207   3.278   9.395  11.611
32463W        W92208   2.783  31.584   1.710
32464W        W92209  26.653  16.729   3.728
32465W        W92210  26.015  41.456  12.393
32466W        W92211  43.357  16.715  11.065
32467W        W92212  22.668  26.098  14.392
32468W        W92213   6.841  24.507   2.860
32469W        W92214  35.854  35.916  10.630
32470W        W92215  35.481  44.796   3.305
32471W        W92216  18.725  30.551   2.243
32472W        W92217  32.996   8.346   3.375
32473W        W92218  23.011  28.170   3.361
32474W        W92219  27.527  11.734   2.237
32475W        W92220   3.890  25.003   0.316
32476W        W92221  23.041  30.930   2.806
32477W        W92222   0.291  36.981   2.774
32478W        W92223  32.001  43.296   3.867
32479W        W92224  17.747   1.379  12.084
32480W        W92225   1.840  31.483  11.123
32481W        W92226  38.062  41.852  12.421
32482W        W92227  26.161  34.512   4.134
32483W        W92228  40.369  32.077   0.271
32484W        W92229  35.364   1.732  12.370
32485W        W92230  44.373  41.379  11.880
32486W        W92231   5.243  23.736  11.379
32487W        W92232  19.172   9.833  14.935
32488W        W92233  18.778   9.390   0.737
32489W        W92234  18.078  38.076  13.960
32490W        W92235  20.124  20.562   2.704
32491W        W92236   6.897   9.797  12.948
32492W        W92237   1.370   3.458   0.447
32493W        W92238  32.449  22.137  14.474
32494W        W92239  18.119  13.603   3.284
32495W        W92240   2.806  44.961   1.365
32496W        W92241  42.872  36.590  10.560
32497W        W92242   2.456  28.162   4.724
32498W        W92243   7.276   2.909  14.893
32499W        W92244  38.395  36.022  11.087
32500W        W92245   2.880   7.233  10.432
32501W        W92246  25.025  30.469  14.916
32502W        W92247  40.350  36.542  13.900
32503W        W92248  38.022  44.860   3.670
32504W        W92249  39.495  25.025  14.282
32505W        W92250  33.969  38.389  10.476
32506W        W92251  38.874   5.240   1.359
32507W        W92252  39.989  42.931  14.913
32508W        W92253  28.022  42.494  14.954
32509W        W92254  12.701  31.486  13.981
32510W        W92255  20.058  34.416  12.020
32511W        W92256  30.468  15.195   0.760
32512W        W92257  40.383  33.879   2.310
32513W        W92258   7.806   0.385  14.939
32514W        W92259  27.680  26.973  13.946
32515W        W92260  17.573  40.843  12.443
32516W        W92261  27.568  15.817  11.416
32517W        W92262  27.039  42.960   0.366
32518W        W92263  19.586   7.283   3.765
32519W        W92264  12.658  44.443  12.074
32520W        W92265  43.426   0.305   1.769
32521W        W92266  44.260  33.921   2.705
32522W        W92267  12.122  16.259  10.565
32523W        W92268  24.629  26.054  14.500
32524W        W92269  41.003  32.610   3.724
32525W        W92270  36.554  34.877  14.366
32526W        W92271  19.534  37.001  10.999
32527W        W92272  24.662  42.837  11.017
32528W        W92273   3.411  14.164   4.641
32529W        W92274  23.532  11.623   3.816
32530W        W92275  40.427  12.687  14.837
32531W        W92276  22.618   6.824   0.899
32532W        W92277  27.127  27.475   2.844
32533W        W92278  43.907  41.979  12.405
32534W        W92279  41.835  27.658  14.336
32535W        W92280  11.140  40.995   4.147
32536W        W92281   0.260   5.756   0.732
32537W        W92282  25.086  22.122  12.450
32538W        W92283  13.246  32.102  14.299
32539W        W92284  42.497  44.478   3.777
32540W        W92285  30.412   0.439   0.388
32541W        W92286   7.821  22.236   3.146
32542W        W92287   5.819  23.682  10.950
32543W        W92288  30.991  33.591  11.912
32544W        W92289  13.150  12.752   0.748
32545W        W92290  16.805  10.671  14.904
32546W        W92291  21.521  28.546  12.056
32547W        W92292  34.042  27.013  12.502
32548W        W92293  39.456  16.677  14.843
32549W        W92294   3.283  33.113  10.605
32550W        W92295  44.761  26.627   2.190
32551W        W92296  22.743   5.316  13.881
32552W        W92297  29.011  26.082   2.318
32553W        W92298  16.146   9.189  12.377
32554W        W92299  18.090  26.682   3.345
32555W        W92300  26.532  44.007  14.307
32556W        W92301  31.559  43.922  12.875
32557W        W92302  44.882  28.025   1.316
32558W        W92303  31.482  43.972  14.510
32559W        W92304  30.494   8.884   0.958
32560W        W92305   8.810  40.045   4.674
32561W        W92306   2.248  14.212  10.091
32562W        W92307  42.374  41.877  10.638
32563W        W92308  14.638  22.138  12.495
32564W        W92309   6.376   6.913   3.165
32565W        W92310  37.853   2.807   4.277
32566W        W92311  20.731  20.222  14.361
32567W        W92312   3.755   2.738  14.993
32568W        W92313  42.408  38.907   4.647
32569W        W92314  22.513  27.045   4.122
32570W        W92315  31.565   8.679  11.104
32571W        W92316  24.050   0.921  13.389
32572W        W92317  26.011  22.093   1.395
32573W        W92318  17.153  39.050  12.530
32574W        W92319  33.949  31.924   1.337
32575W        W92320  31.548  20.153   2.405
32576W        W92321   0.986  24.543   3.264
32577W        W92322   9.393  39.880  14.998
32578W        W92323  14.339   5.756   3.751
32579W        W92324  13.118  28.551   2.825
32580W        W92325  19.712  39.009  10.488
32581W        W92326   0.486  16.226   4.732
32582W        W92327  23.100  42.942   0.277
32583W        W92328  43.368  34.424  14.441
32584W        W92329   7.365  12.670   0.864
32585W        W92330  17.224  36.062  12.482
32586W        W92331  23.006  22.564  11.126
32587W        W92332  43.359  10.856   3.631
32588W        W92333  21.551  26.097  12.390
32589W        W92334  16.698  34.884   2.339
32590W        W92335   3.757   5.823   2.667
32591W        W92336   3.240  13.846   3.153
32592W        W92337   1.360  40.986  10.568
32593W        W92338  15.821  36.522  12.871
32594W        W92339  38.988  13.742  13.339
32595W        W92340  17.305  34.527  10.126
32596W        W92341  11.176   5.695   4.288
32597W        W92342   0.968  36.475   5.782
32598W        W92343  23.719  27.110   4.663
32599W        W92344   6.722   4.736  13.516
32600W        W92345  38.015  15.284   3.737
32601W        W92346  42.014  31.926  10.626
32602W        W92347  14.224  24.203  11.948
32603W        W92348  22.686  14.608   1.753
32604W        W92349  31.612   0.349   0.391
32605W        W92350  36.569   6.758  12.407
32606W        W92351   0.406   4.236  13.521
32607W        W92352  22.251  25.672  13.356
32608W        W92353  31.568  37.944  10.485
32609W        W92354  24.556  30.451   1.755
32610W        W92355  42.899   2.428   2.860
32611W        W92356  31.025  22.694  11.448
32612W        W92357   2.442  33.400   1.242
32613W        W92358   0.269   9.265  10.986
32614W        W92359  33.517  43.439  12.986
32615W        W92360  13.623  43.496   2.358
32616W        W92361  39.028  11.257   3.733
32617W        W92362  35.109   1.268  12.382
32618W        W92363  11.758  25.005  13.946
32619W        W92364  36.058   0.412  14.915
32620W        W92365   7.210  26.554   0.307
32621W        W92366  12.154  23.649   3.636
32622W        W92367  14.210  43.290  12.040
32623W        W92368   9.150  38.365  13.965
32624W        W92369  34.534  31.097   4.704
32625W        W92370  38.490   5.220  13.449
32626W        W92371  25.008  34.554  13.324
32627W        W92372  36.352  23.239   4.683
32628W        W92373  31.476   0.907  12.030
32629W        W92374  17.150  39.331  13.829
32630W        W92375  28.613  25.648   4.655
32631W        W92376  16.629  42.497   0.813
32632W        W92377  25.557  36.368   3.256
32633W        W92378  13.828  33.395   3.808
32634W        W92379  32.444  14.777   1.372
32635W        W92380  33.942  28.511   4.628
32636W        W92381  32.424  11.299  14.831
32637W        W92382  27.098   6.193   1.363
32638W        W92383   2.772  37.924  12.856
32639W        W92384  37.059  18.591  13.816
32640W        W92385  34.559   6.839  12.011
32641W        W92386  39.047  36.058  14.958
32642W        W92387  36.482   7.231   2.182
32643W        W92388  16.672   6.870  11.514
32644W        W92389  31.110  33.108  11.858
32645W        W92390  38.922  22.040  13.380
32646W        W92391  32.018   3.274  11.532
32647W        W92392  29.036  10.268   4.221
32648W        W92393  28.949  43.333   4.122
32649W        W92394  37.887   3.757  12.435
32650W        W92395  32.942   3.368  10.922
32651W        W92396  18.596  11.205  12.080
32652W        W92397  42.975   0.743   0.351
32653W        W92398  25.599  16.209   0.268
32654W        W92399  15.291  29.495   3.694
32655W        W92400  38.384  22.555  13.035
32656W        W92401  23.568  28.443  13.945
32657W        W92402  22.627   8.690   5.273
32658W        W92403   6.895  30.609   1.728
32659W        W92404  31.575   9.248   2.284
32660W        W92405  39.910   9.760  12.474
32661W        W92406  41.498   0.773  13.385
32662W        W92407  40.447  42.456  13.374
32663W        W92408   7.674  19.112  13.342
32664W        W92409  22.240  19.630  10.995
32665W        W92410  25.140  39.513  13.040
32666W        W92411  32.591  44.445   2.820
32667W        W92412   9.353  19.602  10.000
32668W        W92413  17.254  16.801   3.216
32669W        W92414  33.066  42.330   4.325
32670W        W92415  10.801  18.672   1.894
32671W        W92416  43.896  12.359   4.116
32672W        W92417  35.026  29.510   4.226
32673W        W92418  39.390  11.283   3.350
32674W        W92419  32.610  19.540  12.028
32675W        W92420  38.539   4.335   1.779
32676W        W92421  10.797  36.521  12.867
32677W        W92422  37.047   0.787  12.404
32678W        W92423  43.315  34.101   0.748
32679W        W92424  36.876  35.364  10.996
32680W        W92425  25.550   1.461  14.510
32681W        W92426  34.473  31.425   1.367
32682W        W92427  43.360  23.136   3.166
32683W        W92428   3.226   3.714   1.798
32684W        W92429  24.046  40.835  11.419
32685W        W92430  17.076  29.477   5.279
32686W        W92431  10.244  17.249  12.919
32687W        W92432  41.494  25.138  13.966
32688W        W92433  10.673  38.503  10.905
32689W        W92434  22.502   5.736   1.773
32690W        W92435   0.832  28.555   1.724
32691W        W92436  27.656   1.257   3.752
32692W        W92437   9.329  32.032  13.317
32693W        W92438  18.567   5.843   2.859
32694W        W92439  15.222   3.821   1.344
32695W        W92440  16.116  39.989   0.410
32696W        W92441  22.562   9.377  12.405
32697W        W92442  17.669  22.536   0.457
32698W        W92443  16.683  21.064   2.263
32699W        W92444  32.032  18.636   1.274
32700W        W92445  12.121   7.829   1.737
32701W        W92446  33.072   5.878  10.500
32702W        W92447   7.908   2.290  11.514
32703W        W92448  31.553   9.273  11.063
32704W        W92449  31.968  12.819  12.526
32705W        W92450  32.620  35.946  10.559
32706W        W92451   7.281  13.835  11.911
32707W        W92452  35.043  11.325   0.797
32708W        W92453  40.511  43.901   3.840
32709W        W92454  44.370  37.045  11.393
32710W        W92455  14.180  12.357  11.558
32711W        W92456  14.723  34.925   2.396
32712W        W92457  15.168  26.006   3.306
32713W        W92458   1.898   4.752  11.481
32714W        W92459  30.485   1.805  10.951
32715W        W92460   1.450   1.794   3.836
32716W        W92461   7.209  24.220   0.872
32717W        W92462  19.220  35.500  10.633
32718W        W92463  43.343  23.167   1.734
32719W        W92464   3.407  22.996   0.831
32720W        W92465  27.168   1.403  13.983
32721W        W92466   8.384   8.353   4.199
32722W        W92467   9.650  30.918   3.377
32723W        W92468  42.950  20.040  11.427
32724W        W92469  35.879  10.794   2.817
32725W        W92470  40.527  22.140  13.020
32726W        W92471  26.662  37.838   1.796
32727W        W92472   5.329  15.777  12.578
32728W        W92473  16.129   3.451  13.404
32729W        W92474   5.779  34.522  12.859
32730W        W92475  34.535  34.468  12.470
32731W        W92476  14.769  35.570  12.985
32732W        W92477  19.533  38.511   3.695
32733W        W92478   8.339  14.777  10.526
32734W        W92479   8.162   3.797  11.403
32735W        W92480  14.763  42.942  14.453
32736W        W92481  41.940  35.986   1.299
32737W        W92482  16.751  34.385  14.484
32738W        W92483  34.380  21.067   0.372
32739W        W92484  36.416  27.464   2.680
32740W        W92485   9.290  20.251   3.849
32741W        W92486  31.992  34.540  13.376
32742W        W92487  24.661  37.961   2.208
32743W        W92488  26.173  25.153  12.890
32744W        W92489  29.628   5.858   2.300
32745W        W92490  19.211  20.121  10.417
32746W        W92491  33.018  39.440   2.749
32747W        W92492  14.160  14.216  12.366
32748W        W92493  22.502  12.349  14.814
32749W        W92494   2.272  20.725  12.846
32750W        W92495   9.652  11.336  14.800
32751W        W92496  39.850   7.749   1.791
32752W        W92497  16.249  30.946   4.672
32753W        W92498  22.117   1.433  13.885
32754W        W92499  19.743   6.192   1.378
32755W        W92500  20.235  43.319  11.587
32756W        W92501  12.358  15.284  13.008
32757W        W92502  31.527   5.751   1.794
32758W        W92503  33.427  26.980  14.304
32759W        W92504  20.548   7.320  13.527
32760W        W92505   5.401   3.218   0.310
32761W        W92506  34.918  20.565  10.997
32762W        W92507  24.643   9.665  11.039
32763W        W92508  28.967  16.779   4.298
32764W        W92509  19.211  15.692   3.763
32765W        W92510  43.890  40.908  10.519
32766W        W92511   6.754  15.594   4.216
32767W        W92512   8.714  40.889   0.901
32768W        W92513   0.361  26.015   0.459
32769W        W92514   3.949  39.935  13.329
32770W        W92515   1.354  15.791  11.965
32771W        W92516  13.249   8.657   3.818
32772W        W92517  29.928   4.343  14.364
32773W        W92518   0.376  27.457   1.270
32774W        W92519   3.404  35.874  14.855
32775W        W92520  36.925  35.969   1.219
32776W        W92521  23.234   9.839   4.672
32777W        W92522  29.027   3.753   0.897
32778W        W92523  26.126   5.422   3.768
32779W        W92524  36.932  22.745  12.890
32780W        W92525  39.987  16.156   4.793
32781W        W92526  38.939  18.575   1.324
32782W        W92527   3.338  21.185  12.554
32783W        W92528   9.391  16.301  10.450
32784W        W92529  31.991  13.757  11.089
32785W        W92530   6.882  27.648  10.935
32786W        W92531  18.091  34.405   4.800
32787W        W92532  10.767  44.472  11.973
32788W        W92533  10.171  29.663  10.439
32789W        W92534   7.217   2.730   3.828
32790W        W92535  28.067  19.266  14.445
32791W        W92536  13.231  36.931  11.887
32792W        W92537  27.447   6.363  11.114
32793W        W92538   7.270  29.096  14.513
32794W        W92539  34.034  35.014   2.264
32795W        W92540  32.560  41.364   4.758
32796W        W92541  32.010  16.782   1.703
32797W        W92542  37.479  10.282  12.019
32798W        W92543  39.899  44.339  14.384
32799W        W92544  31.130  23.603   0.808
32800W        W92545  44.911  33.024   2.399
32801W        W92546  29.152  42.008  12.380
32802W        W92547  39.401  25.095  11.506
32803W        W92548  23.698  31.976   2.747
32804W        W92549  10.729  30.091  14.005
32805W        W92550  25.132  35.484  13.375
32806W        W92551  41.310  33.434   1.730
32807W        W92552   7.335  31.055  12.502
32808W        W92553  11.276  38.908  10.445
32809W        W92554  26.155  31.098   1.828
32810W        W92555   7.307  19.596  13.540
32811W        W92556  33.000  30.594  11.040
32812W        W92557  42.923  11.781   2.750
32813W        W92558  16.642  27.521   3.200
32814W        W92559   5.737  14.252   3.251
32815W        W92560  13.116  12.308  11.487
32816W        W92561  20.551  44.414  12.474
32817W        W92562  41.514  15.749  10.156
32818W        W92563  33.088  10.680  14.400
32819W        W92564  42.937  25.537   3.785
32820W        W92565  32.093  17.772  12.372
32821W        W92566  16.280  27.063  10.498
32822W        W92567  18.685  22.194  12.050
32823W        W92568  23.098  39.021   3.689
32824W        W92569  19.080  33.911  10.959
32825W        W92570  44.971  27.126   4.731
32826W        W92571  39.342   7.694  10.902
32827W        W92572   4.399   9.369  14.864
32828W        W92573  24.011  30.418  14.804
32829W        W92574   3.809  37.444   5.126
32830W        W92575  38.339  44.307   2.371
32831W        W92576   3.326  23.133   2.289
32832W        W92577   6.358  44.929   0.772
32833W        W92578  43.318  15.782   0.900
32834W        W92579  39.517  24.690   4.277
32835W        W92580  40.456  26.075  11.093
32836W        W92581  30.141   4.340  13.401
32837W        W92582   9.296  19.615   2.275
32838W        W92583  33.514   0.890   1.725
32839W        W92584  25.986   8.859  10.579
32840W        W92585   3.850  28.947  14.509
32841W        W92586  19.241  44.951  13.981
32842W        W92587   9.776  21.528   1.381
32843W        W92588  28.134  20.182   2.412
32844W        W92589  38.420   9.229   2.747
32845W        W92590  43.269   6.207   2.399
32846W        W92591  11.164  24.079  10.588
32847W        W92592  37.506  16.761   1.721
32848W        W92593  27.465  31.108   3.840
32849W        W92594  34.009  41.435   3.161
32850W        W92595  28.521  40.858  14.770
32851W        W92596   5.916   8.400   3.316
32852W        W92597   7.201  30.060  10.519
32853W        W92598  26.073  16.761  11.441
32854W        W92599  44.965   9.854  10.616
32855W        W92600   8.716   4.388  10.457
32856W        W92601  32.077  10.666   0.265
32857W        W92602  14.319  31.021  14.332
32858W        W92603  19.645  15.680   2.417
32859W        W92604  27.127   5.923  13.885
32860W        W92605  40.851  28.060   1.926
32861W        W92606  37.009   6.397   4.767
32862W        W92607  26.595   5.863  12.839
32863W        W92608  40.811   6.765  11.595
32864W        W92609  29.040  31.502   1.427
32865W        W92610  15.138  22.156  12.967
32866W        W92611  30.607  30.540  11.537
32867W        W92612   4.815  41.395   1.747
32868W        W92613  24.085  18.576   5.186
32869W        W92614  29.081   4.448  13.340
32870W        W92615  31.078  19.611   0.353
32871W        W92616  36.452  18.113  14.296
32872W        W92617  22.605  25.056   1.792
32873W        W92618  25.112   1.396  11.991
32874W        W92619  28.655  17.704  12.077
32875W        W92620  14.279  32.960  12.014
32876W        W92621  44.884  37.006   1.911
32877W        W92622   9.737  39.864  13.319
32878W        W92623  13.745   1.351   4.330
32879W        W92624  21.152   6.801  11.602
32880W        W92625  25.707  12.790  12.398
32881W        W92626   8.299  21.565  12.435
32882W        W92627  37.404  29.494   0.361
32883W        W92628  31.534  22.578  10.899
32884W        W92629  35.414  12.686   2.357
32885W        W92630   6.307  33.947  14.511
32886W        W92631  15.254  35.457  13.975
32887W        W92632  10.872  42.018   0.781
32888W        W92633  20.176  16.727  13.544
32889W        W92634  14.596  21.063  14.924
32890W        W92635  41.037  26.636   4.333
32891W        W92636  15.617   4.780   1.347
32892W        W92637  43.340  18.664  11.934
32893W        W92638  22.123  14.649  12.961
32894W        W92639  17.736  39.554  12.433
32895W        W92640  32.998  13.700   3.745
32896W        W92641  34.972   1.863  14.293
32897W        W92642  39.924  16.216   0.741
32898W        W92643  44.443  37.497   3.272
32899W        W92644  28.489  43.354  10.566
32900W        W92645  32.495  44.325   2.332
32901W        W92646  35.455  14.668   4.330
32902W        W92647   0.752  39.062   5.207
32903W        W92648  13.285   6.419   2.820
32904W        W92649  44.856  35.361  10.538
32905W        W92650  13.172  21.177  11.466
32906W        W92651  36.939  25.665   1.362
32907W        W92652  36.963  23.608   3.858
32908W        W92653  17.248   6.296  13.435
32909W        W92654  23.139  44.918  12.456
32910W        W92655  16.571   1.449   3.741
32911W        W92656   6.684  22.059  10.555
32912W        W92657  31.497   3.258   9.569
32913W        W92658   0.949  20.712  13.538
32914W        W92659  30.057  31.986   3.652
32915W        W92660  27.669  11.137  13.469
32916W        W92661  14.331  25.594   1.844
32917W        W92662  34.512  40.024   2.850
32918W        W92663  20.742  40.518  14.758
32919W        W92664   3.392   1.340   2.773
32920W        W92665  37.389  29.462  11.387
32921W        W92666  22.733  20.688  14.817
32922W        W92667   8.353  13.226  10.425
32923W        W92668   8.344  18.711   4.274
32924W        W92669   3.238  20.196   4.325
32925W        W92670   8.875  13.730  12.508
32926W        W92671  10.744  21.513   4.804
32927W        W92672   7.873   4.450  14.848
32928W        W92673   9.246  27.655   1.277
32929W        W92674  24.577  27.527  14.311
32930W        W92675  23.091  26.539   4.222
32931W        W92676   6.812  20.226  14.424
32932W        W92677  12.839  10.202   1.717
32933W        W92678  10.685  42.382  10.951
32934W        W92679  22.252  31.062   1.349
32935W        W92680  34.028  44.290   4.251
32936W        W92681   8.246   6.261   4.615
32937W        W92682  27.491  19.092  11.995
32938W        W92683  15.819  12.631  10.467
32939W        W92684  40.450   2.855  14.914
32940W        W92685  23.617   6.844  11.554
32941W        W92686  27.596   5.830  11.961
32942W        W92687  14.146  41.807  12.422
32943W        W92688  18.711   0.264   0.419
32944W        W92689  40.337  33.468   4.236
32945W        W92690  34.495  39.365  13.382
32946W        W92691  26.045  26.039  12.452
32947W        W92692  44.874  34.373  13.039
32948W        W92693  22.562  21.029  12.042
32949W        W92694   6.357  37.993  12.342
32950W        W92695  27.600  42.430   4.338
32951W        W92696  29.123  24.148  13.815
32952W        W92697  15.189  25.005  14.900
32953W        W92698  32.963  18.073   5.596
32954W        W92699   5.361  17.668   0.749
32955W        W92700   1.900  20.589   0.390
32956W        W92701  28.090  15.089   1.445
32957W        W92702  27.067  26.066  13.346
32958W        W92703   4.441  36.912   2.834
32959W        W92704   8.660  12.791   1.393
32960W        W92705  41.930  30.490  13.325
32961W        W92706   7.324   5.284  11.522
32962W        W92707  32.010  16.626  11.604
32963W        W92708   3.950  14.173  10.917
32964W        W92709  24.643  24.490  12.441
32965W        W92710  17.725  23.226   2.686
32966W        W92711  33.508  44.875  12.860
32967W        W92712  25.989  38.430   2.862
32968W        W92713  36.375  28.978  10.904
32969W        W92714   6.298  28.645  12.858
32970W        W92715  20.598   2.321   3.261
32971W        W92716  11.313  15.610   1.784
32972W        W92717   7.408  42.880  10.962
32973W        W92718  31.108   2.461  10.071
32974W        W92719  37.837  40.963  13.332
32975W        W92720  15.770  35.566   0.823
32976W        W92721  14.610  14.206  13.404
32977W        W92722  15.715  31.584  13.507
32978W        W92723  22.607   3.915   2.700
32979W        W92724   8.863  29.136   0.325
32980W        W92725   0.779   8.840   3.830
32981W        W92726  26.202   1.439   0.278
32982W        W92727  13.208   2.769   3.240
32983W        W92728   0.814  23.238  10.437
32984W        W92729  12.200   5.817   4.622
32985W        W92730  36.967  19.135   4.148
32986W        W92731  41.305  10.278   1.828
32987W        W92732  13.794  27.460  10.488
32988W        W92733  31.153  23.595   1.785
32989W        W92734  37.517   0.942  14.830
32990W        W92735  24.162   4.388  11.412
32991W        W92736  29.946  39.902  10.586
32992W        W92737  33.488  19.179  12.954
32993W        W92738  36.987  35.564   2.854
32994W        W92739  28.096  15.596   4.693
32995W        W92740   1.261  34.603   1.347
32996W        W92741  43.425  41.508   3.709
32997W        W92742  14.193  28.993  13.885
32998W        W92743  34.584   4.236   3.317
32999W        W92744  15.131   9.672  12.557
33000W        W92745   8.677  36.359   3.251
33001W        W92746  28.162   8.185  12.366
33002W        W92747   9.709  33.556  14.905
33003W        W92748   7.783  34.003   4.819
33004W        W92749  32.047  43.322  11.501
33005W        W92750  23.125  14.703  13.052
33006W        W92751  17.683  41.818   1.747
33007W        W92752  41.391  19.272  14.978
33008W        W92753  20.065  17.126  14.959
33009W        W92754  12.657   4.800   1.323
33010W        W92755  34.109  30.611   2.783
33011W        W92756  33.029  40.411  10.985
33012W        W92757  14.288  33.092  10.532
33013W        W92758  21.078  22.108   1.287
33014W        W92759  40.413  15.178  12.989
33015W        W92760   6.192   9.238  11.050
33016W        W92761  14.799  10.209   2.798
33017W        W92762  33.535  20.722   3.372
33018W        W92763  18.215  29.573   4.279
33019W        W92764  40.933  18.697  12.961
33020W        W92765   7.669  41.524   1.768
33021W        W92766  23.502  18.674   0.313
33022W        W92767   2.922  13.702   2.263
33023W        W92768  33.591   0.446  13.061
33024W        W92769  37.501  28.166   0.854
33025W        W92770  13.134  36.535  14.777
33026W        W92771  16.089  10.174  11.580
33027W        W92772  18.089   4.376  11.069
33028W        W92773  33.898  36.089   3.658
33029W        W92774  13.790  26.957  10.578
33030W        W92775   3.284   7.812  10.918
33031W        W92776  14.339  38.894   1.267
33032W        W92777  13.347  13.248  13.940
33033W        W92778   4.726  11.765   3.249
33034W        W92779  28.148  34.115   1.710
33035W        W92780  19.185   4.304   0.314
33036W        W92781   2.319  16.594   0.794
33037W        W92782  16.593  24.104   2.853
33038W        W92783  28.673  43.347   0.476
33039W        W92784  16.200  18.751  13.946
33040W        W92785  10.847  38.533  11.383
33041W        W92786  38.564   0.785  14.415
33042W        W92787  17.591  10.701   1.775
33043W        W92788  33.562  42.009  14.326
33044W        W92789  24.225  25.482   0.967
33045W        W92790  40.923  27.049   1.359
33046W        W92791  17.606  13.802  12.403
33047W        W92792  39.398  42.303  14.496
33048W        W92793   5.736  40.453  10.511
33049W        W92794  37.032  39.894  11.016
33050W        W92795  11.673  12.737   0.330
33051W        W92796   5.364  20.260   9.503
33052W        W92797  43.311  24.000  12.055
33053W        W92798  22.019  11.185  11.914
33054W        W92799  24.018   8.717  12.914
33055W        W92800   7.906  32.888   3.225
33056W        W92801  29.560  21.613   4.193
33057W        W92802  38.061   6.691   4.328
33058W        W92803  40.461  13.331   9.924
33059W        W92804  29.168  25.565  14.920
33060W        W92805  21.749  30.092  12.432
33061W        W92806  11.761   5.855   3.801
33062W        W92807  35.859   7.885   2.320
33063W        W92808  11.216   7.701  11.023
33064W        W92809   3.412  35.974   4.814
33065W        W92810  15.786  15.794  10.003
33066W        W92811  44.350  11.755  12.862
33067W        W92812   8.819  37.445  14.022
33068W        W92813  27.999  25.183   3.332
33069W        W92814  27.969  12.198  10.446
33070W        W92815  11.311  28.480   2.246
33071W        W92816  13.205   5.236  12.477
33072W        W92817  22.620  35.852   3.644
33073W        W92818  34.059  12.258  14.373
33074W        W92819  24.581  44.425  12.983
33075W        W92820  10.205   2.364   4.631
33076W        W92821  41.035  34.506  11.104
33077W        W92822  30.416   8.269  10.408
33078W        W92823  14.619  38.448   1.698
33079W        W92824  35.494  32.127  14.943
33080W        W92825   5.270  30.472   5.113
33081W        W92826   4.853  37.915   0.787
33082W        W92827  20.150  39.339  13.320
33083W        W92828  37.397   5.405   0.315
33084W        W92829  41.445   4.754   1.720
33085W        W92830  24.538  23.686  11.535
33086W        W92831  36.441  24.072   3.631
33087W        W92832  37.836   9.859  13.991
33088W        W92833  39.030  11.137  11.413
33089W        W92834  26.202   9.282   4.319
33090W        W92835  31.470  33.057   0.881
33091W        W92836   4.802  14.217  14.032
33092W        W92837  41.966  39.432   3.744
33093W        W92838  43.940   2.229  10.504
33094W        W92839   9.830  31.597   0.346
33095W        W92840  33.117   6.241  13.856
33096W        W92841  31.050  13.125   3.169
33097W        W92842   4.850  32.974   4.211
33098W        W92843   2.842  39.506  12.829
33099W        W92844   1.361   1.436  10.909
33100W        W92845   7.728   4.335  12.860
33101W        W92846  27.948   2.306  13.857
33102W        W92847  14.275  13.697  12.511
33103W        W92848  38.368  20.036   0.381
33104W        W92849   9.273   2.937  10.572
33105W        W92850  19.738  35.425   2.325
33106W        W92851  13.789  41.315   4.168
33107W        W92852  31.032  16.209  11.414
33108W        W92853  31.927  28.550  12.067
33109W        W92854  25.648   1.761   9.936
33110W        W92855   3.820  41.455  14.275
33111W        W92856  27.454  44.436  10.520
33112W        W92857   1.798   4.730   2.180
33113W        W92858  19.601  36.474   0.832
33114W        W92859  30.594  18.631   4.746
33115W        W92860   3.449  25.649  10.969
33116W        W92861  31.119   1.772  12.526
33117W        W92862  31.628   3.375  11.016
33118W        W92863   9.859  24.607  14.952
33119W        W92864  44.792  31.103  14.324
33120W        W92865   9.691   7.371   3.736
33121W        W92866   6.198  10.220   1.363
33122W        W92867  29.125  28.171   3.329
33123W        W92868  10.712  19.220  13.016
33124W        W92869  15.230  27.492  14.954
33125W        W92870  40.408   2.254  11.045
33126W        W92871  11.828  15.664  13.860
33127W        W92872  37.425  26.571   2.873
33128W        W92873  23.198  10.819   0.927
33129W        W92874  12.743  15.714   0.377
33130W        W92875   7.190  15.253  13.442
33131W        W92876  18.659  12.768  10.509
33132W        W92877  35.897  22.104   0.476
33133W        W92878   0.894   4.887   5.096
33134W        W92879  29.969  24.565   0.323
33135W        W92880   0.951  29.522  11.037
33136W        W92881   4.885  18.660   4.198
33137W        W92882  32.395  29.539   0.865
33138W        W92883  35.584  10.309  14.468
33139W        W92884  37.965  42.495   3.755
33140W        W92885  36.892   8.356  13.918
33141W        W92886  13.839  15.798  11.422
33142W        W92887  31.100   2.259  12.991
33143W        W92888   5.311   8.680   2.394
33144W        W92889   3.454  42.443   2.794
33145W        W92890  16.794  19.242   0.827
33146W        W92891   9.334  32.076  12.013
33147W        W92892   5.758   7.883   4.680
33148W        W92893  12.856   8.189   1.228
33149W        W92894  20.636  27.980  12.458
33150W        W92895  37.347  22.722   4.732
33151W        W92896  31.031  33.495   3.755
33152W        W92897  24.010  37.025   2.884
33153W        W92898  34.971  15.095   0.477
33154W        W92899  40.526   7.712   0.849
33155W        W92900  19.625  14.269   1.424
33156W        W92901   7.256  16.085   3.869
33157W        W92902   8.327  43.388  14.817
33158W        W92903   6.227  21.745  13.465
33159W        W92904  32.094  14.674  14.278
33160W        W92905   3.808  14.310   4.766
33161W        W92906  23.073  29.463   2.882
33162W        W92907   9.810   3.337   4.271
33163W        W92908  14.260  33.094  12.487
33164W        W92909  19.208  32.089   1.364
33165W        W92910  33.590  33.090   1.721
33166W        W92911  23.505  11.679   2.690
33167W        W92912  14.320  31.998   1.931
33168W        W92913   1.426  27.009  12.875
33169W        W92914  41.307  32.465  14.980
33170W        W92915  24.202   7.731   1.253
33171W        W92916  38.400  21.037   2.739
33172W        W92917  23.579  16.684   4.711
33173W        W92918   6.707   9.667  12.090
33174W        W92919  34.375  40.335  14.985
33175W        W92920  27.471  36.930   4.187
33176W        W92921  33.073  33.568   0.877
33177W        W92922  27.525  39.016  14.875
33178W        W92923  10.820  20.594  12.344
33179W        W92924  41.868   1.802   4.742
33180W        W92925  27.455  28.940   3.234
33181W        W92926  20.604  22.228   0.396
33182W        W92927  17.294  14.326   2.857
33183W        W92928  31.529  25.558   0.845
33184W        W92929  40.910  29.651  13.017
33185W        W92930  30.501  15.609  12.875
33186W        W92931  13.121   4.301  14.451
33187W        W92932  12.337  32.050   0.245
33188W        W92933  41.966   5.893   4.737
33189W        W92934  37.883  26.071   2.284
33190W        W92935  17.107  30.139   4.165
33191W        W92936  37.581  44.980   1.783
33192W        W92937   4.294  40.834   0.480
33193W        W92938  31.002  44.814   3.834
33194W        W92939  26.196   7.817   4.635
33195W        W92940  42.462  41.019   3.283
33196W        W92941  35.458  17.765   2.773
33197W        W92942   6.232  25.183   4.731
33198W        W92943  17.600   9.714   2.337
33199W        W92944  34.487  21.561   3.734
33200W        W92945  29.548  27.991  10.049
33201W        W92946  32.038  35.991  12.050
33202W        W92947  43.426  11.283  14.399
33203W        W92948  28.072   4.373  12.558
33204W        W92949  42.846   8.731  11.575
33205W        W92950  32.903  25.524  11.116
33206W        W92951  43.920  30.126   2.370
33207W        W92952  38.879  37.935   4.744
33208W        W92953  11.749  25.703  10.090
33209W        W92954  13.132  22.244  11.031
33210W        W92955  39.349  13.214  14.932
33211W        W92956  29.464   5.713   1.848
33212W        W92957  20.710  41.536  11.986
33213W        W92958  16.677   2.382   1.265
33214W        W92959  26.591  24.153   4.706
33215W        W92960   3.252  21.175   0.966
33216W        W92961   1.303  26.488   3.306
33217W        W92962  28.035  14.225  10.496
33218W        W92963   4.883  31.405   3.686
33219W        W92964  32.100  25.571  11.875
33220W        W92965  27.576  13.752   3.162
33221W        W92966  28.972   4.320   9.601
33222W        W92967   2.276   3.273  10.409
33223W        W92968  38.940   4.767  11.554
33224W        W92969  30.558  20.733   2.861
33225W        W92970  23.515  31.534  12.374
33226W        W92971  37.352   6.878   0.740
33227W        W92972  14.704   1.888   1.762
33228W        W92973  35.868   3.775   3.266
33229W        W92974  34.969  27.516   1.252
33230W        W92975  18.559  10.773  10.458
33231W        W92976  32.614  38.495   3.234
33232W        W92977  29.580   3.438   0.379
33233W        W92978   6.856  15.769   1.744
33234W        W92979   5.740  34.887   2.377
33235W        W92980  41.307   1.465  13.038
33236W        W92981  38.424   6.368   3.736
33237W        W92982  37.050  20.579  10.113
33238W        W92983  33.407  42.817  11.441
33239W        W92984   3.740  19.063  12.424
33240W        W92985  22.505  28.645  11.076
33241W        W92986  28.039  26.474  12.825
33242W        W92987  37.541  20.070   1.243
33243W        W92988  39.936  10.353   0.477
33244W        W92989  34.520  17.576  13.403
33245W        W92990  40.818  20.146   2.878
33246W        W92991  40.401   4.906  10.142
33247W        W92992  14.104  26.026  14.952
33248W        W92993   8.315  15.097  13.804
33249W        W92994  23.489  21.733   2.354
33250W        W92995  32.053   1.463   4.191
33251W        W92996  28.096  29.918  11.095
33252W        W92997  33.973   5.247   9.490
33253W        W92998  39.392  38.907  10.097
33254W        W92999  42.868  33.061   0.341
33255W        W93000   2.921  26.640   3.304
33256W        W93001  23.700  36.422   4.217
33257W        W93002  35.563  23.053   4.717
33258W        W93003  43.433   9.364  13.309
33259W        W93004  10.376  39.315   3.216
33260W        W93005  33.501  16.121  10.637
33261W        W93006   1.899  36.093  12.940
33262W        W93007   7.215  34.592   0.424
33263W        W93008  42.479  40.834  11.469
33264W        W93009   4.204  19.056   3.767
33265W        W93010   7.299  10.289   0.340
33266W        W93011  37.389  42.974  12.978
33267W        W93012  44.472   3.320   4.709
33268W        W93013  42.478  33.896   1.333
33269W        W93014   3.942  36.553  13.454
33270W        W93015  33.943   8.872  13.428
33271W        W93016  25.127  10.760  10.594
33272W        W93017  25.512   6.903  11.988
33273W        W93018  31.563  20.594  12.915
33274W        W93019  29.553  41.894  10.453
33275W        W93020   1.354  22.706  11.941
33276W        W93021  31.450   8.392   0.256
33277W        W93022  30.147  35.513   3.791
33278W        W93023  38.416  37.984   1.807
33279W        W93024  32.917   1.875  14.367
33280W        W93025  26.587  12.224   0.392
33281W        W93026  22.698  29.612   1.411
33282W        W93027  33.082  41.952   2.753
33283W        W93028  10.335  29.158  11.041
33284W        W93029  10.309  24.614   4.174
33285W        W93030  16.295   0.437   4.762
33286W        W93031  11.782   0.958  12.515
33287W        W93032  16.667  27.086   1.415
33288W        W93033  31.110  42.322   1.264
33289W        W93034  17.557  13.786  10.586
33290W        W93035  24.554  20.537   3.267
33291W        W93036   5.360  16.763   4.738
33292W        W93037   3.854  29.611  13.990
33293W        W93038  14.258  12.761   3.250
33294W        W93039   2.849  27.103  12.935
33295W        W93040  12.756   7.680  12.937
33296W        W93041  42.956  24.177   1.377
33297W        W93042   9.714  21.640   0.947
33298W        W93043  32.026  10.343  12.989
33299W        W93044  13.284  30.012   0.250
33300W        W93045   1.448  12.841  10.583
33301W        W93046   4.441  31.016  11.607
33302W        W93047   3.945  26.514   2.800
33303W        W93048   8.331  34.988   1.333
33304W        W93049  36.998  35.391   0.326
33305W        W93050  42.521   7.741  13.419
33306W        W93051  30.148   6.263   1.802
33307W        W93052  37.552  41.404  13.056
33308W        W93053  39.432  37.498   4.598
33309W        W93054  41.301   4.217   4.168
33310W        W93055  43.353  42.507  10.585
33311W        W93056   4.267  43.958   2.211
33312W        W93057  24.117   8.805  14.798
33313W        W93058  37.424   5.875  10.017
33314W        W93059  21.183   5.779  14.394
33315W        W93060  41.809  38.447   4.690
33316W        W93061   3.350  22.077  14.499
33317W        W93062   6.281  15.695   4.767
33318W        W93063  39.536   4.859  11.469
33319W        W93064  11.221  31.490   3.695
33320W        W93065  24.110  25.040   4.171
33321W        W93066  10.845  12.305   3.166
33322W        W93067  38.048  40.459  10.925
33323W        W93068  12.314  20.181   0.304
33324W        W93069  38.982  37.384   1.839
33325W        W93070  12.284  11.772   1.259
33326W        W93071   4.818  35.023  10.495
33327W        W93072  15.316   3.894   3.637
33328W        W93073  31.523  16.685  12.380
33329W        W93074  21.617  19.762  11.040
33330W        W93075  34.108  41.880  10.595
33331W        W93076   0.336  24.051  12.029
33332W        W93077  10.728  44.854   1.326
33333W        W93078   7.732  20.769  11.104
33334W        W93079  11.668  26.954  11.120
33335W        W93080  43.465  17.766  13.891
33336W        W93081  28.021  14.228  13.393
33337W        W93082   9.705  28.499  13.511
33338W        W93083   6.266  26.982  11.473
33339W        W93084   0.452  21.169   0.884
33340W        W93085   0.484  43.935   3.796
33341W        W93086   3.366  36.979   4.647
33342W        W93087   6.373   0.324  14.883
33343W        W93088   4.826   4.253   1.758
33344W        W93089  12.197  20.662   1.758
33345W        W93090  35.867  31.130  10.417
33346W        W93091  38.049  29.070  14.337
33347W        W93092   4.356  37.542  13.924
33348W        W93093  39.022  33.441   1.449
33349W        W93094  30.015  23.027  11.393
33350W        W93095  21.040  36.905   2.805
33351W        W93096  21.557  25.667  11.976
33352W        W93097  13.160   1.390   4.288
33353W        W93098  40.841  10.264   2.243
33354W        W93099   6.819  18.568   3.356
33355W        W93100  17.141  15.823   3.657
33356W        W93101  27.947  43.874  11.488
33357W        W93102   7.796  36.085   0.315
33358W        W93103  14.692  32.437   0.871
33359W        W93104  24.188  12.219   2.767
33360W        W93105  26.462  24.080   4.265
33361W        W93106  24.119  11.282  14.299
33362W        W93107  27.074  28.648   2.834
33363W        W93108  29.452  38.849   2.703
33364W        W93109  42.833  44.933  12.498
33365W        W93110  11.779  44.323   3.272
33366W        W93111  25.126  26.055  11.597
33367W        W93112  12.849  28.475  14.968
33368W        W93113  27.079  12.774   1.252
33369W        W93114  13.335  28.015   4.696
33370W        W93115  18.213   7.216   0.278
33371W        W93116  41.535  32.113  14.488
33372W        W93117   5.258   8.811  11.897
33373W        W93118   9.806  44.307  14.372
33374W        W93119  39.895   3.951   1.411
33375W        W93120  29.663   8.220   4.645
33376W        W93121  37.921  35.417  14.798
33377W        W93122  30.067   5.854   2.395
33378W        W93123  16.095   2.388   0.855
33379W        W93124  10.260  34.455  11.995
33380W        W93125  25.131  39.373  10.596
33381W        W93126   1.305  11.239   4.321
33382W        W93127  15.306   6.256  14.383
33383W        W93128  33.491  18.787   3.379
33384W        W93129   6.234  41.848   0.811
33385W        W93130  32.505  32.980   1.893
33386W        W93131  25.077  33.106   1.856
33387W        W93132   3.812  26.179   2.714
33388W        W93133  42.910  22.591  12.871
33389W        W93134  38.969  37.383   4.172
33390W        W93135   3.720  21.522   0.455
33391W        W93136  19.619   8.317  11.021
33392W        W93137   9.391  31.080   3.814
33393W        W93138  29.100   1.303  14.827
33394W        W93139   0.986  13.310  10.996
33395W        W93140   5.427  17.220   3.738
33396W        W93141  38.844  10.700   1.791
33397W        W93142  12.296  17.113  10.524
33398W        W93143  20.568  10.806  10.895
33399W        W93144  23.515  34.438   0.792
33400W        W93145  17.211  43.346  12.448
33401W        W93146   6.263  37.920  10.645
33402W        W93147  31.511   0.354   0.823
33403W        W93148  30.527   4.323   2.822
33404W        W93149  21.758  42.449  13.970
33405W        W93150  38.394  26.552   0.937
33406W        W93151  29.500  33.057  14.768
33407W        W93152  13.818  33.937  14.913
33408W        W93153  32.094  13.151   4.605
33409W        W93154   3.742   9.222  14.008
33410W        W93155  28.503   3.796  11.026
33411W        W93156  42.516  22.124  13.942
33412W        W93157  33.054  20.046   4.212
33413W        W93158  20.710  21.087  13.889
33414W        W93159  36.531  32.433  11.042
33415W        W93160  21.751   0.447  10.588
33416W        W93161  27.110  39.973  10.006
33417W        W93162   7.241  20.531  14.006
33418W        W93163  44.373  33.441  12.427
33419W        W93164  41.886  22.117  11.608
33420W        W93165   7.313  28.139   0.425
33421W        W93166  35.873   2.958  10.929
33422W        W93167   5.823   3.725   0.431
33423W        W93168  35.866  17.137  11.422
33424W        W93169  15.686   7.873   3.162
33425W        W93170  25.121  22.167  14.908
33426W        W93171   5.344  30.014  11.384
33427W        W93172   2.380  12.691  13.395
33428W        W93173  29.450  13.270  13.883
33429W        W93174  17.778   6.216   4.611
33430W        W93175  17.640   7.710   4.149
33431W        W93176  30.659  36.358   1.872
33432W        W93177  27.498  37.943  13.962
33433W        W93178   9.331  16.113  11.974
33434W        W93179   8.788  33.059   3.637
33435W        W93180  24.149  30.509  13.051
33436W        W93181  14.326  41.931  10.990
33437W        W93182  14.606  14.279  14.825
33438W        W93183   4.205  10.834  12.342
33439W        W93184  22.017   7.210   4.657
33440W        W93185  30.555  19.123  12.370
33441W        W93186  29.447  16.612  14.786
33442W        W93187  30.534   8.882  13.045
33443W        W93188  20.569   8.791   1.388
33444W        W93189  15.121  18.708  10.446
33445W        W93190   0.768  30.562   3.216
33446W        W93191  30.451  34.421   2.800
33447W        W93192  13.808  25.487  14.358
33448W        W93193  10.812  37.076  12.579
33449W        W93194  36.041  19.690   2.865
33450W        W93195   0.845  41.422  12.428
33451W        W93196  29.103  17.743   3.360
33452W        W93197  30.615  35.891  14.996
33453W        W93198   2.235  42.296   3.315
33454W        W93199  34.945  29.560  11.493
33455W        W93200  39.034  27.582   2.342
33456W        W93201  43.371  16.162  10.447
33457W        W93202   8.330  18.293   1.780
33458W        W93203   2.293   3.721  12.426
33459W        W93204  21.582   9.151  14.508
33460W        W93205  14.300  10.783  11.450
33461W        W93206  25.670  41.985  12.544
33462W        W93207  42.931   2.956  13.925
33463W        W93208  23.731   1.370   4.319
33464W        W93209  32.527  18.595  12.556
33465W        W93210   1.829   5.812  10.441
33466W        W93211  21.710  20.555  13.793
33467W        W93212  39.883  24.184   3.185
33468W        W93213   7.830   5.338   0.470
33469W        W93214  31.979  35.571  10.942
33470W        W93215   4.247  14.241  12.536
33471W        W93216  28.679   0.363  10.916
33472W        W93217  21.725   6.688   1.421
33473W        W93218  22.123  12.162   9.532
33474W        W93219  21.130  43.327  11.918
33475W        W93220  42.372  44.799   1.417
33476W        W93221  39.852  15.578   0.265
33477W        W93222  44.305   2.413   5.153
33478W        W93223   4.378  40.953   1.399
33479W        W93224  35.918  34.405  14.784
33480W        W93225  17.739  29.646   3.177
33481W        W93226  36.070  28.639  10.471
33482W        W93227  31.100  26.032   4.128
33483W        W93228  20.273  35.523  12.530
33484W        W93229   2.391  17.627   4.332
33485W        W93230  30.925  44.390  10.927
33486W        W93231  29.597  14.651   4.664
33487W        W93232  43.306  21.535   1.220
33488W        W93233  32.074  21.549   2.740
33489W        W93234  19.770  18.245  11.950
33490W        W93235  19.127  20.207  14.282
33491W        W93236  26.173  37.549  13.059
33492W        W93237  40.036  14.740   0.733
33493W        W93238   3.720  22.528   9.991
33494W        W93239   6.802  19.180  12.922
33495W        W93240  25.545   9.374  10.496
33496W        W93241  18.655  12.687  11.997
33497W        W93242  44.401  18.168   2.223
33498W        W93243  41.526   8.776  10.989
33499W        W93244  13.603  18.764  12.004
33500W        W93245  23.215   9.184  12.403
33501W        W93246  33.497  21.556  13.445
33502W        W93247  19.209  32.535  12.981
33503W        W93248  39.979  33.127   3.842
33504W        W93249   9.780   6.687  11.487
33505W        W93250   5.279  33.496  11.042
33506W        W93251  19.080  36.907   0.864
33507W        W93252  22.591  41.813  13.051
33508W        W93253  38.024   7.218   1.761
33509W        W93254  30.122  12.727   4.158
33510W        W93255  44.807  42.502  13.865
33511W        W93256  39.518   5.347  12.567
33512W        W93257   1.457   2.238   2.894
33513W        W93258  14.256  28.149   5.109
33514W        W93259   0.835  28.987  13.891
33515W        W93260  31.550  22.619   4.215
33516W        W93261  15.268  16.300  10.585
33517W        W93262  13.808  35.045   3.324
33518W        W93263   6.296  44.502   4.139
33519W        W93264  39.472  27.597  12.357
33520W        W93265   7.191   4.432   0.244
33521W        W93266  20.235  41.497  12.445
33522W        W93267  42.944  28.590   3.658
33523W        W93268  43.905   8.838   3.228
33524W        W93269   4.283  23.523   4.140
33525W        W93270  10.272  24.075  13.441
33526W        W93271  39.809   9.748   4.168
33527W        W93272   7.751  11.169  14.940
33528W        W93273  43.280  11.855  12.997
33529W        W93274  30.601  31.559  11.576
33530W        W93275  15.808  40.316   0.447
33531W        W93276  16.759  42.026   3.711
33532W        W93277  10.826  30.504  13.058
33533W        W93278   3.314  22.207   0.390
33534W        W93279  20.737  11.279   2.880
33535W        W93280  33.125  23.515   3.654
33536W        W93281  33.997  20.608  12.893
33537W        W93282  23.548  23.231  13.982
33538W        W93283  26.690  16.230   9.521
33539W        W93284   8.844  42.870   9.974
33540W        W93285   4.703   9.309  11.567
33541W        W93286   8.169   0.371   3.205
33542W        W93287  16.146  17.184  10.478
33543W        W93288  42.817  21.200   1.820
33544W        W93289   9.183  33.922  11.028
33545W        W93290  41.319   7.347   0.254
33546W        W93291  11.241  22.608   2.261
33547W        W93292   0.374  25.216   1.435
33548W        W93293  25.194   9.711   1.345
33549W        W93294  28.499  40.952  12.446
33550W        W93295   7.841  34.585  13.401
33551W        W93296  18.550  21.595  13.325
33552W        W93297  23.725  41.834   1.239
33553W        W93298  21.758  37.982   0.809
33554W        W93299  22.658  39.368   0.296
33555W        W93300  29.435  37.849  11.049
33556W        W93301  21.151   2.439   1.801
33557W        W93302  35.070  42.937  14.436
33558W        W93303  19.664  27.109   1.841
33559W        W93304  25.215   0.350   4.260
33560W        W93305  12.639  24.976   1.293
33561W        W93306  38.921  30.456  13.034
33562W        W93307  38.429  26.074  14.337
33563W        W93308  11.794  33.098   3.270
33564W        W93309  19.241   5.246   3.788
33565W        W93310   5.396  33.893  14.954
33566W        W93311  18.186  20.204   4.151
33567W        W93312  33.106  21.096   9.946
33568W        W93313  17.783  43.006   0.826
33569W        W93314  37.071  16.158  13.492
33570W        W93315  40.974  25.645  13.529
33571W        W93316  32.496  26.998  14.761
33572W        W93317  36.570  25.105   0.909
33573W        W93318  23.144  27.033   4.248
33574W        W93319  26.517  31.995  10.619
33575W        W93320  14.606  21.195   1.762
33576W        W93321  41.394  21.107   0.455
33577W        W93322  14.763  43.328   3.278
33578W        W93323   2.778  27.548   1.253
33579W        W93324  34.581  10.291  10.148
33580W        W93325   6.730  22.131   1.773
33581W        W93326   4.909  39.451  10.922
33582W        W93327  15.114  37.406   2.258
33583W        W93328  43.326   9.385   2.231
33584W        W93329  13.784  30.941   1.309
33585W        W93330  43.858  21.696  11.481
33586W        W93331  18.285  33.581   2.403
33587W        W93332  12.249   7.361  10.914
33588W        W93333  30.132   8.722  13.818
33589W        W93334  21.603  17.702   3.765
33590W        W93335   3.921  14.739  13.369
33591W        W93336  40.398  19.601   3.759
33592W        W93337  29.146  43.848  12.465
33593W        W93338   0.849  15.703  11.986
33594W        W93339  44.401   0.340  10.505
33595W        W93340  18.762  27.534   4.194
33596W        W93341  15.740  28.124   5.289
33597W        W93342  40.951  14.735   4.728
33598W        W93343   1.965  41.514  11.027
33599W        W93344  36.553  37.954  13.970
33600W        W93345  27.499  24.209   0.867
33601W        W93346   1.482  36.057   2.813
33602W        W93347  27.557  33.124   5.300
33603W        W93348   0.342  44.361  11.881
33604W        W93349  23.105  18.281   0.781
33605W        W93350  37.390   9.685   0.868
33606W        W93351  18.674  42.300   2.741
33607W        W93352  27.685  41.826   2.318
33608W        W93353  10.713   3.346  13.441
33609W        W93354   3.768  25.538   3.822
33610W        W93355  16.251  37.473   0.851
33611W        W93356  35.004  27.660   4.609
33612W        W93357  20.759  26.079  12.039
33613W        W93358  16.567  37.915   3.185
33614W        W93359  35.053  23.518   3.638
33615W        W93360   4.901  42.926  12.485
33616W        W93361  42.939  15.296   2.360
33617W        W93362  38.340  16.717   0.927
33618W        W93363   1.320  44.001  12.854
33619W        W93364   4.799  18.244  10.895
33620W        W93365  26.040  22.620  13.363
33621W        W93366  34.437  28.938  13.462
33622W        W93367  28.023  23.636   3.335
33623W        W93368  21.672  18.729   0.945
33624W        W93369  27.977  20.028  11.530
33625W        W93370   0.871  35.434   0.894
33626W        W93371  11.293  33.462  10.504
33627W        W93372  32.104  25.712   1.721
33628W        W93373  12.180  33.531   0.802
33629W        W93374  11.668  10.156   1.855
33630W        W93375  16.567   2.375   3.737
33631W        W93376   6.217  41.322  13.931
33632W        W93377  44.349   7.804  11.018
33633W        W93378  13.276  27.092  14.422
33634W        W93379  14.299  37.408   4.834
33635W        W93380  17.717  22.999   4.243
33636W        W93381  10.141  34.918  11.420
33637W        W93382   6.351  18.065  11.574
33638W        W93383   3.291  30.946  10.917
33639W        W93384  44.413  27.150   1.890
33640W        W93385  37.437   0.485   1.742
33641W        W93386   6.347  42.317  12.432
33642W        W93387  41.387   9.881  14.278
33643W        W93388  27.555  24.169   3.699
33644W        W93389  34.472  37.959  11.542
33645W        W93390  36.072  35.076   2.701
33646W        W93391  39.974  17.801   4.230
33647W        W93392   2.808  29.478  14.300
33648W        W93393  14.098  27.613   0.888
33649W        W93394  40.342  11.766   1.755
33650W        W93395  16.636  19.236   2.412
33651W        W93396  35.380  35.529  14.823
33652W        W93397   3.911  42.301  14.767
33653W        W93398  17.143   6.329   3.669
33654W        W93399  30.444   8.352   1.904
33655W        W93400  10.725  17.788   0.784
33656W        W93401   6.302   2.333  13.861
33657W        W93402  38.913  34.984   2.881
33658W        W93403  40.392   0.383   0.777
33659W        W93404   3.715  26.469   4.229
33660W        W93405  36.591  23.557  14.503
33661W        W93406  12.144  29.087   0.785
33662W        W93407  26.621   3.341  11.972
33663W        W93408  34.906  13.743   3.240
33664W        W93409   5.871  32.616  11.075
33665W        W93410   5.194  40.941   3.833
33666W        W93411  17.699  30.915  11.860
33667W        W93412  44.969  10.340  13.373
33668W        W93413  37.025  44.318   4.827
33669W        W93414  40.994  33.940  14.502
33670W        W93415  34.484   7.814   0.365
33671W        W93416  11.710  44.899  10.437
33672W        W93417  43.834  28.082  12.825
33673W        W93418  36.910   9.705   4.269
33674W        W93419  22.075  11.829   0.746
33675W        W93420  14.131  36.478  14.449
33676W        W93421  24.194  20.580  13.909
33677W        W93422  34.029  10.830  12.370
33678W        W93423   7.775   8.685  14.291
33679W        W93424  36.440   4.833  14.885
33680W        W93425  16.266  22.667   3.811
33681W        W93426   1.924  36.454  11.583
33682W        W93427   6.901  13.263   4.220
33683W        W93428  28.050  33.930  14.483
33684W        W93429  19.625   7.715   2.699
33685W        W93430  17.262  41.309   2.342
33686W        W93431  19.246  17.622   1.341
33687W        W93432  15.154  34.451  12.990
33688W        W93433  33.069  19.738   3.798
33689W        W93434  21.612   8.701  10.586
33690W        W93435  13.150  18.217  11.579
33691W        W93436  37.365   0.406  10.427
33692W        W93437  37.562  23.703   4.321
33693W        W93438   0.442  39.939   0.779
33694W        W93439  37.572   4.214   2.902
33695W        W93440   2.910  32.400   0.803
33696W        W93441  23.218   8.322  14.855
33697W        W93442  24.686  15.695   2.229
33698W        W93443  18.078  14.808  13.952
33699W        W93444  11.716  19.132   3.359
33700W        W93445   4.304  18.697   2.754
33701W        W93446  18.291   2.923   4.245
33702W        W93447  44.899  16.631  14.284
33703W        W93448  11.756   2.750  13.929
33704W        W93449  19.083   6.357  12.363
33705W        W93450  36.022  37.339   4.326
33706W        W93451  44.768  10.352  13.925
33707W        W93452   0.382  32.024   3.223
33708W        W93453   7.209  16.072   1.445
33709W        W93454  15.260  38.983   0.367
33710W        W93455   3.743   9.869   3.377
33711W        W93456  13.795  29.519  11.381
33712W        W93457  41.324  20.145   5.284
33713W        W93458  42.993  14.735  12.829
33714W        W93459  40.926  40.031  13.374
33715W        W93460  36.545  34.869   0.873
33716W        W93461  21.097  36.371  11.586
33717W        W93462   6.299  28.941   0.369
33718W        W93463  22.237  36.348   4.797
33719W        W93464  17.254  44.822  14.301
33720W        W93465   0.391  24.985  14.020
33721W        W93466  25.642  20.560   1.918
33722W        W93467  37.900   0.947   1.863
33723W        W93468  11.191  28.658   3.808
33724W        W93469  24.655  35.072  11.932
33725W        W93470  11.253   2.358  10.563
33726W        W93471  42.828  13.169  13.412
33727W        W93472  43.477  16.240   4.740
33728W        W93473  37.564  21.071   0.930
33729W        W93474  29.042  36.919  12.480
33730W        W93475  40.995  30.443   1.451
33731W        W93476  37.924   7.726  13.911
33732W        W93477  24.530  21.197   1.395
33733W        W93478  39.946  19.165   2.864
33734W        W93479  27.641  11.274   2.313
33735W        W93480  41.005  31.931  13.414
33736W        W93481  17.249  39.866  13.953
33737W        W93482  10.211  34.376   3.698
33738W        W93483  10.831  29.431  14.458
33739W        W93484  35.050  30.141   3.308
33740W        W93485  10.329   3.948  12.380
33741W        W93486   5.918  32.988  12.545
33742W        W93487   2.935  11.862  12.503
33743W        W93488  11.626  36.437  11.094
33744W        W93489  30.912   1.971  11.545
33745W        W93490  33.491  35.418   1.828
33746W        W93491  40.829  42.348  10.507
33747W        W93492  44.753  36.363   5.201
33748W        W93493   0.278  14.777   1.725
33749W        W93494   0.794  23.016   2.806
33750W        W93495  40.412   2.876  12.559
33751W        W93496  14.150   0.252  14.778
33752W        W93497  42.287  35.047  13.928
33753W        W93498   6.241  42.901  13.500
33754W        W93499  16.093  17.630   3.380
33755W        W93500  16.812  35.438  14.305
33756W        W93501  18.627   3.771   3.660
33757W        W93502   0.904  25.502   2.896
33758W        W93503  16.169  41.367  14.348
33759W        W93504   0.768  27.475  13.819
33760W        W93505  23.067  41.970  14.390
33761W        W93506   9.866  41.437   1.437
33762W        W93507   8.748  20.695  13.010
33763W        W93508  34.577  25.574   0.754
33764W        W93509  31.473   5.382  10.108
33765W        W93510  38.046  44.766   0.334
33766W        W93511  21.560  41.416  14.460
33767W        W93512  38.937  23.114   3.868
33768W        W93513  19.561  39.364   4.818
33769W        W93514   6.842   6.264  10.494
33770W        W93515   9.277  22.204   2.250
33771W        W93516  44.496  36.529  10.075
33772W        W93517  29.585  42.431  13.966
33773W        W93518  11.752  35.582   1.772
33774W        W93519  12.840   1.825   2.808
33775W        W93520   2.282  16.738   2.873
33776W        W93521  43.437  35.095   0.426
33777W        W93522  17.678  33.439   4.804
33778W        W93523  35.370  12.235   0.305
33779W        W93524   4.927  39.325   2.316
33780W        W93525  28.637  39.419   3.339
33781W        W93526   8.891   8.893  14.277
33782W        W93527   8.829  24.153   1.262
33783W        W93528  23.583  30.995  13.354
33784W        W93529  22.632  26.083   2.824
33785W        W93530   1.800  35.077   4.200
33786W        W93531  29.038   2.780   4.133
33787W        W93532  15.187   1.301   3.212
33788W        W93533   2.894  44.417  10.565
33789W        W93534  16.271   0.322  10.962
33790W        W93535  32.921  21.604   0.890
33791W        W93536  24.130  23.067   2.744
33792W        W93537  34.559  16.780  14.806
33793W        W93538   6.893  13.609   4.646
33794W        W93539   4.770  38.860   4.302
33795W        W93540  17.293   6.394   1.695
33796W        W93541  29.510  30.124  10.129
33797W        W93542  15.191  35.449   0.898
33798W        W93543  42.506  11.319   2.389
33799W        W93544  30.106  38.058  13.036
33800W        W93545  33.939  44.828  14.025
33801W        W93546  37.449  19.582   5.124
33802W        W93547  40.367   0.876   3.168
33803W        W93548  41.454  33.562  11.492
33804W        W93549  26.562   3.935  12.909
33805W        W93550  29.082  44.489   3.174
33806W        W93551   3.238  44.001  10.415
33807W        W93552  29.661  22.678   4.699
33808W        W93553  19.223  17.088   3.645
33809W        W93554   4.303  14.746  11.401
33810W        W93555   9.226  22.998  12.859
33811W        W93556   9.884   1.397   4.814
33812W        W93557  19.551  35.077  12.557
33813W        W93558  38.484   3.220  11.029
33814W        W93559  42.287  29.493  13.313
33815W        W93560  38.340  18.090  12.550
33816W        W93561  36.048  22.717   3.779
33817W        W93562  41.974  41.815   4.668
33818W        W93563  44.407  25.040   4.131
33819W        W93564   4.782   3.437  10.599
33820W        W93565  32.040   9.816  13.411
33821W        W93566  40.919   9.258   1.336
33822W        W93567  11.267  32.090   4.339
33823W        W93568  20.040  29.658   2.355
33824W        W93569  17.061  27.984   0.838
33825W        W93570  18.589  19.764  14.882
33826W        W93571   1.439  23.175   1.807
33827W        W93572  38.501   0.975  12.545
33828W        W93573  15.240  11.238   1.888
33829W        W93574  38.051  23.224  11.105
33830W        W93575  10.749  39.479   3.289
33831W        W93576  40.307   5.244  12.952
33832W        W93577  34.024  25.590   3.163
33833W        W93578  37.550   1.848   1.426
33834W        W93579  42.970  23.512  12.830
33835W        W93580   6.256  17.741   0.300
33836W        W93581  41.927   8.670   1.255
33837W        W93582  26.166  30.939  11.401
33838W        W93583  22.686  38.372   4.304
33839W        W93584  16.120  33.019   4.755
33840W        W93585  20.056  28.932  10.016
33841W        W93586  44.482  30.118  13.818
33842W        W93587  39.947   4.246  14.916
33843W        W93588  36.875  28.992   1.269
33844W        W93589  29.987  15.121  14.358
33845W        W93590  13.630  30.002   0.852
33846W        W93591  22.695  16.661   0.861
33847W        W93592  10.243  35.413  11.488
33848W        W93593   7.206  22.248   1.892
33849W        W93594   9.643  21.752   0.470
33850W        W93595  25.475  18.552   1.924
33851W        W93596  18.758  32.062  10.085
33852W        W93597   8.338  39.809  11.407
33853W        W93598  31.061  29.666  13.322
33854W        W93599   5.748  13.144  11.906
33855W        W93600   4.818  21.115   4.817
33856W        W93601   1.435   2.767   4.353
33857W        W93602  44.003  28.667   9.997
33858W        W93603  38.507  25.144   3.261
33859W        W93604  41.866  31.627   0.284
33860W        W93605  40.934  38.888   4.197
33861W        W93606  39.560  23.120   0.343
33862W        W93607  40.837   6.756  13.443
33863W        W93608   8.371  12.724  14.461
33864W        W93609  26.151  44.009  13.818
33865W        W93610  23.231  17.207   2.746
33866W        W93611   1.885  34.116  14.028
33867W        W93612   2.428   9.849   2.841
33868W        W93613  26.085  41.427  14.347
33869W        W93614  11.740  19.087  13.969
33870W        W93615  35.482  42.504  10.595
33871W        W93616  28.002   8.890  10.032
33872W        W93617  27.111  33.547   1.889
33873W        W93618  21.189  35.488  14.871
33874W        W93619  29.075  15.662  10.976
33875W        W93620  25.070  11.204   4.292
33876W        W93621  18.208   7.184  11.934
33877W        W93622  18.261  19.102  14.361
33878W        W93623   6.783  35.088  10.540
33879W        W93624  36.411  18.209   2.817
33880W        W93625  38.981  23.594   2.776
33881W        W93626  18.130   8.368   2.733
33882W        W93627  32.608   6.374  12.520
33883W        W93628   4.930  31.099   0.801
33884W        W93629   4.295  13.323  13.519
33885W        W93630  32.405  11.817  13.545
33886W        W93631  28.144   0.254  12.870
33887W        W93632  41.469  30.963   0.393
33888W        W93633   0.980  18.128  12.484
33889W        W93634  43.827  38.950  10.528
33890W        W93635   6.299  35.861  10.101
33891W        W93636  11.677  38.552  12.078
33892W        W93637   3.388  11.180  14.012
33893W        W93638  37.442   4.896  13.818
33894W        W93639   0.981  32.071  13.361
33895W        W93640  40.343  36.549   1.783
33896W        W93641  26.459  15.316  14.500
33897W        W93642   3.833  25.580  10.485
33898W        W93643  25.650  19.698   5.263
33899W        W93644   9.384   9.808  12.392
33900W        W93645  28.626   8.806  10.488
33901W        W93646  44.927  33.432   4.116
33902W        W93647   8.732  28.448  14.369
33903W        W93648  41.391   8.821   0.266
33904W        W93649  15.722  20.240   3.256
33905W        W93650  15.642  37.895  13.495
33906W        W93651  21.069  26.533   0.418
33907W        W93652  22.056  32.949  12.409
33908W        W93653  31.439  13.838   3.727
33909W        W93654  33.061  19.167   1.329
33910W        W93655  27.462  24.519   1.710
33911W        W93656  26.140  44.866   1.422
33912W        W93657   4.418   1.858  12.006
33913W        W93658  33.428  43.341  10.404
33914W        W93659  43.958  21.037   2.778
33915W        W93660  17.184   9.844  14.354
33916W        W93661  13.247  44.003   4.175
33917W        W93662   6.795  16.681  11.533
33918W        W93663  26.150  13.226  11.454
33919W        W93664  24.710   5.887   1.867
33920W        W93665  13.603  11.139   2.897
33921W        W93666  33.100  20.222  13.529
33922W        W93667  17.748  12.632  12.370
33923W        W93668  43.382   6.727   3.164
33924W        W93669  37.865  14.111  11.880
33925W        W93670  15.159  34.987  10.580
33926W        W93671   0.336   9.775   4.215
33927W        W93672  25.017   9.770   0.794
33928W        W93673  37.470  40.487  12.573
33929W        W93674  24.671   0.379  12.926
33930W        W93675  39.933   8.767  10.991
33931W        W93676   6.311  35.558  13.471
33932W        W93677  25.579  30.597   5.246
33933W        W93678  21.699  24.096  14.829
33934W        W93679  19.267  30.503   1.850
33935W        W93680  22.046  23.161  12.021
33936W        W93681  44.932  36.860  12.045
33937W        W93682  12.161   1.732  11.129
33938W        W93683  11.640  39.520   0.851
33939W        W93684  19.762  15.763   5.280
33940W        W93685  25.092  26.181  14.318
33941W        W93686  10.222  11.821   3.304
33942W        W93687  13.331  41.485  10.156
33943W        W93688  11.646  39.526   1.220
33944W        W93689  24.543  26.188   2.690
33945W        W93690  25.061  25.587   2.730
33946W        W93691  31.467   1.380   3.740
33947W        W93692  32.519  15.185   3.338
33948W        W93693  24.198  33.067  13.309
33949W        W93694   0.988  38.506  10.014
33950W        W93695  25.993  13.749   2.242
33951W        W93696  35.082  12.181   2.900
33952W        W93697  41.802  23.619   4.331
33953W        W93698  32.574  38.882   4.208
33954W        W93699  37.921  11.678   0.793
33955W        W93700  23.999  30.033   2.369
33956W        W93701  13.105  28.564  12.538
33957W        W93702  32.987  15.314  13.386
33958W        W93703  14.275  18.081   1.909
33959W        W93704   3.952  11.311   3.818
33960W        W93705  17.657  36.918   4.120
33961W        W93706  43.345  39.915  14.352
33962W        W93707  11.290  30.619  12.887
33963W        W93708  10.230  43.853  11.001
33964W        W93709  24.002  15.322  10.963
33965W        W93710   3.830  34.992   4.761
33966W        W93711  18.263  15.745   1.437
33967W        W93712  41.896  30.924   3.745
33968W        W93713  20.235   3.807   3.294
33969W        W93714   5.823   9.297   4.245
33970W        W93715  40.397  41.971  14.791
33971W        W93716  24.107  30.557  11.056
33972W        W93717  25.541   8.320  11.987
33973W        W93718  19.718  22.252  13.037
33974W        W93719  35.467  23.186   2.361
33975W        W93720  16.092  12.331   2.683
33976W        W93721  27.512  12.720  14.482
33977W        W93722  42.020   8.181   2.827
33978W        W93723  15.158   0.779   0.427
33979W        W93724  17.634   0.364  14.882
33980W        W93725   4.309  41.307   4.212
33981W        W93726  42.384  39.859  12.859
33982W        W93727  28.107  11.220  11.877
33983W        W93728  15.691  27.487  14.392
33984W        W93729   4.822   0.489   2.838
33985W        W93730  27.091  13.289   3.758
33986W        W93731  42.399  36.357   3.172
33987W        W93732  15.633   3.766   3.198
33988W        W93733   3.452  36.915  14.356
33989W        W93734  40.923  42.483  13.921
33990W        W93735  44.462   2.738   1.790
33991W        W93736  10.806  10.351   3.866
33992W        W93737  26.511  40.798   2.267
33993W        W93738  18.230  17.127   4.257
33994W        W93739  32.996  22.037  12.974
33995W        W93740   5.420   4.939   3.645
33996W        W93741  10.208  18.158   1.903
33997W        W93742   2.878  31.648   3.659
33998W        W93743  42.463  42.340  13.063
33999W        W93744   0.804  12.802  14.870
34000W        W93745   6.792  32.497  13.006
34001W        W93746   5.198   6.848   0.360
34002W        W93747  35.054   5.914  10.644
34003W        W93748   1.461  18.642  13.059
34004W        W93749  17.253  39.321   0.902
34005W        W93750  41.299   0.789   0.769
34006W        W93751  34.934   5.720  11.556
34007W        W93752  42.333  28.095  14.384
34008W        W93753  37.019  12.666  12.463
34009W        W93754   4.838  38.342  11.612
34010W        W93755  33.068   2.235   0.354
34011W        W93756  16.773   1.920   3.844
34012W        W93757   0.977   9.150   2.696
34013W        W93758  13.155   6.783   1.254
34014W        W93759  22.674  12.706   1.358
34015W        W93760   9.307   2.354   3.212
34016W        W93761  30.093  22.069  12.411
34017W        W93762   7.789   3.251  11.000
34018W        W93763   0.465  26.616   4.621
34019W        W93764  13.743  22.152   1.322
34020W        W93765  29.480   4.784   0.456
34021W        W93766  10.847  30.026  14.488
34022W        W93767  44.430  41.874  13.039
34023W        W93768  27.503  19.199   2.231
34024W        W93769  38.359  42.966   3.776
34025W        W93770  37.513  44.459   2.276
34026W        W93771  28.458   0.365  10.407
34027W        W93772  37.922  37.948  12.064
34028W        W93773  23.635  37.380   1.909
34029W        W93774  33.415   6.410   1.359
34030W        W93775  18.101  15.649   3.378
34031W        W93776  31.616  40.396  10.943
34032W        W93777  39.006  41.932   2.832
34033W        W93778  35.050   9.394   0.739
34034W        W93779   7.214  38.006  15.000
34035W        W93780   0.983  41.979   4.613
34036W        W93781  15.306  43.295   1.219
34037W        W93782  35.991  42.953  10.617
34038W        W93783  24.004  44.808  11.040
34039W        W93784  13.317  25.198  10.595
34040W        W93785  27.507  25.697  11.921
34041W        W93786   5.239  34.425  11.099
34042W        W93787   3.914  32.942  11.975
34043W        W93788  13.289   0.831  13.843
34044W        W93789  38.401  35.572   1.346
34045W        W93790  42.999  21.607   4.335
34046W        W93791   8.167   8.360   3.639
34047W        W93792  35.458  34.492  10.639
34048W        W93793  10.157  36.876   5.314
34049W        W93794  30.963  38.831   4.275
34050W        W93795   4.748   9.297   2.400
34051W        W93796   3.794   3.800  12.526
34052W        W93797  15.764  44.992   4.274
34053W        W93798  22.513   4.211   4.624
34054W        W93799  13.791  43.318  13.477
34055W        W93800  41.361  39.060   4.219
34056W        W93801  28.584  20.536   0.459
34057W        W93802   2.863  34.063  10.591
34058W        W93803  34.569  37.468   0.306
34059W        W93804  10.225  35.994  13.962
34060W        W93805  35.458   2.361  13.841
34061W        W93806   8.886  18.250  13.415
34062W        W93807  41.917  39.923   4.188
34063W        W93808   0.322   5.345  10.939
34064W        W93809  36.093  12.854   1.266
34065W        W93810  20.546  17.771  12.885
34066W        W93811  13.651   0.868  13.939
34067W        W93812   2.852  16.279   0.960
34068W        W93813  21.167  40.471  14.784
34069W        W93814   7.702  29.007   2.182
34070W        W93815  20.056  10.155   4.698
34071W        W93816  17.292  23.157   2.285
34072W        W93817  15.724  17.267   5.196
34073W        W93818  11.786  31.947   5.123
34074W        W93819  41.319  19.179   3.193
34075W        W93820   2.896  16.277  10.537
34076W        W93821   3.340  17.220   3.193
34077W        W93822  40.463  14.286  13.320
34078W        W93823  23.697  30.613   4.814
34079W        W93824  21.028  19.724  12.893
34080W        W93825   4.283  23.184   2.686
34081W        W93826  40.908  35.921   4.241
34082W        W93827   7.289  14.208   0.325
34083W        W93828  43.476  17.294  14.866
34084W        W93829   5.215  14.133  10.601
34085W        W93830  43.360  10.767   2.749
34086W        W93831  25.561   8.202   0.436
34087W        W93832  22.704  42.025   4.269
34088W        W93833  11.176  17.705   1.447
34089W        W93834  16.268  29.453  13.492
34090W        W93835   5.806  28.498  10.468
34091W        W93836  18.551  42.460   0.479
34092W        W93837  16.689  29.595   3.759
34093W        W93838  41.030  36.994  12.360
34094W        W93839  16.118  12.194  11.461
34095W        W93840   3.721   1.936   2.863
34096W        W93841  27.627   9.661   1.728
34097W        W93842  42.816  33.386   2.415
34098W        W93843   2.353  24.980  13.034
34099W        W93844  18.596  17.794  11.421
34100W        W93845  11.821   1.923   2.675
34101W        W93846  34.470   7.248  14.871
34102W        W93847  18.119  16.604   4.726
34103W        W93848  11.254   8.897  13.042
34104W        W93849  11.134  33.456   4.785
34105W        W93850  12.824  38.559   1.933
34106W        W93851  33.993  25.108   4.695
34107W        W93852  18.590  19.729   0.400
34108W        W93853  28.626  24.019   3.847
34109W        W93854  37.033  44.440   0.842
34110W        W93855  21.217  43.345  12.504
34111W        W93856  11.728  34.888  10.108
34112W        W93857  20.259   4.701   1.773
34113W        W93858  21.749   2.926   3.295
34114W        W93859  21.758  19.779   4.740
34115W        W93860  16.263  24.666   4.682
34116W        W93861  38.406   8.206   3.702
34117W        W93862  42.452  24.167  10.637
34118W        W93863  42.027  41.946  13.491
34119W        W93864   0.963  44.263   2.182
34120W        W93865  35.570  35.596   3.292
34121W        W93866  31.423  26.951  14.485
34122W        W93867  25.609  17.148   1.708
34123W        W93868  15.802   2.858  14.024
34124W        W93869  18.109  10.159   4.622
34125W        W93870   0.290   9.279  13.036
34126W        W93871  42.881   8.160   2.836
34127W        W93872  12.790  18.566   0.342
34128W        W93873  28.511  25.016   5.163
34129W        W93874  34.017   4.784  11.964
34130W        W93875  16.148   3.725  14.032
34131W        W93876   5.882  18.282   4.682
34132W        W93877  30.654  37.435   2.735
34133W        W93878   9.787  16.647  13.422
34134W        W93879  23.579  28.652   0.736
34135W        W93880  12.157  36.457   1.337
34136W        W93881   6.201  44.965   3.160
34137W        W93882   2.858  38.512  10.509
34138W        W93883   8.875  32.596   4.331
34139W        W93884  20.267   0.756  12.356
34140W        W93885  25.636  19.567  12.565
34141W        W93886  39.015  19.597  12.968
34142W        W93887  34.518   6.246  10.457
34143W        W93888  18.190  42.517  12.842
34144W        W93889  37.386  32.627  14.325
34145W        W93890   9.694  38.033   2.362
34146W        W93891  18.205   3.811   1.828
34147W        W93892  11.202  38.369  10.632
34148W        W93893  15.730   1.424  14.024
34149W        W93894  44.921  21.691  12.477
34150W        W93895  13.667  40.533   4.353
34151W        W93896  32.444  44.358   1.282
34152W        W93897  32.024   0.251   3.324
34153W        W93898  19.646  43.398   4.807
34154W        W93899  15.244  21.070  10.613
34155W        W93900  23.099  24.662   3.317
34156W        W93901  36.875  19.671   1.375
34157W        W93902  39.384  28.512  11.459
34158W        W93903  20.222  43.496  12.419
34159W        W93904  20.768   6.409  13.311
34160W        W93905   0.879  25.988  12.454
34161W        W93906  33.942  15.197   1.251
34162W        W93907  18.255  43.928   0.404
34163W        W93908  21.259  23.643  13.938
34164W        W93909  19.611  16.086   2.843
34165W        W93910   0.255   8.238  12.399
34166W        W93911  40.936   9.257  11.539
34167W        W93912  41.869   2.232  12.066
34168W        W93913   1.313  36.875   0.953
34169W        W93914  37.956  22.614   0.759
34170W        W93915  32.609  42.460   2.847
34171W        W93916  11.725  44.332   4.644
34172W        W93917   8.396  12.159  13.466
34173W        W93918  26.175   4.860  11.116
34174W        W93919  11.255   5.738   0.475
34175W        W93920   4.424  36.443   4.687
34176W        W93921   0.489  12.671  14.793
34177W        W93922  23.209   8.880  14.863
34178W        W93923   9.684  11.159   4.644
34179W        W93924  34.981  26.461   1.424
34180W        W93925   6.740   5.359  14.339
34181W        W93926  30.592  26.642  13.495
34182W        W93927  30.932  15.274  14.502
34183W        W93928  16.634  17.091   4.631
34184W        W93929  24.039  34.513   4.653
34185W        W93930  31.046  23.075  12.407
34186W        W93931  22.216   4.346  10.535
34187W        W93932  35.479   3.351   2.341
34188W        W93933  16.307   9.870  11.128
34189W        W93934  21.135  19.588  11.894
34190W        W93935  30.908  18.722   2.267
34191W        W93936  15.695  28.487  12.395
34192W        W93937  21.138  36.033   4.275
34193W        W93938  13.842   6.792   1.876
34194W        W93939   3.390  17.628  11.468
34195W        W93940   6.882  16.764  11.926
34196W        W93941  22.127   6.252   3.316
34197W        W93942  35.377  44.394   1.396
34198W        W93943  41.922  21.567   4.167
34199W        W93944  29.167  27.183   2.412
34200W        W93945   9.687  18.172  14.007
34201W        W93946   1.947  18.677   0.932
34202W        W93947  21.646  12.688  12.896
34203W        W93948  26.137  28.986   0.276
34204W        W93949  25.007   3.882  12.379
34205W        W93950  27.543  18.200   1.700
34206W        W93951  27.595   0.952   0.908
34207W        W93952   6.748  42.495   3.776
34208W        W93953  22.210  16.249  13.543
34209W        W93954  13.180  40.913  13.465
34210W        W93955  21.637  25.083  14.314
34211W        W93956   0.791  34.545  14.449
34212W        W93957   4.813  44.431  10.968
34213W        W93958  30.077  37.413   2.877
34214W        W93959   8.704  11.828   3.668
34215W        W93960  14.182   1.822   0.453
34216W        W93961   4.915   7.744  13.973
34217W        W93962  22.685  29.457   4.235
34218W        W93963  21.194   7.259  10.490
34219W        W93964  37.351  32.112   3.282
34220W        W93965  40.981   7.846   4.163
34221W        W93966  28.066  41.396   4.778
34222W        W93967  28.109  29.552   0.311
34223W        W93968  37.446  34.066  10.528
34224W        W93969   7.679   4.419   2.679
34225W        W93970  40.914   7.823   1.316
34226W        W93971  27.521  12.143  13.024
34227W        W93972  39.482  16.159  11.372
34228W        W93973  26.635  44.301   1.786
34229W        W93974   8.674  30.620  12.489
34230W        W93975  18.074  10.742  11.924
34231W        W93976  24.130   2.965  14.926
34232W        W93977  11.804  39.317  10.911
34233W        W93978  44.369  26.138  14.791
34234W        W93979  10.717  28.956  11.488
34235W        W93980  21.181   5.271  14.420
34236W        W93981  13.787   1.934   0.338
34237W        W93982  16.666  44.279  10.405
34238W        W93983   0.853  37.070  11.437
34239W        W93984  40.891  13.325   2.840
34240W        W93985   7.229  20.227  14.763
34241W        W93986  25.082   9.753   4.171
34242W        W93987  44.345  44.996   2.372
34243W        W93988   6.712  44.859   1.311
34244W        W93989  42.283  21.757   3.147
34245W        W93990   1.454  19.047  11.965
34246W        W93991  25.157  15.319   2.824
34247W        W93992   7.772   3.346   4.737
34248W        W93993  38.528  26.559  14.002
34249W        W93994  29.626   9.187  14.320
34250W        W93995  35.038   0.790   1.789
34251W        W93996   2.309  16.171   0.727
34252W        W93997  41.438  17.190  11.390
34253W        W93998  44.785  40.379  14.018
34254W        W93999  38.429   6.733  10.535
34255W        W94000  44.283   3.274  14.797
34256W        W94001  37.354  26.011  12.902
34257W        W94002  19.109  13.292  11.384
34258W        W94003  37.015  15.699  11.422
34259W        W94004   9.189  33.049   2.720
34260W        W94005   5.810   6.711  13.026
34261W        W94006  24.567  31.897  13.937
34262W        W94007  30.023  27.457  14.359
34263W        W94008  21.625   2.739  14.431
34264W        W94009  11.847  25.132   0.804
34265W        W94010  28.456   2.316   2.313
34266W        W94011  11.227  24.572  14.312
34267W        W94012  10.653   6.747   3.638
34268W        W94013  25.659  15.092  12.913
34269W        W94014  34.572  30.141  11.073
34270W        W94015  33.509   1.765  12.826
34271W        W94016  24.111  44.467   0.849
34272W        W94017  16.759   0.980  12.864
34273W        W94018  24.188  12.784   4.155
34274W        W94019  23.197  41.453  12.865
34275W        W94020  43.998   8.225  12.915
34276W        W94021  29.948  33.538   1.221
34277W        W94022  25.985  39.043  10.505
34278W        W94023  39.326  18.128  14.304
34279W        W94024  10.373  13.624   2.401
34280W        W94025  28.126  15.279   0.939
34281W        W94026  38.065  30.542   0.952
34282W        W94027  12.807  28.467   2.683
34283W        W94028   4.860  36.374   2.290
34284W        W94029  29.443  35.092   4.771
34285W        W94030   0.480  34.524   9.513
34286W        W94031  22.246  43.366  13.317
34287W        W94032  37.951  13.301   0.281
34288W        W94033  41.535  10.286   2.353
34289W        W94034   8.724  41.966   3.662
34290W        W94035  18.689  30.476   3.711
34291W        W94036  26.114   1.377   1.225
34292W        W94037  17.167   3.828   1.252
34293W        W94038  38.543   8.385  12.891
34294W        W94039  28.576  40.898  11.003
34295W        W94040   8.874  40.428  12.016
34296W        W94041   5.197  14.264  10.997
34297W        W94042  11.650  36.479   3.706
34298W        W94043   3.341   7.350   3.335
34299W        W94044   5.763   0.834   1.268
34300W        W94045  23.664  28.544  12.089
34301W        W94046  12.229  22.221  12.339
34302W        W94047   0.813  11.651   0.278
34303W        W94048  40.488  34.402   3.743
34304W        W94049   9.158  11.219  14.913
34305W        W94050  40.919  23.140  11.991
34306W        W94051   2.333   8.771   0.291
34307W        W94052   3.375  17.144  13.063
34308W        W94053  35.561   5.250  12.824
34309W        W94054  40.396   8.299   2.823
34310W        W94055  22.503  33.475  14.294
34311W        W94056  22.113   2.290  11.122
34312W        W94057  42.998   4.878   4.276
34313W        W94058  32.905  37.463  12.001
34314W        W94059  35.102  39.392   0.838
34315W        W94060  18.222   1.857  13.426
34316W        W94061  21.732  34.436   3.737
34317W        W94062  38.395   6.421  14.899
34318W        W94063  40.431   5.807   2.881
34319W        W94064  36.912  21.638  14.459
34320W        W94065   8.764  10.821   4.727
34321W        W94066  44.344  39.509  12.824
34322W        W94067  42.485  33.915  13.794
34323W        W94068  38.880  37.861   1.728
34324W        W94069  15.720  31.896  14.786
34325W        W94070  13.725  32.101   4.671
34326W        W94071  28.517  41.951  13.311
34327W        W94072  24.555  13.763   5.198
34328W        W94073   5.787  44.288  13.334
34329W        W94074  36.539   4.725   4.634
34330W        W94075  27.522  11.823  13.390
34331W        W94076   7.785  10.772   4.831
34332W        W94077  27.549   8.400   4.618
34333W        W94078   8.807  11.305  10.437
34334W        W94079  34.929  25.635  13.817
34335W        W94080  11.786  22.703  11.374
34336W        W94081  25.024  41.959  14.885
34337W        W94082  13.203  21.173   3.371
34338W        W94083  12.618  37.059   5.163
34339W        W94084  36.957   7.202  11.387
34340W        W94085   9.777  38.563   1.719
34341W        W94086  19.564  10.322  14.993
34342W        W94087  36.394  14.614   3.175
34343W        W94088  28.061  12.228  12.827
34344W        W94089   5.222  41.984  13.912
34345W        W94090  31.054   8.342  14.901
34346W        W94091   6.250  12.360  13.955
34347W        W94092  20.660  10.751  13.959
34348W        W94093  20.082  42.836   1.883
34349W        W94094   0.914  44.934  14.442
34350W        W94095  27.492   1.841  14.977
34351W        W94096  11.127  17.772   2.240
34352W        W94097  38.895   3.314   2.242
34353W        W94098  36.912  24.113   2.842
34354W        W94099   8.815  12.689  14.303
34355W        W94100  38.462  26.112   0.931
34356W        W94101   5.202  12.349   3.746
34357W        W94102  35.896  27.492   1.808
34358W        W94103  21.023  44.303   2.882
34359W        W94104  23.590  11.832   0.461
34360W        W94105  27.492  14.236  10.614
34361W        W94106   6.271  36.369   3.166
34362W        W94107  17.124  31.599   3.666
34363W        W94108  18.269  36.424  13.874
34364W        W94109  14.628  10.859   1.868
34365W        W94110   5.829  39.981   1.814
34366W        W94111  28.123  42.799   3.203
34367W        W94112  38.872  29.052   0.354
34368W        W94113  32.415  13.141  14.453
34369W        W94114   2.462  13.735   3.225
34370W        W94115  14.654   2.735  12.997
34371W        W94116  38.388  42.853  12.397
34372W        W94117  16.678  42.419  14.874
34373W        W94118  38.019  43.801  10.949
34374W        W94119   3.771  21.032   0.314
34375W        W94120  25.638  17.300  11.590
34376W        W94121  29.083  10.302   2.827
34377W        W94122  19.619  30.611   0.321
34378W        W94123  41.039   8.406  11.988
34379W        W94124  26.143  18.286   0.806
34380W        W94125   7.319  44.775   4.285
34381W        W94126  32.097   8.257   0.346
34382W        W94127  21.208  29.017   0.451
34383W        W94128  32.547  30.658  14.294
34384W        W94129   0.818  27.465   3.866
34385W        W94130  44.845   3.296  12.474
34386W        W94131   1.240  29.970  10.461
34387W        W94132  28.476  19.051  12.889
34388W        W94133  12.763  23.007  14.990
34389W        W94134   0.757  18.076  12.862
34390W        W94135  32.483  43.305   3.149
34391W        W94136  38.062  21.651   2.881
34392W        W94137  23.213  10.730   2.397
34393W        W94138  25.006  16.120   0.921
34394W        W94139  16.199  36.393  10.626
34395W        W94140   5.299  35.992  14.867
34396W        W94141  23.095  13.183   3.299
34397W        W94142  30.023  37.844  14.007
34398W        W94143  39.888   9.887   1.891
34399W        W94144  34.877  11.373  13.832
34400W        W94145  21.539  11.310   1.310
34401W        W94146  29.479  26.061   1.339
34402W        W94147  24.543  32.601  11.966
34403W        W94148  21.706  20.224   0.374
34404W        W94149  41.855   4.935  11.932
34405W        W94150  22.155  11.265   5.722
34406W        W94151   5.199   4.871  10.587
34407W        W94152  22.522  15.597  10.636
34408W        W94153   1.878  35.069   0.928
34409W        W94154   1.973  18.715  10.921
34410W        W94155  16.192   1.961  12.513
34411W        W94156   7.867   8.771   5.181
34412W        W94157  27.583  28.085  13.974
34413W        W94158   0.773  33.511   1.934
34414W        W94159  37.422  15.205   0.758
34415W        W94160  22.163  26.018  13.976
34416W        W94161  38.559  32.095   1.393
34417W        W94162  39.526  18.287  13.338
34418W        W94163  32.591  39.517  12.931
34419W        W94164  39.845  37.360   0.949
34420W        W94165  32.959  38.445   0.888
34421W        W94166   2.946  41.925   2.230
34422W        W94167  44.982  39.491   0.390
34423W        W94168  18.170  21.236  13.842
34424W        W94169  42.950  37.030   1.710
34425W        W94170  37.927  21.142   3.741
34426W        W94171  38.389  28.124   1.220
34427W        W94172  24.715  12.361   1.370
34428W        W94173   1.272  17.696  12.445
34429W        W94174  35.551  20.626  10.562
34430W        W94175  32.938  28.610  10.466
34431W        W94176  14.172  33.439  13.954
34432W        W94177   9.312   8.303   3.777
34433W        W94178  14.124  29.968  12.899
34434W        W94179  20.058   5.434  11.550
34435W        W94180  43.312   9.644   4.665
34436W        W94181  44.446  17.147   3.276
34437W        W94182  40.386   1.257  14.484
34438W        W94183  11.767  12.256  10.625
34439W        W94184  29.658   3.313   1.450
34440W        W94185   5.708  29.086   2.307
34441W        W94186   3.406   5.241  11.497
34442W        W94187  36.922  20.265  10.638
34443W        W94188  13.313  37.966  13.450
34444W        W94189  28.944  38.836  14.388
34445W        W94190  29.959  21.518   3.752
34446W        W94191  27.622  38.463   3.761
34447W        W94192  23.546  12.128   0.930
34448W        W94193  22.592  28.560  14.408
34449W        W94194  40.051  42.905   3.369
34450W        W94195  19.632  22.700  14.357
34451W        W94196  36.581  20.574   3.233
34452W        W94197   6.822  30.542  14.793
34453W        W94198  16.175  10.633   2.736
34454W        W94199  22.123  37.467   2.739
34455W        W94200  39.825  22.033   3.303
34456W        W94201   6.332  24.103  14.310
34457W        W94202  11.168  41.944  12.373
34458W        W94203  36.957  36.554  11.032
34459W        W94204  30.425  14.749   3.723
34460W        W94205  12.651   4.294   3.168
34461W        W94206  15.792  27.985  12.863
34462W        W94207   7.824  26.082  14.809
34463W        W94208  32.468   4.307  11.942
34464W        W94209   7.892   2.930   0.415
34465W        W94210  31.564   6.786   5.653
34466W        W94211  44.851  21.031  13.317
34467W        W94212   5.413   8.679  13.937
34468W        W94213  15.687  35.087   4.807
34469W        W94214   6.709  33.505  11.479
34470W        W94215   9.647  37.511   1.431
34471W        W94216  26.497  36.493  13.810
34472W        W94217  40.328  29.657   1.841
34473W        W94218  17.633  26.169  14.346
34474W        W94219  10.203   2.356  13.834
34475W        W94220  32.895  44.335  12.965
34476W        W94221   1.248  26.082   4.290
34477W        W94222  15.231  15.097   1.217
34478W        W94223  22.599  32.574  12.556
34479W        W94224  33.408  20.103  12.451
34480W        W94225  36.857   7.195   4.170
34481W        W94226  28.949  20.192  10.975
34482W        W94227  20.714  26.033   0.481
34483W        W94228  14.636  44.344   4.798
34484W        W94229  17.133  44.937  11.986
34485W        W94230  40.387  35.882  13.886
34486W        W94231  25.003   5.784  11.986
34487W        W94232  39.343   2.956   4.308
34488W        W94233  34.922   2.418   4.148
34489W        W94234   1.378  39.996  14.410
34490W        W94235  27.494  18.068  14.921
34491W        W94236   7.399   9.658   1.821
34492W        W94237  11.271  38.409   5.224
34493W        W94238  11.630  27.605  14.799
34494W        W94239  19.046  15.287   2.261
34495W        W94240  43.439  13.347  13.316
34496W        W94241  17.258   6.818   3.321
34497W        W94242  36.591   3.228  12.476
34498W        W94243  44.408  33.073   0.464
34499W        W94244  36.043  29.616  14.996
34500W        W94245  37.855  12.683   3.200
34501W        W94246  43.779  43.306  12.866
34502W        W94247  28.973  31.458  13.484
34503W        W94248  27.067  23.229  12.366
34504W        W94249  31.134  31.481  12.535
34505W        W94250  14.265  39.435  13.901
34506W        W94251  18.719   8.808   2.399
34507W        W94252  13.327  25.540   4.183
34508W        W94253   2.772  12.676   0.417
34509W        W94254  26.041  19.117  11.541
34510W        W94255  13.667  37.529  14.761
34511W        W94256  39.558  32.938  13.990
34512W        W94257  36.064  22.586  13.528
34513W        W94258  23.651  15.151  11.544
34514W        W94259  20.106  24.494   2.850
34515W        W94260  27.572   4.299   0.365
34516W        W94261   4.255  21.679  11.002
34517W        W94262  33.121  10.330   1.233
34518W        W94263  35.044   0.749  14.515
34519W        W94264  39.871  39.052  13.336
34520W        W94265  12.288  41.363  13.834
34521W        W94266   1.825   2.276   1.319
34522W        W94267   4.306   2.915  11.501
34523W        W94268  12.173   8.214   2.801
34524W        W94269  42.896  44.490  12.372
34525W        W94270  12.227  27.603   4.725
34526W        W94271  11.348  16.144  12.386
34527W        W94272   5.414  22.669   3.705
34528W        W94273  16.263  18.708   3.738
34529W        W94274   6.832  28.655  13.858
34530W        W94275  26.520  22.647   5.184
34531W        W94276  38.006  25.096  11.393
34532W        W94277  17.737  30.923  13.400
34533W        W94278  35.592  10.346   4.178
34534W        W94279  35.534   8.299   3.186
34535W        W94280   9.690   1.362   2.736
34536W        W94281  44.477  11.157  12.354
34537W        W94282  27.535   7.412  13.540
34538W        W94283  30.019  34.996  11.944
34539W        W94284  20.192  31.126   1.360
34540W        W94285  10.790  16.083  10.406
34541W        W94286  15.252  14.337   3.204
34542W        W94287   9.171  35.854   3.807
34543W        W94288  16.697   4.843  14.771
34544W        W94289  37.490   7.401  14.816
34545W        W94290   4.737   0.299   4.781
34546W        W94291   4.228  34.577   3.736
34547W        W94292  38.444  24.085  14.297
34548W        W94293  38.957  36.386   4.128
34549W        W94294  16.246  29.094   3.161
34550W        W94295   8.776   3.894  12.056
34551W        W94296  27.669   5.829  11.098
34552W        W94297  20.113  15.795  13.907
34553W        W94298  14.129  13.323  14.867
34554W        W94299  12.752  25.080   2.765
34555W        W94300  35.394  27.081   2.353
34556W        W94301  33.609  16.715   0.926
34557W        W94302  34.516   3.291  10.916
34558W        W94303  16.583  17.707   2.208
34559W        W94304  43.867   4.846  12.072
34560W        W94305  41.788  34.960  14.856
34561W        W94306  42.466   7.241  13.866
34562W        W94307  12.116  38.892   0.857
34563W        W94308   7.711  34.499   2.696
34564W        W94309  16.625  43.021  13.362
34565W        W94310   7.763  12.344   2.760
34566W        W94311  28.011  30.543  13.395
34567W        W94312  26.490   2.895   1.873
34568W        W94313  19.114  30.420   3.271
34569W        W94314  15.697  34.937   0.337
34570W        W94315  34.065  28.105   1.339
34571W        W94316  33.540  41.296  12.023
34572W        W94317  27.550  19.234   4.233
34573W        W94318  26.986   1.878  13.943
34574W        W94319  27.047  32.433  12.380
34575W        W94320  16.185  21.669   2.878
34576W        W94321  39.414  12.175   3.300
34577W        W94322  29.646  43.831   1.744
34578W        W94323  40.489  10.292   1.782
34579W        W94324  25.104   6.700   4.268
34580W        W94325   6.919  18.743  13.471
34581W        W94326  21.219   6.409   0.794
34582W        W94327   9.361  24.708   4.830
34583W        W94328  24.708  27.540   2.304
34584W        W94329  15.629  20.198  10.891
34585W        W94330  11.844  27.093   1.432
34586W        W94331  31.020  30.037   0.736
34587W        W94332  43.831   0.481   3.259
34588W        W94333  30.474  23.634   4.237
34589W        W94334   7.353  29.116   4.781
34590W        W94335  11.255  17.225   4.184
34591W        W94336  14.247  16.582  12.546
34592W        W94337  16.207  41.908   3.795
34593W        W94338  26.013   1.401   4.704
34594W        W94339  30.114  30.146  13.375
34595W        W94340  18.584  17.230   3.766
34596W        W94341  19.593  39.516  10.578
34597W        W94342  29.432   5.893  13.546
34598W        W94343  19.601  27.006  13.532
34599W        W94344  19.200   7.335  10.575
34600W        W94345  13.621   2.910   0.358
34601W        W94346  41.018  26.130   4.315
34602W        W94347  34.070  29.476   0.308
34603W        W94348  41.384  38.967  10.916
34604W        W94349  12.153   1.938  12.931
34605W        W94350  31.594   3.456  10.056
34606W        W94351  31.550  27.100  11.071
34607W        W94352  34.108   0.822   1.334
34608W        W94353   9.852  29.085   0.359
34609W        W94354  34.388   4.927  11.117
34610W        W94355  21.555   2.884  13.409
34611W        W94356  36.941  36.025   2.321
34612W        W94357  42.849  23.617   4.831
34613W        W94358  10.737  15.641   2.408
34614W        W94359  23.535  15.607  11.000
34615W        W94360   7.221  22.219   0.285
34616W        W94361  25.125  29.160   2.716
34617W        W94362  27.019  24.051  14.959
34618W        W94363  31.084  18.265  11.994
34619W        W94364  28.606  34.378  12.447
34620W        W94365   5.349  31.920  10.559
34621W        W94366   2.762   4.791   4.337
34622W        W94367  41.924  43.954  10.538
34623W        W94368  14.682  17.692  14.466
34624W        W94369  19.534  33.445  14.464
34625W        W94370  23.028  14.179   3.754
34626W        W94371  42.961  16.800  10.461
34627W        W94372   5.932  32.136   0.447
34628W        W94373  19.760  36.032   2.235
34629W        W94374  22.246  19.662  14.820
34630W        W94375  15.670  35.474   3.804
34631W        W94376  19.726  19.720   2.417
34632W        W94377  18.711   9.338   0.320
34633W        W94378  28.015  37.368   0.807
34634W        W94379  35.015   1.742   1.892
34635W        W94380  44.409  22.034   4.720
34636W        W94381   5.840   7.201   4.160
34637W        W94382  21.643   4.248   1.811
34638W        W94383  22.576   1.380   1.432
34639W        W94384   0.312  15.705   2.287
34640W        W94385  37.973  44.311   4.240
34641W        W94386   4.315  29.076  13.057
34642W        W94387  16.205  25.605  11.401
34643W        W94388  28.655  20.696   4.298
34644W        W94389  33.098  34.496   4.218
34645W        W94390  26.161  15.621   1.877
34646W        W94391   2.857  16.650   1.251
34647W        W94392  13.641   8.371   3.759
34648W        W94393   0.827  18.764  14.768
34649W        W94394  41.472   8.690  11.976
34650W        W94395   5.791  28.945   4.317
34651W        W94396  34.466  24.639  11.576
34652W        W94397  25.187  34.448   3.347
34653W        W94398   7.250  32.020   3.836
34654W        W94399  40.344  40.475  11.104
34655W        W94400   5.322  31.535   2.316
34656W        W94401  29.532  43.850   2.186
34657W        W94402  33.473  21.706   1.303
34658W        W94403  28.583  17.163  14.818
34659W        W94404   6.852  20.172   3.307
34660W        W94405  16.807   0.988   3.240
34661W        W94406  18.283  36.453  13.351
34662W        W94407  11.348   5.859   4.659
34663W        W94408  21.132  24.495   4.200
34664W        W94409   4.408  44.459  13.536
34665W        W94410  41.996  33.509  13.801
34666W        W94411  38.395  44.803  11.433
34667W        W94412   6.718  20.042  12.436
34668W        W94413  23.685  29.512  10.950
34669W        W94414   7.218  42.407  12.963
34670W        W94415  28.988  33.382   2.769
34671W        W94416  43.485   7.892   0.378
34672W        W94417   1.830  35.552  10.587
34673W        W94418  11.219  10.186  10.931
34674W        W94419  41.992  30.124   1.757
34675W        W94420  23.723  39.495  11.990
34676W        W94421   5.756  35.864  12.987
34677W        W94422  25.581   2.308  11.896
34678W        W94423  10.325  44.838  11.409
34679W        W94424   0.886   6.356  13.029
34680W        W94425  34.541  17.088   3.371
34681W        W94426   5.248   7.257  14.840
34682W        W94427  32.045  29.576   3.758
34683W        W94428   2.785  11.333   1.386
34684W        W94429   4.768  37.992  13.418
34685W        W94430  22.513  21.033   2.729
34686W        W94431  21.605  44.898   2.289
34687W        W94432   3.886  38.874  11.876
34688W        W94433  32.044  40.513   3.217
34689W        W94434   5.889   9.837   0.274
34690W        W94435  31.641  11.284   1.341
34691W        W94436  31.591  35.925   0.785
34692W        W94437   3.913  19.625  10.460
34693W        W94438  29.079  13.331  12.061
34694W        W94439  33.000  12.811  14.860
34695W        W94440  14.305  12.814  12.048
34696W        W94441  14.172  30.506   3.350
34697W        W94442  40.825  15.143   0.315
34698W        W94443  17.130  35.926   2.214
34699W        W94444  14.184  37.916  11.458
34700W        W94445  34.966  44.467  14.759
34701W        W94446  21.029  42.899   3.319
34702W        W94447  31.646  19.559   0.243
34703W        W94448   5.737  23.503   3.385
34704W        W94449  23.225   8.183  13.438
34705W        W94450   4.859  30.964  12.387
34706W        W94451  19.604   1.475  11.055
34707W        W94452   5.775   7.333  14.288
34708W        W94453  34.922  30.628  12.066
34709W        W94454  17.090   6.874   2.857
34710W        W94455  29.433  18.233  14.336
34711W        W94456  14.242  21.085  14.425
34712W        W94457  20.100  30.150   1.723
34713W        W94458  20.225  27.962   2.314
34714W        W94459  36.894  34.971   4.243
34715W        W94460  21.086  42.303   3.169
34716W        W94461  33.902   8.880  10.611
34717W        W94462   6.247  38.421  13.456
34718W        W94463  16.723  24.575   0.320
34719W        W94464  15.759  18.155  10.609
34720W        W94465   6.356  31.123   0.336
34721W        W94466  23.202  28.940  14.015
34722W        W94467  38.950  10.300  13.974
34723W        W94468  38.334  24.087  14.865
34724W        W94469  39.455   4.345   4.616
34725W        W94470  19.061  21.563   0.941
34726W        W94471  10.772   8.198   2.220
34727W        W94472  14.624  27.188  14.315
34728W        W94473   6.316  10.228   3.666
34729W        W94474  19.657  19.570  12.951
34730W        W94475  24.533  14.706   0.472
34731W        W94476  44.856  20.614   2.893
34732W        W94477  32.091  17.267  14.984
34733W        W94478   5.838   0.780   0.349
34734W        W94479   1.915   1.363  12.017
34735W        W94480  34.945  33.125  13.979
34736W        W94481  31.987  26.035   0.275
34737W        W94482  30.573  22.127   0.928
34738W        W94483  35.856  36.845  12.938
34739W        W94484   4.225  16.748   2.350
34740W        W94485  38.010  20.223  14.961
34741W        W94486   4.440  33.506   4.118
34742W        W94487   1.349  37.466   4.144
34743W        W94488  21.194  32.498   0.917
34744W        W94489  31.993  40.346  13.893
34745W        W94490   6.250  25.554  10.546
34746W        W94491  10.641  38.530   3.147
34747W        W94492  29.663  23.010   3.677
34748W        W94493   3.283  32.017   0.346
34749W        W94494  34.554  10.314  11.964
34750W        W94495  43.877  44.477  10.543
34751W        W94496  24.613   5.758  13.798
34752W        W94497   8.776  33.944  13.937
34753W        W94498  12.725   2.947   2.295
34754W        W94499  44.961  42.405   4.114
34755W        W94500  42.776  40.372  12.380
34756W        W94501   5.919  21.581  14.462
34757W        W94502  17.620  32.951  11.077
34758W        W94503  27.597  37.461   3.380
34759W        W94504  17.563  36.975  11.470
34760W        W94505  11.199  10.673  11.498
34761W        W94506  19.219  20.721   0.399
34762W        W94507   3.742  12.332  14.394
34763W        W94508  41.337  28.116   1.863
34764W        W94509  19.707  26.553   4.737
34765W        W94510  11.341  13.720  12.084
34766W        W94511  43.913  22.062   2.865
34767W        W94512   7.707  17.069   1.879
34768W        W94513  24.559  32.956   5.656
34769W        W94514  32.090  38.879   1.717
34770W        W94515  14.129   4.253  14.419
34771W        W94516   2.274  41.003  14.377
34772W        W94517   6.686  12.647  13.359
34773W        W94518  12.632  23.144   2.670
34774W        W94519  43.466   4.922   1.227
34775W        W94520  44.829  41.965   4.644
34776W        W94521   7.225   5.262   0.772
34777W        W94522  16.760  21.683   4.334
34778W        W94523  11.759  37.416   4.279
34779W        W94524  29.529  21.617  10.502
34780W        W94525  29.173  44.329   1.405
34781W        W94526  32.002   2.467   3.181
34782W        W94527  37.446  44.410  10.633
34783W        W94528  25.518   4.419  11.557
34784W        W94529   2.804   2.259  12.058
34785W        W94530  26.994   2.754   3.182
34786W        W94531  33.569   5.208   9.661
34787W        W94532  15.605  43.958  13.875
34788W        W94533   9.211  11.792  14.894
34789W        W94534   1.956  27.638   3.232
34790W        W94535  33.071  39.319  13.885
34791W        W94536  22.134  33.592   3.865
34792W        W94537  28.465   9.192   2.183
34793W        W94538  30.477  21.264   3.275
34794W        W94539  44.358  19.600  11.909
34795W        W94540  40.327  26.964   3.353
34796W        W94541  31.951  20.633   3.320
34797W        W94542   6.802  27.518  12.963
34798W        W94543  10.384  11.289  13.422
34799W        W94544  29.629  11.665  13.996
34800W        W94545   9.331  43.422   3.704
34801W        W94546   2.246  39.977  12.386
34802W        W94547  39.945   4.390  10.930
34803W        W94548  37.890  40.400   2.293
34804W        W94549  12.140  21.242  11.499
34805W        W94550  10.377  11.731  13.058
34806W        W94551  31.415  11.835  10.519
34807W        W94552  43.434  35.890  13.451
34808W        W94553  10.809  44.485  14.316
34809W        W94554  41.404  25.011   3.702
34810W        W94555   0.405  17.197   0.789
34811W        W94556  41.364   4.448  12.829
34812W        W94557  27.064  39.936  11.384
34813W        W94558  33.453   2.356   3.713
34814W        W94559  42.017  16.154   2.777
34815W        W94560   9.197   9.209   3.246
34816W        W94561  23.544   8.251  11.019
34817W        W94562  30.451   3.232  10.063
34818W        W94563  17.178  34.403   4.831
34819W        W94564  39.976  35.998   3.278
34820W        W94565  22.129  39.928   4.674
34821W        W94566  27.561  29.051  14.430
34822W        W94567  32.472  13.839   3.868
34823W        W94568  34.556  40.823   1.902
34824W        W94569  27.450  23.169  14.971
34825W        W94570  33.020  37.049   4.141
34826W        W94571  22.691  37.544   5.303
34827W        W94572  36.022  25.640  10.585
34828W        W94573  42.374  31.025  14.924
34829W        W94574  33.571   3.859  12.567
34830W        W94575  40.455  44.819  14.436
34831W        W94576  21.256   7.312  14.866
34832W        W94577  11.358  44.435  14.802
34833W        W94578  37.543  31.540   2.664
34834W        W94579  32.995  28.983   0.923
34835W        W94580  40.527  19.163   3.211
34836W        W94581   5.302  23.082  12.510
34837W        W94582   8.844  15.264  13.468
34838W        W94583  23.179  31.644  12.581
34839W        W94584   7.373  15.247   3.703
34840W        W94585  12.132  43.888   1.908
34841W        W94586  29.538  44.300  14.029
34842W        W94587   3.396   0.455   0.947
34843W        W94588  33.592   3.437  14.369
34844W        W94589  19.742  26.582   2.855
34845W        W94590  13.220  32.058   4.224
34846W        W94591   9.678  33.035   2.881
34847W        W94592  39.472  40.524   1.892
34848W        W94593  38.434  17.572  10.558
34849W        W94594  25.526   2.808  10.452
34850W        W94595   6.755   5.724   3.688
34851W        W94596  25.533  41.867   2.196
34852W        W94597   7.361   8.304  14.320
34853W        W94598  40.461   0.927   4.687
34854W        W94599  34.882   3.344   2.294
34855W        W94600  32.433  10.852  12.525
34856W        W94601  30.498  13.158   5.102
34857W        W94602  27.688   2.802  11.484
34858W        W94603  13.766  14.215   0.412
34859W        W94604  38.344  33.390  10.458
34860W        W94605   9.373  27.132  13.523
34861W        W94606  27.169  44.847  11.482
34862W        W94607  33.563  29.454  13.887
34863W        W94608  32.890   9.810   1.370
34864W        W94609  44.348   6.806  13.877
34865W        W94610  29.957  44.492   3.259
34866W        W94611  24.573  32.915  13.463
34867W        W94612  30.161  34.377  14.805
34868W        W94613  28.663  15.676   2.359
34869W        W94614  29.622  16.802   1.305
34870W        W94615  33.086  40.519  10.495
34871W        W94616  28.002  18.084  14.898
34872W        W94617  44.440  26.474   2.774
34873W        W94618  35.077  27.644  14.864
34874W        W94619  33.455  20.577   5.705
34875W        W94620   3.773  37.528  10.077
34876W        W94621  10.316   4.705  13.060
34877W        W94622  29.439  38.856   5.143
34878W        W94623  35.439  39.418  13.359
34879W        W94624  19.160  29.666   3.687
34880W        W94625  19.570  36.915  14.379
34881W        W94626  33.454  17.732  14.280
34882W        W94627   1.323  16.646   2.707
34883W        W94628   8.277  25.000  10.938
34884W        W94629  33.983  37.054  14.822
34885W        W94630  38.352   3.939  13.842
34886W        W94631  29.612  30.559  14.399
34887W        W94632  21.178  28.531   0.937
34888W        W94633  41.974   3.350  14.353
34889W        W94634  35.929  24.646  14.377
34890W        W94635   2.330  35.569  11.459
34891W        W94636  23.609  31.987  12.410
34892W        W94637  16.275  19.679   0.782
34893W        W94638  37.540  18.195   2.872
34894W        W94639  25.695   6.267   3.715
34895W        W94640  41.998  32.457   4.312
34896W        W94641  13.728   4.318   0.332
34897W        W94642  37.443  10.715  11.929
34898W        W94643  15.767   3.837  14.378
34899W        W94644  41.439  39.455   3.380
34900W        W94645  30.130  35.905   1.769
34901W        W94646  19.772  23.197  13.810
34902W        W94647  26.612  12.275  12.960
34903W        W94648  16.596  10.217  14.962
34904W        W94649  40.380   9.645   3.857
34905W        W94650  15.798  30.427   3.846
34906W        W94651  26.632   7.299  13.458
34907W        W94652  28.587  16.729   4.819
34908W        W94653  41.342  21.152   2.741
34909W        W94654  19.550  28.062  11.584
34910W        W94655  41.353  30.907  10.921
34911W        W94656  30.568  40.331   0.342
34912W        W94657  19.551  18.114   1.912
34913W        W94658  35.937  11.826   4.320
34914W        W94659  44.284  33.437  14.296
34915W        W94660   2.825  28.993   3.151
34916W        W94661  43.843   7.387   2.669
34917W        W94662  28.158  15.754  11.869
34918W        W94663  19.214   1.438  13.027
34919W        W94664   5.849   6.714  12.076
34920W        W94665  25.592  38.370   1.320
34921W        W94666   2.888   7.397  12.518
34922W        W94667  10.268  36.431  10.596
34923W        W94668  41.923  22.230   4.617
34924W        W94669  19.254  38.050   1.721
34925W        W94670   0.824   2.437   0.762
34926W        W94671   3.278  26.660  11.605
34927W        W94672   0.470  10.639  11.099
34928W        W94673  13.626  20.744  10.949
34929W        W94674   2.836  14.262  14.897
34930W        W94675  36.024  13.737   0.797
34931W        W94676  32.472  23.713  10.960
34932W        W94677  42.909  19.739   1.780
34933W        W94678  38.985  28.165   1.891
34934W        W94679  19.735  37.914  10.441
34935W        W94680  26.660  27.600   0.378
34936W        W94681  12.186  34.512  11.606
34937W        W94682  12.308  39.550  13.951
34938W        W94683  17.182  31.479  11.893
34939W        W94684  19.664  17.092   2.222
34940W        W94685  10.201  36.976   2.873
34941W        W94686  31.944  37.543  10.435
34942W        W94687  13.717  34.595   2.793
34943W        W94688  12.644  23.211  13.889
34944W        W94689  27.122  28.628  13.344
34945W        W94690  10.649   2.444   2.838
34946W        W94691  22.729  42.518  13.881
34947W        W94692  18.659  44.854   2.375
34948W        W94693  23.607  15.583  14.791
34949W        W94694  19.073  18.787   3.200
34950W        W94695  29.153  24.980   2.271
34951W        W94696   1.398  43.870  11.440
34952W        W94697  23.238   2.795  14.359
34953W        W94698   7.375  31.150   2.835
34954W        W94699  21.562  28.001   0.420
34955W        W94700  21.097  30.089   2.209
34956W        W94701  38.026  25.665  10.976
34957W        W94702  21.135  25.086  11.127
34958W        W94703  14.818  10.175  10.609
34959W        W94704  12.830  42.507   2.722
34960W        W94705  16.811  10.811  13.953
34961W        W94706   9.889  27.136   0.391
34962W        W94707  44.495  25.477   3.837
34963W        W94708  31.629  35.386   2.204
34964W        W94709  18.629  19.059   4.140
34965W        W94710  28.148  25.669  14.810
34966W        W94711  37.046  19.667  12.859
34967W        W94712  11.691  30.040   1.923
34968W        W94713   9.887  28.554   4.166
34969W        W94714  15.267  35.376  14.426
34970W        W94715  23.559  41.808   3.347
34971W        W94716  26.466  31.109   3.849
34972W        W94717  40.824  31.588   2.308
34973W        W94718  21.584  37.868  11.098
34974W        W94719  37.517   2.316  12.466
34975W        W94720  22.091  20.273  11.441
34976W        W94721   9.312  11.241   0.333
34977W        W94722  16.198  21.087  10.960
34978W        W94723  35.571   6.410   3.809
34979W        W94724   3.743  40.930   4.636
34980W        W94725   2.737   6.862   0.456
34981W        W94726  35.011  18.096  13.823
34982W        W94727   7.669  43.965  14.466
34983W        W94728  17.244   4.820   3.233
34984W        W94729  22.079  16.205   3.763
34985W        W94730  31.518  37.970   1.405
34986W        W94731  25.516  13.690   9.597
34987W        W94732   6.402   8.842   9.942
34988W        W94733  39.317  30.163  13.959
34989W        W94734  24.613  44.388  14.998
34990W        W94735   4.399   9.192   4.187
34991W        W94736   7.245  30.084  13.886
34992W        W94737  40.994  43.995  10.961
34993W        W94738   8.402  17.630  13.919
34994W        W94739  27.667  23.491   3.753
34995W        W94740   2.385  24.081   2.841
34996W        W94741  36.408  11.178  12.034
34997W        W94742  18.771  18.128   4.330
34998W        W94743  39.491  43.778  12.365
34999W        W94744  44.969   8.245   2.689
35000W        W94745  39.479  16.165   4.219
35001W        W94746  32.073  38.537   0.309
35002W        W94747  14.708   9.867   2.824
35003W        W94748  14.323  10.322   3.286
35004W        W94749  40.031  35.861  14.835
35005W        W94750   1.418  38.392  12.981
35006W        W94751   0.909  27.188   3.218
35007W        W94752  29.987  12.798   0.923
35008W        W94753  21.097  27.521  10.085
35009W        W94754  19.535   1.899  14.784
35010W        W94755   0.868  15.179   1.282
35011W        W94756  14.336  40.909  14.962
35012W        W94757  37.454  24.595   3.324
35013W        W94758  43.939  18.557  13.904
35014W        W94759   0.391   8.171   1.251
35015W        W94760  29.586  22.538   3.234
35016W        W94761  39.335  43.354   2.196
35017W        W94762   2.354  26.952   0.965
35018W        W94763  18.698  28.461  11.060
35019W        W94764   7.818  29.465  10.629
35020W        W94765  32.413  11.148  10.494
35021W        W94766  20.604  15.619  14.887
35022W        W94767  39.962  14.140   1.237
35023W        W94768  22.074  26.557   3.812
35024W        W94769  35.406  41.797   1.285
35025W        W94770  41.825  20.030   1.421
35026W        W94771  15.194   3.835  14.467
35027W        W94772  18.139  36.073   1.754
35028W        W94773  18.748  21.203  11.927
35029W        W94774  17.100  42.307  12.540
35030W        W94775  13.796  32.035  14.930
35031W        W94776  30.577   6.711  10.909
35032W        W94777  33.072  28.053  14.409
35033W        W94778  31.040  43.874   0.243
35034W        W94779  32.006  18.714   0.309
35035W        W94780  30.592  20.132  10.426
35036W        W94781   9.332  24.606  11.401
35037W        W94782  30.577  38.353  11.952
35038W        W94783  20.156  37.916   1.732
35039W        W94784  24.025  15.781   1.804
35040W        W94785   3.311  32.051  13.526
35041W        W94786  34.891  40.042   0.373
35042W        W94787  36.057   6.312   0.271
35043W        W94788   5.798   5.203   1.229
35044W        W94789  42.304  23.522   4.637
35045W        W94790  36.064  44.890   1.849
35046W        W94791   7.849   6.298  13.017
35047W        W94792   9.778  19.046  14.966
35048W        W94793  37.465  33.386   2.234
35049W        W94794  25.637  23.611   4.613
35050W        W94795  24.504  22.040   4.121
35051W        W94796  22.016  10.836  14.787
35052W        W94797   0.490  34.044  11.398
35053W        W94798  37.530  38.564   0.839
35054W        W94799  11.788   0.847  11.559
35055W        W94800  23.227  15.246   0.424
35056W        W94801   4.938  32.461  10.609
35057W        W94802  39.057  43.434  13.968
35058W        W94803  43.459   4.307   1.284
35059W        W94804   9.657  10.662  14.315
35060W        W94805  16.715  28.961  11.572
35061W        W94806  39.531  15.211  12.070
35062W        W94807  23.686  17.114   2.384
35063W        W94808   8.280  34.918   0.288
35064W        W94809   5.354  33.612   2.223
35065W        W94810  44.457   7.723   4.219
35066W        W94811  21.575  23.076   0.730
35067W        W94812  11.651   7.791   4.227
35068W        W94813  31.970  39.024  14.456
35069W        W94814  35.001  23.018   1.814
35070W        W94815  27.980  16.156   1.431
35071W        W94816  14.597   5.251   1.757
35072W        W94817  20.660  43.802  14.287
35073W        W94818  16.592  20.221  14.997
35074W        W94819  43.868  23.031   0.387
35075W        W94820   6.895  42.882   1.396
35076W        W94821   4.883  36.969  14.899
35077W        W94822   3.454  41.494   4.337
35078W        W94823  41.987   6.678  12.395
35079W        W94824  21.210  40.536  12.570
35080W        W94825  25.629  13.620  10.413
35081W        W94826  34.560  31.414  13.351
35082W        W94827  22.550  40.952  14.784
35083W        W94828   7.757  35.530  11.899
35084W        W94829  24.712  31.896   0.944
35085W        W94830  36.888   1.966  13.481
35086W        W94831   9.153  22.210  10.603
35087W        W94832  31.453  34.887  12.895
35088W        W94833  29.140  19.778  10.576
35089W        W94834  26.628  29.573   5.259
35090W        W94835  31.560  13.628  12.993
35091W        W94836  42.381  30.976  10.972
35092W        W94837  38.380   1.748  10.539
35093W        W94838  12.165  14.302  13.383
35094W        W94839  16.236  18.680  12.357
35095W        W94840   0.864  21.542  10.082
35096W        W94841  19.710  39.322   0.327
35097W        W94842  35.962  11.789  13.926
35098W        W94843  26.006  32.475  11.490
35099W        W94844  16.617  24.587   1.746
35100W        W94845   6.230  32.045  12.560
35101W        W94846  29.478   5.207  12.086
35102W        W94847  28.603  29.594  12.851
35103W        W94848   3.906   2.359  11.611
35104W        W94849  31.516  21.669   1.915
35105W        W94850  15.607  43.944   9.925
35106W        W94851  38.863  22.681   2.726
35107W        W94852  20.717  39.335  13.045
35108W        W94853  35.600   7.261  13.368
35109W        W94854  38.820  12.308   2.746
35110W        W94855   5.729  10.715  13.360
35111W        W94856  36.501  28.143   9.937
35112W        W94857  31.612  21.751  14.475
35113W        W94858  21.024   0.826   2.880
35114W        W94859  34.404   3.267   2.230
35115W        W94860   0.747   7.761  12.077
35116W        W94861   8.804   4.899   0.926
35117W        W94862   6.858   2.761  12.930
35118W        W94863  18.781  26.986   2.333
35119W        W94864   3.763  31.487   2.744
35120W        W94865   3.320  11.751   5.163
35121W        W94866  41.983   9.719   4.749
35122W        W94867   5.771  21.682   4.608
35123W        W94868  30.625   3.924   2.256
35124W        W94869  18.160  40.930   1.392
35125W        W94870  18.166  20.180  12.842
35126W        W94871  27.984  39.842   3.832
35127W        W94872  10.174  10.367   2.670
35128W        W94873   4.355  31.057  11.864
35129W        W94874  43.342  19.539   1.392
35130W        W94875  22.682  42.962  10.085
35131W        W94876  43.315  23.225  13.441
35132W        W94877  32.405  25.212  10.475
35133W        W94878  41.955  20.695   3.229
35134W        W94879  26.647  41.808   2.233
35135W        W94880  22.679  42.947  11.534
35136W        W94881  20.211   8.385  12.387
35137W        W94882  20.226  30.455  14.993
35138W        W94883  27.153  10.245  12.400
35139W        W94884  29.038  37.051  11.875
35140W        W94885   2.835  41.294   2.771
35141W        W94886   9.169  21.730  11.891
35142W        W94887  11.322  13.175   4.734
35143W        W94888   8.189   5.833  14.404
35144W        W94889  24.555  18.131  12.005
35145W        W94890  35.522  10.734  13.444
35146W        W94891  39.400  22.237   3.361
35147W        W94892   7.213  11.159   3.276
35148W        W94893  40.940  19.266  10.453
35149W        W94894  12.236  32.930   4.623
35150W        W94895  32.615  17.232  12.444
35151W        W94896  13.285  17.097   0.730
35152W        W94897  27.168  22.707   0.910
35153W        W94898  17.584  19.625  14.309
35154W        W94899  34.422   2.734   0.801
35155W        W94900  13.194  20.208  11.099
35156W        W94901  39.529  28.629   1.325
35157W        W94902  22.074  11.835  12.498
35158W        W94903  42.776  36.907   2.813
35159W        W94904  25.152  19.050  13.031
35160W        W94905  38.888  43.914  11.040
35161W        W94906   2.928  23.607   3.857
35162W        W94907  17.606   0.965   1.848
35163W        W94908  35.067  40.538  10.459
35164W        W94909   8.195  11.279   4.795
35165W        W94910  10.187  29.455  13.814
35166W        W94911  16.743  16.131  10.952
35167W        W94912  34.959  19.705   3.795
35168W        W94913  40.546   8.273   0.906
35169W        W94914  16.198  23.083   3.374
35170W        W94915   1.735   3.915   1.300
35171W        W94916  33.463  14.598   9.985
35172W        W94917   6.238  30.651   2.303
35173W        W94918  16.164  31.639   0.343
35174W        W94919  42.787  14.631  10.629
35175W        W94920  13.655  42.352   2.239
35176W        W94921  20.265  40.950  10.494
35177W        W94922  28.185  34.496  14.769
35178W        W94923  34.532  38.977  11.859
35179W        W94924  20.652  40.496  10.617
35180W        W94925  19.683  27.985  13.536
35181W        W94926  17.637  43.017  13.003
35182W        W94927  21.594  14.104   2.798
35183W        W94928   9.323  34.529   4.187
35184W        W94929  30.959   2.353   5.082
35185W        W94930   0.777  43.429   1.407
35186W        W94931   5.385  41.479   3.629
35187W        W94932  29.041  20.139   1.743
35188W        W94933   6.866  37.550  14.983
35189W        W94934   9.376  22.692  13.348
35190W        W94935  28.488  19.282   4.689
35191W        W94936  23.015  12.255  14.452
35192W        W94937  37.076   3.318   0.297
35193W        W94938   9.215  14.330   5.186
35194W        W94939  38.051  20.758   0.727
35195W        W94940  36.087  27.640   3.657
35196W        W94941  35.884   4.299   1.858
35197W        W94942  25.546  23.500   9.965
35198W        W94943   2.739  22.581   5.678
35199W        W94944  14.098   2.346  11.526
35200W        W94945   4.881   2.906   1.212
35201W        W94946  17.104   4.387   1.744
35202W        W94947  16.201  44.935   0.923
35203W        W94948  15.721  13.183  13.882
35204W        W94949  38.464  39.886  10.963
35205W        W94950  17.299   9.366   4.249
35206W        W94951  27.038   0.385   1.253
35207W        W94952  41.299  16.198   4.264
35208W        W94953  18.762   8.283   4.270
35209W        W94954  26.166   7.242   0.962
35210W        W94955  29.050   9.362   0.750
35211W        W94956  16.634   1.410  14.371
35212W        W94957   8.691  20.074  11.869
35213W        W94958  23.558  24.052   0.811
35214W        W94959  27.049  32.392   2.760
35215W        W94960  21.132   0.964  10.516
35216W        W94961  20.539   8.876   0.250
35217W        W94962  34.034   9.864  13.441
35218W        W94963  34.592  33.551  12.923
35219W        W94964  16.620  10.318   1.918
35220W        W94965   3.394  20.528  10.946
35221W        W94966  25.115   6.319  11.933
35222W        W94967  26.080  13.767  12.869
35223W        W94968  41.983  26.202   4.801
35224W        W94969  25.217  27.960   0.252
35225W        W94970  18.160   5.283  14.443
35226W        W94971  16.570  30.438   2.682
35227W        W94972   8.190  29.057  12.364
35228W        W94973  16.110  22.239   1.825
35229W        W94974  12.179  14.108  12.531
35230W        W94975  31.098  24.670  14.888
35231W        W94976  15.221  39.362   2.252
35232W        W94977  32.986  16.086   4.252
35233W        W94978  33.097  27.138   0.468
35234W        W94979  31.007  11.695   5.193
35235W        W94980   0.843  25.125   2.838
35236W        W94981  43.324  41.318  12.358
35237W        W94982  29.433  17.172  13.312
35238W        W94983  18.225   5.708  13.934
35239W        W94984   6.691  29.502   1.802
35240W        W94985  35.558  27.961   2.798
35241W        W94986  34.044  25.144  12.552
35242W        W94987   8.206  25.020   2.204
35243W        W94988   2.741  27.507  10.149
35244W        W94989   5.340  18.202   0.309
35245W        W94990  31.040   7.300  12.442
35246W        W94991  39.322  14.174  12.399
35247W        W94992  18.703  41.868  10.563
35248W        W94993  36.848  25.025  13.399
35249W        W94994  26.486   8.251  11.403
35250W        W94995   1.824   8.820  12.484
35251W        W94996  29.654  28.551   2.713
35252W        W94997  32.427  10.172  11.934
35253W        W94998  43.977  38.443   3.217
35254W        W94999   9.866  23.689  12.874
35255W        W95000  17.572   7.206  14.809
35256W        W95001   0.966  38.491  14.870
35257W        W95002  22.633  18.726  11.102
35258W        W95003   4.354  44.869  13.826
35259W        W95004  24.051  30.127   5.116
35260W        W95005   4.817   5.360  14.876
35261W        W95006  22.630  39.411  11.505
35262W        W95007  15.588  15.183   3.775
35263W        W95008  17.122  22.013   2.198
35264W        W95009  24.585  26.140   1.902
35265W        W95010  15.172  20.072  14.464
35266W        W95011  33.458  30.562   1.407
35267W        W95012  42.395   1.390  12.079
35268W        W95013  39.319  37.470  14.449
35269W        W95014  12.197  10.784  13.820
35270W        W95015  30.151  31.581  14.789
35271W        W95016   5.823  35.971   1.403
35272W        W95017  31.621  34.437   3.231
35273W        W95018   3.750  35.406   3.377
35274W        W95019  19.177  22.191  12.947
35275W        W95020  37.547  44.857  12.520
35276W        W95021  28.552  14.760  14.809
35277W        W95022  23.160  17.662  14.289
35278W        W95023  38.475  42.889  10.632
35279W        W95024  15.230   4.263   3.721
35280W        W95025  23.681  12.723   1.887
35281W        W95026  22.575  13.205   5.217
35282W        W95027  21.618  14.139   0.306
35283W        W95028  38.383  39.991  11.892
35284W        W95029  43.959  34.586   0.950
35285W        W95030  30.489  34.392   2.346
35286W        W95031  32.127  28.639   1.806
35287W        W95032  15.759  41.346  12.012
35288W        W95033   4.876  26.587   3.871
35289W        W95034   6.726   5.408  11.405
35290W        W95035  21.124  26.086  10.458
35291W        W95036  21.245  40.494  10.533
35292W        W95037  26.700  11.260  11.499
35293W        W95038  18.125   7.855  10.501
35294W        W95039  31.609  41.943   2.258
35295W        W95040  15.205  10.304  11.549
35296W        W95041  24.086  11.371   2.310
35297W        W95042  25.115  32.607   2.854
35298W        W95043  40.457  16.638   3.796
35299W        W95044  32.987  37.916   0.471
35300W        W95045   0.780  41.918  12.962
35301W        W95046   9.352  43.304  13.026
35302W        W95047   1.274  33.933   4.194
35303W        W95048  13.329  38.507  14.851
35304W        W95049  36.892   3.715   1.699
35305W        W95050   8.176  30.548  11.468
35306W        W95051  13.138   9.188  11.914
35307W        W95052  41.835  18.139  11.917
35308W        W95053  19.563  39.929   4.296
35309W        W95054  40.316  30.446  12.558
35310W        W95055  13.705  16.698  13.955
35311W        W95056  22.505   4.440  10.966
35312W        W95057  10.674  11.293   4.324
35313W        W95058  33.623   1.800  10.136
35314W        W95059  22.114  22.676  11.057
35315W        W95060   4.786  12.254  13.354
35316W        W95061  42.387  28.597   4.118
35317W        W95062  25.011   1.397  13.402
35318W        W95063  43.950  44.777   1.801
35319W        W95064  30.941  38.071  14.515
35320W        W95065  15.116   5.836  10.603
35321W        W95066  23.042  10.801   3.336
35322W        W95067  14.172  44.286  10.454
35323W        W95068  38.521  16.589  10.578
35324W        W95069  41.846  43.821  11.871
35325W        W95070  33.475   8.398  11.001
35326W        W95071  22.559  20.666  13.372
35327W        W95072  12.782  19.675   3.149
35328W        W95073  24.113  24.527  12.539
35329W        W95074  19.189  21.251  11.058
35330W        W95075   8.874  29.578  11.481
35331W        W95076  16.611  12.169  13.034
35332W        W95077  13.758   7.784  10.606
35333W        W95078  43.870  42.797   2.225
35334W        W95079  11.127  12.131   1.268
35335W        W95080  34.883  42.430  12.989
35336W        W95081  22.609  32.439  10.498
35337W        W95082  40.008  40.383   2.323
35338W        W95083  12.129  14.822  14.932
35339W        W95084  42.809  11.817  13.458
35340W        W95085  42.796  33.123   1.730
35341W        W95086  32.618  40.965  12.979
35342W        W95087   7.905  17.598  12.055
35343W        W95088  34.555  31.535   0.900
35344W        W95089  35.358  13.320   0.396
35345W        W95090  13.313  33.884   3.184
35346W        W95091  31.493  20.734   0.422
35347W        W95092  21.729  30.994  12.425
35348W        W95093  33.447  38.375   3.737
35349W        W95094  11.277  24.203  14.345
35350W        W95095  26.162  38.032  14.024
35351W        W95096  29.095   8.203  12.384
35352W        W95097  43.404  28.657   9.936
35353W        W95098   5.270   1.405  10.970
35354W        W95099   1.964   5.837  13.031
35355W        W95100  10.669  35.049   3.200
35356W        W95101  25.513  28.160   3.659
35357W        W95102  32.402  19.051   1.785
35358W        W95103  12.691   2.418  11.424
35359W        W95104   8.810  43.273   2.745
35360W        W95105  21.694   7.790  14.774
35361W        W95106  21.199  23.714   1.427
35362W        W95107  44.364   4.425   1.798
35363W        W95108  39.497  26.114  12.501
35364W        W95109  24.113   2.377  11.892
35365W        W95110   6.330   5.722   2.180
35366W        W95111  44.299  27.043  12.050
35367W        W95112  34.422  12.761  11.418
35368W        W95113  27.604  35.565  13.505
35369W        W95114  25.189  31.562   3.293
35370W        W95115  29.486  21.063  10.033
35371W        W95116  10.384  27.015   0.261
35372W        W95117   9.717  26.018  13.484
35373W        W95118  34.542  35.100   0.318
35374W        W95119   9.723  21.094   3.303
35375W        W95120  43.875  37.510   3.831
35376W        W95121  34.901  20.697   2.215
35377W        W95122  36.498  30.136  12.948
35378W        W95123  37.982  24.600  12.388
35379W        W95124  19.145   7.403  10.951
35380W        W95125  29.110  32.505   4.829
35381W        W95126   8.690  38.433   2.192
35382W        W95127  18.173   9.190  12.935
35383W        W95128  20.248  16.247  11.473
35384W        W95129  13.654  15.258   0.763
35385W        W95130  24.188  43.019  12.000
35386W        W95131  13.722   1.436   1.931
35387W        W95132   0.936  16.637  11.045
35388W        W95133  15.183  23.190   0.480
35389W        W95134  12.623   5.313  12.962
35390W        W95135  27.069   4.228  11.086
35391W        W95136  17.565  34.029   0.891
35392W        W95137  26.060  21.742   4.724
35393W        W95138  40.932  36.029  10.897
35394W        W95139   2.940  37.535  14.790
35395W        W95140  28.565  10.701   4.320
35396W        W95141  32.601  22.203  11.580
35397W        W95142  36.496  19.249  14.424
35398W        W95143  30.519  28.674   1.307
35399W        W95144  30.035  17.746  12.431
35400W        W95145  21.539  37.520   2.665
35401W        W95146  26.057  34.975   3.763
35402W        W95147   2.825   3.853   0.936
35403W        W95148  15.754   6.258   1.405
35404W        W95149  27.450  28.021  12.012
35405W        W95150  20.644  22.564  11.446
35406W        W95151  26.559  26.695   1.867
35407W        W95152  11.736  19.093  12.991
35408W        W95153  37.539   4.840  10.895
35409W        W95154  11.303  32.518  11.111
35410W        W95155   0.988  23.605  11.094
35411W        W95156   8.361  31.481  14.814
35412W        W95157  21.139   2.439  14.511
35413W        W95158  25.007   0.924   0.468
35414W        W95159   4.237  41.947   2.690
35415W        W95160  26.205   0.813   1.925
35416W        W95161  27.102  12.735  11.441
35417W        W95162   3.247  12.728   4.343
35418W        W95163  39.376  40.012  14.334
35419W        W95164  20.048  38.542   1.890
35420W        W95165  12.325  44.363  12.349
35421W        W95166  35.580  30.502   3.213
35422W        W95167   1.360  42.350   4.737
35423W        W95168  15.188  43.453  11.988
35424W        W95169  42.879   8.332  11.999
35425W        W95170  17.150  28.001  11.897
35426W        W95171  24.049  18.750   2.296
35427W        W95172  15.266  29.566  11.377
35428W        W95173  26.633  10.236   1.858
35429W        W95174   0.855  20.108   2.243
35430W        W95175  40.514   7.831  12.530
35431W        W95176  37.871  16.597   4.601
35432W        W95177  28.556   3.449  14.924
35433W        W95178   0.879  25.704  13.828
35434W        W95179  30.074  43.772  13.045
35435W        W95180  27.684  10.344  10.965
35436W        W95181  24.107  38.070  11.939
35437W        W95182  32.106  43.832   2.741
35438W        W95183  44.488  36.846  13.501
35439W        W95184  34.052  36.371  14.971
35440W        W95185   0.273  25.609  14.447
35441W        W95186   3.295  24.135  14.305
35442W        W95187  10.238  10.199  14.440
35443W        W95188   3.831   0.852  11.878
35444W        W95189   1.747  13.188   4.827
35445W        W95190  15.634  17.253  10.582
35446W        W95191  15.667  42.451   0.434
35447W        W95192  20.537   5.340  14.348
35448W        W95193  21.159  11.774   4.140
35449W        W95194  14.794  32.982   2.313
35450W        W95195   3.368  26.186  11.018
35451W        W95196   6.378  25.135  10.510
35452W        W95197  24.543  22.128  10.550
35453W        W95198  34.440  40.984   2.252
35454W        W95199   9.329  34.931  11.564
35455W        W95200  35.512   3.719  10.637
35456W        W95201  10.331  24.721  12.519
35457W        W95202  36.463  12.247   0.731
35458W        W95203  42.976  13.167  14.773
35459W        W95204  43.811  40.497  11.596
35460W        W95205  39.981  26.070  10.428
35461W        W95206   8.741  10.772  11.372
35462W        W95207  17.566  11.660  12.074
35463W        W95208  16.217  17.293  13.057
35464W        W95209   3.832  41.947  10.566
35465W        W95210  23.678  36.500  10.476
35466W        W95211  36.936  25.635   3.668
35467W        W95212  30.528  38.922  13.806
35468W        W95213  20.751  18.562   2.333
35469W        W95214  11.664  34.967   2.362
35470W        W95215   8.279  19.740  10.555
35471W        W95216  15.700   5.749   3.265
35472W        W95217  21.078   5.925   0.438
35473W        W95218   7.273  20.100  12.404
35474W        W95219   3.734  37.984  10.153
35475W        W95220  10.754   5.760   4.337
35476W        W95221  35.905  32.569  11.377
35477W        W95222   4.929   9.865  10.908
35478W        W95223  42.343  34.051  11.574
35479W        W95224  13.838  39.379   1.264
35480W        W95225  23.138  32.065  12.474
35481W        W95226   7.686  27.073  13.388
35482W        W95227  25.590  37.557  13.934
35483W        W95228  44.935  27.119  13.368
35484W        W95229  12.789  25.587  12.827
35485W        W95230  14.736  40.919   4.700
35486W        W95231  28.477  16.742   1.814
35487W        W95232   2.730  16.212   4.339
35488W        W95233  29.012  38.930   3.380
35489W        W95234  11.155  20.577   0.352
35490W        W95235  14.195  21.739  13.496
35491W        W95236  38.437   5.739  13.522
35492W        W95237  36.560  12.317  12.457
35493W        W95238  22.712  16.681  12.573
35494W        W95239   0.464   5.817   2.218
35495W        W95240   7.408  39.883   1.727
35496W        W95241  26.488  10.339  14.802
35497W        W95242  31.425  18.134   0.439
35498W        W95243  35.529  26.532   2.796
35499W        W95244   5.291  36.505  12.008
35500W        W95245  44.956  28.014   2.325
35501W        W95246   1.804  34.897   1.389
35502W        W95247  23.091   0.375   1.919
35503W        W95248  41.350  16.212   4.837
35504W        W95249  34.596   2.331   3.381
35505W        W95250  41.495   5.814  11.045
35506W        W95251  18.062  13.753  10.981
35507W        W95252  42.926  24.546  10.545
35508W        W95253  34.452  27.681  13.465
35509W        W95254   7.702  32.068  10.086
35510W        W95255  35.425  23.197  12.846
35511W        W95256  44.928  42.022   0.838
35512W        W95257  28.481   9.221   1.706
35513W        W95258  40.931  23.223  14.974
35514W        W95259   7.273  20.088   3.670
35515W        W95260  24.490   6.807   0.771
35516W        W95261  32.907  21.530  14.440
35517W        W95262   2.415   0.933  11.073
35518W        W95263   9.296  44.928   3.213
35519W        W95264  30.950  32.602  12.857
35520W        W95265  11.216  31.107  10.926
35521W        W95266  10.745   3.296  10.443
35522W        W95267   4.413   8.178   2.731
35523W        W95268  17.735  13.844   2.688
35524W        W95269  26.066  12.692  12.464
35525W        W95270  37.935  20.574  14.899
35526W        W95271  21.563   3.235  10.504
35527W        W95272   7.186  41.375  14.335
35528W        W95273  18.576   8.263  12.575
35529W        W95274   9.645  44.505  13.339
35530W        W95275  16.314  37.354   4.132
35531W        W95276  34.570   7.239  11.099
35532W        W95277  11.317  10.301  12.909
35533W        W95278  20.142  28.976   3.669
35534W        W95279  26.073  28.149   4.714
35535W        W95280  33.472  22.058   2.669
35536W        W95281  18.565  31.040  12.969
35537W        W95282  33.432  39.860   2.839
35538W        W95283  41.479  14.816   1.903
35539W        W95284  38.947  15.684   1.794
35540W        W95285  34.375   3.868   2.886
35541W        W95286  32.019   2.268   2.771
35542W        W95287  23.736  13.200  12.370
35543W        W95288  42.883   4.205  10.414
35544W        W95289  37.528  15.220   2.270
35545W        W95290  39.955  37.006  13.872
35546W        W95291  33.416  15.600  13.802
35547W        W95292   9.734   1.248  13.793
35548W        W95293  16.686  34.028  10.449
35549W        W95294  28.465  11.290   2.891
35550W        W95295  43.833  17.101  14.002
35551W        W95296  17.670   2.398   3.338
35552W        W95297  14.749   0.766  10.512
35553W        W95298  27.129  18.108   4.340
35554W        W95299  18.741   9.273   4.132
35555W        W95300  40.330   7.795  10.444
35556W        W95301  19.688  44.913  13.547
35557W        W95302  39.490   2.857  12.470
35558W        W95303  39.406  22.530   1.759
35559W        W95304  44.960  10.816  11.025
35560W        W95305   6.224   5.301   0.885
35561W        W95306  40.484   0.303  13.821
35562W        W95307  27.065  21.627   4.761
35563W        W95308  21.189  38.558   3.359
35564W        W95309  29.636  35.884   9.922
35565W        W95310  39.337  20.150  12.394
35566W        W95311   8.762   5.377  11.032
35567W        W95312  13.648  34.869   1.798
35568W        W95313   3.809  35.049   2.663
35569W        W95314   4.437  23.079   1.735
35570W        W95315  43.914  31.146  13.412
35571W        W95316  40.467  37.473   3.186
35572W        W95317  25.053  23.592   1.258
35573W        W95318  11.251   8.710  11.420
35574W        W95319  12.759  29.522  13.354
35575W        W95320  15.117  12.748  14.771
35576W        W95321  11.309   5.230  14.494
35577W        W95322  18.710  17.152   0.439
35578W        W95323   0.968  18.293   2.247
35579W        W95324  19.704  43.810  14.316
35580W        W95325  28.652  31.490  10.572
35581W        W95326  38.018  44.908   2.359
35582W        W95327  21.672  20.070   0.822
35583W        W95328  23.681  12.837   1.336
35584W        W95329  15.153   2.385  13.525
35585W        W95330  13.832  30.086   3.831
35586W        W95331  42.851  42.484   0.265
35587W        W95332  26.001  10.831   4.287
35588W        W95333  42.829  10.176  11.392
35589W        W95334  10.175  16.715   3.210
35590W        W95335  23.631  40.900  14.455
35591W        W95336  44.404  39.545  12.382
35592W        W95337  35.870  12.783   0.796
35593W        W95338  14.698  27.951   2.317
35594W        W95339  17.653  14.121   1.389
35595W        W95340  37.368  33.028   2.399
35596W        W95341  20.614  15.781   3.848
35597W        W95342  40.415   9.714   2.304
35598W        W95343  31.153   6.270  14.982
35599W        W95344  23.153  14.130  10.512
35600W        W95345  15.109   2.954   3.795
35601W        W95346   8.361  32.419  13.520
35602W        W95347  35.502   1.319   4.168
35603W        W95348  34.936  13.181   0.739
35604W        W95349  39.421  25.134  12.984
35605W        W95350  16.234  33.617   5.108
35606W        W95351  30.146  22.063   3.797
35607W        W95352  19.700  42.513   2.780
35608W        W95353  32.533  25.098   9.948
35609W        W95354  15.152  43.886  12.871
35610W        W95355  29.560  30.159   2.187
35611W        W95356  43.325  36.353   4.773
35612W        W95357  11.248  36.445  14.834
35613W        W95358   9.653  42.427   1.697
35614W        W95359  25.155  43.468   3.379
35615W        W95360  32.472  10.380  14.489
35616W        W95361  24.121  15.218   1.212
35617W        W95362  19.689   6.687   2.853
35618W        W95363   8.844  43.350  11.584
35619W        W95364  14.622  17.760   0.853
35620W        W95365  30.979  13.172  14.783
35621W        W95366  20.600  29.615  13.044
35622W        W95367  27.018  18.728  14.376
35623W        W95368  41.460  29.996  10.907
35624W        W95369  20.641  44.908  14.929
35625W        W95370   5.699  38.525  11.415
35626W        W95371   6.369   5.416  10.591
35627W        W95372  23.021  10.302  11.929
35628W        W95373  18.129  33.412  11.103
35629W        W95374  17.702  11.211  10.464
35630W        W95375  15.279  21.532  10.551
35631W        W95376  21.063  13.284   0.433
35632W        W95377  36.576  42.318  13.548
35633W        W95378  23.034  14.243  11.594
35634W        W95379  13.116   9.650  13.469
35635W        W95380  31.522  20.675   2.212
35636W        W95381  36.901  34.926   0.767
35637W        W95382  19.685  16.215   4.284
35638W        W95383  20.690  31.969  13.825
35639W        W95384  42.806  41.305   0.423
35640W        W95385  42.508  10.340  13.841
35641W        W95386  19.657  23.174   1.736
35642W        W95387   3.839  34.507  10.996
35643W        W95388   9.232  39.996   4.338
35644W        W95389  32.927   5.198  14.773
35645W        W95390   5.823   5.339   4.720
35646W        W95391  40.408  17.736  12.980
35647W        W95392  16.181  13.201   1.836
35648W        W95393  24.051   4.908  11.508
35649W        W95394  27.623  12.336  11.563
35650W        W95395  29.038  11.621   2.774
35651W        W95396  10.198  40.878  11.910
35652W        W95397  22.634  26.126  13.874
35653W        W95398  11.199  26.504  10.951
35654W        W95399  20.673  38.466  13.415
35655W        W95400  17.746  37.396   0.928
35656W        W95401  16.282  27.676  13.537
35657W        W95402  23.235   2.930   2.788
35658W        W95403  35.526  43.416  11.020
35659W        W95404   4.450  38.059  12.471
35660W        W95405  39.833  11.134  11.543
35661W        W95406  25.662  29.570  11.476
35662W        W95407  25.101  15.236   0.806
35663W        W95408  14.111  43.875   2.230
35664W        W95409   1.412  35.933   5.162
35665W        W95410  33.390  25.005  11.434
35666W        W95411  27.465   6.842   0.460
35667W        W95412  30.580  40.810  12.013
35668W        W95413   3.427   5.212   4.215
35669W        W95414   0.419  11.820  11.916
35670W        W95415  43.783  25.099   3.349
35671W        W95416   8.657  23.120  13.525
35672W        W95417  35.029  40.923   0.883
35673W        W95418  23.505   8.725   9.992
35674W        W95419  25.471  16.076  14.490
35675W        W95420  28.981  19.754  11.557
35676W        W95421  17.081  25.040   2.717
35677W        W95422  21.129   2.965  14.798
35678W        W95423  43.294  11.818  11.972
35679W        W95424  31.497   4.229   3.636
35680W        W95425  30.035  10.262   2.728
35681W        W95426  14.719  26.505  11.899
35682W        W95427  28.004  34.064  10.515
35683W        W95428  35.029  37.925  14.284
35684W        W95429  24.177  24.226   1.402
35685W        W95430  20.133  26.038  12.825
35686W        W95431  38.871  30.431   1.411
35687W        W95432  21.673  44.477  10.954
35688W        W95433  38.565  10.231   2.415
35689W        W95434  25.042   8.770   2.207
35690W        W95435   5.864  18.647  14.876
35691W        W95436  41.533   7.213  11.406
35692W        W95437  29.549  13.348  12.075
35693W        W95438  24.171  24.721  13.497
35694W        W95439  12.743  18.548  11.469
35695W        W95440  38.894  42.379  13.818
35696W        W95441  44.286  40.423  14.853
35697W        W95442  36.098  37.845  13.022
35698W        W95443  11.666  13.755  14.957
35699W        W95444   5.391  27.624  14.995
35700W        W95445  37.871  12.623   1.704
35701W        W95446  20.075  41.512  12.062
35702W        W95447  35.884  11.295  14.820
35703W        W95448   0.458  44.471   4.255
35704W        W95449  20.708   7.755  12.365
35705W        W95450  30.465  37.387  11.873
35706W        W95451  34.415  25.999  12.525
35707W        W95452  25.479  26.634   1.361
35708W        W95453  16.284  27.615   2.218
35709W        W95454  43.783  44.902   3.241
35710W        W95455  37.833   2.415   4.833
35711W        W95456   7.860  42.473  14.867
35712W        W95457  36.438  44.469  13.012
35713W        W95458  27.580  31.612  14.424
35714W        W95459  27.542  20.098  14.790
35715W        W95460  43.920  12.290  10.457
35716W        W95461  37.022   1.367   0.278
35717W        W95462   9.187  10.305   2.772
35718W        W95463  12.851  28.089   4.744
35719W        W95464  34.891  10.750  11.508
35720W        W95465  22.540   3.946  14.286
35721W        W95466  33.917  20.046  12.407
35722W        W95467  30.630  42.781  10.481
35723W        W95468  20.747   2.908   1.359
35724W        W95469  31.421  26.465   1.919
35725W        W95470   1.773  32.905  14.389
35726W        W95471  39.975  41.950   2.410
35727W        W95472  11.304  29.631   3.268
35728W        W95473  37.087  23.554   2.778
35729W        W95474  10.331  25.052   3.730
35730W        W95475  27.605  42.358   2.788
35731W        W95476  18.691   8.226   3.320
35732W        W95477  26.692   7.208  13.933
35733W        W95478  37.842  34.478   0.783
35734W        W95479  17.555  10.323  10.897
35735W        W95480  17.571   3.796   3.743
35736W        W95481   9.846  43.017   1.743
35737W        W95482  29.140  22.747  13.946
35738W        W95483   2.244  25.028  14.326
35739W        W95484  17.184   3.389  10.151
35740W        W95485  25.633  14.265   2.726
35741W        W95486  33.048  36.353   2.803
35742W        W95487  22.723   8.199  11.406
35743W        W95488  34.875   5.406  14.031
35744W        W95489   8.706  11.371  10.900
35745W        W95490  35.879  16.252  12.924
35746W        W95491  41.995   5.221   4.618
35747W        W95492  22.695  12.351  12.397
35748W        W95493   7.907   6.856  12.438
35749W        W95494   1.975  25.189   3.183
35750W        W95495  36.057  33.404   1.801
35751W        W95496  43.908  41.470   2.729
35752W        W95497  41.834  31.435   0.800
35753W        W95498  26.173  35.012   3.351
35754W        W95499   8.207   9.242   1.250
35755W        W95500  18.156  23.137  14.831
35756W        W95501  27.083  12.117  10.615
35757W        W95502  37.560   0.942   2.764
35758W        W95503  23.997  38.372  13.939
35759W        W95504  21.021  24.997  10.544
35760W        W95505   9.260  42.892   0.859
35761W        W95506  43.843  37.431  12.527
35762W        W95507  27.068   1.375  12.340
35763W        W95508  21.178   1.928   3.656
35764W        W95509  28.029  15.229  10.425
35765W        W95510   4.285  28.598   5.705
35766W        W95511   8.372  18.631   0.344
35767W        W95512  33.387  32.538   4.686
35768W        W95513  41.962  24.538  13.906
35769W        W95514  22.192   9.882   0.327
35770W        W95515  33.072  26.061   1.390
35771W        W95516  24.701  31.090  14.288
35772W        W95517  31.152  42.926  12.453
35773W        W95518  12.777  35.882  13.964
35774W        W95519  42.008  32.018  12.411
35775W        W95520   5.909  18.755  13.930
35776W        W95521   8.317  29.622  13.494
35777W        W95522  23.506  33.085  14.278
35778W        W95523   4.830  30.413   2.295
35779W        W95524  35.561  29.959   2.190
35780W        W95525  29.964  17.581   2.900
35781W        W95526  39.472  42.855  12.522
35782W        W95527  43.967   5.379  11.956
35783W        W95528   3.325  24.147   1.409
35784W        W95529   6.680  10.764   4.249
35785W        W95530  27.040  13.322   4.678
35786W        W95531  32.525  14.626   3.641
35787W        W95532  27.094   9.152   3.792
35788W        W95533  21.632  32.438  13.811
35789W        W95534  27.987  16.233  10.087
35790W        W95535  36.067   5.742  13.850
35791W        W95536  28.534  20.767   0.920
35792W        W95537  18.576  26.164   1.852
35793W        W95538  14.659  30.109  11.436
35794W        W95539  22.739  24.144   2.732
35795W        W95540  20.760  42.347  14.484
35796W        W95541  13.762   6.768   4.215
35797W        W95542  10.313  29.126   2.882
35798W        W95543  37.423  10.252   2.336
35799W        W95544   5.435  38.495  12.969
35800W        W95545  23.166  18.642  12.339
35801W        W95546  43.835  33.883  11.872
35802W        W95547  27.023   4.830  13.421
35803W        W95548  15.648   3.401   5.128
35804W        W95549  43.510  31.948   2.313
35805W        W95550  18.247  44.412  13.797
35806W        W95551  34.418   9.192   1.765
35807W        W95552  32.530   9.213   2.669
35808W        W95553  42.464  33.551   2.753
35809W        W95554  37.401  35.407  14.836
35810W        W95555   7.852  17.769  14.897
35811W        W95556  31.058  35.518  10.471
35812W        W95557  40.052   1.421  11.508
35813W        W95558  39.333  43.340  11.395
35814W        W95559  43.471  11.345   0.850
35815W        W95560  38.554   1.360  10.946
35816W        W95561  27.176  42.283  13.971
35817W        W95562  10.382  33.486   0.319
35818W        W95563  37.833  22.520  13.847
35819W        W95564  11.665  41.340   9.920
35820W        W95565  22.505  25.110   5.297
35821W        W95566  29.559   1.879  13.792
35822W        W95567  34.583  13.105   0.882
35823W        W95568  10.761  35.497  12.985
35824W        W95569  33.971  43.806  14.872
35825W        W95570  43.848  30.935   1.340
35826W        W95571  21.692  42.406  10.920
35827W        W95572  24.518  19.698  11.101
35828W        W95573  28.037  44.872  11.379
35829W        W95574   3.282  42.485  10.406
35830W        W95575  20.601  40.350   0.951
35831W        W95576  30.501   9.798  13.494
35832W        W95577  26.026  44.455   4.152
35833W        W95578  41.419   2.401  10.558
35834W        W95579   7.295  16.146  12.912
35835W        W95580  11.768  31.536   4.742
35836W        W95581  43.478  24.628   4.209
35837W        W95582   9.331  33.404   1.900
35838W        W95583  10.185   5.312  12.532
35839W        W95584  40.427  12.695   0.785
35840W        W95585   3.723  21.125   3.644
35841W        W95586  25.160  25.993   3.356
35842W        W95587  32.044  15.086  10.490
35843W        W95588  29.035  37.852  11.936
35844W        W95589  38.012  16.674  13.987
35845W        W95590  23.619  20.679   3.216
35846W        W95591  23.716  26.042   1.240
35847W        W95592  36.000  32.945   2.332
35848W        W95593  13.268  13.336   3.219
35849W        W95594  40.929   1.798  10.458
35850W        W95595  24.540  38.880  14.866
35851W        W95596  27.115  23.701  10.619
35852W        W95597   5.932  35.894  13.366
35853W        W95598  18.184  31.552   3.200
35854W        W95599  41.362  36.968  10.591
35855W        W95600  17.112  34.577  13.363
35856W        W95601   1.474  41.963  10.962
35857W        W95602   6.902  41.988   3.377
35858W        W95603  42.027   9.180   0.390
35859W        W95604   0.951  28.107  10.563
35860W        W95605   8.230  15.121  14.942
35861W        W95606   8.248  41.865  11.935
35862W        W95607  39.015  18.065   0.932
35863W        W95608  39.964   7.262   4.819
35864W        W95609   6.392  14.138   0.399
35865W        W95610  11.772   5.774   2.781
35866W        W95611  14.225  32.124  13.397
35867W        W95612  43.811   8.371  14.470
35868W        W95613   8.265  15.612   3.257
35869W        W95614  20.143  29.991  14.850
35870W        W95615  29.484  24.070  10.557
35871W        W95616  36.442  40.493  12.339
35872W        W95617  44.484  18.115   5.620
35873W        W95618  24.213  23.241  11.091
35874W        W95619  15.652  15.227  12.096
35875W        W95620  15.601  17.193  13.453
35876W        W95621  26.522  40.466  12.413
35877W        W95622   0.473  23.707  13.817
35878W        W95623  35.084   1.857  12.040
35879W        W95624  14.832   9.840   2.417
35880W        W95625   9.171  23.184  11.861
35881W        W95626  42.441  32.575   0.859
35882W        W95627  24.498  39.493   1.297
35883W        W95628  39.979  33.054   2.675
35884W        W95629   2.874   1.359  13.980
35885W        W95630  41.969  16.273  13.443
35886W        W95631  40.497   6.377   0.379
35887W        W95632   8.891  21.521  11.087
35888W        W95633  31.975   2.826   1.441
35889W        W95634  20.762   1.905  13.940
35890W        W95635  32.534  27.163   1.833
35891W        W95636  24.223   7.407   2.286
35892W        W95637  22.159  21.126  13.999
35893W        W95638  42.355  40.446   0.845
35894W        W95639  44.860  33.516  11.404
35895W        W95640  41.466   1.418   1.412
35896W        W95641  43.001   8.675   0.803
35897W        W95642  17.229  13.173   0.453
35898W        W95643   2.436  22.643  14.858
35899W        W95644  13.349   8.716  12.834
35900W        W95645  19.232  25.157  14.384
35901W        W95646  15.085  12.266   1.392
35902W        W95647   9.746  35.496   5.180
35903W        W95648   3.342  17.655  12.831
35904W        W95649  39.500  22.142  10.989
35905W        W95650   6.261  25.113   0.852
35906W        W95651  29.049  18.098  12.075
35907W        W95652  25.054   6.352   4.818
35908W        W95653  12.764  12.814   1.859
35909W        W95654   8.895  17.291  12.828
35910W        W95655  43.279  33.022  13.929
35911W        W95656   4.786   4.938   1.749
35912W        W95657  17.583   3.343   0.351
35913W        W95658  16.629  23.733  10.527
35914W        W95659  28.639  17.103   2.834
35915W        W95660  38.403   5.428  14.380
35916W        W95661  21.748  40.307   0.834
35917W        W95662  31.123  31.011  12.941
35918W        W95663  35.011  24.217   3.669
35919W        W95664  31.561  16.219  11.552
35920W        W95665  38.040  41.349   2.251
35921W        W95666   1.783  24.076   0.805
35922W        W95667  28.953  43.946  11.128
35923W        W95668  20.225  31.555   4.660
35924W        W95669  26.143   6.277   4.155
35925W        W95670  34.582  27.985  14.885
35926W        W95671   0.295  25.004  12.433
35927W        W95672  36.043  18.773   3.173
35928W        W95673  36.943   3.374   3.844
35929W        W95674   2.405   4.357  13.933
35930W        W95675   1.966  24.164  10.979
35931W        W95676  40.801  12.123  14.759
35932W        W95677   8.283  29.160   4.299
35933W        W95678  30.976   0.421   0.765
35934W        W95679  34.457  28.479   1.705
35935W        W95680  15.662  26.495   5.140
35936W        W95681  23.000   4.940   3.750
35937W        W95682   2.346  10.820   3.240
35938W        W95683  13.257  36.931   0.870
35939W        W95684  44.315  18.680  13.347
35940W        W95685  15.205  15.799   4.678
35941W        W95686  37.468  40.876  10.922
35942W        W95687  30.967   3.296   9.942
35943W        W95688  40.510   4.347  13.049
35944W        W95689  34.548   3.789   2.376
35945W        W95690   8.715   1.332  11.543
35946W        W95691  24.130  10.712   0.856
35947W        W95692   3.800  22.549  13.481
35948W        W95693   7.845  42.292   2.245
35949W        W95694  32.888  31.998  12.378
35950W        W95695  21.180  41.324  13.312
35951W        W95696  18.211  25.560   0.285
35952W        W95697  28.592  16.793  11.445
35953W        W95698   1.941  28.673   4.781
35954W        W95699  33.609  16.228   2.245
35955W        W95700  27.563   9.873  12.835
35956W        W95701  18.714   7.751  12.370
35957W        W95702  41.528  31.106   4.697
35958W        W95703  28.002   2.458   1.392
35959W        W95704  42.823  41.825   5.251
35960W        W95705   7.209  19.645   1.850
35961W        W95706   0.844   8.899   2.353
35962W        W95707   2.935  25.506  12.942
35963W        W95708  37.524   4.750   2.205
35964W        W95709  15.791   0.981  11.967
35965W        W95710  43.291  13.818   4.303
35966W        W95711  17.639  25.520  13.012
35967W        W95712  17.072  23.092  14.806
35968W        W95713  24.596  13.200   2.776
35969W        W95714   6.846   8.769   2.258
35970W        W95715  36.428  37.971   0.839
35971W        W95716  41.375  30.050  10.485
35972W        W95717  43.400  24.161   4.352
35973W        W95718  20.226  33.925  13.331
35974W        W95719   1.408  43.360   4.139
35975W        W95720  22.598   8.406   3.358
35976W        W95721   6.803   7.749  10.892
35977W        W95722   2.806  20.730   1.299
35978W        W95723  39.335  13.642   0.926
35979W        W95724  29.628  35.888  10.456
35980W        W95725  31.609  31.412  10.114
35981W        W95726  40.454   7.221  13.957
35982W        W95727   0.858  27.171  10.560
35983W        W95728  38.950  10.847  14.381
35984W        W95729  21.516  24.217   2.329
35985W        W95730  37.997  24.997   4.166
35986W        W95731  15.242   9.299  14.317
35987W        W95732  43.854  17.713  13.819
35988W        W95733   0.963  37.894  11.558
35989W        W95734  39.936  25.993   4.261
35990W        W95735  44.310  19.658   1.387
35991W        W95736  30.520  18.783  10.086
35992W        W95737  16.755  24.688  12.948
35993W        W95738  44.356  15.656  11.465
35994W        W95739  41.505  44.841  13.988
35995W        W95740  32.120  16.167   4.240
35996W        W95741  38.949  12.167   3.808
35997W        W95742  44.391   3.874   1.797
35998W        W95743  10.175  26.156  13.055
35999W        W95744   9.672  37.079   5.710
36000W        W95745   0.790  30.439  14.982
36001W        W95746  13.683  19.772   0.425
36002W        W95747  29.149  26.701  10.436
36003W        W95748  36.065  36.947   4.801
36004W        W95749   1.846  28.517  14.396
36005W        W95750  35.522  16.657   0.406
36006W        W95751  15.179  13.624  12.433
36007W        W95752  29.652  18.744  13.029
36008W        W95753  12.349  40.549  12.461
36009W        W95754  26.487  10.165   4.223
36010W        W95755  24.663  40.822   2.839
36011W        W95756  40.497  25.988   2.688
36012W        W95757  23.534  10.349  11.606
36013W        W95758  34.866  37.498   0.355
36014W        W95759  13.752  31.474   0.729
36015W        W95760  24.185  33.569   1.345
36016W        W95761  35.967  32.021  13.367
36017W        W95762  43.944  35.982   4.284
36018W        W95763   9.820   1.919   0.783
36019W        W95764  29.439   2.944  11.441
36020W        W95765   7.838   8.878  11.992
36021W        W95766  10.270   5.845   3.325
36022W        W95767  39.381  30.112   4.737
36023W        W95768   8.835  11.633  14.305
36024W        W95769   1.423   4.272   4.134
36025W        W95770  31.521   1.312   4.691
36026W        W95771  25.702  10.292   0.423
36027W        W95772  32.431  28.633   1.727
36028W        W95773  18.076  24.074  13.517
36029W        W95774  18.590  41.840  13.922
36030W        W95775  17.594   3.286  14.342
36031W        W95776  15.190  43.908   0.749
36032W        W95777  30.452   7.236  13.925
36033W        W95778  27.057   9.298   3.168
36034W        W95779  19.241   5.209   0.751
36035W        W95780  36.918  36.490   0.351
36036W        W95781   1.905  14.333   2.211
36037W        W95782  12.767  17.272   3.842
36038W        W95783  35.417  24.686  12.081
36039W        W95784  23.192  27.599   0.386
36040W        W95785  21.545  12.176   2.893
36041W        W95786  27.100  12.334  11.391
36042W        W95787  22.506  14.834   2.853
36043W        W95788  22.557  11.768   2.402
36044W        W95789  36.412  21.723  11.405
36045W        W95790  42.023  23.721  13.537
36046W        W95791  30.513   1.299  14.849
36047W        W95792  33.499   2.357  14.283
36048W        W95793   3.822  33.963   3.221
36049W        W95794  28.478  29.093  12.042
36050W        W95795  23.492   8.287   3.380
36051W        W95796  22.050  35.513  12.365
36052W        W95797  40.316   1.967   1.879
36053W        W95798  26.051  42.464   4.733
36054W        W95799   5.878  17.062  10.944
36055W        W95800  33.023  34.037  14.345
36056W        W95801  40.030  31.611   4.319
36057W        W95802  41.796  28.627   4.807
36058W        W95803   3.380   1.249   4.125
36059W        W95804   9.314  12.235  14.351
36060W        W95805  30.519   8.262   3.362
36061W        W95806  11.678   8.199  12.393
36062W        W95807  30.920  44.764  12.042
36063W        W95808   9.763   8.349  13.400
36064W        W95809  40.934   2.940  12.571
36065W        W95810  35.488  17.282   1.915
36066W        W95811  20.613  26.110   1.793
36067W        W95812  20.071  30.423  13.315
36068W        W95813  26.207  34.984  10.044
36069W        W95814  34.040  44.434   3.275
36070W        W95815  15.099  42.456   1.743
36071W        W95816  35.893   2.342   3.338
36072W        W95817   6.220  22.601   2.311
36073W        W95818  36.914  44.800  14.821
36074W        W95819  31.598  20.690   3.387
36075W        W95820  27.119  21.622  10.977
36076W        W95821  28.129   3.283  12.418
36077W        W95822  40.458  25.188   1.268
36078W        W95823   3.397   5.323  13.423
36079W        W95824  44.339  39.057  11.947
36080W        W95825  23.538  42.923  12.380
36081W        W95826  18.158   8.695   3.261
36082W        W95827  35.585   2.945   0.321
36083W        W95828  25.980  25.682  11.395
36084W        W95829  11.668  20.729  11.610
36085W        W95830  15.795  18.224   1.267
36086W        W95831  20.221  21.098  12.347
36087W        W95832  24.686  23.181  14.396
36088W        W95833  42.022  35.016  10.985
36089W        W95834  13.719   1.479   3.726
36090W        W95835  29.483   9.274   3.845
36091W        W95836  37.491   6.303  14.322
36092W        W95837  10.830  43.825   4.167
36093W        W95838  41.323  33.530   4.327
36094W        W95839  11.325  32.133   1.736
36095W        W95840  26.050  44.283   1.786
36096W        W95841   8.814  39.966  12.962
36097W        W95842   9.243  41.910   2.286
36098W        W95843   8.775  10.833   3.690
36099W        W95844  35.386  19.761   5.151
36100W        W95845  35.362  25.553  11.919
36101W        W95846  16.283   7.333   2.888
36102W        W95847  16.098   4.914   0.421
36103W        W95848   5.236  35.450  12.025
36104W        W95849  27.019  31.898  13.918
36105W        W95850  36.925  10.879  14.411
36106W        W95851   0.292  10.667   1.238
36107W        W95852  11.712  44.795   2.214
36108W        W95853  18.666  21.207  14.339
36109W        W95854  12.281  19.561   2.748
36110W        W95855  32.911  28.482   0.363
36111W        W95856  37.964  31.972   4.288
36112W        W95857  44.279   2.806  11.591
36113W        W95858  29.999  10.307   3.344
36114W        W95859  25.047   3.784  13.449
36115W        W95860   4.315  19.237   1.369
36116W        W95861  13.257  12.679   3.696
36117W        W95862  29.498  36.848   0.912
36118W        W95863  19.539  44.498  14.871
36119W        W95864  27.593  32.627   1.213
36120W        W95865  23.099  11.797   4.170
36121W        W95866  22.744  13.655   1.263
36122W        W95867  31.910   3.437  13.336
36123W        W95868  28.560  17.567  11.080
36124W        W95869  31.113  29.518   3.792
36125W        W95870  15.791  24.047  12.971
36126W        W95871  30.109   1.396   2.887
36127W        W95872  36.348  39.833   2.264
36128W        W95873  39.862   7.872   2.180
36129W        W95874  13.776  27.102  11.467
36130W        W95875   7.357  11.724  11.589
36131W        W95876  14.599  41.350  13.460
36132W        W95877  41.872  17.690  14.387
36133W        W95878  16.589  38.417   1.696
36134W        W95879  17.301  35.426  13.011
36135W        W95880  42.897   3.413  11.460
36136W        W95881  14.189  40.481  12.994
36137W        W95882   7.858   3.939   0.415
36138W        W95883   0.430  35.925  12.858
36139W        W95884  32.431   9.872   4.797
36140W        W95885  27.527  23.198   2.279
36141W        W95886  12.148  10.714   0.943
36142W        W95887   5.813  12.341   3.630
36143W        W95888  33.036  10.879  12.409
36144W        W95889  34.105  20.593   2.853
36145W        W95890  21.726  27.957   1.857
36146W        W95891  29.924  17.151   4.308
36147W        W95892  29.991  39.050   1.697
36148W        W95893  33.078  41.810  11.610
36149W        W95894  12.129   5.929   1.918
36150W        W95895   0.750  13.164  11.597
36151W        W95896  22.125   2.802  12.543
36152W        W95897  32.110   2.802  14.897
36153W        W95898   3.766  39.340   3.650
36154W        W95899  11.665  13.780  10.914
36155W        W95900  19.231  12.810   4.730
36156W        W95901  43.407  25.126  11.378
36157W        W95902  25.578  18.115  10.633
36158W        W95903  26.563  15.613   0.825
36159W        W95904   9.202  24.058   4.115
36160W        W95905  43.439  21.608   4.339
36161W        W95906  24.166   3.811   3.269
36162W        W95907  34.461   3.406   4.262
36163W        W95908   3.268  29.021   4.253
36164W        W95909  19.539  30.645  12.960
36165W        W95910  17.249   9.848  12.008
36166W        W95911   4.432  43.364   1.704
36167W        W95912  35.053  26.053   0.480
36168W        W95913  31.050   8.247  13.029
36169W        W95914  22.071  31.918   1.923
36170W        W95915  25.089  43.908   9.978
36171W        W95916  41.473  22.175  14.497
36172W        W95917  16.669  35.559   0.389
36173W        W95918  31.587  23.220   4.769
36174W        W95919   3.270  14.127  14.386
36175W        W95920  11.821  21.722  14.400
36176W        W95921   6.192   9.872  11.958
36177W        W95922  37.974  33.062  14.476
36178W        W95923  26.645  24.989  14.487
36179W        W95924  44.914  35.973   5.226
36180W        W95925  38.394   4.887   3.151
36181W        W95926   9.335  12.850  14.011
36182W        W95927  27.667   7.741   4.805
36183W        W95928   9.755   8.245   4.217
36184W        W95929   7.243  15.141   4.353
36185W        W95930  22.207  42.844   1.443
36186W        W95931  11.717  31.516   0.837
36187W        W95932  22.548   1.256   0.393
36188W        W95933   9.311  22.701   2.705
36189W        W95934  13.611  43.352  11.602
36190W        W95935  24.146  34.094  14.796
36191W        W95936   5.701  20.680  13.892
36192W        W95937  19.066  41.371  13.907
36193W        W95938  27.129  20.580   1.416
36194W        W95939   8.182  12.841  11.865
36195W        W95940  28.036  40.350  11.901
36196W        W95941  43.490  37.015   5.241
36197W        W95942  11.735  11.854   4.641
36198W        W95943  35.552  40.047   0.824
36199W        W95944  30.494  23.623   3.309
36200W        W95945  29.587  35.961   0.805
36201W        W95946  18.669  42.797  10.142
36202W        W95947  33.501  24.099  13.055
36203W        W95948  42.463  44.449   0.801
36204W        W95949   7.267  27.649   2.241
36205W        W95950  24.511  37.456  12.990
36206W        W95951  33.083  31.998  13.793
36207W        W95952  38.949  24.187   1.287
36208W        W95953  20.703  29.637  12.500
36209W        W95954  36.954  30.478  11.997
36210W        W95955   2.756   6.761  12.571
36211W        W95956  18.679  12.291   3.249
36212W        W95957  19.665   0.265   0.301
36213W        W95958  15.143  15.765  11.902
36214W        W95959  11.815  38.877   0.743
36215W        W95960  33.585  26.624  10.892
36216W        W95961   6.718   8.809   4.673
36217W        W95962  35.069   4.273   3.781
36218W        W95963  22.110  23.579  14.865
36219W        W95964  34.089  35.507   2.824
36220W        W95965  11.835  14.191  10.612
36221W        W95966  37.399  24.584   4.338
36222W        W95967   1.433  33.977  10.641
36223W        W95968  18.098   6.194   0.881
36224W        W95969  12.702  13.340  13.918
36225W        W95970  18.667  42.879  12.974
36226W        W95971  23.562   7.679   1.759
36227W        W95972  39.552  17.714   4.174
36228W        W95973  39.387  30.565   0.820
36229W        W95974   2.929   3.766  14.974
36230W        W95975  41.043  23.030   1.363
36231W        W95976  13.771  16.293   2.219
36232W        W95977   5.801  13.700   0.812
36233W        W95978   4.770  18.685   3.200
36234W        W95979   1.275   3.236  13.011
36235W        W95980  22.088  13.644   3.192
36236W        W95981   1.837  44.309  13.307
36237W        W95982  28.078  12.802  12.876
36238W        W95983   7.745  26.090  10.519
36239W        W95984  19.244  29.643   0.312
36240W        W95985  27.569   8.776   0.820
36241W        W95986  20.137  33.611   1.900
36242W        W95987  42.341  36.983  10.586
36243W        W95988  42.837  42.361   4.796
36244W        W95989   3.407   1.240  11.954
36245W        W95990  20.165  44.793   0.325
36246W        W95991  24.170  40.934  11.861
36247W        W95992  41.385  23.037  13.435
36248W        W95993   4.314  30.421  14.960
36249W        W95994  18.228  12.224  10.984
36250W        W95995   5.300   7.338   4.326
36251W        W95996  10.831  40.914  13.907
36252W        W95997  30.049   7.861  14.934
36253W        W95998   3.253  41.896   0.769
36254W        W95999  24.192   3.734   1.930
36255W        W96000  44.395   7.850  13.034
36256W        W96001   0.284  35.378   4.114
36257W        W96002   1.928  43.983   4.664
36258W        W96003  40.547   9.163  10.478
36259W        W96004   3.864  40.432   0.923
36260W        W96005   3.921   3.905   2.325
36261W        W96006  26.650  13.162   3.257
36262W        W96007  27.058  42.315  14.903
36263W        W96008  43.880  28.975   3.305
36264W        W96009  27.482  27.059  12.066
36265W        W96010  22.084  20.635  12.040
36266W        W96011   2.776  18.101   2.891
36267W        W96012  39.933  13.817  12.468
36268W        W96013  43.013  35.107  10.973
36269W        W96014   0.416  44.306   0.318
36270W        W96015  23.150  33.888  13.419
36271W        W96016   5.330  24.639   2.758
36272W        W96017  40.825  29.921  13.488
36273W        W96018  20.656  13.733  13.993
36274W        W96019  14.180  34.887   1.210
36275W        W96020   4.243  37.372   4.685
36276W        W96021  10.738   8.189  11.999
36277W        W96022  11.849  38.906  10.483
36278W        W96023   6.192  34.533   4.806
36279W        W96024  33.980  13.768  13.029
36280W        W96025  19.630  17.231   1.247
36281W        W96026  22.713  31.915  13.490
36282W        W96027  38.041   2.276  14.456
36283W        W96028  16.570  40.457  14.004
36284W        W96029   4.437  34.942  11.047
36285W        W96030  23.705  28.661  14.322
36286W        W96031  26.064  12.331   4.304
36287W        W96032  36.948  29.593  12.010
36288W        W96033  24.180   7.871  13.851
36289W        W96034  30.658  41.425   1.222
36290W        W96035  44.899  44.375  12.503
36291W        W96036  10.661  24.490   0.304
36292W        W96037  33.023  27.658   3.328
36293W        W96038   7.792  41.397   1.374
36294W        W96039  18.065  44.285  14.396
36295W        W96040  37.473  16.646  14.803
36296W        W96041  15.302  27.617   2.186
36297W        W96042  36.903  27.986   1.332
36298W        W96043  32.601  40.808  12.011
36299W        W96044  33.079  38.352   3.230
36300W        W96045  30.574  43.409  13.538
36301W        W96046  34.075   1.828  11.057
36302W        W96047  15.205   1.279   0.260
36303W        W96048  41.360  18.595   4.155
36304W        W96049  33.127  28.142  11.050
36305W        W96050   6.817  36.369   2.783
36306W        W96051   2.459  41.984   0.286
36307W        W96052  10.774  27.041  10.987
36308W        W96053  17.618  40.380   1.758
36309W        W96054   1.384  36.963   4.162
36310W        W96055  11.748  36.002  13.408
36311W        W96056  42.413  33.069  14.450
36312W        W96057  21.617  30.553   2.716
36313W        W96058  13.710  38.878   4.190
36314W        W96059   1.788  32.931  13.465
36315W        W96060  21.564   6.259   3.761
36316W        W96061  25.047  21.513   4.212
36317W        W96062  20.138  11.364  11.901
36318W        W96063  28.648   5.405   1.276
36319W        W96064  37.059  43.308   1.325
36320W        W96065  14.754  31.939  14.431
36321W        W96066  10.739  19.202   1.443
36322W        W96067  23.237  20.676  14.480
36323W        W96068   8.184  10.267   4.308
36324W        W96069  44.330  35.980  11.062
36325W        W96070  15.737  17.676   2.738
36326W        W96071  31.643  36.917   0.280
36327W        W96072  27.117  29.120  12.876
36328W        W96073   3.954   5.820  11.872
36329W        W96074  10.647  43.867  12.036
36330W        W96075   8.749  27.625   0.437
36331W        W96076  18.187  16.729  14.359
36332W        W96077  15.799  16.153   0.387
36333W        W96078   5.276  28.564   2.245
36334W        W96079  17.078  25.968   1.867
36335W        W96080   9.248   3.435  11.117
36336W        W96081  32.464  34.418   2.726
36337W        W96082   6.810  33.075   4.742
36338W        W96083  34.467  30.466  10.641
36339W        W96084   0.394   5.796  11.076
36340W        W96085   2.458  32.422   1.382
36341W        W96086  23.089  42.341   4.802
36342W        W96087  34.447  18.569  10.482
36343W        W96088  21.568  32.455  12.833
36344W        W96089  38.914  28.492   2.309
36345W        W96090  32.495  34.562  13.344
36346W        W96091  33.440   3.313   3.248
36347W        W96092  40.858   3.255   4.348
36348W        W96093   1.400  25.712  11.481
36349W        W96094   2.307   7.721   4.666
36350W        W96095  23.667  16.599   1.325
36351W        W96096  15.322  44.796   1.232
36352W        W96097  23.580  13.230  13.331
36353W        W96098  14.340  20.676   4.676
36354W        W96099   6.368  20.140  13.441
36355W        W96100  23.556   3.742  11.577
36356W        W96101   2.911   4.326  12.946
36357W        W96102  21.513  32.507   1.771
36358W        W96103  40.905   0.402  14.361
36359W        W96104   8.309  41.387   3.855
36360W        W96105   7.880  33.122   4.198
36361W        W96106  39.374   8.348   1.214
36362W        W96107  36.417   7.240  14.006
36363W        W96108   3.319  19.655   3.375
36364W        W96109  27.643   7.797   0.934
36365W        W96110  21.575  30.942   3.221
36366W        W96111  43.310  15.149   4.775
36367W        W96112   7.781  42.284  12.390
36368W        W96113  43.468  14.231  14.764
36369W        W96114  22.741  29.452   5.181
36370W        W96115   9.297   5.377   2.708
36371W        W96116  15.266  28.139  13.464
36372W        W96117  11.210  20.646  12.431
36373W        W96118  34.590  43.483  10.891
36374W        W96119  32.502   6.194  13.929
36375W        W96120   8.371  15.633   0.732
36376W        W96121   2.399   1.459  13.978
36377W        W96122  27.143  13.192  14.345
36378W        W96123   8.822  29.988  12.449
36379W        W96124  31.153  15.115   0.435
36380W        W96125   8.331  34.373  13.320
36381W        W96126  28.987  37.016  14.345
36382W        W96127  35.034   5.812   2.214
36383W        W96128   8.676  24.118  14.790
36384W        W96129   7.726  10.382  13.978
36385W        W96130  31.915  28.034   3.778
36386W        W96131  38.963   9.885  14.999
36387W        W96132  26.674  41.895   3.251
36388W        W96133  33.961   2.754   3.146
36389W        W96134  23.157  39.016  13.917
36390W        W96135   1.869  28.649   4.204
36391W        W96136  13.602  17.155   2.280
36392W        W96137  34.395  19.556  12.010
36393W        W96138   3.379  35.380  12.989
36394W        W96139  27.527   5.300  12.530
36395W        W96140   7.261  31.606  12.045
36396W        W96141  35.485  16.204  14.441
36397W        W96142   3.761  24.150  11.897
36398W        W96143  41.388   6.864   0.433
36399W        W96144  24.081  44.799   1.870
36400W        W96145  36.372  36.461   3.214
36401W        W96146  27.541  39.464   1.710
36402W        W96147  27.674  31.608  13.881
36403W        W96148   8.684   7.678  14.924
36404W        W96149  28.666  37.049  13.044
36405W        W96150  10.207  42.779  14.398
36406W        W96151  23.676  11.306  12.078
36407W        W96152  41.303  21.184   2.322
36408W        W96153  28.680  39.505   1.270
36409W        W96154  28.938   3.293   1.790
36410W        W96155  26.498   5.717   0.786
36411W        W96156  20.533  31.071   2.399
36412W        W96157  18.732  11.802  11.381
36413W        W96158  24.073  30.599   0.410
36414W        W96159   6.759  19.573   4.734
36415W        W96160   3.831  32.904  10.535
36416W        W96161  16.092  39.994  13.325
36417W        W96162   7.372  23.241   0.880
36418W        W96163  24.721   9.781   2.706
36419W        W96164   4.907  22.032   0.878
36420W        W96165  20.596  38.942   2.401
36421W        W96166   5.771  26.520  12.382
36422W        W96167  31.899  14.227   0.283
36423W        W96168  13.780  11.771  14.453
36424W        W96169  42.494   2.266   3.791
36425W        W96170  19.114  27.978  11.010
36426W        W96171  14.191  44.832  12.873
36427W        W96172  42.822  19.556  13.362
36428W        W96173  17.104  22.510  13.403
36429W        W96174  29.512   4.886   3.221
36430W        W96175   3.219  29.007  12.503
36431W        W96176  19.576  25.700   0.353
36432W        W96177  13.197   0.337  10.611
36433W        W96178  33.448  39.390  12.907
36434W        W96179  34.941  41.493   0.433
36435W        W96180   7.819  44.444   0.754
36436W        W96181  41.484  21.733   4.599
36437W        W96182  28.095   5.812   3.316
36438W        W96183   3.793  37.499  13.036
36439W        W96184   5.437  12.132   1.730
36440W        W96185   6.273  25.152   5.218
36441W        W96186  18.124   5.297   2.807
36442W        W96187  18.290  23.027  13.393
36443W        W96188  13.347  43.915  12.562
36444W        W96189  33.465  34.401  11.058
36445W        W96190  14.645  44.497   2.389
36446W        W96191   2.926  15.675  12.499
36447W        W96192   3.900  22.249  11.587
36448W        W96193  37.869  44.775  13.895
36449W        W96194   5.891   0.974  10.562
36450W        W96195   3.761  10.379   1.816
36451W        W96196  18.786  33.978   1.451
36452W        W96197  12.239  24.668   2.255
36453W        W96198  30.969  39.431  13.492
36454W        W96199  22.252  28.998  10.621
36455W        W96200   2.464  28.603   1.327
36456W        W96201   6.735   7.213   2.840
36457W        W96202  38.407  18.255  11.882
36458W        W96203  14.641  32.995   4.349
36459W        W96204  16.748  15.683  13.414
36460W        W96205  24.981   3.879  10.043
36461W        W96206  41.316  26.985   4.741
36462W        W96207   4.719   5.414  10.021
36463W        W96208  11.635  36.362   1.328
36464W        W96209   4.704  14.747   4.214
36465W        W96210  44.007  24.107  12.057
36466W        W96211  17.255  44.347   5.196
36467W        W96212  39.975  20.084   0.263
36468W        W96213  35.024  23.033   3.674
36469W        W96214  12.683  12.622   1.379
36470W        W96215  38.403  16.784   1.922
36471W        W96216  34.961   5.820   9.607
36472W        W96217  25.099   2.339  11.540
36473W        W96218   2.739  35.382  11.953
36474W        W96219  15.604  16.752  11.908
36475W        W96220   2.280  35.566  14.495
36476W        W96221  10.246  44.353   2.296
36477W        W96222   9.785  28.948   2.849
36478W        W96223   7.274   5.888  12.005
36479W        W96224  44.265  43.278   0.478
36480W        W96225  33.400  20.083  14.847
36481W        W96226  10.785  10.185  12.567
36482W        W96227  28.647  22.094  11.027
36483W        W96228   2.228  17.230   1.880
36484W        W96229  24.227   1.242   2.834
36485W        W96230  22.529  28.961   4.228
36486W        W96231  11.277  21.541  14.833
36487W        W96232  40.449  12.323   4.320
36488W        W96233   2.464  21.230   4.816
36489W        W96234  20.168   9.648   4.658
36490W        W96235  25.045  39.962   1.743
36491W        W96236  28.537  18.054  11.125
36492W        W96237   7.820   6.238   1.881
36493W        W96238  28.943  40.490  14.995
36494W        W96239  33.879  21.213   0.375
36495W        W96240  17.610   2.456   2.208
36496W        W96241  38.510   0.312  13.013
36497W        W96242   0.898   4.893   0.414
36498W        W96243  27.620  17.619   1.338
36499W        W96244  16.628  27.524   4.245
36500W        W96245  18.717   1.779  12.992
36501W        W96246  28.147   7.725  14.341
36502W        W96247   8.243  30.116  14.953
36503W        W96248   8.238  32.615  10.614
36504W        W96249  28.121  24.612   3.337
36505W        W96250   0.338   7.839  11.951
36506W        W96251  39.414  18.577   2.800
36507W        W96252   5.381   0.914   1.309
36508W        W96253   7.414  36.441   0.396
36509W        W96254   0.257  28.578   4.193
36510W        W96255  25.195  10.719  10.976
36511W        W96256   9.203  39.463  13.027
36512W        W96257  41.863  21.630  11.457
36513W        W96258  27.446  12.188   2.369
36514W        W96259  40.814  39.041  11.908
36515W        W96260  42.829  32.423   3.238
36516W        W96261  22.071   6.340  14.805
36517W        W96262   5.217  26.661  10.923
36518W        W96263  31.042  34.560   1.803
36519W        W96264  29.078  39.326  14.019
36520W        W96265  40.964  22.065  11.511
36521W        W96266   7.236  10.225   4.819
36522W        W96267   8.299  35.959   1.868
36523W        W96268  20.210  40.995  11.885
36524W        W96269   7.397   2.917   0.439
36525W        W96270  22.081  42.862   1.708
36526W        W96271   9.342  13.824  12.898
36527W        W96272  22.633  19.704   4.336
36528W        W96273  16.146   2.229  13.934
36529W        W96274   9.862  38.417  13.436
36530W        W96275  15.243  43.304  10.436
36531W        W96276  33.616  12.827  13.398
36532W        W96277  19.144  36.905   0.339
36533W        W96278   6.189   3.768  12.545
36534W        W96279  15.129  16.753   2.663
36535W        W96280  28.664   5.838   0.408
36536W        W96281  11.815  30.493  11.381
36537W        W96282   5.862  40.516  11.562
36538W        W96283  29.642   8.676   5.236
36539W        W96284  35.932  12.362  13.415
36540W        W96285  33.995  33.923  11.932
36541W        W96286  41.860  31.964   1.766
36542W        W96287  44.945   7.259   1.438
36543W        W96288  43.382  30.097   1.913
36544W        W96289  43.996  27.672  14.972
36545W        W96290   3.920  16.295  12.067
36546W        W96291   6.211  14.326  11.887
36547W        W96292  38.866  19.772   4.148
36548W        W96293   7.373  31.071  11.398
36549W        W96294  42.830  40.417  14.028
36550W        W96295  28.664  26.001  12.371
36551W        W96296  38.887  22.575   4.793
36552W        W96297  31.119  20.716   1.258
36553W        W96298  31.004  24.527   3.746
36554W        W96299  16.166  10.311  14.827
36555W        W96300  10.284  20.579   0.359
36556W        W96301  14.766  17.062  12.429
36557W        W96302  24.699  38.966   2.662
36558W        W96303  27.002  33.617  10.580
36559W        W96304  40.017  43.895  10.905
36560W        W96305  44.908   5.413   0.448
36561W        W96306  13.206  26.181  11.918
36562W        W96307  11.707   7.384  11.555
36563W        W96308  25.017  20.182   0.729
36564W        W96309  13.220  11.743   2.212
36565W        W96310   2.721  15.261   1.830
36566W        W96311   7.866  23.491  12.078
36567W        W96312  28.012  38.012  13.376
36568W        W96313  13.704  32.476   2.770
36569W        W96314   0.292  10.172   3.820
36570W        W96315  38.828  16.303   2.777
36571W        W96316   8.769  25.985   4.320
36572W        W96317  29.040  24.054  10.427
36573W        W96318  31.419  24.508  14.345
36574W        W96319  41.867   8.377   3.847
36575W        W96320  11.285  15.131   4.669
36576W        W96321  32.554   3.773   9.577
36577W        W96322  39.504  39.984  11.123
36578W        W96323   2.446  31.422  14.941
36579W        W96324  27.519  30.580   0.887
36580W        W96325  43.303  23.151  14.402
36581W        W96326  29.593  31.476  14.377
36582W        W96327  36.937   4.718   0.788
36583W        W96328   8.741  38.836   0.729
36584W        W96329  32.022   5.889  14.859
36585W        W96330  36.082  14.193  14.768
36586W        W96331  16.254  19.694  13.840
36587W        W96332   1.769  35.420  11.416
36588W        W96333  20.537   2.769  11.943
36589W        W96334  33.110  34.958   3.165
36590W        W96335  41.967  29.085   1.856
36591W        W96336  16.136  43.903   0.956
36592W        W96337  33.935  28.630  14.988
36593W        W96338  32.111   4.295   0.303
36594W        W96339   5.366  28.532   1.734
36595W        W96340  21.260  22.731  10.512
36596W        W96341  12.183  44.486   4.157
36597W        W96342   8.273  37.086   4.257
36598W        W96343  25.042   6.416   3.347
36599W        W96344  27.603  37.053   3.344
36600W        W96345   7.204  36.590  11.431
36601W        W96346  25.189  37.355  12.939
36602W        W96347  10.774  26.647  11.935
36603W        W96348   9.885  44.279   2.861
36604W        W96349  24.680  24.561   2.791
36605W        W96350  39.063  26.951   4.186
36606W        W96351  42.518  30.010  10.936
36607W        W96352  43.972  11.782   2.285
36608W        W96353  11.808  40.049  11.898
36609W        W96354  19.266  17.563   2.887
36610W        W96355  22.037  43.873  13.881
36611W        W96356  11.130  35.589   5.176
36612W        W96357   0.907  32.443  13.470
36613W        W96358  22.726   7.304   2.371
36614W        W96359  31.119  24.583  11.984
36615W        W96360  37.016  22.182  11.086
36616W        W96361  37.950  24.679   1.353
36617W        W96362  40.363  16.301   4.198
36618W        W96363  21.626  42.853  12.482
36619W        W96364  21.227  36.056  11.497
36620W        W96365  10.306  23.121  12.474
36621W        W96366  24.513  12.781   1.808
36622W        W96367  39.412  41.422  12.916
36623W        W96368  12.763  40.375   0.904
36624W        W96369  41.877   1.410  11.873
36625W        W96370  35.531  37.445  14.359
36626W        W96371  27.474   9.297  14.480
36627W        W96372   2.934  29.116   4.761
36628W        W96373   6.889  43.326  13.016
36629W        W96374  28.108  33.562  13.929
36630W        W96375   3.833  19.753  10.902
36631W        W96376  37.442   1.437   2.313
36632W        W96377  25.587  26.514   4.603
36633W        W96378   0.986   9.737  11.455
36634W        W96379   2.467  21.198   5.127
36635W        W96380  35.417  40.432   0.751
36636W        W96381   4.763  34.497  12.095
36637W        W96382   0.772  44.503  12.964
36638W        W96383  17.280  35.447  14.889
36639W        W96384  35.955   8.339   2.873
36640W        W96385   1.921  24.005   2.876
36641W        W96386   4.786   0.782   0.919
36642W        W96387  15.727   3.236  12.534
36643W        W96388  10.155   7.400  14.916
36644W        W96389   4.919  38.014  14.303
36645W        W96390  17.229  41.307   9.981
36646W        W96391   4.931  39.421  14.479
36647W        W96392  38.933  10.641   3.830
36648W        W96393  10.316  33.516   2.796
36649W        W96394  22.708  35.416  11.083
36650W        W96395  34.891  26.190  12.015
36651W        W96396  14.253  29.471  14.775
36652W        W96397  29.125  40.909   0.844
36653W        W96398  25.516  44.309  11.501
36654W        W96399  32.441   2.897   2.900
36655W        W96400  44.965  23.203   1.804
36656W        W96401   4.911  32.445   1.359
36657W        W96402   5.232  15.329   3.860
36658W        W96403  28.625  22.230   1.412
36659W        W96404  42.468  23.634  13.308
36660W        W96405   6.363  36.844   4.763
36661W        W96406  22.538  18.059   2.761
36662W        W96407  41.396  38.374   4.671
36663W        W96408  31.918  14.308   1.860
36664W        W96409  34.025  36.073   4.635
36665W        W96410  29.600  28.632  12.959
36666W        W96411  20.059  11.760  13.891
36667W        W96412  11.710  38.562   2.253
36668W        W96413  29.022   0.932   4.602
36669W        W96414  36.935  30.142   2.416
36670W        W96415  44.827  43.498  12.354
36671W        W96416  27.012  41.320  14.322
36672W        W96417  18.208  14.320   2.768
36673W        W96418  42.448   4.716  11.995
36674W        W96419  29.662   9.337  13.485
36675W        W96420   2.349  43.996  14.336
36676W        W96421  41.866  22.106   1.724
36677W        W96422  29.041  19.222  13.512
36678W        W96423   9.250  28.671   0.264
36679W        W96424  10.654  19.734  14.452
36680W        W96425  33.098  15.756  14.794
36681W        W96426  19.141  26.184  10.984
36682W        W96427  14.202  37.467  14.950
36683W        W96428  43.363  10.167   0.349
36684W        W96429  34.082  37.532   4.237
36685W        W96430   9.780  39.040   2.256
36686W        W96431  40.322  43.006   3.224
36687W        W96432  11.284  24.603  13.010
36688W        W96433   4.721  26.499   4.343
36689W        W96434  36.370  25.965  14.499
36690W        W96435   8.228  17.166  14.910
36691W        W96436  17.229  14.338  11.094
36692W        W96437  29.981  32.939  14.980
36693W        W96438  33.109  13.256  13.037
36694W        W96439  36.977  43.288  10.950
36695W        W96440   7.306  42.007  10.630
36696W        W96441  11.793  38.354  12.998
36697W        W96442  23.076   2.328  11.416
36698W        W96443  31.932   7.238   5.213
36699W        W96444  43.493  22.234  13.970
36700W        W96445   9.272  43.964  11.071
36701W        W96446  20.049  15.666   9.976
36702W        W96447  26.685  24.174  14.367
36703W        W96448  37.973   4.854   3.651
36704W        W96449  25.118   5.919  12.349
36705W        W96450  43.999  40.450   4.673
36706W        W96451  38.972  39.902  13.857
36707W        W96452   8.264   2.463   1.250
36708W        W96453  42.800  40.522  11.420
36709W        W96454  10.669  19.098   1.741
36710W        W96455  44.409   9.716   4.225
36711W        W96456  32.511   7.854   1.228
36712W        W96457  32.943  23.601   4.248
36713W        W96458  44.349   5.439  13.856
36714W        W96459  28.532  40.039  12.995
36715W        W96460  36.396  42.440   0.930
36716W        W96461  21.525  25.187  12.854
36717W        W96462  37.360  25.628  13.374
36718W        W96463  18.589  27.178   3.221
36719W        W96464  29.109  17.801  10.966
36720W        W96465  18.076   4.374   3.221
36721W        W96466   9.739  38.883   1.694
36722W        W96467   0.432   9.760   1.235
36723W        W96468  13.678  31.550  14.491
36724W        W96469   6.787  29.942  14.338
36725W        W96470   2.310  40.917   1.372
36726W        W96471   7.282  26.640   0.796
36727W        W96472  40.968  35.474  14.947
36728W        W96473  21.035  41.496   4.189
36729W        W96474  31.012  40.346  14.954
36730W        W96475   0.391  37.546  13.968
36731W        W96476  29.485  33.478   4.682
36732W        W96477  16.573  25.033   4.799
36733W        W96478  15.269  29.168   3.869
36734W        W96479   8.693  14.673   1.329
36735W        W96480  24.041   6.270  11.860
36736W        W96481  31.405  29.491   1.810
36737W        W96482   1.968  40.828  12.557
36738W        W96483  18.686  27.517   3.190
36739W        W96484   8.223  36.353   1.721
36740W        W96485   0.293   6.800   1.753
36741W        W96486  24.043  44.359   3.733
36742W        W96487  11.807  15.712   2.310
36743W        W96488  24.533  38.518  13.423
36744W        W96489  30.061   7.680  13.948
36745W        W96490  15.232  21.687   1.825
36746W        W96491   1.373   5.286  12.026
36747W        W96492  27.596   4.379  14.953
36748W        W96493  37.903  36.047   3.192
36749W        W96494  38.532  23.046   1.246
36750W        W96495   1.402  16.201   2.356
36751W        W96496  10.728  13.105   0.836
36752W        W96497  11.139  35.526   4.194
36753W        W96498  17.713  38.962  14.777
36754W        W96499  32.988  20.670   2.373
36755W        W96500   9.358  20.184   1.830
36756W        W96501  39.499  16.739   3.248
36757W        W96502   0.905  41.920  11.876
36758W        W96503   0.793  33.031   4.216
36759W        W96504  13.726  31.141  10.422
36760W        W96505  29.523  41.879  11.942
36761W        W96506  17.572  37.399  11.456
36762W        W96507   6.194  44.926   2.871
36763W        W96508  41.414  13.346   4.811
36764W        W96509  28.662  32.593  11.982
36765W        W96510  32.553  42.833  14.426
36766W        W96511  42.998  22.502   4.615
36767W        W96512   3.342  35.404  10.912
36768W        W96513  43.332  42.006   1.358
36769W        W96514   2.465  27.166  11.928
36770W        W96515  30.490  21.115  10.905
36771W        W96516  31.505  17.088   2.878
36772W        W96517   8.672   6.187  12.367
36773W        W96518  32.946  11.758  12.927
36774W        W96519   3.450  28.526  13.880
36775W        W96520  41.823  20.240   2.189
36776W        W96521  41.999  16.707  12.546
36777W        W96522   7.786  34.092   4.260
36778W        W96523  30.956   1.248  13.803
36779W        W96524  24.589  34.971  13.902
36780W        W96525   9.836  15.148   0.257
36781W        W96526  14.762  42.858   4.351
36782W        W96527   3.401  12.183  12.415
36783W        W96528  18.631  38.025   3.778
36784W        W96529  42.877  20.161  10.012
36785W        W96530   9.667  38.570  11.493
36786W        W96531  39.482  18.673   0.451
36787W        W96532  21.670  21.205   0.742
36788W        W96533  12.768  39.331   1.372
36789W        W96534  32.951  16.699  13.501
36790W        W96535  11.623  19.268   2.244
36791W        W96536  12.849  13.196   1.703
36792W        W96537   2.395  40.333   0.307
36793W        W96538  10.355  40.530  12.982
36794W        W96539  44.381  18.653  14.350
36795W        W96540   4.282  40.527  14.892
36796W        W96541  16.708   2.266  11.998
36797W        W96542  24.985  23.065   3.825
36798W        W96543  22.030   9.743  12.941
36799W        W96544  16.597  28.057   0.829
36800W        W96545  15.184  39.559   3.866
36801W        W96546   3.748  32.002   1.303
36802W        W96547  24.196  40.878   2.187
36803W        W96548   1.874  16.801  12.029
36804W        W96549  28.575  18.745   2.730
36805W        W96550  39.018  19.273  13.469
36806W        W96551  15.219   2.294  14.506
36807W        W96552  10.660  32.015  12.511
36808W        W96553  24.014  19.775  12.535
36809W        W96554   1.870  30.078   3.310
36810W        W96555  19.143  43.273   2.749
36811W        W96556  30.944  22.575   3.629
36812W        W96557  15.705  31.104   3.720
36813W        W96558   5.352  28.564   1.446
36814W        W96559  39.522  44.443  10.491
36815W        W96560  27.514  42.336   2.359
36816W        W96561  19.272  44.841  11.380
36817W        W96562   2.930   3.415  13.830
36818W        W96563  26.092   0.320  13.865
36819W        W96564  15.686  35.595   2.792
36820W        W96565  14.138  43.910  12.459
36821W        W96566  21.042   9.245   3.733
36822W        W96567   6.215  15.731   9.928
36823W        W96568  25.515  13.819  11.490
36824W        W96569  13.845  36.469  13.839
36825W        W96570  16.713  23.205  11.953
36826W        W96571   8.803  20.176   4.691
36827W        W96572   4.834   0.816  10.510
36828W        W96573   3.317  23.580   1.370
36829W        W96574  24.674  35.427   1.898
36830W        W96575  24.516   3.380   3.711
36831W        W96576  21.159   2.899   0.423
36832W        W96577  32.082  43.870   3.707
36833W        W96578  29.927  28.177  11.941
36834W        W96579   9.754  12.813   0.902
36835W        W96580  21.224  21.671  14.791
36836W        W96581  28.524   4.841  10.477
36837W        W96582   7.207   9.186  13.535
36838W        W96583  38.850  37.963  11.597
36839W        W96584  30.564  12.639   4.651
36840W        W96585   0.350  14.165  14.990
36841W        W96586   6.235  12.181   3.386
36842W        W96587  30.140  14.630   4.349
36843W        W96588   3.859  27.522   3.375
36844W        W96589  40.320   1.421  13.046
36845W        W96590   8.678   1.388  13.831
36846W        W96591  11.279  34.930  11.372
36847W        W96592  41.866  24.642   2.719
36848W        W96593   5.760  37.966  11.866
36849W        W96594  10.676  34.547  14.914
36850W        W96595   1.348  20.550   3.377
36851W        W96596  25.476  16.291   4.323
36852W        W96597   6.246  36.952  12.889
36853W        W96598   4.823  11.296   4.264
36854W        W96599  39.939   9.363  13.917
36855W        W96600  10.687   7.236  13.909
36856W        W96601   3.447  17.274  14.346
36857W        W96602  36.091  34.972   1.780
36858W        W96603  38.012  21.703   1.443
36859W        W96604  24.065  36.402   2.351
36860W        W96605  20.069   0.809   4.131
36861W        W96606  25.165  31.132  10.105
36862W        W96607  14.660   5.877  12.365
36863W        W96608  32.888   5.843   0.878
36864W        W96609  36.869  24.719   1.923
36865W        W96610  12.693   7.711   4.742
36866W        W96611   3.221  40.826  11.578
36867W        W96612  13.610  34.433  13.352
36868W        W96613  13.835   1.953  12.496
36869W        W96614  29.174   5.757  14.983
36870W        W96615  41.389  15.749  13.332
36871W        W96616  25.497  26.560   0.390
36872W        W96617  37.858  42.448   4.792
36873W        W96618  29.474  40.040  14.919
36874W        W96619  27.076   7.174  10.632
36875W        W96620   0.891  16.301  13.350
36876W        W96621  44.419  29.049  13.913
36877W        W96622  21.232  38.871  10.410
36878W        W96623  31.469   2.947   1.749
36879W        W96624  29.438  39.496   2.747
36880W        W96625   7.895  23.073  12.987
36881W        W96626  39.540  35.448   2.224
36882W        W96627  23.233  12.283  10.057
36883W        W96628  11.155  30.511  11.052
36884W        W96629  13.835  28.935   2.395
36885W        W96630  31.591  23.235   1.722
36886W        W96631   1.890  37.351   0.285
36887W        W96632  35.869  31.943   1.279
36888W        W96633  39.367  37.060   1.299
36889W        W96634  39.532  16.798   4.280
36890W        W96635  15.724  33.895   3.346
36891W        W96636  25.219  30.635  13.494
36892W        W96637  30.425   0.899   4.698
36893W        W96638  43.907  20.232  12.996
36894W        W96639  17.629  20.144   0.884
36895W        W96640  20.527  28.659   1.876
36896W        W96641  27.948  19.568  13.925
36897W        W96642  40.456  37.495  13.026
36898W        W96643  17.273  30.062  11.971
36899W        W96644  44.766  41.399   3.273
36900W        W96645  30.926  35.569  12.004
36901W        W96646   4.289  25.001   2.371
36902W        W96647  12.756  32.473  13.020
36903W        W96648  16.739   1.830  12.060
36904W        W96649  19.056  33.542  13.929
36905W        W96650  35.858  16.684   3.632
36906W        W96651   3.735  44.845   4.317
36907W        W96652  34.373  26.571  10.926
36908W        W96653  14.210  25.654  11.127
36909W        W96654  34.401  43.017   2.364
36910W        W96655   6.327  19.662  14.944
36911W        W96656  34.966  33.601   1.869
36912W        W96657  43.829  18.088  12.534
36913W        W96658  37.986   0.754   3.303
36914W        W96659   4.406  20.608  12.490
36915W        W96660  15.318  34.929   0.806
36916W        W96661   7.415  31.114   4.224
36917W        W96662  27.095  15.264  14.278
36918W        W96663  16.278  16.315  10.589
36919W        W96664  18.595  43.483   0.467
36920W        W96665  38.389  39.356   2.852
36921W        W96666   5.309  23.555   2.248
36922W        W96667  14.646  29.078  14.505
36923W        W96668  10.777  32.443  10.462
36924W        W96669  10.251  34.881   0.462
36925W        W96670  25.532  19.081  13.407
36926W        W96671  22.735  28.129  13.348
36927W        W96672  16.697   2.955   2.338
36928W        W96673   4.938   9.671   2.752
36929W        W96674   2.386  19.127  11.104
36930W        W96675  13.630  19.134   1.808
36931W        W96676  18.634  40.451   2.685
36932W        W96677  34.601  39.843  12.023
36933W        W96678  25.650  33.077   0.374
36934W        W96679  11.642  33.433  13.991
36935W        W96680  39.558  44.827   3.711
36936W        W96681  19.535  33.383   4.263
36937W        W96682  33.559  11.702   1.931
36938W        W96683  34.088   8.900   1.259
36939W        W96684   1.934  12.236  13.431
36940W        W96685  17.270  39.854   4.214
36941W        W96686  22.557  31.475   1.789
36942W        W96687  13.322  35.919   3.741
36943W        W96688  19.056  34.930  14.902
36944W        W96689  40.968  41.450  12.038
36945W        W96690  26.094   5.369   0.913
36946W        W96691  14.828   5.699  14.367
36947W        W96692   2.741  37.958  14.428
36948W        W96693  39.960   0.975  14.362
36949W        W96694  35.381   1.437   2.685
36950W        W96695  23.061  39.452   0.848
36951W        W96696  21.593  26.171   2.310
36952W        W96697  39.421  33.076   1.306
36953W        W96698  28.551   2.361   4.698
36954W        W96699   0.431  29.443  12.444
36955W        W96700  13.644  25.155  11.909
36956W        W96701  29.932  40.847  13.486
36957W        W96702  24.087  18.556  11.986
36958W        W96703  16.793  13.833  12.006
36959W        W96704  35.591  44.385   2.417
36960W        W96705  28.017  16.192   0.783
36961W        W96706  31.476  32.622  14.818
36962W        W96707  10.354  13.181   0.927
36963W        W96708  41.956  19.743   2.694
36964W        W96709  23.998  26.110  11.996
36965W        W96710  27.513  12.834  10.548
36966W        W96711  10.289  27.178  14.377
36967W        W96712  29.448  41.940   4.343
36968W        W96713   2.285  28.933   2.313
36969W        W96714  39.533  37.899   3.645
36970W        W96715  24.217   8.825   0.891
36971W        W96716  12.849  15.116   4.347
36972W        W96717  15.229  34.600   4.202
36973W        W96718   7.308  26.679   1.812
36974W        W96719  43.013  23.494   4.207
36975W        W96720  28.960  26.165  10.637
36976W        W96721  38.350  39.471   1.349
36977W        W96722  16.781  26.550  11.004
36978W        W96723  32.592  31.062   3.254
36979W        W96724   1.438  20.035   4.236
36980W        W96725  30.456   9.182  11.874
36981W        W96726  17.119  35.903  11.442
36982W        W96727  14.182  14.229  12.984
36983W        W96728  13.720  20.764  11.885
36984W        W96729  36.447   4.868   3.273
36985W        W96730  33.912   9.643  13.036
36986W        W96731  32.568   0.926  14.863
36987W        W96732  36.589  28.553  12.010
36988W        W96733   6.827   3.729  10.521
36989W        W96734  36.428  41.317   3.231
36990W        W96735  38.942  11.240  13.889
36991W        W96736  40.917  37.575   2.277
36992W        W96737  10.817  22.592   1.335
36993W        W96738  40.876  12.160  12.941
36994W        W96739   8.326  22.710   4.145
36995W        W96740  15.158  38.858   0.896
36996W        W96741   0.984  11.823   5.275
36997W        W96742   2.443  36.532  14.403
36998W        W96743  34.494  41.898  12.831
36999W        W96744  42.373  35.051  14.464
37000W        W96745   6.296  24.533   3.830
37001W        W96746  18.571  31.533   2.286
37002W        W96747  16.168  37.027  10.890
37003W        W96748  14.695  11.216   2.799
37004W        W96749  13.837  44.890   3.332
37005W        W96750  29.569  16.702  12.344
37006W        W96751   9.185  42.968   1.705
37007W        W96752  40.509  19.604   2.833
37008W        W96753  20.703  42.389  11.072
37009W        W96754  44.926  43.975  11.924
37010W        W96755  34.377   4.705   3.769
37011W        W96756  13.620  30.155  12.456
37012W        W96757  19.591   7.839   2.215
37013W        W96758   9.308  40.389  14.968
37014W        W96759  42.873  37.063  14.347
37015W        W96760  36.021  22.637   3.221
37016W        W96761  42.932  11.851   5.203
37017W        W96762  31.006  37.370   0.305
37018W        W96763  35.388   8.683  12.014
37019W        W96764   5.354  16.309   1.860
37020W        W96765  44.414   7.222  13.541
37021W        W96766  16.635   1.446  12.378
37022W        W96767  35.945  39.837  14.493
37023W        W96768  34.082   9.884  10.436
37024W        W96769  12.151   7.267  12.473
37025W        W96770  30.987  32.604  10.912
37026W        W96771   9.378   8.229  13.542
37027W        W96772  24.535   1.257   2.290
37028W        W96773  33.554  34.901  13.418
37029W        W96774  32.518   1.941  12.429
37030W        W96775  18.190  27.578   2.272
37031W        W96776  21.689  16.232  12.851
37032W        W96777   7.909  29.944   0.803
37033W        W96778  38.541  43.474   2.186
37034W        W96779  44.854  43.897   2.673
37035W        W96780  20.542  40.821   4.350
37036W        W96781  21.739  32.471   1.231
37037W        W96782  36.921  40.820  13.030
37038W        W96783  29.450  34.505   0.312
37039W        W96784  27.455  35.942  14.857
37040W        W96785  32.967  25.487   4.798
37041W        W96786  44.878  18.082   0.365
37042W        W96787  36.014  28.647  13.915
37043W        W96788  43.844   2.791  14.935
37044W        W96789  35.526  24.499   4.808
37045W        W96790  31.627  30.938  13.025
37046W        W96791  32.970  42.817   5.221
37047W        W96792  43.312  31.124   3.732
37048W        W96793  43.770  39.353   1.444
37049W        W96794  16.743   6.698   3.844
37050W        W96795  42.332  42.826  14.320
37051W        W96796  37.514  31.580   1.770
37052W        W96797   1.828  25.117  12.920
37053W        W96798  31.933  32.391   1.363
37054W        W96799  12.278  15.766   2.674
37055W        W96800  26.121   9.213  10.545
37056W        W96801  42.452   1.239  13.943
37057W        W96802  40.445  27.514   0.843
37058W        W96803  10.661   6.273   2.788
37059W        W96804  17.613   1.449  12.965
37060W        W96805  15.309   4.941  11.914
37061W        W96806  10.876  42.826   4.237
37062W        W96807  37.039   4.743   0.292
37063W        W96808   1.886   4.263  12.966
37064W        W96809  33.408  44.326   4.318
37065W        W96810  43.417  36.349  14.445
37066W        W96811   2.439  36.013  13.951
37067W        W96812  43.846  34.932  14.949
37068W        W96813   1.358  14.153   4.737
37069W        W96814  34.527   2.799   2.860
37070W        W96815  19.219  16.103   3.381
37071W        W96816  14.139  26.630   0.358
37072W        W96817  10.284  20.691   2.319
37073W        W96818  19.766  18.587   3.310
37074W        W96819   1.271  10.194  11.475
37075W        W96820  20.028  11.718   4.313
37076W        W96821  22.180  12.125   4.635
37077W        W96822  14.697  32.568   1.789
37078W        W96823  24.566  30.617  10.895
37079W        W96824   0.804   8.182  13.924
37080W        W96825  39.373  20.538  14.493
37081W        W96826  32.083  16.810   3.753
37082W        W96827  35.902   0.320  13.835
37083W        W96828  41.895  10.689   4.685
37084W        W96829  15.720  42.321  12.455
37085W        W96830  28.600  40.523  13.887
37086W        W96831  41.970   9.160   3.731
37087W        W96832  27.496  23.517  14.280
37088W        W96833  26.698  32.039   2.374
37089W        W96834  15.581  11.779   1.275
37090W        W96835  16.727   6.274  13.527
37091W        W96836  36.086  28.628   3.642
37092W        W96837  28.640  29.664   9.981
37093W        W96838  16.290  21.163   2.824
37094W        W96839  19.644  32.903  13.343
37095W        W96840  41.802  23.699  12.925
37096W        W96841   5.735  27.034  13.427
37097W        W96842  36.093  22.097   4.305
37098W        W96843  39.942  38.364  12.387
37099W        W96844  37.360   6.825  12.360
37100W        W96845  20.575  27.481  11.582
37101W        W96846  12.674  44.378   0.788
37102W        W96847  15.202  14.237  14.989
37103W        W96848   9.880  23.195  11.536
37104W        W96849  27.036  38.070  14.959
37105W        W96850   6.699  17.787  14.991
37106W        W96851  25.558  32.967   4.708
37107W        W96852  19.174   3.247   0.905
37108W        W96853  24.029  26.117  11.528
37109W        W96854   5.899  39.045  14.452
37110W        W96855  17.279  22.706   2.825
37111W        W96856  24.558  32.417  13.530
37112W        W96857  40.487  11.313   4.148
37113W        W96858  31.037   1.284   0.243
37114W        W96859  29.103  35.024  11.073
37115W        W96860  29.971  35.408   4.340
37116W        W96861  11.864  18.790  11.122
37117W        W96862  20.071   6.900  10.589
37118W        W96863  21.072  20.033   3.194
37119W        W96864  35.469   8.671  13.977
37120W        W96865  21.180  13.644   2.328
37121W        W96866  27.192  11.295  13.404
37122W        W96867  12.119  41.335   2.848
37123W        W96868  20.603  27.139   2.238
37124W        W96869  24.032   8.766   4.725
37125W        W96870  26.085  10.374   2.302
37126W        W96871  42.964  29.961   4.764
37127W        W96872  12.736  42.924   4.676
37128W        W96873  26.682  24.587  10.406
37129W        W96874  17.650  12.686   1.775
37130W        W96875   4.763  13.167  12.902
37131W        W96876  30.419  25.152   0.967
37132W        W96877   4.773  22.213  14.960
37133W        W96878  14.336  41.947   3.238
37134W        W96879  18.547   1.806   3.746
37135W        W96880  19.258  15.255  10.525
37136W        W96881  21.262  21.102   5.151
37137W        W96882   0.915  15.597  12.370
37138W        W96883  31.482  22.233  13.396
37139W        W96884  28.527  19.534   2.332
37140W        W96885  11.789  27.152  10.428
37141W        W96886  14.823  37.913   2.331
37142W        W96887   5.422   4.902   2.816
37143W        W96888  14.611  29.432   3.670
37144W        W96889  24.552  38.404  14.301
37145W        W96890  21.630  10.637   0.481
37146W        W96891  10.776  41.922  14.982
37147W        W96892  23.031  10.654  14.397
37148W        W96893  20.751   2.308  11.978
37149W        W96894  23.066  29.070  10.976
37150W        W96895  14.258  18.201   0.945
37151W        W96896  18.719  22.648   5.260
37152W        W96897  20.568  21.533  12.970
37153W        W96898  35.903   0.833  13.458
37154W        W96899  18.069  20.091  12.369
37155W        W96900  21.095  34.603  14.880
37156W        W96901  24.674  16.156   4.113
37157W        W96902  18.557  36.054  12.975
37158W        W96903  23.006   4.301   2.884
37159W        W96904  16.283  33.895  12.350
37160W        W96905   2.428  26.507  13.465
37161W        W96906  38.374  33.523   3.866
37162W        W96907   4.337  37.413  12.925
37163W        W96908   6.765  44.269   4.719
37164W        W96909  35.358  35.069   4.114
37165W        W96910   7.416  10.250   4.166
37166W        W96911  36.927  41.422  11.495
37167W        W96912  27.616   1.321   3.156
37168W        W96913  20.073  44.415  13.891
37169W        W96914  19.680   7.284  10.571
37170W        W96915   3.359  28.123   3.827
37171W        W96916   6.321  21.264   5.173
37172W        W96917  21.530  41.884  14.955
37173W        W96918   3.452  35.362   1.892
37174W        W96919  19.283  13.630   1.439
37175W        W96920  43.892  27.130   2.743
37176W        W96921  28.660   7.381  13.840
37177W        W96922  17.742   7.290  11.959
37178W        W96923  29.993  33.050   4.726
37179W        W96924  10.381  22.168  10.526
37180W        W96925   5.863  18.231   1.373
37181W        W96926  15.611  31.493  14.368
37182W        W96927  12.852  43.788   2.852
37183W        W96928  32.570  15.680   3.830
37184W        W96929  21.039   9.648  10.552
37185W        W96930  43.300   6.340   3.765
37186W        W96931   0.391   2.834   3.798
37187W        W96932  24.117  19.571  13.516
37188W        W96933  35.935  24.183  14.447
37189W        W96934  27.001  30.600  14.947
37190W        W96935   6.217  10.227   1.808
37191W        W96936  43.009  41.478   3.316
37192W        W96937  10.138  28.014  11.415
37193W        W96938  27.159   7.238   0.333
37194W        W96939  25.607  41.921   0.774
37195W        W96940  31.535  22.733  14.514
37196W        W96941   7.319   8.675   3.192
37197W        W96942  40.029  41.918   0.255
37198W        W96943  38.476  41.369   4.756
37199W        W96944  32.124  40.317  13.325
37200W        W96945  25.667  39.342   2.863
37201W        W96946  22.598  40.383  12.914
37202W        W96947  15.817   6.238   3.338
37203W        W96948  19.213  40.438   4.230
37204W        W96949  31.445  12.184  12.395
37205W        W96950  18.708   8.762   1.855
37206W        W96951  17.067  41.902   2.382
37207W        W96952  33.904  31.620   4.692
37208W        W96953  24.650  20.686  11.387
37209W        W96954   7.171   7.831  11.976
37210W        W96955  24.655  25.674  14.332
37211W        W96956   5.849  12.153   2.256
37212W        W96957   3.216   4.797   3.802
37213W        W96958   1.407   8.175  12.827
37214W        W96959   6.829  21.674  11.612
37215W        W96960   8.807   7.352  12.933
37216W        W96961  26.126  25.519   4.680
37217W        W96962  29.931  31.514   4.334
37218W        W96963  12.646  12.724   0.336
37219W        W96964  39.941  27.594  11.557
37220W        W96965  31.136  17.785   1.315
37221W        W96966  22.244  14.197  13.867
37222W        W96967  10.792   9.213   0.831
37223W        W96968  22.608  40.043   4.297
37224W        W96969  42.010   2.307   1.392
37225W        W96970  44.918   3.751   1.773
37226W        W96971  11.178   5.925   1.237
37227W        W96972  12.798   7.272  12.534
37228W        W96973  41.858  27.597  13.993
37229W        W96974  32.008  15.669  12.556
37230W        W96975  17.283  33.399  12.523
37231W        W96976   7.756  29.645  12.092
37232W        W96977  24.164  29.172   2.795
37233W        W96978  36.007  39.318  14.371
37234W        W96979  20.062  26.550   3.318
37235W        W96980  40.449   9.753   4.340
37236W        W96981  40.050   8.658   4.704
37237W        W96982  27.182  44.898   2.826
37238W        W96983  16.813  13.133   3.693
37239W        W96984   4.906  29.449  12.475
37240W        W96985  34.537  14.805   2.352
37241W        W96986  29.109  28.516   0.779
37242W        W96987   3.294   2.370  13.490
37243W        W96988  28.942  15.636  12.339
37244W        W96989  23.088  26.502  12.505
37245W        W96990  25.637  11.212  13.894
37246W        W96991  26.510  33.915  11.600
37247W        W96992   3.287   4.348   0.420
37248W        W96993  24.084   3.809  10.626
37249W        W96994  40.923  32.553   3.152
37250W        W96995  18.707  14.725  11.057
37251W        W96996  44.851  18.641   9.580
37252W        W96997   1.777  21.104   9.540
37253W        W96998  25.106  36.481  13.389
37254W        W96999   0.750  32.637  11.883
37255W        W97000  23.718  26.625   1.250
37256W        W97001  36.568  32.983  12.442
37257W        W97002  21.658   4.377   3.817
37258W        W97003  38.859   8.738   4.177
37259W        W97004   4.281  18.791   1.264
37260W        W97005   6.898  23.705   1.842
37261W        W97006   4.413  19.656   5.138
37262W        W97007  10.143  42.523   4.264
37263W        W97008   1.445  33.880   5.313
37264W        W97009  33.936   1.413  13.925
37265W        W97010  20.231  16.236  12.378
37266W        W97011  32.933  27.991  13.402
37267W        W97012  41.323  43.893  11.588
37268W        W97013  16.289  12.266   2.264
37269W        W97014  10.676  22.577   2.186
37270W        W97015  30.522  16.706  13.379
37271W        W97016   2.907  43.323   1.248
37272W        W97017  18.778  35.996  12.490
37273W        W97018  38.403  38.452   3.361
37274W        W97019   1.749  12.350  12.532
37275W        W97020   6.863  32.504   3.352
37276W        W97021   4.283  27.510  11.562
37277W        W97022  40.847   2.384   1.291
37278W        W97023  17.221  32.476   2.679
37279W        W97024  14.670  22.238   0.351
37280W        W97025   9.188   7.861   2.375
37281W        W97026  14.681  42.784   1.901
37282W        W97027   8.356  34.967  14.845
37283W        W97028  24.155  43.348   1.260
37284W        W97029  24.697  25.122  13.849
37285W        W97030  33.060  24.682  11.432
37286W        W97031  12.846   9.706   1.799
37287W        W97032  19.063   4.845  11.044
37288W        W97033  40.392  20.720  11.942
37289W        W97034  18.295   6.247  14.385
37290W        W97035   8.231  14.153  13.915
37291W        W97036  29.504  37.474  14.913
37292W        W97037  37.012  29.971   4.691
37293W        W97038  36.886  16.292  14.992
37294W        W97039   3.321  21.652  11.598
37295W        W97040  37.419  35.389   1.427
37296W        W97041  29.117  21.567   0.390
37297W        W97042  28.993   4.728   0.761
37298W        W97043  17.603   4.788  10.019
37299W        W97044  14.762   6.683  13.534
37300W        W97045  29.012  40.864  13.021
37301W        W97046  32.546  14.205  13.944
37302W        W97047  36.352  19.686   4.323
37303W        W97048  28.160  28.960   4.180
37304W        W97049  11.653  18.772  13.939
37305W        W97050   8.870  17.776   1.781
37306W        W97051  24.500  19.199   1.843
37307W        W97052  37.900   8.398  11.966
37308W        W97053  13.621   5.245  13.929
37309W        W97054  28.134  34.431   2.241
37310W        W97055  15.762   8.364   3.317
37311W        W97056  31.905  23.012   2.254
37312W        W97057  33.431   3.397  11.955
37313W        W97058  44.797  28.001   9.545
37314W        W97059  23.564   2.890   1.810
37315W        W97060  17.156  17.729  12.428
37316W        W97061  25.502   6.874   4.599
37317W        W97062  23.008   0.819   3.346
37318W        W97063  40.423  29.552   2.304
37319W        W97064  30.924  35.084   3.362
37320W        W97065  39.472  15.704  11.600
37321W        W97066   8.663  13.705   4.824
37322W        W97067  30.452  43.344  11.516
37323W        W97068   2.377  34.443   0.736
37324W        W97069  32.527   8.654   0.745
37325W        W97070  22.221  38.356  13.941
37326W        W97071  30.414  26.485  14.944
37327W        W97072  22.108  36.419   0.883
37328W        W97073  39.315   4.796  12.006
37329W        W97074  41.306  41.483   2.233
37330W        W97075  24.001  20.152   0.877
37331W        W97076  29.174  30.075  14.421
37332W        W97077   8.399  27.564   1.825
37333W        W97078  17.636   6.888   1.832
37334W        W97079  14.792  33.990  11.510
37335W        W97080  36.528  16.802  14.510
37336W        W97081  23.729  10.801   3.742
37337W        W97082  24.067  14.591   3.828
37338W        W97083  40.889  19.760  10.985
37339W        W97084  27.507   2.434   2.889
37340W        W97085   0.806  25.593   4.135
37341W        W97086  22.119  25.158   2.779
37342W        W97087  18.664   7.398  10.599
37343W        W97088  36.007   9.361   4.349
37344W        W97089  33.045  42.987  14.506
37345W        W97090  38.501  14.818  14.365
37346W        W97091  41.423  31.636   0.260
37347W        W97092  22.649  26.673  11.864
37348W        W97093  32.493  12.677  14.833
37349W        W97094  13.105   4.734   4.744
37350W        W97095  14.170   2.957   4.298
37351W        W97096  31.031  16.127   0.367
37352W        W97097  44.887  43.003  11.467
37353W        W97098   6.345   2.423  13.037
37354W        W97099  28.062  20.084   1.744
37355W        W97100  26.647  11.643   5.232
37356W        W97101  42.361   3.827   0.429
37357W        W97102  42.802  27.673  10.984
37358W        W97103   8.675  36.372  11.956
37359W        W97104   1.797  36.062   4.193
37360W        W97105  41.470   0.259  14.493
37361W        W97106   2.390  36.854   1.803
37362W        W97107   5.932  38.515   2.383
37363W        W97108  27.987  43.918  10.559
37364W        W97109   3.324  17.164   1.390
37365W        W97110  21.607  37.077  13.422
37366W        W97111  38.839  16.075   1.840
37367W        W97112  31.596  42.415   3.265
37368W        W97113  20.115  24.051   3.759
37369W        W97114  33.394  10.645   2.236
37370W        W97115   9.248  41.383   0.786
37371W        W97116  44.449   8.226  14.868
37372W        W97117  19.284   0.381  14.307
37373W        W97118  38.350  11.325   2.678
37374W        W97119  11.285  33.567  14.899
37375W        W97120  30.021  24.044   4.681
37376W        W97121  15.688   1.248  12.577
37377W        W97122  35.942   6.841   0.903
37378W        W97123  26.659  11.245  11.030
37379W        W97124  42.486  15.739  14.291
37380W        W97125  19.265  30.060   4.659
37381W        W97126  24.625  26.521   1.444
37382W        W97127  23.714  37.369  10.117
37383W        W97128  39.532  26.670  13.507
37384W        W97129  28.675  14.787   3.690
37385W        W97130  26.050  41.992   0.896
37386W        W97131   2.369  31.037  14.811
37387W        W97132   3.735   8.733  10.970
37388W        W97133   4.303  27.142   1.317
37389W        W97134  18.243  43.777  11.581
37390W        W97135  41.526  42.498   4.603
37391W        W97136  36.964  13.628   3.210
37392W        W97137  39.858  37.834   4.725
37393W        W97138  11.731   6.352   4.147
37394W        W97139  38.433   8.313   1.318
37395W        W97140  28.462  15.643   1.912
37396W        W97141  29.973  22.580   2.343
37397W        W97142  30.010  12.160   1.399
37398W        W97143   0.955  28.046   4.212
37399W        W97144  41.447  36.540   1.775
37400W        W97145  21.541  30.468   1.396
37401W        W97146  10.696  36.376  12.367
37402W        W97147  42.802  21.699  14.341
37403W        W97148  37.357  34.089   2.291
37404W        W97149  34.030  44.009  13.961
37405W        W97150  16.687   9.856   0.294
37406W        W97151  13.190   8.795   1.771
37407W        W97152  30.508  36.531  12.046
37408W        W97153  25.087  11.339   1.284
37409W        W97154  17.763   8.819   4.179
37410W        W97155  20.236  26.597   4.652
37411W        W97156  25.987   4.306  12.451
37412W        W97157  24.603  22.203  13.879
37413W        W97158  25.981  23.698   1.279
37414W        W97159  43.436  17.273   1.886
37415W        W97160  14.252  12.343  12.963
37416W        W97161   8.818  11.209   0.806
37417W        W97162  23.190  31.646  14.918
37418W        W97163  22.564   7.840   4.698
37419W        W97164  42.379  33.417  11.936
37420W        W97165   0.354  44.293   0.908
37421W        W97166  28.982  38.440  11.461
37422W        W97167  21.134  25.171  11.597
37423W        W97168  39.357   1.868  10.422
37424W        W97169  24.523   8.861   1.376
37425W        W97170  41.919  17.690  11.592
37426W        W97171  35.863  13.610  10.503
37427W        W97172  11.668  20.718  11.978
37428W        W97173  32.919  38.860  13.891
37429W        W97174  40.485  20.253  12.883
37430W        W97175  35.071   3.955  13.843
37431W        W97176   7.342  30.121   1.248
37432W        W97177  10.298  14.290  12.387
37433W        W97178  39.856  10.858  14.946
37434W        W97179  14.237  42.430   0.793
37435W        W97180  27.570  34.594  13.013
37436W        W97181  43.312  28.576  14.470
37437W        W97182  21.748  22.518   3.262
37438W        W97183  35.002   2.757  10.522
37439W        W97184  21.121   8.208   3.170
37440W        W97185  40.462  13.812  10.943
37441W        W97186  11.241  25.495  13.048
37442W        W97187  34.979  39.999  14.466
37443W        W97188  39.410  24.480  10.901
37444W        W97189  27.674  27.032  12.579
37445W        W97190  28.598  40.835   2.834
37446W        W97191  13.126  10.795  12.077
37447W        W97192  30.462  13.125  11.889
37448W        W97193  16.777   7.296  13.858
37449W        W97194  25.119  34.036  11.376
37450W        W97195  26.543  41.518   4.813
37451W        W97196  14.633  10.772   0.760
37452W        W97197   0.432   6.392  13.309
37453W        W97198   1.875  39.870   3.208
37454W        W97199  21.633  43.385   3.831
37455W        W97200   7.411  15.730   3.303
37456W        W97201   2.957  14.780   1.806
37457W        W97202  28.459  16.125  11.455
37458W        W97203   2.398   1.785  11.496
37459W        W97204   9.739  21.205  10.614
37460W        W97205  24.720  19.131   2.805
37461W        W97206   0.338  32.008   3.647
37462W        W97207  14.827  32.903   1.818
37463W        W97208   4.247  40.010   1.731
37464W        W97209  40.937  13.164   2.404
37465W        W97210  13.198   5.839  12.053
37466W        W97211  38.528  34.051  14.870
37467W        W97212  34.879   4.750   3.366
37468W        W97213   3.926  30.604  11.515
37469W        W97214  39.399  15.707  13.903
37470W        W97215  35.001  25.102  14.020
37471W        W97216  28.540  34.924  13.993
37472W        W97217  19.120  37.026  11.097
37473W        W97218  25.566   4.724   2.240
37474W        W97219  42.512  29.549  11.962
37475W        W97220   6.776  18.084   3.787
37476W        W97221  41.804  18.761   0.386
37477W        W97222  42.920  33.602  13.854
37478W        W97223  40.912   0.288  12.990
37479W        W97224   3.758   1.359  13.333
37480W        W97225  24.151  23.113  12.080
37481W        W97226  15.199  36.522   1.217
37482W        W97227  40.362  44.297   2.230
37483W        W97228  35.063  41.538   2.835
37484W        W97229  44.311  19.143   2.404
37485W        W97230  11.170  16.283  10.538
37486W        W97231  11.130  40.437   0.459
37487W        W97232  17.269  37.986   4.330
37488W        W97233  10.145  11.240   9.976
37489W        W97234  21.240  42.012  12.987
37490W        W97235   0.489  42.514  10.453
37491W        W97236  43.475  31.416  14.309
37492W        W97237   8.747  24.135   2.676
37493W        W97238   7.207  37.944   1.841
37494W        W97239   6.187  35.447  10.619
37495W        W97240  35.526  16.608   2.696
37496W        W97241  39.346  20.746   2.256
37497W        W97242   9.253  19.545  13.898
37498W        W97243  18.699  44.273  10.933
37499W        W97244  20.756  40.834   3.825
37500W        W97245  26.009  18.210  13.872
37501W        W97246  17.658  26.506  14.024
37502W        W97247   1.885  34.877   2.899
37503W        W97248  29.996  42.307   4.156
37504W        W97249  11.759  17.781   1.372
37505W        W97250  21.189  14.312  11.969
37506W        W97251  29.102   5.278   5.271
37507W        W97252   7.908  17.135  14.284
37508W        W97253  27.682  42.856  11.859
37509W        W97254  39.065  33.896   4.640
37510W        W97255  37.010  29.488  12.378
37511W        W97256  13.157   6.238   3.158
37512W        W97257  30.534  42.029   4.316
37513W        W97258  37.067  30.986   3.821
37514W        W97259   6.314   3.865   4.123
37515W        W97260  32.929  41.035  14.007
37516W        W97261  37.428  10.183   1.886
37517W        W97262  15.325  33.498  13.987
37518W        W97263  32.393  43.914  13.962
37519W        W97264  19.771  14.659  13.346
37520W        W97265  35.083  12.798  10.974
37521W        W97266   0.799   3.226  11.552
37522W        W97267  10.339  30.658   5.282
37523W        W97268   5.799  39.012  10.625
37524W        W97269  36.462  16.802  10.447
37525W        W97270  12.140  31.502  14.886
37526W        W97271  16.293  44.824  12.067
37527W        W97272   9.387  38.952  14.806
37528W        W97273  18.290  31.474  12.914
37529W        W97274  39.371  20.742   1.796
37530W        W97275  11.144  38.439   3.332
37531W        W97276  24.520  31.639  13.509
37532W        W97277  34.544  13.181   2.418
37533W        W97278   7.245   8.768  14.778
37534W        W97279  43.937   8.308   3.678
37535W        W97280   2.387  32.126   2.760
37536W        W97281  43.002  27.645  10.641
37537W        W97282  14.606  19.149   2.294
37538W        W97283  43.289  43.862   4.207
37539W        W97284   9.255  18.559   2.250
37540W        W97285  42.527  23.161  11.088
37541W        W97286  32.516  41.487   2.347
37542W        W97287  14.678  22.526   5.217
37543W        W97288  23.566  36.389   4.737
37544W        W97289  12.830   2.809   4.353
37545W        W97290  18.112   6.389   2.871
37546W        W97291  34.502  39.364  14.912
37547W        W97292  26.465   8.402   1.862
37548W        W97293  14.784  36.987  12.918
37549W        W97294  37.052  44.370  12.356
37550W        W97295  40.334  21.102  12.913
37551W        W97296  14.724  40.038  13.837
37552W        W97297  35.597  17.295  12.026
37553W        W97298  27.999   3.422   3.343
37554W        W97299  20.685  14.674  10.914
37555W        W97300   3.802  24.549   0.264
37556W        W97301  11.628  27.524  11.980
37557W        W97302  31.591  18.660   0.818
37558W        W97303   2.821  25.164  13.522
37559W        W97304  15.815   9.749   2.185
37560W        W97305  24.563   6.192   3.808
37561W        W97306  42.280  25.070   3.276
37562W        W97307  23.988  17.226   2.311
37563W        W97308  34.876  22.651  12.453
37564W        W97309   2.464  41.850  14.793
37565W        W97310  38.929  15.695   4.659
37566W        W97311   4.434   8.832   2.839
37567W        W97312   5.247  44.480  13.528
37568W        W97313  30.131  41.313  11.610
37569W        W97314  13.727  38.852  10.624
37570W        W97315  21.192  37.371   2.764
37571W        W97316  29.594  38.407   0.748
37572W        W97317   1.831   7.709  12.475
37573W        W97318  30.420   2.322   4.307
37574W        W97319  41.001   3.899   3.708
37575W        W97320  41.855   1.743  11.597
37576W        W97321  39.949   9.747   1.223
37577W        W97322  17.607  40.850  14.376
37578W        W97323  19.228  40.905  14.277
37579W        W97324  12.246  32.526  13.891
37580W        W97325  24.131  22.152   2.321
37581W        W97326  14.817  44.812   3.770
37582W        W97327  42.818  25.151  11.994
37583W        W97328  27.029  15.205   1.357
37584W        W97329  22.730   4.246  14.510
37585W        W97330  10.331  33.940   2.308
37586W        W97331  40.947  21.746   2.690
37587W        W97332  38.035  19.539   4.204
37588W        W97333   9.735  15.146  11.879
37589W        W97334  18.689   2.830  14.288
37590W        W97335  11.313   9.341   0.923
37591W        W97336   5.329  34.085  14.501
37592W        W97337  13.722  32.569  12.090
37593W        W97338  10.784  33.045  14.296
37594W        W97339  18.113  35.081  14.813
37595W        W97340   3.435  40.548  11.518
37596W        W97341  21.032  25.535   4.211
37597W        W97342  29.147   8.682   4.150
37598W        W97343   5.393  31.964   4.678
37599W        W97344  10.790  37.443  11.585
37600W        W97345  17.188   7.394   1.344
37601W        W97346  16.225  19.632   2.388
37602W        W97347  33.079   4.442  12.473
37603W        W97348  28.581   3.922  14.006
37604W        W97349  35.526  34.586   3.698
37605W        W97350  24.152   9.860  14.903
37606W        W97351  38.355  29.578   2.411
37607W        W97352  13.831  44.006   0.729
37608W        W97353   6.352  35.027   0.802
37609W        W97354  42.843   1.745   4.838
37610W        W97355  16.623  35.036  10.044
37611W        W97356   0.891  21.207   3.180
37612W        W97357  44.777  41.988   2.380
37613W        W97358  15.719  19.106  12.027
37614W        W97359  37.831  27.460   2.853
37615W        W97360  16.726  32.021   4.132
37616W        W97361  30.951   2.935  13.963
37617W        W97362   4.377  15.783   2.783
37618W        W97363  16.264  44.346  10.627
37619W        W97364  10.243  25.490   3.193
37620W        W97365   9.837  39.882  11.053
37621W        W97366  44.261   6.357   2.832
37622W        W97367  27.632  21.066   0.397
37623W        W97368  35.083  17.283  11.460
37624W        W97369  15.744  29.941   0.300
37625W        W97370   0.339  10.261  12.543
37626W        W97371  36.565  35.444  11.863
37627W        W97372  28.130  26.156   2.855
37628W        W97373  19.616  22.531  12.911
37629W        W97374  17.673  37.956  11.417
37630W        W97375  39.396  12.787   4.280
37631W        W97376  13.125  20.262  12.067
37632W        W97377  33.985   3.862  13.375
37633W        W97378  31.921  34.998   4.143
37634W        W97379  16.172  36.472   0.479
37635W        W97380  24.722  14.648  13.040
37636W        W97381  26.152   6.276   0.417
37637W        W97382   9.771  31.909   1.926
37638W        W97383  10.254  28.023  13.436
37639W        W97384  36.445  25.163   1.322
37640W        W97385  16.148   2.756  10.977
37641W        W97386  26.981   0.879  14.458
37642W        W97387  10.181  42.436   1.235
37643W        W97388  19.158  44.393   4.128
37644W        W97389  34.566  41.876  11.561
37645W        W97390   3.449  33.888  13.445
37646W        W97391  33.433   1.833   4.276
37647W        W97392  10.660  14.612  11.097
37648W        W97393  43.828  34.057  10.600
37649W        W97394   1.429  38.992  11.890
37650W        W97395  28.537  31.470   0.477
37651W        W97396  19.745  19.548   2.738
37652W        W97397  20.583   6.900  13.002
37653W        W97398   6.290  26.038  11.427
37654W        W97399  32.520   7.239   4.619
37655W        W97400   1.304  24.481  14.009
37656W        W97401  44.317  40.985   1.389
37657W        W97402  16.619   6.906   4.230
37658W        W97403   1.734  32.468  11.991
37659W        W97404  32.570   2.737   2.331
37660W        W97405  17.129  21.038   2.805
37661W        W97406  10.343  42.997  11.109
37662W        W97407  28.122   4.866   3.216
37663W        W97408  15.823  20.163   2.805
37664W        W97409   0.928  24.613   2.352
37665W        W97410  20.252  40.406   0.769
37666W        W97411  25.009  31.133  12.975
37667W        W97412   4.292  18.054   0.889
37668W        W97413  19.230  24.222   1.927
37669W        W97414  42.324  20.134  12.038
37670W        W97415  20.552  23.707   3.803
37671W        W97416   5.821  30.441   2.837
37672W        W97417  19.152  35.998   0.407
37673W        W97418  10.358   2.854  12.469
37674W        W97419  38.371  14.808  10.975
37675W        W97420  10.160   0.294  12.981
37676W        W97421  13.243  31.069   2.738
37677W        W97422   0.841   7.895   3.249
37678W        W97423  43.472  38.073  10.440
37679W        W97424  21.217  30.948   4.290
37680W        W97425  33.918  41.345  13.945
37681W        W97426  30.057   9.696   4.171
37682W        W97427   9.885   2.233   3.206
37683W        W97428   9.153   8.246   0.803
37684W        W97429   3.895  32.003  12.389
37685W        W97430  31.074   8.280   3.790
37686W        W97431  12.182  20.632   0.347
37687W        W97432  42.443  41.003   2.665
37688W        W97433  41.428  30.019  12.858
37689W        W97434  30.082  10.663   2.195
37690W        W97435   5.264  20.687   2.812
37691W        W97436  37.972  30.164   2.796
37692W        W97437   6.777  10.796  12.909
37693W        W97438  36.905  31.533  10.643
37694W        W97439  43.466  14.656  13.476
37695W        W97440  19.049   3.856  11.390
37696W        W97441  27.613  41.515  14.807
37697W        W97442   5.874  35.407  10.545
37698W        W97443   1.455   1.959  12.403
37699W        W97444  32.415  12.140  13.543
37700W        W97445   6.402  12.668   1.370
37701W        W97446  32.576  11.337   3.163
37702W        W97447  41.304  33.057   4.346
37703W        W97448  29.991  12.348  11.044
37704W        W97449   5.860   4.429   4.265
37705W        W97450  38.858  29.454  14.325
37706W        W97451   4.942  26.104   1.329
37707W        W97452  13.189  32.135   3.786
37708W        W97453   1.976  40.938  13.812
37709W        W97454  24.192  41.804  10.639
37710W        W97455  41.429   7.834  11.430
37711W        W97456  22.174  30.133   1.864
37712W        W97457  28.564   0.480  13.981
37713W        W97458  19.723  34.528  14.451
37714W        W97459  40.930  20.201  13.970
37715W        W97460  22.198  21.617  14.403
37716W        W97461   4.382  24.206  12.969
37717W        W97462  16.792  29.103  14.383
37718W        W97463  21.549  42.938  11.481
37719W        W97464  34.960  20.640   0.410
37720W        W97465  22.197   1.825   3.327
37721W        W97466   1.468  23.535  11.397
37722W        W97467   8.183  24.706  12.448
37723W        W97468  26.507  14.640  14.027
37724W        W97469  34.392  20.685   3.147
37725W        W97470  17.276  39.016  10.075
37726W        W97471  30.155   2.746  13.954
37727W        W97472  32.945  39.550  11.092
37728W        W97473  11.270  36.047  13.985
37729W        W97474  18.710  18.759  11.563
37730W        W97475  16.210  21.054   1.425
37731W        W97476   7.356   5.808  13.893
37732W        W97477  25.970  42.845  12.445
37733W        W97478  10.772  28.134  11.118
37734W        W97479   4.302  43.905  14.456
37735W        W97480   1.897  14.693  12.944
37736W        W97481  32.954  12.137  14.353
37737W        W97482  14.625  14.262   4.318
37738W        W97483  38.062  41.942   2.416
37739W        W97484  10.366  23.240  14.811
37740W        W97485   2.888   0.330  13.920
37741W        W97486   2.296  34.079   3.156
37742W        W97487  21.175   3.254  11.542
37743W        W97488  40.494  25.151   5.320
37744W        W97489  43.801   9.835   0.880
37745W        W97490  28.561  23.646  12.886
37746W        W97491  29.536  19.046   5.213
37747W        W97492  12.744  38.026   0.875
37748W        W97493  40.836  14.727  12.374
37749W        W97494  11.826   6.889  13.878
37750W        W97495  15.681  35.100   3.160
37751W        W97496  22.535   2.404  12.536
37752W        W97497  20.599  10.828   2.810
37753W        W97498  16.679  12.175  13.939
37754W        W97499  28.095  40.375  11.107
37755W        W97500  30.608  18.148  11.962
37756W        W97501  33.897  27.646  10.136
37757W        W97502  42.944  19.655   1.386
37758W        W97503  29.602  42.360  14.369
37759W        W97504  28.030  19.536   4.620
37760W        W97505  16.693  34.597   4.122
37761W        W97506  12.700  36.987  10.056
37762W        W97507  41.396  22.647   0.311
37763W        W97508  31.490  34.455  13.375
37764W        W97509  16.151   0.428   1.221
37765W        W97510  16.697  36.884  10.541
37766W        W97511  44.886   7.374  14.801
37767W        W97512   8.228  28.094  13.393
37768W        W97513  22.217  33.100   2.182
37769W        W97514  43.453  35.587  13.523
37770W        W97515  30.654  38.931  12.537
37771W        W97516  29.004   4.220   3.262
37772W        W97517   3.339  23.625  10.551
37773W        W97518  18.641  35.542   2.870
37774W        W97519  20.655   4.375   2.748
37775W        W97520  33.886  27.564  12.094
37776W        W97521  19.685   3.428   0.808
37777W        W97522  11.785  39.815  11.418
37778W        W97523  23.997  44.290  14.009
37779W        W97524   1.933  23.603  10.540
37780W        W97525  11.250  10.217   1.313
37781W        W97526  19.764  42.958  11.535
37782W        W97527  41.480  32.975   3.678
37783W        W97528  10.149  13.737   2.735
37784W        W97529  18.283  11.786  14.289
37785W        W97530  34.612  21.234   3.850
37786W        W97531  14.631  41.400   0.354
37787W        W97532  34.866  36.044  13.793
37788W        W97533  23.096  36.445   1.794
37789W        W97534  21.533  10.709  14.942
37790W        W97535   9.870  16.751  12.568
37791W        W97536  35.486  26.531   5.320
37792W        W97537  18.743  41.829   3.372
37793W        W97538   8.756  14.200  12.009
37794W        W97539  18.590  28.507   2.392
37795W        W97540  11.192  29.106   1.856
37796W        W97541   9.181  19.603   1.860
37797W        W97542  34.120  10.237  10.638
37798W        W97543  13.244   3.319  11.893
37799W        W97544  26.978   3.326  12.008
37800W        W97545  37.430  42.960  13.448
37801W        W97546   4.368  18.236   4.198
37802W        W97547  38.883  38.974   2.249
37803W        W97548  11.787  40.314   1.737
37804W        W97549  37.927  20.564  11.080
37805W        W97550  17.099  36.850   4.761
37806W        W97551  36.042  10.212   3.357
37807W        W97552  16.305  13.162  13.979
37808W        W97553  12.129  37.070   1.899
37809W        W97554   6.700  33.112  10.436
37810W        W97555  21.257  29.133  12.454
37811W        W97556  38.989   1.473  13.426
37812W        W97557   0.394  26.628  14.275
37813W        W97558  11.202   0.324   4.605
37814W        W97559  27.145  33.467   1.379
37815W        W97560  24.503  41.891  14.503
37816W        W97561  44.803  10.303   0.276
37817W        W97562  32.444  24.111   1.394
37818W        W97563  33.396  37.871   2.737
37819W        W97564  18.657  19.184  10.549
37820W        W97565  40.848  43.398  14.779
37821W        W97566  43.503   1.954   1.406
37822W        W97567  12.300   6.792   0.967
37823W        W97568   5.699  17.283   1.433
37824W        W97569  33.038  36.964   0.782
37825W        W97570  44.270  27.166   4.668
37826W        W97571   9.766  38.895   3.207
37827W        W97572  39.968  36.591   4.230
37828W        W97573   9.682  33.007   1.888
37829W        W97574  22.159  39.829  10.921
37830W        W97575   8.811  34.018   1.832
37831W        W97576   7.799  26.531  14.870
37832W        W97577  14.153   1.482  12.415
37833W        W97578  35.017  20.112   9.960
37834W        W97579  20.636  21.149  10.589
37835W        W97580  16.116  32.134   0.809
37836W        W97581  36.038  31.485   0.350
37837W        W97582   2.816  34.109  11.427
37838W        W97583  41.371  42.368  10.620
37839W        W97584  41.850   8.783   5.261
37840W        W97585   1.899  17.781  11.563
37841W        W97586  10.300  27.031   4.688
37842W        W97587   6.765  20.065   2.858
37843W        W97588  41.981  16.575   1.303
37844W        W97589  42.791  24.055  11.552
37845W        W97590  19.084  24.529  11.017
37846W        W97591  43.838  27.140   0.898
37847W        W97592  19.143  16.237   0.313
37848W        W97593   0.826  19.764  13.482
37849W        W97594  23.052  30.529   1.351
37850W        W97595  15.281  24.174   0.959
37851W        W97596   1.846  41.393  13.384
37852W        W97597  10.669  25.045  14.487
37853W        W97598   2.318  38.445  13.387
37854W        W97599   3.431  28.072  11.440
37855W        W97600  40.547  15.244   4.832
37856W        W97601  10.752  13.298  10.999
37857W        W97602  37.972   9.812   0.363
37858W        W97603  24.519   8.785   3.822
37859W        W97604  29.543  22.591  12.365
37860W        W97605  42.305   8.400  13.529
37861W        W97606  38.032  29.424   1.277
37862W        W97607  27.956  10.760   0.298
37863W        W97608  19.607  35.097  11.072
37864W        W97609  35.064   2.261  12.922
37865W        W97610  29.920  10.257  11.884
37866W        W97611  28.045   5.429   2.342
37867W        W97612  13.116  19.745  11.375
37868W        W97613  43.953   0.345   4.316
37869W        W97614  12.801  28.482   3.229
37870W        W97615  32.074   4.239   1.425
37871W        W97616  14.823  35.970   3.257
37872W        W97617  32.908  30.479  12.390
37873W        W97618  14.108  16.189  11.444
37874W        W97619  19.180  39.371   0.967
37875W        W97620   9.878  23.692   3.810
37876W        W97621  41.869   4.327   4.126
37877W        W97622   6.750   0.932   1.232
37878W        W97623  33.122  28.644  12.829
37879W        W97624   0.957  37.480  13.512
37880W        W97625  10.159  37.496  14.843
37881W        W97626  34.891  38.330   0.350
37882W        W97627  16.605  38.491   3.799
37883W        W97628   6.683  27.030   3.283
37884W        W97629  20.594  39.981  14.912
37885W        W97630  30.438  16.773  10.607
37886W        W97631  22.138  43.964  11.499
37887W        W97632   7.202  23.038   1.875
37888W        W97633   9.855  40.894  14.030
37889W        W97634  31.968  40.493   4.187
37890W        W97635  19.715   9.336   4.708
37891W        W97636  14.735  41.956  13.054
37892W        W97637  24.082  25.154  14.922
37893W        W97638  40.046  13.302  11.427
37894W        W97639   3.330  21.026  13.311
37895W        W97640  42.021  13.758   0.847
37896W        W97641  30.074  21.719  11.469
37897W        W97642   6.333  13.627   1.379
37898W        W97643  21.145  18.207   3.713
37899W        W97644  34.953   7.230  10.974
37900W        W97645  31.461  18.085   3.364
37901W        W97646  28.494  12.817   4.113
37902W        W97647  29.977   4.305  12.419
37903W        W97648  16.730  31.642  14.030
37904W        W97649  12.670  28.556  13.872
37905W        W97650  42.867   0.957   3.792
37906W        W97651  35.467  19.544   3.783
37907W        W97652   3.404  42.840  12.925
37908W        W97653  25.516  17.568  14.399
37909W        W97654  26.543   3.389  10.413
37910W        W97655  28.532  12.317  10.937
37911W        W97656  27.611   3.242  14.027
37912W        W97657  19.075  43.871   0.285
37913W        W97658  31.109   5.894   5.218
37914W        W97659  12.670  40.898  14.916
37915W        W97660  36.428  35.096   9.987
37916W        W97661  13.791  29.070  11.551
37917W        W97662  19.731  43.458   2.844
37918W        W97663   7.398  33.537   4.655
37919W        W97664   7.866  23.646   4.606
37920W        W97665  44.327  29.510   0.420
37921W        W97666  16.084  42.025   1.240
37922W        W97667  16.712  25.973  14.864
37923W        W97668  15.157  34.989  14.997
37924W        W97669  16.770  43.368  11.088
37925W        W97670  14.201  13.723  14.839
37926W        W97671  43.404  32.986   4.642
37927W        W97672  21.117  23.206   5.221
37928W        W97673  31.441  17.130   0.468
37929W        W97674  36.974   8.175   3.236
37930W        W97675  29.153   2.432   1.728
37931W        W97676  43.995   5.202   3.634
37932W        W97677   0.884  16.716   4.612
37933W        W97678   1.429   2.423   3.368
37934W        W97679  29.986  18.177   1.239
37935W        W97680  13.706  26.633   4.317
37936W        W97681  11.696  22.244   1.337
37937W        W97682  19.666  14.607  14.441
37938W        W97683   6.738  11.751   1.410
37939W        W97684   2.741  19.747   5.298
37940W        W97685  17.637  17.268  13.967
37941W        W97686  17.776  23.701  14.786
37942W        W97687   9.235  18.634   4.352
37943W        W97688  31.461  33.587   0.288
37944W        W97689  17.150  44.965  11.374
37945W        W97690  23.500  40.448   0.919
37946W        W97691  37.066  34.390  12.527
37947W        W97692  42.979  24.132   3.634
37948W        W97693  33.490  33.129   0.948
37949W        W97694  16.781   1.960   4.291
37950W        W97695   6.304  19.559  12.508
37951W        W97696  31.584   7.809  11.008
37952W        W97697  23.136  44.343  12.346
37953W        W97698   0.396  38.993   2.248
37954W        W97699  39.442  13.691   1.725
37955W        W97700  26.063  31.148   5.297
37956W        W97701  13.711  19.587  13.002
37957W        W97702  26.668   8.344  14.446
37958W        W97703   9.693  30.526   3.382
37959W        W97704   7.364  27.168   4.754
37960W        W97705   1.430  28.086  11.040
37961W        W97706  23.240  35.390   2.662
37962W        W97707  15.594   3.361  13.915
37963W        W97708  33.892  13.707   4.601
37964W        W97709  29.523  31.446   3.810
37965W        W97710  43.487   7.680  10.501
37966W        W97711  26.608   7.794   0.282
37967W        W97712  30.157   8.808   2.750
37968W        W97713  35.502  14.098   2.277
37969W        W97714  33.055   4.806  11.552
37970W        W97715  43.979  19.535  13.029
37971W        W97716   3.273   9.217   1.310
37972W        W97717  16.173  34.989  11.469
37973W        W97718  40.386  28.650  12.835
37974W        W97719  33.911  35.555   4.619
37975W        W97720   9.870  37.994  13.416
37976W        W97721   7.753  31.984  13.985
37977W        W97722  44.902   5.198   2.803
37978W        W97723  12.271  38.449   0.960
37979W        W97724  18.117  41.895  11.538
37980W        W97725  39.064   4.738   5.289
37981W        W97726  17.107  23.542   2.229
37982W        W97727  34.962  41.904  10.524
37983W        W97728  26.188  13.634   0.740
37984W        W97729  24.684  18.599   3.782
37985W        W97730  17.800   8.886  11.906
37986W        W97731   5.302  33.045   4.198
37987W        W97732  18.205   1.276   2.188
37988W        W97733   3.721  22.045   3.812
37989W        W97734  21.165  27.167   4.232
37990W        W97735  43.501   1.257   4.315
37991W        W97736   5.286  14.213   3.151
37992W        W97737  36.575   8.349  10.889
37993W        W97738  34.065  27.536   0.965
37994W        W97739  22.044  27.061   2.387
37995W        W97740  41.979  34.076   0.314
37996W        W97741   9.257   7.681  14.332
37997W        W97742  31.549  29.625   0.419
37998W        W97743  11.296  34.000   3.184
37999W        W97744  22.197  37.525  14.779
38000W        W97745  16.291  14.787  11.105
38001W        W97746   3.757  13.695   1.332
38002W        W97747  44.454  33.030   1.919
38003W        W97748   1.762  34.461  10.434
38004W        W97749   7.852  39.473  13.426
38005W        W97750   6.216  37.072   3.361
38006W        W97751  10.323   7.901   2.331
38007W        W97752  33.926  34.897   3.350
38008W        W97753  29.572  21.653  10.928
38009W        W97754  37.966  14.108  11.004
38010W        W97755  43.453   1.886   3.339
38011W        W97756  21.246  36.360  13.376
38012W        W97757  42.799  11.282   2.841
38013W        W97758  43.952  18.682   0.479
38014W        W97759   2.277  21.758   1.823
38015W        W97760  11.663  13.601  12.838
38016W        W97761   5.744  21.527   3.777
38017W        W97762  35.552   1.458  13.844
38018W        W97763   0.762  39.491  12.955
38019W        W97764  20.125   0.342   1.722
38020W        W97765  19.677  33.888  11.096
38021W        W97766  26.988  12.806  12.482
38022W        W97767  21.230   7.702  12.379
38023W        W97768  23.125  16.270   2.394
38024W        W97769   8.322  20.706   1.809
38025W        W97770  38.413   1.808   1.278
38026W        W97771  20.125   5.362  12.902
38027W        W97772  35.009  23.673   1.211
38028W        W97773   5.211  16.301  10.921
38029W        W97774   9.235   3.244   1.246
38030W        W97775  20.127   3.787   4.817
38031W        W97776  26.478  41.315   4.333
38032W        W97777  30.505  30.651  12.386
38033W        W97778   6.314  13.700  13.543
38034W        W97779   0.784  30.557  11.556
38035W        W97780  43.466  27.170  13.489
38036W        W97781  43.300  15.231  10.966
38037W        W97782  37.414   1.956  11.452
38038W        W97783   4.710  11.727  10.981
38039W        W97784  31.508   5.427   0.242
38040W        W97785  18.185  16.241  14.511
38041W        W97786   4.722  34.878   5.229
38042W        W97787  18.104  21.733  11.416
38043W        W97788  36.870   6.333  11.541
38044W        W97789  19.649  29.111  10.421
38045W        W97790  28.978   7.202  10.543
38046W        W97791  17.294  39.497  10.603
38047W        W97792   3.721  10.257   4.146
38048W        W97793  31.482   5.919   4.602
38049W        W97794  33.603  39.945  12.887
38050W        W97795  41.513  25.605  10.538
38051W        W97796  22.555   3.926  14.905
38052W        W97797   7.346  23.594   0.283
38053W        W97798  27.571  23.728   1.853
38054W        W97799  25.049  34.478  12.418
38055W        W97800  12.144  16.232   1.784
38056W        W97801  33.952  35.913   1.854
38057W        W97802  27.524  31.644  11.874
38058W        W97803  17.204  36.924  12.446
38059W        W97804  14.271  29.447   2.901
38060W        W97805  26.015  22.184  13.008
38061W        W97806  28.077  33.574  12.351
38062W        W97807   1.964  40.465   2.875
38063W        W97808  38.417  21.756  10.608
38064W        W97809  11.331  22.547   1.312
38065W        W97810  13.246   0.283  11.557
38066W        W97811  22.024  16.615  11.113
38067W        W97812  30.644   7.183  11.857
38068W        W97813  36.457  28.071  10.471
38069W        W97814  25.969   1.431  13.339
38070W        W97815   3.755  43.975  10.621
38071W        W97816  32.964  20.183  12.994
38072W        W97817  32.620  27.985  11.516
38073W        W97818  24.687  29.493   2.691
38074W        W97819  36.486  34.951   2.192
38075W        W97820  30.470   6.900   2.353
38076W        W97821  42.340  18.584  13.035
38077W        W97822   4.891  33.515  14.414
38078W        W97823  23.597  24.555   1.709
38079W        W97824   3.739  31.530   2.418
38080W        W97825   1.419  10.246   4.212
38081W        W97826   4.740   6.388   1.349
38082W        W97827  13.607  28.656  13.986
38083W        W97828  22.124  28.578   2.206
38084W        W97829  24.677  16.228  14.904
38085W        W97830  16.598   3.848  10.565
38086W        W97831  10.861  42.934  14.950
38087W        W97832  23.513   0.958  13.465
38088W        W97833  39.994   5.266   1.318
38089W        W97834  24.488  11.739   1.745
38090W        W97835  30.957   4.764   0.280
38091W        W97836  42.357  10.754  13.841
38092W        W97837  11.313  43.394  11.926
38093W        W97838   4.747  44.765  11.608
38094W        W97839   5.260  13.600  14.295
38095W        W97840  15.629  11.691  14.308
38096W        W97841  30.122  13.611  13.410
38097W        W97842  24.597   1.885  10.477
38098W        W97843  42.900  18.609  12.889
38099W        W97844  11.226  38.991  14.884
38100W        W97845   4.371  31.106  12.430
38101W        W97846  15.141  38.549  11.459
38102W        W97847   3.225  44.503  10.644
38103W        W97848  36.958  44.862  13.824
38104W        W97849  40.368  18.079   4.752
38105W        W97850  11.720   1.844   4.335
38106W        W97851  41.934  30.647   3.811
38107W        W97852  25.004  23.503  12.342
38108W        W97853  21.641  18.081  10.947
38109W        W97854  20.630   1.276   2.852
38110W        W97855  22.508  18.175  12.453
38111W        W97856   4.372  25.603   1.897
38112W        W97857  15.749  38.421   2.663
38113W        W97858  28.526  17.589  14.282
38114W        W97859  26.488  14.254  14.004
38115W        W97860  33.410  33.506   3.640
38116W        W97861   2.228  43.800   0.459
38117W        W97862   2.824  24.694  12.905
38118W        W97863  33.885   6.850   4.147
38119W        W97864  26.581  41.845   0.848
38120W        W97865  26.176   2.228  11.543
38121W        W97866  24.176  31.580   3.327
38122W        W97867   4.261  20.606  14.299
38123W        W97868  11.142   6.796   4.118
38124W        W97869  29.648   2.835  14.357
38125W        W97870  28.073  28.027   1.700
38126W        W97871  12.343  14.175   1.879
38127W        W97872  34.600  26.191  11.565
38128W        W97873  35.586  38.832  13.370
38129W        W97874  16.100  36.866  13.458
38130W        W97875   4.348  16.124   1.722
38131W        W97876  20.065  13.812  14.859
38132W        W97877  27.455  11.715   1.918
38133W        W97878  40.927   2.258   2.729
38134W        W97879  12.651   9.150   2.369
38135W        W97880  33.451  27.012  12.986
38136W        W97881  26.699  40.384  10.500
38137W        W97882  18.218  10.170   3.342
38138W        W97883  41.426  26.081   3.288
38139W        W97884  42.872  23.041   1.439
38140W        W97885  41.898  39.949  11.505
38141W        W97886  36.433  13.793  14.365
38142W        W97887  34.062  44.968  14.289
38143W        W97888  20.051  28.992  14.960
38144W        W97889  22.650   2.772  13.023
38145W        W97890  11.678   5.397  13.523
38146W        W97891  11.768  15.153  11.526
38147W        W97892  25.677  40.029   1.843
38148W        W97893  36.558  42.920  12.028
38149W        W97894  27.617  41.920   2.870
38150W        W97895  24.547  19.267   3.685
38151W        W97896  11.789  24.165   4.710
38152W        W97897  28.616  32.915   4.192
38153W        W97898  12.800  17.171   1.711
38154W        W97899  38.348  37.415  14.284
38155W        W97900  30.623  44.311  10.525
38156W        W97901   0.483  30.455   1.443
38157W        W97902  22.683  39.517   2.217
38158W        W97903  30.482   2.878   2.681
38159W        W97904   7.904  25.049  11.035
38160W        W97905  10.879  21.650   1.836
38161W        W97906  30.049  31.092   1.299
38162W        W97907  39.484   5.923  11.016
38163W        W97908   0.982   6.256   2.224
38164W        W97909  40.894  17.114  13.524
38165W        W97910  12.620  37.035   1.377
38166W        W97911  23.625  21.541  11.000
38167W        W97912  31.958  31.494  14.461
38168W        W97913  16.182  40.040   3.691
38169W        W97914   2.723  29.487  12.545
38170W        W97915  16.201  30.946   2.181
38171W        W97916  15.797  37.054   0.829
38172W        W97917  11.623  27.966  13.994
38173W        W97918  26.703   5.839   2.751
38174W        W97919   9.295  40.371   0.291
38175W        W97920  29.570   2.740   0.378
38176W        W97921   9.647  40.027   2.322
38177W        W97922  18.209  37.522   4.124
38178W        W97923  21.727   2.315  10.102
38179W        W97924   1.783  14.625   1.264
38180W        W97925   3.395  44.261  14.346
38181W        W97926  44.410  17.266   4.632
38182W        W97927  12.812  27.071  13.934
38183W        W97928  35.516  38.916   3.343
38184W        W97929  19.239  33.558   4.769
38185W        W97930  25.125   4.893  13.995
38186W        W97931  24.614  22.683   1.287
38187W        W97932  23.998  17.659   5.319
38188W        W97933  34.473  15.130   4.230
38189W        W97934  15.587   8.400  14.929
38190W        W97935   4.920  33.487  13.411
38191W        W97936  18.145  14.815   4.136
38192W        W97937  15.303   2.841  14.360
38193W        W97938   0.898   5.283   0.963
38194W        W97939  39.839  42.464   0.828
38195W        W97940  33.479  44.408   3.671
38196W        W97941  43.996  16.202  10.635
38197W        W97942   7.342  33.036  13.360
38198W        W97943   4.884  10.805  10.645
38199W        W97944  37.038  16.800   4.618
38200W        W97945  15.162  17.272  13.983
38201W        W97946   0.834  43.410  11.548
38202W        W97947   5.248  13.601  13.381
38203W        W97948  11.231  20.109  11.873
38204W        W97949   8.250  24.564   3.245
38205W        W97950  24.980  13.807  11.115
38206W        W97951  35.056   1.404  12.942
38207W        W97952  36.508   5.840   0.798
38208W        W97953  30.656  27.182   3.195
38209W        W97954  14.799  12.357  11.089
38210W        W97955  38.413   8.371   3.369
38211W        W97956  20.660  11.656   4.769
38212W        W97957  32.549   5.871  13.448
38213W        W97958  38.335  26.134  13.474
38214W        W97959  35.566  35.412  11.013
38215W        W97960  12.322  30.915   4.260
38216W        W97961  42.935  13.176  12.389
38217W        W97962   2.904  13.306   4.272
38218W        W97963   1.825  32.632  11.531
38219W        W97964  29.027   6.698  13.330
38220W        W97965   0.813  43.373  10.452
38221W        W97966   4.205  22.580   0.403
38222W        W97967  22.582   9.692   0.318
38223W        W97968  43.849  44.505   2.781
38224W        W97969  38.850   4.923   4.723
38225W        W97970  17.203  14.278   5.209
38226W        W97971  15.683   5.752   3.855
38227W        W97972  39.406  10.765  13.504
38228W        W97973  35.470  39.066   3.764
38229W        W97974  39.522  22.598   1.296
38230W        W97975  20.709  20.196   3.822
38231W        W97976   6.728  12.644   3.316
38232W        W97977  40.338  14.706  14.400
38233W        W97978  16.653  41.374   0.325
38234W        W97979   8.733  41.960   2.806
38235W        W97980  12.179  10.727  10.962
38236W        W97981  16.769   4.920   2.182
38237W        W97982  44.763   8.240  13.316
38238W        W97983  19.736  25.706   0.806
38239W        W97984  18.691  34.012  12.927
38240W        W97985  31.582  24.546   3.762
38241W        W97986  15.233   0.786  10.916
38242W        W97987  41.369  23.573   4.137
38243W        W97988  44.964  38.887  10.542
38244W        W97989   3.738  44.384  13.384
38245W        W97990  23.570   3.941  12.459
38246W        W97991  10.228  41.526  14.020
38247W        W97992  29.148   2.939   3.306
38248W        W97993   5.853  40.031   0.363
38249W        W97994   0.899  22.095  11.023
38250W        W97995   1.348  16.194   1.827
38251W        W97996  44.386   0.325  12.453
38252W        W97997   1.819  35.445  14.824
38253W        W97998   8.679  38.035   1.332
38254W        W97999  40.517  23.633  12.833
38255W        W98000   9.262  35.062   3.172
38256W        W98001  37.970  22.538  12.902
38257W        W98002  31.942  16.303  13.981
38258W        W98003  39.024  33.115  10.604
38259W        W98004   4.905  28.500   4.118
38260W        W98005   7.852  44.780  11.897
38261W        W98006  42.869   6.797   3.374
38262W        W98007  22.221  44.462  14.939
38263W        W98008  34.387  24.589  10.431
38264W        W98009  39.945  29.985   3.367
38265W        W98010  38.021  13.737   3.218
38266W        W98011  44.887  35.503   1.739
38267W        W98012  38.003   4.346  14.318
38268W        W98013  44.768  16.178   4.218
38269W        W98014  42.788  15.763  10.482
38270W        W98015  24.979  26.603  10.606
38271W        W98016  14.827  24.646  12.087
38272W        W98017   5.827  17.148  14.390
38273W        W98018  25.661  25.158  11.986
38274W        W98019  18.571  15.632  12.903
38275W        W98020  34.591  39.978  11.118
38276W        W98021   9.267  19.092   2.873
38277W        W98022  31.898  25.148  11.584
38278W        W98023   0.269  39.437  13.324
38279W        W98024  42.298  31.599   2.202
38280W        W98025  33.427  15.621   4.645
38281W        W98026   2.243   7.176  12.528
38282W        W98027  18.143  39.435  12.433
38283W        W98028  20.058  37.368  14.941
38284W        W98029  22.506   3.225  12.977
38285W        W98030  29.046  14.241   2.871
38286W        W98031  44.486  19.155   3.655
38287W        W98032   7.819  11.150   2.725
38288W        W98033   7.412  42.298  10.406
38289W        W98034   3.383  31.029  12.339
38290W        W98035  25.547  41.039  13.447
38291W        W98036  19.089   0.905  12.093
38292W        W98037  22.717  38.354  13.382
38293W        W98038   9.321  21.618   3.343
38294W        W98039  18.706  21.222   2.825
38295W        W98040  27.647  30.504  11.066
38296W        W98041  29.986  44.381   1.361
38297W        W98042  27.504  43.349  10.465
38298W        W98043  27.999  36.951   3.180
38299W        W98044  19.540   7.793  11.375
38300W        W98045  10.291   3.236  13.022
38301W        W98046  36.872  42.883  12.517
38302W        W98047  11.264  40.332   1.695
38303W        W98048  40.310   0.861  12.390
38304W        W98049  22.100  10.363   0.477
38305W        W98050   6.918  32.600  12.377
38306W        W98051   0.844  31.907  12.547
38307W        W98052  18.100  21.536  14.014
38308W        W98053  14.271  17.078  10.930
38309W        W98054   0.979  21.557   2.810
38310W        W98055  25.617  33.578   2.893
38311W        W98056   7.669   8.342  10.962
38312W        W98057   0.763  22.546  11.015
38313W        W98058   0.855  37.049  10.627
38314W        W98059  11.678  29.026   1.857
38315W        W98060  32.999  32.603   4.259
38316W        W98061  38.537  23.056  13.995
38317W        W98062  41.291   3.445   2.402
38318W        W98063   1.863  27.127  11.906
38319W        W98064  42.858  27.525  14.279
38320W        W98065  25.070  40.805   0.814
38321W        W98066  24.135  24.714   3.257
38322W        W98067  34.111  10.311   4.316
38323W        W98068   6.893  10.378   3.278
38324W        W98069  27.043  32.467   3.162
38325W        W98070  31.023  13.615   2.801
38326W        W98071  20.640   0.462   4.256
38327W        W98072  38.975   1.779   1.833
38328W        W98073  35.023  37.483  13.519
38329W        W98074  44.845  17.736   0.759
38330W        W98075   8.298   2.327   2.354
38331W        W98076  38.515  25.641   3.768
38332W        W98077  21.632   3.851   4.771
38333W        W98078   3.860  33.406   4.185
38334W        W98079   8.320  44.983  12.375
38335W        W98080  30.435  28.985   0.898
38336W        W98081  21.694  37.375  12.392
38337W        W98082   8.730  35.942   1.321
38338W        W98083   9.276   4.353  12.362
38339W        W98084   0.307  13.285  14.965
38340W        W98085  27.552   3.836  12.885
38341W        W98086  20.098  36.014   0.787
38342W        W98087  24.669  33.440   0.956
38343W        W98088   0.871  37.442  12.401
38344W        W98089  18.183   3.756   1.270
38345W        W98090  34.998  30.489  11.012
38346W        W98091   5.728  44.881  13.344
38347W        W98092  15.182   0.264  11.546
38348W        W98093  35.033  32.979   3.235
38349W        W98094  40.854   5.393  13.989
38350W        W98095  39.849   9.838  11.598
38351W        W98096  21.621  31.627  13.408
38352W        W98097  34.869  43.386  14.846
38353W        W98098  37.578   1.924   3.871
38354W        W98099  14.300  11.324   2.224
38355W        W98100   2.777  13.152  13.947
38356W        W98101  22.146  43.290  10.507
38357W        W98102  13.804  23.228   0.870
38358W        W98103   0.754  17.713   0.791
38359W        W98104   7.373  37.924   3.744
38360W        W98105  15.241  22.708  13.544
38361W        W98106  41.872   4.756   0.388
38362W        W98107   3.845   3.858   0.748
38363W        W98108  24.012  43.369  13.317
38364W        W98109  39.473   8.348   3.365
38365W        W98110  14.701  44.335  12.570
38366W        W98111  25.635  34.935   1.905
38367W        W98112  12.691  35.521  12.870
38368W        W98113  16.228  30.106   1.851
38369W        W98114  26.684  16.726  13.027
38370W        W98115  21.539  21.056   2.236
38371W        W98116  33.018   0.877   1.398
38372W        W98117  20.578  25.097  10.984
38373W        W98118  11.799  30.599  10.412
38374W        W98119  30.656  21.722  13.363
38375W        W98120   6.676   0.318   4.675
38376W        W98121  34.508  25.186  10.629
38377W        W98122  32.465   5.723  14.007
38378W        W98123  37.911  18.209  13.900
38379W        W98124   5.369  26.481  13.501
38380W        W98125  36.355   9.254  11.515
38381W        W98126  35.065  43.361  11.570
38382W        W98127  37.866  16.610  12.990
38383W        W98128   3.913  44.761  13.043
38384W        W98129   7.800  33.570   0.742
38385W        W98130   5.875  41.886  11.074
38386W        W98131  22.616  19.244   0.815
38387W        W98132  44.353  37.509  11.612
38388W        W98133  28.541  14.246  11.945
38389W        W98134  15.704  22.616   4.252
38390W        W98135   0.825  41.946   0.856
38391W        W98136  33.952   7.842  10.919
38392W        W98137  25.119   9.354  12.006
38393W        W98138  14.168  26.580  11.427
38394W        W98139   7.724   7.866  11.556
38395W        W98140   2.731   4.246   0.332
38396W        W98141  28.140   3.916  11.988
38397W        W98142  23.558  10.331   1.233
38398W        W98143  20.637  39.916  11.004
38399W        W98144  35.102  36.480   2.222
38400W        W98145  25.622  39.949   2.813
38401W        W98146  37.427  16.641   3.324
38402W        W98147  14.197   3.948  14.802
38403W        W98148  44.288  37.351   1.412
38404W        W98149   6.339  41.435  13.500
38405W        W98150  32.936   0.938   1.761
38406W        W98151  20.217  15.680   2.266
38407W        W98152  14.720   9.873  11.911
38408W        W98153  36.091  11.827   1.894
38409W        W98154  21.667  43.950   2.902
38410W        W98155   8.857  36.379   1.776
38411W        W98156  13.238  19.586   2.403
38412W        W98157  40.940   0.791   1.211
38413W        W98158  18.666  30.114   3.809
38414W        W98159  36.044  40.544  12.397
38415W        W98160  26.464  24.009   3.820
38416W        W98161  15.579  13.792   3.369
38417W        W98162   5.877  31.573  14.431
38418W        W98163  39.430  36.593  10.606
38419W        W98164  15.765  40.354  12.078
38420W        W98165  30.971   4.331  14.407
38421W        W98166  28.002  39.474   2.711
38422W        W98167  33.541  11.850   2.245
38423W        W98168  22.081  19.280   4.174
38424W        W98169  22.564  31.468   3.202
38425W        W98170  19.604  43.887  12.401
38426W        W98171  43.511  17.136  12.467
38427W        W98172  31.637   1.941   0.929
38428W        W98173   0.317  24.518   4.762
38429W        W98174  25.998  39.879   1.427
38430W        W98175  38.847  26.632   4.332
38431W        W98176   8.800  21.020  12.859
38432W        W98177  34.975   5.804  10.063
38433W        W98178  18.594  25.088  12.385
38434W        W98179  11.849   2.280  13.319
38435W        W98180  13.250  13.198   3.722
38436W        W98181  29.512  41.927  13.027
38437W        W98182  22.668  28.077   3.707
38438W        W98183  24.486  37.544  11.542
38439W        W98184  15.118  15.589   2.264
38440W        W98185  27.450   4.315   1.389
38441W        W98186   4.876  31.591  11.442
38442W        W98187  31.947   4.359   0.917
38443W        W98188   2.902  24.083   1.884
38444W        W98189  18.248  15.670   2.862
38445W        W98190  32.946  30.571  11.475
38446W        W98191  15.707  37.043   3.835
38447W        W98192  25.010  34.527  14.764
38448W        W98193  16.612  10.340  11.891
38449W        W98194   0.485  18.633  11.499
38450W        W98195  40.944  20.052  12.874
38451W        W98196  11.726  41.032   3.157
38452W        W98197   1.352  44.465   2.674
38453W        W98198  24.520   1.314  11.076
38454W        W98199  35.046  34.569  14.358
38455W        W98200  44.966  26.525  10.990
38456W        W98201   8.719  28.006   4.339
38457W        W98202  38.462   6.385  10.572
38458W        W98203  37.932  29.979  12.454
38459W        W98204  21.698  25.599  12.518
38460W        W98205  26.050  23.666  14.483
38461W        W98206  41.041  17.109   4.830
38462W        W98207  28.078  43.853  14.429
38463W        W98208  42.806  34.599   1.744
38464W        W98209  43.307  28.522   4.135
38465W        W98210   7.804  31.013   1.233
38466W        W98211  39.039  22.657  14.849
38467W        W98212  40.994  43.830  12.343
38468W        W98213  21.188  37.529   4.616
38469W        W98214  13.116  31.446  14.349
38470W        W98215   0.300  16.146  13.452
38471W        W98216  32.905  27.964   0.767
38472W        W98217  43.899  41.013  12.482
38473W        W98218  18.077  33.996   0.880
38474W        W98219  34.588  44.424   4.152
38475W        W98220  17.246  13.281  14.462
38476W        W98221  40.002  16.111  12.411
38477W        W98222  27.095   4.436   4.266
38478W        W98223  21.254  17.628   4.353
38479W        W98224   9.801  25.660   4.180
38480W        W98225  29.576   8.882  10.908
38481W        W98226  44.455  22.747   2.816
38482W        W98227  24.522  34.539   2.860
38483W        W98228   1.855   4.401   4.715
38484W        W98229  38.507  21.140  11.434
38485W        W98230   2.262   4.712  14.277
38486W        W98231   6.352  32.112   0.423
38487W        W98232  31.536   0.944  12.419
38488W        W98233  29.023  35.934   4.673
38489W        W98234  11.784  32.525  14.399
38490W        W98235  36.498   0.354   4.178
38491W        W98236  36.999  28.575   4.720
38492W        W98237  36.006   1.398   4.635
38493W        W98238  17.089  18.197  10.612
38494W        W98239  23.676  40.811   0.815
38495W        W98240   4.433  34.896  13.332
38496W        W98241  44.388  33.033   2.367
38497W        W98242  22.723  17.571  12.079
38498W        W98243  32.123  10.674   2.380
38499W        W98244  41.397  19.224   2.296
38500W        W98245  42.409  27.655  12.410
38501W        W98246  33.527   7.885   1.790
38502W        W98247  20.584   8.391   1.282
38503W        W98248  43.901  41.451   1.931
38504W        W98249  32.998   9.258   3.202
38505W        W98250   9.304  38.378   2.762
38506W        W98251  33.610  31.517   4.198
38507W        W98252  44.379  27.025   2.686
38508W        W98253   7.737   9.659  12.959
38509W        W98254   6.711   2.427   4.185
38510W        W98255   9.194  10.822   1.851
38511W        W98256  28.130  31.121   3.816
38512W        W98257  16.203   4.852   4.121
38513W        W98258  16.187  11.812  12.852
38514W        W98259  22.006  44.806  14.458
38515W        W98260  34.959   3.343  12.011
38516W        W98261  26.094   8.265   1.422
38517W        W98262  21.567  15.203  13.361
38518W        W98263  26.106  15.173  11.421
38519W        W98264   9.759  26.605   2.364
38520W        W98265  25.137  25.968  10.514
38521W        W98266  19.774   9.700  13.853
38522W        W98267  29.959  30.094  14.027
38523W        W98268  31.424  33.392  12.460
38524W        W98269   0.987  30.912  12.926
38525W        W98270  20.527  12.165  12.565
38526W        W98271  29.952  35.991   3.643
38527W        W98272   4.832  13.602   0.933
38528W        W98273  20.744  20.620  14.940
38529W        W98274  16.628  33.999   3.275
38530W        W98275  20.118  32.132   0.440
38531W        W98276  10.381  20.641  14.475
38532W        W98277   4.775  30.955   1.326
38533W        W98278  25.186   8.739  14.302
38534W        W98279  20.618  39.404  12.062
38535W        W98280   5.797  30.951  13.524
38536W        W98281  21.091  20.736   3.775
38537W        W98282  12.272  25.650  12.385
38538W        W98283  10.845  41.910  10.440
38539W        W98284  34.868  27.675   2.758
38540W        W98285  39.855  41.333   0.254
38541W        W98286   2.231  13.213   3.819
38542W        W98287  31.991  15.608  14.955
38543W        W98288  25.022   1.480   5.293
38544W        W98289   5.354   3.714  11.604
38545W        W98290   9.229   5.850   2.690
38546W        W98291  40.395   5.759   3.756
38547W        W98292  34.454  29.920  11.607
38548W        W98293  42.327  25.603   3.324
38549W        W98294   8.881  37.354   3.634
38550W        W98295   4.873  30.460   3.680
38551W        W98296   9.372  33.106   4.351
38552W        W98297  13.663  13.178  12.930
38553W        W98298  29.939  18.099  10.636
38554W        W98299  18.139  21.026   3.291
38555W        W98300  42.830  22.125   4.720
38556W        W98301  38.028  34.576   1.726
38557W        W98302  30.492  30.658  12.887
38558W        W98303  26.117  37.510  12.007
38559W        W98304  39.915   0.833  10.975
38560W        W98305   5.706   1.764   4.717
38561W        W98306  44.279  21.557  10.929
38562W        W98307  29.051  15.720   2.232
38563W        W98308  37.497  30.546   4.720
38564W        W98309  37.840  17.629   0.360
38565W        W98310  24.199  32.630   3.785
38566W        W98311  18.254   2.833   3.361
38567W        W98312  29.662  36.953  10.417
38568W        W98313   5.851  40.404  13.024
38569W        W98314   9.184   1.732  11.423
38570W        W98315   4.767  16.723   2.780
38571W        W98316   7.910  25.473   0.454
38572W        W98317   0.336  38.485   1.351
38573W        W98318  38.891  44.755  13.849
38574W        W98319  20.706  22.149  13.312
38575W        W98320  39.004  29.025  12.094
38576W        W98321  31.137  19.147   0.253
38577W        W98322  27.977   0.824   2.754
38578W        W98323  10.268   5.843  13.403
38579W        W98324   6.698  38.441  10.494
38580W        W98325   4.890   4.204  12.885
38581W        W98326   9.729   5.923  12.952
38582W        W98327  42.836  44.913   1.789
38583W        W98328   9.682   3.861  11.900
38584W        W98329  31.077  44.359   1.844
38585W        W98330  18.263  30.923  13.909
38586W        W98331  23.501  26.024  11.592
38587W        W98332  35.369  13.834   2.774
38588W        W98333  41.473  39.545   3.644
38589W        W98334  11.201  13.267   3.833
38590W        W98335  37.987  37.056  12.436
38591W        W98336  21.684  20.184  12.459
38592W        W98337  29.604  19.555   4.162
38593W        W98338  34.949   0.350   2.785
38594W        W98339   0.878  26.604   2.319
38595W        W98340   0.952  31.133   2.303
38596W        W98341  43.295  42.307   2.232
38597W        W98342  23.506  30.094  12.007
38598W        W98343   8.896   2.437   2.718
38599W        W98344  23.710  25.177   4.647
38600W        W98345   3.378  12.279   3.831
38601W        W98346  30.632  21.051  13.845
38602W        W98347  38.878  12.293   1.812
38603W        W98348  23.650  30.456  14.006
38604W        W98349  40.833  26.467  12.533
38605W        W98350   4.743  38.871  14.308
38606W        W98351  14.805  28.023   4.688
38607W        W98352  23.643  25.534   1.330
38608W        W98353  40.495  28.996  13.467
38609W        W98354  37.388  29.459   1.338
38610W        W98355   1.956  11.849   3.870
38611W        W98356  15.734  40.890   3.834
38612W        W98357  35.960  24.672   4.181
38613W        W98358   0.426   2.751   4.238
38614W        W98359  22.056   5.791   1.913
38615W        W98360  35.495  36.029  12.483
38616W        W98361  23.134  29.525  11.060
38617W        W98362  19.267  10.323  12.433
38618W        W98363  44.980  24.975   3.373
38619W        W98364   2.386  18.560   1.419
38620W        W98365  17.159  13.805  11.594
38621W        W98366   5.782  33.509  11.594
38622W        W98367  22.032  11.835  12.824
38623W        W98368  10.353  37.921  13.422
38624W        W98369  27.140  10.803  13.030
38625W        W98370   8.359  39.526  11.023
38626W        W98371   9.883  33.959   2.822
38627W        W98372  31.595   0.804   4.723
38628W        W98373   3.399  41.530   9.955
38629W        W98374  23.502  42.928   2.834
38630W        W98375  22.238   9.848  14.792
38631W        W98376  20.668  18.706   3.262
38632W        W98377  13.112  29.065   2.255
38633W        W98378   7.869  32.063   5.283
38634W        W98379  36.016  35.478  13.394
38635W        W98380  25.497   3.398  13.815
38636W        W98381  20.624   8.856   3.764
38637W        W98382  16.200  44.420  14.984
38638W        W98383   2.739   4.882   0.791
38639W        W98384   8.860   3.386  12.369
38640W        W98385  41.965  25.178   2.221
38641W        W98386   8.368  12.251   2.887
38642W        W98387   0.846   4.436   3.362
38643W        W98388  13.834  36.500   5.711
38644W        W98389  12.739  38.903  12.392
38645W        W98390  41.789  12.307  14.374
38646W        W98391  29.463  11.148  11.105
38647W        W98392  25.157  30.597   4.325
38648W        W98393   8.804  20.687  11.858
38649W        W98394  12.623  12.633   3.191
38650W        W98395  11.627  25.179  10.454
38651W        W98396  28.941   8.281   3.150
38652W        W98397  44.972   1.810   1.908
38653W        W98398  36.552  24.697   4.251
38654W        W98399  34.486   4.883  10.124
38655W        W98400  16.247  36.062  12.409
38656W        W98401  39.815  37.407   3.374
38657W        W98402  14.664  17.650  11.459
38658W        W98403  17.104  32.963   2.326
38659W        W98404  42.882  17.282   0.247
38660W        W98405  32.896  43.400   2.747
38661W        W98406   2.942  12.681   1.789
38662W        W98407  26.989   3.375  10.012
38663W        W98408   5.215   8.798  11.021
38664W        W98409  24.153  18.152   3.206
38665W        W98410  33.012  30.652   3.379
38666W        W98411  38.460  36.593   4.184
38667W        W98412  17.766  35.083  13.795
38668W        W98413   8.222  27.174  13.880
38669W        W98414   2.930  10.702   2.214
38670W        W98415   7.236   7.702  11.391
38671W        W98416  35.371  27.049  10.539
38672W        W98417   9.655  28.030   1.365
38673W        W98418   8.360  17.636   1.859
38674W        W98419  12.710   4.283  14.826
38675W        W98420  30.572  40.461   2.338
38676W        W98421  18.178  24.165  12.364
38677W        W98422   3.899  19.055   2.239
38678W        W98423  10.167  27.584   4.716
38679W        W98424   0.980   9.746   3.797
38680W        W98425  28.575  20.154  13.380
38681W        W98426  37.546  35.975  11.073
38682W        W98427   4.822  23.593   0.945
38683W        W98428  39.538  22.717   9.930
38684W        W98429  34.385  10.259  14.015
38685W        W98430  35.362   5.864   2.415
38686W        W98431   3.954   9.816  13.472
38687W        W98432  15.231  29.982   2.868
38688W        W98433  17.635  44.424  12.371
38689W        W98434   8.183  22.106   4.349
38690W        W98435   9.369  21.260   0.482
38691W        W98436  29.608  33.439  11.589
38692W        W98437  12.800  22.722   3.829
38693W        W98438  38.068  41.947  11.065
38694W        W98439  23.058   0.851  10.582
38695W        W98440  26.163   5.904   4.772
38696W        W98441  43.846  39.030   3.820
38697W        W98442   8.715  26.119  11.974
38698W        W98443  37.467  14.211   2.413
38699W        W98444  32.117  28.068   1.860
38700W        W98445   5.857  29.431   2.259
38701W        W98446  32.457  20.126   1.366
38702W        W98447  24.130  12.642   3.843
38703W        W98448  23.580  11.832   0.768
38704W        W98449  12.298   2.279  14.374
38705W        W98450  32.124  37.082   2.760
38706W        W98451  29.939  18.604  11.073
38707W        W98452  24.181  21.165  11.445
38708W        W98453  28.442   5.342  14.421
38709W        W98454   6.406  23.530   4.309
38710W        W98455   2.399  22.713  13.041
38711W        W98456  29.030  26.584   4.684
38712W        W98457  26.604  35.008   4.291
38713W        W98458  34.951  28.159  15.000
38714W        W98459   6.880  11.847  12.084
38715W        W98460   4.893  23.115   3.848
38716W        W98461  42.821  12.698   1.216
38717W        W98462  27.163   3.318  11.389
38718W        W98463  27.008   5.824   3.345
38719W        W98464  37.535  14.726   5.103
38720W        W98465  38.953  23.233  14.423
38721W        W98466  29.152  13.197   0.899
38722W        W98467  40.962  17.245   4.190
38723W        W98468   6.857  42.313  14.325
38724W        W98469  21.605  26.542   0.961
38725W        W98470  39.838   6.237   1.434
38726W        W98471   9.758  29.582   1.252
38727W        W98472  32.087  29.160   2.178
38728W        W98473  12.281  42.900  13.402
38729W        W98474  13.658  29.972  13.346
38730W        W98475  31.120  24.076  12.931
38731W        W98476   4.290   8.331   3.285
38732W        W98477  15.606   6.321   2.264
38733W        W98478  20.089  23.727   3.384
38734W        W98479  21.213   0.986  13.847
38735W        W98480  29.147  36.543   3.853
38736W        W98481   7.835  40.421  14.776
38737W        W98482  14.238  12.269   4.710
38738W        W98483  24.540  22.666  11.495
38739W        W98484  10.296   4.926   1.812
38740W        W98485  39.972  37.465  14.021
38741W        W98486  40.322  33.455  12.866
38742W        W98487  40.007  24.562  13.945
38743W        W98488  11.206  38.872  12.386
38744W        W98489   3.763   8.383  14.421
38745W        W98490  39.355  18.296   3.785
38746W        W98491  12.787  23.139   2.209
38747W        W98492  28.974   2.291  12.017
38748W        W98493  21.186  33.012   4.170
38749W        W98494  37.927  21.169  14.376
38750W        W98495  26.053  33.432   4.264
38751W        W98496   1.396  42.954   2.236
38752W        W98497  19.267   2.855  13.869
38753W        W98498  21.191   5.306   3.793
38754W        W98499   7.862  44.884   4.196
38755W        W98500  26.537  34.064   3.685
38756W        W98501  31.454  14.200   4.679
38757W        W98502  41.338  24.649  11.552
38758W        W98503  42.470  23.177   3.279
38759W        W98504   1.776  13.769   1.293
38760W        W98505  21.056  37.965  12.938
38761W        W98506   2.745  10.292   1.323
38762W        W98507   3.227  16.256  12.551
38763W        W98508  44.861  44.264   3.736
38764W        W98509  19.673  32.904  14.983
38765W        W98510  37.926  34.939  13.442
38766W        W98511  20.132  18.706   2.247
38767W        W98512  24.518   6.688   3.385
38768W        W98513  35.084  22.726   2.349
38769W        W98514  13.115  36.522  11.995
38770W        W98515  35.441  10.690   4.225
38771W        W98516  17.299  36.484   3.633
38772W        W98517  15.727  11.763   5.089
38773W        W98518  34.518  44.302  10.949
38774W        W98519  25.134  11.350  12.886
38775W        W98520   5.760  37.413   4.619
38776W        W98521  24.505  37.486  14.304
38777W        W98522   3.423  43.771   1.769
38778W        W98523  40.966   3.389  14.351
38779W        W98524  12.807   7.321   1.354
38780W        W98525  19.111  17.675  12.457
38781W        W98526  40.921  23.035  10.457
38782W        W98527  12.228  11.242  11.962
38783W        W98528  24.531  42.775  13.951
38784W        W98529  12.781   8.267  14.429
38785W        W98530   1.320   2.926  13.011
38786W        W98531  20.618  42.880  14.414
38787W        W98532  28.042  23.231  10.415
38788W        W98533  36.959  21.715  11.985
38789W        W98534  21.188  11.321   2.351
38790W        W98535  32.541  23.546  14.821
38791W        W98536  23.541  16.804  13.449
38792W        W98537  10.813  21.657   0.349
38793W        W98538  29.102  26.669   0.308
38794W        W98539  12.117  24.049  14.298
38795W        W98540  30.527   3.887   3.732
38796W        W98541  16.640   9.196  13.314
38797W        W98542  41.936  15.329  14.922
38798W        W98543  41.903   5.313   2.808
38799W        W98544  32.486  40.806  11.395
38800W        W98545  37.052  11.296   3.285
38801W        W98546   5.933  34.459   1.775
38802W        W98547  30.985  33.976  10.407
38803W        W98548  40.419   8.799  13.448
38804W        W98549  31.565  15.808  11.584
38805W        W98550  18.567   4.805   4.116
38806W        W98551  24.622  25.683   2.749
38807W        W98552   0.884  42.363  13.968
38808W        W98553  17.735   6.254  10.529
38809W        W98554  40.373   1.278  12.576
38810W        W98555  36.352  24.604  11.455
38811W        W98556  23.725  31.564   1.259
38812W        W98557  10.237  22.999  11.477
38813W        W98558   5.919  40.454   0.321
38814W        W98559  37.576  18.231  13.813
38815W        W98560  10.203  12.286  10.951
38816W        W98561  19.644  10.333   1.763
38817W        W98562  22.175  12.343  11.607
38818W        W98563  22.127  42.016   1.790
38819W        W98564  26.461  43.405  10.609
38820W        W98565  21.034  37.001  13.494
38821W        W98566  16.290   9.357   0.736
38822W        W98567  24.508  32.099  12.847
38823W        W98568  38.024   5.785   1.729
38824W        W98569  22.702  17.173  12.095
38825W        W98570  18.202   0.337   0.413
38826W        W98571  29.646  42.357   0.847
38827W        W98572  14.107  30.118  10.442
38828W        W98573  21.605  32.060   0.893
38829W        W98574   5.410  24.522  13.815
38830W        W98575  34.911   2.380   1.402
38831W        W98576  38.348   8.871   0.890
38832W        W98577  23.608  12.812  14.339
38833W        W98578  35.547  44.376   3.372
38834W        W98579  30.038  40.500  11.879
38835W        W98580  12.697  32.626   0.804
38836W        W98581  13.668  26.009  11.606
38837W        W98582  42.363   5.435  11.474
38838W        W98583  36.440   4.703  10.588
38839W        W98584  22.621  10.783  14.365
38840W        W98585  30.580  44.785   1.923
38841W        W98586  11.790   2.938   3.354
38842W        W98587  34.402  24.996  11.528
38843W        W98588  41.517  13.752   1.895
38844W        W98589   9.821   2.817   3.261
38845W        W98590   6.291  15.246  11.387
38846W        W98591   6.768  21.204   9.931
38847W        W98592  38.912  32.517   3.329
38848W        W98593   4.316  40.885  13.395
38849W        W98594  10.877   3.740   2.840
38850W        W98595   0.902   7.722   4.611
38851W        W98596   1.900  30.418  14.896
38852W        W98597  27.682  18.193   0.861
38853W        W98598   8.173  39.401   3.220
38854W        W98599  10.239   3.341   2.728
38855W        W98600  25.160  29.061  11.448
38856W        W98601  39.899  34.497  12.885
38857W        W98602  12.220  41.884   3.224
38858W        W98603  25.655   6.306  10.511
38859W        W98604  36.068  36.362  14.765
38860W        W98605   5.705  16.117   1.854
38861W        W98606  10.368  20.185   4.833
38862W        W98607   4.939  38.906   2.221
38863W        W98608  14.176   0.752  10.986
38864W        W98609  13.230  44.292   0.779
38865W        W98610  32.418  40.479   4.338
38866W        W98611  22.639  39.036   4.347
38867W        W98612  24.695  39.036  14.374
38868W        W98613  32.429   6.680   4.836
38869W        W98614   6.250  35.854  14.922
38870W        W98615   8.872  41.872  12.020
38871W        W98616  32.950  40.947  12.971
38872W        W98617   9.647  31.144  11.518
38873W        W98618  39.015  18.673  10.573
38874W        W98619  12.812  17.109  11.561
38875W        W98620  33.103   6.385  11.540
38876W        W98621   5.209   1.823   3.329
38877W        W98622  15.806  17.726   0.420
38878W        W98623   8.667  14.631   0.769
38879W        W98624  36.968  11.681   0.763
38880W        W98625  15.760  32.625   0.940
38881W        W98626  40.936   8.682  14.490
38882W        W98627   9.253  42.811  10.521
38883W        W98628  34.509  25.048   0.296
38884W        W98629  15.085  25.657   2.776
38885W        W98630   3.322  11.756   2.729
38886W        W98631  27.687  15.283  13.490
38887W        W98632  44.815  12.288   3.682
38888W        W98633  20.131  34.038  13.978
38889W        W98634  17.102  13.264  13.503
38890W        W98635  23.068  13.200   9.600
38891W        W98636   5.934   9.717  13.873
38892W        W98637  16.600   9.280  11.954
38893W        W98638  32.971   5.387   5.692
38894W        W98639  12.788  32.607   1.710
38895W        W98640  10.798  23.044  13.799
38896W        W98641   0.922  32.972   0.329
38897W        W98642  11.762  28.596  14.940
38898W        W98643  23.193  19.651  11.084
38899W        W98644  21.192   7.779   0.463
38900W        W98645  37.570  16.624   3.633
38901W        W98646   8.759  27.636   1.762
38902W        W98647  43.412   8.809   1.847
38903W        W98648  36.070   3.290  13.993
38904W        W98649  24.092  18.612   2.675
38905W        W98650  21.645  42.861  13.347
38906W        W98651  12.344  19.687  10.459
38907W        W98652   6.807  44.947  14.020
38908W        W98653  24.562  21.557  13.977
38909W        W98654   7.259  22.053  11.888
38910W        W98655   6.722  21.138   3.234
38911W        W98656  26.471  23.713   2.710
38912W        W98657  43.481  10.780   3.349
38913W        W98658  11.279  28.464   2.662
38914W        W98659   1.389  33.076  14.975
38915W        W98660  35.969  37.517   5.203
38916W        W98661  15.108  33.067   5.592
38917W        W98662  10.211   2.821  10.620
38918W        W98663  44.759  43.365   2.698
38919W        W98664  28.151  14.114  14.452
38920W        W98665  27.662   8.831  14.778
38921W        W98666  15.747  16.743  11.003
38922W        W98667  12.728  44.888  11.939
38923W        W98668  16.637  42.016  13.532
38924W        W98669  29.503  24.611   2.284
38925W        W98670   9.826  44.836   0.380
38926W        W98671   1.373  33.899  12.453
38927W        W98672  33.437  29.147  13.447
38928W        W98673  41.405  11.280   3.377
38929W        W98674   6.824  26.510   2.773
38930W        W98675   7.186  34.926   4.680
38931W        W98676   6.807  10.210   4.341
38932W        W98677  27.690   7.796   1.705
38933W        W98678   4.441  23.676   0.927
38934W        W98679  11.257  23.647  10.538
38935W        W98680  11.687  38.549   4.353
38936W        W98681  15.289  13.165  12.947
38937W        W98682  21.664   2.238  14.434
38938W        W98683  16.304  20.084  14.981
38939W        W98684  35.852  30.638  13.864
38940W        W98685  27.191   2.237   0.951
38941W        W98686   3.339  36.079   1.705
38942W        W98687   8.894  28.975  12.534
38943W        W98688  22.648  24.116  14.389
38944W        W98689  39.024  30.109   1.442
38945W        W98690  13.170  40.851   1.287
38946W        W98691  10.324  31.046  13.487
38947W        W98692  19.661   5.857   4.166
38948W        W98693  16.135  21.186  13.884
38949W        W98694  17.257   8.678   4.830
38950W        W98695   5.812  38.926   1.840
38951W        W98696  39.004   3.458  13.966
38952W        W98697  40.368  30.961  14.405
38953W        W98698  27.467  35.366   3.193
38954W        W98699   6.258  19.726   0.844
38955W        W98700  28.636  23.613  11.463
38956W        W98701  30.016  16.215  10.508
38957W        W98702  13.334  17.592   2.294
38958W        W98703   5.934  24.498  11.941
38959W        W98704  37.415  25.093   3.164
38960W        W98705  32.895  11.210   1.334
38961W        W98706  28.457  37.576  11.381
38962W        W98707  27.001   9.180   4.271
38963W        W98708   9.262  19.534  11.991
38964W        W98709  39.377  27.139  11.410
38965W        W98710  14.289  28.669   4.209
38966W        W98711  44.485  10.853   1.309
38967W        W98712  11.145  41.468   1.742
38968W        W98713   0.421  20.638   0.852
38969W        W98714  43.309  26.627  14.962
38970W        W98715   9.288  31.635   0.408
38971W        W98716  40.308  19.131  13.504
38972W        W98717  37.570  25.499   3.362
38973W        W98718  43.855   5.702  13.874
38974W        W98719  22.511  28.946   3.202
38975W        W98720  33.894   8.773  14.776
38976W        W98721  43.960  33.612  13.974
38977W        W98722  24.114  42.934  10.900
38978W        W98723   1.774   8.325  13.545
38979W        W98724  18.279  44.875   2.301
38980W        W98725  22.047  39.942  12.974
38981W        W98726  42.366   3.779  12.361
38982W        W98727  25.687  36.935  12.467
38983W        W98728  44.308  17.653  12.443
38984W        W98729  41.874   7.799   0.408
38985W        W98730  15.262  22.617  10.643
38986W        W98731  43.996  16.786   1.249
38987W        W98732  31.417   3.364  14.424
38988W        W98733  29.668  41.996  11.570
38989W        W98734   2.792  30.978   1.740
38990W        W98735   0.880  13.229   3.706
38991W        W98736  34.958  18.116  12.541
38992W        W98737  42.935  22.520   3.662
38993W        W98738  37.508  43.802  14.470
38994W        W98739  33.072  12.329  11.448
38995W        W98740  38.017   4.221  13.887
38996W        W98741  17.769   4.372   4.639
38997W        W98742  29.947  36.426  10.616
38998W        W98743  15.101  20.635  13.984
38999W        W98744  25.503  32.396  15.000
39000W        W98745  38.025   2.804   2.271
39001W        W98746   0.958  11.782  10.487
39002W        W98747  15.089   1.394   4.834
39003W        W98748   4.396  16.612   1.897
39004W        W98749  42.865  22.550   1.438
39005W        W98750   9.849  35.405   2.813
39006W        W98751   6.310  19.653   5.243
39007W        W98752   8.843   6.193   2.379
39008W        W98753  41.953   0.395   1.699
39009W        W98754  28.131  31.622  11.400
39010W        W98755  13.278  16.610  10.900
39011W        W98756  11.215   5.930  13.363
39012W        W98757  43.976  13.800  13.976
39013W        W98758  22.617  40.861   2.901
39014W        W98759   6.365   8.239   4.343
39015W        W98760  28.030  43.496   2.816
39016W        W98761   9.733   4.374   1.277
39017W        W98762  23.645  30.158  10.476
39018W        W98763  14.697  19.718  14.986
39019W        W98764  22.038  10.301  14.794
39020W        W98765  37.028   9.239   4.119
39021W        W98766  28.070   0.781   0.276
39022W        W98767   6.919  30.629  10.948
39023W        W98768   3.459  39.384  10.511
39024W        W98769   7.780  26.632   2.402
39025W        W98770   2.759  27.969   3.843
39026W        W98771   6.200  15.144   2.681
39027W        W98772  33.570  24.007  13.859
39028W        W98773  34.543  41.473   1.785
39029W        W98774  20.676  30.949   5.159
39030W        W98775  44.916   1.856  10.577
39031W        W98776  26.177   0.276   0.326
39032W        W98777  42.871   3.751   4.136
39033W        W98778  25.588  37.878  13.317
39034W        W98779  21.161   4.423  12.092
39035W        W98780  16.608  16.703   0.919
39036W        W98781  20.249  13.644   1.926
39037W        W98782  30.454  39.036   1.447
39038W        W98783   0.322  29.522  14.880
39039W        W98784  19.221  37.500   2.213
39040W        W98785  26.184  25.590  14.455
39041W        W98786  40.452   2.889   2.741
39042W        W98787  22.593  31.446  13.486
39043W        W98788   0.479   7.407  12.093
39044W        W98789  42.504  25.039   2.692
39045W        W98790  25.523  42.290   1.763
39046W        W98791   7.290  21.199  12.958
39047W        W98792  18.660  37.938  13.390
39048W        W98793  18.117  41.018   3.299
39049W        W98794  29.538  20.606   3.192
39050W        W98795  44.820  24.995   0.788
39051W        W98796   8.405  33.530   1.830
39052W        W98797  21.232  28.521   3.295
39053W        W98798   1.951  18.603   2.778
39054W        W98799  40.968   9.785  14.953
39055W        W98800  18.207  14.831   2.198
39056W        W98801   3.886   2.348  14.809
39057W        W98802  43.862   1.801  11.471
39058W        W98803  10.377  27.071  13.029
39059W        W98804  18.146  23.525   2.339
39060W        W98805   6.215  32.501   3.212
39061W        W98806  34.434  20.057  13.863
39062W        W98807  11.249  35.076   2.743
39063W        W98808  41.442  41.480  14.354
39064W        W98809  27.504  40.800   0.830
39065W        W98810  39.991   7.718   2.788
39066W        W98811  29.537  37.478   2.742
39067W        W98812   3.956  23.717   2.877
39068W        W98813   5.254   1.356   0.927
39069W        W98814  20.639  15.259   2.338
39070W        W98815  22.095  12.828  10.578
39071W        W98816  26.658  17.290   3.785
39072W        W98817  38.486  15.745  10.067
39073W        W98818  36.467  38.938  10.070
39074W        W98819  32.959  25.511  10.636
39075W        W98820  38.437  13.664   0.466
39076W        W98821  39.492   4.448   1.767
39077W        W98822  12.155   9.831  12.884
39078W        W98823  24.587  34.563  10.504
39079W        W98824  14.113  10.790  13.530
39080W        W98825  14.685  37.406   1.882
39081W        W98826  10.811  42.515   3.632
39082W        W98827  40.998  22.720  10.563
39083W        W98828  20.049  40.998   3.194
39084W        W98829  39.553   1.794  13.424
39085W        W98830  10.189  18.762   1.829
39086W        W98831  22.237  30.484   5.116
39087W        W98832  18.783  21.165   2.265
39088W        W98833  25.705  12.204   1.774
39089W        W98834  29.564  18.246  10.903
39090W        W98835  28.135  21.097  10.599
39091W        W98836  23.550  26.001  10.925
39092W        W98837   0.755  18.189   3.288
39093W        W98838  10.235  16.156   4.229
39094W        W98839  17.576   9.686  13.031
39095W        W98840  12.736   8.279  10.439
39096W        W98841  37.928  23.079  14.860
39097W        W98842  36.583  34.378   2.841
39098W        W98843  34.530  29.160   2.296
39099W        W98844   3.844  30.613   4.176
39100W        W98845  15.188  11.752   2.231
39101W        W98846  25.216   2.311   0.869
39102W        W98847   4.276  17.273  12.507
39103W        W98848   4.867  39.360   3.688
39104W        W98849  19.219  34.052   4.215
39105W        W98850   9.681  30.636  12.012
39106W        W98851  29.453  30.019  13.983
39107W        W98852  14.735  37.960   4.263
39108W        W98853   5.420  44.850  14.956
39109W        W98854  10.823  11.632  10.514
39110W        W98855  20.147  19.563  14.383
39111W        W98856  28.655   2.828  11.488
39112W        W98857  36.856  14.222   1.924
39113W        W98858  12.164   8.803  11.858
39114W        W98859  27.127  26.121  11.868
39115W        W98860  16.715  37.927   4.276
39116W        W98861   8.306  24.725   2.692
39117W        W98862  31.499  14.129   0.428
39118W        W98863  26.037  13.678   4.226
39119W        W98864  14.783  25.481  14.421
39120W        W98865  21.737  41.939   2.391
39121W        W98866  25.129  23.211  14.867
39122W        W98867   3.854   7.681  13.307
39123W        W98868  43.772  24.183   1.824
39124W        W98869  10.235  19.589  14.972
39125W        W98870   9.704  20.755   0.739
39126W        W98871  23.106  28.619  13.507
39127W        W98872  32.435  38.066  11.487
39128W        W98873  37.834  32.089   3.651
39129W        W98874  20.753  10.140  13.043
39130W        W98875  11.794  41.955   0.763
39131W        W98876   3.770  39.368   0.826
39132W        W98877   9.317  28.933   1.905
39133W        W98878   2.835   4.787  14.422
39134W        W98879  34.390  34.068   4.196
39135W        W98880  32.924   8.206  13.451
39136W        W98881   2.439   1.841  13.941
39137W        W98882  44.392  10.721  14.028
39138W        W98883  32.626   6.858   1.714
39139W        W98884  23.132  38.952  14.881
39140W        W98885  10.291   9.236  14.483
39141W        W98886   5.239  40.323  14.953
39142W        W98887  27.130   7.769  12.367
39143W        W98888  11.282  20.541   1.855
39144W        W98889  34.027  18.285  10.084
39145W        W98890   9.308  23.514   0.733
39146W        W98891   3.723   5.776   2.337
39147W        W98892   2.954  13.621   3.284
39148W        W98893  23.172   0.863  11.470
39149W        W98894  41.378  16.227  12.460
39150W        W98895  38.451  19.088  11.403
39151W        W98896  33.384   5.930   5.302
39152W        W98897  24.698  28.539   1.718
39153W        W98898  18.720   9.809   4.621
39154W        W98899  40.033  17.103   3.260
39155W        W98900  39.845   6.829  11.419
39156W        W98901  21.570   1.250   3.231
39157W        W98902  20.561  38.429  11.011
39158W        W98903  33.401  15.114   2.416
39159W        W98904   6.416   8.297   2.345
39160W        W98905  34.558  38.981   4.143
39161W        W98906   8.212  10.864  12.012
39162W        W98907  21.655  20.697   2.860
39163W        W98908   0.319  28.977  11.426
39164W        W98909  26.481  12.361  14.389
39165W        W98910   7.201  20.729  12.874
39166W        W98911  25.656   1.482  12.498
39167W        W98912  33.053  14.152   1.827
39168W        W98913  44.460  12.621   1.288
39169W        W98914  41.901  39.387  14.995
39170W        W98915   1.969   0.745  14.896
39171W        W98916  11.228  13.746   4.753
39172W        W98917  40.455  21.627   3.790
39173W        W98918   4.817  32.074  10.488
39174W        W98919  29.487  25.111   3.686
39175W        W98920  21.629  22.694   4.674
39176W        W98921  27.127  29.665  12.839
39177W        W98922  10.241  44.416   3.634
39178W        W98923  11.151  29.085  14.910
39179W        W98924  32.077   7.802   1.395
39180W        W98925  41.297  32.112   0.829
39181W        W98926   0.378  35.938  14.483
39182W        W98927   5.392  41.879  10.552
39183W        W98928  30.465  29.166  13.963
39184W        W98929  18.758  16.614   2.783
39185W        W98930  36.384  37.028  11.881
39186W        W98931  25.683  23.022  13.400
39187W        W98932  43.017  32.618   2.779
39188W        W98933   3.830   8.828   4.148
39189W        W98934  43.507   9.674   3.150
39190W        W98935   0.832   8.763   4.192
39191W        W98936   0.792  43.416   2.822
39192W        W98937  14.286  16.649   3.827
39193W        W98938   9.662   2.244   1.278
39194W        W98939   0.399  14.291  12.937
39195W        W98940  10.857   5.221  13.478
39196W        W98941  15.263  40.908  11.958
39197W        W98942  44.301  11.326  14.412
39198W        W98943  37.481   8.670   2.789
39199W        W98944   2.757  28.090  10.570
39200W        W98945  15.589   0.353  10.446
39201W        W98946  40.808  41.534  10.478
39202W        W98947  24.125  33.420   2.665
39203W        W98948  34.556   2.415   4.777
39204W        W98949  40.538   3.774   2.199
39205W        W98950  21.706   2.420   1.416
39206W        W98951  20.179   1.329  14.400
39207W        W98952  12.119   7.760  14.883
39208W        W98953   1.373  20.649  14.442
39209W        W98954  40.901  43.457  13.450
39210W        W98955   6.899  29.932   2.740
39211W        W98956  19.575  31.548  12.027
39212W        W98957  11.650  33.587   2.241
39213W        W98958  44.011  21.054   4.682
39214W        W98959  35.853  26.670   4.808
39215W        W98960  14.126  34.074  13.355
39216W        W98961  30.069   3.259  14.475
39217W        W98962  16.212  11.151  11.376
39218W        W98963  13.301  31.957  13.346
39219W        W98964   4.862  11.788   4.600
39220W        W98965  41.892  13.168  13.312
39221W        W98966  37.929  12.346   3.292
39222W        W98967  44.987  36.400   0.360
39223W        W98968   1.865  34.028   1.933
39224W        W98969  27.617   1.470   0.848
39225W        W98970  32.064  40.449   3.765
39226W        W98971   1.788  22.718  11.492
39227W        W98972   9.889  21.665  10.590
39228W        W98973  41.837  40.365   2.226
39229W        W98974  17.114  21.088  11.873
39230W        W98975  39.911  33.614  11.498
39231W        W98976  39.492  13.217  11.080
39232W        W98977  21.535  44.394  14.354
39233W        W98978   3.769  20.550  14.420
39234W        W98979  14.325  21.064   5.298
39235W        W98980  23.624  23.203  14.363
39236W        W98981   3.930  25.583   3.233
39237W        W98982  36.499  40.902  14.498
39238W        W98983  16.134  44.909   1.348
39239W        W98984  21.243   3.425  12.427
39240W        W98985  14.632   1.743  14.356
39241W        W98986  40.484  25.541  12.000
39242W        W98987  32.004   2.962  12.375
39243W        W98988  26.485  25.046  14.852
39244W        W98989  36.044   2.269  12.992
39245W        W98990  13.691  20.249  11.916
39246W        W98991  33.430   0.327  11.580
39247W        W98992   5.222  26.175  14.870
39248W        W98993  35.471  44.279   2.875
39249W        W98994  11.268  41.828   0.357
39250W        W98995  10.192  21.725   4.349
39251W        W98996   2.864  13.271   3.159
39252W        W98997  36.006   4.296  12.925
39253W        W98998  11.853  33.548  11.959
39254W        W98999  20.185  11.850   1.929
39255W        W99000  38.992  40.032  14.929
39256W        W99001   8.708  36.081   0.800
39257W        W99002  38.935  29.615   3.192
39258W        W99003  14.718  30.970   0.843
39259W        W99004  32.954  41.345   2.719
39260W        W99005  25.491  15.669   4.202
39261W        W99006  13.665  30.073  14.783
39262W        W99007   4.431  35.065  12.429
39263W        W99008  31.965  33.470  11.458
39264W        W99009  15.228  42.801   2.182
39265W        W99010  44.941   3.814  11.868
39266W        W99011  20.152  30.428   0.923
39267W        W99012  16.585  10.157   3.250
39268W        W99013  27.580  27.636   0.395
39269W        W99014  24.156   3.254   0.921
39270W        W99015   5.839  42.789   1.289
39271W        W99016  25.484  15.328   0.868
39272W        W99017  16.170  34.388   4.781
39273W        W99018  15.225   7.718   1.887
39274W        W99019  17.718  24.632   1.390
39275W        W99020  40.946  26.989   3.315
39276W        W99021   6.876  11.267  14.955
39277W        W99022   6.688   2.289  10.605
39278W        W99023  33.405  22.586  10.569
39279W        W99024   5.729  24.684  14.784
39280W        W99025  30.632  32.614  10.583
39281W        W99026  15.751   3.832   2.830
39282W        W99027  19.743   5.399  13.012
39283W        W99028   0.408   0.347  14.447
39284W        W99029   1.821   9.329  14.811
39285W        W99030  21.051  35.963  14.473
39286W        W99031   3.916  15.241  12.339
39287W        W99032   7.825   1.940   0.405
39288W        W99033  12.242  36.350  13.529
39289W        W99034  21.179  25.576  14.826
39290W        W99035  21.573   2.957  11.432
39291W        W99036  27.140  30.972   1.286
39292W        W99037  13.689   7.744  13.979
39293W        W99038  39.434  40.005  13.333
39294W        W99039  44.848  20.685  10.927
39295W        W99040  34.401   6.814   0.300
39296W        W99041  29.651  41.924  14.772
39297W        W99042  13.604  22.132  12.365
39298W        W99043   2.827   7.667  10.587
39299W        W99044   6.331  31.063   1.326
39300W        W99045  44.932   8.283  11.381
39301W        W99046  10.174  31.146  14.008
39302W        W99047  30.961   4.352  11.012
39303W        W99048   6.795   0.462   0.414
39304W        W99049  32.430  28.521  13.830
39305W        W99050  43.469   1.732   3.861
39306W        W99051  28.642  22.637  12.903
39307W        W99052   6.738  18.285   4.661
39308W        W99053  32.492  20.544   0.430
39309W        W99054  34.474  17.189   0.736
39310W        W99055  28.553  17.282  14.463
39311W        W99056  39.890   3.344  14.839
39312W        W99057  21.585  44.755  13.916
39313W        W99058   7.380  28.117   5.095
39314W        W99059  34.119   8.881  12.096
39315W        W99060  20.042   4.771  13.820
39316W        W99061   9.210   3.790  10.414
39317W        W99062  18.702  36.860   4.278
39318W        W99063   3.325  16.264   3.707
39319W        W99064  32.007   6.372   2.200
39320W        W99065  27.190  32.499   3.752
39321W        W99066  16.219   4.889   1.311
39322W        W99067  23.618  20.200  10.948
39323W        W99068  33.566   7.899  13.424
39324W        W99069  22.044  38.963  10.607
39325W        W99070  30.483  42.406   1.404
39326W        W99071  35.419  30.577  14.411
39327W        W99072  40.001  34.576   2.709
39328W        W99073  32.530  33.936  11.958
39329W        W99074  41.804  20.591   4.311
39330W        W99075   0.913   6.767   2.343
39331W        W99076  33.601  17.099   2.296
39332W        W99077  26.153   3.321  14.908
39333W        W99078  14.333  12.804   0.245
39334W        W99079  10.735  15.192   3.346
39335W        W99080  23.006  22.119  10.513
39336W        W99081  11.287   9.726   0.761
39337W        W99082  22.636  19.591  14.927
39338W        W99083   6.841   5.822  14.408
39339W        W99084   1.812  30.607   1.848
39340W        W99085  27.592  41.428  11.401
39341W        W99086  21.512  41.342   1.839
39342W        W99087   5.871  28.452   2.398
39343W        W99088  27.977   3.787  12.871
39344W        W99089  42.346   2.382   0.298
39345W        W99090  19.080  32.133  14.435
39346W        W99091  13.200  13.295  14.331
39347W        W99092  10.314  41.861   3.734
39348W        W99093   7.794  36.919  11.482
39349W        W99094   0.894  12.708   0.421
39350W        W99095  38.874  40.019  14.474
39351W        W99096   8.385  40.821  10.968
39352W        W99097  25.191   4.381  14.873
39353W        W99098  26.635  28.443   5.205
39354W        W99099  41.922   1.311   0.851
39355W        W99100  42.385  29.154   1.242
39356W        W99101  23.626  21.115   1.426
39357W        W99102  19.714  35.061   4.657
39358W        W99103  21.725  20.639  12.455
39359W        W99104  10.185  42.922  10.641
39360W        W99105  20.583   8.706   3.215
39361W        W99106  19.597  30.159  14.494
39362W        W99107  17.176   0.828  11.110
39363W        W99108   6.895  39.033  12.035
39364W        W99109  10.357  20.214  10.987
39365W        W99110  40.047  28.130  12.431
39366W        W99111  13.111  43.279   1.859
39367W        W99112  22.509  44.827  11.127
39368W        W99113  22.250  20.694  14.850
39369W        W99114   4.915  31.922  12.348
39370W        W99115  13.297  18.689  10.908
39371W        W99116  30.160  10.766  12.411
39372W        W99117  33.917  10.656   0.472
39373W        W99118  29.463   7.398   4.241
39374W        W99119   3.727  17.688  11.913
39375W        W99120  24.060  30.637  13.463
39376W        W99121  27.951  27.992   0.400
39377W        W99122   0.369  31.002   0.802
39378W        W99123  21.557   0.944  14.287
39379W        W99124  33.574  18.155   1.863
39380W        W99125  33.443  42.843   0.854
39381W        W99126  42.805  39.848  10.054
39382W        W99127  41.438  17.199  14.299
39383W        W99128  36.071  15.750   4.124
39384W        W99129  31.546  29.926  12.553
39385W        W99130  41.853  29.017  11.391
39386W        W99131  11.152   9.754   3.641
39387W        W99132  19.100  44.327   0.331
39388W        W99133  30.920  31.450  12.870
39389W        W99134  16.716  35.449   0.794
39390W        W99135  14.182  27.512   1.820
39391W        W99136  27.001  13.202   3.377
39392W        W99137   0.337   0.951  11.575
39393W        W99138  30.520  43.872   1.357
39394W        W99139  25.519  12.730  12.971
39395W        W99140  42.421  32.426   3.257
39396W        W99141  28.634  44.937  10.611
39397W        W99142  28.062   9.887  10.129
39398W        W99143  35.045  21.120   0.766
39399W        W99144  38.373   1.869   2.337
39400W        W99145  12.655  19.746   0.950
39401W        W99146  32.986  40.915  11.118
39402W        W99147  25.196  41.909   4.341
39403W        W99148   6.731  11.252   0.459
39404W        W99149  32.417  28.006   3.780
39405W        W99150   8.239  14.751   4.201
39406W        W99151  33.948  35.055   0.734
39407W        W99152  38.365  18.660   1.930
39408W        W99153  29.428   9.186  10.920
39409W        W99154   7.334  25.975  10.412
39410W        W99155  23.145  29.092  10.151
39411W        W99156  42.788  27.096   3.302
39412W        W99157  28.560  12.160  13.885
39413W        W99158   9.850   0.422  13.395
39414W        W99159   1.735   5.786   3.196
39415W        W99160  37.534  38.414  13.507
39416W        W99161   7.336  22.527  12.019
39417W        W99162  43.841   0.392   1.372
39418W        W99163   1.865  33.970  14.924
39419W        W99164  32.457  31.024   2.902
39420W        W99165   1.891  20.588  10.892
39421W        W99166  14.151  37.508  14.470
39422W        W99167   6.858  29.137   2.792
39423W        W99168  20.228  31.603   1.274
39424W        W99169   4.911   9.785   3.290
39425W        W99170  23.642  29.447   4.783
39426W        W99171  20.214  30.561  11.871
39427W        W99172  31.047  34.020  14.295
39428W        W99173   2.376  34.098   1.367
39429W        W99174  37.431  29.653   3.653
39430W        W99175  32.141   0.264   4.682
39431W        W99176  32.613  12.851   4.615
39432W        W99177  34.089   8.175   3.863
39433W        W99178  44.835  42.393  12.512
39434W        W99179  30.976   6.186   3.176
39435W        W99180  35.067  15.693   3.180
39436W        W99181  22.649   9.759  12.039
39437W        W99182  17.576  31.972  11.005
39438W        W99183  22.513   7.774   2.390
39439W        W99184  13.204  32.629   9.978
39440W        W99185  38.986  15.620   2.319
39441W        W99186  39.417  14.122  14.300
39442W        W99187  10.762  36.995   9.604
39443W        W99188  24.214  37.448  14.782
39444W        W99189   9.275   7.197   0.473
39445W        W99190   2.888  31.922   2.711
39446W        W99191  22.722  25.670  14.490
39447W        W99192  34.524  32.922   0.946
39448W        W99193  36.460   4.891  11.548
39449W        W99194  29.039   8.872   4.747
39450W        W99195   0.834   7.219  13.024
39451W        W99196  22.659   6.402   1.733
39452W        W99197  16.669   5.865   3.786
39453W        W99198  24.076  13.309   5.146
39454W        W99199   2.743   9.274  11.515
39455W        W99200  28.445  12.839  10.950
39456W        W99201   5.733   5.795  13.312
39457W        W99202  25.597  40.530   4.204
39458W        W99203  21.547  35.962  14.841
39459W        W99204   3.805  36.903  10.522
39460W        W99205  39.957  21.183   4.334
39461W        W99206  18.134  44.879  14.432
39462W        W99207  41.981  14.293  11.867
39463W        W99208   9.156  42.289  14.350
39464W        W99209  10.795  11.826   2.181
39465W        W99210  41.021  26.579  13.036
39466W        W99211  30.632   5.358   3.310
39467W        W99212  34.385  29.656  11.010
39468W        W99213  20.189   5.258   1.853
39469W        W99214  43.433   5.240   0.304
39470W        W99215  25.199  44.262   3.150
39471W        W99216  24.536  22.138   2.731
39472W        W99217  40.938  26.513   0.296
39473W        W99218  23.536   9.828  11.871
39474W        W99219  36.937   1.754  12.885
39475W        W99220  37.435  30.133   2.876
39476W        W99221  33.936  14.784  13.903
39477W        W99222  14.244  38.400  11.381
39478W        W99223  33.070   1.374  12.060
39479W        W99224  32.604  41.815  13.992
39480W        W99225   6.820  11.835   0.269
39481W        W99226   7.244  27.143  12.366
39482W        W99227  35.506  34.555  12.057
39483W        W99228   9.732  20.090   4.607
39484W        W99229  26.701  44.852   4.287
39485W        W99230  44.960  35.430   3.841
39486W        W99231  18.194  36.499   2.877
39487W        W99232  30.947   4.242  13.825
39488W        W99233  19.768  23.515  14.964
39489W        W99234  18.602  13.201   3.259
39490W        W99235  12.809  35.408  12.066
39491W        W99236  17.287   1.951  10.109
39492W        W99237  29.082  17.618  13.442
39493W        W99238  30.466  26.561   4.153
39494W        W99239  42.944  41.375  13.486
39495W        W99240  40.933  37.915  14.855
39496W        W99241  34.570  19.195  12.402
39497W        W99242  43.461  19.605   2.312
39498W        W99243  23.566  16.731   4.185
39499W        W99244  29.471   7.795   1.248
39500W        W99245  37.411  22.085  11.497
39501W        W99246  34.974   4.260   0.807
39502W        W99247  21.172  29.581   2.860
39503W        W99248   6.765  10.368  13.927
39504W        W99249  27.184  27.160  14.792
39505W        W99250  24.003  36.842  11.922
39506W        W99251   2.365  42.806  12.403
39507W        W99252   8.828  40.050  14.967
39508W        W99253  31.411  38.338  14.382
39509W        W99254  26.118   9.856  13.867
39510W        W99255  36.042  24.096   3.663
39511W        W99256  40.491  35.595   3.361
39512W        W99257  12.711  21.209   1.930
39513W        W99258  12.158   2.350   2.278
39514W        W99259  44.781  14.194  14.860
39515W        W99260  18.147  38.340  13.407
39516W        W99261  31.537  39.914  10.594
39517W        W99262  19.283  32.039  13.447
39518W        W99263  44.781  13.713  13.906
39519W        W99264  26.098  15.592  11.564
39520W        W99265  32.501  14.772  13.862
39521W        W99266  15.769  25.172   3.798
39522W        W99267   0.439   0.286  13.918
39523W        W99268  34.518   1.870   3.240
39524W        W99269  15.748  33.517   3.330
39525W        W99270  19.550  13.190   0.266
39526W        W99271   3.458   0.363  11.929
39527W        W99272  23.037  16.625  11.515
39528W        W99273  44.473  41.868  12.013
39529W        W99274   1.923  28.159   0.776
39530W        W99275  26.550  12.620   4.157
39531W        W99276   6.291   6.725   4.167
39532W        W99277   6.272  44.762  12.908
39533W        W99278  22.559  11.689   1.801
39534W        W99279  21.627  35.052  10.552
39535W        W99280  29.434  19.048  10.038
39536W        W99281  21.145  43.017   0.845
39537W        W99282   2.863   8.810  12.095
39538W        W99283  35.388  22.014  14.026
39539W        W99284  36.989  34.527   2.667
39540W        W99285  28.457  10.340  12.873
39541W        W99286   8.712  26.976  13.868
39542W        W99287  19.761  15.203  12.055
39543W        W99288  29.012  24.120  13.445
39544W        W99289  28.120  30.630   0.948
39545W        W99290  10.852  21.661  10.926
39546W        W99291  15.086  10.654   3.737
39547W        W99292   3.884   8.763   2.278
39548W        W99293   3.767  41.805   2.336
39549W        W99294  23.519  26.132   4.824
39550W        W99295  27.039   1.296   4.322
39551W        W99296  10.361   9.643   3.239
39552W        W99297  20.218   6.419  14.821
39553W        W99298   7.285  22.059   2.352
39554W        W99299  22.634  41.496   2.842
39555W        W99300  41.969  43.892  12.915
39556W        W99301   1.478   6.762  10.955
39557W        W99302  18.275  35.482  10.440
39558W        W99303  19.121  16.095   1.702
39559W        W99304   4.383  21.693  11.912
39560W        W99305   8.221  29.616  12.997
39561W        W99306  39.980   6.787   0.447
39562W        W99307  20.189  26.994   1.395
39563W        W99308   2.421  42.792  10.007
39564W        W99309  28.543  33.081   1.716
39565W        W99310   6.262   5.916   4.340
39566W        W99311   8.187  15.774  11.479
39567W        W99312  29.608  39.418   1.352
39568W        W99313  29.918  29.066  14.340
39569W        W99314  20.615  17.625   0.943
39570W        W99315  44.352   8.340  11.928
39571W        W99316   3.404   3.329   3.709
39572W        W99317  29.505  24.157   0.243
39573W        W99318  42.020  20.530  12.063
39574W        W99319   6.346   7.197  10.898
39575W        W99320  44.408  28.596   1.449
39576W        W99321  18.726  26.550   2.211
39577W        W99322  38.398   7.244  12.075
39578W        W99323  18.107   0.781   4.796
39579W        W99324  29.653  26.589   3.314
39580W        W99325   4.843  32.066   0.910
39581W        W99326  24.106  43.883  10.471
39582W        W99327  33.543  15.616   2.384
39583W        W99328   5.201  32.424  10.604
39584W        W99329  22.572  43.416  10.435
39585W        W99330  13.646  43.880  14.804
39586W        W99331   1.239   5.232  12.537
39587W        W99332  42.473  43.813   3.214
39588W        W99333  38.333  19.052  14.988
39589W        W99334  42.990  37.870   0.924
39590W        W99335  30.925  25.672   1.846
39591W        W99336  33.890  38.431  14.463
39592W        W99337  29.561  37.863  13.801
39593W        W99338  22.736   6.693   4.190
39594W        W99339  24.135  12.337  12.961
39595W        W99340   8.686   8.704   3.204
39596W        W99341   2.352   6.245   4.161
39597W        W99342  12.178  26.965   1.426
39598W        W99343  32.463  27.657   0.832
39599W        W99344  39.414  27.052   3.694
39600W        W99345  23.225  22.557  13.036
39601W        W99346   4.400  17.604   1.889
39602W        W99347  27.492  43.817   1.797
39603W        W99348  33.501  25.709   2.255
39604W        W99349   6.243  35.556   3.272
39605W        W99350  29.559  36.348   2.394
39606W        W99351  10.253   0.798   2.277
39607W        W99352  30.647  26.554   0.951
39608W        W99353  19.554   2.371   3.364
39609W        W99354   0.260  11.248  10.433
39610W        W99355  38.859   4.318   2.673
39611W        W99356   6.321  33.465  13.373
39612W        W99357  42.797  39.029  10.645
39613W        W99358  28.545   9.829  11.072
39614W        W99359   2.467  31.114   0.846
39615W        W99360  42.333  25.089   0.776
39616W        W99361  26.208  14.314   3.661
39617W        W99362  32.511  38.985   0.776
39618W        W99363  35.860   5.746  13.448
39619W        W99364  33.091  10.210  10.042
39620W        W99365  20.103  41.030  12.447
39621W        W99366  21.746  40.875   0.821
39622W        W99367  32.026  22.088  12.997
39623W        W99368   4.380   3.439  12.854
39624W        W99369  36.085  18.223   2.343
39625W        W99370  28.119  25.558   4.788
39626W        W99371   8.685  17.193   3.375
39627W        W99372  34.529   8.316   4.837
39628W        W99373  32.000  28.456   5.176
39629W        W99374  26.991   6.814  10.434
39630W        W99375  37.582   4.863   5.309
39631W        W99376  23.145  22.602   2.352
39632W        W99377  25.647  21.669   4.802
39633W        W99378   9.377  11.334  11.398
39634W        W99379  24.987  37.879   2.369
39635W        W99380  19.247   3.414   3.273
39636W        W99381  27.085  14.726   1.827
39637W        W99382   9.866  24.202  12.494
39638W        W99383   2.355  43.016   4.263
39639W        W99384  22.580   2.435   2.761
39640W        W99385   2.876  35.388   2.833
39641W        W99386  19.054  30.000  12.356
39642W        W99387  40.419   6.331  12.977
39643W        W99388  31.105  31.139   0.279
39644W        W99389  39.549  17.558  13.544
39645W        W99390  38.943  22.621   3.684
39646W        W99391  37.867  23.708   0.325
39647W        W99392   8.861   1.929  11.124
39648W        W99393  14.701  17.288  14.481
39649W        W99394  27.524  17.083  12.863
39650W        W99395  11.310  13.244  13.804
39651W        W99396  11.750   3.887   2.726
39652W        W99397  36.847  30.914  11.502
39653W        W99398  11.234  16.682  10.555
39654W        W99399  29.429  35.570   1.798
39655W        W99400  32.031  28.029   0.405
39656W        W99401  15.263  23.993  11.896
39657W        W99402  33.963  37.353  12.872
39658W        W99403  24.090  26.000   0.735
39659W        W99404  11.262  33.467   1.373
39660W        W99405  24.003  39.523   1.324
39661W        W99406   4.318  20.257   3.667
39662W        W99407  14.226   0.374  11.962
39663W        W99408  32.404  35.889  11.032
39664W        W99409  38.471  12.300   4.614
39665W        W99410  13.199  30.490  13.495
39666W        W99411   5.376  24.560  11.382
39667W        W99412   0.334  27.680  13.821
39668W        W99413  44.295  39.408   2.824
39669W        W99414  29.426  42.818   1.927
39670W        W99415  15.286   5.284   4.714
39671W        W99416  33.985   5.211  11.029
39672W        W99417  39.368  24.602   3.827
39673W        W99418  23.639  44.984   3.184
39674W        W99419  12.251  40.536   4.800
39675W        W99420  30.628   0.788  11.982
39676W        W99421  35.968  33.552   2.704
39677W        W99422  18.560  19.068   2.355
39678W        W99423  42.838  41.043   0.760
39679W        W99424  13.842  22.048  11.373
39680W        W99425  29.936  24.043  12.832
39681W        W99426  33.582  35.067   2.693
39682W        W99427  41.449  43.783  13.815
39683W        W99428  14.764  22.564  14.379
39684W        W99429  36.454  32.043   1.835
39685W        W99430  18.271  24.007  14.438
39686W        W99431  12.362  27.586  12.511
39687W        W99432  10.213  29.994  12.973
39688W        W99433  31.433  15.678   2.803
39689W        W99434  44.004  23.211  11.056
39690W        W99435  27.980  44.477   1.719
39691W        W99436  19.085   5.810  11.433
39692W        W99437  24.537   6.724  10.425
39693W        W99438   3.768  36.936  13.452
39694W        W99439  15.762  44.496   1.346
39695W        W99440  22.590  32.435  14.789
39696W        W99441   8.759  41.950   0.820
39697W        W99442  33.437   8.794  10.640
39698W        W99443   1.419  31.940   2.246
39699W        W99444  44.826  40.338  12.045
39700W        W99445  40.480   6.396  12.382
39701W        W99446  37.919  11.662  14.933
39702W        W99447  11.801  35.993  14.763
39703W        W99448  23.729   4.721   2.236
39704W        W99449  28.151  20.684   1.696
39705W        W99450  31.631   3.875  11.538
39706W        W99451  14.274  21.733   2.304
39707W        W99452  13.739  14.105  13.859
39708W        W99453   4.253  20.118   1.281
39709W        W99454  15.643  23.492  10.960
39710W        W99455   5.891  41.001  14.824
39711W        W99456   3.770  14.130   4.287
39712W        W99457   8.406  10.183   0.834
39713W        W99458  10.292  29.983  10.421
39714W        W99459  43.767  37.482  13.466
39715W        W99460  44.929  28.091   3.192
39716W        W99461  31.950  18.597   2.264
39717W        W99462   7.779   1.260   0.924
39718W        W99463   1.441  15.234   5.760
39719W        W99464  25.152  16.641  14.397
39720W        W99465  41.851   1.371  11.107
39721W        W99466   6.318  22.105   2.206
39722W        W99467  39.407   2.330  12.365
39723W        W99468  36.864  34.489  14.916
39724W        W99469   1.316  44.926  13.941
39725W        W99470  17.061  43.332   3.268
39726W        W99471  43.365  27.971  11.906
39727W        W99472   3.254  19.572   1.249
39728W        W99473  40.503  16.153   0.887
39729W        W99474   6.732  27.959   4.158
39730W        W99475  23.565  28.040  10.967
39731W        W99476  36.888   5.393   4.268
39732W        W99477   9.297  12.355  10.637
39733W        W99478  28.953   4.844  13.917
39734W        W99479  37.054  23.199  13.971
39735W        W99480  34.611   0.974  12.992
39736W        W99481  18.057  11.373   1.801
39737W        W99482   0.437   5.792   1.859
39738W        W99483  44.379  35.403  13.054
39739W        W99484  32.442   8.270   5.136
39740W        W99485  14.187  34.592   3.201
39741W        W99486  35.572  35.106  10.495
39742W        W99487  29.058  36.392  13.876
39743W        W99488  38.485  10.707  12.059
39744W        W99489  11.235  15.173  14.411
39745W        W99490  20.687  39.062   4.637
39746W        W99491  27.115   9.646   3.382
39747W        W99492  23.644  31.967   2.397
39748W        W99493  37.582  41.022  14.808
39749W        W99494   4.278  28.646  10.556
39750W        W99495  44.452  25.711  14.381
39751W        W99496  17.205  43.325   3.701
39752W        W99497  36.454  28.646  10.453
39753W        W99498  12.202  19.553   3.661
39754W        W99499  42.798  38.938   4.723
39755W        W99500  19.593   1.769  13.981
39756W        W99501  25.172  42.786   4.830
39757W        W99502   7.234  30.610  11.514
39758W        W99503  28.115  39.380   3.277
39759W        W99504  39.031  35.472   3.851
39760W        W99505  26.593  30.500   2.810
39761W        W99506  18.596   8.715  11.060
39762W        W99507  40.455   2.845   3.729
39763W        W99508  24.649  34.411  14.998
39764W        W99509  32.123   1.446  13.004
39765W        W99510  27.448  31.583  10.900
39766W        W99511  33.917  12.334   0.960
39767W        W99512  42.022  34.002  11.498
39768W        W99513  44.485  33.586   0.321
39769W        W99514  12.233  11.713  12.949
39770W        W99515  10.866   3.906   4.168
39771W        W99516  27.538  22.660   0.954
39772W        W99517  44.813   5.253  11.870
39773W        W99518   9.351  24.664  11.992
39774W        W99519  32.589  19.205  12.434
39775W        W99520  18.185  29.501   2.327
39776W        W99521  22.081  44.817   4.256
39777W        W99522   0.417  36.997   1.901
39778W        W99523  40.492   6.424   5.240
39779W        W99524  35.439  38.515  14.320
39780W        W99525  35.922  20.546   0.916
39781W        W99526  10.793  20.524   3.333
39782W        W99527  40.818  26.133  13.407
39783W        W99528  38.964   2.458   1.901
39784W        W99529   6.214  41.007   0.481
39785W        W99530  35.040  40.519   0.387
39786W        W99531  38.532  11.309  12.528
39787W        W99532  25.704  27.484  12.869
39788W        W99533  30.946   9.349   3.650
39789W        W99534  43.400   4.816   4.735
39790W        W99535  34.096   5.780  12.475
39791W        W99536  24.495   0.266  14.942
39792W        W99537  40.024  25.615   1.227
39793W        W99538  12.816  16.801   2.838
39794W        W99539   2.938  29.583   2.401
39795W        W99540  26.477   5.852   1.764
39796W        W99541  18.087  22.006   3.376
39797W        W99542  15.241   2.965   0.398
39798W        W99543   5.907  24.536   3.313
39799W        W99544  28.046   1.251  10.437
39800W        W99545  11.363  22.205  12.440
39801W        W99546  39.399  24.643   2.229
39802W        W99547  28.598  34.087  14.028
39803W        W99548   1.371   1.406  14.348
39804W        W99549  23.211   7.810  12.517
39805W        W99550  10.711  40.343   4.828
39806W        W99551  44.343   0.430  12.855
39807W        W99552  39.947  15.673  13.952
39808W        W99553  13.328  35.393   2.219
39809W        W99554  42.802  33.460  11.383
39810W        W99555   9.739  17.634   2.774
39811W        W99556  33.925  40.306  13.968
39812W        W99557   2.421  25.092  14.919
39813W        W99558  41.919  35.043   1.292
39814W        W99559  25.013   9.258   2.754
39815W        W99560   8.858  15.670   0.289
39816W        W99561  17.164  37.915  12.387
39817W        W99562  18.106   3.299  14.025
39818W        W99563  26.541   3.817   0.374
39819W        W99564   4.804  34.530  10.467
39820W        W99565  36.444  36.584  12.463
39821W        W99566   1.935  38.422   3.348
39822W        W99567  30.604  34.036  10.528
39823W        W99568  12.164  26.198  11.075
39824W        W99569  39.831  27.954   1.267
39825W        W99570   8.182  16.157  11.882
39826W        W99571  23.629  41.027  14.900
39827W        W99572  13.834   2.896   4.337
39828W        W99573  15.321  43.909  12.018
39829W        W99574  32.964  39.036   1.919
39830W        W99575   6.920  17.558  10.911
39831W        W99576  44.483  40.011  14.030
39832W        W99577   9.186  33.131  10.629
39833W        W99578  14.722  19.086   0.871
39834W        W99579  36.494  41.043   0.827
39835W        W99580  36.931  23.490  12.900
39836W        W99581  37.398  40.919   0.747
39837W        W99582  36.892  22.527   1.355
39838W        W99583  34.913   7.891  14.817
39839W        W99584  15.765   9.714  13.453
39840W        W99585  22.220  37.076   4.647
39841W        W99586   9.731  23.558   3.199
39842W        W99587  43.415  21.154   4.235
39843W        W99588   0.425  10.155  14.291
39844W        W99589  28.086  22.140   1.713
39845W        W99590  24.702  34.563   3.316
39846W        W99591  35.587  34.002   2.238
39847W        W99592   1.833  11.786  14.312
39848W        W99593   1.855  37.983   3.383
39849W        W99594  19.684  39.922   2.772
39850W        W99595   4.756   2.788   4.646
39851W        W99596  32.558  34.099  12.468
39852W        W99597   3.348  43.919  11.127
39853W        W99598  13.722  29.569  12.518
39854W        W99599  30.907  26.074   2.298
39855W        W99600   0.368  14.231   3.753
39856W        W99601  37.833   8.715  12.998
39857W        W99602   7.886  10.170  14.972
39858W        W99603  26.577  36.558   3.676
39859W        W99604  30.429   0.426   1.879
39860W        W99605  19.058  39.325   1.214
39861W        W99606   1.804  21.196   3.279
39862W        W99607  30.434  28.056  10.112
39863W        W99608  17.186   3.856  14.335
39864W        W99609  41.965  21.711   1.257
39865W        W99610  38.844  14.212   4.643
39866W        W99611  14.338  23.070  12.912
39867W        W99612  44.946   0.882  14.409
39868W        W99613  29.138  30.938   1.320
39869W        W99614   0.329  10.369  13.515
39870W        W99615  26.163   0.743  12.825
39871W        W99616   4.293   4.869  10.918
39872W        W99617  20.156  28.031  14.947
39873W        W99618  23.590  23.637  10.625
39874W        W99619  27.118  24.719   1.792
39875W        W99620  27.572   4.215  12.543
39876W        W99621  13.201  25.565  14.316
39877W        W99622  38.891  11.237  12.444
39878W        W99623  14.826  34.008   3.664
39879W        W99624  15.310  15.763  11.485
39880W        W99625  38.915  29.127   1.743
39881W        W99626   9.370   8.824  10.083
39882W        W99627  22.199  10.833   1.798
39883W        W99628  40.012  19.204  11.018
39884W        W99629  40.937  32.533  10.537
39885W        W99630  25.200  12.234  14.871
39886W        W99631  29.120   5.197   0.382
39887W        W99632  15.118   5.879   3.211
39888W        W99633  25.056  13.202   1.283
39889W        W99634  30.424   8.390   0.798
39890W        W99635  20.200  20.244   2.868
39891W        W99636  19.675  36.543   3.848
39892W        W99637   9.174  26.161  11.958
39893W        W99638  40.466  22.206   1.706
39894W        W99639  36.920  11.150   3.755
39895W        W99640   2.926  10.190  12.853
39896W        W99641  39.054  25.004  11.969
39897W        W99642   7.700  41.351  13.331
39898W        W99643  17.260  31.537  14.404
39899W        W99644  43.288  27.672  12.062
39900W        W99645  27.660   4.219   4.124
39901W        W99646  27.450   0.763  14.275
39902W        W99647  32.132  11.254  12.095
39903W        W99648   0.805   0.793  12.867
39904W        W99649  27.110   8.773  13.835
39905W        W99650  16.206  38.889   3.344
39906W        W99651  16.797   7.775  13.835
39907W        W99652  44.275  18.173   4.655
39908W        W99653  24.717  11.860   1.359
39909W        W99654   1.790  39.945   1.903
39910W        W99655  33.119  28.488  11.453
39911W        W99656   3.434   4.235   2.180
39912W        W99657  32.628   2.912  12.525
39913W        W99658  31.018  41.294   2.284
39914W        W99659  15.738   9.180   4.648
39915W        W99660   4.371   1.775   3.159
39916W        W99661  44.991  42.929  11.024
39917W        W99662   5.278   9.208   0.760
39918W        W99663   5.736   7.310  10.502
39919W        W99664  21.666  17.739   2.707
39920W        W99665  20.588  29.625  13.400
39921W        W99666  33.547  16.648   1.283
39922W        W99667  32.980  13.251   0.967
39923W        W99668   6.809  34.530   3.377
39924W        W99669  22.009  13.280  14.992
39925W        W99670  24.992  10.314  14.374
39926W        W99671  21.037   3.242   4.329
39927W        W99672  34.535   2.936   1.757
39928W        W99673  44.288  39.453  11.109
39929W        W99674  34.902  16.165  10.456
39930W        W99675   4.276  38.921   0.270
39931W        W99676  10.383   4.328  14.490
39932W        W99677  31.052  10.223  12.948
39933W        W99678  29.651  24.222   1.364
39934W        W99679  41.845   8.750  14.902
39935W        W99680  13.600  12.811   3.204
39936W        W99681   3.955  11.210  13.020
39937W        W99682  27.529  24.606  11.021
39938W        W99683  30.551  41.787  11.535
39939W        W99684  22.081  42.818   3.858
39940W        W99685  11.862  20.640   0.771
39941W        W99686   0.412  26.979   1.809
39942W        W99687  19.557  32.932   2.355
39943W        W99688   4.346  32.457   1.432
39944W        W99689  42.481   0.309  10.644
39945W        W99690  38.833  12.700   1.753
39946W        W99691  41.019  38.033   1.730
39947W        W99692  31.128  24.657  14.292
39948W        W99693  18.768  41.988   4.303
39949W        W99694  23.990  44.346   5.273
39950W        W99695  28.504   8.855   0.861
39951W        W99696  44.868  25.115  11.045
39952W        W99697   8.695  13.261   2.216
39953W        W99698  29.486   3.875   3.232
39954W        W99699  19.679   6.690   3.363
39955W        W99700  35.421  44.932  14.368
39956W        W99701  24.030  20.188  10.950
39957W        W99702  40.478  21.099   2.893
39958W        W99703  36.404  28.067   4.295
39959W        W99704  11.130   4.246  11.999
39960W        W99705  37.863  28.052   1.404
39961W        W99706  13.710  26.698   3.165
39962W        W99707  38.467  35.563   3.663
39963W        W99708  12.220   8.877   2.299
39964W        W99709  33.072  29.078  12.415
39965W        W99710  28.177   7.279   2.225
39966W        W99711  19.613  34.091  10.479
39967W        W99712  18.549  23.520  13.410
39968W        W99713   2.806  34.965   1.409
39969W        W99714  36.547  31.409   3.864
39970W        W99715   4.939  43.866   1.729
39971W        W99716  44.266  41.415  14.864
39972W        W99717  42.976  19.559  14.378
39973W        W99718  36.552  20.541  13.451
39974W        W99719  29.656  28.628  13.938
39975W        W99720  29.447  40.047  13.875
39976W        W99721   0.430  10.770   0.405
39977W        W99722  43.830  21.718   4.264
39978W        W99723  14.192  39.840  12.411
39979W        W99724  23.699   9.270   1.341
39980W        W99725  25.096  20.176  11.950
39981W        W99726  23.037  22.633  14.835
39982W        W99727  40.832   7.401   0.398
39983W        W99728  26.981  14.122   9.983
39984W        W99729  16.183  17.298  10.907
39985W        W99730  14.095  42.841   3.666
39986W        W99731  39.818  41.936   0.916
39987W        W99732  21.261  31.430   2.823
39988W        W99733   0.444  17.251   0.269
39989W        W99734  22.535  23.587   5.227
39990W        W99735   1.866  16.629   4.785
39991W        W99736   0.878  30.655   3.721
39992W        W99737   8.187   2.392  13.890
39993W        W99738  35.472  26.606  11.076
39994W        W99739  17.737   5.806   4.693
39995W        W99740  42.018  18.611  12.567
39996W        W99741   9.674   6.800  14.355
39997W        W99742  21.245  40.415   2.376
39998W        W99743  36.026  10.799   0.792
39999W        W99744  38.433  34.516   2.788
40000W        W99745  22.652  19.244   1.420
40001W        W99746  20.201  14.812   5.592
40002W        W99747   8.825  11.223  11.439
40003W        W99748  11.798  30.649  10.052
40004W        W99749  14.180  40.439  12.491
40005W        W99750   1.390  22.138   0.389
40006W        W99751  21.247  30.066   4.804
40007W        W99752   6.265  27.471  12.504
40008W        W99753   4.361  31.954  13.062
40009W        W99754  11.160   2.809  12.528
40010W        W99755  11.730  35.987   0.322
40011W        W99756  42.899   4.753  13.440
40012W        W99757   6.300   9.805   1.927
40013W        W99758   0.962  15.301  11.078
40014W        W99759  43.912  33.023   4.823
40015W        W99760  17.705  19.616   2.180
40016W        W99761  38.895  32.446   3.653
40017W        W99762   8.196  19.680   4.711
40018W        W99763  34.562  17.201  14.888
40019W        W99764  26.100  37.453   1.852
40020W        W99765  40.931  39.439  13.464
40021W        W99766  22.145   1.249   3.267
40022W        W99767  13.270  39.980  11.511
40023W        W99768  30.039   1.926  12.484
40024W        W99769  44.315   6.396  13.029
40025W        W99770  36.025  21.113   4.680
40026W        W99771  30.113  10.170  10.568
40027W        W99772  29.968  43.976  11.387
40028W        W99773   6.271  24.668   0.376
40029W        W99774  42.508  22.043   3.834
40030W        W99775  27.018  25.537  13.988
40031W        W99776  12.765  16.739   3.242
40032W        W99777  41.878  21.225   2.812
40033W        W99778  37.834  34.561  11.887
40034W        W99779  33.987  30.476   1.745
40035W        W99780  22.163  28.074   1.280
40036W        W99781   1.434  27.688   1.319
40037W        W99782  44.912  28.084  13.384
40038W        W99783  32.587  37.417   3.286
40039W        W99784   5.326  41.888  12.913
40040W        W99785  14.699  36.854   4.304
40041W        W99786  27.638   2.230   1.791
40042W        W99787  26.081  28.484  13.334
40043W        W99788  37.559   3.805  10.489
40044W        W99789  11.691   5.864  10.496
40045W        W99790  36.066  38.821  14.796
40046W        W99791  17.649  38.994  11.987
40047W        W99792  27.448  28.050  13.044
40048W        W99793  22.239  31.602  12.868
40049W        W99794   4.703  37.985   4.113
40050W        W99795  36.955  12.779  14.411
40051W        W99796  11.337  15.286   2.315
40052W        W99797  32.059  38.946   0.353
40053W        W99798   9.851   5.704  13.419
40054W        W99799   7.379  12.226  12.897
40055W        W99800  31.931  19.538  13.460
40056W        W99801  24.224  10.660   4.200
40057W        W99802  25.195  40.382  12.410
40058W        W99803  26.176  16.690   2.403
40059W        W99804  34.881  32.443  14.860
40060W        W99805  30.421  42.870  14.934
40061W        W99806  25.972  15.184   9.982
40062W        W99807   2.283   3.262  11.112
40063W        W99808  16.146  39.051   1.932
40064W        W99809  40.458   1.309  14.776
40065W        W99810  27.169  29.038   1.265
40066W        W99811  14.194   2.769  13.025
40067W        W99812  15.225  23.170   3.776
40068W        W99813  28.596  35.463   0.839
40069W        W99814  34.003   3.285  13.336
40070W        W99815  13.647  17.198  11.437
40071W        W99816  30.645   7.703  12.826
40072W        W99817  41.361   5.252   4.320
40073W        W99818   7.335   6.191  12.031
40074W        W99819  10.333  32.627   4.800
40075W        W99820  40.352  23.491  11.943
40076W        W99821  42.837  37.066   4.659
40077W        W99822   1.753  32.133  13.051
40078W        W99823  19.624  32.100   3.859
40079W        W99824  38.001   7.842   3.762
40080W        W99825  35.886  36.852  14.475
40081W        W99826  37.492  41.495   0.317
40082W        W99827   5.930   7.264   1.325
40083W        W99828  27.187  22.574  12.390
40084W        W99829   3.880   8.356   4.264
40085W        W99830  30.584  43.909   0.928
40086W        W99831  36.085   6.871  12.847
40087W        W99832  14.605  41.456  12.982
40088W        W99833  25.034  17.063   1.844
40089W        W99834  35.081  13.202   4.785
40090W        W99835  41.321  13.109  14.026
40091W        W99836  35.028  33.959   1.316
40092W        W99837  21.074  15.139   1.247
40093W        W99838  35.528  34.001  11.111
40094W        W99839  30.953  17.576  14.289
40095W        W99840  20.267   6.237   0.810
40096W        W99841   3.824  17.593  11.380
40097W        W99842  12.794  33.463  10.143
40098W        W99843  38.396  43.449   1.700
40099W        W99844  36.939  12.810  13.822
40100W        W99845  23.634  30.127  14.837
40101W        W99846   6.240  13.285  12.406
40102W        W99847  28.133   1.395   0.298
40103W        W99848  43.511  34.503   4.247
40104W        W99849  15.723   7.862  13.828
40105W        W99850  13.313  18.251  10.607
40106W        W99851  24.516  26.532   2.894
40107W        W99852  25.999  30.004  11.521
40108W        W99853  20.090  28.133  13.482
40109W        W99854  30.907  33.006   1.766
40110W        W99855   8.675  42.294  13.427
40111W        W99856   9.715  25.654   1.807
40112W        W99857  26.996   6.214   4.812
40113W        W99858   3.772   8.272  13.931
40114W        W99859  14.728  23.042  12.497
40115W        W99860   8.783  40.542  12.966
40116W        W99861  35.456  24.118  10.935
40117W        W99862  36.043  14.293   4.644
40118W        W99863  34.465  38.870  11.480
40119W        W99864   8.741  22.685   0.285
40120W        W99865  19.042   0.251  11.882
40121W        W99866  28.172  16.137   3.827
40122W        W99867   3.897   1.907   1.844
40123W        W99868  25.639  26.571   3.848
40124W        W99869  11.689   0.978   0.759
40125W        W99870  30.974  37.085   0.300
40126W        W99871  26.120  11.166   3.239
40127W        W99872   2.949  42.449  14.427
40128W        W99873  11.319  20.171  10.525
40129W        W99874  18.708  40.920  12.415
40130W        W99875  35.524  19.577  13.315
40131W        W99876   3.438  43.289   0.726
40132W        W99877  44.439  17.601  14.507
40133W        W99878   0.871  13.111   2.843
40134W        W99879  44.951  41.412   4.755
40135W        W99880  29.066  26.954   2.726
40136W        W99881  21.737   7.775  12.068
40137W        W99882  10.658  36.555  13.335
40138W        W99883  37.500   0.492   2.854
40139W        W99884  17.675  24.609   2.727
40140W        W99885   9.393  43.390  10.606
40141W        W99886  42.871  27.038  12.435
40142W        W99887  15.602  30.994   2.745
40143W        W99888  25.179  32.897   0.292
40144W        W99889  33.968  36.463   4.168
40145W        W99890  37.502  36.076  10.125
40146W        W99891  32.598  37.386  11.929
40147W        W99892  19.567  25.472  12.357
40148W        W99893  13.242  28.613   4.312
40149W        W99894   7.199  21.752  12.057
40150W        W99895  36.551  28.939   9.994
40151W        W99896  24.139   5.757  13.365
40152W        W99897  36.438   1.341  13.801
40153W        W99898  32.519   7.361   2.346
40154W        W99899   2.422  31.057   4.664
40155W        W99900  11.856  31.050  12.874
40156W        W99901  22.225  23.621   0.827
40157W        W99902  19.575  14.308  12.024
40158W        W99903  26.975  30.954  12.027
40159W        W99904  24.611  21.026  12.059
40160W        W99905  20.252   7.186   5.082
40161W        W99906  39.853  39.316  13.056
40162W        W99907   6.288  20.074  11.959
40163W        W99908  10.739  33.884  10.445
40164W        W99909   2.743  38.892   0.385
40165W        W99910  10.161  25.562   1.707
40166W        W99911  26.207  14.307   0.463
40167W        W99912  39.910  29.129   2.307
40168W        W99913  10.173  11.281  11.482
40169W        W99914  15.621   7.810  12.509
40170W        W99915  24.561  19.697  12.883
40171W        W99916  37.343  34.428  14.468
40172W        W99917  18.289  39.455   2.180
40173W        W99918  37.565  10.317  12.957
40174W        W99919   5.279   2.331  14.028
40175W        W99920  21.101  41.017  11.521
40176W        W99921  31.966   9.365   1.795
40177W        W99922  24.224  13.246  10.580
40178W        W99923  14.227   3.228   5.090
40179W        W99924  16.118  15.806  12.029
40180W        W99925  33.545  16.272  11.112
40181W        W99926  39.002   5.379   0.447
40182W        W99927  32.441  29.938   0.386
40183W        W99928  16.590  39.440  10.494
40184W        W99929  12.125  10.321  11.866
40185W        W99930   5.832  43.773   1.723
40186W        W99931   8.338  38.925  12.858
40187W        W99932   1.849  13.128   0.433
40188W        W99933  34.977  28.459   4.746
40189W        W99934  25.514  25.065   2.387
40190W        W99935  41.021  20.763   3.170
40191W        W99936  37.957  37.373   2.813
40192W        W99937  14.112  43.892   4.765
40193W        W99938  43.432  23.048   3.830
40194W        W99939  43.007  30.463  10.514
40195W        W99940  38.861  38.455  13.934
40196W        W99941  27.668  23.575   0.746
40197W        W99942   5.211  22.022  11.447
40198W        W99943   1.868  12.265   0.403
40199W        W99944  16.158  11.746   1.812
40200W        W99945  31.990   6.738  11.388
40201W        W99946  27.523  10.739   0.422
40202W        W99947   2.273   5.410  14.855
40203W        W99948   9.191  11.716   0.923
40204W        W99949  28.641  39.051  11.897
40205W        W99950  23.504  23.649   1.405
40206W        W99951   3.227  36.427   2.255
40207W        W99952  39.838  10.334   3.176
40208W        W99953   4.440  32.036  12.495
40209W        W99954  34.096  21.258   1.366
40210W        W99955   0.884  22.193   2.691
40211W        W99956   9.645   3.273  10.556
40212W        W99957  32.464  16.621   4.238
40213W        W99958  36.445  30.103  14.029
40214W        W99959   3.249  34.537   0.401
40215W        W99960   6.353  26.962  12.359
40216W        W99961  17.262  15.281   4.737
40217W        W99962  28.074   5.194   9.937
40218W        W99963  35.013  44.874  12.071
40219W        W99964  35.539   7.878  13.938
40220W        W99965  20.558  39.899   0.361
40221W        W99966  28.451  37.876  13.462
40222W        W99967   5.741  42.868   2.894
40223W        W99968   1.245   9.651   2.715
40224W        W99969  31.601   7.785  12.945
40225W        W99970  40.411  20.686   1.796
40226W        W99971  35.908  26.199   0.438
40227W        W99972  41.000  16.781  12.510
40228W        W99973  40.522  37.911   1.396
40229W        W99974  24.192  30.106   1.795
40230W        W99975  24.149  28.447   9.941
40231W        W99976   3.802  15.307   2.848
40232W        W99977  10.838  30.123   0.823
40233W        W99978  37.501  37.564  13.993
40234W        W99979  15.097  24.537  10.571
40235W        W99980  26.597  44.833  11.082
40236W        W99981  10.145  44.328  12.053
40237W        W99982   8.775  13.267  13.029
40238W        W99983  28.171  12.193  13.928
40239W        W99984  36.882  25.017   0.732
40240W        W99985  35.499  37.077  11.887
40241W        W99986   1.435  43.456   2.803
40242W        W99987   3.268  15.738   4.136
40243W        W99988  43.867  35.361   1.807
40244W        W99989  10.779  37.961   3.827
40245W        W99990  26.000  14.659   0.415
40246W        W99991  18.220  28.141  12.460
40247W        W99992  11.205  40.385  11.036
40248W        W99993  42.019  16.703   4.762
40249W        W99994  25.634  22.694   4.715
40250W        W99995  25.489  42.810  10.091
40251W        W99996  30.421  10.333  14.401
40252W        W99997  21.207   7.712  13.810
40253W        W99998   7.399   7.895  10.915
40254W        W99999  44.011  39.040   1.406
40255W        W    0   8.676  24.080  12.467
40256W        W    1  20.082   7.842  13.431
40257W        W    2   6.774  25.503  12.401
40258W        W    3  26.000  42.994   3.733
40259W        W    4   8.224  19.122   1.433
40260W        W    5  30.576  20.128   1.273
40261W        W    6   6.204  20.593  14.881
40262W        W    7  15.594   3.246   1.764
40263W        W    8  43.434  39.865  13.350
40264W        W    9  42.893  29.645  13.363
40265W        W   10  33.545  43.428   2.872
40266W        W   11  44.907  15.682   3.751
40267W        W   12   1.267   8.760  13.986
40268W        W   13  35.004  21.532   2.279
40269W        W   14  23.240  23.622   3.784
40270W        W   15  23.222  33.405  11.973
40271W        W   16   0.489   9.825  11.470
40272W        W   17   3.879  15.787  14.761
40273W        W   18  39.941   1.390  14.810
40274W        W   19  21.148  21.577   1.358
40275W        W   20  20.540  11.238  11.012
40276W        W   21  43.807  36.998  11.985
40277W        W   22   0.325  26.619  11.040
40278W        W   23  36.497  15.822  12.084
40279W        W   24   2.233   6.389  14.484
40280W        W   25  44.449  14.630   2.729
40281W        W   26  13.230   6.375  14.812
40282W        W   27  19.136  34.520   1.826
40283W        W   28  18.661   1.964   9.571
40284W        W   29   4.351  29.955  12.947
40285W        W   30   7.221  18.580  11.966
40286W        W   31  42.821   6.793  12.416
40287W        W   32  40.007  44.443   3.671
40288W        W   33  30.151  37.958   1.280
40289W        W   34  15.789   6.843   1.755
40290W        W   35  13.277  42.017  14.833
40291W        W   36  12.170   7.790  12.872
40292W        W   37  14.679  44.343  11.879
40293W        W   38   0.786  35.073   4.720
40294W        W   39   8.297  40.915  11.544
40295W        W   40  13.815  33.118   4.720
40296W        W   41  37.400  40.842  11.587
40297W        W   42  23.003  36.484   5.205
40298W        W   43  25.693  13.296   3.702
40299W        W   44  30.026   0.931  12.532
40300W        W   45  39.048  36.918   1.704
40301W        W   46  32.457   6.389  13.486
40302W        W   47  28.109   2.817  12.553
40303W        W   48  38.002  18.260  12.479
40304W        W   49  30.928   5.833  12.468
40305W        W   50  21.539  35.016   4.168
40306W        W   51  36.512  38.385   0.278
40307W        W   52  35.928  11.671   1.261
40308W        W   53  36.506  11.281  13.356
40309W        W   54  39.895  14.301  12.830
40310W        W   55  30.499  25.628   4.724
40311W        W   56   7.854   6.197   3.216
40312W        W   57  24.074   6.847   1.920
40313W        W   58  35.900  26.998  11.110
40314W        W   59  31.017  27.652   4.789
40315W        W   60  10.206  44.873  12.426
40316W        W   61  18.545  17.306   3.238
40317W        W   62  14.768  34.929   2.694
40318W        W   63   1.361  43.389  11.987
40319W        W   64  25.672  42.296  13.373
40320W        W   65  38.446  36.971  13.862
40321W        W   66  23.669  19.764   2.688
40322W        W   67  15.282  16.162  14.495
40323W        W   68  14.152  17.658   2.257
40324W        W   69  37.581  31.422   3.739
40325W        W   70  39.443   7.389   0.875
40326W        W   71  27.560  31.952  12.945
40327W        W   72  40.998  30.053   2.754
40328W        W   73  24.973  36.558   2.672
40329W        W   74  18.782   2.356   1.353
40330W        W   75   3.767   1.337   0.768
40331W        W   76  19.617   6.793  13.361
40332W        W   77  33.561  14.677   4.602
40333W        W   78  11.829  44.356   3.792
40334W        W   79  30.604   7.910  10.580
40335W        W   80  23.718   2.246  14.428
40336W        W   81  24.117   9.697   4.271
40337W        W   82  35.532   5.409   0.790
40338W        W   83  20.061   5.358   3.655
40339W        W   84  28.944  42.018   4.663
40340W        W   85  31.923   8.797   3.373
40341W        W   86   5.888  37.004   1.705
40342W        W   87  12.812  44.769   2.355
40343W        W   88  44.382  37.529   2.740
40344W        W   89  29.162  37.896   3.639
40345W        W   90  18.664  20.063  11.855
40346W        W   91   9.151   0.424   3.301
40347W        W   92   2.914  29.979  12.984
40348W        W   93  39.990  22.167   1.319
40349W        W   94  36.565  21.162   3.296
40350W        W   95  39.333  33.913  14.837
40351W        W   96  22.045  13.707   0.941
40352W        W   97  11.157  22.201   1.307
40353W        W   98  34.874  27.154  12.896
40354W        W   99  41.865   9.165  12.861
40355W        W  100  14.648  42.340   2.259
40356W        W  101  21.659   7.875  12.418
40357W        W  102   2.728   5.207  11.599
40358W        W  103  33.480  37.414   1.299
40359W        W  104  12.706  16.750  13.847
40360W        W  105  10.788  18.253  11.428
40361W        W  106  36.402  31.088   2.190
40362W        W  107   3.854   1.278   1.823
40363W        W  108  35.044  35.578  10.441
40364W        W  109  26.509  13.753  13.487
40365W        W  110  42.468   5.210   2.831
40366W        W  111   6.346  20.580   2.409
40367W        W  112  23.496  27.162   2.888
40368W        W  113   6.804   9.293   1.923
40369W        W  114  22.541  30.599  10.447
40370W        W  115  21.530  27.522   2.391
40371W        W  116  17.215  34.405  14.283
40372W        W  117   4.724  22.740  10.464
40373W        W  118   3.869   8.677  10.036
40374W        W  119   1.941  41.348   2.848
40375W        W  120   0.443  30.910  13.986
40376W        W  121  43.369  30.646  12.914
40377W        W  122  44.793  16.621   0.961
40378W        W  123  26.634   4.310   4.682
40379W        W  124  19.042  35.525  12.942
40380W        W  125   3.330  28.033  10.923
40381W        W  126   5.256  38.912   1.341
40382W        W  127  17.175   3.369   0.933
40383W        W  128  14.763  36.898   1.743
40384W        W  129   6.836  34.546  13.929
40385W        W  130  39.461  42.952  14.393
40386W        W  131  21.173  44.371   1.257
40387W        W  132  10.828  27.961  12.970
40388W        W  133  43.795   7.183   1.316
40389W        W  134  34.608   8.713   1.741
40390W        W  135   5.855  31.901   3.179
40391W        W  136  14.788  41.834  12.096
40392W        W  137  41.801  33.456   3.693
40393W        W  138  36.396  26.586   1.865
40394W        W  139  26.954  18.551   3.196
40395W        W  140   3.920  21.216   2.256
40396W        W  141  26.647  11.657  10.410
40397W        W  142  29.652   8.846   1.872
40398W        W  143  42.496  25.625  13.366
40399W        W  144  14.169  40.827   4.615
40400W        W  145  25.569  43.413  12.883
40401W        W  146  42.281  20.634  12.870
40402W        W  147  11.137  28.145  13.431
40403W        W  148   9.830  44.766  12.915
40404W        W  149  42.810   6.350   4.759
40405W        W  150  35.365  24.491   3.380
40406W        W  151   6.355   0.450   1.245
40407W        W  152  25.672  25.523  13.480
40408W        W  153  11.684  18.753   1.286
40409W        W  154  14.799   3.325   4.242
40410W        W  155  34.493   1.263  11.399
40411W        W  156  43.336  26.522   0.417
40412W        W  157  40.458  27.474   3.850
40413W        W  158  26.093  15.635   3.242
40414W        W  159  40.814  25.962  11.109
40415W        W  160  12.626  15.183  10.534
40416W        W  161   1.376  31.982  11.490
40417W        W  162  31.900  13.160  13.330
40418W        W  163  27.543  25.191   1.385
40419W        W  164  24.027  44.004  11.443
40420W        W  165  38.825  34.533  14.370
40421W        W  166   1.800  40.324  11.549
40422W        W  167  11.323  28.015   3.261
40423W        W  168  36.914  37.983  14.821
40424W        W  169  33.114  27.135  12.372
40425W        W  170  21.188  11.317   1.764
40426W        W  171  10.241   0.759   1.785
40427W        W  172  11.810  32.921  14.396
40428W        W  173  29.615  11.366  13.803
40429W        W  174  14.199  37.890   3.864
40430W        W  175  31.911  15.641  13.034
40431W        W  176  10.371  32.560   3.303
40432W        W  177   7.209   1.445  13.339
40433W        W  178  22.727  42.832  13.323
40434W        W  179   7.361  11.753  14.994
40435W        W  180  33.962  12.667  10.613
40436W        W  181  42.474  15.220   3.803
40437W        W  182  42.811   3.348  12.983
40438W        W  183   3.795  19.568   3.288
40439W        W  184  28.603   7.190   1.718
40440W        W  185  41.456   8.711   1.793
40441W        W  186  32.097   2.787   0.376
40442W        W  187   6.849  36.502  13.839
40443W        W  188  40.403  15.265   2.181
40444W        W  189   7.715   3.796   2.770
40445W        W  190  13.202  34.079  13.471
40446W        W  191  27.158  28.442   9.942
40447W        W  192  40.948  36.552   2.389
40448W        W  193  12.205   8.765  14.496
40449W        W  194  37.909  30.585  10.501
40450W        W  195  40.969  41.797   0.735
40451W        W  196  22.220  35.998   0.434
40452W        W  197  38.506  41.317  13.955
40453W        W  198  13.774   9.689   2.697
40454W        W  199  32.888   8.750  12.007
40455W        W  200  35.945  38.853   0.365
40456W        W  201   2.364  39.023  13.815
40457W        W  202  25.992   1.389   1.840
40458W        W  203  31.617  11.271  14.503
40459W        W  204  20.645  27.462   0.466
40460W        W  205  43.819  25.503   0.383
40461W        W  206  35.898  24.199  12.467
40462W        W  207  40.342  23.626  12.482
40463W        W  208  38.377  19.571   2.230
40464W        W  209  41.952   1.732   2.309
40465W        W  210  17.612  27.003   0.244
40466W        W  211  29.576   8.169  12.541
40467W        W  212  41.957   6.833  14.793
40468W        W  213  21.558   6.187  14.931
40469W        W  214  38.057  20.700   3.249
40470W        W  215  23.696  34.467   1.300
40471W        W  216  33.598  12.260   1.425
40472W        W  217  19.086  12.827   0.886
40473W        W  218  41.948  10.701  13.464
40474W        W  219   4.944  13.321  11.066
40475W        W  220  26.655  15.299  11.426
40476W        W  221   0.322  14.741   3.182
40477W        W  222  18.155   4.237   4.332
40478W        W  223  13.274   3.284  14.955
40479W        W  224  38.345   7.813  14.842
40480W        W  225  31.578  14.298   1.378
40481W        W  226  29.506  38.874   1.437
40482W        W  227   5.897  20.047  10.425
40483W        W  228  14.672  22.543   4.134
40484W        W  229  22.566  37.516   0.405
40485W        W  230  32.917   8.704   3.287
40486W        W  231  44.453  23.029  11.540
40487W        W  232  23.033  36.882  11.918
40488W        W  233   8.663  42.789   4.820
40489W        W  234  11.797  20.654   4.312
40490W        W  235  21.595   6.897   2.288
40491W        W  236  37.439  18.238  14.873
40492W        W  237   3.757  33.605   4.751
40493W        W  238  23.640  13.768   1.305
40494W        W  239  36.070  25.513  13.511
40495W        W  240   6.700  36.976   0.818
40496W        W  241  11.132  18.594   0.942
40497W        W  242   3.946   6.280   3.153
40498W        W  243   1.789  19.608  10.424
40499W        W  244  15.329  39.485  11.943
40500W        W  245  25.708  14.332   3.262
40501W        W  246   6.843  15.183  14.300
40502W        W  247  20.738  43.366  14.288
40503W        W  248  28.046  29.533   2.401
40504W        W  249  38.479   9.323  12.903
40505W        W  250  16.764   2.843  12.576
40506W        W  251  40.484  36.361   1.371
40507W        W  252   5.260  34.884  12.046
40508W        W  253  11.834  20.205  11.963
40509W        W  254  15.262  34.106   2.816
40510W        W  255  12.244  16.268   3.807
40511W        W  256  22.103  18.700   1.362
40512W        W  257  17.175  33.905   2.329
40513W        W  258  15.131   9.277   1.286
40514W        W  259  36.504   0.396  14.832
40515W        W  260  23.227  15.291   1.777
40516W        W  261  34.882  37.008  11.043
40517W        W  262  13.811  42.493  11.030
40518W        W  263  42.380  16.073  12.051
40519W        W  264  35.912  28.130   4.732
40520W        W  265  18.551  37.407   1.340
40521W        W  266  30.954   8.218   1.803
40522W        W  267   5.887  44.874   4.599
40523W        W  268   6.844  41.822  11.581
40524W        W  269  21.514   7.892   2.734
40525W        W  270  25.486   1.439   1.373
40526W        W  271   5.245  36.912   4.192
40527W        W  272  42.409  37.525  10.405
40528W        W  273  44.425  39.830   2.270
40529W        W  274  21.113  43.968   2.403
40530W        W  275   6.907  34.450  12.076
40531W        W  276  20.261  34.385   4.249
40532W        W  277   3.347  37.479  12.365
40533W        W  278  32.132  15.225   2.846
40534W        W  279  14.117  33.015   3.661
40535W        W  280  22.163  27.124  14.403
40536W        W  281  37.529  42.911  14.809
40537W        W  282   5.851  31.574   4.636
40538W        W  283  10.151  36.888  13.955
40539W        W  284   8.777  10.376   1.429
40540W        W  285   8.256  31.080   2.759
40541W        W  286  23.716  16.093  13.854
40542W        W  287  36.028  33.034  11.415
40543W        W  288  17.178  34.963  12.389
40544W        W  289  13.606  39.885   1.912
40545W        W  290  12.774   6.809   1.902
40546W        W  291  15.093  26.204  14.332
40547W        W  292  22.191   0.446  14.793
40548W        W  293  19.674  26.510   3.375
40549W        W  294  11.690   2.392  12.072
40550W        W  295  32.997  21.053   2.875
40551W        W  296  27.565  40.357   3.381
40552W        W  297   2.361  34.994  14.808
40553W        W  298   8.185  29.921  12.364
40554W        W  299  18.159  23.069   0.843
40555W        W  300  26.625  22.561  13.795
40556W        W  301  39.059  25.162  13.958
40557W        W  302  28.149  19.058  14.808
40558W        W  303  21.572  22.568  13.514
40559W        W  304  36.466  23.141  13.854
40560W        W  305  26.194   1.737   2.896
40561W        W  306  10.299  20.634   3.678
40562W        W  307  11.761   8.351   1.220
40563W        W  308  10.705  35.961  12.065
40564W        W  309  15.667  31.533  12.060
40565W        W  310  25.684   0.254   4.299
40566W        W  311   5.699  43.461   4.291
40567W        W  312  17.097  33.015   3.191
40568W        W  313  43.983  11.693   3.366
40569W        W  314  12.769   2.249  10.637
40570W        W  315   8.376   7.328   0.814
40571W        W  316  21.632  25.055  13.363
40572W        W  317   2.227  28.174  12.466
40573W        W  318   7.300  32.034  10.144
40574W        W  319   9.228   3.283  14.372
40575W        W  320  28.026  23.073  13.799
40576W        W  321  36.857  11.633  13.043
40577W        W  322  13.242   1.439   0.939
40578W        W  323  32.034  25.962  11.030
40579W        W  324   4.783  34.580   3.737
40580W        W  325  39.451   5.251  13.052
40581W        W  326  17.201  19.234   3.805
40582W        W  327  10.354  35.065   3.217
40583W        W  328   1.269  40.514  10.967
40584W        W  329  31.979  22.720   3.326
40585W        W  330  34.568  33.427  11.470
40586W        W  331  26.535  13.173   9.537
40587W        W  332  38.965  35.041  12.577
40588W        W  333   7.911  15.316   1.264
40589W        W  334  12.268   1.378   4.120
40590W        W  335  13.842   8.737   0.375
40591W        W  336   6.197   7.324  14.449
40592W        W  337  21.062  37.575  12.008
40593W        W  338  39.065  32.611  10.559
40594W        W  339  19.238  17.133  14.889
40595W        W  340   4.247  38.974  10.108
40596W        W  341  12.187  16.621   3.236
40597W        W  342  41.966  25.132   9.925
40598W        W  343  33.445  23.210  11.064
40599W        W  344  18.108   0.314  12.400
40600W        W  345  11.629  32.549  10.152
40601W        W  346  10.190  33.481   0.753
40602W        W  347   6.690  16.234   2.351
40603W        W  348  36.479  21.717  10.606
40604W        W  349  36.094  44.497   3.281
40605W        W  350  19.089  31.130  10.406
40606W        W  351  22.216  11.747  10.514
40607W        W  352  26.054  28.498   1.722
40608W        W  353  39.887   2.330  14.003
40609W        W  354  36.438  24.703   1.856
40610W        W  355  24.018   4.702  11.927
40611W        W  356  11.292   1.894  13.410
40612W        W  357  38.881  41.882  12.829
40613W        W  358   1.449  25.545  14.867
40614W        W  359  37.969  17.202   2.665
40615W        W  360  15.786  24.230  14.431
40616W        W  361   0.770  32.572   1.288
40617W        W  362  22.077  34.110  14.973
40618W        W  363  40.985  19.181  12.378
40619W        W  364  43.495  39.831   2.716
40620W        W  365  24.685  12.284  11.968
40621W        W  366  26.460  29.094   3.311
40622W        W  367   3.742  28.585  10.944
40623W        W  368  44.414  36.541   2.811
40624W        W  369  41.983   9.270  13.385
40625W        W  370   7.310  18.720  10.536
40626W        W  371  28.639  34.966  11.040
40627W        W  372  13.305   1.770   3.298
40628W        W  373  39.402  31.018  11.592
40629W        W  374  34.440  29.108  14.961
40630W        W  375  19.713  20.760   0.462
40631W        W  376   8.691  21.034  13.393
40632W        W  377  28.583  15.701  12.402
40633W        W  378   3.368   7.684  13.056
40634W        W  379  28.553  35.523   3.770
40635W        W  380  27.591   0.378   4.343
40636W        W  381  41.312  36.061   4.160
40637W        W  382  34.982  29.023  10.558
40638W        W  383  33.070   9.764  10.471
40639W        W  384  15.202  33.456   3.239
40640W        W  385   9.354  17.164   0.849
40641W        W  386  36.930   5.282  13.337
40642W        W  387  30.495  43.856   4.310
40643W        W  388  39.425  17.062  14.869
40644W        W  389  18.701   2.375   3.315
40645W        W  390  30.082  43.496   1.710
40646W        W  391  11.826  37.011   2.204
40647W        W  392   7.715  24.076   3.841
40648W        W  393  26.057  28.669   0.452
40649W        W  394   8.799  40.860   2.389
40650W        W  395  33.439   1.366   0.868
40651W        W  396  16.624  28.987   3.377
40652W        W  397  34.118  23.513  12.900
40653W        W  398  28.164  42.489   4.811
40654W        W  399  10.810  15.231   2.827
40655W        W  400  27.994  33.973  11.540
40656W        W  401   2.374  29.022  13.429
40657W        W  402   3.382  26.181   2.763
40658W        W  403  30.596  33.880  14.490
40659W        W  404  10.840  19.695  11.965
40660W        W  405  32.016  16.792  10.528
40661W        W  406  30.122   5.791  12.936
40662W        W  407  37.375  11.343  14.875
40663W        W  408  43.834   4.345   3.710
40664W        W  409  30.428  36.035   1.402
40665W        W  410   8.802  37.875  11.029
40666W        W  411   7.693  16.302   1.755
40667W        W  412   1.818   7.394   4.824
40668W        W  413  36.056  26.046  14.885
40669W        W  414  42.360  33.050  13.821
40670W        W  415  20.639  30.966   1.445
40671W        W  416  12.703   3.243   3.630
40672W        W  417  23.144  11.782   3.340
40673W        W  418  36.081  16.151   0.945
40674W        W  419   3.370  23.117   3.262
40675W        W  420   6.409  29.997  14.399
40676W        W  421  42.409  16.761   3.370
40677W        W  422  14.804  18.612   0.881
40678W        W  423  31.548   1.795   1.912
40679W        W  424   0.459  34.380   3.365
40680W        W  425  17.209  43.431  11.044
40681W        W  426   0.845  27.479   5.123
40682W        W  427  22.191  19.133  10.427
40683W        W  428  13.338  26.187  11.585
40684W        W  429  10.226  32.619  12.843
40685W        W  430  41.501  10.327   3.667
40686W        W  431  32.481  26.151  10.913
40687W        W  432  44.263  40.927   3.643
40688W        W  433  11.746  34.863   5.188
40689W        W  434  21.181   9.830  14.809
40690W        W  435  25.965  14.588  10.611
40691W        W  436   0.356  42.347   3.734
40692W        W  437  23.703  18.595   3.236
40693W        W  438  24.063   3.820  11.392
40694W        W  439  19.050  19.569   0.372
40695W        W  440  22.708  13.174   3.308
40696W        W  441  33.607  39.377  12.481
40697W        W  442  39.811  18.613  14.350
40698W        W  443  33.414  39.363   2.279
40699W        W  444  30.045   2.424   0.762
40700W        W  445  42.374  37.986   1.761
40701W        W  446   9.237   4.919   4.653
40702W        W  447   9.645  27.953   0.412
40703W        W  448   0.748  36.532  11.899
40704W        W  449   8.886   2.410   4.712
40705W        W  450  23.585  29.552   1.297
40706W        W  451  37.850  17.645   3.856
40707W        W  452  26.125  12.330  10.538
40708W        W  453  31.130  23.521  11.601
40709W        W  454  23.123  19.737  14.007
40710W        W  455  25.713  21.514  11.506
40711W        W  456   9.762  37.559  14.382
40712W        W  457  29.942  25.968   4.685
40713W        W  458  14.675  13.338  13.408
40714W        W  459  21.229   7.413  12.562
40715W        W  460  31.034  26.044   0.408
40716W        W  461  31.943   6.776   3.317
40717W        W  462  11.636  30.912  13.896
40718W        W  463  13.215  44.900  12.565
40719W        W  464  41.909   7.787  12.845
40720W        W  465   4.854   8.271  11.114
40721W        W  466  33.383  20.737   4.758
40722W        W  467   0.335   8.870   3.283
40723W        W  468  42.438  22.745  13.920
40724W        W  469  33.083  12.251   2.869
40725W        W  470  24.646  10.809   3.844
40726W        W  471  36.926  28.519   1.306
40727W        W  472   5.418  39.532  13.056
40728W        W  473  28.962  26.636  11.418
40729W        W  474  33.998  29.440  11.432
40730W        W  475  38.998  38.826   3.161
40731W        W  476  42.986  18.106   5.248
40732W        W  477  28.563   0.284   4.294
40733W        W  478   9.237   2.324  12.961
40734W        W  479   1.837   6.766   0.781
40735W        W  480  16.281  44.374  10.082
40736W        W  481  44.821  11.187  13.379
40737W        W  482  17.116  35.489  13.889
40738W        W  483   7.199   3.317   2.278
40739W        W  484   7.289  22.699   2.724
40740W        W  485   4.340  34.025   0.393
40741W        W  486  10.752  35.601   3.336
40742W        W  487  20.695  35.004  14.763
40743W        W  488   6.408  37.939   2.329
40744W        W  489  29.939  21.697  13.875
40745W        W  490  38.031   4.255  14.930
40746W        W  491  17.693  41.859   2.197
40747W        W  492  14.679  33.394   1.401
40748W        W  493  26.995   6.303  11.454
40749W        W  494  22.699  40.894   3.296
40750W        W  495  18.294  16.664   1.215
40751W        W  496   8.342  41.786  13.901
40752W        W  497  16.123  26.952   4.212
40753W        W  498  31.019  41.459  11.982
40754W        W  499  36.536   3.767  12.422
40755W        W  500  11.126  13.171   1.292
40756W        W  501  10.635  36.524   3.819
40757W        W  502   4.778  41.017  14.959
40758W        W  503   0.975   5.428  13.032
40759W        W  504  23.624  23.629   4.262
40760W        W  505  20.155  30.451   2.237
40761W        W  506  44.801  21.209   2.242
40762W        W  507  30.972  27.098   9.947
40763W        W  508  32.396   5.740  12.942
40764W        W  509   3.456  26.172   3.166
40765W        W  510  31.907  37.929  12.507
40766W        W  511  28.181  42.281   2.253
40767W        W  512  23.232   8.249  11.375
40768W        W  513  36.023  40.545   1.898
40769W        W  514  14.260  26.991   4.250
40770W        W  515  25.614  43.987  13.906
40771W        W  516   8.763  43.316  11.004
40772W        W  517   9.718  10.767  11.037
40773W        W  518  33.602  41.828  13.969
40774W        W  519  26.101   7.187   3.759
40775W        W  520  37.077  11.165  11.609
40776W        W  521  19.197  38.997   9.971
40777W        W  522  27.462  26.111  14.468
40778W        W  523  36.459  17.229  10.460
40779W        W  524  19.114   1.970   9.659
40780W        W  525  34.869  32.011   0.245
40781W        W  526   4.898  19.069  10.147
40782W        W  527  33.513  16.698   2.859
40783W        W  528   6.307  35.991   3.377
40784W        W  529   7.868   7.753  11.114
40785W        W  530  24.624  17.791   0.775
40786W        W  531   8.818  22.089  11.470
40787W        W  532   1.456   0.980  11.579
40788W        W  533  17.645   3.271   3.215
40789W        W  534  20.256   8.892   1.443
40790W        W  535  18.763   2.336  12.047
40791W        W  536  35.376  20.255  11.565
40792W        W  537  20.236   4.749  11.956
40793W        W  538  24.132  28.062  11.548
40794W        W  539  27.538  32.965  10.078
40795W        W  540  19.720   7.383  12.516
40796W        W  541   5.329  28.963  14.414
40797W        W  542  23.619  10.210  10.500
40798W        W  543  43.392  44.347   4.824
40799W        W  544  15.171   8.783   1.339
40800W        W  545  21.624  43.329   1.777
40801W        W  546  20.649  36.577  11.562
40802W        W  547  38.565  17.644   3.276
40803W        W  548   6.421  34.040  11.043
40804W        W  549  32.419  19.750   2.389
40805W        W  550  14.295  11.683   3.703
40806W        W  551  14.162  29.611  12.833
40807W        W  552  38.453   3.939   4.125
40808W        W  553  15.315  17.260  14.395
40809W        W  554  27.459  34.416   2.743
40810W        W  555  39.497  34.091  13.918
40811W        W  556  42.361  19.745   1.277
40812W        W  557  21.527  31.099  11.041
40813W        W  558  29.582   4.795   1.780
40814W        W  559  43.957  39.537   2.256
40815W        W  560  32.533  37.978   2.773
40816W        W  561  14.303   6.822  12.457
40817W        W  562  38.048  12.631   0.371
40818W        W  563  23.010  33.956  14.993
40819W        W  564  24.686   1.936  13.372
40820W        W  565  18.741  13.785  10.894
40821W        W  566  14.322  20.070  14.894
40822W        W  567   7.719  43.786  13.372
40823W        W  568  14.641   5.910   1.780
40824W        W  569  10.746   9.243  13.905
40825W        W  570  31.132   7.309  12.855
40826W        W  571  34.953  40.879   3.806
40827W        W  572  19.640  10.248  10.089
40828W        W  573  16.304   0.966   3.838
40829W        W  574  11.269  42.467  14.422
40830W        W  575  21.709  35.907  11.472
40831W        W  576  19.113  21.148   1.439
40832W        W  577  40.014  24.656  11.992
40833W        W  578  37.416  31.496  11.019
40834W        W  579   5.269  13.232  11.934
40835W        W  580   4.745  37.562   2.371
40836W        W  581  24.629   3.345  13.864
40837W        W  582   2.742  32.931  13.425
40838W        W  583  12.231  13.720  14.503
40839W        W  584   6.297  42.340   0.830
40840W        W  585  11.239  39.985   4.756
40841W        W  586   6.392  15.796   3.731
40842W        W  587   4.375  43.411   2.341
40843W        W  588  40.907  36.478   4.251
40844W        W  589   5.316  10.336   5.102
40845W        W  590  13.197   1.911  14.863
40846W        W  591   3.319  11.317  14.420
40847W        W  592  17.255  19.226   1.806
40848W        W  593  34.484   1.830  14.306
40849W        W  594  12.170  10.333   1.334
40850W        W  595  10.713  43.307  14.443
40851W        W  596  16.574  42.996   1.355
40852W        W  597  14.176   1.268   3.866
40853W        W  598  27.473  15.649   0.846
40854W        W  599  16.237   5.432  10.462
40855W        W  600   3.768  34.865   0.943
40856W        W  601  33.893   3.917  12.535
40857W        W  602   4.772  41.457  11.461
40858W        W  603  39.367   9.755  13.450
40859W        W  604  31.132  39.037  14.777
40860W        W  605  30.917  28.147   1.440
40861W        W  606  28.106  28.585  12.046
40862W        W  607   0.376  31.971  14.969
40863W        W  608  28.445  37.456  14.875
40864W        W  609  30.652  12.355   1.910
40865W        W  610  39.487   8.689   2.846
40866W        W  611   4.791  30.527  11.464
40867W        W  612  22.513   9.236  13.841
40868W        W  613  27.448  17.566  14.496
40869W        W  614  22.598  11.714  13.984
40870W        W  615  30.450  26.527   2.265
40871W        W  616  37.052  21.083  14.997
40872W        W  617   5.303   0.342  14.298
40873W        W  618  26.625  21.171  14.880
40874W        W  619  27.620  28.162   1.297
40875W        W  620   1.456   7.778   3.683
40876W        W  621  16.748   7.801  11.862
40877W        W  622   2.348   1.813  12.071
40878W        W  623  29.611  16.639   2.788
40879W        W  624  20.703  24.504  14.388
40880W        W  625   6.245  16.101  10.530
40881W        W  626  14.800  14.834  11.539
40882W        W  627  34.408  18.739   3.840
40883W        W  628  42.319  37.420  13.825
40884W        W  629   1.375  32.054   1.369
40885W        W  630  23.490  31.457   3.749
40886W        W  631  30.614  34.551  13.025
40887W        W  632   3.252  30.633   3.795
40888W        W  633  17.761  29.513  13.407
40889W        W  634  13.329  18.136   3.158
40890W        W  635  34.022  44.777   0.773
40891W        W  636  33.489  36.061  11.883
40892W        W  637   3.907   1.427  10.529
40893W        W  638  36.571  21.640   3.353
40894W        W  639  33.958  39.911   4.128
40895W        W  640  19.585  13.753   4.747
40896W        W  641  42.881  39.927   3.297
40897W        W  642  38.351  30.992   4.683
40898W        W  643  24.100  18.554  14.410
40899W        W  644  13.168  20.053   2.738
40900W        W  645  20.758  16.592   3.681
40901W        W  646   4.390  25.062   1.387
40902W        W  647  35.572  10.637   3.238
40903W        W  648  22.219  33.121   2.731
40904W        W  649  25.070  18.664   1.877
40905W        W  650  41.309  16.143   0.926
40906W        W  651  41.322  15.648   2.264
40907W        W  652  42.839  16.714  12.528
40908W        W  653  39.535  43.280  14.998
40909W        W  654  18.760  28.442  10.608
40910W        W  655  14.118  31.912  11.410
40911W        W  656   7.876  16.137  13.390
40912W        W  657  30.034  44.964  13.858
40913W        W  658  33.429  35.486   3.215
40914W        W  659  11.836  28.587   2.857
40915W        W  660  27.640   8.807  13.820
40916W        W  661  25.639  38.935  14.788
40917W        W  662   1.807  26.162  12.015
40918W        W  663  29.483  29.495   0.920
40919W        W  664   4.850  18.555   4.696
40920W        W  665  11.800  31.936   3.785
40921W        W  666   8.761   6.734   3.699
40922W        W  667   7.213   8.246  14.837
40923W        W  668  27.095  30.040   0.811
40924W        W  669  11.808  21.668   0.931
40925W        W  670  11.302  18.087   4.766
40926W        W  671  24.097  35.023   3.314
40927W        W  672  30.615  43.782   2.294
40928W        W  673   0.974  42.851  10.091
40929W        W  674  17.798  38.464  12.863
40930W        W  675   3.913  27.962  10.466
40931W        W  676  19.612   0.907  12.990
40932W        W  677  24.070   6.771  13.857
40933W        W  678   9.734  18.571  13.315
40934W        W  679  34.972  34.527   9.955
40935W        W  680  44.965   9.282   2.312
40936W        W  681   4.408   7.248  13.806
40937W        W  682   3.894  36.564   4.263
40938W        W  683  21.670  35.074  11.485
40939W        W  684   4.782  10.356  12.856
40940W        W  685  34.013   6.295   0.888
40941W        W  686   8.243  40.547  13.328
40942W        W  687  33.111  44.888  11.077
40943W        W  688   0.470   2.341   2.226
40944W        W  689  12.294   8.661  12.427
40945W        W  690   7.714   3.456   5.272
40946W        W  691  39.465  32.631   1.890
40947W        W  692  33.016  21.241   3.742
40948W        W  693  42.917  39.017   0.965
40949W        W  694  38.987  38.969   4.295
40950W        W  695  22.186   0.760   4.156
40951W        W  696  15.807  24.054  11.393
40952W        W  697   7.700  16.788  13.803
40953W        W  698  29.495  25.658   0.848
40954W        W  699  31.092  31.405  13.543
40955W        W  700  13.683  16.182   0.347
40956W        W  701  16.251  40.960  13.392
40957W        W  702  11.808  20.169  13.311
40958W        W  703  44.915  17.718  12.056
40959W        W  704  35.997  39.376  10.563
40960W        W  705  35.920   0.280   1.808
40961W        W  706  13.189   5.352  13.805
40962W        W  707  44.260  43.840   0.255
40963W        W  708  33.961  32.055   3.226
40964W        W  709  41.831   6.256   3.330
40965W        W  710  30.490   8.674  13.479
40966W        W  711   8.281   7.792   4.267
40967W        W  712   3.360  44.963   0.260
40968W        W  713   4.806  16.594   2.309
40969W        W  714  26.064  20.062   4.302
40970W        W  715  43.008  16.662   3.730
40971W        W  716  24.509   2.370  11.555
40972W        W  717  27.169  37.080   0.266
40973W        W  718   3.889  19.147   5.757
40974W        W  719  39.884  34.070  12.373
40975W        W  720  35.974  32.407   0.816
40976W        W  721  11.633  33.890  11.539
40977W        W  722  33.419   8.720  11.926
40978W        W  723  25.574  24.121   0.451
40979W        W  724  18.696  37.837  11.554
40980W        W  725  39.842  44.885   2.898
40981W        W  726  26.679  22.625   4.175
40982W        W  727  40.964  15.588   4.665
40983W        W  728  38.527   9.288   1.377
40984W        W  729   3.824  36.944  14.317
40985W        W  730   0.754  11.183   4.282
40986W        W  731  28.989   4.795  10.089
40987W        W  732  36.464  34.875   3.315
40988W        W  733  36.459  18.289  11.886
40989W        W  734  11.631  37.862   2.724
40990W        W  735  37.953  27.047  11.600
40991W        W  736  13.263  15.293  14.783
40992W        W  737  44.438  40.990  13.543
40993W        W  738  38.929  24.502   2.288
40994W        W  739  10.653  25.038   3.828
40995W        W  740  40.051   3.729   0.931
40996W        W  741   2.883  10.321  10.413
40997W        W  742  20.579  33.027   1.764
40998W        W  743   7.820  25.079   2.695
40999W        W  744  10.767  34.998   9.436
41000W        W  745  24.618  27.034  13.458
41001W        W  746  41.508  44.856  13.018
41002W        W  747  27.482  28.960  11.859
41003W        W  748  27.639  18.272   0.362
41004W        W  749  39.854  16.609  12.542
41005W        W  750   2.762  39.861  11.038
41006W        W  751  20.235  33.086   0.286
41007W        W  752  33.887  27.093  11.090
41008W        W  753  19.668   5.826  12.551
41009W        W  754  10.256  23.507  11.520
41010W        W  755   5.317  23.217   4.671
41011W        W  756  24.478  15.796  12.956
41012W        W  757   1.314  10.757  13.031
41013W        W  758  37.977  40.945   4.665
41014W        W  759   5.417  12.339   4.211
41015W        W  760  42.391  13.152  13.024
41016W        W  761  17.706  11.292  12.423
41017W        W  762   2.754  11.675   0.826
41018W        W  763   5.352   7.766  14.984
41019W        W  764  13.214  22.213   0.860
41020W        W  765  34.093  31.060   2.272
41021W        W  766  20.658   5.324   0.854
41022W        W  767   2.310  19.139  14.895
41023W        W  768   9.236  30.575   5.204
41024W        W  769  25.611   8.766  11.127
41025W        W  770  17.625   6.185   1.438
41026W        W  771  33.599   9.748   2.375
41027W        W  772   4.271  28.597  14.846
41028W        W  773  20.552  36.392  11.878
41029W        W  774   7.890   9.668   2.693
41030W        W  775  23.734  25.556   1.743
41031W        W  776   8.727   8.730  11.443
41032W        W  777  10.227  11.230   0.342
41033W        W  778  34.569  35.045   3.147
41034W        W  779  41.993   2.957   3.844
41035W        W  780  14.753  33.022  11.127
41036W        W  781  41.528  25.067   4.204
41037W        W  782  32.017  27.465   0.286
41038W        W  783  34.602  20.751   0.394
41039W        W  784  26.138   6.202   2.886
41040W        W  785  33.428  21.230   2.405
41041W        W  786  36.525  30.979   0.309
41042W        W  787  44.886  15.148  10.453
41043W        W  788  14.673  43.917   1.929
41044W        W  789  21.714  11.728   2.774
41045W        W  790   1.734  37.354  12.356
41046W        W  791   8.740   3.429  13.481
41047W        W  792  14.751   8.383   1.924
41048W        W  793  28.463   3.240  11.544
41049W        W  794  18.603  43.812   4.748
41050W        W  795  34.445   0.923  11.553
41051W        W  796  17.562  39.413   1.871
41052W        W  797  30.651  14.706   5.304
41053W        W  798  19.698   0.915  13.486
41054W        W  799  32.439  21.577   0.419
41055W        W  800  12.331  19.575  10.941
41056W        W  801  31.576   3.769   5.704
41057W        W  802  30.125  32.630   0.769
41058W        W  803  31.986  14.707   3.290
41059W        W  804  15.190  34.500   0.853
41060W        W  805  44.903  44.937   0.252
41061W        W  806  19.683  27.484  13.538
41062W        W  807  29.932   6.792   3.383
41063W        W  808   5.716  36.365   3.383
41064W        W  809  23.617   2.246  12.386
41065W        W  810  44.883  24.494  12.978
41066W        W  811  12.632  18.286  14.987
41067W        W  812  42.504   4.863  13.791
41068W        W  813   6.316   5.239  14.405
41069W        W  814   3.309  38.486  13.034
41070W        W  815  11.313  11.368   2.290
41071W        W  816  27.090   2.842  11.887
41072W        W  817   1.756  33.128   1.264
41073W        W  818   2.799  30.625  13.836
41074W        W  819   6.902   6.730  11.504
41075W        W  820   3.842   2.932   3.778
41076W        W  821  43.365  39.913   3.685
41077W        W  822  17.576  27.513  12.039
41078W        W  823  31.051  40.368   3.806
41079W        W  824  38.507  15.280   4.799
41080W        W  825  39.364  37.929  12.858
41081W        W  826  30.992  11.370  13.403
41082W        W  827   0.442   3.749  14.939
41083W        W  828  16.572  37.976  12.452
41084W        W  829  25.700  18.234   2.190
41085W        W  830  10.381  34.424  10.546
41086W        W  831  12.836  29.548  14.879
41087W        W  832  40.425   2.440   0.755
41088W        W  833  40.806  39.472   4.681
41089W        W  834  36.041  29.092   0.967
41090W        W  835  11.656  41.821   3.271
41091W        W  836   3.389   6.906   1.365
41092W        W  837  34.911   9.776   2.759
41093W        W  838  32.027  24.510  10.569
41094W        W  839  43.878  41.881   4.808
41095W        W  840   2.439   3.319  12.039
41096W        W  841  13.781  35.571   5.171
41097W        W  842  35.871  41.890  10.969
41098W        W  843  37.879  34.108   0.733
41099W        W  844  19.653  30.916   3.706
41100W        W  845   1.400  17.737   3.302
41101W        W  846  42.408   2.232   2.696
41102W        W  847  23.236  17.784   0.921
41103W        W  848  30.605  21.544  14.341
41104W        W  849  30.512  15.282   4.311
41105W        W  850  21.719  18.119  13.822
41106W        W  851  11.347  26.552  14.373
41107W        W  852  22.166   5.272  12.983
41108W        W  853  41.347   7.667  14.427
41109W        W  854  17.251  41.910  13.850
41110W        W  855  36.492  15.233  11.519
41111W        W  856   1.266  26.665  10.943
41112W        W  857  16.594  44.336  13.809
41113W        W  858   0.929  12.720  11.927
41114W        W  859  37.483  19.661  10.091
41115W        W  860  13.761  35.581   2.403
41116W        W  861  24.060  19.602   3.826
41117W        W  862  15.289  14.617  12.939
41118W        W  863  23.173   5.767  13.429
41119W        W  864  33.621  23.609   3.263
41120W        W  865  13.313  43.825   3.318
41121W        W  866  24.648  36.006  12.485
41122W        W  867  38.904  42.779   3.317
41123W        W  868   2.777  16.795   4.818
41124W        W  869  14.329  12.198  14.292
41125W        W  870   3.873  26.042  13.815
41126W        W  871   2.786   0.248  11.019
41127W        W  872  31.122   3.380   3.760
41128W        W  873   5.770  40.987  11.558
41129W        W  874   2.915  22.126   1.727
41130W        W  875  38.977  21.122   1.886
41131W        W  876  41.944  18.227  13.985
41132W        W  877  19.129  32.964  12.077
41133W        W  878  26.594  33.580   2.880
41134W        W  879   7.180  15.086   1.239
41135W        W  880  23.557  32.595   3.239
41136W        W  881  37.957  37.844  10.893
41137W        W  882  38.045   3.270  13.335
41138W        W  883  30.439   1.376   2.338
41139W        W  884  15.090   6.710  11.868
41140W        W  885  29.505  44.404   2.774
41141W        W  886  33.472   5.271  14.321
41142W        W  887   1.903  15.697  13.329
41143W        W  888   1.905   2.410  13.880
41144W        W  889  34.607  30.586  10.916
41145W        W  890  11.320  18.708   4.820
41146W        W  891  36.379   9.393   0.821
41147W        W  892   2.317   5.222  12.889
41148W        W  893   1.479  23.992   3.303
41149W        W  894   9.692  19.639  10.407
41150W        W  895  38.043  11.730   0.310
41151W        W  896  32.563  17.708  14.028
41152W        W  897  13.295  29.468   1.302
41153W        W  898  17.135   2.957   3.757
41154W        W  899  11.352   6.304   4.771
41155W        W  900  34.029   9.321  14.869
41156W        W  901  43.957  22.190  13.038
41157W        W  902  43.491  35.565  11.513
41158W        W  903  44.820  38.033  14.431
41159W        W  904  43.312  32.426  10.632
41160W        W  905  26.061  17.576   4.216
41161W        W  906  27.624  32.456   0.304
41162W        W  907  37.383  19.775  10.931
41163W        W  908  30.066  29.663   3.794
41164W        W  909   6.697  39.837   0.880
41165W        W  910  28.620   4.320   5.733
41166W        W  911  37.422   0.410  13.480
41167W        W  912  13.167  32.582   0.837
41168W        W  913   2.312  40.864  10.630
41169W        W  914  12.117  16.738  13.940
41170W        W  915  18.097  29.119   3.634
41171W        W  916  35.370  34.024  14.919
41172W        W  917  11.719  21.111  10.070
41173W        W  918  36.092   7.754   4.309
41174W        W  919  22.636  12.230  10.909
41175W        W  920  35.559  31.146  11.949
41176W        W  921  38.937  10.216   3.773
41177W        W  922  36.484   2.232  11.011
41178W        W  923  43.441   6.728  11.474
41179W        W  924   1.919  18.601   0.318
41180W        W  925  27.171  24.621   4.804
41181W        W  926  33.085   3.287   2.229
41182W        W  927  37.869  30.981   1.306
41183W        W  928   9.222   3.433  11.560
41184W        W  929  24.639  39.410  12.545
41185W        W  930  13.830  18.636  13.439
41186W        W  931  13.294   9.278  13.326
41187W        W  932   2.298  23.188  10.900
41188W        W  933  24.101   2.392  10.633
41189W        W  934  11.151  20.576   4.296
41190W        W  935  31.446  16.226   1.221
41191W        W  936   4.210  37.494  11.393
41192W        W  937  26.532  15.195   0.288
41193W        W  938  15.278  33.988  13.465
41194W        W  939  17.247  14.640  14.787
41195W        W  940  27.607  25.191  11.486
41196W        W  941  28.147   3.795  14.346
41197W        W  942  27.137  19.063   4.287
41198W        W  943   5.903  24.708  10.577
41199W        W  944  20.166   7.767  12.004
41200W        W  945   9.259   4.242  11.558
41201W        W  946  15.652  22.006  12.463
41202W        W  947  13.788  40.531  10.922
41203W        W  948  25.976  29.525  12.358
41204W        W  949  21.218  40.004  12.438
41205W        W  950  31.916  12.727   0.266
41206W        W  951  43.814   7.866  12.561
41207W        W  952   8.841  37.486  12.361
41208W        W  953  23.183  40.844   4.835
41209W        W  954   4.385   0.442   0.270
41210W        W  955  20.701  27.151   2.886
41211W        W  956  32.119  38.371  14.456
41212W        W  957   9.230   6.294  12.510
41213W        W  958   6.914  31.068   0.925
41214W        W  959  40.315  43.510   2.296
41215W        W  960  21.139  12.678   0.347
41216W        W  961  10.327  35.942  14.472
41217W        W  962  42.832   3.777   3.275
41218W        W  963  31.436  26.000  10.463
41219W        W  964  11.134  14.619  11.474
41220W        W  965   6.285  15.793  12.830
41221W        W  966  36.474  20.118  11.578
41222W        W  967   9.310  39.494  14.980
41223W        W  968  32.912  16.197   3.237
41224W        W  969  40.348  33.441  13.938
41225W        W  970  19.138  26.665   4.130
41226W        W  971  39.846   0.877   0.254
41227W        W  972  36.970  32.107   0.771
41228W        W  973  33.903   7.187  14.900
41229W        W  974   0.913  10.170  14.949
41230W        W  975  37.921  43.943   4.222
41231W        W  976  29.471  42.888  13.451
41232W        W  977  13.167   9.298   0.354
41233W        W  978  19.061  23.627  10.534
41234W        W  979  28.994  22.133   3.751
41235W        W  980  42.340  17.099   3.850
41236W        W  981  37.543   9.162  11.449
41237W        W  982  25.060  11.823   1.297
41238W        W  983  19.694  44.496   3.851
41239W        W  984  44.310  14.328  12.351
41240W        W  985  15.708   6.749  11.097
41241W        W  986  37.854  11.236   1.740
41242W        W  987  33.944  16.119   2.351
41243W        W  988  34.387  22.693   2.663
41244W        W  989   0.429  38.056  14.320
41245W        W  990   1.826   6.360  11.950
41246W        W  991  41.454  11.839  12.446
41247W        W  992  36.923   9.807  12.066
41248W        W  993  24.090  31.555  11.532
41249W        W  994  14.150  42.483  13.864
41250W        W  995  29.068  34.076   2.357
41251W        W  996  17.219  11.331  14.791
41252W        W  997   2.887  22.068   0.350
41253W        W  998  32.411  30.007  13.495
41254W        W  999   8.851   9.808   1.427
41255W        W 1000  17.609  27.964  12.406
41256W        W 1001  20.070  17.124   4.327
41257W        W 1002  22.581  17.595  10.548
41258W        W 1003   7.279  40.003  13.453
41259W        W 1004  30.976  25.628  14.300
41260W        W 1005   9.772  14.235  10.629
41261W        W 1006  40.446   3.290   3.337
41262W        W 1007   3.450   0.350  10.598
41263W        W 1008  11.259  20.593  12.879
41264W        W 1009  41.872  16.124  12.854
41265W        W 1010  43.791   2.882   1.869
41266W        W 1011   3.731   0.394  14.871
41267W        W 1012   5.737  26.652   2.182
41268W        W 1013  36.080  22.203   0.820
41269W        W 1014  32.629  17.612  10.073
41270W        W 1015   5.846  19.546  12.058
41271W        W 1016  26.004   4.349  14.900
41272W        W 1017  41.885  23.506   2.685
41273W        W 1018  43.811   9.386  12.920
41274W        W 1019  29.062  19.070   3.186
41275W        W 1020  31.975  26.167  13.480
41276W        W 1021  27.149  27.494   1.221
41277W        W 1022  36.464  13.791  13.461
41278W        W 1023  38.421  42.329  13.063
41279W        W 1024  39.517  18.564   1.412
41280W        W 1025   8.868   8.262  12.072
41281W        W 1026  36.964   6.806  12.544
41282W        W 1027   0.304   0.932   3.300
41283W        W 1028  32.478  33.530  10.924
41284W        W 1029   5.798  24.597  11.492
41285W        W 1030  27.510  42.513  12.864
41286W        W 1031  32.521  33.527  10.066
41287W        W 1032  16.217  31.079  13.943
41288W        W 1033  30.147  39.458  11.402
41289W        W 1034  34.878  36.374  14.760
41290W        W 1035  26.633  33.461   4.135
41291W        W 1036  31.106   5.796  14.289
41292W        W 1037   1.973   9.316   3.764
41293W        W 1038   0.794  10.372   4.125
41294W        W 1039  20.626  15.666   1.231
41295W        W 1040   8.671  34.934   0.948
41296W        W 1041  24.986   9.153  10.980
41297W        W 1042   1.418  41.331   3.829
41298W        W 1043  20.573  36.995   1.810
41299W        W 1044  17.780  27.190  13.981
41300W        W 1045  43.500   8.841  13.509
41301W        W 1046  10.144  41.933   3.324
41302W        W 1047  24.616  19.219   2.267
41303W        W 1048  39.332  36.365  14.329
41304W        W 1049  18.738   0.416  11.967
41305W        W 1050  30.515  22.096  14.011
41306W        W 1051  24.163  24.156   0.782
41307W        W 1052  23.578  12.780  12.881
41308W        W 1053  44.415  13.808  10.442
41309W        W 1054  23.038  25.205   3.838
41310W        W 1055  35.958  37.453  14.927
41311W        W 1056  34.377   6.823   3.220
41312W        W 1057  25.687  16.632   0.763
41313W        W 1058  43.950   2.915   2.408
41314W        W 1059  32.633   1.801  10.554
41315W        W 1060   5.711  31.477  11.465
41316W        W 1061  11.733   2.910  10.977
41317W        W 1062  18.192  17.639   3.386
41318W        W 1063  28.454  24.002   0.840
41319W        W 1064  33.029   1.405   1.305
41320W        W 1065  39.432  20.229  11.482
41321W        W 1066  31.940  44.459   2.404
41322W        W 1067  10.711  40.842   4.604
41323W        W 1068  27.598   3.815   4.651
41324W        W 1069   8.768   6.233   5.225
41325W        W 1070  20.255  31.474  13.484
41326W        W 1071  41.430  34.472  11.451
41327W        W 1072  25.636   2.356  14.431
41328W        W 1073  19.610  11.740  13.029
41329W        W 1074  20.260  10.359   0.781
41330W        W 1075  31.513   9.360  14.964
41331W        W 1076  41.916  30.910  10.955
41332W        W 1077  26.568  36.348   5.181
41333W        W 1078   2.742  43.962   0.269
41334W        W 1079  17.260  31.094  11.390
41335W        W 1080  31.031  36.937   0.886
41336W        W 1081  32.438  26.096  12.351
41337W        W 1082  10.827  10.384  14.365
41338W        W 1083  35.420   1.324   3.309
41339W        W 1084  32.505  24.590  11.014
41340W        W 1085  20.252  32.548  13.837
41341W        W 1086  32.505  31.632  12.495
41342W        W 1087  33.972  40.410   2.824
41343W        W 1088   3.434  35.064   1.876
41344W        W 1089  22.037  38.379  11.997
41345W        W 1090  28.056  28.511  10.071
41346W        W 1091  15.136   0.880  13.493
41347W        W 1092   3.898  34.381   2.207
41348W        W 1093  24.570  32.464  14.940
41349W        W 1094  32.012  10.736   3.199
41350W        W 1095  38.003  42.475   0.862
41351W        W 1096  18.637  31.048  10.644
41352W        W 1097   6.346  26.188  12.899
41353W        W 1098  10.316  14.641  13.856
41354W        W 1099  40.050   8.898   1.884
41355W        W 1100  11.659  18.684   3.312
41356W        W 1101   8.786   5.261  14.930
41357W        W 1102  19.061   1.819  14.899
41358W        W 1103  21.536  14.674   1.229
41359W        W 1104  33.035  21.620   2.290
41360W        W 1105  31.098   0.744   3.160
41361W        W 1106  12.825  42.450  14.873
41362W        W 1107   8.205  15.636   3.673
41363W        W 1108  36.965  24.985   4.628
41364W        W 1109   1.401  38.972  14.506
41365W        W 1110  16.697  10.844  12.575
41366W        W 1111  26.660  36.874   0.406
41367W        W 1112  19.130  29.940  14.433
41368W        W 1113   2.309   8.805   1.696
41369W        W 1114  11.700  24.123  12.969
41370W        W 1115  33.920  23.577  10.930
41371W        W 1116  24.720  33.119   1.840
41372W        W 1117  34.873  42.454   0.961
41373W        W 1118   1.327  23.081   2.851
41374W        W 1119  42.995  19.562   3.261
41375W        W 1120  32.926  25.637   3.230
41376W        W 1121   1.789  38.990   3.366
41377W        W 1122  35.911  30.573  10.626
41378W        W 1123  19.749   5.791   3.277
41379W        W 1124   6.269  30.428  12.366
41380W        W 1125  40.893   3.336   3.789
41381W        W 1126  10.219   9.692  11.111
41382W        W 1127  40.392  44.978  11.980
41383W        W 1128   8.852  42.403  11.054
41384W        W 1129  20.259  16.231   3.685
41385W        W 1130   6.892  11.696   0.894
41386W        W 1131  17.170  30.080  13.463
41387W        W 1132  28.565  30.645  12.957
41388W        W 1133  18.665  35.102   0.859
41389W        W 1134  22.515  34.430  12.456
41390W        W 1135   1.739  10.730  13.061
41391W        W 1136  11.634   6.719   4.122
41392W        W 1137  26.981  35.992  11.423
41393W        W 1138  13.113  23.544   2.831
41394W        W 1139   3.227  33.065  11.526
41395W        W 1140  44.421  10.704   2.775
41396W        W 1141  19.542  12.823   1.887
41397W        W 1142  14.241  12.189  14.810
41398W        W 1143  42.874  22.668  13.938
41399W        W 1144  42.787  17.683   0.961
41400W        W 1145  23.089  24.628   4.294
41401W        W 1146  29.525   1.773   2.866
41402W        W 1147  38.040  44.446  11.999
41403W        W 1148  38.544  43.489   1.239
41404W        W 1149  42.901  12.740  12.069
41405W        W 1150   5.248  13.824  13.813
41406W        W 1151  31.630   8.700   3.205
41407W        W 1152  29.448   4.380   3.631
41408W        W 1153   7.250  29.437  12.834
41409W        W 1154  38.072  13.313  12.044
41410W        W 1155   0.306  35.069   3.230
41411W        W 1156  43.303  44.765  13.452
41412W        W 1157   5.257   1.751  11.036
41413W        W 1158  44.964  33.877   3.373
41414W        W 1159  19.686  28.083   1.870
41415W        W 1160  19.137   1.751  11.566
41416W        W 1161  16.078  15.167  11.429
41417W        W 1162  26.069  31.537   3.224
41418W        W 1163   1.934   4.866  12.574
41419W        W 1164  24.483  26.589   0.921
41420W        W 1165  27.589  18.771  14.982
41421W        W 1166  27.653  40.888  11.956
41422W        W 1167  15.725   5.813   0.435
41423W        W 1168  26.701  43.482  13.830
41424W        W 1169  29.130  24.192  12.498
41425W        W 1170  37.561  20.730   0.769
41426W        W 1171  42.350  36.421  10.969
41427W        W 1172  32.946  34.469  10.607
41428W        W 1173   7.254  10.257   2.291
41429W        W 1174   5.423  20.558   3.330
41430W        W 1175  27.191  33.594   3.221
41431W        W 1176  37.432  15.598   0.435
41432W        W 1177  34.901  42.821   1.337
41433W        W 1178  13.816   4.932   0.812
41434W        W 1179  44.965   8.225  14.863
41435W        W 1180   8.302  27.176   0.737
41436W        W 1181   3.321   7.785   0.400
41437W        W 1182  13.717  15.642   0.300
41438W        W 1183   3.280  25.186  11.539
41439W        W 1184  26.514  40.035  13.491
41440W        W 1185   8.311  26.204   4.640
41441W        W 1186  13.685   0.394  11.491
41442W        W 1187  11.648   2.848  13.430
41443W        W 1188   4.253  11.844   4.741
41444W        W 1189  20.062  13.683   0.837
41445W        W 1190  20.600   9.181   4.667
41446W        W 1191  41.315  23.497  13.909
41447W        W 1192  11.287  22.011  14.443
41448W        W 1193  34.539  39.399  10.611
41449W        W 1194  26.002  14.189  10.992
41450W        W 1195  23.527  40.873  13.405
41451W        W 1196  21.091  17.157  12.953
41452W        W 1197  18.118  17.133  14.879
41453W        W 1198  40.377  10.803   4.160
41454W        W 1199   0.927  22.206   1.788
41455W        W 1200  15.594  10.731  12.865
41456W        W 1201   7.837  12.751   3.869
41457W        W 1202  35.980  21.163  12.009
41458W        W 1203  32.544  36.584   0.807
41459W        W 1204  32.481  29.118   2.887
41460W        W 1205   8.405  26.519   3.779
41461W        W 1206  11.831   9.698  12.491
41462W        W 1207  15.635   3.421   1.282
41463W        W 1208  16.763  21.037  10.534
41464W        W 1209  10.639  21.248  12.890
41465W        W 1210  27.184   1.903  14.773
41466W        W 1211  28.657  28.067   2.890
41467W        W 1212   7.764  19.069  13.969
41468W        W 1213   2.864  15.626  11.578
41469W        W 1214  33.409  41.306   2.385
41470W        W 1215  40.525  39.902   1.824
41471W        W 1216  22.683  25.148   0.280
41472W        W 1217  20.060  38.830  14.903
41473W        W 1218  10.760   3.770  11.034
41474W        W 1219  29.617  18.249  14.956
41475W        W 1220  34.379  23.578   2.705
41476W        W 1221  37.021   6.186   3.854
41477W        W 1222  30.985  38.468   3.325
41478W        W 1223  21.056   1.313   2.234
41479W        W 1224   8.773  34.957  12.515
41480W        W 1225  26.522  35.385  13.359
41481W        W 1226  34.897  25.586  12.402
41482W        W 1227  18.052  23.620   4.719
41483W        W 1228  20.532   0.480   4.634
41484W        W 1229   0.251  15.654  14.908
41485W        W 1230  21.677  21.596   3.699
41486W        W 1231  29.509   1.756  12.419
41487W        W 1232  10.873  42.479   4.605
41488W        W 1233  26.135  26.495   3.826
41489W        W 1234   9.284  36.994  14.881
41490W        W 1235  30.537  43.764   4.714
41491W        W 1236  36.986  18.267  14.837
41492W        W 1237  34.951  38.479   4.175
41493W        W 1238  20.273  13.796  12.037
41494W        W 1239   3.780  25.002   1.725
41495W        W 1240   5.391   3.228   1.260
41496W        W 1241  27.516  13.843  14.014
41497W        W 1242  18.268  31.996   0.452
41498W        W 1243   8.385  44.894   1.721
41499W        W 1244   1.950  11.326  11.460
41500W        W 1245  20.092  39.884  11.066
41501W        W 1246   6.845  44.435   4.143
41502W        W 1247  38.986  33.497   0.759
41503W        W 1248  44.841  34.105   1.899
41504W        W 1249  20.625  22.040   2.681
41505W        W 1250  24.061  38.426  11.914
41506W        W 1251  14.772  40.841  12.351
41507W        W 1252   7.842   9.831   0.904
41508W        W 1253  39.389  13.130  13.463
41509W        W 1254   6.326  13.608  14.002
41510W        W 1255   8.253   8.256   0.335
41511W        W 1256   6.717  31.601   1.329
41512W        W 1257  21.218  25.660  14.029
41513W        W 1258  20.587  30.971  12.949
41514W        W 1259   9.149  36.044  14.275
41515W        W 1260  30.109  39.483  10.496
41516W        W 1261   4.265  24.114  13.903
41517W        W 1262  35.981  30.159   0.389
41518W        W 1263   5.328  26.521   3.840
41519W        W 1264  10.138   4.443  10.640
41520W        W 1265  32.949  34.046  10.946
41521W        W 1266   6.193  22.023   3.720
41522W        W 1267   0.309  38.469   3.244
41523W        W 1268  25.626  34.397   2.796
41524W        W 1269  27.477  18.118   3.685
41525W        W 1270  32.015  31.471   1.306
41526W        W 1271   5.427  40.886   1.229
41527W        W 1272  29.663  44.958   4.332
41528W        W 1273  17.795  16.133   4.336
41529W        W 1274  22.698  16.683  12.979
41530W        W 1275  44.317  10.333  10.995
41531W        W 1276  18.555  21.640  10.642
41532W        W 1277  41.869  14.133  10.062
41533W        W 1278  30.119  18.259  12.895
41534W        W 1279  20.049  21.674  11.986
41535W        W 1280  28.566  40.975   3.786
41536W        W 1281  35.966  19.075  12.497
41537W        W 1282   4.833  27.446  12.448
41538W        W 1283   2.445  34.593  10.936
41539W        W 1284  15.627  41.412  11.584
41540W        W 1285   6.366  12.687   2.199
41541W        W 1286   0.259  12.790   4.300
41542W        W 1287  31.109  43.793   1.298
41543W        W 1288   9.683  10.764  10.607
41544W        W 1289  15.122  42.992  12.974
41545W        W 1290  33.379  32.557   1.833
41546W        W 1291  11.143  20.228   0.928
41547W        W 1292  15.314  28.169   0.759
41548W        W 1293   1.940  43.360   0.811
41549W        W 1294   5.716  32.046  14.854
41550W        W 1295  33.055  31.033  14.781
41551W        W 1296  37.971  20.110  11.978
41552W        W 1297  17.785   3.395  11.951
41553W        W 1298  19.223  30.093   2.339
41554W        W 1299  34.873  23.569   5.320
41555W        W 1300   4.431   9.738   0.856
41556W        W 1301   9.682  37.506  12.412
41557W        W 1302  35.393  42.915   2.877
41558W        W 1303   4.390  12.341   2.265
41559W        W 1304  39.942   6.219  12.847
41560W        W 1305   9.259  34.525  14.411
41561W        W 1306   7.752  25.586  11.095
41562W        W 1307  10.799   5.874   2.368
41563W        W 1308  21.654  44.814   4.179
41564W        W 1309  19.666  14.735   4.739
41565W        W 1310   2.359  16.142  12.052
41566W        W 1311  26.489  20.040   1.929
41567W        W 1312   5.699  27.013  10.439
41568W        W 1313   9.740   9.231  14.952
41569W        W 1314  31.408  19.626  13.435
41570W        W 1315  38.904  41.405   0.367
41571W        W 1316   8.889  35.957  14.790
41572W        W 1317   8.242  17.305   1.901
41573W        W 1318  34.116   3.364  14.023
41574W        W 1319  21.119  27.678  11.416
41575W        W 1320  20.645  27.680  14.509
41576W        W 1321  32.429   8.838   3.711
41577W        W 1322  25.489  23.100   1.729
41578W        W 1323   0.875  17.216  10.139
41579W        W 1324  15.609   7.748   2.815
41580W        W 1325  24.618  36.048   0.342
41581W        W 1326   9.799  22.100   2.244
41582W        W 1327  40.884   3.374   1.810
41583W        W 1328  29.939  25.021  10.450
41584W        W 1329  23.639  13.107  11.917
41585W        W 1330   8.380  41.533   2.184
41586W        W 1331   7.670  38.860   3.270
41587W        W 1332   0.403  36.016  14.831
41588W        W 1333   4.744  43.769  12.845
41589W        W 1334  34.372   0.746  13.322
41590W        W 1335  40.543  14.125   3.850
41591W        W 1336  30.659   5.414   1.895
41592W        W 1337  25.126  36.403   0.799
41593W        W 1338  32.945  35.976  14.971
41594W        W 1339  38.383  38.339  12.941
41595W        W 1340  41.985  21.533  14.960
41596W        W 1341  16.252  21.618  13.867
41597W        W 1342  31.464  33.604   3.835
41598W        W 1343  29.142  41.345   4.763
41599W        W 1344  16.670  15.741   4.737
41600W        W 1345   7.799  37.394  13.050
41601W        W 1346  35.073  25.625  14.862
41602W        W 1347  21.566   1.371   3.853
41603W        W 1348  41.939   7.912   1.310
41604W        W 1349  10.825  19.588   0.283
41605W        W 1350  14.735   1.355  13.821
41606W        W 1351   7.748  14.693   2.684
41607W        W 1352  10.333  11.647   0.833
41608W        W 1353  15.165   4.382   1.291
41609W        W 1354  39.833   8.796  13.017
41610W        W 1355   9.180   7.355   5.138
41611W        W 1356  19.181  38.456  13.360
41612W        W 1357  37.501  19.059   2.292
41613W        W 1358  17.692  23.166   3.171
41614W        W 1359  21.567  19.115  14.935
41615W        W 1360  35.027  17.563   2.240
41616W        W 1361   6.839  42.390   2.831
41617W        W 1362   8.350  18.284   4.269
41618W        W 1363   1.860  13.337  11.099
41619W        W 1364  13.291  22.619   0.758
41620W        W 1365  13.609  10.378   3.754
41621W        W 1366   7.324  44.341  11.914
41622W        W 1367   6.694  13.148  13.995
41623W        W 1368  36.413  25.475  13.831
41624W        W 1369  31.045  36.395   2.697
41625W        W 1370   8.755  39.997  11.885
41626W        W 1371  44.901  27.041   0.348
41627W        W 1372  32.489  30.107   2.408
41628W        W 1373  31.588  23.077   1.435
41629W        W 1374  24.980   7.858   2.685
41630W        W 1375  41.449  16.167  11.877
41631W        W 1376  30.053  35.362  12.538
41632W        W 1377  15.208  18.684   2.870
41633W        W 1378  42.807   9.840  11.406
41634W        W 1379  29.561  10.835  13.835
41635W        W 1380  25.195   9.290  13.896
41636W        W 1381   2.784  38.516  12.523
41637W        W 1382  11.130   7.731   2.227
41638W        W 1383  39.402  28.589   4.832
41639W        W 1384  43.426  10.219  12.033
41640W        W 1385  44.260  18.719   0.732
41641W        W 1386  42.975  23.613   2.779
41642W        W 1387   7.252  43.278  11.546
41643W        W 1388   0.486  33.043   4.351
41644W        W 1389  21.211  18.722  13.441
41645W        W 1390  37.559  37.582  12.384
41646W        W 1391  27.671  34.487   0.405
41647W        W 1392  40.489  36.529   2.825
41648W        W 1393  33.613  27.997  13.024
41649W        W 1394  16.107   3.891   3.706
41650W        W 1395  31.441  14.644   0.383
41651W        W 1396  14.337  34.470  10.575
41652W        W 1397  39.321  40.893  13.950
41653W        W 1398  35.858  36.030   0.417
41654W        W 1399  41.801  10.793   2.742
41655W        W 1400  30.936   0.973  13.506
41656W        W 1401   5.898   4.890   0.250
41657W        W 1402  19.159  16.634  10.961
41658W        W 1403  12.263  19.165   1.335
41659W        W 1404  32.429  30.580  14.858
41660W        W 1405  42.439  34.936  10.982
41661W        W 1406  42.024  38.428   4.268
41662W        W 1407  29.172   9.188  12.476
41663W        W 1408  42.385   9.717  11.083
41664W        W 1409   1.304   5.793   4.322
41665W        W 1410  22.614  21.105  11.411
41666W        W 1411   9.208  36.037   5.321
41667W        W 1412  21.646  25.710   0.475
41668W        W 1413   5.851  11.257   1.332
41669W        W 1414  24.600  18.145   2.866
41670W        W 1415  40.505  23.112  13.851
41671W        W 1416  44.336  44.866   1.902
41672W        W 1417  17.761  27.635  13.887
41673W        W 1418  18.728   1.357   3.745
41674W        W 1419  35.063   5.231  14.294
41675W        W 1420  40.376  12.612  12.994
41676W        W 1421  41.345  21.261   4.630
41677W        W 1422   2.239  35.493   4.241
41678W        W 1423  31.090  41.411   0.790
41679W        W 1424  20.040  12.839   4.832
41680W        W 1425   4.280  34.499  11.902
41681W        W 1426  30.162  30.656  14.916
41682W        W 1427  12.332   9.796   3.321
41683W        W 1428   2.868  23.103   9.924
41684W        W 1429  17.676  25.597   1.216
41685W        W 1430  40.388   7.770   0.319
41686W        W 1431  33.884  37.951   0.385
41687W        W 1432   2.376  11.242   1.878
41688W        W 1433   5.232   5.851   3.255
41689W        W 1434  27.669  28.665  10.583
41690W        W 1435  12.672   6.311   2.753
41691W        W 1436  13.761  33.466   1.297
41692W        W 1437  36.907  30.112  12.851
41693W        W 1438   5.225  27.514   1.855
41694W        W 1439  42.416   4.757   3.267
41695W        W 1440  22.252  35.567  14.418
41696W        W 1441   7.409  44.874   0.478
41697W        W 1442  12.853  11.660   3.297
41698W        W 1443   2.396   8.718  10.007
41699W        W 1444  15.645  32.070  11.980
41700W        W 1445   0.853  34.923   1.920
41701W        W 1446   8.196  15.218  13.448
41702W        W 1447  40.364  13.297  12.935
41703W        W 1448   7.794  26.137  14.508
41704W        W 1449  40.935  21.135  13.024
41705W        W 1450   6.343  32.034   2.248
41706W        W 1451  35.420   6.388   3.189
41707W        W 1452  27.453   6.203   3.817
41708W        W 1453   7.811  25.122  12.423
41709W        W 1454  20.097  11.190  12.437
41710W        W 1455  38.915  40.467  14.387
41711W        W 1456   0.386  22.155   0.473
41712W        W 1457  29.488  24.722   1.924
41713W        W 1458  39.546  31.020  14.807
41714W        W 1459  27.036   0.427  11.411
41715W        W 1460   5.317   9.361   1.876
41716W        W 1461  35.544  32.617  10.443
41717W        W 1462  33.129  38.933  13.330
41718W        W 1463  37.995   9.757   2.680
41719W        W 1464  31.900  27.959  11.919
41720W        W 1465  31.999  29.567   2.295
41721W        W 1466  10.811  22.520   4.690
41722W        W 1467  36.950  20.643   1.747
41723W        W 1468  16.737  42.811  10.483
41724W        W 1469  43.474  19.763   3.687
41725W        W 1470  28.573  21.110   4.271
41726W        W 1471  21.523  21.198  10.160
41727W        W 1472  29.490  43.511   2.735
41728W        W 1473  44.995  36.859  14.929
41729W        W 1474  42.403  31.620  12.013
41730W        W 1475  13.274  16.160  13.947
41731W        W 1476   7.226   7.777   0.285
41732W        W 1477  30.965  40.041   4.629
41733W        W 1478  18.237  31.455   1.326
41734W        W 1479  41.509   1.750  13.403
41735W        W 1480  20.670  22.627  13.330
41736W        W 1481   6.868  25.054  12.944
41737W        W 1482  24.566  11.279  10.479
41738W        W 1483  29.156   4.388   5.785
41739W        W 1484  42.910  33.123   4.277
41740W        W 1485  11.329  21.722  11.996
41741W        W 1486  16.569   7.192   1.439
41742W        W 1487   4.293  19.576   4.599
41743W        W 1488  30.953  12.253  11.526
41744W        W 1489  26.111  31.581  12.426
41745W        W 1490  35.542  10.646  12.914
41746W        W 1491   6.737  21.165   2.682
41747W        W 1492   6.373  42.943   0.386
41748W        W 1493  19.646  15.287   4.721
41749W        W 1494  32.017  31.964   3.857
41750W        W 1495   6.906  17.200  14.775
41751W        W 1496  14.184   3.324   2.288
41752W        W 1497  28.450   6.194  10.426
41753W        W 1498  37.013  17.156  12.467
41754W        W 1499  20.650   6.342   4.729
41755W        W 1500  27.128  19.262   2.727
41756W        W 1501   3.336  39.906  13.540
41757W        W 1502  29.513  42.313   1.889
41758W        W 1503  11.184  29.656  10.530
41759W        W 1504  17.074  29.994   9.965
41760W        W 1505  41.998  38.342   3.210
41761W        W 1506   8.344  31.428   4.174
41762W        W 1507  29.656  44.842  12.522
41763W        W 1508   7.736   4.306   3.381
41764W        W 1509  41.800  25.156   5.294
41765W        W 1510  35.906  27.161   4.620
41766W        W 1511  13.726  20.540   4.829
41767W        W 1512  27.500  17.626  12.531
41768W        W 1513  14.646  33.621  14.464
41769W        W 1514   6.421  33.587   4.121
41770W        W 1515  40.501  36.067   3.262
41771W        W 1516  21.048  29.634  13.055
41772W        W 1517   1.804  38.551  14.909
41773W        W 1518  40.955  30.439  10.952
41774W        W 1519  43.838  37.976   1.390
41775W        W 1520  21.695  25.188   3.684
41776W        W 1521  44.259   1.270  14.929
41777W        W 1522  12.132  41.028  13.805
41778W        W 1523  31.614  22.201   2.395
41779W        W 1524  37.063  14.792   1.368
41780W        W 1525  38.435  20.174   0.949
41781W        W 1526  22.568   4.870  14.283
41782W        W 1527  27.584  36.872   1.802
41783W        W 1528  23.201  43.889  12.993
41784W        W 1529   6.895  33.383  12.489
41785W        W 1530  14.663  44.753   4.328
41786W        W 1531  31.117  41.960  14.834
41787W        W 1532  17.697  32.119   5.295
41788W        W 1533  10.185   3.433   4.350
41789W        W 1534   6.717  32.596   2.840
41790W        W 1535  33.416  21.067   4.770
41791W        W 1536  29.446   9.806  12.396
41792W        W 1537  27.523  14.302  10.999
41793W        W 1538  35.513  13.736   3.305
41794W        W 1539  11.145  12.278  13.463
41795W        W 1540  44.364   5.763   1.784
41796W        W 1541  12.239   0.878   1.886
41797W        W 1542  16.658  20.091   0.275
41798W        W 1543  31.119  39.560  13.856
41799W        W 1544  27.604  19.222  10.892
41800W        W 1545  42.786  12.637   2.865
41801W        W 1546  21.699  11.797   0.829
41802W        W 1547  16.708  39.516   1.364
41803W        W 1548  28.068  21.623   2.317
41804W        W 1549  36.491  37.374   3.860
41805W        W 1550  32.592  25.617  14.923
41806W        W 1551   1.772  23.545   4.151
41807W        W 1552  43.771   7.828   3.203
41808W        W 1553  13.148   3.266  13.491
41809W        W 1554  42.387   3.415   1.250
41810W        W 1555  11.750  26.663   4.116
41811W        W 1556  30.599  32.107   9.483
41812W        W 1557  26.057  40.925  12.894
41813W        W 1558  26.640   2.436  13.376
41814W        W 1559  28.608   5.811   4.253
41815W        W 1560  15.258  30.138   4.232
41816W        W 1561   1.265  43.468  11.055
41817W        W 1562  29.007  10.877   3.309
41818W        W 1563  31.049   9.676  14.016
41819W        W 1564  25.560  38.996  13.854
41820W        W 1565  22.507  16.182   3.644
41821W        W 1566  30.601   3.825  14.282
41822W        W 1567   7.866   7.331   3.151
41823W        W 1568   1.242  34.566  13.380
41824W        W 1569   5.784   1.760   1.845
41825W        W 1570  37.416  22.584  11.556
41826W        W 1571   2.927  35.434  10.967
41827W        W 1572  23.041  35.482  10.501
41828W        W 1573  12.787   9.221   2.753
41829W        W 1574   2.365  19.564   5.600
41830W        W 1575   2.376   2.862   2.761
41831W        W 1576  26.526   2.282   1.252
41832W        W 1577  26.062   1.298  14.014
41833W        W 1578  11.861  37.025   1.274
41834W        W 1579   3.929  13.606   4.230
41835W        W 1580  31.530  38.386  10.645
41836W        W 1581  44.979  41.482  14.844
41837W        W 1582  16.677  40.392  14.465
41838W        W 1583  24.587  19.232  10.952
41839W        W 1584  16.279   4.793   3.735
41840W        W 1585  38.426  31.934   0.422
41841W        W 1586  26.993  14.168  12.977
41842W        W 1587  23.075   7.869  11.559
41843W        W 1588  15.131  23.036  13.955
41844W        W 1589  41.434  17.743   3.715
41845W        W 1590  39.326  17.640   4.744
41846W        W 1591   2.433   3.344  14.342
41847W        W 1592  42.932  18.241  11.036
41848W        W 1593  16.178   1.297  10.957
41849W        W 1594   5.288  25.580  14.361
41850W        W 1595  24.500  33.605   3.150
41851W        W 1596  31.018   7.727  11.612
41852W        W 1597  43.473  16.587   4.611
41853W        W 1598  40.398   1.941  12.521
41854W        W 1599   9.785  29.561  11.882
41855W        W 1600  43.952  32.885  14.891
41856W        W 1601  23.593   2.759   0.860
41857W        W 1602   7.796   7.383  13.474
41858W        W 1603  33.090  16.573   1.419
41859W        W 1604  37.838  20.586  13.907
41860W        W 1605  35.027  11.752  12.441
41861W        W 1606  13.193   8.833   4.336
41862W        W 1607   5.204  26.000   2.296
41863W        W 1608  40.471  39.382  14.284
41864W        W 1609  18.197  25.575  11.087
41865W        W 1610  20.056  40.863   3.771
41866W        W 1611  14.212  18.230  13.427
41867W        W 1612  35.544  24.677  13.467
41868W        W 1613  20.274  11.668  10.939
41869W        W 1614  43.861   9.861   3.339
41870W        W 1615  42.392  14.719  11.028
41871W        W 1616   6.741  17.229   4.309
41872W        W 1617  10.728  23.207  14.457
41873W        W 1618  20.534  26.123  12.850
41874W        W 1619   9.805  27.028  12.472
41875W        W 1620   7.415   4.328   2.875
41876W        W 1621  24.228  13.720  12.096
41877W        W 1622   2.934  34.033   1.925
41878W        W 1623  28.998  28.153  13.423
41879W        W 1624   7.375  30.547   1.818
41880W        W 1625  36.490  27.093  13.959
41881W        W 1626  41.029  25.202   4.787
41882W        W 1627  26.066  27.164  12.918
41883W        W 1628  44.307  28.555  14.993
41884W        W 1629   8.223   2.802   0.428
41885W        W 1630  31.060  39.475   1.772
41886W        W 1631   4.882  30.601   4.627
41887W        W 1632  17.612  16.794   0.293
41888W        W 1633  11.794  31.065  14.911
41889W        W 1634  33.424  28.535   5.112
41890W        W 1635  12.321  18.167  13.038
41891W        W 1636   9.304  27.058  10.895
41892W        W 1637  25.540  25.626  11.930
41893W        W 1638  29.131   8.375  11.437
41894W        W 1639  41.800  15.752  11.481
41895W        W 1640  27.566   0.477  14.995
41896W        W 1641  32.420  30.474  10.906
41897W        W 1642  41.862  18.627   9.951
41898W        W 1643  13.109  38.364  12.908
41899W        W 1644  31.118  22.507  12.037
41900W        W 1645   8.740  19.086  14.021
41901W        W 1646  38.365  20.567  11.582
41902W        W 1647  31.493  17.206   3.295
41903W        W 1648   6.318   2.862  11.382
41904W        W 1649   2.761  33.044  12.527
41905W        W 1650  24.085  16.119  13.064
41906W        W 1651  22.135  40.429   2.187
41907W        W 1652   9.321  13.630   3.151
41908W        W 1653  30.472  41.433   3.358
41909W        W 1654  38.936   4.842  11.913
41910W        W 1655  34.559   5.330   0.455
41911W        W 1656  25.685  25.690   1.901
41912W        W 1657  35.975  27.626   4.655
41913W        W 1658  41.040   6.236  14.488
41914W        W 1659  43.850  39.524  14.435
41915W        W 1660  35.549  22.194   3.655
41916W        W 1661  30.977  29.499   2.416
41917W        W 1662  44.895  30.528  14.959
41918W        W 1663  39.388  18.729  10.525
41919W        W 1664  41.036   4.313   3.244
41920W        W 1665   3.413  32.932   2.326
41921W        W 1666  33.031   7.810  11.415
41922W        W 1667  34.968   4.942   4.202
41923W        W 1668  19.240  44.866   2.307
41924W        W 1669  39.470  21.722   0.324
41925W        W 1670   1.920  17.253  11.926
41926W        W 1671  44.504  11.347   4.329
41927W        W 1672  37.461  44.414  12.988
41928W        W 1673  29.593  20.073   3.270
41929W        W 1674  43.320  30.482   2.229
41930W        W 1675  16.665   3.423  12.560
41931W        W 1676  30.912   6.299   4.657
41932W        W 1677  13.117  30.509   4.658
41933W        W 1678  36.926   6.723   4.690
41934W        W 1679  39.547  28.439   0.892
41935W        W 1680  20.074  21.097   0.303
41936W        W 1681  10.360   2.840   4.172
41937W        W 1682  21.704   3.792  13.370
41938W        W 1683  14.196  11.727  12.353
41939W        W 1684  28.997  12.307   2.850
41940W        W 1685   2.752  36.347  10.618
41941W        W 1686   1.782   3.423   0.381
41942W        W 1687  26.107  19.775   4.684
41943W        W 1688   9.348  38.998  13.026
41944W        W 1689   4.935  14.294  13.042
41945W        W 1690  42.305  12.291   4.293
41946W        W 1691  37.406  42.378  12.431
41947W        W 1692   6.856   1.455   0.257
41948W        W 1693  42.394   1.464  12.857
41949W        W 1694  27.513  12.739   4.739
41950W        W 1695  18.128  32.599   1.847
41951W        W 1696   1.405  41.987  13.308
41952W        W 1697  32.974  22.251   0.888
41953W        W 1698   8.273  11.181   0.763
41954W        W 1699  33.108  19.726  10.467
41955W        W 1700  13.761  14.209  14.913
41956W        W 1701  22.642  34.007   1.831
41957W        W 1702   1.969  14.831   3.312
41958W        W 1703  23.641  28.975  10.596
41959W        W 1704  34.533  15.698   4.301
41960W        W 1705  37.466  41.029   2.703
41961W        W 1706  28.673   8.276  11.442
41962W        W 1707  33.494   3.856  13.027
41963W        W 1708   5.836  22.607   1.280
41964W        W 1709  28.115  23.014  14.969
41965W        W 1710   5.316  33.618  12.090
41966W        W 1711  38.472  22.202   4.785
41967W        W 1712  23.197  24.698  13.468
41968W        W 1713   7.227  21.041   4.272
41969W        W 1714  12.834  23.646   3.644
41970W        W 1715   9.818  39.458  10.506
41971W        W 1716  24.602   0.976   3.803
41972W        W 1717  11.805  37.977   4.323
41973W        W 1718  41.989  43.465   3.655
41974W        W 1719  21.203  22.032  13.000
41975W        W 1720  31.641  41.355  11.515
41976W        W 1721  11.183  33.118  14.506
41977W        W 1722  13.131  39.967   3.660
41978W        W 1723   1.874  22.523   4.641
41979W        W 1724  20.734  30.913  13.993
41980W        W 1725  41.009  21.654  11.493
41981W        W 1726  27.071  19.152  14.843
41982W        W 1727   2.465   7.258   0.423
41983W        W 1728  20.620  28.080  14.319
41984W        W 1729  36.374  23.994   5.212
41985W        W 1730   6.412   0.898  13.848
41986W        W 1731  44.458  41.401   4.279
41987W        W 1732  16.632  37.065  12.896
41988W        W 1733  11.737   0.802   4.760
41989W        W 1734  41.523   6.742  11.543
41990W        W 1735  15.083   8.322  14.485
41991W        W 1736  26.597  23.079  12.401
41992W        W 1737  43.852  24.005  12.868
41993W        W 1738  29.474  22.113   2.257
41994W        W 1739  14.110  26.558  12.020
41995W        W 1740  41.357   1.421   1.737
41996W        W 1741  17.283  18.564  12.490
41997W        W 1742   6.754  31.487   1.935
41998W        W 1743  19.657   9.828   4.323
41999W        W 1744   0.255   5.711  11.941
42000W        W 1745  10.798  29.622  12.509
42001W        W 1746  19.589   6.716  10.952
42002W        W 1747  20.595   7.766  11.052
42003W        W 1748  41.964  27.541  11.570
42004W        W 1749  20.524  24.103   4.125
42005W        W 1750  30.489  15.629  11.551
42006W        W 1751   0.389  12.315  13.390
42007W        W 1752  16.585  14.294  12.995
42008W        W 1753   7.731  35.427   0.883
42009W        W 1754   5.788   6.371   1.772
42010W        W 1755  33.046  42.956   3.757
42011W        W 1756  34.450  35.991  13.307
42012W        W 1757  11.168  10.725  10.585
42013W        W 1758  20.083  24.704   4.305
42014W        W 1759  10.294   7.903   4.599
42015W        W 1760   3.217  13.105   1.344
42016W        W 1761  32.549  33.925  10.467
42017W        W 1762  11.179  41.369   1.329
42018W        W 1763  21.202  10.730   3.205
42019W        W 1764   2.406  13.205  14.461
42020W        W 1765  43.812   0.909  14.775
42021W        W 1766  24.484   8.829  11.403
42022W        W 1767  36.921  43.942  12.547
42023W        W 1768  33.592  44.416   2.241
42024W        W 1769   6.774  34.383   4.715
42025W        W 1770  14.797  16.096   1.841
42026W        W 1771  19.171  23.061  11.528
42027W        W 1772  23.061  38.430   3.862
42028W        W 1773   0.877   9.235   4.315
42029W        W 1774   3.881  29.498  14.799
42030W        W 1775  40.541  25.178   4.761
42031W        W 1776  22.203  38.054  10.570
42032W        W 1777  36.579   0.861  11.859
42033W        W 1778  14.255  33.500  11.379
42034W        W 1779   2.847  24.651  14.775
42035W        W 1780  22.049  20.135   0.297
42036W        W 1781  33.931   6.763   1.825
42037W        W 1782  10.816  43.436   3.631
42038W        W 1783   7.239  41.860  14.905
42039W        W 1784  21.148  39.835  12.925
42040W        W 1785  17.111  43.451  14.003
42041W        W 1786   5.330  25.483  13.473
42042W        W 1787   1.397  37.427   0.292
42043W        W 1788   0.785  33.899  11.611
42044W        W 1789  29.172  26.137  11.888
42045W        W 1790  13.727  17.751   1.719
42046W        W 1791  23.013  27.139   4.816
42047W        W 1792  39.874  26.479  14.292
42048W        W 1793  22.132   3.909   3.774
42049W        W 1794  11.699  22.518  12.515
42050W        W 1795   2.859  12.156  14.781
42051W        W 1796  26.098  44.287  14.463
42052W        W 1797  16.585  36.483   4.714
42053W        W 1798  35.542   1.385  13.388
42054W        W 1799   7.199  14.711   0.470
42055W        W 1800  10.849  42.523  10.442
42056W        W 1801  16.665   5.890  11.016
42057W        W 1802  34.001  21.611   2.849
42058W        W 1803  29.561  38.984  11.126
42059W        W 1804   3.929  41.027   0.788
42060W        W 1805  36.436  26.592  11.547
42061W        W 1806  16.300   7.685   4.668
42062W        W 1807  21.024  44.445  14.484
42063W        W 1808  19.043   3.226   1.823
42064W        W 1809   4.246   3.253  13.989
42065W        W 1810  31.445  18.293  10.064
42066W        W 1811   3.423  21.116  11.989
42067W        W 1812  10.820  27.602   2.785
42068W        W 1813   4.794  44.803   0.314
42069W        W 1814  25.549   3.906   3.159
42070W        W 1815   5.791   8.741  12.829
42071W        W 1816  20.628  12.679   3.239
42072W        W 1817  30.443  29.978  13.017
42073W        W 1818   8.809  31.072   3.746
42074W        W 1819  14.728  27.120   4.668
42075W        W 1820  32.996  17.128  10.089
42076W        W 1821  37.007  14.674  10.526
42077W        W 1822  10.636   7.815  12.039
42078W        W 1823  44.484  33.593  11.405
42079W        W 1824  24.684  17.764  14.956
42080W        W 1825  22.028  39.518   1.859
42081W        W 1826  20.629   5.929  14.469
42082W        W 1827  38.859  31.904   3.831
42083W        W 1828  44.823  23.704  14.408
42084W        W 1829  43.870  39.926   0.945
42085W        W 1830   6.322  11.845  10.930
42086W        W 1831  41.427   7.181   4.754
42087W        W 1832  33.578   6.255  12.410
42088W        W 1833  38.354  38.384   1.809
42089W        W 1834  40.413  29.107  12.878
42090W        W 1835  39.371   1.317  14.802
42091W        W 1836  31.101  20.080   0.452
42092W        W 1837  35.385   0.950  14.003
42093W        W 1838  12.353  10.214  14.005
42094W        W 1839  14.152  20.609  11.434
42095W        W 1840  22.213   6.759  12.491
42096W        W 1841  30.909  30.567  12.848
42097W        W 1842   7.741  28.621  14.939
42098W        W 1843   3.337  29.931  14.837
42099W        W 1844  10.233  13.310   5.125
42100W        W 1845   1.901  20.668  12.400
42101W        W 1846  36.502  37.935  13.524
42102W        W 1847  20.198   5.743   0.403
42103W        W 1848  42.507   0.932   2.742
42104W        W 1849  19.148  20.641  14.921
42105W        W 1850  28.973  19.123   4.727
42106W        W 1851   5.339  38.934   3.314
42107W        W 1852  29.502  32.548  11.377
42108W        W 1853  27.521  22.078   3.282
42109W        W 1854  28.595  30.958  11.527
42110W        W 1855  30.417  11.194  13.791
42111W        W 1856  34.482  16.079   3.378
42112W        W 1857   3.280  17.678  14.864
42113W        W 1858  24.667  44.283   1.244
42114W        W 1859  40.387  28.974   0.759
42115W        W 1860  29.126  17.761  12.991
42116W        W 1861  22.014  11.812  11.012
42117W        W 1862  36.994   3.735  11.527
42118W        W 1863  27.190  31.906   1.927
42119W        W 1864   0.281  18.692  14.308
42120W        W 1865  30.512  17.576   3.369
42121W        W 1866  30.496  26.167   1.904
42122W        W 1867  44.886  42.376   2.342
42123W        W 1868  16.675  26.027   1.700
42124W        W 1869  21.018  29.143  14.877
42125W        W 1870  39.527  19.046   1.345
42126W        W 1871  26.565  44.416  11.932
42127W        W 1872  17.654  21.021   0.864
42128W        W 1873  25.474   4.232  11.927
42129W        W 1874  36.493  16.710  13.797
42130W        W 1875  41.310  37.437   3.822
42131W        W 1876  32.136   1.242  13.804
42132W        W 1877  41.499  24.591   2.240
42133W        W 1878  40.826   1.952   4.825
42134W        W 1879  15.768  37.579   0.310
42135W        W 1880  15.605  23.084   1.908
42136W        W 1881  36.438  31.926   4.168
42137W        W 1882   4.709  36.586  13.481
42138W        W 1883  36.917   9.785   1.696
42139W        W 1884  40.444  19.165   0.961
42140W        W 1885  17.558   0.754   3.217
42141W        W 1886   1.853  40.489  10.497
42142W        W 1887  18.069   6.272  12.019
42143W        W 1888  14.141  15.266   0.387
42144W        W 1889   8.781  38.337  14.916
42145W        W 1890  36.540  26.701  10.457
42146W        W 1891  11.195  11.322   4.144
42147W        W 1892  34.409   6.813   2.680
42148W        W 1893  13.788  24.601  12.961
42149W        W 1894  29.068  42.850  11.970
42150W        W 1895  12.266  27.632   0.364
42151W        W 1896  19.629  28.635  10.580
42152W        W 1897  32.888  30.648   4.835
42153W        W 1898  15.210  30.636   4.278
42154W        W 1899   9.780  31.490  14.502
42155W        W 1900  38.460  12.739   2.795
42156W        W 1901  37.960   9.653   4.341
42157W        W 1902   8.371   3.892  12.839
42158W        W 1903   2.272  42.891   1.911
42159W        W 1904  19.698  35.867   2.844
42160W        W 1905  20.257  34.918  11.560
42161W        W 1906  16.624  31.952  13.370
42162W        W 1907  26.970  36.568  13.461
42163W        W 1908  39.346  17.109   9.979
42164W        W 1909  25.523  25.707  14.871
42165W        W 1910  21.670  20.616   4.155
42166W        W 1911  34.538  28.611   9.669
42167W        W 1912   8.885  18.099   2.192
42168W        W 1913  38.972  43.820  10.449
42169W        W 1914  32.982  26.475  13.999
42170W        W 1915  34.942  28.123   0.302
42171W        W 1916  13.774  33.530   5.211
42172W        W 1917  40.881  39.402   1.819
42173W        W 1918  40.303   1.886   1.333
42174W        W 1919  29.129  43.922  13.793
42175W        W 1920  22.589  25.696  14.951
42176W        W 1921  44.290  10.777   3.174
42177W        W 1922  30.539  43.345  12.394
42178W        W 1923   8.167   3.833   3.640
42179W        W 1924   1.948   5.823  10.952
42180W        W 1925  26.963   2.904  13.352
42181W        W 1926   4.911   3.904   4.275
42182W        W 1927   9.666   4.788   2.711
42183W        W 1928  32.494  43.968   3.217
42184W        W 1929  44.856  23.639  11.417
42185W        W 1930   7.355  33.009   2.260
42186W        W 1931  35.487   9.231   0.272
42187W        W 1932   7.217  43.781  12.075
42188W        W 1933  41.953  23.092  13.057
42189W        W 1934  13.319  16.103  10.492
42190W        W 1935  39.363  29.432   3.852
42191W        W 1936   5.194  36.908  10.547
42192W        W 1937  26.102   1.424   3.200
42193W        W 1938  12.618  40.437   1.385
42194W        W 1939  43.329  21.526   3.763
42195W        W 1940  32.403   9.839  13.922
42196W        W 1941  30.537   0.252   1.348
42197W        W 1942  34.379  38.412   0.316
42198W        W 1943  40.422  28.536   4.715
42199W        W 1944  43.332  19.177   2.687
42200W        W 1945  11.245  23.105  11.027
42201W        W 1946  42.865   9.168   1.382
42202W        W 1947  34.024  19.700  11.068
42203W        W 1948  38.497  32.430   0.807
42204W        W 1949   6.858  19.090  11.419
42205W        W 1950  41.358   1.348   3.728
42206W        W 1951  15.656   6.416   2.678
42207W        W 1952  33.571  38.558   0.966
42208W        W 1953  15.107   2.234   1.880
42209W        W 1954  33.880  39.902   3.169
42210W        W 1955  39.873   0.916   3.334
42211W        W 1956  32.921   8.231  11.527
42212W        W 1957  29.920   0.275   1.323
42213W        W 1958  35.889   9.238   0.312
42214W        W 1959   8.281  39.413   0.917
42215W        W 1960  24.153  14.810  11.865
42216W        W 1961  41.829  10.829  13.913
42217W        W 1962   1.419   3.737  12.547
42218W        W 1963  25.966  43.465   3.316
42219W        W 1964   7.414   3.850   1.329
42220W        W 1965   5.302  43.016  12.464
42221W        W 1966  23.189  11.268   3.767
42222W        W 1967  22.090  17.121  14.784
42223W        W 1968   3.340  36.509  13.519
42224W        W 1969  43.834  34.029  13.408
42225W        W 1970   7.734   7.749  13.488
42226W        W 1971  23.152  24.230   1.869
42227W        W 1972  33.528  13.608   2.663
42228W        W 1973  20.756  40.949   3.196
42229W        W 1974   9.328   9.675   1.395
42230W        W 1975  34.420  38.841  13.850
42231W        W 1976   8.887   4.251  14.768
42232W        W 1977  39.392  33.030  12.997
42233W        W 1978  33.407  22.700   0.927
42234W        W 1979  28.678  36.356   1.911
42235W        W 1980  30.157  24.623  10.474
42236W        W 1981  15.126  12.125   3.354
42237W        W 1982  21.256  28.583   4.200
42238W        W 1983  34.984  26.000  13.462
42239W        W 1984  28.180  28.676  14.907
42240W        W 1985   8.676   9.367   3.327
42241W        W 1986  35.498  25.208  14.390
42242W        W 1987   3.710  38.445   2.816
42243W        W 1988   4.699  40.453   4.187
42244W        W 1989  20.269   9.175  10.907
42245W        W 1990  35.470  40.330   1.877
42246W        W 1991  41.788  22.615   0.747
42247W        W 1992  37.854  23.585   0.865
42248W        W 1993  10.855  27.690   2.413
42249W        W 1994  23.034  43.801   3.169
42250W        W 1995   7.364  33.106   0.345
42251W        W 1996   1.394  17.096   5.767
42252W        W 1997  18.644  22.128  13.504
42253W        W 1998  32.989   5.736  13.942
42254W        W 1999  42.885   5.898   1.790
42255W        W 2000  41.843  18.256   2.276
42256W        W 2001   8.200  26.133   0.307
42257W        W 2002  19.102  19.666   0.809
42258W        W 2003   9.222  28.974  12.824
42259W        W 2004  14.275  27.039   1.859
42260W        W 2005  34.528   1.358  12.569
42261W        W 2006  43.428  10.350   0.924
42262W        W 2007   2.264   3.952   2.312
42263W        W 2008  37.446  36.570   3.339
42264W        W 2009  43.881  40.040  12.347
42265W        W 2010  20.076  19.095  13.488
42266W        W 2011   3.809   8.212   2.903
42267W        W 2012  33.486  22.065   5.233
42268W        W 2013  37.382  38.531   3.799
42269W        W 2014   6.716  21.514  13.548
42270W        W 2015  13.308  43.356   4.712
42271W        W 2016  27.064  17.238   0.426
42272W        W 2017  24.118   5.228   2.362
42273W        W 2018   6.304  37.969   4.266
42274W        W 2019   2.936  13.134  12.526
42275W        W 2020  29.627  29.963  13.016
42276W        W 2021  27.154  29.433  11.926
42277W        W 2022  41.512  36.033  14.945
42278W        W 2023  20.659  17.221  12.941
42279W        W 2024  35.362   8.840  14.986
42280W        W 2025  44.775  16.661   4.203
42281W        W 2026   8.886  28.623  13.797
42282W        W 2027  22.624  29.032   0.727
42283W        W 2028  35.407  26.157  14.281
42284W        W 2029  29.958  16.732   4.248
42285W        W 2030   6.745   8.297   1.347
42286W        W 2031  23.663  29.532  12.825
42287W        W 2032  17.157   5.376   4.625
42288W        W 2033  42.879  12.833   1.789
42289W        W 2034  38.372  34.888   1.715
42290W        W 2035  39.845  31.017   0.794
42291W        W 2036  27.555  38.515   0.395
42292W        W 2037  41.803   6.766  14.382
42293W        W 2038  35.427  23.584   3.205
42294W        W 2039  37.085  44.384   0.479
42295W        W 2040  11.662  22.709  11.076
42296W        W 2041  23.155   6.296  14.826
42297W        W 2042   3.389  18.629  13.027
42298W        W 2043  17.128  17.637  13.430
42299W        W 2044  39.029  44.319  11.495
42300W        W 2045   1.293  21.117   2.881
42301W        W 2046  37.059  33.084   4.810
42302W        W 2047  37.383  39.444  10.584
42303W        W 2048  26.460  31.468  13.975
42304W        W 2049  15.754  42.414   1.808
42305W        W 2050  12.758  37.538   1.824
42306W        W 2051   3.898  44.414   3.777
42307W        W 2052  44.996  23.675   4.707
42308W        W 2053  35.915   8.715  11.405
42309W        W 2054  38.447  36.082  10.420
42310W        W 2055  10.668   4.233  12.400
42311W        W 2056  40.986   6.350   4.216
42312W        W 2057  37.897  39.019  14.783
42313W        W 2058  26.190  26.990   3.356
42314W        W 2059  35.074  32.542   2.389
42315W        W 2060  10.845  44.375   2.901
42316W        W 2061   9.312  44.876   2.326
42317W        W 2062   4.271  21.164   0.295
42318W        W 2063  38.422   6.875   1.896
42319W        W 2064  39.441   1.296   4.204
42320W        W 2065   1.812  29.518  11.893
42321W        W 2066  18.256  11.134  10.408
42322W        W 2067   7.230  40.934   1.702
42323W        W 2068  34.518  18.106   2.311
42324W        W 2069  13.736  21.037  12.377
42325W        W 2070  28.470  22.556  12.348
42326W        W 2071  26.649   9.856  13.966
42327W        W 2072  23.658  24.025   4.634
42328W        W 2073   1.363  16.128  13.818
42329W        W 2074  12.226  43.968  11.985
42330W        W 2075  18.741  31.105   2.183
42331W        W 2076  24.177  20.582  12.343
42332W        W 2077  29.517   4.400  14.967
42333W        W 2078  16.210  29.492  12.047
42334W        W 2079  20.692  19.709   2.388
42335W        W 2080   9.721   7.692  14.827
42336W        W 2081  20.570  31.644   4.652
42337W        W 2082  38.002  30.509   1.704
42338W        W 2083  11.179   1.908   3.629
42339W        W 2084  33.916  15.648  14.938
42340W        W 2085  19.591  36.425   1.438
42341W        W 2086  43.815  38.393   1.274
42342W        W 2087  10.238  17.191  11.937
42343W        W 2088  33.030  26.490   2.890
42344W        W 2089  30.984  11.685  14.919
42345W        W 2090  22.630  26.530  14.325
42346W        W 2091   5.312  22.097  14.913
42347W        W 2092  31.581  41.874  11.381
42348W        W 2093  24.586  18.724  11.478
42349W        W 2094   3.811  37.860   0.783
42350W        W 2095  33.596  44.862   4.134
42351W        W 2096  12.792  10.336   5.241
42352W        W 2097  43.385   3.357   3.341
42353W        W 2098   3.227  19.585   0.858
42354W        W 2099  40.886  33.947  10.975
42355W        W 2100  43.296   6.214  13.378
42356W        W 2101  23.072  42.428   2.198
42357W        W 2102  28.154  30.146   2.277
42358W        W 2103  27.064  31.051   1.812
42359W        W 2104  11.690   3.917   3.222
42360W        W 2105  22.060  28.527   1.931
42361W        W 2106  24.702  41.027   3.326
42362W        W 2107  36.351  38.835  14.837
42363W        W 2108   5.350  16.288   2.879
42364W        W 2109  36.362  28.972   4.121
42365W        W 2110  10.758  27.974  13.943
42366W        W 2111   0.953  41.425  12.889
42367W        W 2112  24.098  38.569   1.817
42368W        W 2113  38.002   7.786  13.476
42369W        W 2114  28.553   6.695  12.873
42370W        W 2115  26.626   6.879  13.416
42371W        W 2116  37.526  44.368   4.649
42372W        W 2117   0.918  43.462   3.632
42373W        W 2118  25.492  26.050   0.795
42374W        W 2119  33.481  36.496   0.834
42375W        W 2120   1.734  41.789   2.378
42376W        W 2121  37.559  35.580   4.328
42377W        W 2122  41.987  36.940   1.863
42378W        W 2123  10.372  42.888  13.534
42379W        W 2124  41.788  20.605  14.346
42380W        W 2125  29.635  16.186   4.736
42381W        W 2126  25.065  34.061   0.288
42382W        W 2127  32.520  26.666  12.918
42383W        W 2128  34.501   0.439  13.517
42384W        W 2129  26.462  33.002  14.824
42385W        W 2130  39.899   0.912   1.914
42386W        W 2131  22.588  29.504   2.744
42387W        W 2132  28.158  14.100  10.049
42388W        W 2133  18.590  34.891  12.448
42389W        W 2134  23.633  21.615  13.916
42390W        W 2135   3.443  30.476  10.034
42391W        W 2136  23.240  36.441   3.183
42392W        W 2137  33.603  24.011   9.961
42393W        W 2138  37.963  22.538  13.501
42394W        W 2139  39.488  23.998  12.988
42395W        W 2140  43.021  43.980   4.216
42396W        W 2141  43.829   5.271   2.729
42397W        W 2142  13.298  12.642  12.900
42398W        W 2143  40.013  20.129   4.308
42399W        W 2144  11.848  40.877  10.434
42400W        W 2145  10.635  26.701   2.702
42401W        W 2146   7.282   9.773   4.657
42402W        W 2147  27.628   2.769  10.526
42403W        W 2148   9.325  22.551   0.876
42404W        W 2149  35.078   8.184  11.880
42405W        W 2150  39.918  27.127   4.645
42406W        W 2151  21.027  20.596  14.947
42407W        W 2152  32.002  15.711   4.140
42408W        W 2153  14.785  42.427   0.926
42409W        W 2154   4.302  31.422  10.971
42410W        W 2155  20.699   7.757   3.269
42411W        W 2156  19.041  23.628   2.371
42412W        W 2157  37.382  12.681   3.742
42413W        W 2158  10.336  16.250   0.265
42414W        W 2159  10.700  14.757  12.876
42415W        W 2160  10.654  41.432   4.698
42416W        W 2161  37.488  36.505   2.419
42417W        W 2162  28.463  11.314   4.290
42418W        W 2163  37.899  10.722   3.359
42419W        W 2164   4.809  32.615  11.994
42420W        W 2165  28.497  38.060   2.407
42421W        W 2166  26.540  26.621  11.083
42422W        W 2167  25.668  14.195  13.445
42423W        W 2168  16.286  36.526   3.749
42424W        W 2169  35.400  27.616   3.236
42425W        W 2170   3.829  40.455  13.365
42426W        W 2171  35.398  23.092  12.087
42427W        W 2172  10.157  33.020  13.886
42428W        W 2173  29.548  41.846   2.693
42429W        W 2174   6.877  41.391  11.499
42430W        W 2175  14.268  37.002   2.745
42431W        W 2176   5.728  31.506   0.245
42432W        W 2177   8.235   4.878   2.845
42433W        W 2178  21.194  28.560  11.605
42434W        W 2179   0.808  36.566   3.728
42435W        W 2180  30.486  16.669   3.779
42436W        W 2181   0.266  19.285  13.059
42437W        W 2182  19.586  28.445   4.826
42438W        W 2183  42.928  40.976   4.279
42439W        W 2184  38.325   6.855  12.033
42440W        W 2185  42.320   3.829   1.908
42441W        W 2186   6.776  39.959  12.517
42442W        W 2187  29.095  10.358   1.419
42443W        W 2188  35.557  44.317   3.847
42444W        W 2189  10.303  33.924   2.878
42445W        W 2190  20.180  31.600   5.186
42446W        W 2191  35.602  21.131  11.069
42447W        W 2192  42.025  27.659   2.804
42448W        W 2193  13.630  39.886   0.379
42449W        W 2194  28.573  25.645   1.317
42450W        W 2195  25.025  12.328   2.672
42451W        W 2196  44.281  36.555   3.634
42452W        W 2197  22.587  30.130   5.099
42453W        W 2198   9.330   9.655  13.425
42454W        W 2199  25.621  28.454   4.801
42455W        W 2200  33.890  28.154  12.834
42456W        W 2201  35.989  30.094   1.896
42457W        W 2202   5.344  16.120  13.984
42458W        W 2203  18.745  18.651   1.829
42459W        W 2204   3.271  10.701   1.436
42460W        W 2205  44.425  31.515  12.448
42461W        W 2206  19.666  30.073   0.288
42462W        W 2207   3.396  18.723   1.336
42463W        W 2208  21.069   6.283  12.352
42464W        W 2209  28.536  28.013   0.260
42465W        W 2210  32.622  36.977  12.438
42466W        W 2211   5.693  36.398   1.399
42467W        W 2212  41.878  26.464  14.019
42468W        W 2213   2.445  37.876  12.923
42469W        W 2214   3.380  44.867  14.401
42470W        W 2215   6.714  16.772  13.995
42471W        W 2216   8.400  35.543   1.261
42472W        W 2217  18.200  36.423   4.671
42473W        W 2218  20.165  26.077  11.048
42474W        W 2219  38.977   4.230   3.840
42475W        W 2220   9.706  13.783  12.838
42476W        W 2221  13.743  17.103   3.842
42477W        W 2222   7.326   6.816  13.328
42478W        W 2223  24.519  38.387  10.512
42479W        W 2224  15.272  13.316  11.859
42480W        W 2225   4.340  30.628   0.925
42481W        W 2226  17.240  24.718  14.469
42482W        W 2227  20.768  22.500  10.560
42483W        W 2228   9.212  11.160   2.339
42484W        W 2229  14.676  40.907  11.471
42485W        W 2230  18.554  27.092  11.497
42486W        W 2231  17.188   7.695   5.107
42487W        W 2232  27.645  10.316  14.860
42488W        W 2233  30.958  27.031   3.768
42489W        W 2234  36.872  20.050   4.268
42490W        W 2235   4.407  13.784   1.311
42491W        W 2236  37.518  27.956   1.719
42492W        W 2237  11.705  40.310   2.211
42493W        W 2238  16.217  38.515   2.178
42494W        W 2239  35.090  23.703  12.399
42495W        W 2240  43.940  17.065   1.789
42496W        W 2241  18.289  29.576   1.829
42497W        W 2242  22.233  37.430  14.447
42498W        W 2243   8.824   1.747   1.927
42499W        W 2244  16.072  18.788   2.246
42500W        W 2245  27.171   8.720  14.985
42501W        W 2246  18.651   1.878   4.703
42502W        W 2247   5.875  11.138  11.991
42503W        W 2248  39.348  25.584  11.865
42504W        W 2249  38.390   8.807  14.438
42505W        W 2250  10.762  16.242   4.265
42506W        W 2251   2.231  39.950   4.621
42507W        W 2252  11.292  38.553  11.432
42508W        W 2253   8.884   4.748   4.211
42509W        W 2254  25.531   8.668  11.931
42510W        W 2255   8.798  12.233  14.335
42511W        W 2256  38.966  35.395   2.891
42512W        W 2257  14.671   6.306   2.809
42513W        W 2258  35.004  14.712  14.365
42514W        W 2259  21.637   5.215   2.266
42515W        W 2260  20.672  38.875   3.336
42516W        W 2261  13.829  37.880  11.937
42517W        W 2262   3.905  21.154   4.184
42518W        W 2263  18.559  19.072   3.635
42519W        W 2264  44.421  10.650   3.736
42520W        W 2265  34.933   4.244  13.915
42521W        W 2266   4.822   7.370  14.882
42522W        W 2267  37.411  41.833   0.459
42523W        W 2268   2.350  37.344   1.723
42524W        W 2269   1.835   6.849  11.524
42525W        W 2270   3.250  10.849  13.480
42526W        W 2271  10.710  39.517  10.979
42527W        W 2272  42.475  13.299   0.268
42528W        W 2273  42.964  31.991  12.358
42529W        W 2274  27.579  31.061  14.433
42530W        W 2275  21.214   3.719   3.666
42531W        W 2276  28.664  28.063   5.292
42532W        W 2277  43.278  35.065  10.609
42533W        W 2278  35.600  18.234  10.895
42534W        W 2279  15.747  26.564   2.850
42535W        W 2280  40.995  41.870  12.579
42536W        W 2281  26.102  28.113   0.433
42537W        W 2282  28.474   9.669   3.672
42538W        W 2283  33.988  23.639  10.527
42539W        W 2284   6.740   1.423  13.022
42540W        W 2285  31.573  33.896   4.203
42541W        W 2286  15.617  20.139   4.739
42542W        W 2287   5.844   2.271  12.374
42543W        W 2288  17.085  36.926   3.659
42544W        W 2289  36.939  32.031   0.453
42545W        W 2290  20.562  21.662   1.242
42546W        W 2291   1.941  40.944   5.098
42547W        W 2292   4.308   8.832  11.124
42548W        W 2293  18.274  30.646   4.184
42549W        W 2294  39.828   7.249  10.409
42550W        W 2295  41.516   7.276  10.422
42551W        W 2296  35.108  29.021  13.465
42552W        W 2297  32.438   4.830   0.758
42553W        W 2298   3.412  10.852  10.955
42554W        W 2299  41.446  23.083   1.737
42555W        W 2300  11.793  31.614  11.064
42556W        W 2301  27.623  26.141   2.298
42557W        W 2302  18.558  40.951   1.375
42558W        W 2303  12.840   7.779  11.423
42559W        W 2304  16.131  40.928   3.356
42560W        W 2305  17.163  23.727   4.273
42561W        W 2306  12.348  13.113  13.346
42562W        W 2307  25.159   8.675  11.911
42563W        W 2308  26.664  22.529  10.888
42564W        W 2309   8.841  15.091   4.616
42565W        W 2310  13.667  25.703  13.520
42566W        W 2311  24.482  12.305  11.562
42567W        W 2312  15.787  35.916   5.722
42568W        W 2313  41.029   7.894  11.540
42569W        W 2314  22.547   2.245  11.592
42570W        W 2315  42.843  41.861   0.289
42571W        W 2316   4.834  15.210   3.233
42572W        W 2317   6.372  26.674  10.148
42573W        W 2318   7.217  14.794   3.355
42574W        W 2319  18.130   9.646   3.809
42575W        W 2320  41.493  23.715   2.352
42576W        W 2321  26.523  10.718   1.827
42577W        W 2322  18.580  38.382  11.980
42578W        W 2323   4.754  38.049   4.743
42579W        W 2324   4.828   7.215  10.145
42580W        W 2325  42.365   4.828  10.474
42581W        W 2326  16.116   0.304  14.488
42582W        W 2327  42.898  25.712  14.968
42583W        W 2328  38.473  14.667  13.477
42584W        W 2329  41.960   1.811  14.384
42585W        W 2330  23.194   9.851   0.751
42586W        W 2331   1.913   1.403  11.390
42587W        W 2332  11.783  44.928  11.938
42588W        W 2333  13.198  42.351  14.418
42589W        W 2334  34.869  34.385  12.021
42590W        W 2335  13.176  10.224   4.346
42591W        W 2336   5.861  16.602   3.322
42592W        W 2337  31.525  43.373  12.423
42593W        W 2338  12.239  14.824  10.627
42594W        W 2339   9.292  28.997   3.215
42595W        W 2340  39.481  44.267  13.391
42596W        W 2341  31.608  32.635   3.680
42597W        W 2342  40.031  43.361  13.944
42598W        W 2343   2.442  29.438  13.003
42599W        W 2344   1.901  40.983   0.808
42600W        W 2345  26.517   8.730   3.848
42601W        W 2346  21.750  10.703   4.664
42602W        W 2347   3.305   2.873  14.426
42603W        W 2348  39.027  24.009  11.101
42604W        W 2349  10.638  19.271   0.874
42605W        W 2350  32.016  42.451   4.817
42606W        W 2351  39.834  11.269   0.281
42607W        W 2352  32.617   8.205   4.690
42608W        W 2353  38.381  21.649  12.418
42609W        W 2354   3.730   5.822  14.793
42610W        W 2355   1.378  30.470   2.332
42611W        W 2356   5.878  18.202   0.350
42612W        W 2357  42.385  11.171   4.673
42613W        W 2358  16.587  34.497  12.847
42614W        W 2359  34.004  34.536   0.375
42615W        W 2360  20.089   0.788   0.786
42616W        W 2361  43.835  12.259  13.461
42617W        W 2362   3.937  27.575  13.972
42618W        W 2363  25.161   5.335  14.471
42619W        W 2364  44.869  43.877   1.935
42620W        W 2365  15.263  12.647   4.726
42621W        W 2366  18.249  31.504  12.435
42622W        W 2367   1.741  26.479  10.910
42623W        W 2368  18.218  33.626   0.818
42624W        W 2369  37.018  36.391   1.263
42625W        W 2370  12.672  38.492  11.493
42626W        W 2371  17.636   3.833   5.157
42627W        W 2372  22.505  16.243  13.544
42628W        W 2373  43.389   5.696   0.451
42629W        W 2374  40.040  17.749  12.476
42630W        W 2375  37.876  25.506  11.613
42631W        W 2376  30.442  41.308  13.441
42632W        W 2377  14.765   6.785   3.294
42633W        W 2378  30.620  31.506   0.294
42634W        W 2379  20.581  13.254   1.393
42635W        W 2380  12.716  21.675  11.102
42636W        W 2381  33.994   8.396   2.708
42637W        W 2382  20.580  38.531  11.500
42638W        W 2383  40.873   4.731   4.823
42639W        W 2384  31.118   4.942   1.415
42640W        W 2385   7.174  10.710   4.158
42641W        W 2386   4.795  33.414  13.848
42642W        W 2387  27.500  22.506  12.091
42643W        W 2388  37.020  18.560  11.940
42644W        W 2389  32.918  20.127   4.794
42645W        W 2390   0.788  30.658  12.532
42646W        W 2391  23.058  36.540  10.943
42647W        W 2392  41.305  43.877  14.472
42648W        W 2393  29.051  13.109   3.715
42649W        W 2394  35.381  23.629  13.469
42650W        W 2395   6.403   4.776   0.854
42651W        W 2396  12.844  29.609  12.562
42652W        W 2397  25.010  32.030  14.964
42653W        W 2398  20.168  34.610   3.698
42654W        W 2399  24.702  34.968   2.861
42655W        W 2400   2.847  44.394  10.144
42656W        W 2401  31.034   4.418  11.887
42657W        W 2402   6.295  23.091  13.387
42658W        W 2403  24.664  16.207  10.499
42659W        W 2404   4.373  13.154   4.675
42660W        W 2405   9.831  36.418  13.818
42661W        W 2406  18.635   3.309   0.863
42662W        W 2407  23.556  20.558   3.854
42663W        W 2408  29.937  25.018  11.031
42664W        W 2409  30.509  27.067  11.430
42665W        W 2410  14.234  19.217   2.329
42666W        W 2411  35.478  44.771  12.048
42667W        W 2412  42.510   6.287   2.795
42668W        W 2413  20.600  28.146   3.819
42669W        W 2414  14.309   8.795  14.395
42670W        W 2415  41.420  24.661   4.181
42671W        W 2416  34.105  20.572  11.976
42672W        W 2417   8.167  42.028   4.686
42673W        W 2418   9.743  44.835   2.866
42674W        W 2419   2.723  40.522   2.224
42675W        W 2420  30.966   2.780  10.097
42676W        W 2421  39.421  43.008  10.888
42677W        W 2422  32.106  43.387   0.922
42678W        W 2423   1.407  25.484   4.297
42679W        W 2424   4.890  12.293   1.724
42680W        W 2425  36.581  38.001   1.317
42681W        W 2426  41.972  10.635  10.944
42682W        W 2427  19.105  19.160  13.935
42683W        W 2428  17.254  38.047   9.940
42684W        W 2429  16.767  34.460  11.996
42685W        W 2430  30.578  25.635  14.957
42686W        W 2431  36.035   7.689  14.491
42687W        W 2432  19.570  30.553   1.444
42688W        W 2433   2.274   6.853   2.186
42689W        W 2434  32.394   9.287  11.488
42690W        W 2435   7.380  40.341   4.744
42691W        W 2436  40.506  27.100  12.389
42692W        W 2437   3.402  38.974   2.733
42693W        W 2438   6.889   3.442  14.843
42694W        W 2439  29.667  27.959   0.268
42695W        W 2440  29.605  25.962  13.494
42696W        W 2441  19.582  31.054  14.803
42697W        W 2442  13.690  30.061   1.747
42698W        W 2443  16.282  38.874  13.011
42699W        W 2444  34.441  34.930  12.091
42700W        W 2445   1.920  41.999   0.469
42701W        W 2446  22.734  30.578  12.848
42702W        W 2447  28.081  31.496  11.082
42703W        W 2448   0.323  22.625  12.874
42704W        W 2449   5.281  24.486   1.440
42705W        W 2450   3.718  44.777  10.503
42706W        W 2451  41.425  36.471   5.245
42707W        W 2452  25.039  22.712  14.354
42708W        W 2453  17.061   4.780   2.744
42709W        W 2454  23.167  26.088  13.545
42710W        W 2455   8.385   6.283   1.373
42711W        W 2456  18.773  34.103   1.763
42712W        W 2457  16.763  18.577   1.898
42713W        W 2458  37.559  13.286   1.235
42714W        W 2459   7.337  31.496   2.671
42715W        W 2460  32.496  22.638  12.415
42716W        W 2461  37.993  22.062   2.306
42717W        W 2462  35.096   1.354   1.840
42718W        W 2463   8.675  13.720  10.536
42719W        W 2464  40.391  32.084  12.990
42720W        W 2465  12.227   7.751   3.771
42721W        W 2466  25.083  44.448  11.377
42722W        W 2467  41.847  35.017  11.384
42723W        W 2468  41.514   2.436  12.976
42724W        W 2469  23.493   5.878   1.357
42725W        W 2470  28.154  13.635  10.413
42726W        W 2471  13.828  37.059   0.898
42727W        W 2472  11.831  28.149   0.325
42728W        W 2473  34.573  11.761   3.728
42729W        W 2474  13.765  44.839  13.052
42730W        W 2475  26.504  40.986   1.762
42731W        W 2476   4.218  39.016   4.789
42732W        W 2477  24.508  40.441  11.887
42733W        W 2478  14.166  14.685   2.854
42734W        W 2479  43.912  21.622  12.995
42735W        W 2480   7.291  39.856   0.470
42736W        W 2481   3.764  35.365   4.642
42737W        W 2482  31.643  11.716   4.116
42738W        W 2483  16.188   1.336  11.862
42739W        W 2484  30.952  13.779   0.458
42740W        W 2485   7.888  14.290  14.357
42741W        W 2486  12.775  20.546  11.923
42742W        W 2487  22.577  40.546   2.818
42743W        W 2488  11.834  10.255  11.925
42744W        W 2489  13.648  23.704   4.188
42745W        W 2490  32.070  23.617   5.117
42746W        W 2491  13.213  44.920  12.872
42747W        W 2492   7.714  23.197   3.810
42748W        W 2493   6.228  16.243  14.516
42749W        W 2494  37.398  35.376  10.479
42750W        W 2495  40.460   8.704   0.967
42751W        W 2496  32.572  42.794   0.743
42752W        W 2497   2.872  39.420   0.742
42753W        W 2498  23.181  23.626  10.491
42754W        W 2499   3.908  35.603   5.761
42755W        W 2500   4.309   6.711  14.840
42756W        W 2501  22.519  27.046   2.890
42757W        W 2502  19.148  24.030  14.293
42758W        W 2503  38.839   5.850  10.920
42759W        W 2504  32.090  44.937  13.331
42760W        W 2505   5.707  33.041  11.465
42761W        W 2506  26.990  24.102  13.427
42762W        W 2507  38.970  40.449   4.734
42763W        W 2508  16.677  26.178   2.327
42764W        W 2509  34.018   7.172   3.828
42765W        W 2510  34.985  13.626   0.888
42766W        W 2511  22.243  34.918   5.192
42767W        W 2512  43.943  41.892  14.966
42768W        W 2513  28.969   6.225  14.385
42769W        W 2514  33.579  29.008   0.400
42770W        W 2515  28.666  43.414   1.217
42771W        W 2516   4.943  35.996   4.286
42772W        W 2517  31.905  36.399   0.294
42773W        W 2518  19.226  19.169   2.280
42774W        W 2519   1.354  31.944  13.387
42775W        W 2520  19.196  37.938  14.838
42776W        W 2521  17.114   4.266   3.350
42777W        W 2522   9.359  36.874  10.961
42778W        W 2523  40.899  20.049   1.776
42779W        W 2524  22.998  43.770   1.402
42780W        W 2525  13.839   8.734   0.884
42781W        W 2526  15.225  30.054   2.368
42782W        W 2527  44.875  21.729  14.515
42783W        W 2528  39.501   5.428   4.617
42784W        W 2529  12.689   1.749   3.288
42785W        W 2530  40.381  39.907   1.412
42786W        W 2531  24.998  41.791  12.996
42787W        W 2532  12.322   2.470   1.246
42788W        W 2533  26.504   0.868  10.494
42789W        W 2534  11.227  38.982  10.007
42790W        W 2535  27.043  36.362   0.861
42791W        W 2536  28.573  13.349   1.308
42792W        W 2537  27.974  29.955  12.422
42793W        W 2538  22.008   8.286   2.898
42794W        W 2539   1.809  17.096  10.577
42795W        W 2540  12.740  43.412   4.796
42796W        W 2541  37.496   0.904   0.927
42797W        W 2542  26.180  38.430  14.972
42798W        W 2543  38.892  18.104  14.025
42799W        W 2544  39.892  14.799  11.937
42800W        W 2545  15.685  34.532  12.938
42801W        W 2546  28.642   6.247  12.952
42802W        W 2547  41.440  25.667   3.239
42803W        W 2548  34.098  27.519   1.820
42804W        W 2549   1.453   8.313   4.211
42805W        W 2550  11.796  16.747   0.776
42806W        W 2551  42.289   2.848   4.344
42807W        W 2552  11.863  26.092   2.778
42808W        W 2553  44.822  43.327  13.462
42809W        W 2554  30.948  37.995  12.451
42810W        W 2555  26.141  38.949   1.354
42811W        W 2556  39.351  17.199  14.410
42812W        W 2557  29.049  33.396   3.640
42813W        W 2558  35.978  29.162   1.767
42814W        W 2559  22.513   5.826  14.884
42815W        W 2560  24.569  43.311  12.510
42816W        W 2561  40.490  36.422   3.681
42817W        W 2562  33.033  27.570   0.475
42818W        W 2563  16.599  20.156  11.107
42819W        W 2564  23.541   2.780  14.463
42820W        W 2565  33.435  40.499   4.282
42821W        W 2566   5.770  19.228  12.431
42822W        W 2567  13.695  36.433   1.436
42823W        W 2568  34.390  25.498   0.352
42824W        W 2569  23.223  17.599   2.827
42825W        W 2570  29.423   1.283   0.379
42826W        W 2571  38.927  14.628  13.403
42827W        W 2572  18.217   0.275   1.389
42828W        W 2573  44.830  11.710   0.751
42829W        W 2574  27.969  28.667   3.847
42830W        W 2575  14.323  41.377  11.003
42831W        W 2576   3.927   1.741  13.323
42832W        W 2577  14.790  33.020  13.920
42833W        W 2578   5.354  26.152   1.241
42834W        W 2579  27.067  13.164  10.094
42835W        W 2580  33.444  27.179   3.314
42836W        W 2581  14.790   9.150  13.417
42837W        W 2582   4.246  40.825   3.632
42838W        W 2583   0.468   6.332   3.223
42839W        W 2584  15.726  22.039  13.379
42840W        W 2585  25.161  34.071   1.793
42841W        W 2586  41.025  27.994   0.435
42842W        W 2587  31.436  44.479   0.931
42843W        W 2588   4.429  39.458  13.902
42844W        W 2589  10.869  15.258   0.339
42845W        W 2590   6.772  29.636   0.740
42846W        W 2591  11.278  31.570  12.463
42847W        W 2592  10.249  32.889  14.330
42848W        W 2593  22.246   6.775   0.935
42849W        W 2594  22.645  15.674   2.194
42850W        W 2595  42.880  29.484  11.027
42851W        W 2596  23.056  35.564   2.178
42852W        W 2597  17.639   6.835   3.747
42853W        W 2598  35.921   7.362   2.233
42854W        W 2599  27.050  10.363   0.321
42855W        W 2600   6.785  44.289  12.826
42856W        W 2601  29.974  23.520   1.829
42857W        W 2602  44.287  44.915  12.040
42858W        W 2603  38.410   0.415   4.161
42859W        W 2604  10.211  38.964  11.035
42860W        W 2605  28.023  17.249   3.353
42861W        W 2606  43.943  23.672   0.317
42862W        W 2607  22.103  10.275   3.228
42863W        W 2608  32.489  18.687  11.543
42864W        W 2609  40.854  44.341  12.493
42865W        W 2610  30.514  38.489  11.477
42866W        W 2611  14.268  15.661  12.941
42867W        W 2612  23.239  25.492   2.713
42868W        W 2613  26.054   2.875   3.663
42869W        W 2614  22.076  36.085   1.300
42870W        W 2615  21.640   2.265   3.205
42871W        W 2616   6.906   6.360   1.386
42872W        W 2617  10.726  10.667   0.449
42873W        W 2618  26.509   7.375   0.454
42874W        W 2619  26.099  43.486  13.981
42875W        W 2620  23.564  30.139  10.120
42876W        W 2621  24.725   7.357  12.864
42877W        W 2622  12.216  29.941   2.793
42878W        W 2623  12.196  38.855  13.879
42879W        W 2624  30.588  15.197   1.341
42880W        W 2625   7.879  28.601   0.280
42881W        W 2626  42.512  19.590  14.956
42882W        W 2627  12.198  15.596  13.888
42883W        W 2628  33.493  38.881  10.410
42884W        W 2629   5.839  24.018   0.887
42885W        W 2630   0.420  23.568   3.834
42886W        W 2631  32.093  31.010   1.756
42887W        W 2632  16.274  27.027   2.804
42888W        W 2633  21.060  43.782  13.501
42889W        W 2634  25.066  29.571  12.549
42890W        W 2635  17.193   1.949   3.734
42891W        W 2636  39.862   2.335   2.231
42892W        W 2637  18.684   4.917  13.370
42893W        W 2638   2.818  34.485  12.939
42894W        W 2639  35.365  32.928   0.842
42895W        W 2640   7.412  22.069   3.263
42896W        W 2641  31.034   1.842  14.828
42897W        W 2642  14.187   2.946  13.322
42898W        W 2643  20.031   0.396  13.934
42899W        W 2644   2.456  25.193   0.947
42900W        W 2645  20.653   9.810   0.267
42901W        W 2646  21.745  35.505   0.737
42902W        W 2647  10.297  16.119  14.815
42903W        W 2648  42.030  20.054  14.763
42904W        W 2649  10.722  25.499  13.985
42905W        W 2650   8.189  27.196   1.701
42906W        W 2651  15.674   0.430   3.755
42907W        W 2652  32.902  25.048  13.927
42908W        W 2653  37.354   8.206   2.290
42909W        W 2654  31.896  29.551  13.820
42910W        W 2655  13.257   8.861   1.247
42911W        W 2656  42.358   9.235   3.665
42912W        W 2657  43.805  26.972   0.457
42913W        W 2658  44.282  39.894  11.554
42914W        W 2659  16.751   1.249  10.953
42915W        W 2660   5.289  29.968   0.460
42916W        W 2661  41.308   0.398   0.478
42917W        W 2662  37.865  13.828   2.329
42918W        W 2663   5.315  37.914  13.389
42919W        W 2664  13.818  39.420  12.034
42920W        W 2665  29.644   3.368   4.243
42921W        W 2666  24.035   5.818   1.827
42922W        W 2667   6.285  36.536   3.855
42923W        W 2668  31.124   1.308   1.724
42924W        W 2669  24.978  28.993   5.316
42925W        W 2670  27.587  32.622  11.056
42926W        W 2671  43.958  13.692   3.255
42927W        W 2672   0.450  34.066  12.910
42928W        W 2673  43.956  41.307  11.918
42929W        W 2674  41.848  35.972  10.143
42930W        W 2675  33.976   1.823   1.794
42931W        W 2676  42.930  21.179   2.251
42932W        W 2677  34.503  28.949  10.533
42933W        W 2678  28.986   9.149   1.271
42934W        W 2679  19.700  38.433  13.922
42935W        W 2680  11.795  31.914   0.479
42936W        W 2681  38.440  11.733  11.537
42937W        W 2682   9.802   9.804   0.448
42938W        W 2683  11.253  38.494  14.515
42939W        W 2684   8.777   7.788  11.973
42940W        W 2685   5.806  16.802  11.980
42941W        W 2686  40.392  20.602  11.611
42942W        W 2687  24.719   2.723   2.236
42943W        W 2688  14.795  32.040  13.954
42944W        W 2689  25.156  22.647  11.394
42945W        W 2690  22.693  35.078   0.792
42946W        W 2691  34.401  34.882   1.410
42947W        W 2692   2.462  23.534   0.893
42948W        W 2693  23.111  27.467  10.923
42949W        W 2694  36.355  33.552   4.637
42950W        W 2695  12.275  13.714   0.886
42951W        W 2696   9.193  16.297   4.167
42952W        W 2697  43.512  23.709   4.289
42953W        W 2698   2.360  34.056  13.963
42954W        W 2699  30.564  38.865  11.985
42955W        W 2700  26.494   1.744   0.475
42956W        W 2701  34.538  30.425   4.644
42957W        W 2702  42.012  17.640   0.446
42958W        W 2703  42.815  19.661  11.940
42959W        W 2704   3.855  13.160   1.322
42960W        W 2705  16.143  24.146   1.330
42961W        W 2706   1.444  31.047   3.779
42962W        W 2707  35.046  36.921  13.328
42963W        W 2708   3.365  34.102  14.893
42964W        W 2709  30.649  27.191  12.459
42965W        W 2710  41.842   0.784   0.264
42966W        W 2711   0.838  17.133   1.214
42967W        W 2712  26.616   1.763   2.763
42968W        W 2713  27.585   6.714  12.962
42969W        W 2714  12.717  37.878   3.701
42970W        W 2715  16.580  28.668  12.052
42971W        W 2716   8.822  22.573   3.294
42972W        W 2717   4.924  13.748  14.794
42973W        W 2718   2.258  20.563  14.942
42974W        W 2719  24.128  30.461   5.131
42975W        W 2720   1.441  35.484   0.254
42976W        W 2721  14.096  22.008  13.026
42977W        W 2722  23.543  36.350  12.894
42978W        W 2723   3.754  38.913  13.061
42979W        W 2724  31.896  24.149  14.426
42980W        W 2725  23.075  42.875   0.726
42981W        W 2726  26.518  31.463   0.771
42982W        W 2727  25.472  40.410   3.345
42983W        W 2728  37.893  39.040   2.687
42984W        W 2729  17.107  37.830   9.488
42985W        W 2730  29.586   6.427   2.668
42986W        W 2731  21.616  22.514   2.777
42987W        W 2732   9.652   7.724   1.861
42988W        W 2733  27.193  30.081  10.498
42989W        W 2734   8.808   3.885  13.338
42990W        W 2735  25.545  14.787  13.906
42991W        W 2736  31.082   0.382   4.351
42992W        W 2737  24.698  19.639  12.502
42993W        W 2738  21.188  25.969  12.372
42994W        W 2739  20.611  33.116  11.610
42995W        W 2740   4.812  28.041  10.610
42996W        W 2741   0.861  17.687   2.231
42997W        W 2742  13.728  35.996  13.381
42998W        W 2743  20.547  42.939  13.414
42999W        W 2744  31.022  35.439  14.376
43000W        W 2745  35.547  25.541   3.683
43001W        W 2746  31.955  36.049   3.767
43002W        W 2747  21.034  15.601   1.218
43003W        W 2748   2.296  15.632   1.743
43004W        W 2749   2.951   0.880  13.528
43005W        W 2750   0.405  21.159   1.842
43006W        W 2751  14.671  40.312   3.754
43007W        W 2752  15.793  10.341  12.943
43008W        W 2753  26.582  13.655   1.861
43009W        W 2754  27.633  12.671  13.022
43010W        W 2755   6.702  11.250  14.363
43011W        W 2756  20.760  26.171   0.735
43012W        W 2757   8.664  19.188   3.242
43013W        W 2758  37.929  37.836  14.296
43014W        W 2759  19.202   9.811   0.404
43015W        W 2760  20.747  35.522  11.000
43016W        W 2761   7.327  42.308   3.804
43017W        W 2762  12.657  24.579   1.314
43018W        W 2763  41.463  39.527  10.986
43019W        W 2764  19.148  40.543   3.694
43020W        W 2765   8.298  36.068   2.243
43021W        W 2766  10.256  29.664  12.993
43022W        W 2767  41.512   4.323  11.386
43023W        W 2768  13.755  23.124  12.529
43024W        W 2769  16.799  17.273   1.248
43025W        W 2770  37.405  36.975   2.868
43026W        W 2771  18.166  33.604  13.894
43027W        W 2772  42.316  43.879  13.894
43028W        W 2773  38.342  28.538   2.219
43029W        W 2774   3.357   0.426   4.695
43030W        W 2775  11.293  32.446   3.170
43031W        W 2776  37.447  33.912   3.682
43032W        W 2777  36.955   3.383  14.463
43033W        W 2778   9.789  15.762   4.234
43034W        W 2779  22.200  32.003  11.455
43035W        W 2780   3.923  36.988   1.321
43036W        W 2781   0.863  42.943   4.209
43037W        W 2782   8.371   6.292  12.858
43038W        W 2783  39.340  40.411   2.291
43039W        W 2784  33.412  43.421   0.469
43040W        W 2785  30.012   1.815  14.896
43041W        W 2786  20.237  25.972  14.347
43042W        W 2787  43.366  16.783   0.867
43043W        W 2788   3.413   1.834  14.868
43044W        W 2789  20.082  26.018   0.897
43045W        W 2790  27.011   3.889   0.827
43046W        W 2791  23.721   4.272   0.474
43047W        W 2792   9.210  28.032   3.740
43048W        W 2793  29.609  17.201   2.297
43049W        W 2794   8.704  31.538   2.792
43050W        W 2795   3.855  14.779   0.768
43051W        W 2796  13.738  32.140  12.908
43052W        W 2797  28.174   1.333   2.241
43053W        W 2798  19.274  44.398  13.382
43054W        W 2799   7.186  17.619  10.423
43055W        W 2800   9.790  34.115   0.257
43056W        W 2801  27.090  16.740   9.675
43057W        W 2802  11.279  15.737  12.841
43058W        W 2803  33.956  11.656  13.031
43059W        W 2804  40.052  36.510   0.383
43060W        W 2805  39.826   1.978   3.829
43061W        W 2806  31.028   9.311  13.450
43062W        W 2807  26.482  38.029   1.446
43063W        W 2808  17.570  18.064   1.245
43064W        W 2809  41.356   7.217   4.142
43065W        W 2810  33.543  25.472  12.469
43066W        W 2811  33.545  30.026  10.147
43067W        W 2812   2.461  19.766   4.653
43068W        W 2813  21.243  19.129  12.555
43069W        W 2814   6.916  37.920   0.442
43070W        W 2815  10.825  31.050  14.855
43071W        W 2816  16.624  35.602   1.790
43072W        W 2817  38.068  31.968  11.405
43073W        W 2818  21.576  15.235   3.833
43074W        W 2819   8.763  16.286   4.144
43075W        W 2820   6.787  44.873   1.707
43076W        W 2821  29.496   5.357   0.750
43077W        W 2822  11.155  21.626   2.245
43078W        W 2823  22.576  15.793   0.386
43079W        W 2824  22.567  39.011   1.704
43080W        W 2825  19.572   2.416  14.800
43081W        W 2826  10.366  43.009   2.854
43082W        W 2827   3.771  23.710   0.297
43083W        W 2828  44.881  32.054   3.851
43084W        W 2829  27.528  35.054   0.349
43085W        W 2830  13.631  17.138   3.256
43086W        W 2831  32.928   3.372  14.443
43087W        W 2832  23.989   6.224   0.258
43088W        W 2833  25.164  27.045  12.396
43089W        W 2834   4.335  23.095   0.367
43090W        W 2835   4.417  12.157  12.905
43091W        W 2836  34.458  24.125  14.447
43092W        W 2837  30.445  18.715   0.827
43093W        W 2838  16.590  31.909  13.954
43094W        W 2839  13.721   0.484  14.468
43095W        W 2840  44.006  21.538   0.298
43096W        W 2841  16.115  15.775   2.206
43097W        W 2842   2.926  20.533   0.260
43098W        W 2843  26.120   1.402   0.729
43099W        W 2844  40.510  19.225   4.145
43100W        W 2845  17.683  37.069   0.439
43101W        W 2846  18.783  37.444  14.973
43102W        W 2847   4.811   4.451   1.284
43103W        W 2848  27.187  30.979  14.968
43104W        W 2849   0.854  26.151   9.990
43105W        W 2850  23.999  10.184  10.403
43106W        W 2851  23.102  43.989  10.973
43107W        W 2852  30.048  16.077   1.425
43108W        W 2853  29.645  14.163   0.272
43109W        W 2854   6.225  20.095  13.895
43110W        W 2855  43.791  10.166   1.891
43111W        W 2856   9.876  24.550   3.682
43112W        W 2857  39.476  21.738  12.973
43113W        W 2858  39.353  27.471   2.399
43114W        W 2859  41.008   6.280  10.914
43115W        W 2860   3.933  17.077   1.703
43116W        W 2861  35.480  22.162  14.398
43117W        W 2862  26.052  42.918  12.843
43118W        W 2863  13.675  34.120   9.938
43119W        W 2864  37.484   7.899   4.266
43120W        W 2865  16.123  13.105  14.797
43121W        W 2866  19.174  16.165   1.280
43122W        W 2867  41.806  41.906   2.374
43123W        W 2868  44.494   0.285   4.232
43124W        W 2869  24.588  18.667  14.458
43125W        W 2870  27.563  15.608  11.936
43126W        W 2871  34.570  20.170  10.474
43127W        W 2872  10.169   9.834  10.077
43128W        W 2873  36.913  40.492  12.975
43129W        W 2874   0.470  20.659   2.751
43130W        W 2875   7.336  21.538  11.393
43131W        W 2876  42.318  30.636   4.635
43132W        W 2877  11.226   8.195   4.279
43133W        W 2878  40.427  17.182   3.771
43134W        W 2879  25.171  36.903   1.861
43135W        W 2880  43.005   0.951   1.862
43136W        W 2881   7.386  22.024  11.014
43137W        W 2882  26.958  44.420   0.871
43138W        W 2883   3.872  42.466   4.172
43139W        W 2884  25.055  40.393  12.032
43140W        W 2885  35.011   5.775  14.283
43141W        W 2886   0.298   1.976  14.851
43142W        W 2887  19.216  13.738  12.392
43143W        W 2888  32.510   4.863   1.818
43144W        W 2889  40.889  39.023   3.656
43145W        W 2890   3.816  22.544  14.475
43146W        W 2891  36.902  35.950  10.583
43147W        W 2892  44.793   7.796  12.360
43148W        W 2893  37.366   5.193   4.192
43149W        W 2894  18.295  40.858  10.590
43150W        W 2895  17.223   5.889   1.419
43151W        W 2896  40.027  10.195  11.490
43152W        W 2897  26.026  35.466  14.865
43153W        W 2898   2.436  22.569   3.224
43154W        W 2899  27.039  21.684   2.832
43155W        W 2900  11.372  44.323   4.345
43156W        W 2901  10.637  44.884  11.078
43157W        W 2902   8.313  32.104   3.205
43158W        W 2903  35.473   5.718   3.805
43159W        W 2904   9.711   1.298  14.464
43160W        W 2905  39.468  37.036   0.469
43161W        W 2906  19.260  41.870  10.910
43162W        W 2907   8.829   9.785   4.605
43163W        W 2908  40.335   4.285   0.418
43164W        W 2909  17.601  43.426  13.857
43165W        W 2910   7.904  30.648  11.953
43166W        W 2911  42.381  11.803   4.816
43167W        W 2912   0.892  43.346  11.892
43168W        W 2913  42.836   5.897  13.966
43169W        W 2914  16.707  30.128   4.117
43170W        W 2915  29.497  40.822   3.848
43171W        W 2916  15.701  38.366  12.553
43172W        W 2917   6.389  38.404   2.272
43173W        W 2918  21.631  21.693  11.983
43174W        W 2919  13.827  38.547   0.868
43175W        W 2920  14.149  15.756  11.448
43176W        W 2921   4.376  30.028   0.265
43177W        W 2922  12.663  17.704  12.859
43178W        W 2923  40.836  17.585   3.183
43179W        W 2924  39.438  43.323  11.017
43180W        W 2925   4.872   8.890   1.896
43181W        W 2926  16.745   4.743   0.856
43182W        W 2927  42.951  23.204   3.194
43183W        W 2928   1.836  12.766   4.171
43184W        W 2929  40.304  37.955   4.745
43185W        W 2930  44.280  14.638  11.883
43186W        W 2931   9.171   5.808   0.362
43187W        W 2932  26.023  32.988   3.208
43188W        W 2933   6.724  16.132   4.750
43189W        W 2934   3.286  25.212   4.602
43190W        W 2935  15.277   4.908  14.959
43191W        W 2936  39.523  40.852   1.808
43192W        W 2937  37.503  19.278  13.872
43193W        W 2938  43.508  42.310   4.263
43194W        W 2939  18.624  30.563  13.846
43195W        W 2940  29.038  15.092   3.671
43196W        W 2941  44.896  19.246   2.888
43197W        W 2942  17.203  26.031  12.920
43198W        W 2943  30.416  24.492  14.834
43199W        W 2944  20.649   6.316   0.428
43200W        W 2945   5.849   1.968  14.305
43201W        W 2946   3.779  30.498   2.394
43202W        W 2947   2.958   1.348  11.092
43203W        W 2948  30.469   0.461   2.704
43204W        W 2949  13.753   2.336  14.360
43205W        W 2950  20.219  29.105  11.409
43206W        W 2951  31.449   2.957   3.738
43207W        W 2952  40.331  32.396  12.562
43208W        W 2953   2.913  14.188   3.769
43209W        W 2954  28.661  23.565  12.413
43210W        W 2955  34.910  37.947   3.265
43211W        W 2956  44.764  27.006  14.460
43212W        W 2957  28.060  27.539  10.945
43213W        W 2958   7.262  24.178   3.777
43214W        W 2959  19.561  40.867  10.433
43215W        W 2960  21.020  19.772   0.290
43216W        W 2961   0.868  13.303  12.494
43217W        W 2962  28.595  37.380   4.638
43218W        W 2963   3.338  30.497   1.407
43219W        W 2964   5.221  17.088   4.630
43220W        W 2965  17.802  14.257   0.350
43221W        W 2966   9.226   7.361   2.213
43222W        W 2967  17.748   4.770  13.352
43223W        W 2968   4.273  42.346   2.337
43224W        W 2969  22.575  43.009   2.222
43225W        W 2970  21.599  34.894  12.455
43226W        W 2971  37.942  17.305   0.483
43227W        W 2972  30.992  18.215   2.723
43228W        W 2973   2.322  39.829   3.357
43229W        W 2974   6.332  13.299   4.702
43230W        W 2975  11.294   3.732   3.848
43231W        W 2976   0.907  25.644  14.289
43232W        W 2977  44.389  43.354  14.482
43233W        W 2978  29.121  44.482  12.342
43234W        W 2979  25.166   0.882   1.901
43235W        W 2980  29.127  35.024  14.943
43236W        W 2981  22.676  29.455   4.770
43237W        W 2982   7.265  39.991   0.942
43238W        W 2983  16.130  23.731   2.284
43239W        W 2984  38.876  27.505   3.862
43240W        W 2985  14.790  31.558  12.415
43241W        W 2986  20.254  21.189   1.903
43242W        W 2987  13.810  19.540  14.841
43243W        W 2988  26.468   1.793   2.247
43244W        W 2989   5.879  40.532  12.387
43245W        W 2990  18.695  23.207   1.392
43246W        W 2991  11.279  41.968   1.258
43247W        W 2992  29.968  44.829  13.360
43248W        W 2993  32.984  43.279  13.043
43249W        W 2994  39.852  10.179   1.880
43250W        W 2995  40.512  26.586   0.957
43251W        W 2996  44.895   0.346  14.003
43252W        W 2997  23.076  32.078  14.844
43253W        W 2998  26.577  37.510  11.019
43254W        W 2999   4.338  28.077  12.961
43255W        W 3000  21.177  34.519   4.622
43256W        W 3001  43.497  13.730   2.723
43257W        W 3002  26.120  36.445  10.515
43258W        W 3003  30.595  37.450  13.526
43259W        W 3004  32.558  35.021  11.522
43260W        W 3005  24.482  28.090  14.022
43261W        W 3006  38.066   2.780   1.377
43262W        W 3007  22.722  44.831   3.723
43263W        W 3008  33.548  31.979  10.042
43264W        W 3009  29.079   4.859  12.425
43265W        W 3010  31.426  20.145  14.936
43266W        W 3011  32.946  26.059   4.810
43267W        W 3012  25.064  14.218  12.964
43268W        W 3013  14.278  42.325   2.793
43269W        W 3014  41.475  11.721  13.799
43270W        W 3015  26.123   3.953   0.387
43271W        W 3016   6.389  20.049   1.831
43272W        W 3017  17.298  24.161   4.352
43273W        W 3018  33.046   6.186   4.334
43274W        W 3019  30.141  14.123  11.940
43275W        W 3020   4.766  23.621  14.816
43276W        W 3021  15.819  38.055   2.375
43277W        W 3022  25.538  36.465   2.693
43278W        W 3023   6.882  32.938  12.446
43279W        W 3024  27.008  16.169   3.231
43280W        W 3025  12.645   3.253  10.422
43281W        W 3026  14.310  20.104   4.181
43282W        W 3027  16.651  40.897   2.706
43283W        W 3028  17.781  31.004  14.277
43284W        W 3029  23.573  20.160   4.722
43285W        W 3030  20.104  24.161  10.938
43286W        W 3031   9.776  16.728   1.369
43287W        W 3032  20.150  16.288   4.266
43288W        W 3033  33.413  37.983   4.742
43289W        W 3034   0.483  35.872   1.430
43290W        W 3035  33.954  18.204  11.856
43291W        W 3036   5.808   6.319   4.627
43292W        W 3037  21.741  39.809  13.858
43293W        W 3038   7.198  14.708  10.999
43294W        W 3039  22.103  44.915  11.863
43295W        W 3040  17.614  36.490  12.389
43296W        W 3041  41.027   4.776   0.408
43297W        W 3042   5.242  43.491   2.790
43298W        W 3043   3.224  18.159   3.212
43299W        W 3044  31.914   3.238  14.381
43300W        W 3045  38.468  39.027   4.287
43301W        W 3046  43.017  34.472  12.578
43302W        W 3047  44.876  32.609  10.089
43303W        W 3048  21.561   5.303   0.783
43304W        W 3049  14.146  14.289   2.788
43305W        W 3050  23.185  26.969  13.826
43306W        W 3051   0.423  35.989   4.754
43307W        W 3052  41.427  39.339   2.329
43308W        W 3053  11.766   7.863  12.506
43309W        W 3054  10.839  36.510  10.968
43310W        W 3055  33.443  23.173   3.332
43311W        W 3056  28.627  10.381   4.183
43312W        W 3057  34.545  33.964  14.968
43313W        W 3058   9.778  42.022  13.314
43314W        W 3059  37.042  15.215  13.333
43315W        W 3060  12.132  39.423   3.313
43316W        W 3061  28.033  10.315  10.645
43317W        W 3062  10.343  42.433  10.544
43318W        W 3063   0.413  15.625  13.399
43319W        W 3064  10.213   4.768   9.998
43320W        W 3065  15.672  31.153   1.880
43321W        W 3066   5.776  14.303  10.901
43322W        W 3067  21.722   9.767  13.524
43323W        W 3068   6.412   5.323  10.979
43324W        W 3069  30.096  23.662   2.242
43325W        W 3070  39.343  26.128   4.762
43326W        W 3071  12.204   2.900  14.407
43327W        W 3072  34.585  44.792  14.420
43328W        W 3073   6.826  11.298   2.783
43329W        W 3074   3.408  32.440  14.021
43330W        W 3075   5.420  17.069   2.367
43331W        W 3076  27.174  40.348  12.032
43332W        W 3077  18.612  42.923   0.296
43333W        W 3078  29.479  39.450  14.356
43334W        W 3079  16.142  24.547   0.940
43335W        W 3080   2.359   4.290   0.473
43336W        W 3081  30.437  25.113  13.486
43337W        W 3082  23.056  25.137  13.403
43338W        W 3083  21.650  15.601   2.238
43339W        W 3084  33.077  19.761  14.971
43340W        W 3085  26.000   6.426   1.367
43341W        W 3086  38.013  19.233  11.380
43342W        W 3087   8.848  26.571  11.928
43343W        W 3088  32.530  13.279  12.560
43344W        W 3089  12.299  25.641   1.410
43345W        W 3090  23.503   4.907  14.417
43346W        W 3091  37.361  18.638  12.360
43347W        W 3092  31.072  44.931   0.411
43348W        W 3093  40.028   3.941  12.954
43349W        W 3094  11.736   8.279  11.027
43350W        W 3095  13.705  31.990   3.363
43351W        W 3096  22.191   5.803   0.440
43352W        W 3097  34.102  22.205   1.786
43353W        W 3098  34.539  38.460  12.961
43354W        W 3099  30.913   9.774   0.893
43355W        W 3100   9.387   3.941  13.843
43356W        W 3101   4.357  27.006  10.640
43357W        W 3102  42.976  26.996   2.276
43358W        W 3103  25.112  41.381   0.800
43359W        W 3104   7.197  36.497  11.951
43360W        W 3105  22.007  39.994  12.046
43361W        W 3106  10.644   4.849   1.715
43362W        W 3107  24.181  38.059  10.560
43363W        W 3108   4.262  13.837   2.719
43364W        W 3109   5.899  13.129  11.556
43365W        W 3110  20.611  10.836   4.181
43366W        W 3111  13.813   4.213   3.783
43367W        W 3112  19.566   0.367  14.306
43368W        W 3113  32.408  34.612   4.230
43369W        W 3114  28.531  19.770   3.349
43370W        W 3115  33.517  23.208   4.647
43371W        W 3116  26.640   6.258  13.032
43372W        W 3117  33.432  18.209   2.250
43373W        W 3118  35.079  41.919  13.887
43374W        W 3119  37.977   1.250   2.894
43375W        W 3120   6.764  25.626  10.529
43376W        W 3121  24.046  34.113  13.996
43377W        W 3122  10.228  19.204  12.903
43378W        W 3123  33.907  37.976   3.723
43379W        W 3124  21.592  37.374   3.211
43380W        W 3125   4.869  38.920  12.477
43381W        W 3126  15.732  20.203   0.392
43382W        W 3127  28.990  30.123   2.327
43383W        W 3128  24.100  18.235  13.799
43384W        W 3129  33.570  24.531   2.832
43385W        W 3130  19.581  28.544  14.286
43386W        W 3131   7.794  20.567  11.381
43387W        W 3132   4.323  16.713   0.398
43388W        W 3133  41.301  36.587   2.363
43389W        W 3134  27.465  24.178   3.347
43390W        W 3135  17.600  31.546   1.844
43391W        W 3136  31.056   3.879  13.890
43392W        W 3137  43.803   8.772  12.914
43393W        W 3138  40.931   8.775   4.176
43394W        W 3139  23.074  37.962   0.921
43395W        W 3140  29.655  29.431   1.774
43396W        W 3141  20.702  29.664   1.907
43397W        W 3142  41.528  37.899  14.918
43398W        W 3143  32.581  20.202   0.871
43399W        W 3144   2.240  28.502   5.272
43400W        W 3145  34.503  32.100  12.046
43401W        W 3146  11.719  12.187   1.270
43402W        W 3147  38.382   9.792  10.634
43403W        W 3148  12.271  27.570   3.742
43404W        W 3149  22.734  30.021  14.956
43405W        W 3150  20.273  26.498  10.093
43406W        W 3151  25.148  38.927  13.520
43407W        W 3152  23.627  23.605  11.509
43408W        W 3153  39.871  30.657  12.346
43409W        W 3154   2.274  16.097  13.837
43410W        W 3155   8.350  39.365   4.310
43411W        W 3156   9.874  40.441  11.598
43412W        W 3157  22.068   3.391   3.690
43413W        W 3158  28.964  43.007   2.754
43414W        W 3159   3.220   4.892   1.778
43415W        W 3160  21.703  21.723  13.548
43416W        W 3161  26.189  30.576   1.433
43417W        W 3162  10.189   4.886   1.275
43418W        W 3163  10.672  25.551   3.811
43419W        W 3164  36.082  17.698  13.837
43420W        W 3165  18.079  27.152  12.006
43421W        W 3166  28.078  36.416   3.165
43422W        W 3167  19.216  42.783  10.140
43423W        W 3168  36.999  43.479   0.842
43424W        W 3169  25.549  15.209   3.364
43425W        W 3170  21.084  41.394   2.706
43426W        W 3171  12.633   3.775  13.978
43427W        W 3172   5.426  15.213   2.737
43428W        W 3173   5.324  15.765  12.007
43429W        W 3174  17.712  19.764  13.842
43430W        W 3175  13.259   6.346   5.198
43431W        W 3176  24.217   4.785  13.931
43432W        W 3177  44.808  18.131   9.638
43433W        W 3178  28.986  20.682  13.440
43434W        W 3179  10.283  37.427  11.007
43435W        W 3180  26.129  31.128  14.346
43436W        W 3181   5.398  39.935  13.336
43437W        W 3182  15.253   5.752   2.734
43438W        W 3183  33.414  39.433  13.451
43439W        W 3184  14.661   9.365  12.078
43440W        W 3185  29.528  36.461  11.499
43441W        W 3186   2.390  34.519   2.358
43442W        W 3187  21.203  29.439  10.075
43443W        W 3188   2.300   5.851  12.866
43444W        W 3189  14.777  42.514   1.311
43445W        W 3190  39.013   7.685   9.959
43446W        W 3191   4.799  22.031   2.354
43447W        W 3192  44.007  34.374   4.808
43448W        W 3193  13.212   7.764  12.489
43449W        W 3194  43.328   1.453  13.372
43450W        W 3195  24.226  30.987  14.459
43451W        W 3196  23.984  18.775   0.376
43452W        W 3197  31.011  27.605   4.268
43453W        W 3198  38.971   3.444   4.799
43454W        W 3199  30.562  32.140   4.122
43455W        W 3200  39.918  40.025   0.401
43456W        W 3201   7.319  12.268  13.815
43457W        W 3202  31.583  11.278  11.423
43458W        W 3203  14.141  25.004  14.780
43459W        W 3204   3.247  39.560  14.456
43460W        W 3205  32.002  38.402  13.451
43461W        W 3206  15.213  34.908   1.737
43462W        W 3207  30.975  16.705   4.322
43463W        W 3208  17.160  29.992   2.731
43464W        W 3209  35.905   4.229  14.364
43465W        W 3210  21.056  13.728   3.726
43466W        W 3211  27.451  36.348  11.425
43467W        W 3212  15.258  30.451  13.359
43468W        W 3213  32.444  42.984   2.881
43469W        W 3214  11.662   0.456  11.070
43470W        W 3215   7.666  41.474  10.553
43471W        W 3216  38.941   8.240  11.528
43472W        W 3217   0.470  39.532   2.250
43473W        W 3218  18.198  39.011   4.233
43474W        W 3219  14.667  21.120   2.206
43475W        W 3220  29.939  27.531   1.780
43476W        W 3221  37.374  24.069   2.872
43477W        W 3222  10.779   6.202  14.409
43478W        W 3223  20.708   0.794  14.983
43479W        W 3224  33.384  35.393  11.428
43480W        W 3225  19.173  10.790   1.694
43481W        W 3226   3.339  44.505  10.932
43482W        W 3227   0.958   5.751  12.482
43483W        W 3228  41.337  34.076   0.762
43484W        W 3229   7.823  15.117   0.797
43485W        W 3230   5.369  25.636   4.117
43486W        W 3231  15.662  19.747   4.743
43487W        W 3232  17.109  10.212  13.330
43488W        W 3233  28.563   0.857   0.845
43489W        W 3234  29.644  36.880  12.418
43490W        W 3235  37.403  31.965  12.940
43491W        W 3236  13.697   9.816  13.362
43492W        W 3237  36.458  38.367  12.860
43493W        W 3238  25.504   5.708  12.477
43494W        W 3239  37.077  18.295   3.794
43495W        W 3240  43.440  29.496   1.380
43496W        W 3241  17.786  28.539  10.625
43497W        W 3242   2.741  22.580  13.460
43498W        W 3243  30.653  28.497   0.804
43499W        W 3244   7.290   6.393   3.329
43500W        W 3245  40.880  16.206   2.328
43501W        W 3246  22.114   1.421  12.429
43502W        W 3247   1.274  30.062   9.533
43503W        W 3248  17.735  16.176  11.043
43504W        W 3249  28.127  18.219   3.849
43505W        W 3250  40.028  37.832   1.405
43506W        W 3251  12.736   5.236   1.262
43507W        W 3252  41.936  21.554   0.735
43508W        W 3253  34.919  17.734  11.885
43509W        W 3254  10.335  34.956  10.934
43510W        W 3255   4.920  33.518  12.416
43511W        W 3256  10.738  44.329  12.850
43512W        W 3257  42.031  13.321  12.868
43513W        W 3258  43.406   8.893   0.412
43514W        W 3259  43.001  33.885  12.411
43515W        W 3260   4.731  39.051  13.877
43516W        W 3261  11.337  11.183   0.283
43517W        W 3262  32.454  19.114  13.024
43518W        W 3263  11.715  35.971   2.329
43519W        W 3264   0.442  42.391   0.415
43520W        W 3265  11.212  43.453  10.962
43521W        W 3266   2.298   6.387  10.005
43522W        W 3267  30.026  27.626   2.237
43523W        W 3268  18.082  29.165   4.297
43524W        W 3269   8.289   6.297   3.292
43525W        W 3270  18.654  28.636  12.011
43526W        W 3271  34.070  17.189  14.430
43527W        W 3272  29.442  20.754   1.877
43528W        W 3273  12.670  12.250   3.748
43529W        W 3274  41.377   8.326  12.553
43530W        W 3275  19.101  42.522   1.900
43531W        W 3276  15.706  32.984   0.295
43532W        W 3277  27.688  37.045   0.838
43533W        W 3278  31.010  20.536   1.837
43534W        W 3279  10.661  11.321   3.795
43535W        W 3280  18.210   1.765  10.443
43536W        W 3281  41.427  39.034  14.348
43537W        W 3282  21.521  35.948  10.495
43538W        W 3283  22.569   9.847  13.351
43539W        W 3284  22.019  42.425   2.225
43540W        W 3285   4.920   5.256   4.197
43541W        W 3286  33.467  32.097   0.310
43542W        W 3287  31.544  32.574  11.596
43543W        W 3288  35.088   6.223  13.371
43544W        W 3289  22.109  43.923   1.851
43545W        W 3290  23.984  16.287   3.675
43546W        W 3291  38.032  25.621   3.314
43547W        W 3292   2.834   5.892   2.824
43548W        W 3293  20.263  15.088   2.309
43549W        W 3294  38.390  30.546   4.141
43550W        W 3295  23.168  27.180   3.711
43551W        W 3296  19.732  29.940  13.854
43552W        W 3297  24.982  20.545   0.891
43553W        W 3298  12.124  24.182   0.779
43554W        W 3299   8.163   5.785   3.845
43555W        W 3300  38.992  21.627  12.918
43556W        W 3301   8.165  12.677   3.316
43557W        W 3302  29.426  36.391   3.188
43558W        W 3303   9.369  24.980   9.976
43559W        W 3304  21.542  34.020   3.796
43560W        W 3305  19.723  41.296  13.932
43561W        W 3306  40.464  44.990  12.890
43562W        W 3307   7.850  38.012  13.424
43563W        W 3308   5.320  43.873  10.555
43564W        W 3309   2.367  40.489   5.220
43565W        W 3310   1.753   9.850  12.891
43566W        W 3311  17.739  21.227  11.467
43567W        W 3312   9.792  25.168  14.964
43568W        W 3313   5.913  15.158   1.310
43569W        W 3314  41.827  16.610  11.876
43570W        W 3315  29.016  28.456  10.633
43571W        W 3316  20.592  32.124   0.744
43572W        W 3317  40.427   4.918  12.877
43573W        W 3318  11.763   5.894   1.802
43574W        W 3319  31.498  43.293  13.803
43575W        W 3320   6.923   0.900  14.006
43576W        W 3321  28.134  33.064   0.410
43577W        W 3322   0.287  18.072   3.175
43578W        W 3323  33.946  15.620  12.991
43579W        W 3324  24.515  25.071   4.307
43580W        W 3325  11.825  37.348  14.486
43581W        W 3326  14.216  14.747  11.975
43582W        W 3327  30.618  35.449   2.368
43583W        W 3328  30.590   6.841  14.889
43584W        W 3329  11.808  23.148  14.383
43585W        W 3330  42.326  27.062   1.785
43586W        W 3331  20.545  22.141   1.897
43587W        W 3332  20.641   1.410  11.899
43588W        W 3333  34.114   6.758   1.448
43589W        W 3334  37.861  43.331   0.351
43590W        W 3335  11.651   8.656   5.258
43591W        W 3336   6.385   3.291   2.853
43592W        W 3337  34.609  16.223   4.197
43593W        W 3338  18.226  10.785  14.823
43594W        W 3339   3.312   7.836   4.659
43595W        W 3340  20.741  44.861  13.829
43596W        W 3341  26.631   9.211   1.819
43597W        W 3342   4.903  16.112   1.260
43598W        W 3343  40.331  13.809  11.957
43599W        W 3344  26.579  35.928  10.915
43600W        W 3345  28.019  10.208   9.987
43601W        W 3346  37.523  16.674  13.349
43602W        W 3347   6.313  28.122   4.295
43603W        W 3348   9.369   7.172  12.883
43604W        W 3349  36.880  26.109  12.568
43605W        W 3350  19.180  37.040   1.762
43606W        W 3351  29.994   9.661   0.288
43607W        W 3352  14.781   4.317  13.016
43608W        W 3353  20.270  31.988  12.543
43609W        W 3354  12.822  18.702  11.014
43610W        W 3355  41.516  13.182  12.374
43611W        W 3356  27.492   3.423   3.861
43612W        W 3357  25.205  43.891   4.347
43613W        W 3358  36.967   2.317   1.210
43614W        W 3359  41.374   2.305   1.356
43615W        W 3360  44.287  43.410   0.922
43616W        W 3361   0.330  33.979  10.957
43617W        W 3362   0.858  27.603  11.105
43618W        W 3363   7.876  39.003   1.432
43619W        W 3364   5.376  18.295   3.375
43620W        W 3365  44.450  43.965  13.434
43621W        W 3366  28.037  29.007   2.709
43622W        W 3367   9.683  11.151  10.905
43623W        W 3368  15.812  23.672  10.410
43624W        W 3369  12.116  31.944   1.882
43625W        W 3370   4.738   5.379  12.539
43626W        W 3371  10.328  17.187   0.828
43627W        W 3372   7.335  13.728   4.788
43628W        W 3373  35.035  36.093   3.661
43629W        W 3374  41.840  22.573  11.996
43630W        W 3375  26.600  18.080   2.266
43631W        W 3376  24.168  40.344  11.434
43632W        W 3377   0.293  20.239  14.310
43633W        W 3378   8.670  13.683   0.766
43634W        W 3379  13.773  10.761   3.337
43635W        W 3380  27.531  14.331  14.937
43636W        W 3381  29.512   1.874   2.301
43637W        W 3382  27.529  29.005  13.865
43638W        W 3383  20.748   6.288  14.011
43639W        W 3384  44.354  44.371  12.368
43640W        W 3385   7.843  44.832  14.960
43641W        W 3386  44.943  26.618  13.442
43642W        W 3387   0.751   8.356   0.371
43643W        W 3388  22.741  20.548   4.721
43644W        W 3389  44.918  26.525  14.411
43645W        W 3390  41.013  15.601  14.418
43646W        W 3391  21.569  37.558   1.833
43647W        W 3392  24.567  10.674   0.896
43648W        W 3393  17.203  38.427   3.298
43649W        W 3394  18.592   0.420  12.891
43650W        W 3395  34.974  35.054  11.581
43651W        W 3396  11.310  28.055  12.368
43652W        W 3397  36.569  22.506  13.548
43653W        W 3398  16.799  40.987   1.433
43654W        W 3399  18.664  38.337  13.544
43655W        W 3400  39.015  28.459   0.795
43656W        W 3401  26.129  30.104  14.364
43657W        W 3402  37.426  32.976   1.844
43658W        W 3403   5.366  16.190  12.510
43659W        W 3404  32.965  34.399   4.635
43660W        W 3405   5.365  37.439   2.371
43661W        W 3406  16.667  11.627  12.899
43662W        W 3407   6.199  32.009  13.989
43663W        W 3408  37.553   1.456   0.834
43664W        W 3409   3.284  41.851  12.964
43665W        W 3410  11.791  24.670   2.365
43666W        W 3411  29.960  31.616   0.871
43667W        W 3412  27.553  27.032  11.417
43668W        W 3413  26.601  27.129  12.351
43669W        W 3414  10.146  24.986  11.111
43670W        W 3415  16.756   4.807   0.271
43671W        W 3416  20.755   8.339   4.291
43672W        W 3417  11.802   1.857   3.352
43673W        W 3418  24.031  27.582   1.276
43674W        W 3419   0.938  43.899  13.934
43675W        W 3420   7.318  16.223  14.324
43676W        W 3421  16.075  25.698  12.852
43677W        W 3422   6.249  20.273   5.258
43678W        W 3423   2.909  39.958   1.289
43679W        W 3424  31.114  37.930  11.921
43680W        W 3425  21.102  37.382   3.637
43681W        W 3426  41.022  11.775   1.741
43682W        W 3427  25.178  28.099  13.373
43683W        W 3428  19.230  13.767  11.498
43684W        W 3429  13.723  34.427  12.071
43685W        W 3430  15.789  21.640  14.362
43686W        W 3431  10.713   9.794   2.686
43687W        W 3432   9.848  39.823   0.432
43688W        W 3433  37.443   0.761  13.989
43689W        W 3434  43.285  40.306   0.776
43690W        W 3435  20.636  34.555   1.706
43691W        W 3436  32.948  27.163  10.059
43692W        W 3437   8.236   4.817   0.945
43693W        W 3438  39.335   6.702   4.652
43694W        W 3439  41.476  43.401   3.697
43695W        W 3440  11.745   6.194   0.857
43696W        W 3441  19.550   9.393  10.927
43697W        W 3442  14.729  13.127  13.990
43698W        W 3443  32.062   1.428   1.229
43699W        W 3444  31.424  44.941   1.736
43700W        W 3445   5.702  12.208   1.696
43701W        W 3446   3.227  44.433   5.088
43702W        W 3447  24.205  25.488   0.409
43703W        W 3448  32.132  29.922  12.007
43704W        W 3449  20.195  18.786  10.449
43705W        W 3450  42.454  41.298   3.146
43706W        W 3451  17.161  20.218  12.004
43707W        W 3452  24.065  10.705   2.279
43708W        W 3453  41.389   6.842  14.365
43709W        W 3454  39.558  30.416  13.466
43710W        W 3455  39.536  18.264  10.595
43711W        W 3456  24.629  35.535  12.531
43712W        W 3457  39.432  28.111   1.235
43713W        W 3458  36.006  34.474   1.281
43714W        W 3459  27.446  18.666  11.064
43715W        W 3460  43.783  18.187  12.999
43716W        W 3461  15.800  24.639   4.603
43717W        W 3462  13.833   4.782  13.378
43718W        W 3463  42.512  41.823   2.323
43719W        W 3464  14.247  33.067   0.810
43720W        W 3465   1.378   0.249   0.329
43721W        W 3466  15.691   3.227   9.933
43722W        W 3467   7.319  37.425  10.911
43723W        W 3468  26.166   5.288  14.384
43724W        W 3469  22.735   4.734  12.561
43725W        W 3470  31.915  39.553   3.188
43726W        W 3471  28.124  15.726  10.604
43727W        W 3472  31.956  42.305   0.893
43728W        W 3473  40.396  12.662   2.870
43729W        W 3474   7.769  25.712  13.821
43730W        W 3475  13.259  18.062   3.847
43731W        W 3476  42.461  11.334  13.337
43732W        W 3477   0.366  32.026   1.281
43733W        W 3478  37.397  43.007  11.392
43734W        W 3479  26.668  39.951  14.890
43735W        W 3480  22.545  43.475   3.834
43736W        W 3481   9.285  35.527  14.457
43737W        W 3482   3.732  26.008  13.356
43738W        W 3483  30.913   0.893  10.025
43739W        W 3484  10.725  30.472   3.760
43740W        W 3485  16.206  19.600  12.557
43741W        W 3486   0.254   6.849   0.273
43742W        W 3487  19.639  17.158   0.910
43743W        W 3488  30.912  37.940  14.771
43744W        W 3489  35.582  40.906  10.473
43745W        W 3490  34.061   3.714   4.730
43746W        W 3491  26.561  25.992  10.446
43747W        W 3492  22.019  10.303   3.828
43748W        W 3493  30.454  24.995  10.981
43749W        W 3494  32.545  35.440   0.933
43750W        W 3495   3.722  33.949  10.630
43751W        W 3496   7.883  11.305   3.780
43752W        W 3497   6.202  34.051  13.493
43753W        W 3498  15.115   8.785  12.529
43754W        W 3499  27.106  12.328   0.389
43755W        W 3500  24.654  35.995   2.233
43756W        W 3501  12.129  15.790   0.803
43757W        W 3502  14.299  38.847   0.958
43758W        W 3503  19.724   0.368   1.914
43759W        W 3504  17.252  28.945  13.467
43760W        W 3505   6.183  22.679   4.115
43761W        W 3506  18.565  36.367  14.797
43762W        W 3507  18.170   9.738  10.568
43763W        W 3508   2.325  30.486  14.459
43764W        W 3509  30.007  19.116   3.665
43765W        W 3510  32.915  24.488  12.479
43766W        W 3511  30.535  22.610  12.352
43767W        W 3512   7.310  39.380  12.555
43768W        W 3513   2.744  39.918  14.825
43769W        W 3514   9.356  26.500   1.922
43770W        W 3515  33.479  17.737  11.456
43771W        W 3516  36.037  14.197   1.414
43772W        W 3517  19.768  21.677   2.217
43773W        W 3518  17.146  28.484   1.348
43774W        W 3519  28.482   5.284  11.538
43775W        W 3520  30.013  20.103   3.726
43776W        W 3521  13.614   1.905  12.002
43777W        W 3522   9.165  14.681   0.478
43778W        W 3523  13.327  24.541  11.521
43779W        W 3524  34.037   0.342  14.818
43780W        W 3525  31.075  30.552   5.593
43781W        W 3526  20.271   6.330   0.311
43782W        W 3527  19.597  39.971  11.952
43783W        W 3528  35.029   6.408   0.273
43784W        W 3529  42.403  24.057   4.784
43785W        W 3530  19.740  11.769   4.240
43786W        W 3531  15.647  44.291  10.467
43787W        W 3532  24.116  28.094   3.744
43788W        W 3533   9.343   1.860  14.020
43789W        W 3534  16.611  17.089   2.715
43790W        W 3535   2.935   8.387   1.377
43791W        W 3536  31.609  28.446  14.943
43792W        W 3537  41.963  33.125   3.177
43793W        W 3538  24.063  26.533  14.962
43794W        W 3539  34.399   8.214  12.008
43795W        W 3540   5.342  34.557   2.826
43796W        W 3541  13.155  32.994   0.873
43797W        W 3542  22.626  17.671   4.316
43798W        W 3543  33.899  11.331   2.353
43799W        W 3544   6.861   7.742   1.801
43800W        W 3545   4.815  43.451   0.429
43801W        W 3546  35.090  21.168   4.721
43802W        W 3547  20.625   4.424  12.899
43803W        W 3548  11.339   6.734   2.323
43804W        W 3549  30.594   5.934   0.309
43805W        W 3550  19.732  41.413  10.903
43806W        W 3551  31.029  41.871   1.730
43807W        W 3552  39.560   0.982  11.920
43808W        W 3553  12.616  41.861  13.312
43809W        W 3554  10.803  11.365   1.311
43810W        W 3555   7.891  12.724  11.459
43811W        W 3556  12.348  22.078   0.403
43812W        W 3557   1.973  34.024  10.441
43813W        W 3558  17.088  35.077  11.484
43814W        W 3559  25.650   3.232  14.427
43815W        W 3560  29.657  19.585   3.741
43816W        W 3561  28.630  13.802   1.412
43817W        W 3562  29.428  28.079   1.441
43818W        W 3563  39.815  10.858  12.425
43819W        W 3564  42.480   1.746   2.891
43820W        W 3565   8.209  32.636  14.965
43821W        W 3566  40.431  43.396   0.481
43822W        W 3567  39.001  23.039   2.222
43823W        W 3568  23.223  18.214  14.352
43824W        W 3569   4.879  12.750   3.309
43825W        W 3570  16.594  31.456   4.739
43826W        W 3571  39.318  39.421  14.492
43827W        W 3572  29.544   0.879  10.964
43828W        W 3573  19.724   8.778   0.792
43829W        W 3574  24.085   6.408  14.394
43830W        W 3575   6.217   0.828   2.180
43831W        W 3576  32.045   5.323  12.429
43832W        W 3577  15.803  20.648   3.653
43833W        W 3578   3.792  28.621   3.836
43834W        W 3579   1.299  21.092   4.290
43835W        W 3580  37.965   2.818  13.933
43836W        W 3581  35.018  32.028   5.243
43837W        W 3582  25.615  22.717   2.829
43838W        W 3583  35.987   1.783  11.010
43839W        W 3584  10.187  42.397   3.662
43840W        W 3585  10.240  39.385   0.279
43841W        W 3586   2.800  14.733  14.029
43842W        W 3587  12.138  31.048   1.400
43843W        W 3588   4.260  15.328   4.270
43844W        W 3589  17.591  27.620   2.800
43845W        W 3590  17.212  30.959   0.454
43846W        W 3591  41.985  31.474   3.229
43847W        W 3592  19.710  16.307  12.057
43848W        W 3593  41.492  19.131  14.436
43849W        W 3594  16.775  43.352  10.557
43850W        W 3595  30.945  13.629  12.428
43851W        W 3596  37.916  38.919   2.325
43852W        W 3597  16.786   8.233  12.351
43853W        W 3598  26.569  31.526  14.958
43854W        W 3599  18.057  21.711  12.025
43855W        W 3600  17.706  24.985  14.827
43856W        W 3601  42.868  14.705   4.819
43857W        W 3602  38.394  28.632  13.447
43858W        W 3603  25.000  31.556  12.366
43859W        W 3604  28.664  23.033  12.917
43860W        W 3605   8.695  10.836  14.965
43861W        W 3606   6.209  27.540   1.754
43862W        W 3607  12.195   1.841   0.890
43863W        W 3608  32.112  43.927  13.048
43864W        W 3609  14.136  21.660   1.450
43865W        W 3610  27.458  39.821   1.892
43866W        W 3611  18.609  34.469  13.022
43867W        W 3612  20.154  25.126   1.734
43868W        W 3613  25.170  16.111   1.225
43869W        W 3614  34.514   3.919   1.436
43870W        W 3615   9.709   7.791  10.487
43871W        W 3616  24.059  18.780   4.838
43872W        W 3617  18.641   2.334  13.952
43873W        W 3618  34.527   5.901  13.363
43874W        W 3619  40.931  11.251   4.327
43875W        W 3620  26.678  11.221  12.977
43876W        W 3621  23.650  23.042  13.381
43877W        W 3622   0.922  34.059   0.831
43878W        W 3623  41.479  13.183   1.702
43879W        W 3624  18.280   8.877   4.768
43880W        W 3625  29.055   2.775   0.855
43881W        W 3626  22.694  23.002  12.852
43882W        W 3627   7.881   7.262   4.601
43883W        W 3628   9.666  40.820  12.828
43884W        W 3629   7.183  21.557   4.183
43885W        W 3630   7.381  13.291  11.052
43886W        W 3631  43.784   9.658   4.315
43887W        W 3632  38.969  32.396  11.432
43888W        W 3633  20.101  12.288   0.744
43889W        W 3634  42.851   3.360  14.836
43890W        W 3635   3.400  11.267   3.284
43891W        W 3636   0.372  18.772  13.031
43892W        W 3637  23.606  15.262   0.861
43893W        W 3638  20.264  40.406  13.033
43894W        W 3639   4.753  25.658   4.147
43895W        W 3640  12.713  39.812  13.430
43896W        W 3641  27.497  12.616   0.323
43897W        W 3642  29.589  20.060   1.299
43898W        W 3643  35.535  16.094   4.759
43899W        W 3644  40.912  19.180   3.864
43900W        W 3645  32.526  18.090   4.247
43901W        W 3646   1.380  35.920  10.116
43902W        W 3647   4.768  10.251   3.238
43903W        W 3648   4.885   1.367  12.364
43904W        W 3649  32.635  28.159   9.963
43905W        W 3650  27.145  20.750  11.022
43906W        W 3651   7.737  43.380   1.786
43907W        W 3652   2.940  26.069   4.328
43908W        W 3653  25.665   5.192  10.962
43909W        W 3654  35.434  40.530   4.336
43910W        W 3655  17.167  18.572  14.381
43911W        W 3656  36.458  29.439  11.576
43912W        W 3657   9.190  28.989  10.439
43913W        W 3658  39.387  19.057  11.569
43914W        W 3659  12.691   4.929  13.364
43915W        W 3660   2.382   3.448  14.024
43916W        W 3661  37.888  41.032  12.551
43917W        W 3662  12.123  36.410   0.468
43918W        W 3663  22.607  44.277  10.642
43919W        W 3664  42.448   2.315   2.319
43920W        W 3665  19.583   1.824   3.366
43921W        W 3666  22.171   7.201   2.693
43922W        W 3667  11.177   0.749  12.036
43923W        W 3668  17.198  34.095   0.876
43924W        W 3669  32.507  30.031  11.515
43925W        W 3670  38.910  42.991  13.941
43926W        W 3671  29.160  25.057   3.664
43927W        W 3672  43.807  13.816   1.318
43928W        W 3673  44.819  24.188  13.892
43929W        W 3674  11.855  13.150  12.392
43930W        W 3675  30.512   4.427   3.262
43931W        W 3676  10.306   8.752   4.796
43932W        W 3677  32.446  21.142  14.390
43933W        W 3678  38.904   1.933   2.759
43934W        W 3679  25.182  16.632  13.048
43935W        W 3680  13.719  18.782   4.274
43936W        W 3681   5.428   3.797   3.806
43937W        W 3682  36.081  41.536   1.800
43938W        W 3683   9.873   1.737   4.205
43939W        W 3684  25.196  24.162  14.479
43940W        W 3685  25.979   7.757   3.192
43941W        W 3686  35.903  40.373   0.733
43942W        W 3687  13.239  24.136  12.047
43943W        W 3688   3.927   8.734  13.935
43944W        W 3689   9.242   0.828   0.339
43945W        W 3690  10.252  25.014  10.161
43946W        W 3691  43.906  41.925   0.317
43947W        W 3692  34.533  16.187  11.581
43948W        W 3693   0.333  30.552  14.465
43949W        W 3694  19.572  21.064  11.585
43950W        W 3695  23.184  26.130   3.200
43951W        W 3696  30.052  12.291  12.405
43952W        W 3697  38.021  33.108  12.539
43953W        W 3698  18.101  44.320  12.838
43954W        W 3699  36.867  43.966  12.918
43955W        W 3700  24.616  41.468   4.693
43956W        W 3701  32.931   5.231   0.931
43957W        W 3702  42.417  31.600  11.007
43958W        W 3703  17.585  31.042  14.938
43959W        W 3704  39.452  25.714   1.372
43960W        W 3705  35.487  15.764   0.779
43961W        W 3706  10.279  35.400  13.058
43962W        W 3707  17.711   6.338  13.988
43963W        W 3708  18.574  31.991  13.953
43964W        W 3709  17.125  28.165   4.310
43965W        W 3710  28.959  40.974   3.309
43966W        W 3711  32.548   2.743  11.607
43967W        W 3712  18.649  10.252  10.606
43968W        W 3713  19.624   0.866   2.250
43969W        W 3714  29.050  15.181   0.434
43970W        W 3715  26.006   7.366   1.894
43971W        W 3716   8.375  29.524  14.957
43972W        W 3717  35.391  44.859   0.739
43973W        W 3718  26.619  26.101   9.967
43974W        W 3719   0.865  22.709  13.932
43975W        W 3720   9.290  25.659   0.279
43976W        W 3721  22.672  11.139   5.705
43977W        W 3722  24.171  44.894  14.294
43978W        W 3723  42.889  35.013  13.055
43979W        W 3724  32.624  12.231   0.359
43980W        W 3725  40.523  18.647   4.615
43981W        W 3726  19.695   3.858   4.672
43982W        W 3727  33.583  25.117  13.905
43983W        W 3728  25.662  32.457   3.694
43984W        W 3729  27.590  35.505   2.738
43985W        W 3730   1.408  34.985  11.920
43986W        W 3731   3.832  30.907   0.382
43987W        W 3732  17.613  29.941   2.388
43988W        W 3733  28.600  20.709   3.755
43989W        W 3734  32.625  34.523   1.407
43990W        W 3735  32.048   9.234   3.155
43991W        W 3736   0.946  38.480   5.182
43992W        W 3737   6.250  24.617  13.374
43993W        W 3738  36.054  38.391   3.242
43994W        W 3739  42.957  39.022   3.723
43995W        W 3740  30.056  41.371   3.288
43996W        W 3741  42.460  34.063  13.355
43997W        W 3742  18.655   0.877  11.922
43998W        W 3743  20.583  17.242  14.858
43999W        W 3744   2.240   2.261  13.912
44000W        W 3745  24.007  16.654  12.355
44001W        W 3746  20.598   0.880  12.379
44002W        W 3747  26.200   6.265   3.260
44003W        W 3748  12.719   5.790  12.880
44004W        W 3749  31.900  13.725  10.558
44005W        W 3750   5.733  37.560   2.759
44006W        W 3751  13.707  10.292  14.502
44007W        W 3752  43.429  21.228   1.228
44008W        W 3753  29.933  35.366   0.966
44009W        W 3754   0.976  12.156  13.927
44010W        W 3755  22.110  22.545  13.917
44011W        W 3756  12.658  27.071  11.375
44012W        W 3757  31.513  11.255  11.029
44013W        W 3758  38.468  19.571  14.017
44014W        W 3759   9.645  32.040   2.244
44015W        W 3760  37.960   6.341  13.806
44016W        W 3761   2.443  11.201   3.765
44017W        W 3762  40.335  16.255  10.635
44018W        W 3763  16.177  27.103  14.367
44019W        W 3764  24.705  23.603   2.841
44020W        W 3765   8.829  28.639   1.826
44021W        W 3766  27.562  15.284   3.856
44022W        W 3767  34.486  38.399   1.882
44023W        W 3768  13.246  26.957   4.816
44024W        W 3769  18.781   2.401  14.818
44025W        W 3770  19.591  28.973   0.333
44026W        W 3771  29.577  33.437  10.530
44027W        W 3772   9.387  28.458   2.400
44028W        W 3773   3.722  14.819   3.188
44029W        W 3774  10.726  34.105   2.855
44030W        W 3775   8.901  19.649  13.985
44031W        W 3776  39.338  41.944   3.829
44032W        W 3777  41.997  27.546  13.392
44033W        W 3778  31.970  11.740   1.766
44034W        W 3779  24.537  26.148  14.969
44035W        W 3780  13.233  11.635   3.635
44036W        W 3781   4.821  37.459  12.025
44037W        W 3782  32.591  21.106  10.962
44038W        W 3783  34.485  42.803   0.470
44039W        W 3784  26.558  32.476   4.318
44040W        W 3785  43.887   7.799   4.185
44041W        W 3786   6.185   0.272   0.310
44042W        W 3787  37.471  18.086   3.223
44043W        W 3788  12.126  10.871  10.565
44044W        W 3789  43.320  18.647   3.724
44045W        W 3790  39.338  34.451   0.881
44046W        W 3791  19.135   4.247   3.197
44047W        W 3792  27.996  33.093  13.812
44048W        W 3793  24.164  11.314   3.817
44049W        W 3794  26.120  19.583   3.737
44050W        W 3795  23.031  23.710   1.814
44051W        W 3796   1.791  13.185   3.782
44052W        W 3797  42.392  22.554   4.623
44053W        W 3798  44.868  42.351  12.956
44054W        W 3799  41.842   9.772  10.542
44055W        W 3800  44.800   1.369   3.638
44056W        W 3801   9.693  16.086   2.338
44057W        W 3802  38.936  33.037   9.921
44058W        W 3803  14.121  36.935  12.851
44059W        W 3804   7.721  37.545   1.886
44060W        W 3805   9.699  38.978   1.421
44061W        W 3806  31.983  39.857  14.295
44062W        W 3807   7.899   0.440  11.039
44063W        W 3808  27.540  21.671  10.933
44064W        W 3809   5.430  27.692   4.683
44065W        W 3810  27.625  21.527  12.043
44066W        W 3811  41.019  26.616   9.947
44067W        W 3812   0.487   1.847  13.477
44068W        W 3813  44.879   6.676  10.500
44069W        W 3814   3.436   7.895  10.458
44070W        W 3815  24.548  17.132  12.962
44071W        W 3816  17.069  29.592  13.457
44072W        W 3817  37.522   1.419  14.439
44073W        W 3818  27.949  36.390   1.835
44074W        W 3819   8.824  34.399   0.803
44075W        W 3820  24.187  11.688  11.878
44076W        W 3821  22.656   2.266   1.435
44077W        W 3822  36.866  17.578  10.583
44078W        W 3823  38.386   1.449  12.858
44079W        W 3824   4.832  41.963   3.361
44080W        W 3825  32.942  41.005   3.836
44081W        W 3826  20.539  41.818   1.852
44082W        W 3827   5.339  26.585   3.304
44083W        W 3828  28.679  29.585   3.256
44084W        W 3829  43.889   2.313   4.348
44085W        W 3830  36.527  41.429   5.222
44086W        W 3831  41.361  29.121   2.223
44087W        W 3832  44.828  31.126  14.790
44088W        W 3833   1.385  19.143   0.740
44089W        W 3834  10.255  36.489  12.433
44090W        W 3835  17.237  44.968  14.976
44091W        W 3836   0.833  11.136   0.345
44092W        W 3837  30.002  44.301  14.937
44093W        W 3838  27.688  12.652  12.484
44094W        W 3839  34.575  36.979  11.581
44095W        W 3840  28.121   7.268   0.854
44096W        W 3841  26.063  39.815  12.347
44097W        W 3842  38.948  38.449   1.741
44098W        W 3843   3.901   7.909  13.032
44099W        W 3844  17.742  40.976   3.328
44100W        W 3845  36.534  36.057  11.888
44101W        W 3846   4.881  44.294  14.434
44102W        W 3847  35.949  28.948  13.981
44103W        W 3848  41.966  38.929   3.151
44104W        W 3849   4.424   6.239   1.783
44105W        W 3850   8.322  16.568   2.344
44106W        W 3851   0.899   4.712   3.793
44107W        W 3852  15.804  12.855   3.679
44108W        W 3853  22.685  13.180  11.933
44109W        W 3854  40.896  16.229   4.135
44110W        W 3855   2.732  27.181  10.441
44111W        W 3856  33.039  16.748  13.044
44112W        W 3857   0.874  43.306  14.348
44113W        W 3858  19.770  40.814  14.977
44114W        W 3859  31.031  19.151  12.967
44115W        W 3860  35.928  39.391  13.383
44116W        W 3861   9.809  16.792  12.942
44117W        W 3862  42.325   3.890   3.747
44118W        W 3863  15.805   0.897  13.937
44119W        W 3864   9.301  11.326  10.994
44120W        W 3865  44.795  32.076  13.421
44121W        W 3866  32.057   5.340   2.852
44122W        W 3867  44.873  15.084   0.781
44123W        W 3868  33.906   7.904  13.430
44124W        W 3869   6.241  30.962   2.258
44125W        W 3870  40.041  30.550   4.129
44126W        W 3871  31.552  40.004  12.524
44127W        W 3872   6.683  27.494  13.904
44128W        W 3873   9.162  37.552   1.889
44129W        W 3874  15.190  28.984  14.346
44130W        W 3875  20.250  24.534   3.211
44131W        W 3876   1.835  13.716  11.506
44132W        W 3877  33.550   1.460  10.568
44133W        W 3878  37.072  24.016   3.182
44134W        W 3879  29.083   4.232   0.436
44135W        W 3880  43.938  38.875   2.849
44136W        W 3881  42.461  15.766   0.289
44137W        W 3882   6.201  23.234  11.537
44138W        W 3883  17.261  26.700  10.051
44139W        W 3884  15.685   4.703  11.418
44140W        W 3885  38.997   7.228   0.447
44141W        W 3886  10.239   0.823  14.847
44142W        W 3887  31.961  34.535  10.156
44143W        W 3888  27.692  24.607   2.746
44144W        W 3889  34.520  44.337  13.003
44145W        W 3890  26.527   7.416  10.496
44146W        W 3891  14.694  41.434   4.694
44147W        W 3892   2.456  19.584   4.123
44148W        W 3893  11.644   4.285  10.644
44149W        W 3894  36.918  32.081   1.402
44150W        W 3895  23.186  30.519  11.121
44151W        W 3896  34.935  24.532   1.721
44152W        W 3897  33.880  43.366   4.265
44153W        W 3898  33.111  19.560  11.481
44154W        W 3899  33.013   6.880  11.976
44155W        W 3900   4.282  21.232  14.942
44156W        W 3901   6.189   6.846  14.779
44157W        W 3902  42.013  25.216   2.693
44158W        W 3903  33.916  19.745  10.644
44159W        W 3904  22.111  31.545  14.792
44160W        W 3905  18.730  35.545  14.783
44161W        W 3906  38.982  15.240  10.990
44162W        W 3907  11.754  22.182  14.476
44163W        W 3908  44.481   2.733  14.024
44164W        W 3909  34.977  24.695  10.554
44165W        W 3910  17.241   4.271   4.665
44166W        W 3911  10.655   6.316  13.424
44167W        W 3912  44.817  18.739   1.307
44168W        W 3913  20.048  33.598   0.778
44169W        W 3914  12.184  39.544   0.879
44170W        W 3915  41.459  16.752   2.713
44171W        W 3916  35.587   4.377  14.800
44172W        W 3917  19.545  35.434   0.778
44173W        W 3918  37.406  37.859   3.353
44174W        W 3919  42.786   1.371   3.325
44175W        W 3920  37.388   7.401   2.353
44176W        W 3921  18.177  24.099  14.945
44177W        W 3922  21.585  13.601   4.786
44178W        W 3923  30.913  11.729  13.317
44179W        W 3924  16.162  26.512  14.401
44180W        W 3925   9.847  36.960   9.574
44181W        W 3926  32.572  39.938   2.289
44182W        W 3927  17.247   3.280   5.109
44183W        W 3928  18.651   1.455  13.919
44184W        W 3929  43.979  11.192   3.195
44185W        W 3930   0.349  17.112   4.304
44186W        W 3931   4.754   3.871  13.347
44187W        W 3932  43.377  17.097   2.879
44188W        W 3933  31.481   3.388   3.852
44189W        W 3934   7.678  38.359   4.684
44190W        W 3935   9.379  22.571   4.688
44191W        W 3936  37.045  38.420   4.836
44192W        W 3937  42.370   8.804   4.241
44193W        W 3938   3.738  42.411  11.029
44194W        W 3939   9.217  35.873  13.938
44195W        W 3940  21.568  23.028   1.231
44196W        W 3941   3.912  38.528  10.002
44197W        W 3942  38.844   6.301   0.446
44198W        W 3943  21.035   2.838   0.923
44199W        W 3944  21.203   6.316   1.442
44200W        W 3945  14.608  39.998   9.465
44201W        W 3946  34.018  32.885  12.048
44202W        W 3947   8.814  19.711  14.496
44203W        W 3948  12.732  40.365  14.792
44204W        W 3949  16.630   9.726   2.765
44205W        W 3950   6.786  44.317  13.914
44206W        W 3951   0.744   3.824   2.741
44207W        W 3952  18.550  16.806  14.905
44208W        W 3953  25.011  21.684  12.859
44209W        W 3954   6.818  41.482   4.649
44210W        W 3955  28.186  18.209   4.706
44211W        W 3956  43.514   5.771   4.172
44212W        W 3957  20.086   4.382  11.454
44213W        W 3958  32.134  33.468   1.834
44214W        W 3959  32.576  19.225  11.913
44215W        W 3960   1.744  25.479  10.440
44216W        W 3961  32.485  38.018   1.309
44217W        W 3962  21.161   8.675  14.423
44218W        W 3963  39.983  12.828   2.291
44219W        W 3964  38.020  19.111  10.438
44220W        W 3965  39.837  35.526  11.123
44221W        W 3966  37.921  18.619   3.283
44222W        W 3967   3.356  35.015   2.285
44223W        W 3968  15.757   6.419  14.776
44224W        W 3969  21.707  33.449   3.159
44225W        W 3970  22.690  38.067   2.301
44226W        W 3971  29.018  33.915   2.722
44227W        W 3972  24.510  33.601   0.434
44228W        W 3973  39.820  19.279  10.499
44229W        W 3974  21.196  27.047  10.931
44230W        W 3975  13.333   9.843   0.779
44231W        W 3976  10.828  33.076  13.803
44232W        W 3977   2.929  29.143  14.895
44233W        W 3978  42.316  32.936  12.827
44234W        W 3979  14.675  14.829   0.334
44235W        W 3980  44.315  43.455   1.838
44236W        W 3981  17.724   4.828   2.768
44237W        W 3982   0.886  38.070  13.334
44238W        W 3983   5.789  19.581  13.025
44239W        W 3984  36.394  32.484  11.496
44240W        W 3985  14.694  13.711  12.970
44241W        W 3986  37.475  20.058  11.940
44242W        W 3987  42.364  22.041   0.247
44243W        W 3988   2.335  25.189   9.932
44244W        W 3989  19.711  22.567  12.384
44245W        W 3990  34.899  39.472   2.329
44246W        W 3991  34.885  42.492  13.961
44247W        W 3992  43.434  20.100   2.820
44248W        W 3993   8.744   5.734   1.353
44249W        W 3994  24.010  34.394  12.827
44250W        W 3995  39.921  29.119  14.385
44251W        W 3996   4.276  44.999  14.914
44252W        W 3997  33.045  14.723  14.314
44253W        W 3998  28.018  37.950  12.932
44254W        W 3999   8.863   8.304   0.414
44255W        W 4000  23.609  21.203  12.408
44256W        W 4001  43.313   8.806  14.324
44257W        W 4002  11.827  32.032   4.619
44258W        W 4003  37.918   4.445  12.537
44259W        W 4004   4.440  31.903  11.884
44260W        W 4005   9.653   6.298  13.821
44261W        W 4006   4.915  44.949   0.879
44262W        W 4007  44.004  20.187   0.840
44263W        W 4008  20.146  40.010  14.859
44264W        W 4009  40.492  11.633  12.383
44265W        W 4010  37.918   2.415  11.591
44266W        W 4011  36.419  22.642  10.586
44267W        W 4012  23.701  41.827  12.948
44268W        W 4013  33.387   2.889  14.377
44269W        W 4014  16.126  12.240  11.918
44270W        W 4015  26.978  21.051  13.847
44271W        W 4016  10.187   9.643  11.946
44272W        W 4017  28.544   5.864   5.229
44273W        W 4018  23.573  20.528  13.059
44274W        W 4019  34.954  30.998  14.433
44275W        W 4020  30.590  23.658   2.197
44276W        W 4021  34.558  39.953   4.246
44277W        W 4022  34.954   7.270   3.238
44278W        W 4023  41.361  28.968   1.807
44279W        W 4024   5.237  21.028  11.926
44280W        W 4025  12.312  20.642   3.710
44281W        W 4026  25.083   4.826   2.669
44282W        W 4027  29.449  21.186  11.521
44283W        W 4028   5.858  19.544   4.610
44284W        W 4029   2.759  38.936  11.117
44285W        W 4030  39.911  26.561   1.896
44286W        W 4031   0.974  24.481   4.153
44287W        W 4032  23.194  12.133  12.460
44288W        W 4033  25.197  14.269   0.793
44289W        W 4034  22.159  38.941  11.034
44290W        W 4035  15.192  16.588  14.493
44291W        W 4036   9.150  27.447  13.535
44292W        W 4037  24.088  31.513  13.039
44293W        W 4038  41.536   6.811  13.977
44294W        W 4039  28.152  36.583  12.013
44295W        W 4040  35.498   1.757   4.622
44296W        W 4041   6.918  41.498   2.780
44297W        W 4042  19.213   4.765   3.637
44298W        W 4043   8.883  39.358   2.194
44299W        W 4044   1.898  34.033  13.397
44300W        W 4045  19.627  44.338   2.869
44301W        W 4046  15.177  39.431   4.120
44302W        W 4047   6.824   9.367  13.350
44303W        W 4048   5.743  26.603  13.900
44304W        W 4049  26.058   2.311   0.327
44305W        W 4050  18.190  22.215   0.392
44306W        W 4051  25.712  23.145   2.228
44307W        W 4052   1.753  43.924  10.619
44308W        W 4053   0.882  10.671   4.816
44309W        W 4054   4.891  26.701  12.526
44310W        W 4055  20.647  15.238  13.368
44311W        W 4056  17.168  28.048   3.214
44312W        W 4057   9.216  30.541  11.525
44313W        W 4058  32.114  29.954  14.005
44314W        W 4059  36.362  20.071  12.838
44315W        W 4060  10.172   0.762   0.790
44316W        W 4061  36.863  27.446   1.214
44317W        W 4062   1.849   3.874  14.341
44318W        W 4063  25.002  31.445  13.893
44319W        W 4064  12.849  39.838  10.454
44320W        W 4065  22.507  16.789   3.230
44321W        W 4066  44.003  44.011   3.161
44322W        W 4067   5.885  13.804  11.538
44323W        W 4068   3.855   6.891   3.281
44324W        W 4069   0.247  39.024   2.862
44325W        W 4070  33.580  22.634  13.537
44326W        W 4071  33.422  34.061   2.718
44327W        W 4072  23.139   9.811  13.900
44328W        W 4073   2.836  28.643  14.402
44329W        W 4074   5.837  15.647   5.192
44330W        W 4075  44.935  26.498  12.073
44331W        W 4076  39.981   9.316  11.520
44332W        W 4077   0.262  37.904   1.757
44333W        W 4078  18.169  21.085  11.489
44334W        W 4079  11.146  29.645  14.499
44335W        W 4080  15.146   7.308  14.353
44336W        W 4081  21.528  13.652   2.879
44337W        W 4082  18.601  23.612  13.960
44338W        W 4083  10.243   6.256   2.683
44339W        W 4084  12.628  14.779  14.821
44340W        W 4085   7.864  39.853  11.094
44341W        W 4086  37.507  42.936   4.337
44342W        W 4087  29.624   3.248  13.990
44343W        W 4088  26.621   2.227   2.684
44344W        W 4089  21.749  29.092  13.335
44345W        W 4090  16.699   7.790  14.459
44346W        W 4091   9.728   8.215  14.468
44347W        W 4092   3.376  14.146   3.191
44348W        W 4093  29.601  11.314  10.475
44349W        W 4094  15.185  32.910   0.809
44350W        W 4095  36.036  28.033  10.483
44351W        W 4096  16.742  32.500   2.296
44352W        W 4097  41.925  44.337   9.959
44353W        W 4098  12.747  35.925  14.380
44354W        W 4099  44.407  30.618  12.565
44355W        W 4100  27.089  22.647  10.623
44356W        W 4101  19.727  26.459   3.648
44357W        W 4102  20.073   9.848   1.411
44358W        W 4103  34.995   0.328  11.442
44359W        W 4104   3.775  25.133   4.292
44360W        W 4105  25.615  23.669  11.109
44361W        W 4106   7.294  37.923  11.021
44362W        W 4107   1.276  36.448  14.504
44363W        W 4108  34.461  38.820   2.340
44364W        W 4109  21.020  10.348  10.958
44365W        W 4110  24.111  31.450   2.314
44366W        W 4111  17.071  42.375  13.438
44367W        W 4112   2.400  33.946  10.636
44368W        W 4113   9.251  11.840   1.238
44369W        W 4114   6.685  23.635   3.737
44370W        W 4115   7.745  15.649   4.795
44371W        W 4116  34.582  40.366   0.261
44372W        W 4117  34.603   8.857   1.442
44373W        W 4118  29.503  10.282   2.405
44374W        W 4119  24.004   2.803   5.310
44375W        W 4120  16.698   0.913  13.803
44376W        W 4121  11.314  28.953   0.252
44377W        W 4122  34.987   5.884   2.886
44378W        W 4123  34.449  15.110  14.947
44379W        W 4124  40.532  39.374  11.528
44380W        W 4125  44.944  31.444   0.879
44381W        W 4126  39.526   9.156  13.540
44382W        W 4127  25.682  36.993   3.746
44383W        W 4128   8.393   1.832   4.615
44384W        W 4129   9.358  34.894  11.015
44385W        W 4130  17.187   3.405   4.660
44386W        W 4131  34.898  34.487  10.519
44387W        W 4132  40.051  20.752   3.717
44388W        W 4133  30.470  32.610   0.381
44389W        W 4134  18.659  43.767   2.386
44390W        W 4135  25.993  36.016  12.979
44391W        W 4136  12.147  21.644  12.045
44392W        W 4137  31.631  37.870   3.774
44393W        W 4138  22.544  41.346   4.724
44394W        W 4139   9.760   0.395  14.787
44395W        W 4140   5.250  23.998  10.439
44396W        W 4141  19.592  37.372  11.111
44397W        W 4142   5.900  36.377   4.726
44398W        W 4143   2.292  41.822   4.775
44399W        W 4144   6.319   3.218  10.010
44400W        W 4145  18.637   2.302   0.401
44401W        W 4146  27.602  39.887   4.656
44402W        W 4147   7.816   8.876  12.535
44403W        W 4148   0.397   5.374   4.799
44404W        W 4149  24.542   7.778  12.941
44405W        W 4150  37.958   8.386   3.378
44406W        W 4151  12.755   6.319   4.656
44407W        W 4152  25.607  15.796   4.752
44408W        W 4153   5.762   5.885   4.640
44409W        W 4154  30.644  33.073   3.333
44410W        W 4155  44.394  27.157   0.441
44411W        W 4156   7.356  13.656  14.406
44412W        W 4157  27.968   4.838   1.289
44413W        W 4158  42.507  40.925  11.897
44414W        W 4159  11.186  21.109   3.190
44415W        W 4160  15.642  13.332  14.930
44416W        W 4161  36.889  19.172  12.936
44417W        W 4162  21.211   5.706  10.930
44418W        W 4163  44.764   6.677   4.128
44419W        W 4164  22.049  19.759  13.433
44420W        W 4165  44.417   4.335   3.208
44421W        W 4166  24.520   8.853   0.825
44422W        W 4167  31.979   5.360   3.675
44423W        W 4168  24.669  36.363   4.202
44424W        W 4169   6.373   6.214  14.945
44425W        W 4170  18.165  11.259   2.275
44426W        W 4171  36.540  15.707   3.663
44427W        W 4172  44.792  26.076  10.622
44428W        W 4173  12.659   6.424  11.865
44429W        W 4174   2.790  38.971   3.732
44430W        W 4175  42.999  23.529  11.529
44431W        W 4176  36.409  26.180  11.426
44432W        W 4177  40.439  42.814   2.198
44433W        W 4178  31.558  30.472  13.403
44434W        W 4179  36.544  33.130   1.718
44435W        W 4180  32.984  28.595   5.122
44436W        W 4181   4.851  31.555  11.074
44437W        W 4182  30.939  39.465  11.568
44438W        W 4183  40.428  27.046  13.428
44439W        W 4184   9.765  20.614  12.547
44440W        W 4185  36.359  30.024   1.932
44441W        W 4186  34.918  28.181   4.242
44442W        W 4187  29.070   8.306   4.118
44443W        W 4188  23.688  21.651   3.229
44444W        W 4189   8.722  10.241  13.356
44445W        W 4190  24.036  30.625  12.010
44446W        W 4191  27.561  37.542  10.590
44447W        W 4192  20.612   9.182  14.955
44448W        W 4193  37.464  34.098  11.876
44449W        W 4194  34.563   1.380   2.815
44450W        W 4195  29.577   7.720  13.836
44451W        W 4196  14.274  22.092  11.466
44452W        W 4197  25.182   8.244  12.448
44453W        W 4198  15.124  27.956  11.108
44454W        W 4199  13.110  10.856   0.809
44455W        W 4200  42.399  35.896   4.683
44456W        W 4201   9.255  27.664  12.056
44457W        W 4202  12.231   4.749   2.753
44458W        W 4203  35.902   9.783  14.975
44459W        W 4204  41.529   7.725  11.122
44460W        W 4205  15.276  25.975   2.327
44461W        W 4206  31.139  44.463  13.458
44462W        W 4207  26.970  38.983  14.419
44463W        W 4208  35.391  27.558  12.503
44464W        W 4209   0.887  36.480   2.756
44465W        W 4210  22.634  34.954  12.897
44466W        W 4211  31.929  39.519   0.281
44467W        W 4212  24.063  18.278   4.133
44468W        W 4213  24.147  20.674  10.939
44469W        W 4214   9.164  17.567  11.590
44470W        W 4215  32.413  14.253   1.278
44471W        W 4216   6.875   1.790   3.709
44472W        W 4217  36.847  25.045  13.855
44473W        W 4218  27.572   3.722  14.887
44474W        W 4219  25.090  40.536   2.799
44475W        W 4220  30.602  32.496   4.206
44476W        W 4221  21.683  43.963  11.484
44477W        W 4222   2.468   8.684   4.698
44478W        W 4223  24.700   6.771   0.349
44479W        W 4224  21.073   0.965   5.256
44480W        W 4225  30.655  30.605   3.204
44481W        W 4226   4.822  18.677   3.847
44482W        W 4227  28.444  12.203  11.386
44483W        W 4228  22.168  30.618   0.392
44484W        W 4229  24.230  20.643  11.542
44485W        W 4230  35.553   3.724  12.871
44486W        W 4231  24.048   3.405  12.037
44487W        W 4232   1.329   7.712  13.543
44488W        W 4233   8.271  16.191   0.864
44489W        W 4234  24.499  12.695   4.310
44490W        W 4235  20.078  44.863   2.297
44491W        W 4236  18.733  25.190   1.356
44492W        W 4237  12.809  32.615   4.831
44493W        W 4238  41.410  18.709  12.857
44494W        W 4239   4.204  39.968  13.334
44495W        W 4240  11.750  29.598   2.251
44496W        W 4241  38.826   7.836   4.207
44497W        W 4242   1.862   1.338  13.793
44498W        W 4243  34.451  26.033   1.846
44499W        W 4244  26.566  17.207  11.880
44500W        W 4245  38.939   9.314   2.185
44501W        W 4246   9.328  43.814   2.348
44502W        W 4247  20.722  14.197   3.147
44503W        W 4248  30.483  38.903   4.216
44504W        W 4249  31.120  42.333  11.562
44505W        W 4250  17.781  34.500  11.871
44506W        W 4251   1.813  43.388  11.927
44507W        W 4252  38.012  36.864  10.510
44508W        W 4253   1.314  35.544  13.332
44509W        W 4254  23.624  25.680  12.066
44510W        W 4255  36.429  28.003  13.938
44511W        W 4256  34.376  24.661  13.486
44512W        W 4257  14.668  21.121  11.965
44513W        W 4258  21.747  41.955   4.136
44514W        W 4259   3.447  17.630   1.881
44515W        W 4260  35.575  22.612   4.340
44516W        W 4261  15.652  37.915   3.216
44517W        W 4262  17.108  44.947   2.885
44518W        W 4263  40.326  22.104   4.788
44519W        W 4264  34.065  14.675   1.696
44520W        W 4265   6.759  31.945   1.282
44521W        W 4266   1.456  33.096   1.365
44522W        W 4267   8.787  42.492  12.863
44523W        W 4268  16.725  14.735  11.543
44524W        W 4269  14.608  11.350   3.703
44525W        W 4270  39.401  34.438  13.503
44526W        W 4271  27.655  22.230  12.340
44527W        W 4272   7.745  31.549  14.897
44528W        W 4273  35.569  16.707  14.324
44529W        W 4274  29.510  42.847   1.359
44530W        W 4275  30.569  12.323  11.037
44531W        W 4276   5.924   2.371   2.845
44532W        W 4277  27.950  35.541  12.346
44533W        W 4278  13.223  25.681  11.064
44534W        W 4279  11.684  30.120   3.814
44535W        W 4280  23.680  15.747   2.796
44536W        W 4281  37.875  36.051  11.611
44537W        W 4282  28.061  39.451  13.401
44538W        W 4283  25.213  38.514  11.932
44539W        W 4284  17.198  23.222  14.509
44540W        W 4285  30.449  28.032  14.866
44541W        W 4286  30.576  42.306  11.480
44542W        W 4287  42.481  39.933  11.122
44543W        W 4288   1.324  36.445   4.686
44544W        W 4289  40.883   0.772  11.416
44545W        W 4290  35.020  31.528  13.880
44546W        W 4291  37.029  44.882   1.877
44547W        W 4292  39.370  15.737   0.869
44548W        W 4293  21.597   4.279  13.810
44549W        W 4294   8.358  24.712  13.358
44550W        W 4295  32.604  40.524   1.254
44551W        W 4296  42.831  32.996   2.696
44552W        W 4297  26.463  32.127  14.771
44553W        W 4298  32.009  40.911  12.054
44554W        W 4299  44.916   7.670  12.924
44555W        W 4300  12.236   9.880  14.459
44556W        W 4301  23.733  13.771  12.558
44557W        W 4302  12.255  13.190  13.025
44558W        W 4303  29.145   3.713  12.495
44559W        W 4304  25.651  20.642  13.431
44560W        W 4305   1.936  16.780   3.727
44561W        W 4306  11.276  15.804  11.602
44562W        W 4307  12.697  36.409  13.516
44563W        W 4308  31.972  43.950  14.805
44564W        W 4309  19.159  28.130  10.571
44565W        W 4310  18.160  12.849   0.729
44566W        W 4311   6.301  41.454  14.463
44567W        W 4312  32.591  26.587   4.693
44568W        W 4313  38.517  11.850  12.902
44569W        W 4314  37.082  19.637   4.181
44570W        W 4315  18.711  21.229   4.633
44571W        W 4316  34.451  27.494  11.372
44572W        W 4317  13.211  43.808  14.848
44573W        W 4318  10.677   9.389  11.608
44574W        W 4319  32.591  32.958  12.985
44575W        W 4320  10.727  30.912   1.721
44576W        W 4321  29.530  31.933  14.970
44577W        W 4322  25.479  24.101  12.832
44578W        W 4323  13.148  16.651  14.901
44579W        W 4324  26.541  17.590  12.396
44580W        W 4325  23.095  22.061   3.684
44581W        W 4326  36.914  41.894   0.893
44582W        W 4327  38.053  26.057  13.420
44583W        W 4328   5.218   2.825  14.276
44584W        W 4329  26.057  28.962  14.391
44585W        W 4330  12.117  29.645   3.337
44586W        W 4331  23.205  34.004  10.926
44587W        W 4332  20.190  23.197  12.043
44588W        W 4333  14.218  33.084  14.899
44589W        W 4334  28.007  29.499   1.740
44590W        W 4335  28.463  34.560  11.929
44591W        W 4336   6.843  44.343  11.876
44592W        W 4337   6.371  34.436   3.782
44593W        W 4338  37.547  30.611  14.894
44594W        W 4339  11.310  43.791  12.374
44595W        W 4340  35.589   0.810   0.863
44596W        W 4341   2.769  36.392  13.818
44597W        W 4342  37.496   9.833   4.212
44598W        W 4343   9.310  15.784  12.034
44599W        W 4344  25.469  38.066  10.427
44600W        W 4345  27.564  33.106  12.428
44601W        W 4346  14.271  30.116  13.542
44602W        W 4347   9.740  12.138  11.951
44603W        W 4348   0.988   7.749  10.550
44604W        W 4349   9.154  29.020  14.842
44605W        W 4350  11.633  23.147   4.328
44606W        W 4351   6.404  23.603  12.578
44607W        W 4352  41.904  20.612   1.341
44608W        W 4353   6.211   8.371   3.240
44609W        W 4354  39.912   5.382   2.182
44610W        W 4355  13.181  37.070   1.245
44611W        W 4356  34.923   4.914   1.271
44612W        W 4357  40.496   0.472  10.449
44613W        W 4358  11.178   1.246  14.926
44614W        W 4359  42.803  21.136  14.331
44615W        W 4360  12.721  10.650  14.309
44616W        W 4361  39.425  31.605  12.371
44617W        W 4362   6.743  38.883  13.471
44618W        W 4363  17.655   6.726  13.926
44619W        W 4364  15.258  42.923  11.864
44620W        W 4365  38.383   7.377   3.165
44621W        W 4366  15.104  39.490   4.729
44622W        W 4367  34.553  32.955  13.387
44623W        W 4368  10.372  34.598   3.238
44624W        W 4369  10.237  24.081  14.874
44625W        W 4370   0.849  27.649   1.864
44626W        W 4371   4.356  15.173   1.888
44627W        W 4372  41.896  15.137   3.223
44628W        W 4373  26.568  40.887  11.525
44629W        W 4374  34.512   8.784   3.708
44630W        W 4375  23.175  42.857  11.935
44631W        W 4376  16.282  11.775  10.550
44632W        W 4377  27.469  20.554   1.330
44633W        W 4378  41.460  15.744  10.583
44634W        W 4379  30.122  41.322  11.954
44635W        W 4380  43.982  32.938  12.082
44636W        W 4381  19.578  21.064   4.677
44637W        W 4382  26.114  33.108  14.982
44638W        W 4383  33.989  31.141   1.449
44639W        W 4384  14.139  21.531  12.023
44640W        W 4385  19.216  29.954  13.062
44641W        W 4386  42.340  23.000   0.283
44642W        W 4387  12.721  41.504   2.885
44643W        W 4388  41.529   6.245   1.419
44644W        W 4389   1.916  28.988   1.283
44645W        W 4390   0.382  32.554   5.282
44646W        W 4391  20.708  39.393  10.980
44647W        W 4392  21.073  10.192  12.001
44648W        W 4393   0.405  43.905  12.823
44649W        W 4394  32.492  40.804  10.432
44650W        W 4395  32.047  16.082   3.864
44651W        W 4396  23.228   7.293  11.080
44652W        W 4397  27.637  33.462  11.894
44653W        W 4398  26.577   0.947  13.542
44654W        W 4399  16.120   8.252  12.075
44655W        W 4400  25.014  38.478  14.773
44656W        W 4401   4.832  26.635  14.339
44657W        W 4402  44.371  24.119  12.930
44658W        W 4403  21.602  29.575  11.943
44659W        W 4404  37.558  24.661   4.615
44660W        W 4405  20.216   9.782  11.872
44661W        W 4406  30.580  14.622  14.995
44662W        W 4407  17.146   3.735  13.539
44663W        W 4408  36.507   8.772   1.411
44664W        W 4409  43.340  26.032   1.933
44665W        W 4410  38.027  36.941   2.741
44666W        W 4411   4.878  30.620  14.292
44667W        W 4412  29.578   7.283  11.530
44668W        W 4413  30.555  31.596   0.916
44669W        W 4414   8.784  28.621   3.684
44670W        W 4415   9.811  37.411   4.208
44671W        W 4416  36.528  29.632   2.723
44672W        W 4417  23.193  25.480  13.482
44673W        W 4418  30.007  41.843   3.661
44674W        W 4419  24.136  17.277   5.248
44675W        W 4420   5.416  36.552   2.342
44676W        W 4421  28.472  16.230   0.801
44677W        W 4422  26.167   8.188  11.379
44678W        W 4423   1.292   8.671  12.901
44679W        W 4424  32.416  20.721   2.236
44680W        W 4425   8.285  22.508   2.417
44681W        W 4426  11.294  34.018   4.677
44682W        W 4427  36.887  13.700   0.862
44683W        W 4428  43.472  39.954  12.436
44684W        W 4429  23.192  44.904  12.903
44685W        W 4430  31.079   5.313   2.324
44686W        W 4431  28.066  44.319  14.961
44687W        W 4432  20.573  19.161  13.948
44688W        W 4433  26.509  43.438  14.322
44689W        W 4434  32.410  24.554  14.482
44690W        W 4435  27.960  26.614   0.871
44691W        W 4436  12.851   5.245   3.314
44692W        W 4437  28.441   4.260   0.910
44693W        W 4438  35.448   5.361   3.244
44694W        W 4439  29.433  35.416   0.406
44695W        W 4440   7.726  34.900  10.619
44696W        W 4441  36.847  25.108   4.348
44697W        W 4442   5.925   3.864  12.019
44698W        W 4443  35.397  20.641   0.410
44699W        W 4444  26.990  39.411   1.804
44700W        W 4445  35.366  26.691   4.757
44701W        W 4446  37.923  24.672  11.867
44702W        W 4447  27.508   9.869  11.964
44703W        W 4448  38.356  12.641  10.632
44704W        W 4449  28.544  37.857  11.026
44705W        W 4450  33.074  28.020  11.581
44706W        W 4451  11.685  37.940  11.998
44707W        W 4452  21.060  38.065   4.792
44708W        W 4453  12.621   6.714   0.793
44709W        W 4454  18.546  19.674   1.862
44710W        W 4455  29.455  41.346   5.085
44711W        W 4456  20.253   8.174   2.718
44712W        W 4457   3.944  15.702   2.832
44713W        W 4458   6.802  23.134   4.771
44714W        W 4459  18.090   2.351  14.801
44715W        W 4460  37.845   6.836   0.428
44716W        W 4461  28.529   7.903   2.821
44717W        W 4462  36.552   4.922  11.032
44718W        W 4463  38.022  37.949   3.740
44719W        W 4464  10.351  26.573   0.444
44720W        W 4465  13.608  28.115   4.186
44721W        W 4466  43.406  14.759   2.358
44722W        W 4467  22.527  35.494  14.797
44723W        W 4468  22.609  16.296   0.344
44724W        W 4469  27.150   5.331   1.402
44725W        W 4470  14.129  10.371   2.806
44726W        W 4471  15.299  21.116  13.017
44727W        W 4472   7.184  30.957  11.876
44728W        W 4473   3.802  23.129  13.380
44729W        W 4474  40.907  10.862  13.901
44730W        W 4475   0.475  21.222  13.395
44731W        W 4476  41.911  38.947   4.250
44732W        W 4477  28.982  40.374  10.585
44733W        W 4478   4.906  33.533  13.038
44734W        W 4479  40.423   2.445   4.612
44735W        W 4480  24.497  41.910  13.545
44736W        W 4481   9.658  32.539  14.771
44737W        W 4482  26.951  18.772  10.408
44738W        W 4483  11.155  14.239  12.953
44739W        W 4484   0.921   1.941  11.953
44740W        W 4485  19.605  41.026   4.325
44741W        W 4486   0.361   8.732  14.859
44742W        W 4487   0.860   1.454   2.865
44743W        W 4488  22.999  19.639  13.548
44744W        W 4489  44.444  10.637   0.829
44745W        W 4490   5.307  11.291   1.907
44746W        W 4491   0.854  38.337   1.908
44747W        W 4492  41.330  36.887   0.888
44748W        W 4493  17.667  23.139   1.319
44749W        W 4494  32.941  22.699  12.889
44750W        W 4495  18.078  20.638  13.535
44751W        W 4496  24.677  17.131  13.791
44752W        W 4497  36.032  37.081  10.482
44753W        W 4498   7.341   5.301  13.462
44754W        W 4499  15.710  12.360  12.993
44755W        W 4500  16.300  27.532   3.338
44756W        W 4501  20.186   1.468   1.260
44757W        W 4502  40.957   3.933   4.756
44758W        W 4503   5.880  36.592  12.536
44759W        W 4504   9.670  17.162   0.404
44760W        W 4505   4.390   1.809  13.448
44761W        W 4506  27.461   0.922   1.302
44762W        W 4507   4.917  18.752  11.581
44763W        W 4508  34.607  41.511   0.468
44764W        W 4509  29.112   8.657   0.382
44765W        W 4510  10.286  34.516  12.365
44766W        W 4511   0.860  40.001  12.044
44767W        W 4512   3.782   1.481  12.996
44768W        W 4513  17.239  29.606  11.032
44769W        W 4514   5.769   9.384  11.887
44770W        W 4515  15.154  25.606  13.413
44771W        W 4516  17.096  14.335  12.081
44772W        W 4517  38.054  40.304  11.602
44773W        W 4518  38.006   9.178  10.528
44774W        W 4519   9.868  16.223   4.202
44775W        W 4520  11.287   5.791   2.784
44776W        W 4521  25.986  13.216  12.491
44777W        W 4522  30.077   6.716  10.894
44778W        W 4523  36.539  19.223   3.839
44779W        W 4524   8.375  33.026   3.236
44780W        W 4525  29.944  40.387   4.818
44781W        W 4526  14.832  14.759   0.861
44782W        W 4527  13.233  23.504   0.472
44783W        W 4528  39.527  10.318  12.091
44784W        W 4529  10.328   6.195  13.505
44785W        W 4530  29.150  24.071   3.812
44786W        W 4531   2.249   9.753   4.257
44787W        W 4532   3.238  21.695  11.942
44788W        W 4533  35.358  35.483   0.848
44789W        W 4534  38.451  12.162   1.817
44790W        W 4535  34.549   6.200  12.580
44791W        W 4536  18.786  27.136   4.599
44792W        W 4537   8.309  23.150   1.888
44793W        W 4538   5.897  33.455   2.747
44794W        W 4539  18.234  12.350   4.708
44795W        W 4540  37.463  25.990  14.341
44796W        W 4541  34.012   2.773   1.420
44797W        W 4542   7.673  31.089   3.834
44798W        W 4543  17.785  41.953   4.674
44799W        W 4544  12.168  12.130   1.227
44800W        W 4545   0.412   1.965  12.929
44801W        W 4546  43.996  29.009  14.513
44802W        W 4547  44.430   3.801   0.831
44803W        W 4548  40.495  27.505  12.394
44804W        W 4549  23.101   7.845   1.335
44805W        W 4550   4.872  42.961  10.550
44806W        W 4551  25.705  17.608   0.376
44807W        W 4552  25.690  39.432  12.558
44808W        W 4553  37.478  17.129  11.980
44809W        W 4554  42.883  38.924   0.304
44810W        W 4555  22.155   6.214   2.343
44811W        W 4556  44.358   7.310   0.914
44812W        W 4557   7.743   5.866   1.783
44813W        W 4558  13.308   0.975   3.788
44814W        W 4559  39.323  43.343  13.435
44815W        W 4560  41.850  12.674   0.843
44816W        W 4561  26.110  39.398   4.179
44817W        W 4562   3.359   1.449  11.027
44818W        W 4563  29.592  12.673  14.367
44819W        W 4564   6.823  38.443  14.825
44820W        W 4565  21.518  24.519   4.692
44821W        W 4566   2.445  22.717  13.386
44822W        W 4567  13.705  11.197  11.590
44823W        W 4568   0.908   7.905  11.013
44824W        W 4569  44.900  22.106   3.839
44825W        W 4570  31.618   3.893  14.843
44826W        W 4571  13.644  14.237   1.925
44827W        W 4572  43.378  13.655   3.351
44828W        W 4573  37.870  19.069   0.849
44829W        W 4574  34.510  25.483  13.313
44830W        W 4575   7.719  19.586   2.862
44831W        W 4576  37.507  28.970   1.427
44832W        W 4577  32.947   5.690   4.816
44833W        W 4578  39.352  44.467  12.081
44834W        W 4579  30.908  24.624  12.446
44835W        W 4580  18.181  13.639   3.718
44836W        W 4581  33.559   0.899   2.289
44837W        W 4582  33.617  32.121   2.901
44838W        W 4583  39.954  22.678  14.308
44839W        W 4584  21.530  17.600  14.471
44840W        W 4585  38.452  23.179  14.929
44841W        W 4586   6.364  33.528  14.825
44842W        W 4587  20.049  20.094  14.433
44843W        W 4588   8.165   4.742  12.836
44844W        W 4589  25.563  36.355   1.404
44845W        W 4590  30.154  38.481   0.759
44846W        W 4591  21.752   1.907  12.523
44847W        W 4592   0.791  16.311   3.261
44848W        W 4593  35.454   1.306   2.406
44849W        W 4594  40.420  11.251  11.555
44850W        W 4595  24.998  43.948   2.252
44851W        W 4596   2.934  17.288  11.067
44852W        W 4597   4.416  41.809  13.949
44853W        W 4598  21.101  25.565   1.856
44854W        W 4599  25.205  40.952  12.443
44855W        W 4600   4.782  24.998  13.525
44856W        W 4601   1.355  30.038   1.865
44857W        W 4602  11.213  32.129  13.355
44858W        W 4603  32.395  18.139  10.000
44859W        W 4604  37.576   5.318  10.565
44860W        W 4605  14.624  13.614  14.838
44861W        W 4606  30.083  12.711  12.000
44862W        W 4607  16.155   7.707   4.127
44863W        W 4608   8.241  38.952   3.745
44864W        W 4609  28.629  43.998  10.416
44865W        W 4610  42.828  31.498  14.956
44866W        W 4611  19.699  12.619  11.057
44867W        W 4612  16.289  16.568   4.208
44868W        W 4613  41.414   1.364   0.820
44869W        W 4614   8.870  21.246  13.808
44870W        W 4615   9.269  28.067  14.296
44871W        W 4616  21.584  22.637  14.858
44872W        W 4617  14.782   0.441   1.696
44873W        W 4618  30.452  28.078   3.258
44874W        W 4619  32.549   5.226  14.462
44875W        W 4620  26.142  42.520   2.814
44876W        W 4621  15.648   2.295   1.716
44877W        W 4622  35.488  20.127   4.638
44878W        W 4623  11.687  42.324  11.600
44879W        W 4624  25.699  28.474  14.290
44880W        W 4625   7.402  28.129   4.264
44881W        W 4626  27.976  12.685  11.585
44882W        W 4627  35.435  24.048   3.179
44883W        W 4628   3.258   6.312   3.664
44884W        W 4629  38.950   5.889   1.766
44885W        W 4630   1.273  25.486  10.582
44886W        W 4631   4.829  15.239  10.968
44887W        W 4632   9.689  15.175  13.449
44888W        W 4633  44.882   0.267   0.391
44889W        W 4634  36.448  14.151  12.375
44890W        W 4635  25.018  28.550  14.821
44891W        W 4636   3.382  12.257  12.022
44892W        W 4637  34.928  11.774   3.838
44893W        W 4638  39.430  13.624   4.694
44894W        W 4639  10.259  33.404  12.052
44895W        W 4640  23.134  37.914   1.764
44896W        W 4641   9.395  16.155   0.484
44897W        W 4642  35.504   1.895   1.861
44898W        W 4643  20.173  23.627  13.970
44899W        W 4644  25.170   5.223   1.360
44900W        W 4645   4.821  34.372   4.677
44901W        W 4646  12.627  22.717  10.982
44902W        W 4647  26.524  17.116  13.043
44903W        W 4648   4.373  39.021  10.957
44904W        W 4649  27.586  20.602  10.921
44905W        W 4650  30.142  35.557   4.793
44906W        W 4651  14.223  10.212  13.511
44907W        W 4652  25.027  21.678  10.967
44908W        W 4653  39.863   2.764   3.218
44909W        W 4654   5.199  14.618   4.126
44910W        W 4655  34.402  42.932  11.576
44911W        W 4656  19.141   2.930  10.548
44912W        W 4657  14.225  35.916   9.505
44913W        W 4658  19.602  22.199   3.282
44914W        W 4659  30.053  30.594  10.585
44915W        W 4660   2.769   9.712   2.332
44916W        W 4661  38.908  20.646   2.734
44917W        W 4662  34.517   0.256  14.297
44918W        W 4663   8.702  28.079   1.303
44919W        W 4664   1.418  23.103   0.960
44920W        W 4665  27.171  13.792   0.903
44921W        W 4666  28.660  37.887  14.481
44922W        W 4667   9.168  29.591   3.275
44923W        W 4668   4.365  11.663  12.965
44924W        W 4669  39.544  38.027  14.026
44925W        W 4670  16.114  22.009  12.986
44926W        W 4671  22.235  24.143  12.455
44927W        W 4672   7.697  40.493   0.947
44928W        W 4673  11.309  42.846  11.515
44929W        W 4674   6.857  24.133  14.400
44930W        W 4675   1.468   0.744   0.341
44931W        W 4676  33.496   2.358  10.463
44932W        W 4677  26.637  21.543  14.832
44933W        W 4678  36.098  14.152  10.570
44934W        W 4679  41.888   1.811   0.864
44935W        W 4680   1.391  18.760  11.987
44936W        W 4681  20.108  37.981   2.225
44937W        W 4682  33.035  36.983  13.856
44938W        W 4683  10.752  32.438   0.854
44939W        W 4684  30.520  24.654  12.075
44940W        W 4685   5.269  14.658   1.289
44941W        W 4686   3.949  11.751  11.863
44942W        W 4687   3.259  43.975   3.275
44943W        W 4688  44.842  18.574  13.511
44944W        W 4689  14.623  34.897   0.254
44945W        W 4690  26.591   3.325  14.318
44946W        W 4691   4.323  36.972  10.590
44947W        W 4692   6.426  11.795  12.878
44948W        W 4693  38.853  28.524   1.230
44949W        W 4694   2.741  43.516   1.763
44950W        W 4695  18.760  37.039  12.022
44951W        W 4696   9.278   2.464  12.436
44952W        W 4697  40.356  32.411  10.631
44953W        W 4698  25.563   8.662  13.419
44954W        W 4699  15.192  38.879   3.295
44955W        W 4700  35.469   2.357  12.945
44956W        W 4701  15.819  22.557  14.327
44957W        W 4702  16.689   6.418   1.276
44958W        W 4703  26.678   6.364  13.545
44959W        W 4704   9.298   6.876   3.360
44960W        W 4705  30.467   0.254   2.405
44961W        W 4706   2.777  19.198   1.700
44962W        W 4707   0.384  28.575  13.431
44963W        W 4708   5.830  35.982  13.911
44964W        W 4709  30.103   3.449   1.767
44965W        W 4710  35.029  10.763   1.265
44966W        W 4711  40.541  36.944  10.916
44967W        W 4712  31.524  37.070   2.724
44968W        W 4713  19.603   8.745   2.789
44969W        W 4714  32.887  40.517   2.685
44970W        W 4715  31.929   0.359  14.280
44971W        W 4716  26.580   5.695   4.234
44972W        W 4717  35.028  27.474   4.281
44973W        W 4718  22.727   1.896   2.313
44974W        W 4719   5.903  28.930  11.425
44975W        W 4720   2.911  44.480  12.526
44976W        W 4721  27.030  38.050   1.306
44977W        W 4722  19.590   2.360   0.922
44978W        W 4723  39.936  39.441   3.152
44979W        W 4724  39.450  16.168   1.346
44980W        W 4725  39.506   2.739  10.487
44981W        W 4726  31.617   5.224   1.344
44982W        W 4727   5.765   7.890  14.006
44983W        W 4728  36.461  25.548  13.319
44984W        W 4729   4.266   1.860   2.799
44985W        W 4730  34.871  31.971  13.432
44986W        W 4731  35.590  37.428  12.457
44987W        W 4732  24.230  35.881   4.709
44988W        W 4733  29.949  43.439  13.997
44989W        W 4734  13.124  24.982  12.937
44990W        W 4735  32.576  25.024   0.871
44991W        W 4736   6.348   3.258   4.677
44992W        W 4737  11.210  41.847  10.471
44993W        W 4738  40.303  29.943  11.036
44994W        W 4739  32.906   6.796  14.422
44995W        W 4740  19.636  21.757   1.758
44996W        W 4741  38.546  44.426  10.975
44997W        W 4742  25.137  18.182   0.852
44998W        W 4743  30.564   5.438  12.541
44999W        W 4744  30.497  14.175  13.470
45000W        W 4745  11.350  43.890   4.648
45001W        W 4746  24.592   0.398  13.834
45002W        W 4747   0.883   1.298   1.354
45003W        W 4748  16.751  28.168   3.204
45004W        W 4749  17.783  43.956  14.338
45005W        W 4750  29.932   5.395   3.310
45006W        W 4751  33.958  41.519   2.313
45007W        W 4752  42.386  42.320  10.632
45008W        W 4753  32.400  10.633   1.332
45009W        W 4754   0.467  34.491   5.083
45010W        W 4755  43.799   6.863  13.382
45011W        W 4756  20.159  39.523  10.927
45012W        W 4757  26.488  19.556  10.442
45013W        W 4758  31.638  15.611   0.420
45014W        W 4759  19.556  30.020   0.729
45015W        W 4760  11.245   2.347   2.196
45016W        W 4761  15.759   5.871  14.347
45017W        W 4762   8.690  16.684   3.270
45018W        W 4763  43.995  42.318  14.460
45019W        W 4764  40.304   0.986   1.244
45020W        W 4765  25.083  33.117  12.096
45021W        W 4766  34.554  40.483  12.095
45022W        W 4767  19.591   3.351   2.861
45023W        W 4768  36.405   2.859   2.847
45024W        W 4769  15.733   3.721   4.273
45025W        W 4770   8.760  27.069  11.103
45026W        W 4771  41.027  22.065  11.947
45027W        W 4772  33.894   0.874  13.508
45028W        W 4773  35.575  31.438  12.427
45029W        W 4774  38.872  13.700  13.028
45030W        W 4775  43.884  25.600   4.633
45031W        W 4776  29.508   8.812  12.556
45032W        W 4777  36.533   3.854  14.319
45033W        W 4778  19.656  41.412   3.775
45034W        W 4779  23.683  11.240   1.357
45035W        W 4780  14.094   5.225   4.166
45036W        W 4781  44.873  36.575   3.191
45037W        W 4782  29.050  16.196   1.401
45038W        W 4783   8.243  36.849  11.546
45039W        W 4784  37.993   6.284   1.270
45040W        W 4785  34.501   4.834  11.969
45041W        W 4786   0.346  13.845  13.832
45042W        W 4787  13.175  14.140   4.312
45043W        W 4788   0.318  30.461  11.992
45044W        W 4789  24.489   3.914   3.810
45045W        W 4790  21.216  40.869   0.255
45046W        W 4791  17.608  18.769  13.924
45047W        W 4792  42.371  20.212   3.685
45048W        W 4793  41.956  42.388  11.541
45049W        W 4794   8.684  17.061   5.083
45050W        W 4795  38.395  20.274  14.924
45051W        W 4796  20.151  23.169  14.300
45052W        W 4797   8.218   0.751  14.487
45053W        W 4798   8.666   9.261   4.269
45054W        W 4799  34.445  29.125   0.747
45055W        W 4800  34.108  15.593   0.741
45056W        W 4801  14.716  28.534   0.328
45057W        W 4802  27.040  26.134   3.163
45058W        W 4803   6.922  37.995   1.855
45059W        W 4804  41.919  33.874   4.334
45060W        W 4805   8.842  17.621  10.641
45061W        W 4806  21.173   1.908  13.981
45062W        W 4807   6.902  26.619  13.809
45063W        W 4808   5.401  11.364   2.260
45064W        W 4809  30.138   5.905  13.950
45065W        W 4810  29.634   5.307   5.591
45066W        W 4811  14.219  11.623   3.241
45067W        W 4812  12.805  22.634  10.643
45068W        W 4813   6.727  28.649  14.890
45069W        W 4814  35.597  33.909   1.820
45070W        W 4815  35.585   2.419   2.732
45071W        W 4816  37.558  19.544   4.195
45072W        W 4817  39.024  24.050  11.449
45073W        W 4818  26.173  37.974   4.788
45074W        W 4819  31.551  32.590  12.065
45075W        W 4820   4.822   3.377   0.885
45076W        W 4821  24.150  29.021  11.601
45077W        W 4822  40.413  29.527   5.094
45078W        W 4823  37.571   7.806  14.297
45079W        W 4824  13.144  30.505   2.850
45080W        W 4825  14.772  12.323  13.795
45081W        W 4826  13.653  31.098   0.931
45082W        W 4827   5.204  15.609  14.882
45083W        W 4828  34.603  19.663   2.227
45084W        W 4829  28.553   4.429   4.775
45085W        W 4830  11.797   8.658  12.844
45086W        W 4831  37.380  25.668  12.995
45087W        W 4832   8.188  15.217   1.276
45088W        W 4833   9.768   9.314  11.525
45089W        W 4834  37.086  26.575  10.618
45090W        W 4835  10.150  17.794   0.376
45091W        W 4836  18.212  39.338   4.330
45092W        W 4837  20.065   2.952  14.331
45093W        W 4838  14.327  11.146  11.928
45094W        W 4839  31.505  41.837   4.278
45095W        W 4840  27.496  17.105   4.157
45096W        W 4841  42.343  38.060   1.447
45097W        W 4842  21.599  27.541  14.986
45098W        W 4843  35.108   7.791   2.807
45099W        W 4844   7.785  25.120  11.375
45100W        W 4845  31.933  34.519  14.009
45101W        W 4846  10.721  32.616  14.488
45102W        W 4847  33.970   4.800  14.296
45103W        W 4848  26.072  40.417  11.968
45104W        W 4849  24.196  31.979  11.441
45105W        W 4850  25.699  23.647  13.830
45106W        W 4851  13.811  41.990   0.885
45107W        W 4852  35.858  22.051  10.595
45108W        W 4853  25.172   2.739   0.885
45109W        W 4854   3.364   1.736   0.276
45110W        W 4855  28.087  25.561  14.287
45111W        W 4856  28.477  26.702  12.829
45112W        W 4857  41.904  19.128  14.276
45113W        W 4858  13.683  41.434  14.875
45114W        W 4859  25.683  26.180   4.170
45115W        W 4860  21.578  37.020  12.901
45116W        W 4861  34.074  44.446   1.214
45117W        W 4862   2.900  39.865   0.750
45118W        W 4863  17.209   6.395  11.414
45119W        W 4864  25.527   9.221   0.438
45120W        W 4865  22.240  18.720  13.325
45121W        W 4866   7.683  27.584  12.858
45122W        W 4867  33.081  17.689   3.319
45123W        W 4868  20.221   5.846  11.085
45124W        W 4869  14.335  41.818   2.299
45125W        W 4870  28.650  40.524   0.763
45126W        W 4871   1.733  19.091  14.414
45127W        W 4872  24.219  11.733   5.086
45128W        W 4873  12.120  12.774  11.602
45129W        W 4874  29.054  10.155   2.411
45130W        W 4875  32.542   9.271   9.542
45131W        W 4876   5.360   7.406  11.488
45132W        W 4877  35.105  39.971   1.898
45133W        W 4878  29.134  44.404  11.115
45134W        W 4879  25.597  18.593   3.748
45135W        W 4880  19.132  25.645   4.294
45136W        W 4881   1.894  16.172   5.290
45137W        W 4882   2.460   1.938  10.149
45138W        W 4883  20.269  29.449  10.580
45139W        W 4884  34.911  34.438   0.307
45140W        W 4885  28.606  25.496  13.341
45141W        W 4886  13.267  11.253  13.422
45142W        W 4887   2.347  36.354  13.835
45143W        W 4888  27.975   5.922   0.881
45144W        W 4889  19.771  40.916  13.823
45145W        W 4890  17.706  40.404   0.466
45146W        W 4891  43.418  42.936   0.450
45147W        W 4892   2.310  17.179   9.470
45148W        W 4893  37.831   8.166  14.926
45149W        W 4894  39.975   9.689   2.857
45150W        W 4895  30.996   3.804  14.811
45151W        W 4896   8.244   3.809   2.375
45152W        W 4897  26.505   2.810  14.279
45153W        W 4898  16.803  31.616  14.337
45154W        W 4899  40.834  15.734  11.519
45155W        W 4900  13.315  32.104  10.149
45156W        W 4901  23.094  28.453   9.926
45157W        W 4902   6.891  24.175  12.464
45158W        W 4903  31.570  43.833  12.391
45159W        W 4904  20.081  31.565   1.775
45160W        W 4905  41.921  24.661  14.363
45161W        W 4906  22.628   7.287   3.647
45162W        W 4907  40.830  44.823   1.721
45163W        W 4908   6.393  19.099   3.238
45164W        W 4909  18.550  39.551   2.878
45165W        W 4910  19.765  23.116   3.288
45166W        W 4911   0.370  32.100   5.611
45167W        W 4912  39.831  27.964   4.631
45168W        W 4913  43.452   8.249  13.500
45169W        W 4914  21.631   3.749   5.118
45170W        W 4915  27.552   4.877   4.829
45171W        W 4916  25.682  26.160   3.842
45172W        W 4917  10.697  33.115  10.941
45173W        W 4918  40.508  38.374  12.517
45174W        W 4919  11.663   4.292   3.300
45175W        W 4920  17.199  26.097   1.375
45176W        W 4921  23.065  21.578   3.667
45177W        W 4922  28.044  32.540  14.014
45178W        W 4923  36.000  27.101   3.379
45179W        W 4924   6.340   5.311   1.781
45180W        W 4925  19.666   2.855  12.384
45181W        W 4926   9.365   4.282  14.281
45182W        W 4927  33.610  32.051  12.482
45183W        W 4928   5.333  37.509  11.485
45184W        W 4929  11.156   0.933  10.541
45185W        W 4930  28.665  20.744   3.356
45186W        W 4931  40.923  43.379  12.406
45187W        W 4932  44.360  30.438   0.898
45188W        W 4933   4.434  11.775  13.541
45189W        W 4934  40.982  16.240   1.731
45190W        W 4935  44.774  21.067   2.674
45191W        W 4936   3.904  17.168   4.292
45192W        W 4937   0.389  33.583  13.881
45193W        W 4938  28.041  10.234   0.336
45194W        W 4939  29.971  32.438   1.878
45195W        W 4940   8.190  34.481  14.976
45196W        W 4941  15.591   0.409   2.223
45197W        W 4942  27.110   2.885   1.316
45198W        W 4943  23.001  37.913  14.786
45199W        W 4944  38.530  41.996  11.432
45200W        W 4945  14.602   3.807  12.947
45201W        W 4946  17.109  26.095   0.825
45202W        W 4947  15.630   1.845  10.608
45203W        W 4948   9.273  22.525   4.240
45204W        W 4949  16.782  22.672  12.362
45205W        W 4950  27.508  27.567  12.859
45206W        W 4951   2.277   4.894   4.184
45207W        W 4952  17.557   2.877   4.301
45208W        W 4953   2.331  27.676  11.564
45209W        W 4954  19.606  24.579   3.178
45210W        W 4955   8.332  11.867  12.352
45211W        W 4956  12.253  30.514  11.568
45212W        W 4957   0.457  11.327   3.339
45213W        W 4958  25.529  43.380   2.666
45214W        W 4959  25.106   7.306   4.142
45215W        W 4960  11.137   9.701  13.366
45216W        W 4961   7.893  16.307  14.998
45217W        W 4962  35.370  22.621  10.575
45218W        W 4963  11.749  40.886   3.735
45219W        W 4964  28.114  25.986   0.286
45220W        W 4965  33.569   0.409   5.094
45221W        W 4966  40.482  28.066   4.647
45222W        W 4967   4.292  22.600   3.692
45223W        W 4968  36.845  37.905   2.231
45224W        W 4969   8.853   9.840  12.542
45225W        W 4970  13.233  27.507   4.730
45226W        W 4971   9.807   6.191   4.233
45227W        W 4972  26.643   3.306   2.298
45228W        W 4973  38.377  25.523  14.422
45229W        W 4974  38.334  38.074   3.667
45230W        W 4975   2.275  24.105  10.531
45231W        W 4976   8.852  41.297  14.019
45232W        W 4977   2.949   0.304   1.336
45233W        W 4978   9.157  22.707   1.747
45234W        W 4979  44.455  18.719  11.892
45235W        W 4980  32.585  10.781   2.702
45236W        W 4981  36.457  22.029  11.499
45237W        W 4982  41.852   8.804   0.749
45238W        W 4983  15.302  25.176   3.867
45239W        W 4984  30.943  31.511  12.084
45240W        W 4985  36.494  22.690  13.010
45241W        W 4986  22.519  44.353   3.265
45242W        W 4987  19.098   0.420   3.652
45243W        W 4988   2.353  27.054  12.377
45244W        W 4989   1.733  13.698   0.459
45245W        W 4990  32.064  38.984   3.681
45246W        W 4991  29.492  25.512  10.450
45247W        W 4992  12.743   9.880  14.781
45248W        W 4993   8.818  25.981  10.549
45249W        W 4994   2.737  24.665   4.260
45250W        W 4995   9.270   0.438   1.785
45251W        W 4996  31.607  41.354  13.924
45252W        W 4997  24.217   6.726   2.761
45253W        W 4998  17.128  23.092   4.742
45254W        W 4999   8.255  16.241   0.293
45255W        W 5000   3.285  34.042   0.368
45256W        W 5001  17.589  28.457  13.486
45257W        W 5002  40.959   9.379  11.899
45258W        W 5003  25.494  30.606  12.981
45259W        W 5004  40.418  34.482  10.888
45260W        W 5005   2.372  20.683   0.440
45261W        W 5006  34.903  24.158   0.889
45262W        W 5007  44.765  23.611  13.972
45263W        W 5008  21.700  26.997  13.880
45264W        W 5009  39.540  42.317   1.747
45265W        W 5010  25.071  23.046   2.249
45266W        W 5011   8.698   1.446  12.345
45267W        W 5012  26.015  12.201  11.404
45268W        W 5013   1.828   5.689  12.367
45269W        W 5014  24.177  36.027  12.061
45270W        W 5015  10.331  27.492  10.443
45271W        W 5016  15.103  40.316  14.008
45272W        W 5017   4.278  29.558   2.828
45273W        W 5018  37.342  43.324   1.812
45274W        W 5019   9.151   5.258  13.530
45275W        W 5020  19.668  39.525  13.978
45276W        W 5021  36.067  30.597  11.573
45277W        W 5022  28.095  23.544  10.453
45278W        W 5023  16.616  27.009   2.375
45279W        W 5024  25.188  15.183   0.424
45280W        W 5025  44.259  26.544  12.431
45281W        W 5026   0.291  37.912  11.990
45282W        W 5027  11.732  39.488  11.386
45283W        W 5028   4.932  15.114  12.849
45284W        W 5029  41.919  29.153   2.266
45285W        W 5030  14.302  10.692  11.863
45286W        W 5031  26.478  26.128   1.697
45287W        W 5032  43.415  21.617  11.105
45288W        W 5033  14.168  32.956  10.929
45289W        W 5034  14.798  20.148  10.557
45290W        W 5035  11.212  39.430   1.319
45291W        W 5036  19.257  41.038   2.764
45292W        W 5037  35.870   1.753  12.006
45293W        W 5038  16.145  10.820  13.445
45294W        W 5039  38.982  38.865  13.436
45295W        W 5040  37.547  20.568  10.512
45296W        W 5041  14.811  28.010  12.026
45297W        W 5042   0.250   8.361   0.945
45298W        W 5043  37.057  38.539   2.405
45299W        W 5044  41.501   5.722   2.812
45300W        W 5045   2.949  25.043  14.313
45301W        W 5046  19.090  27.143  10.933
45302W        W 5047  44.419  21.160  10.481
45303W        W 5048  34.568  27.004  10.508
45304W        W 5049  26.661  21.204   0.745
45305W        W 5050  33.885  43.272  10.426
45306W        W 5051  15.805  40.969  14.317
45307W        W 5052   1.922  26.483  12.373
45308W        W 5053  39.493  39.535   3.677
45309W        W 5054   5.351  25.142   5.251
45310W        W 5055  24.575  14.247  14.990
45311W        W 5056  41.291  25.467  11.859
45312W        W 5057  36.498  14.607   2.305
45313W        W 5058  11.341  14.324  13.445
45314W        W 5059  33.981  14.160   1.880
45315W        W 5060   2.827  10.267   3.795
45316W        W 5061  35.927  23.014   2.814
45317W        W 5062  11.177   0.399  10.406
45318W        W 5063  38.542   7.289   0.869
45319W        W 5064  19.622  43.342   1.444
45320W        W 5065  11.732  35.940  12.069
45321W        W 5066  33.458  29.498   4.148
45322W        W 5067  11.780  15.325   0.440
45323W        W 5068   6.274  20.716   4.113
45324W        W 5069  30.006  37.964  13.510
45325W        W 5070   4.280  32.448   1.917
45326W        W 5071   5.929  17.143  11.885
45327W        W 5072  13.347  12.317   1.353
45328W        W 5073   1.258  19.619   2.314
45329W        W 5074  10.342  38.423  12.048
45330W        W 5075  10.830  38.528  14.275
45331W        W 5076  10.773  16.667   4.615
45332W        W 5077  35.088   2.777   1.355
45333W        W 5078  28.580  41.525   3.361
45334W        W 5079  32.033  20.218   0.352
45335W        W 5080  38.458  23.499  14.990
45336W        W 5081   8.870  24.139   4.326
45337W        W 5082  15.739   7.223   2.345
45338W        W 5083   1.238  14.641  14.296
45339W        W 5084   7.370  26.042  12.413
45340W        W 5085  43.399   3.899   2.721
45341W        W 5086  30.647  28.595  12.576
45342W        W 5087  29.028  15.295  11.508
45343W        W 5088  32.981  33.960  14.961
45344W        W 5089   4.802  10.149  14.467
45345W        W 5090  31.912  29.651  14.367
45346W        W 5091  11.795  28.617  12.070
45347W        W 5092  42.387  40.523  10.968
45348W        W 5093  23.154   4.205  14.950
45349W        W 5094  36.944  20.729   4.649
45350W        W 5095  16.582  34.432   3.798
45351W        W 5096  41.395  29.027   4.798
45352W        W 5097  16.230   9.347   4.743
45353W        W 5098  37.970  41.954   0.759
45354W        W 5099  31.956  40.859   3.229
45355W        W 5100  14.626  10.171   1.400
45356W        W 5101  17.205  25.486   2.407
45357W        W 5102  25.972  17.635  14.760
45358W        W 5103  37.953  17.134   3.787
45359W        W 5104  35.872  37.918  10.533
45360W        W 5105  35.552  12.165  12.578
45361W        W 5106  11.328  28.949   3.301
45362W        W 5107  26.508  19.597   0.869
45363W        W 5108  32.433   5.715   0.436
45364W        W 5109  26.065  11.842   1.280
45365W        W 5110  32.992  22.553   3.362
45366W        W 5111  39.321  39.415   2.731
45367W        W 5112  42.517  26.543  10.978
45368W        W 5113  38.900  39.896  11.380
45369W        W 5114  27.102  42.371   3.805
45370W        W 5115   0.326   8.278   2.324
45371W        W 5116   9.265  21.729  13.959
45372W        W 5117  23.115  39.328  14.443
45373W        W 5118  34.083  31.412   2.315
45374W        W 5119  17.637   0.420   1.850
45375W        W 5120  19.734  14.124  12.490
45376W        W 5121  19.737  12.293  11.871
45377W        W 5122  35.969  42.800   3.259
45378W        W 5123  17.087   2.858  13.945
45379W        W 5124  37.411   5.823  14.289
45380W        W 5125  25.535  29.469   2.728
45381W        W 5126  12.156   0.322  12.352
45382W        W 5127  26.523   8.244   2.901
45383W        W 5128  23.667   3.803   3.343
45384W        W 5129   8.351  21.208  13.390
45385W        W 5130  17.287  17.734   4.619
45386W        W 5131  23.534  13.236   0.882
45387W        W 5132  33.622  10.836  14.430
45388W        W 5133  44.985  38.383  13.810
45389W        W 5134   6.749  22.577  10.586
45390W        W 5135  36.353  38.945  11.521
45391W        W 5136  10.786  42.900   3.272
45392W        W 5137   6.813  28.147   0.821
45393W        W 5138   0.747  42.820  11.995
45394W        W 5139   5.288  21.085  10.075
45395W        W 5140  13.681  34.531   0.376
45396W        W 5141  41.481  35.906  12.838
45397W        W 5142  41.450  32.956   4.795
45398W        W 5143  22.743  18.127  10.523
45399W        W 5144  35.553   1.744   2.721
45400W        W 5145  14.106  35.567   1.326
45401W        W 5146   2.324  41.431   0.881
45402W        W 5147  17.274  34.079  11.530
45403W        W 5148  32.976   1.896  13.058
45404W        W 5149   2.357  29.987   3.749
45405W        W 5150  22.644   4.838   2.222
45406W        W 5151  22.176  18.593  13.997
45407W        W 5152  28.604  38.386   1.271
45408W        W 5153  22.096  10.332   1.767
45409W        W 5154  30.615  44.457  14.972
45410W        W 5155  12.276   1.323  10.604
45411W        W 5156   2.877  36.971   1.410
45412W        W 5157  15.823  40.042   3.696
45413W        W 5158   2.817  20.767  13.967
45414W        W 5159  44.780  33.062  14.934
45415W        W 5160  31.926   2.291   4.319
45416W        W 5161  42.868  30.039  12.002
45417W        W 5162  44.362  20.528  14.466
45418W        W 5163  41.350  30.153   1.906
45419W        W 5164  23.545  16.247   0.953
45420W        W 5165  21.249  18.238  12.950
45421W        W 5166  23.695  36.970   1.811
45422W        W 5167  14.285  14.209   3.330
45423W        W 5168   5.245  32.049  13.391
45424W        W 5169  15.580  40.405   3.687
45425W        W 5170  13.208  25.185   1.712
45426W        W 5171  27.071   1.778   2.808
45427W        W 5172   8.335   2.866   4.336
45428W        W 5173  41.451  15.625   1.817
45429W        W 5174  26.604  32.054   0.393
45430W        W 5175  36.018  40.835  14.763
45431W        W 5176  28.678  13.693   0.961
45432W        W 5177   7.190  32.935  11.406
45433W        W 5178  41.489  20.257  14.313
45434W        W 5179  16.190  29.552   1.697
45435W        W 5180   0.410  34.439  14.813
45436W        W 5181   3.329  13.254   1.901
45437W        W 5182  40.928  23.056  13.471
45438W        W 5183  11.235   4.860   2.361
45439W        W 5184  17.183  38.423  14.504
45440W        W 5185  42.527  23.583  14.814
45441W        W 5186   1.937  39.446   1.805
45442W        W 5187  23.207  44.786   3.770
45443W        W 5188   7.793  40.331   3.214
45444W        W 5189  23.057   3.819   1.255
45445W        W 5190  26.093  20.106  12.074
45446W        W 5191  40.992  41.866   3.871
45447W        W 5192  27.616  29.644  12.479
45448W        W 5193  33.967   5.375   5.107
45449W        W 5194  29.668  19.093  10.551
45450W        W 5195  40.314  36.852   4.813
45451W        W 5196   6.911  22.230   3.694
45452W        W 5197  23.605  11.131  13.792
45453W        W 5198   4.716  44.378  13.411
45454W        W 5199  20.180  42.348   2.686
45455W        W 5200  37.544  11.660  11.546
45456W        W 5201   7.397  25.154   3.770
45457W        W 5202  42.793   6.392  10.903
45458W        W 5203  33.422   5.799   3.711
45459W        W 5204  20.540  17.632   2.323
45460W        W 5205  14.686  18.102  12.930
45461W        W 5206  42.030  18.078  12.885
45462W        W 5207  11.692  42.999   0.251
45463W        W 5208  15.216  18.196  14.884
45464W        W 5209   6.249   6.855   1.717
45465W        W 5210   3.890   7.238   1.428
45466W        W 5211  22.711  39.507   0.779
45467W        W 5212  26.550  26.991   2.707
45468W        W 5213   0.987  38.472  14.367
45469W        W 5214  21.646  33.000   4.332
45470W        W 5215   7.834  28.065  11.542
45471W        W 5216  22.521  27.547  12.966
45472W        W 5217  40.036  33.405   1.780
45473W        W 5218  40.408  41.995  12.499
45474W        W 5219  18.727  29.122   3.718
45475W        W 5220  18.775  42.458  13.049
45476W        W 5221   1.786  21.248   1.276
45477W        W 5222   2.248  30.459  12.909
45478W        W 5223  41.529  37.965   0.934
45479W        W 5224  12.283   2.423  10.891
45480W        W 5225  20.230   2.226  12.067
45481W        W 5226  22.733  38.340  11.430
45482W        W 5227   6.294  16.120   3.702
45483W        W 5228   6.269  42.864   3.211
45484W        W 5229  10.836  18.648  12.431
45485W        W 5230  17.671  11.832   4.299
45486W        W 5231  37.383  15.149  14.471
45487W        W 5232   8.719   3.290  11.067
45488W        W 5233  44.368  41.499   1.448
45489W        W 5234  21.621  44.446  13.543
45490W        W 5235  25.100  33.418   1.722
45491W        W 5236  22.645  16.732   1.703
45492W        W 5237  16.782  21.116  12.969
45493W        W 5238  29.129  14.713  13.852
45494W        W 5239  39.380  41.966  11.980
45495W        W 5240  24.662  39.553  14.276
45496W        W 5241  43.409   0.411   3.249
45497W        W 5242   8.309  19.235  14.335
45498W        W 5243  33.426  19.544   2.864
45499W        W 5244   5.722  31.088   4.621
45500W        W 5245  36.552  12.142   4.294
45501W        W 5246  33.557  22.050  14.415
45502W        W 5247  14.244  13.302   2.303
45503W        W 5248   1.284  33.913  14.290
45504W        W 5249  26.958   4.765   0.743
45505W        W 5250  43.485   7.365  14.896
45506W        W 5251  22.244   3.858   0.822
45507W        W 5252  34.561  12.772  13.988
45508W        W 5253  23.017   1.419   4.683
45509W        W 5254  41.469  17.256  14.935
45510W        W 5255   2.394  41.467  14.351
45511W        W 5256  32.121  11.724   5.298
45512W        W 5257  37.078   4.219  12.452
45513W        W 5258  41.834  10.841   2.295
45514W        W 5259  25.142  33.503  10.533
45515W        W 5260   5.421  35.442  14.769
45516W        W 5261   6.764  22.219   0.445
45517W        W 5262  16.285  31.123  12.365
45518W        W 5263   5.278   7.891   1.709
45519W        W 5264  33.554   0.980  14.897
45520W        W 5265  18.705  11.695   3.227
45521W        W 5266  16.767  40.915  13.335
45522W        W 5267  39.950  30.025  12.082
45523W        W 5268   8.399  18.672   1.710
45524W        W 5269  15.187  27.025  10.964
45525W        W 5270  34.108  15.295  11.460
45526W        W 5271  25.020  13.694   2.368
45527W        W 5272  38.431  35.414   1.869
45528W        W 5273  42.853   2.431   3.169
45529W        W 5274   4.763   2.799  11.040
45530W        W 5275  20.733   9.301   2.410
45531W        W 5276  40.862  34.985  10.608
45532W        W 5277  38.425  30.155   2.689
45533W        W 5278  11.190  37.572  13.381
45534W        W 5279  22.703  19.624   2.278
45535W        W 5280  23.725  12.124  12.444
45536W        W 5281  44.310  43.860   3.256
45537W        W 5282  12.693   5.207  13.337
45538W        W 5283  34.891  14.704   0.302
45539W        W 5284   3.812  17.590  12.530
45540W        W 5285  31.539   8.727  14.966
45541W        W 5286  39.429  15.260   0.790
45542W        W 5287  21.218  24.671   2.874
45543W        W 5288   5.728   8.351  13.378
45544W        W 5289  19.701  26.040   2.771
45545W        W 5290  43.500  39.001  14.811
45546W        W 5291   4.903  20.137  14.953
45547W        W 5292   5.776  11.664  11.417
45548W        W 5293  25.636   5.418  14.809
45549W        W 5294  40.946  38.491  10.635
45550W        W 5295  31.557  16.765   1.838
45551W        W 5296  19.568  34.423   2.262
45552W        W 5297  14.219  31.959  11.866
45553W        W 5298   8.877  21.141   4.238
45554W        W 5299  22.618  34.606  11.907
45555W        W 5300  18.239   4.310  12.521
45556W        W 5301   3.387  37.381   0.828
45557W        W 5302  27.645  38.404  10.455
45558W        W 5303   3.764   2.455   1.886
45559W        W 5304  10.368  11.292   3.380
45560W        W 5305  34.425  26.474  13.448
45561W        W 5306  29.496   8.225   3.279
45562W        W 5307   5.219  35.974  12.027
45563W        W 5308   8.396   0.256  12.449
45564W        W 5309   7.880  22.058   0.464
45565W        W 5310  34.956   7.745   2.320
45566W        W 5311  43.516   1.763  14.947
45567W        W 5312   5.710  29.013  14.993
45568W        W 5313  17.669   3.273   1.317
45569W        W 5314   0.791  12.338  14.346
45570W        W 5315  40.481  37.580  14.504
45571W        W 5316  33.596  33.462   0.739
45572W        W 5317  34.993   6.253   4.810
45573W        W 5318   7.197  38.045   1.322
45574W        W 5319   3.447  24.176   0.955
45575W        W 5320  11.290   4.791   1.276
45576W        W 5321  33.620  31.617  13.896
45577W        W 5322  25.494  41.911   4.597
45578W        W 5323   4.825  21.605  12.084
45579W        W 5324  26.199   3.433   2.417
45580W        W 5325  14.298  24.539  13.473
45581W        W 5326  14.102  31.549   4.822
45582W        W 5327  16.072  39.528   2.853
45583W        W 5328  13.659  15.639  14.806
45584W        W 5329  24.550  24.625   2.291
45585W        W 5330   8.209  43.802  14.860
45586W        W 5331   8.714  25.192   0.438
45587W        W 5332  17.201  10.720  13.344
45588W        W 5333  23.671  31.593  14.777
45589W        W 5334  26.123  23.157   3.232
45590W        W 5335  41.503  22.627  14.473
45591W        W 5336  10.244   5.248   1.326
45592W        W 5337   2.424  20.661  10.072
45593W        W 5338  18.609  41.887  13.322
45594W        W 5339   1.852  41.335   1.435
45595W        W 5340  23.167  42.525  11.555
45596W        W 5341  21.600  29.478  11.562
45597W        W 5342   1.842  20.718  12.086
45598W        W 5343  44.994  20.269  13.839
45599W        W 5344   4.348  18.675   0.829
45600W        W 5345  19.756  24.552  11.067
45601W        W 5346   6.884   4.914   5.102
45602W        W 5347   2.336  44.425  12.972
45603W        W 5348  15.717  39.460   3.171
45604W        W 5349  43.505  34.606   1.316
45605W        W 5350  14.767  21.085   4.822
45606W        W 5351  19.630   4.778  14.417
45607W        W 5352  27.008   8.357   4.717
45608W        W 5353  41.838   6.334  13.493
45609W        W 5354   6.728  14.678   2.788
45610W        W 5355  14.203  43.886  14.008
45611W        W 5356  29.923  41.505   0.939
45612W        W 5357   7.173  16.579  13.015
45613W        W 5358  16.740  11.713   2.296
45614W        W 5359   2.865  18.719  14.999
45615W        W 5360  29.489  11.783   0.359
45616W        W 5361  11.325  14.788  10.536
45617W        W 5362  37.505   6.897   0.398
45618W        W 5363  31.897  39.319  14.866
45619W        W 5364  37.901   8.293  13.401
45620W        W 5365  30.941   7.404   2.245
45621W        W 5366  27.600   6.812  13.353
45622W        W 5367   5.369  22.080   3.727
45623W        W 5368  18.238  33.951  11.508
45624W        W 5369  30.498  33.982   3.665
45625W        W 5370  12.208  40.811  13.483
45626W        W 5371  28.103   9.187   4.155
45627W        W 5372  26.102  23.654   1.782
45628W        W 5373  21.034   0.467   2.834
45629W        W 5374  14.213  31.012  11.882
45630W        W 5375  31.408  31.473   5.279
45631W        W 5376  33.909  10.840  14.879
45632W        W 5377  40.378  26.989   4.801
45633W        W 5378  40.308  24.540   4.694
45634W        W 5379  33.550  33.380   1.836
45635W        W 5380   7.180  40.505  14.938
45636W        W 5381   0.265  24.192   3.172
45637W        W 5382  16.245  10.229  10.413
45638W        W 5383  39.434  20.193  12.076
45639W        W 5384   6.201  16.270   0.902
45640W        W 5385  14.744  13.169  12.025
45641W        W 5386  22.637  25.626  12.462
45642W        W 5387  29.626  10.865  12.464
45643W        W 5388  23.050   6.797   4.790
45644W        W 5389  24.192  11.216   5.142
45645W        W 5390   9.230  26.530  11.962
45646W        W 5391  19.070  20.769  14.349
45647W        W 5392  36.949  44.773   2.182
45648W        W 5393  20.232  14.701  13.922
45649W        W 5394  13.110   8.735   4.630
45650W        W 5395  24.043   5.306  14.937
45651W        W 5396  42.887  13.791  12.940
45652W        W 5397  24.993  13.232  12.019
45653W        W 5398  22.217  15.125   5.179
45654W        W 5399   0.960  14.642   0.852
45655W        W 5400  44.344  24.584  11.121
45656W        W 5401  16.708  16.767  11.557
45657W        W 5402  29.587  15.810   2.781
45658W        W 5403   7.378   5.876  10.621
45659W        W 5404  36.528  17.758   4.160
45660W        W 5405  17.640  26.581   3.296
45661W        W 5406  21.197  16.579  12.461
45662W        W 5407  30.478  43.432   0.437
45663W        W 5408  25.003  25.198  13.532
45664W        W 5409   7.847  26.545   3.346
45665W        W 5410  38.066  22.178  11.936
45666W        W 5411  12.689   9.802   0.877
45667W        W 5412  44.443  33.122  12.015
45668W        W 5413   8.811   4.329  11.561
45669W        W 5414  19.584  32.019   2.198
45670W        W 5415  17.120  40.435   3.865
45671W        W 5416  21.194  33.983   3.150
45672W        W 5417  12.708  32.904   2.246
45673W        W 5418  20.168  12.282  10.536
45674W        W 5419   4.265  35.061   0.397
45675W        W 5420  10.345  43.954   3.211
45676W        W 5421   4.409  17.729  10.462
45677W        W 5422   9.169  14.340  11.953
45678W        W 5423  42.438  44.342  14.902
45679W        W 5424  27.942  26.058  12.402
45680W        W 5425  26.062  22.550  13.865
45681W        W 5426  26.084   3.348   4.794
45682W        W 5427  22.081  37.059   1.349
45683W        W 5428  43.459  28.491  11.124
45684W        W 5429  43.282  19.213   4.714
45685W        W 5430   4.218   8.161  13.814
45686W        W 5431  15.745  21.238  13.966
45687W        W 5432   1.862  31.925   5.249
45688W        W 5433  19.709  29.581   1.863
45689W        W 5434  20.029  34.112   0.862
45690W        W 5435  23.001  35.097   3.235
45691W        W 5436   9.867  14.750   3.685
45692W        W 5437  10.673  30.651   1.868
45693W        W 5438  19.281   0.383   0.341
45694W        W 5439   7.367  31.643   1.245
45695W        W 5440  23.525  39.893  11.024
45696W        W 5441  11.787  40.953   2.283
45697W        W 5442  26.509  40.968  13.796
45698W        W 5443  42.431  19.716   5.122
45699W        W 5444  16.795  40.945  12.505
45700W        W 5445   5.723  39.007  10.997
45701W        W 5446  20.587  26.682   2.329
45702W        W 5447  33.116   4.874   1.248
45703W        W 5448  16.676   2.962   1.829
45704W        W 5449  29.098  43.967   0.966
45705W        W 5450  24.020  36.040  10.572
45706W        W 5451  40.450  16.660   0.874
45707W        W 5452  18.225  31.418   2.253
45708W        W 5453  15.589  11.715  13.810
45709W        W 5454  24.210  32.942   0.443
45710W        W 5455  25.655  24.111  11.587
45711W        W 5456  30.043  32.096  12.542
45712W        W 5457  40.816   8.709   1.792
45713W        W 5458   3.450  13.767   4.679
45714W        W 5459  36.951  37.428  13.511
45715W        W 5460   6.264  22.728   1.769
45716W        W 5461  17.738  30.091   0.396
45717W        W 5462  33.896  38.054   3.211
45718W        W 5463  23.074  40.441   0.851
45719W        W 5464  40.467  13.835  12.913
45720W        W 5465  14.259  11.355   2.801
45721W        W 5466  31.049  11.826  14.378
45722W        W 5467  29.029  34.524   3.150
45723W        W 5468  36.526  43.290  11.945
45724W        W 5469  19.618  13.152  12.512
45725W        W 5470   4.876  18.238   2.228
45726W        W 5471  42.436  38.564   4.353
45727W        W 5472  27.189  23.600   2.737
45728W        W 5473  22.092  20.034   1.795
45729W        W 5474  37.924  27.457  14.870
45730W        W 5475  33.879   9.328  10.497
45731W        W 5476  29.122  28.507   9.436
45732W        W 5477  11.830   6.832  11.388
45733W        W 5478  15.591  42.966  13.952
45734W        W 5479  44.777  14.783   1.221
45735W        W 5480   7.272  38.895  11.610
45736W        W 5481  34.034  32.566  13.061
45737W        W 5482   5.879  28.970  11.917
45738W        W 5483   7.850  44.911   0.466
45739W        W 5484  42.826  28.483   1.225
45740W        W 5485  14.288   9.220  12.832
45741W        W 5486  20.693  38.543  10.487
45742W        W 5487  35.064  15.721  13.893
45743W        W 5488  37.469  16.579  13.791
45744W        W 5489   6.294   3.787  11.495
45745W        W 5490  29.624  31.054  13.027
45746W        W 5491   9.208  23.034   2.871
45747W        W 5492  21.607  24.035  11.387
45748W        W 5493  33.942  36.478   2.197
45749W        W 5494  29.438  30.024   0.423
45750W        W 5495   4.709  27.074   3.251
45751W        W 5496  36.499  37.982  12.955
45752W        W 5497   1.902  25.695  10.939
45753W        W 5498   7.347  43.928  13.413
45754W        W 5499  30.466   2.872  10.503
45755W        W 5500  20.218  31.053  12.003
45756W        W 5501  43.502   4.279  13.820
45757W        W 5502   3.293  28.963  10.989
45758W        W 5503  27.635  21.187  11.382
45759W        W 5504  26.664  15.756   3.320
45760W        W 5505  41.968   5.338  11.489
45761W        W 5506  24.055   1.782   5.235
45762W        W 5507  28.644  13.308  11.123
45763W        W 5508  20.073  21.255  10.415
45764W        W 5509  38.449  10.163  13.309
45765W        W 5510  39.852  19.059  12.859
45766W        W 5511   3.758  13.702  11.944
45767W        W 5512  33.442  14.721   1.715
45768W        W 5513   2.726  19.238   0.921
45769W        W 5514  13.785  31.508   2.390
45770W        W 5515   4.314  35.580   0.299
45771W        W 5516  34.080   9.886  14.000
45772W        W 5517  27.554  16.723  10.589
45773W        W 5518  21.139   1.769   0.343
45774W        W 5519  27.953  39.481  12.866
45775W        W 5520  21.088  24.136  10.444
45776W        W 5521  25.623  41.314  12.372
45777W        W 5522  13.603  10.830   2.243
45778W        W 5523   0.895  41.531   0.893
45779W        W 5524  19.160  18.219   1.740
45780W        W 5525  30.078  19.065  13.481
45781W        W 5526  41.858  29.508   3.148
45782W        W 5527  24.146  33.477   9.614
45783W        W 5528  10.377  11.832   2.788
45784W        W 5529  26.074  41.296   1.764
45785W        W 5530  36.963  21.221   5.155
45786W        W 5531  25.603  33.572  12.548
45787W        W 5532   4.205  36.442  12.911
45788W        W 5533  16.604  17.638  14.922
45789W        W 5534  32.634  12.841  12.376
45790W        W 5535  25.079  21.086   5.266
45791W        W 5536   5.898  41.012  10.486
45792W        W 5537  26.524  25.987   4.295
45793W        W 5538  18.050  32.889   1.839
45794W        W 5539   2.410   4.809  12.559
45795W        W 5540  40.855  11.793   4.277
45796W        W 5541  35.084  39.818   3.188
45797W        W 5542   8.862   7.668   1.450
45798W        W 5543  32.080  19.278  12.052
45799W        W 5544   4.363   7.381   2.742
45800W        W 5545  31.930  32.970   3.322
45801W        W 5546  40.327  17.736   4.724
45802W        W 5547  24.492  37.073   4.229
45803W        W 5548  24.100  34.401   0.333
45804W        W 5549  30.946  33.086  10.547
45805W        W 5550  36.365  19.640  12.545
45806W        W 5551   9.711  42.487   4.805
45807W        W 5552  18.234  43.398  14.818
45808W        W 5553  29.027  35.941   0.764
45809W        W 5554  43.796   4.766  11.579
45810W        W 5555   5.878  23.600  12.366
45811W        W 5556   6.731   2.295   3.217
45812W        W 5557   6.759  16.640   2.339
45813W        W 5558  15.327  19.214  10.468
45814W        W 5559  11.641  20.672   0.462
45815W        W 5560  28.592   1.860   1.736
45816W        W 5561  40.807  37.045  13.394
45817W        W 5562   0.798  23.670   3.833
45818W        W 5563  15.762  18.749  14.803
45819W        W 5564   7.192  15.638  10.640
45820W        W 5565   6.767  28.002   1.210
45821W        W 5566  39.927   2.837  11.960
45822W        W 5567  26.193  28.160  14.894
45823W        W 5568  26.986   7.363   2.822
45824W        W 5569  21.630  40.539  13.403
45825W        W 5570   6.845  14.652   3.730
45826W        W 5571  23.089  25.660   3.696
45827W        W 5572  23.998  44.481  13.368
45828W        W 5573  43.974  21.539  10.935
45829W        W 5574  27.586  40.898  14.908
45830W        W 5575   1.408  38.031   3.849
45831W        W 5576  27.665  42.986  13.025
45832W        W 5577   0.390  14.603  12.393
45833W        W 5578  39.317   2.939   3.181
45834W        W 5579  12.692  33.386  14.347
45835W        W 5580   9.243  32.477  13.950
45836W        W 5581  23.074  18.127  13.411
45837W        W 5582  19.204  22.529   1.325
45838W        W 5583   3.296   4.826   4.237
45839W        W 5584  10.866  24.630  13.826
45840W        W 5585  36.425   0.319   2.753
45841W        W 5586   9.359  24.127  14.853
45842W        W 5587   6.393   1.465   1.241
45843W        W 5588  19.091  40.046  11.412
45844W        W 5589  23.496  12.686  10.547
45845W        W 5590  31.465  10.795   0.247
45846W        W 5591  43.505  23.018  11.611
45847W        W 5592  10.753   6.798   0.786
45848W        W 5593   0.299   0.415  13.332
45849W        W 5594  17.599   7.713  11.382
45850W        W 5595  23.688  15.326  12.411
45851W        W 5596  14.600  13.704   0.726
45852W        W 5597  31.094  38.569   1.359
45853W        W 5598   9.700  36.347   1.880
45854W        W 5599   9.390  12.146  12.577
45855W        W 5600  15.298  37.009  13.051
45856W        W 5601  12.288  44.974  13.316
45857W        W 5602  36.494  23.121   4.147
45858W        W 5603  19.625   8.705  10.060
45859W        W 5604  40.306  26.594  14.005
45860W        W 5605   9.268  22.228   2.792
45861W        W 5606  34.997   0.438   4.692
45862W        W 5607  31.605  33.487   4.121
45863W        W 5608  44.771  39.820   3.375
45864W        W 5609  25.019  39.323  14.927
45865W        W 5610  12.855  38.986   4.220
45866W        W 5611  40.834  15.638   9.935
45867W        W 5612  26.494  26.090   0.317
45868W        W 5613  18.058   4.943  11.103
45869W        W 5614   6.201  16.674   2.213
45870W        W 5615   8.753  20.649   4.135
45871W        W 5616  18.096   8.180  10.417
45872W        W 5617  14.114  44.382  11.379
45873W        W 5618   9.148  13.791   4.612
45874W        W 5619  20.691  17.082   2.846
45875W        W 5620  23.096  10.281  11.423
45876W        W 5621  10.228  36.849   2.279
45877W        W 5622  36.012  23.690  14.373
45878W        W 5623  41.429  15.093   3.740
45879W        W 5624  23.614  11.201  13.471
45880W        W 5625  24.695   0.328   4.256
45881W        W 5626  16.699  30.070  14.031
45882W        W 5627   3.417   4.270   4.606
45883W        W 5628  22.725  37.505  10.124
45884W        W 5629  34.941   2.857  13.494
45885W        W 5630  28.993  25.151  14.326
45886W        W 5631  19.737   5.367   0.939
45887W        W 5632  30.013  26.549   1.225
45888W        W 5633  42.467  17.125   2.259
45889W        W 5634  41.854  13.738  12.339
45890W        W 5635  22.009  13.627   2.792
45891W        W 5636  33.395   3.407   1.791
45892W        W 5637  30.146   3.879  14.505
45893W        W 5638  32.103  13.212  14.362
45894W        W 5639  44.437  18.678  14.915
45895W        W 5640   8.750   7.690   0.288
45896W        W 5641  32.579  13.117   1.866
45897W        W 5642   3.398  29.960   5.675
45898W        W 5643  34.100   8.779  12.843
45899W        W 5644  38.504  33.959  13.470
45900W        W 5645  20.158  20.557  14.970
45901W        W 5646   6.370  40.316   3.709
45902W        W 5647  25.042  41.439   1.905
45903W        W 5648  17.563   1.962  11.874
45904W        W 5649  15.592  23.608   0.809
45905W        W 5650   9.243  37.051  14.317
45906W        W 5651   7.857  31.954  12.055
45907W        W 5652  12.275  20.207  11.930
45908W        W 5653  37.335  34.383  10.996
45909W        W 5654   8.683  40.335  13.830
45910W        W 5655  43.346   1.731  12.862
45911W        W 5656   8.842  11.850   4.179
45912W        W 5657  35.004  14.683  13.435
45913W        W 5658  30.930  25.979   4.804
45914W        W 5659  35.877  28.463  11.501
45915W        W 5660   2.446  34.891   0.332
45916W        W 5661  19.724  35.387   1.704
45917W        W 5662  14.717  31.136  10.892
45918W        W 5663   5.250  21.136   4.755
45919W        W 5664  41.931  44.387  12.033
45920W        W 5665  36.948  27.004   2.340
45921W        W 5666   7.883  18.647  13.064
45922W        W 5667  38.384   0.951   1.863
45923W        W 5668   1.767  40.352  11.010
45924W        W 5669  14.591  26.133   1.353
45925W        W 5670   2.885   3.849   3.331
45926W        W 5671  26.506  18.593  10.905
45927W        W 5672  18.077  21.164   2.380
45928W        W 5673  34.440   1.820   4.830
45929W        W 5674  24.141  13.635  12.357
45930W        W 5675  29.520   1.884   3.293
45931W        W 5676  18.742  41.419  11.468
45932W        W 5677  29.451   9.840  13.474
45933W        W 5678  17.289  36.473   9.943
45934W        W 5679  15.266   7.776   2.304
45935W        W 5680  44.842  28.509   1.751
45936W        W 5681  10.152  38.531  14.775
45937W        W 5682   4.922   9.297   0.260
45938W        W 5683   4.214  34.412  12.396
45939W        W 5684  27.495  29.042  13.471
45940W        W 5685  35.461   4.822   4.252
45941W        W 5686  37.845   0.937   4.665
45942W        W 5687  33.440  13.107  13.445
45943W        W 5688   0.955  42.486   3.257
45944W        W 5689  14.643  21.026   1.331
45945W        W 5690  37.464   8.802  11.064
45946W        W 5691  23.131  40.045   0.323
45947W        W 5692  43.816  42.984   2.722
45948W        W 5693  28.112   2.897   3.820
45949W        W 5694   9.882  44.314   3.651
45950W        W 5695  33.536  35.453  10.994
45951W        W 5696  33.945  19.129   0.828
45952W        W 5697   7.377  15.296   3.250
45953W        W 5698  35.389  33.082  14.360
45954W        W 5699  32.628  20.056  10.148
45955W        W 5700   6.737  16.273  13.464
45956W        W 5701   6.731  14.270  12.084
45957W        W 5702  38.907  43.474  14.329
45958W        W 5703  40.862  24.620  14.433
45959W        W 5704  33.006   8.192  10.959
45960W        W 5705  33.537  37.924  12.917
45961W        W 5706   4.837  34.898   0.967
45962W        W 5707  11.254  15.668  13.462
45963W        W 5708  18.145  12.336   2.677
45964W        W 5709  37.353  37.486  14.330
45965W        W 5710  31.534  25.576   3.785
45966W        W 5711  18.083   6.696   0.948
45967W        W 5712  41.786  24.011   3.167
45968W        W 5713  39.410   5.915   4.820
45969W        W 5714  19.604  20.664  14.512
45970W        W 5715  38.448  42.521  13.839
45971W        W 5716  32.076  35.388   0.309
45972W        W 5717   3.908  16.315   2.397
45973W        W 5718   2.229   3.298   2.221
45974W        W 5719  43.453  34.889   4.117
45975W        W 5720  43.899   0.775  14.376
45976W        W 5721  30.075  15.797  12.936
45977W        W 5722  38.377  40.501   1.709
45978W        W 5723  13.158   6.182   1.367
45979W        W 5724  28.078  41.433   0.822
45980W        W 5725  14.208  39.939  10.912
45981W        W 5726  15.723  26.640  10.455
45982W        W 5727  36.890  41.415  12.829
45983W        W 5728  16.737  34.023   0.865
45984W        W 5729  27.653  41.417   0.851
45985W        W 5730  35.458  38.001  12.078
45986W        W 5731  24.708   7.818  13.831
45987W        W 5732  43.858  40.477  11.873
45988W        W 5733  13.200  22.693   1.842
45989W        W 5734  30.071  25.999   3.379
45990W        W 5735   9.839  32.983   3.768
45991W        W 5736  28.595  44.459   9.949
45992W        W 5737  41.313  27.967   2.273
45993W        W 5738  41.374   0.381  11.062
45994W        W 5739   6.296  35.036  10.929
45995W        W 5740  23.996  36.474  12.831
45996W        W 5741   2.966  17.241   4.256
45997W        W 5742   9.797  26.587   0.822
45998W        W 5743   2.875  13.639  10.972
45999W        W 5744  30.162   2.921   1.723
46000W        W 5745  39.031  35.016  13.912
46001W        W 5746  27.081   4.929   3.232
46002W        W 5747   6.897  30.109  14.008
46003W        W 5748  22.135  43.289  12.364
46004W        W 5749  19.063  43.871  12.970
46005W        W 5750   6.261  22.137  14.409
46006W        W 5751  22.108   8.863   1.912
46007W        W 5752  35.575  25.706   0.466
46008W        W 5753  28.031  35.579   1.708
46009W        W 5754  37.365  38.874   5.130
46010W        W 5755   8.403  19.116  11.418
46011W        W 5756  42.341  35.976   0.895
46012W        W 5757  39.891  39.842   0.886
46013W        W 5758  28.155  33.545   4.674
46014W        W 5759   0.846  35.487  14.489
46015W        W 5760  30.115  44.894  11.399
46016W        W 5761  32.473  26.497   1.277
46017W        W 5762  39.397  27.093   2.247
46018W        W 5763   5.867  17.304   3.642
46019W        W 5764  36.922  21.263  12.507
46020W        W 5765  17.575   6.197   2.783
46021W        W 5766  34.052   5.734  11.002
46022W        W 5767  42.333  20.718   0.388
46023W        W 5768  35.028  34.516  13.875
46024W        W 5769  43.947  19.054  13.061
46025W        W 5770  18.693  23.184  14.926
46026W        W 5771  32.117  37.475   4.647
46027W        W 5772  36.423  30.939   2.726
46028W        W 5773  17.089   7.357  13.994
46029W        W 5774  32.462   3.279  14.884
46030W        W 5775   2.293   9.269  13.875
46031W        W 5776  25.182  37.080  12.980
46032W        W 5777  20.254  20.624   4.247
46033W        W 5778   9.650  35.057   1.368
46034W        W 5779   2.410   3.241  12.394
46035W        W 5780   9.251   9.701   2.275
46036W        W 5781  18.646  32.583   3.306
46037W        W 5782  24.144  33.513  12.477
46038W        W 5783  16.641  37.982   3.674
46039W        W 5784  24.581   2.767   3.321
46040W        W 5785  27.168  41.941   0.256
46041W        W 5786   2.453  18.200  14.932
46042W        W 5787  42.378  41.896   0.413
46043W        W 5788  12.755  40.391  10.413
46044W        W 5789   7.275   9.670  14.976
46045W        W 5790  17.771   9.297   3.699
46046W        W 5791  12.798  28.970   0.436
46047W        W 5792   2.346  20.032   1.249
46048W        W 5793  21.096  13.168  12.452
46049W        W 5794  36.958  37.339  12.018
46050W        W 5795  33.445   0.346  14.767
46051W        W 5796  17.094  13.346  11.418
46052W        W 5797  42.966  44.352   0.787
46053W        W 5798  12.614  36.455   0.357
46054W        W 5799  18.554  36.488   4.221
46055W        W 5800  17.599  19.578   0.867
46056W        W 5801  15.109  39.538  11.395
46057W        W 5802  39.469  35.463  12.544
46058W        W 5803   7.856  32.911  14.282
46059W        W 5804   5.413  28.670   3.239
46060W        W 5805  21.553  15.291   1.383
46061W        W 5806   0.788  25.053  13.795
46062W        W 5807   6.367   6.680  10.910
46063W        W 5808  37.856  28.614   4.261
46064W        W 5809  37.060  41.925  11.037
46065W        W 5810   8.783  12.305  11.426
46066W        W 5811  43.004  42.332  14.802
46067W        W 5812  25.633  19.044  14.863
46068W        W 5813   8.793  26.627  14.888
46069W        W 5814   4.741  19.132   4.821
46070W        W 5815  11.664  31.948   4.181
46071W        W 5816  30.613  22.178  14.988
46072W        W 5817  39.892  33.001   1.731
46073W        W 5818  26.459   1.793  14.942
46074W        W 5819  17.781   4.855  10.989
46075W        W 5820   2.894  41.482  11.411
46076W        W 5821   0.930  14.098  13.941
46077W        W 5822  31.585  23.200  14.289
46078W        W 5823  19.125  13.316  10.591
46079W        W 5824   3.257  13.652  10.427
46080W        W 5825  42.491  14.651   3.249
46081W        W 5826  44.405  19.193   0.308
46082W        W 5827   5.199  11.198   0.372
46083W        W 5828  34.473  22.538   0.883
46084W        W 5829  18.170  28.985  12.477
46085W        W 5830  14.253   3.847  11.496
46086W        W 5831  35.058  20.242   4.739
46087W        W 5832   3.881  29.558   1.898
46088W        W 5833  27.557  22.207   2.308
46089W        W 5834   9.784  25.160  14.396
46090W        W 5835  11.721   5.241  10.988
46091W        W 5836  38.869  34.114   4.264
46092W        W 5837  17.066   2.739   4.680
46093W        W 5838  23.116  19.282  13.947
46094W        W 5839  18.135  35.535   1.776
46095W        W 5840  32.886  30.934   1.925
46096W        W 5841   4.295   8.798   4.665
46097W        W 5842  35.394  44.767   2.349
46098W        W 5843  27.066   3.263   3.645
46099W        W 5844  42.296   5.388   2.210
46100W        W 5845  12.679  36.531   1.267
46101W        W 5846  43.396   1.856   2.777
46102W        W 5847  30.554  35.866  11.575
46103W        W 5848  30.460   6.404  12.438
46104W        W 5849  15.086  36.567  10.468
46105W        W 5850   5.850  36.354   3.735
46106W        W 5851  21.212  19.267   0.929
46107W        W 5852  34.883   1.978   4.751
46108W        W 5853  20.676  32.933   0.338
46109W        W 5854  10.679  43.927   0.856
46110W        W 5855  32.134  41.909   0.333
46111W        W 5856  14.178  19.703  14.780
46112W        W 5857  15.296  19.266   4.724
46113W        W 5858  26.153   7.172  12.525
46114W        W 5859  16.624  38.909   4.148
46115W        W 5860  25.107  37.523  10.440
46116W        W 5861  13.720  31.405  10.500
46117W        W 5862  21.575  15.697   3.183
46118W        W 5863  22.567  39.871   0.373
46119W        W 5864  29.013  33.004   0.828
46120W        W 5865   3.389   6.289   4.829
46121W        W 5866  11.257   7.173  11.946
46122W        W 5867   8.738  31.593   1.903
46123W        W 5868  24.634  26.645  14.872
46124W        W 5869  35.363  35.560   1.435
46125W        W 5870  36.875  15.765   3.149
46126W        W 5871  30.033  30.054  11.886
46127W        W 5872  40.833   3.894  13.919
46128W        W 5873   6.428  35.450   4.152
46129W        W 5874  30.565   4.268   0.888
46130W        W 5875  36.929  22.145  13.499
46131W        W 5876  36.472  26.685   2.787
46132W        W 5877  13.312  29.017   3.792
46133W        W 5878  11.186  22.216  14.770
46134W        W 5879  27.581  23.670  13.032
46135W        W 5880  40.547  15.683   5.200
46136W        W 5881   9.756  16.599   0.289
46137W        W 5882  27.586  19.636  12.496
46138W        W 5883   7.769   7.788   2.693
46139W        W 5884  34.390  21.092  11.605
46140W        W 5885   4.898  27.987  14.401
46141W        W 5886  28.027  25.614  12.953
46142W        W 5887   3.750  26.963  14.997
46143W        W 5888  15.325  34.396  13.354
46144W        W 5889  15.662   0.424  12.967
46145W        W 5890  10.662  40.526   3.811
46146W        W 5891  22.734   0.756   3.722
46147W        W 5892   5.816  18.072   4.115
46148W        W 5893   3.320  24.079  13.883
46149W        W 5894  18.683  19.114  12.867
46150W        W 5895   1.885  33.983   0.292
46151W        W 5896  42.032   8.711  10.506
46152W        W 5897  20.209   7.752   4.729
46153W        W 5898  12.810   4.709  13.961
46154W        W 5899   9.760  33.555   4.219
46155W        W 5900   3.348  33.061   4.241
46156W        W 5901  28.674  43.460  12.944
46157W        W 5902  22.691  41.489  10.077
46158W        W 5903  21.053   5.850   0.898
46159W        W 5904   0.825   7.412   3.251
46160W        W 5905  40.430  27.477  14.472
46161W        W 5906  22.216   3.856   2.705
46162W        W 5907  19.108  11.326  14.446
46163W        W 5908  22.110  22.157  14.996
46164W        W 5909   7.826  25.472   2.364
46165W        W 5910  25.154  43.376   2.812
46166W        W 5911  22.684   8.181  10.522
46167W        W 5912  18.276  23.126   1.436
46168W        W 5913   6.278  31.456   1.400
46169W        W 5914  13.795  38.073   1.415
46170W        W 5915  40.924  34.500  11.889
46171W        W 5916  44.943   8.842   3.835
46172W        W 5917  18.583  39.425  11.506
46173W        W 5918  12.142  41.526  12.935
46174W        W 5919  33.558  28.556   3.344
46175W        W 5920  29.175   5.711   0.888
46176W        W 5921  37.393  42.427  10.506
46177W        W 5922   6.715   2.362   1.262
46178W        W 5923  23.609  35.476   3.782
46179W        W 5924  11.673  17.707   3.208
46180W        W 5925  21.573  39.988   0.801
46181W        W 5926   5.731  39.035  14.961
46182W        W 5927  28.958  30.916  12.478
46183W        W 5928   1.257  12.154  12.400
46184W        W 5929   0.767   0.872   1.427
46185W        W 5930  35.450   7.720   0.456
46186W        W 5931  24.061  24.128   0.268
46187W        W 5932  32.534  10.266  12.872
46188W        W 5933  44.349   1.752  10.892
46189W        W 5934  31.531   6.792   3.364
46190W        W 5935  43.355  22.723  13.960
46191W        W 5936  35.506  35.855   3.333
46192W        W 5937  18.550  33.472   0.380
46193W        W 5938  13.253  16.316  12.061
46194W        W 5939   7.729   4.767   2.877
46195W        W 5940   5.836  29.663  13.856
46196W        W 5941  32.607  10.354  11.591
46197W        W 5942   1.752  43.425  10.445
46198W        W 5943   1.483  30.025  14.385
46199W        W 5944   5.713   2.358   1.231
46200W        W 5945  43.374  10.206   1.391
46201W        W 5946  14.632  12.673   2.729
46202W        W 5947  43.507   4.708  11.078
46203W        W 5948  24.513   6.292  14.439
46204W        W 5949  25.649  25.686   0.952
46205W        W 5950  11.793  27.500   3.690
46206W        W 5951  36.470  42.291   4.270
46207W        W 5952  27.157  21.517  10.416
46208W        W 5953  43.836   8.804   2.323
46209W        W 5954   4.306   2.411  14.777
46210W        W 5955   4.854   3.887   2.360
46211W        W 5956  27.511   5.378  11.589
46212W        W 5957  29.966  19.126   5.609
46213W        W 5958   2.925  29.501  13.340
46214W        W 5959  38.339   5.282   3.265
46215W        W 5960  30.916   2.269  13.510
46216W        W 5961   6.787  17.695  12.520
46217W        W 5962  10.173  37.023   0.288
46218W        W 5963  37.862  11.835  14.509
46219W        W 5964  37.392  25.501  10.609
46220W        W 5965  21.753   4.944   4.799
46221W        W 5966   6.186  41.511   9.943
46222W        W 5967  15.604   0.921   1.734
46223W        W 5968  21.258  40.327  13.518
46224W        W 5969  28.019  35.894  13.365
46225W        W 5970  15.644  11.348   2.733
46226W        W 5971   4.753  19.779   4.225
46227W        W 5972  23.591  37.404   0.275
46228W        W 5973  20.202  29.426  13.351
46229W        W 5974   5.810  38.543   0.331
46230W        W 5975  31.566  33.551  14.950
46231W        W 5976  21.610  21.020  13.965
46232W        W 5977  39.011  23.111   4.226
46233W        W 5978  20.537   4.907   3.237
46234W        W 5979   3.834  29.602  12.349
46235W        W 5980  36.426  31.466  11.905
46236W        W 5981  27.984  18.709  14.475
46237W        W 5982  29.493  41.388  14.828
46238W        W 5983  21.590  30.468   1.717
46239W        W 5984   0.945  28.136   0.405
46240W        W 5985  16.603  30.471   1.770
46241W        W 5986  40.521  21.731   4.181
46242W        W 5987  11.154   3.250  12.881
46243W        W 5988  14.707  26.182  13.002
46244W        W 5989   2.750  24.665   1.306
46245W        W 5990  22.127   6.368   4.679
46246W        W 5991  20.103  43.449  14.772
46247W        W 5992  38.390  20.202   3.664
46248W        W 5993   4.723  30.564   2.732
46249W        W 5994  11.750  44.824   3.213
46250W        W 5995  39.909  29.154   4.808
46251W        W 5996  17.257   3.844  12.041
46252W        W 5997  41.005  31.080   1.222
46253W        W 5998  39.946  34.588   1.900
46254W        W 5999   1.796   7.309  13.897
46255W        W 6000  20.573   8.816  13.367
46256W        W 6001  10.222   5.434  14.813
46257W        W 6002  33.997  31.640  11.127
46258W        W 6003  15.120  12.126   0.324
46259W        W 6004  10.257   9.334   2.851
46260W        W 6005  11.824  22.745   3.677
46261W        W 6006  43.275  36.450   3.335
46262W        W 6007  32.475   5.327   1.230
46263W        W 6008   4.280  43.332   3.238
46264W        W 6009   3.374  41.912   1.720
46265W        W 6010  27.037   9.326  12.898
46266W        W 6011  41.015  23.500  10.538
46267W        W 6012  30.501   9.289   2.762
46268W        W 6013   2.839  22.017  14.934
46269W        W 6014   7.858  26.625  13.374
46270W        W 6015  17.769  26.982   0.873
46271W        W 6016  28.125  34.927   2.283
46272W        W 6017  21.583  12.294  13.874
46273W        W 6018   6.204   1.324  10.567
46274W        W 6019  12.805  11.753  13.864
46275W        W 6020  20.731   6.195  12.422
46276W        W 6021  35.499  39.831  11.528
46277W        W 6022   7.888   1.308  11.056
46278W        W 6023  39.930  43.448   2.342
46279W        W 6024  34.583  30.595  14.887
46280W        W 6025   5.378  19.723  14.288
46281W        W 6026  35.871  20.531  11.467
46282W        W 6027  13.241  17.734   0.942
46283W        W 6028   9.267  14.299   0.867
46284W        W 6029   4.921   9.395   5.156
46285W        W 6030  27.043  33.985  12.469
46286W        W 6031  30.611  23.656  11.448
46287W        W 6032  16.095   4.708  12.013
46288W        W 6033  10.744  14.194  12.418
46289W        W 6034  32.564  32.052   2.179
46290W        W 6035  15.659  41.405   0.910
46291W        W 6036  44.803  19.636  11.405
46292W        W 6037  21.684   6.827  14.779
46293W        W 6038   5.877  31.493  13.845
46294W        W 6039  40.831  21.178  13.406
46295W        W 6040  28.173  22.557   4.263
46296W        W 6041  41.352  20.043   3.760
46297W        W 6042  10.297  11.318   2.821
46298W        W 6043  30.024  32.622   3.176
46299W        W 6044  16.696  44.438   0.789
46300W        W 6045  21.730  27.691   1.256
46301W        W 6046  28.971  34.456   0.741
46302W        W 6047  33.563  20.220   0.748
46303W        W 6048  39.020  18.227  12.402
46304W        W 6049  22.182  40.926  14.919
46305W        W 6050  22.190   0.836   2.684
46306W        W 6051  33.934  30.075  12.084
46307W        W 6052   3.363  32.550   3.809
46308W        W 6053   2.895  19.658   3.152
46309W        W 6054  15.674  12.819   1.234
46310W        W 6055  26.593   4.806   3.819
46311W        W 6056  15.580  29.959   3.687
46312W        W 6057  10.356  14.644   3.353
46313W        W 6058  20.049  11.313   0.866
46314W        W 6059   1.976  22.134  12.472
46315W        W 6060  14.800  37.973  14.393
46316W        W 6061  19.768  27.135  13.810
46317W        W 6062  14.328  12.266   2.818
46318W        W 6063  14.707  40.358   1.419
46319W        W 6064   0.901   6.923  13.372
46320W        W 6065  29.514  16.780  13.367
46321W        W 6066   2.244  25.112  12.458
46322W        W 6067   0.452  26.475   3.776
46323W        W 6068  32.400  28.482  11.587
46324W        W 6069  42.996   8.740   2.774
46325W        W 6070  29.988  26.538  13.427
46326W        W 6071  38.825  42.433   2.339
46327W        W 6072   3.415  28.963   1.815
46328W        W 6073  16.292  22.045   0.317
46329W        W 6074  41.957  38.034  14.773
46330W        W 6075  37.044  13.281  10.972
46331W        W 6076  16.747  12.693  12.449
46332W        W 6077  40.337  44.789  10.443
46333W        W 6078  44.941  28.026   4.325
46334W        W 6079  28.137  25.624   3.150
46335W        W 6080  14.734  31.572  13.874
46336W        W 6081  28.150   8.366   2.718
46337W        W 6082   1.854  42.357   1.780
46338W        W 6083  34.476  22.624  14.312
46339W        W 6084  15.216  23.508   2.257
46340W        W 6085  38.909  17.573  13.452
46341W        W 6086  41.896  44.391  13.547
46342W        W 6087  11.766  27.613  10.935
46343W        W 6088  32.448  27.025  14.005
46344W        W 6089  23.119  42.025  12.391
46345W        W 6090   2.421  17.115  14.294
46346W        W 6091  27.190  17.606  12.572
46347W        W 6092  18.773  44.267   2.274
46348W        W 6093  20.241  10.778  11.581
46349W        W 6094  16.276  23.506  12.093
46350W        W 6095   1.239  41.419   4.315
46351W        W 6096  19.242  40.503  11.053
46352W        W 6097  26.048  22.108  11.927
46353W        W 6098  27.176  32.003   2.227
46354W        W 6099  14.681  25.512   2.224
46355W        W 6100  26.005  33.508  14.394
46356W        W 6101  43.932  21.149   2.307
46357W        W 6102  13.111  17.675   2.807
46358W        W 6103  12.188  22.542   4.828
46359W        W 6104   7.338  21.262   3.725
46360W        W 6105  36.962   1.408   0.746
46361W        W 6106  16.145  33.477  13.444
46362W        W 6107   5.930  34.427  12.579
46363W        W 6108  30.946  38.895  14.422
46364W        W 6109  23.670  14.671   4.605
46365W        W 6110  26.511  19.153  12.857
46366W        W 6111  22.520  12.783   5.720
46367W        W 6112  31.067  12.201   1.323
46368W        W 6113   7.834   0.470   0.436
46369W        W 6114   6.254   2.269  12.345
46370W        W 6115  37.356  15.796   2.217
46371W        W 6116  10.667  13.842   0.848
46372W        W 6117  22.514  12.343   1.245
46373W        W 6118  35.002  10.163  11.399
46374W        W 6119  14.767  28.478   1.391
46375W        W 6120  39.872  39.333  14.366
46376W        W 6121   4.823  11.336  11.062
46377W        W 6122  39.415  16.800   1.719
46378W        W 6123  11.316  17.724  14.437
46379W        W 6124  37.905   7.208  10.521
46380W        W 6125  40.481  41.496  13.327
46381W        W 6126  16.774  29.104  11.929
46382W        W 6127  22.574  42.929   4.827
46383W        W 6128  31.981  29.436   3.307
46384W        W 6129   5.432  41.987   4.350
46385W        W 6130  15.716  38.466   2.266
46386W        W 6131  19.695  18.083  14.021
46387W        W 6132  34.614  27.195   2.753
46388W        W 6133  13.735  22.150  12.060
46389W        W 6134  13.309   5.365   1.760
46390W        W 6135  18.101   2.245  12.343
46391W        W 6136  35.090  33.421   1.388
46392W        W 6137  37.480  24.655  12.400
46393W        W 6138  31.453  30.505   5.760
46394W        W 6139  43.810  17.584   0.781
46395W        W 6140  35.554  33.939  12.937
46396W        W 6141  36.914  11.191   0.897
46397W        W 6142  33.575  14.226   0.948
46398W        W 6143  30.007  28.142   5.273
46399W        W 6144  26.526  11.234   2.228
46400W        W 6145   2.323   0.451  12.575
46401W        W 6146  42.391  38.025   2.859
46402W        W 6147  34.509  27.998   2.276
46403W        W 6148  28.451  30.642   4.158
46404W        W 6149  43.441   7.288   2.747
46405W        W 6150  31.932  17.084   1.411
46406W        W 6151   2.364   3.770  12.030
46407W        W 6152  44.849  27.593  12.076
46408W        W 6153   3.730  29.157   4.277
46409W        W 6154   8.847  18.664  13.415
46410W        W 6155  44.363  28.109   5.165
46411W        W 6156  43.952  18.215  10.911
46412W        W 6157  37.445   9.781  11.885
46413W        W 6158  38.904   5.245   2.219
46414W        W 6159  11.687  38.896  10.116
46415W        W 6160   4.870   9.722  13.994
46416W        W 6161  15.189  26.516  10.986
46417W        W 6162  29.097  38.004  10.520
46418W        W 6163   4.384  10.788  10.507
46419W        W 6164  10.351  29.666  11.373
46420W        W 6165  35.598  14.287   0.814
46421W        W 6166  16.702  43.937  14.877
46422W        W 6167   0.905  16.798   2.666
46423W        W 6168  39.000  13.118  13.385
46424W        W 6169  29.138   9.395  14.780
46425W        W 6170  39.511  24.031   4.715
46426W        W 6171  31.515  22.646   1.709
46427W        W 6172  11.763  15.784   3.849
46428W        W 6173  21.073  26.167   3.263
46429W        W 6174  10.157  21.259   1.730
46430W        W 6175   4.724  11.366   1.754
46431W        W 6176   6.232  31.046   4.755
46432W        W 6177  35.907  19.640  12.996
46433W        W 6178  43.353  35.432   3.308
46434W        W 6179  34.519  41.864   0.894
46435W        W 6180  34.887  11.845   9.929
46436W        W 6181  27.007  16.202  14.024
46437W        W 6182  31.033  26.195  12.017
46438W        W 6183  24.208  24.080   4.265
46439W        W 6184  31.920  42.369  13.498
46440W        W 6185  18.208  12.625   4.158
46441W        W 6186  37.365   4.762   0.259
46442W        W 6187  13.150   4.404   4.274
46443W        W 6188   5.280  23.702  10.431
46444W        W 6189  42.462   1.259  11.061
46445W        W 6190  28.091  10.349   5.103
46446W        W 6191  36.926  40.988   0.953
46447W        W 6192  12.190  28.462  13.889
46448W        W 6193   6.347   7.176   2.217
46449W        W 6194  31.955  35.586   1.298
46450W        W 6195  24.168  44.410  11.456
46451W        W 6196  18.672   4.379  12.028
46452W        W 6197  10.648  18.707   0.288
46453W        W 6198  43.375   2.238  12.423
46454W        W 6199  21.638  27.454   3.308
46455W        W 6200  29.999  43.399  12.987
46456W        W 6201  15.774  25.963  12.908
46457W        W 6202  21.714  35.967   4.829
46458W        W 6203  15.622  35.357  11.885
46459W        W 6204  39.907  43.864   3.173
46460W        W 6205  28.149  18.270  10.571
46461W        W 6206  27.017   0.337   4.324
46462W        W 6207   2.257   9.736  13.846
46463W        W 6208  16.705  36.074  14.359
46464W        W 6209   2.882   4.819   3.645
46465W        W 6210  38.953  22.688  11.870
46466W        W 6211  21.706  17.234   4.167
46467W        W 6212  39.316  25.656  11.042
46468W        W 6213  29.990  16.166   4.710
46469W        W 6214  14.113  25.122  13.400
46470W        W 6215   7.381  14.109  14.825
46471W        W 6216  17.560  16.687  10.435
46472W        W 6217  38.404  16.749  12.550
46473W        W 6218  39.868  21.633   2.776
46474W        W 6219  27.153  22.625  11.128
46475W        W 6220  15.135  10.679   1.769
46476W        W 6221  27.593  30.083   3.334
46477W        W 6222  40.822  15.788   0.729
46478W        W 6223  24.668  23.118  11.441
46479W        W 6224  40.959  41.516  13.365
46480W        W 6225  12.269  17.306   0.946
46481W        W 6226  20.139   8.772  14.893
46482W        W 6227  32.142  42.837   3.681
46483W        W 6228   1.974  43.364   3.826
46484W        W 6229  34.965  44.007  14.941
46485W        W 6230   2.391   1.410  13.507
46486W        W 6231  13.826  17.169  12.054
46487W        W 6232   2.426  44.324  14.974
46488W        W 6233  12.702  34.427   0.266
46489W        W 6234  41.029  30.090  14.434
46490W        W 6235  14.800  34.925  13.477
46491W        W 6236  10.648  34.457  10.947
46492W        W 6237  17.116  21.213   5.207
46493W        W 6238  28.534  19.737  12.906
46494W        W 6239  11.162   2.472   0.397
46495W        W 6240   6.417  20.740   3.733
46496W        W 6241   4.209  43.354  10.930
46497W        W 6242   2.463  42.955   3.307
46498W        W 6243  32.000   4.785  12.838
46499W        W 6244   1.464  13.643  14.970
46500W        W 6245  32.111  17.117   4.117
46501W        W 6246  34.054  37.362  12.389
46502W        W 6247  36.072  42.798  12.044
46503W        W 6248   1.388  38.414   4.123
46504W        W 6249  13.337  26.047  14.027
46505W        W 6250  23.182  42.302  14.871
46506W        W 6251  42.305  23.044  11.455
46507W        W 6252  39.439  20.655   4.147
46508W        W 6253  19.140  25.053   1.384
46509W        W 6254  25.159  37.844   4.294
46510W        W 6255   3.455  18.285   0.907
46511W        W 6256  17.213  21.175  14.926
46512W        W 6257  40.980  12.361   0.906
46513W        W 6258  12.745  32.630   3.289
46514W        W 6259  17.227  15.792   2.235
46515W        W 6260   0.393  11.640  14.309
46516W        W 6261   5.369  10.653   1.708
46517W        W 6262  33.482  32.929   3.680
46518W        W 6263  38.012  37.917   2.670
46519W        W 6264   2.411  14.193   0.771
46520W        W 6265  44.908  43.342   1.800
46521W        W 6266  39.558  23.234  10.893
46522W        W 6267   1.743  21.186   4.653
46523W        W 6268   5.370  22.092  11.902
46524W        W 6269  11.135  10.831   4.690
46525W        W 6270  31.585  43.288   4.348
46526W        W 6271  17.726   1.436  10.997
46527W        W 6272  35.537   3.261  11.047
46528W        W 6273  14.121  25.014  13.846
46529W        W 6274  40.848   6.302   1.838
46530W        W 6275  26.698  39.411  11.096
46531W        W 6276  42.899  20.715  13.431
46532W        W 6277  12.337  44.261   1.411
46533W        W 6278  13.682   8.368   0.914
46534W        W 6279  42.377  15.720   4.270
46535W        W 6280  20.769  35.508   0.794
46536W        W 6281   9.790  14.120  13.942
46537W        W 6282  21.638  17.085  14.404
46538W        W 6283  22.627  27.649   2.243
46539W        W 6284  21.199  31.567   2.198
46540W        W 6285  35.908  12.767  13.471
46541W        W 6286   3.854  39.898   0.344
46542W        W 6287  24.658   8.295   0.744
46543W        W 6288  28.595  31.624  13.848
46544W        W 6289  27.071  31.608  13.331
46545W        W 6290  34.523  38.452   2.230
46546W        W 6291  28.170  24.127  11.916
46547W        W 6292  14.692  11.747  12.525
46548W        W 6293   4.380  31.913  11.522
46549W        W 6294  19.144  24.197   1.273
46550W        W 6295  22.585   2.771  13.818
46551W        W 6296  24.049  10.752  13.391
46552W        W 6297  18.578  28.567   4.344
46553W        W 6298  39.948  37.346   2.824
46554W        W 6299   2.952  14.285  11.109
46555W        W 6300  33.475  26.638   5.309
46556W        W 6301  22.065   0.356   1.861
46557W        W 6302   9.694   7.705   0.829
46558W        W 6303  32.028  40.400   0.321
46559W        W 6304   0.455  11.716   2.729
46560W        W 6305  30.910   8.815  14.835
46561W        W 6306   7.337  43.379  13.035
46562W        W 6307  16.096   5.316  12.416
46563W        W 6308  10.668  38.388   3.798
46564W        W 6309   0.375  11.345  11.056
46565W        W 6310  11.176   7.354  10.937
46566W        W 6311   5.800  28.960  12.881
46567W        W 6312  34.565  25.084  11.919
46568W        W 6313   9.753  32.120  10.544
46569W        W 6314   7.894   4.271  10.977
46570W        W 6315  22.576  31.605  12.506
46571W        W 6316  35.411   9.692   2.761
46572W        W 6317  16.654  18.174   2.873
46573W        W 6318   1.246  36.887   1.261
46574W        W 6319   8.166  27.197  11.871
46575W        W 6320   5.325  20.272   5.103
46576W        W 6321  29.931  15.172   4.795
46577W        W 6322  26.031  16.660   2.898
46578W        W 6323  16.646  38.858   0.246
46579W        W 6324  26.608  11.788   1.305
46580W        W 6325  28.519   7.732  12.423
46581W        W 6326   4.713  27.591  13.815
46582W        W 6327  29.042  37.467   1.378
46583W        W 6328  15.097   8.829  11.926
46584W        W 6329  28.136  17.622   3.194
46585W        W 6330  14.197  26.039   1.392
46586W        W 6331  24.141  35.028  11.917
46587W        W 6332   6.412  18.661   3.860
46588W        W 6333  15.635  30.538  10.459
46589W        W 6334   0.769   7.710   0.774
46590W        W 6335  16.760  24.526   4.160
46591W        W 6336   0.903  32.889   3.286
46592W        W 6337   8.679   7.912   0.860
46593W        W 6338  33.097  32.433  13.310
46594W        W 6339  40.816  18.270  10.945
46595W        W 6340  19.103  21.246  10.555
46596W        W 6341   6.734  27.460   3.245
46597W        W 6342  36.859  16.162  11.539
46598W        W 6343   1.321  29.510   1.787
46599W        W 6344  23.056  40.852  11.497
46600W        W 6345   9.386  18.215  11.384
46601W        W 6346   8.196  13.258  11.432
46602W        W 6347  14.763  16.228  11.924
46603W        W 6348  20.273  28.171   4.609
46604W        W 6349  21.600  23.129   0.367
46605W        W 6350  24.152   8.224   3.854
46606W        W 6351  42.900  40.343  14.329
46607W        W 6352  19.151   7.230  14.491
46608W        W 6353  42.813  37.039   4.329
46609W        W 6354  38.906  12.641  10.059
46610W        W 6355  20.120  23.091  12.936
46611W        W 6356  41.006  33.450   1.869
46612W        W 6357  10.875   6.320   1.365
46613W        W 6358  20.659  10.341   4.690
46614W        W 6359   8.805  16.710   2.869
46615W        W 6360  13.230  17.600   3.236
46616W        W 6361   3.449  40.351  10.117
46617W        W 6362  26.034   2.878  11.057
46618W        W 6363  26.662   9.868   2.807
46619W        W 6364   8.812   7.880   5.230
46620W        W 6365  31.051  39.505   2.669
46621W        W 6366  24.514  17.100   1.891
46622W        W 6367  11.150   9.723  14.419
46623W        W 6368   5.355  29.133  13.966
46624W        W 6369  21.081  33.958   2.882
46625W        W 6370   7.676   3.375  10.104
46626W        W 6371  12.733  28.640  11.048
46627W        W 6372  14.708  16.607   4.791
46628W        W 6373   3.948  34.422  14.963
46629W        W 6374  41.433   6.427  11.570
46630W        W 6375  26.073   4.248  11.489
46631W        W 6376   5.423  31.136   1.434
46632W        W 6377   5.258  18.585   0.289
46633W        W 6378  42.808  10.194  12.855
46634W        W 6379  27.569   9.344   4.162
46635W        W 6380  36.952  30.451   4.830
46636W        W 6381  31.515  23.227  12.983
46637W        W 6382  28.450  13.678   0.316
46638W        W 6383   8.801  26.025  14.891
46639W        W 6384  34.505  16.139  12.528
46640W        W 6385   5.836   1.811  11.909
46641W        W 6386   6.813  29.531  11.383
46642W        W 6387  13.276  33.496  12.860
46643W        W 6388   3.893  12.150   0.458
46644W        W 6389  29.486   1.481  10.465
46645W        W 6390   8.370  29.023   4.625
46646W        W 6391  17.202  41.027  13.864
46647W        W 6392  31.616   3.827  11.016
46648W        W 6393  11.298  39.922  13.516
46649W        W 6394  32.890  28.546   4.674
46650W        W 6395  36.002  23.217   3.174
46651W        W 6396  44.349  32.559  12.007
46652W        W 6397  34.875   2.229  11.122
46653W        W 6398  27.054   0.958   1.779
46654W        W 6399   1.337   0.976  10.494
46655W        W 6400  38.492  10.651   4.808
46656W        W 6401   3.419  20.273   2.229
46657W        W 6402   3.858  23.000  13.904
46658W        W 6403  21.628  20.169   1.899
46659W        W 6404  12.322  44.346   3.222
46660W        W 6405   8.677  32.103   0.752
46661W        W 6406  42.447  10.211  11.008
46662W        W 6407  30.077  14.228   4.787
46663W        W 6408  27.675   8.324   2.821
46664W        W 6409  31.018  27.558  11.916
46665W        W 6410   8.865  23.734  10.541
46666W        W 6411   9.798  25.649   0.419
46667W        W 6412  12.288  31.566  13.849
46668W        W 6413  27.610   2.297  14.406
46669W        W 6414  36.843   4.825  12.981
46670W        W 6415  38.964  20.606  12.979
46671W        W 6416  11.134  44.478  11.521
46672W        W 6417   9.233  11.630  10.039
46673W        W 6418  29.947   0.776   4.266
46674W        W 6419  33.091  31.570   4.137
46675W        W 6420  11.217  30.005  10.980
46676W        W 6421  25.216   5.286  12.367
46677W        W 6422  40.466  11.682   4.798
46678W        W 6423   6.400  10.874   4.131
46679W        W 6424  41.438  22.543   1.283
46680W        W 6425  11.627  25.520   2.198
46681W        W 6426  22.151  17.148   0.798
46682W        W 6427  26.037  34.428   2.857
46683W        W 6428  16.102  13.262   2.903
46684W        W 6429  20.221  33.455  11.970
46685W        W 6430  41.482  29.112   0.862
46686W        W 6431  43.445  44.796   0.377
46687W        W 6432  19.061  43.291  13.979
46688W        W 6433  16.110  34.882  10.502
46689W        W 6434  14.150   8.188   4.129
46690W        W 6435   2.739  38.508  14.343
46691W        W 6436  41.955  37.525  14.770
46692W        W 6437  21.117  22.707   2.884
46693W        W 6438   0.944  25.039   3.829
46694W        W 6439  31.465  35.557  12.518
46695W        W 6440   3.952  41.489   5.251
46696W        W 6441   4.936  23.693   1.915
46697W        W 6442   9.356   6.270   4.129
46698W        W 6443   6.220   1.382  11.593
46699W        W 6444  34.438  33.028  11.551
46700W        W 6445  30.643  35.065   0.803
46701W        W 6446  18.076  14.726   3.162
46702W        W 6447  44.302   7.263  10.460
46703W        W 6448  10.258  30.620  14.379
46704W        W 6449  24.693  39.850   1.225
46705W        W 6450  29.957   5.404   0.764
46706W        W 6451  16.311  40.047   4.181
46707W        W 6452   4.757   3.453   4.353
46708W        W 6453  28.522  17.164  11.594
46709W        W 6454  22.013  17.099   3.342
46710W        W 6455  23.494  24.552   3.245
46711W        W 6456   3.715  12.853  13.519
46712W        W 6457  31.447  39.477  14.981
46713W        W 6458  18.217  11.209  11.019
46714W        W 6459  23.512  29.473   3.366
46715W        W 6460  26.177  15.290   2.670
46716W        W 6461  44.333   1.960  13.932
46717W        W 6462  30.911  22.198  13.366
46718W        W 6463  38.924  35.884   0.469
46719W        W 6464  23.044   9.696  11.421
46720W        W 6465  13.186   4.286   4.646
46721W        W 6466  36.586  33.935  10.911
46722W        W 6467  29.585  29.003   3.151
46723W        W 6468  11.193  23.116   0.819
46724W        W 6469  35.491  42.786   4.224
46725W        W 6470  16.258   3.915   1.222
46726W        W 6471   3.912  10.243  13.978
46727W        W 6472   8.777  30.443  14.423
46728W        W 6473  22.144  29.606   2.374
46729W        W 6474  41.940  24.029   1.349
46730W        W 6475   9.790  23.070   2.803
46731W        W 6476  24.040  29.933   0.748
46732W        W 6477  31.950  38.972   9.946
46733W        W 6478  35.094   4.231  11.870
46734W        W 6479  18.295   1.754   1.755
46735W        W 6480  15.749  39.981  10.570
46736W        W 6481   8.868  30.965  14.950
46737W        W 6482  33.389  36.360  14.316
46738W        W 6483   2.750   3.729  12.919
46739W        W 6484  10.155  19.167  14.910
46740W        W 6485  23.631   9.323  13.474
46741W        W 6486  28.624  15.607  14.976
46742W        W 6487  36.549  21.683   1.792
46743W        W 6488  11.769  26.591  10.457
46744W        W 6489  28.120  15.207   4.329
46745W        W 6490  18.780  10.170   0.333
46746W        W 6491   1.332  31.129   2.369
46747W        W 6492   7.357  15.707  11.382
46748W        W 6493  21.531  22.113  11.544
46749W        W 6494  14.121  13.118  13.391
46750W        W 6495  37.892  19.768   0.873
46751W        W 6496  34.908  16.303  12.432
46752W        W 6497  41.401   8.224   4.757
46753W        W 6498  31.403  42.928  10.157
46754W        W 6499  20.100  32.941   3.708
46755W        W 6500  31.447  39.463   3.241
46756W        W 6501   7.716  39.894   0.335
46757W        W 6502  43.310  18.189   5.307
46758W        W 6503  44.910   1.848   0.336
46759W        W 6504  40.502   7.219   4.630
46760W        W 6505   5.699   2.280  14.825
46761W        W 6506  12.137  13.148  12.418
46762W        W 6507  16.623  34.434   2.260
46763W        W 6508  22.137  32.970  10.596
46764W        W 6509  24.178   7.303  13.444
46765W        W 6510  23.174  36.976   2.303
46766W        W 6511  31.067   2.299  12.004
46767W        W 6512   2.340  39.941  11.905
46768W        W 6513  32.602  44.298  12.050
46769W        W 6514  27.940  34.597  13.927
46770W        W 6515  16.578  42.455  10.434
46771W        W 6516  15.267  22.535   2.200
46772W        W 6517  17.631  16.073  12.850
46773W        W 6518  17.233   2.247   2.714
46774W        W 6519   4.328  16.225   4.308
46775W        W 6520  31.954  32.460   4.634
46776W        W 6521  19.103  36.407  10.416
46777W        W 6522  21.034  25.035  12.389
46778W        W 6523  10.205  36.062  10.928
46779W        W 6524   7.721   8.767   9.926
46780W        W 6525  22.659  28.999   1.922
46781W        W 6526  32.402  29.132  13.355
46782W        W 6527   9.185   7.192   4.823
46783W        W 6528  39.401   6.238   4.765
46784W        W 6529  28.655  29.109   1.736
46785W        W 6530  20.153  16.143   0.824
46786W        W 6531   7.213  30.512   3.630
46787W        W 6532  21.687  10.634  11.006
46788W        W 6533  29.424   1.357  11.943
46789W        W 6534   0.888  31.975   1.305
46790W        W 6535  27.093  26.534   0.831
46791W        W 6536   1.827  14.339  12.001
46792W        W 6537  12.668  18.677  13.538
46793W        W 6538  13.294   6.688  12.931
46794W        W 6539  35.963   9.660   4.266
46795W        W 6540  38.889  32.064   3.210
46796W        W 6541   3.343  10.230  13.937
46797W        W 6542   7.738  38.938  10.583
46798W        W 6543  35.985  15.773   3.363
46799W        W 6544  40.374  19.731   9.936
46800W        W 6545  31.058  17.590  13.469
46801W        W 6546  35.547  43.377  11.495
46802W        W 6547   5.711  30.543  11.399
46803W        W 6548  37.469  20.228  13.856
46804W        W 6549   8.842  17.278   3.632
46805W        W 6550  37.383  14.145   3.821
46806W        W 6551  38.969  13.731  12.522
46807W        W 6552  32.462  40.475   3.773
46808W        W 6553   7.334   3.890  14.999
46809W        W 6554  40.830  39.820  13.876
46810W        W 6555  25.026  35.031   2.182
46811W        W 6556  22.214  28.572  14.837
46812W        W 6557   6.841  40.818  14.410
46813W        W 6558   1.340   7.325  10.443
46814W        W 6559  34.095  42.308   4.748
46815W        W 6560  25.101   9.251  14.800
46816W        W 6561  28.622  34.409  12.988
46817W        W 6562  22.248  21.633  14.904
46818W        W 6563  44.801  14.170   1.432
46819W        W 6564  37.905  43.884   2.857
46820W        W 6565  41.932  22.041   0.900
46821W        W 6566  36.866   0.310  11.861
46822W        W 6567  23.144   7.347  13.871
46823W        W 6568  32.574  14.104  11.493
46824W        W 6569  29.464  14.239  14.800
46825W        W 6570  26.101  23.059  12.889
46826W        W 6571   2.850  12.230   4.614
46827W        W 6572   1.858  44.909   0.343
46828W        W 6573  14.297  17.263   2.861
46829W        W 6574  36.378   2.760   2.369
46830W        W 6575  37.857   5.752  11.051
46831W        W 6576  42.427  10.305   0.952
46832W        W 6577  30.652  36.478  11.511
46833W        W 6578  13.782   0.949   0.894
46834W        W 6579  16.136  25.040   5.271
46835W        W 6580   1.898  19.616  14.369
46836W        W 6581  41.494  26.548   1.776
46837W        W 6582  43.443   6.815  12.346
46838W        W 6583   0.905  41.293   3.720
46839W        W 6584  11.846   9.683  13.546
46840W        W 6585  41.888   7.698  11.380
46841W        W 6586   3.261  23.036  10.452
46842W        W 6587  23.543  21.222  12.004
46843W        W 6588  11.286   0.850  14.827
46844W        W 6589  18.711  42.291   0.881
46845W        W 6590  39.060  39.550  10.440
46846W        W 6591  38.490   8.234  12.053
46847W        W 6592  13.797   0.364  12.453
46848W        W 6593   3.347   8.406   4.710
46849W        W 6594  37.550  31.515   4.617
46850W        W 6595   3.808  43.412  14.471
46851W        W 6596  23.116  24.582  12.442
46852W        W 6597  18.743  16.663   4.353
46853W        W 6598   5.327  19.200   5.122
46854W        W 6599  30.549   9.292   4.202
46855W        W 6600  33.995  15.115   0.833
46856W        W 6601  25.995   2.428   1.264
46857W        W 6602  30.488  24.187   1.725
46858W        W 6603   5.437  38.862  10.501
46859W        W 6604  43.477  34.567  13.328
46860W        W 6605  16.263  43.452   1.775
46861W        W 6606  41.820   2.920  10.546
46862W        W 6607  23.180  30.578  14.922
46863W        W 6608  24.214  17.259  13.495
46864W        W 6609  25.212   4.281   9.957
46865W        W 6610  42.461  18.707   4.716
46866W        W 6611  15.198  13.837   2.391
46867W        W 6612  12.780  23.503   3.179
46868W        W 6613  30.588  21.099  12.927
46869W        W 6614  17.558  37.501   2.341
46870W        W 6615  17.222  21.614   3.348
46871W        W 6616   9.343   1.451   2.303
46872W        W 6617   2.941  42.819  12.434
46873W        W 6618  40.375  13.132   0.846
46874W        W 6619  30.447  12.744  11.008
46875W        W 6620  29.921  38.489   4.150
46876W        W 6621  33.951   2.331  11.873
46877W        W 6622   0.951  35.901   5.263
46878W        W 6623  28.650  41.975   3.718
46879W        W 6624   7.268  37.451   0.810
46880W        W 6625   1.884  11.628   2.727
46881W        W 6626   0.890  41.830   2.683
46882W        W 6627  15.697  43.779   0.841
46883W        W 6628  13.825  36.518  13.395
46884W        W 6629   7.247   9.259   2.701
46885W        W 6630  24.122  29.447   3.187
46886W        W 6631  20.028  43.442  12.077
46887W        W 6632  28.153  37.422   4.310
46888W        W 6633  34.028   9.773   2.375
46889W        W 6634   9.805   0.286  12.897
46890W        W 6635   0.396  10.752   2.822
46891W        W 6636  44.861  10.179   0.809
46892W        W 6637  19.239  15.140   4.341
46893W        W 6638  15.200   3.425  11.080
46894W        W 6639  16.673  38.073  14.826
46895W        W 6640  25.154  19.762   0.422
46896W        W 6641  26.062  37.428   1.417
46897W        W 6642  37.448  15.086  12.901
46898W        W 6643  39.931  10.674   2.679
46899W        W 6644  17.658  39.520  10.991
46900W        W 6645   0.770  28.067   2.324
46901W        W 6646  25.646  27.511   3.383
46902W        W 6647  22.662   6.259  11.855
46903W        W 6648  22.043  27.679   0.829
46904W        W 6649  13.785  13.298  12.016
46905W        W 6650  38.045  36.074   4.323
46906W        W 6651  34.423  35.870   1.267
46907W        W 6652   9.300  25.161  12.963
46908W        W 6653  34.488   5.320  14.889
46909W        W 6654  36.008   7.408  11.605
46910W        W 6655  44.269   1.862   2.250
46911W        W 6656  28.493  17.560   1.799
46912W        W 6657  39.347  18.291  12.966
46913W        W 6658  41.945   1.735   3.284
46914W        W 6659  37.079  20.051   3.278
46915W        W 6660   7.322  28.103  14.923
46916W        W 6661  29.657  20.180   4.828
46917W        W 6662  27.481  39.955   0.945
46918W        W 6663  11.250  38.075  14.796
46919W        W 6664  15.311  32.957  12.571
46920W        W 6665  18.132  26.652   1.774
46921W        W 6666  20.216  23.556  11.058
46922W        W 6667  12.675  19.187  12.873
46923W        W 6668   4.760  30.068  14.969
46924W        W 6669   8.303  41.535   1.775
46925W        W 6670  19.533   3.856  11.466
46926W        W 6671   8.775   2.342  11.510
46927W        W 6672  43.780  40.521  10.921
46928W        W 6673  29.170   4.447  12.531
46929W        W 6674  12.117  34.014  11.972
46930W        W 6675   7.842  28.155   1.751
46931W        W 6676  37.354  43.383  10.988
46932W        W 6677  18.564  11.157  12.518
46933W        W 6678  19.570   3.892  13.470
46934W        W 6679  19.743  42.992  10.522
46935W        W 6680  28.489  42.021  10.937
46936W        W 6681  10.829   4.252   2.394
46937W        W 6682  30.070  40.040   4.131
46938W        W 6683  36.519  31.605   4.761
46939W        W 6684  10.653  31.949   4.334
46940W        W 6685   3.725   7.880  14.499
46941W        W 6686   1.738  26.668   4.688
46942W        W 6687  30.514  39.974   3.329
46943W        W 6688   8.383  38.532   2.663
46944W        W 6689  42.526  25.629  13.809
46945W        W 6690  38.473  40.342   1.351
46946W        W 6691  43.852  24.188  14.956
46947W        W 6692  30.510  11.216  11.969
46948W        W 6693  18.177   1.367  11.426
46949W        W 6694  25.138  33.083  13.001
46950W        W 6695  43.805  27.451   0.385
46951W        W 6696  13.737  24.218   0.889
46952W        W 6697  13.757  20.146   3.359
46953W        W 6698  22.170  12.638  13.977
46954W        W 6699   4.923  13.271   0.425
46955W        W 6700  43.853  20.630   3.234
46956W        W 6701  24.610  31.925  12.363
46957W        W 6702  11.828  43.411  12.868
46958W        W 6703  22.624   7.294   5.187
46959W        W 6704  34.092  40.866  11.592
46960W        W 6705  10.788  15.153   2.411
46961W        W 6706  42.947  19.131  14.346
46962W        W 6707  25.607  13.301  10.460
46963W        W 6708  12.852  14.335  10.627
46964W        W 6709  37.548  23.559   1.912
46965W        W 6710  32.633  34.544   3.751
46966W        W 6711  25.172  30.932   5.167
46967W        W 6712  26.535   5.213  11.047
46968W        W 6713  33.594  21.652  12.949
46969W        W 6714  25.706   3.796  10.616
46970W        W 6715  29.504  42.312   3.220
46971W        W 6716  17.230  36.471   4.307
46972W        W 6717  18.204  43.876   3.669
46973W        W 6718   1.287  28.462   0.831
46974W        W 6719  19.536  27.665   2.784
46975W        W 6720  33.414  32.138  10.899
46976W        W 6721  16.173  19.061  12.009
46977W        W 6722   8.287  12.159   0.825
46978W        W 6723  44.495  20.657  11.542
46979W        W 6724  20.594  28.593   3.822
46980W        W 6725  42.971   6.398   1.436
46981W        W 6726  27.078   5.415  11.481
46982W        W 6727  24.095  18.142   4.727
46983W        W 6728  29.590  13.286  14.769
46984W        W 6729  41.511  31.034   2.364
46985W        W 6730  41.476  15.768   0.728
46986W        W 6731   8.388  38.067   0.796
46987W        W 6732  41.996  21.711   2.186
46988W        W 6733  33.438  20.188   1.380
46989W        W 6734  35.383  24.495  14.986
46990W        W 6735  18.545  29.150  13.872
46991W        W 6736  44.928  12.342  11.985
46992W        W 6737  30.456   7.765   4.752
46993W        W 6738  40.462  13.653  12.427
46994W        W 6739  16.766  14.734   3.747
46995W        W 6740  22.746   6.792  13.491
46996W        W 6741  24.980   7.372  10.528
46997W        W 6742  31.137  10.868   3.378
46998W        W 6743  29.495   4.297  13.797
46999W        W 6744   8.835   1.319  10.562
47000W        W 6745  38.878   2.889  10.081
47001W        W 6746  34.003  27.091  13.402
47002W        W 6747  14.314  11.334  14.279
47003W        W 6748  29.522   0.817   0.445
47004W        W 6749  37.852   2.850  14.875
47005W        W 6750  29.977  32.045  10.092
47006W        W 6751  40.365  15.620   4.173
47007W        W 6752  28.512  44.902   2.776
47008W        W 6753  21.046  23.605   9.984
47009W        W 6754   8.369  12.217   1.352
47010W        W 6755   7.229  23.999   4.803
47011W        W 6756  32.517  38.327   1.256
47012W        W 6757  14.246  31.041   3.170
47013W        W 6758   1.293   8.374   1.708
47014W        W 6759  23.157  35.524  14.850
47015W        W 6760  38.974  29.994  11.546
47016W        W 6761  25.642  33.052  14.363
47017W        W 6762   4.236  31.910  10.945
47018W        W 6763  14.130  14.618   3.818
47019W        W 6764  34.008  36.527  10.963
47020W        W 6765  32.937  32.449   0.803
47021W        W 6766  30.033   6.731  12.896
47022W        W 6767  39.556  21.726   2.764
47023W        W 6768  28.545  13.286   2.712
47024W        W 6769  41.028   3.372  14.900
47025W        W 6770  28.541  20.543  14.937
47026W        W 6771  29.052   8.746  11.437
47027W        W 6772   9.387  34.093   4.806
47028W        W 6773   6.268  10.739   0.450
47029W        W 6774  24.686  28.436   0.774
47030W        W 6775  40.829   9.156   0.465
47031W        W 6776  27.039   2.366  10.933
47032W        W 6777  43.297  29.947  13.845
47033W        W 6778   8.826   3.254   0.358
47034W        W 6779  30.636   7.319   1.353
47035W        W 6780  31.614   2.243  11.452
47036W        W 6781   7.785  40.436  11.520
47037W        W 6782   3.314   3.874  13.927
47038W        W 6783  38.947  28.664   4.607
47039W        W 6784  26.122  39.901   4.143
47040W        W 6785   6.321  11.337   3.179
47041W        W 6786  36.431  36.098   5.127
47042W        W 6787   7.803  30.977  11.540
47043W        W 6788  20.243  38.930   4.199
47044W        W 6789   3.753  36.026   1.887
47045W        W 6790  33.925  20.266  12.040
47046W        W 6791  20.720  41.945   2.822
47047W        W 6792  41.347  41.922  11.079
47048W        W 6793  18.110  16.080  14.779
47049W        W 6794  19.720  25.469   3.230
47050W        W 6795  28.026  22.582  12.387
47051W        W 6796   1.483  21.072   3.177
47052W        W 6797  29.057  24.538  14.988
47053W        W 6798  29.924  11.795  10.986
47054W        W 6799  26.474   8.895  10.154
47055W        W 6800  29.975  34.463  11.909
47056W        W 6801  36.027   9.828   0.446
47057W        W 6802  11.853  23.516  10.512
47058W        W 6803  44.940   0.787   3.749
47059W        W 6804  11.783   8.364  11.877
47060W        W 6805  34.869  27.071  10.570
47061W        W 6806  22.072  17.091  14.495
47062W        W 6807  28.942   2.878   3.820
47063W        W 6808  19.767  12.637  12.095
47064W        W 6809  29.580  32.065   1.217
47065W        W 6810  42.903   4.256   3.850
47066W        W 6811   6.791  25.168  11.963
47067W        W 6812  20.124   9.722   3.855
47068W        W 6813   9.380  37.969   1.786
47069W        W 6814  38.452   6.770  14.499
47070W        W 6815  10.747  16.577  14.345
47071W        W 6816  24.056   5.768  11.040
47072W        W 6817  13.646  44.765   2.186
47073W        W 6818  25.511  30.032  11.078
47074W        W 6819   0.828  33.490  12.390
47075W        W 6820  21.537   6.838  11.492
47076W        W 6821   4.269  34.048  13.965
47077W        W 6822  43.304  23.651  12.345
47078W        W 6823   3.905   0.758  13.368
47079W        W 6824   1.384  40.845  13.348
47080W        W 6825  20.141  22.692  13.323
47081W        W 6826  42.282  28.085  10.601
47082W        W 6827  28.533  30.936  10.418
47083W        W 6828  32.994  15.746  14.307
47084W        W 6829   1.765  24.713   2.293
47085W        W 6830  30.527  18.256   1.277
47086W        W 6831  39.519  28.442  14.760
47087W        W 6832  17.178  34.089  14.988
47088W        W 6833  21.632  17.573   3.151
47089W        W 6834  13.744  20.723   3.761
47090W        W 6835  24.180  44.449  12.056
47091W        W 6836  28.558  37.360   0.298
47092W        W 6837  36.961   7.397  14.465
47093W        W 6838  27.534  12.264   3.207
47094W        W 6839  17.781  14.782  12.825
47095W        W 6840  41.838   0.411  12.356
47096W        W 6841  38.997  32.408  12.536
47097W        W 6842  34.475  35.602   1.739
47098W        W 6843  14.139  38.520  14.407
47099W        W 6844   7.390  32.424   1.766
47100W        W 6845  43.827   5.855  12.351
47101W        W 6846   8.750   8.307  12.413
47102W        W 6847  30.545  34.408  14.482
47103W        W 6848  39.897  34.990   1.403
47104W        W 6849  19.606   9.675  14.277
47105W        W 6850  38.530  41.351   1.333
47106W        W 6851  12.760  40.827  10.536
47107W        W 6852  20.271  35.871   4.323
47108W        W 6853  43.769   5.373   4.137
47109W        W 6854  30.988  19.188   0.888
47110W        W 6855  28.952  12.696  12.893
47111W        W 6856  18.075  33.430  10.469
47112W        W 6857  40.487  28.488  13.325
47113W        W 6858  21.656  10.832   2.720
47114W        W 6859  42.413  33.388  12.408
47115W        W 6860  18.210   5.198  13.319
47116W        W 6861  23.000  35.077   4.247
47117W        W 6862   3.255  26.972   4.720
47118W        W 6863  23.495  10.248  13.398
47119W        W 6864  22.010  21.516  12.954
47120W        W 6865  29.583  19.256  12.893
47121W        W 6866  12.784  36.447  14.976
47122W        W 6867  14.652  14.143  13.941
47123W        W 6868  11.320  10.648  11.916
47124W        W 6869  17.736   2.937  10.947
47125W        W 6870  32.554   1.893  13.512
47126W        W 6871  19.044   5.389   0.463
47127W        W 6872  31.537  30.482   4.622
47128W        W 6873  11.278   3.268  13.532
47129W        W 6874   8.896  21.099  14.858
47130W        W 6875  33.527  12.842   1.790
47131W        W 6876  15.797  17.245   4.683
47132W        W 6877  42.886  38.509  10.434
47133W        W 6878  30.559  23.596  10.639
47134W        W 6879  13.143  26.018   2.693
47135W        W 6880  38.988  15.150  12.916
47136W        W 6881  10.281   4.370   0.448
47137W        W 6882  44.781   2.449  14.910
47138W        W 6883  22.069   5.210  13.430
47139W        W 6884  24.103   0.399  14.413
47140W        W 6885  19.772  12.342   0.874
47141W        W 6886  38.849  35.570   4.710
47142W        W 6887  16.217  27.553  13.864
47143W        W 6888   8.747  28.062   2.667
47144W        W 6889  44.292   3.293   4.294
47145W        W 6890  27.035  15.712   5.290
47146W        W 6891  44.329  41.813  11.070
47147W        W 6892  42.900   0.261  13.448
47148W        W 6893  43.466   0.369   0.830
47149W        W 6894   2.876   6.867  12.006
47150W        W 6895   4.698  19.217   4.266
47151W        W 6896  27.557   8.246  13.937
47152W        W 6897  13.334  29.539   3.320
47153W        W 6898  34.605  28.484   3.345
47154W        W 6899  29.085  42.948   4.693
47155W        W 6900  30.421  15.129   3.749
47156W        W 6901  21.609  33.607  12.413
47157W        W 6902  39.824  17.750  11.055
47158W        W 6903  19.090   7.374  14.864
47159W        W 6904   8.222  19.245  14.934
47160W        W 6905  30.657  21.041  12.347
47161W        W 6906  25.671  15.690   0.833
47162W        W 6907  43.287  24.014  14.320
47163W        W 6908  40.893   7.312   1.409
47164W        W 6909   6.761  21.569  13.818
47165W        W 6910   4.298  13.291   0.314
47166W        W 6911  35.103  21.130   2.185
47167W        W 6912   3.424   5.720  13.934
47168W        W 6913  40.525  13.624  14.352
47169W        W 6914  31.508  43.357  11.009
47170W        W 6915   7.187  16.593   3.217
47171W        W 6916   8.251   2.232  12.453
47172W        W 6917   9.717  41.019  11.041
47173W        W 6918  38.518  17.222   3.793
47174W        W 6919  23.545  30.161   5.152
47175W        W 6920  42.949   2.359  12.088
47176W        W 6921  23.508   6.752  14.843
47177W        W 6922  36.019  43.961  13.832
47178W        W 6923  11.703  39.538  11.970
47179W        W 6924  18.571  18.786   2.363
47180W        W 6925  27.623  20.523   4.801
47181W        W 6926  18.156  11.669  14.859
47182W        W 6927  33.026   8.402   0.330
47183W        W 6928  10.238  40.025   1.338
47184W        W 6929   7.744  28.479   0.823
47185W        W 6930  26.034   2.781  14.891
47186W        W 6931  26.598   1.899  12.866
47187W        W 6932   4.736  29.611   1.222
47188W        W 6933  32.458  27.990  10.491
47189W        W 6934  15.778  16.770   1.779
47190W        W 6935  10.702  23.073  11.543
47191W        W 6936  36.352  40.427  14.414
47192W        W 6937  34.045  44.006  13.011
47193W        W 6938  10.300  37.086   4.671
47194W        W 6939  20.184  28.978   2.260
47195W        W 6940  30.525  25.026   4.823
47196W        W 6941   7.802  41.871   4.715
47197W        W 6942  28.444  21.521  13.014
47198W        W 6943   0.859  23.988   4.665
47199W        W 6944  25.597  33.031  11.907
47200W        W 6945  11.788   4.915  12.065
47201W        W 6946  14.805  30.971  14.335
47202W        W 6947  27.940   6.873   9.950
47203W        W 6948  37.433  11.327   3.317
47204W        W 6949   1.975  44.385  13.908
47205W        W 6950  39.847  30.581   0.263
47206W        W 6951   3.429  43.471   4.161
47207W        W 6952  25.133   8.797   4.638
47208W        W 6953  23.111  12.292   4.330
47209W        W 6954   8.670  29.494   4.326
47210W        W 6955  20.037   8.808   2.254
47211W        W 6956  13.146  13.277  11.515
47212W        W 6957  26.503  43.924   2.294
47213W        W 6958   8.162  43.858  11.105
47214W        W 6959   5.273  30.092  14.439
47215W        W 6960  25.652  34.076   4.228
47216W        W 6961  13.788  37.843  13.433
47217W        W 6962  38.336   1.731   4.213
47218W        W 6963  36.410  18.757   4.666
47219W        W 6964  40.970  20.088   4.252
47220W        W 6965  42.909  21.205   3.239
47221W        W 6966  20.663   1.449   0.467
47222W        W 6967  37.924  37.440   0.361
47223W        W 6968  30.581  30.478   1.799
47224W        W 6969   1.435  42.853  11.459
47225W        W 6970  17.307  13.136   2.663
47226W        W 6971  41.944  19.224   1.315
47227W        W 6972  11.234   0.963  11.504
47228W        W 6973  20.173  24.489  14.877
47229W        W 6974  40.947  12.655  13.401
47230W        W 6975  18.664  18.742  10.949
47231W        W 6976  28.049  33.089  14.763
47232W        W 6977  28.033  16.774  10.536
47233W        W 6978  25.178  14.284   2.234
47234W        W 6979  10.634  41.490   2.284
47235W        W 6980  43.944  14.153   2.366
47236W        W 6981  19.209   9.844  12.394
47237W        W 6982  39.519   2.908   1.391
47238W        W 6983  35.458   6.702  14.375
47239W        W 6984  41.872  16.166  10.476
47240W        W 6985  27.671  36.897  13.020
47241W        W 6986  38.897  32.001   0.931
47242W        W 6987  10.183   0.907  11.915
47243W        W 6988  40.857  31.001   1.934
47244W        W 6989  34.051  16.286   3.708
47245W        W 6990  25.592  24.019   4.822
47246W        W 6991  15.140  21.726   4.303
47247W        W 6992   7.371  24.130   0.475
47248W        W 6993   9.360   5.376  14.984
47249W        W 6994  30.154  29.458   0.419
47250W        W 6995  41.485  34.102  14.301
47251W        W 6996  12.768  33.548  10.590
47252W        W 6997   1.291   7.350  14.822
47253W        W 6998  28.177   0.803  10.995
47254W        W 6999   3.908   9.289  14.360
47255W        W 7000  11.772  42.997  10.560
47256W        W 7001  38.949  31.603   2.347
47257W        W 7002   2.911   6.417  13.934
47258W        W 7003  32.022  43.934   1.835
47259W        W 7004  23.985  44.945  11.612
47260W        W 7005  44.790  30.583   1.694
47261W        W 7006   1.237  37.399   3.751
47262W        W 7007   5.363  18.771   2.280
47263W        W 7008  30.068  39.412   2.404
47264W        W 7009  21.633   5.736   3.349
47265W        W 7010  25.544  25.157  12.844
47266W        W 7011   0.321  19.175  14.325
47267W        W 7012  16.167  15.283  11.107
47268W        W 7013  33.960  21.105   2.398
47269W        W 7014   9.260  35.108  11.879
47270W        W 7015   3.462   2.804   2.289
47271W        W 7016  43.912   4.403  13.479
47272W        W 7017   2.454  42.498   2.322
47273W        W 7018  42.375   6.401   0.814
47274W        W 7019   8.853   8.665  14.008
47275W        W 7020   6.337  36.903   0.846
47276W        W 7021  13.154   1.263  13.971
47277W        W 7022  17.660   3.278  13.966
47278W        W 7023   2.390  17.202   5.787
47279W        W 7024  11.632  24.987   4.155
47280W        W 7025   9.304  27.054   0.918
47281W        W 7026  18.277   6.412  14.886
47282W        W 7027  22.701   8.740  10.536
47283W        W 7028   7.842  21.602  12.354
47284W        W 7029  36.849  32.900   3.244
47285W        W 7030   7.891  21.057   4.645
47286W        W 7031  44.968   1.792  13.883
47287W        W 7032  12.617  29.653   4.653
47288W        W 7033  41.433  26.056  14.016
47289W        W 7034  38.548  29.504   0.798
47290W        W 7035  28.540  40.011   4.658
47291W        W 7036   5.398   6.383  12.838
47292W        W 7037  19.563  35.910  11.488
47293W        W 7038  25.101   3.737   1.817
47294W        W 7039  44.339  19.573   0.397
47295W        W 7040   2.448  23.584  10.944
47296W        W 7041  26.048  14.178   4.651
47297W        W 7042  23.640   7.285  14.876
47298W        W 7043  15.713  12.148  12.490
47299W        W 7044   1.417  15.734   1.443
47300W        W 7045  19.744  29.511  10.523
47301W        W 7046  22.708  29.584  14.421
47302W        W 7047  41.317  33.407   4.729
47303W        W 7048  27.005  43.917   4.657
47304W        W 7049  44.457  29.151  12.907
47305W        W 7050  39.868  31.545   3.728
47306W        W 7051   1.364  24.147   2.893
47307W        W 7052  36.565   2.451  10.547
47308W        W 7053  35.905  38.006   3.731
47309W        W 7054  17.626  41.809   2.859
47310W        W 7055  27.454  39.939  14.981
47311W        W 7056   2.259  17.282   0.324
47312W        W 7057  40.005  41.039   0.380
47313W        W 7058  35.546   9.782  14.417
47314W        W 7059   8.690  31.996  11.969
47315W        W 7060  12.240   5.762  13.402
47316W        W 7061  25.606  23.633  11.551
47317W        W 7062  15.197  19.156  13.054
47318W        W 7063   5.375  41.357  11.926
47319W        W 7064  10.269  24.491   0.835
47320W        W 7065  23.062  37.025  10.576
47321W        W 7066  41.461  17.564   4.787
47322W        W 7067  44.789  36.524  13.368
47323W        W 7068  38.988  39.399  13.865
47324W        W 7069  40.505  31.601   0.755
47325W        W 7070  43.412  32.941  11.912
47326W        W 7071  32.924   2.248  14.760
47327W        W 7072  41.950  41.905   1.789
47328W        W 7073  24.147  38.504   0.454
47329W        W 7074  35.457   3.861  14.831
47330W        W 7075   5.902  18.547  12.429
47331W        W 7076  15.787  23.153  14.511
47332W        W 7077  29.659  35.432  14.476
47333W        W 7078  43.011  13.764  12.069
47334W        W 7079  44.771   6.310  12.095
47335W        W 7080  22.534  42.913   0.788
47336W        W 7081  19.639  19.569  10.582
47337W        W 7082  26.952   8.731   1.308
47338W        W 7083   2.761  43.890   2.670
47339W        W 7084  24.650  26.702  13.454
47340W        W 7085   9.800  41.296  11.568
47341W        W 7086  31.086   3.252   3.320
47342W        W 7087  34.539  24.994   4.707
47343W        W 7088  28.132  16.650  11.896
47344W        W 7089  16.617  37.399  12.431
47345W        W 7090  16.251  23.220  11.604
47346W        W 7091   6.413  27.040   4.651
47347W        W 7092   4.794  14.654  13.469
47348W        W 7093  23.222  44.860   4.234
47349W        W 7094  15.810  21.021   1.436
47350W        W 7095   5.769  29.627  11.924
47351W        W 7096  16.075  40.366  10.581
47352W        W 7097  25.471  43.876   0.363
47353W        W 7098  41.994   7.672   3.150
47354W        W 7099   7.413  31.589  11.558
47355W        W 7100  14.195  39.842  10.444
47356W        W 7101  22.237  24.584  14.465
47357W        W 7102   8.254  40.835  12.575
47358W        W 7103  29.657   1.380   4.323
47359W        W 7104   6.737  18.676   2.767
47360W        W 7105  20.697  17.250   4.702
47361W        W 7106  35.511  39.063   0.928
47362W        W 7107  17.786  12.633  11.464
47363W        W 7108  43.821  20.090   5.164
47364W        W 7109  42.295  31.541  14.416
47365W        W 7110  40.829  16.189  12.578
47366W        W 7111  42.337   6.322  12.061
47367W        W 7112  37.038  26.024   3.847
47368W        W 7113  41.811  38.359  14.437
47369W        W 7114   4.899  40.959   1.857
47370W        W 7115  20.657   5.853  12.495
47371W        W 7116  30.436   2.776   5.733
47372W        W 7117  42.775  34.599  13.923
47373W        W 7118   4.320  30.491   3.793
47374W        W 7119  33.978   4.356  10.080
47375W        W 7120   3.445  11.179  12.919
47376W        W 7121  12.273  43.779   2.899
47377W        W 7122   2.768  15.763  13.369
47378W        W 7123  38.863  12.241  12.373
47379W        W 7124  32.932   4.332   3.738
47380W        W 7125  32.600  32.012  12.552
47381W        W 7126   0.248  15.779  12.528
47382W        W 7127  28.600  10.228  14.385
47383W        W 7128  19.614  34.422  11.004
47384W        W 7129  40.992  43.981   1.347
47385W        W 7130  12.317  36.359  11.922
47386W        W 7131  35.436  30.114   0.358
47387W        W 7132  10.643  32.439   4.315
47388W        W 7133   3.245  29.944  12.418
47389W        W 7134  10.814  37.011   0.245
47390W        W 7135  14.296  15.748   0.837
47391W        W 7136  26.092  40.908   0.373
47392W        W 7137  33.947   6.360  13.982
47393W        W 7138  32.903  44.958   3.793
47394W        W 7139  14.103  20.769  12.394
47395W        W 7140  10.702  18.245   1.229
47396W        W 7141  40.503  16.798   1.793
47397W        W 7142  24.696  34.044   2.342
47398W        W 7143  10.776  20.634   2.814
47399W        W 7144  19.122   8.887  11.576
47400W        W 7145   5.225  40.011   0.456
47401W        W 7146   5.758  40.518   3.387
47402W        W 7147  25.564   1.830  11.546
47403W        W 7148  19.102  26.684   3.162
47404W        W 7149  15.647  10.339   1.310
47405W        W 7150  38.003   2.796   3.707
47406W        W 7151   0.938   6.809   2.846
47407W        W 7152  38.503  12.354   2.700
47408W        W 7153   1.370  39.410  14.498
47409W        W 7154  25.632  27.583   3.708
47410W        W 7155  41.294  39.829  12.945
47411W        W 7156  40.426  13.196   2.232
47412W        W 7157  37.993  35.555  12.384
47413W        W 7158  23.587   5.439   1.712
47414W        W 7159  26.662  37.988  10.984
47415W        W 7160  17.605  43.413  14.403
47416W        W 7161  41.392  14.766   0.933
47417W        W 7162  44.756   7.905   0.272
47418W        W 7163   7.695  22.648   4.691
47419W        W 7164  21.038   9.867  12.563
47420W        W 7165  24.647  10.318  12.090
47421W        W 7166   7.269   0.401  12.084
47422W        W 7167  38.985   5.724  11.610
47423W        W 7168  43.837  18.591  14.812
47424W        W 7169  13.767   2.464   4.741
47425W        W 7170  32.516  13.749   2.303
47426W        W 7171  39.329  39.450   1.445
47427W        W 7172   6.250  15.291  13.991
47428W        W 7173  25.468  20.268   3.668
47429W        W 7174  15.711   6.714   3.652
47430W        W 7175  43.910  19.731   2.856
47431W        W 7176  23.671  32.578   3.647
47432W        W 7177  34.400  21.136  12.991
47433W        W 7178   6.734  21.744   1.296
47434W        W 7179  28.609  39.326  12.506
47435W        W 7180  39.344  40.476  10.495
47436W        W 7181  13.129   5.388  13.447
47437W        W 7182  10.830  17.735   1.451
47438W        W 7183  16.629   2.255  11.420
47439W        W 7184  43.847  16.675  12.976
47440W        W 7185  36.442  29.999  10.471
47441W        W 7186  10.291  23.499   4.599
47442W        W 7187  17.701  13.203  14.483
47443W        W 7188  38.042   4.441   0.816
47444W        W 7189  11.651  30.602   1.237
47445W        W 7190   8.662  13.805  11.978
47446W        W 7191  38.338  42.813   0.747
47447W        W 7192  32.057   5.919  13.347
47448W        W 7193   0.322  18.103   4.278
47449W        W 7194   8.814  21.673   1.309
47450W        W 7195  42.962   7.315  12.017
47451W        W 7196  25.470  40.384   2.198
47452W        W 7197  14.800   3.431  12.908
47453W        W 7198  35.049   5.844   5.766
47454W        W 7199  11.848  25.032   5.251
47455W        W 7200  25.982   6.404   3.790
47456W        W 7201  19.136  17.580  14.399
47457W        W 7202   2.875  40.526   0.446
47458W        W 7203   8.885  28.605   0.289
47459W        W 7204  29.652  12.229   4.339
47460W        W 7205  36.441   5.282  14.386
47461W        W 7206   1.332   5.423  13.446
47462W        W 7207  20.745  14.684   5.796
47463W        W 7208  38.074  16.728  10.520
47464W        W 7209  41.825  38.533   2.404
47465W        W 7210  40.852  42.297   0.314
47466W        W 7211  18.220  30.636   0.378
47467W        W 7212  44.437   7.272   2.276
47468W        W 7213  12.153  13.224   1.877
47469W        W 7214   9.856  34.896  10.917
47470W        W 7215  44.432   8.853  13.487
47471W        W 7216  23.593  36.471  11.059
47472W        W 7217  26.618  31.426  12.568
47473W        W 7218  44.758  10.714   4.240
47474W        W 7219  31.556  15.612   2.233
47475W        W 7220  32.538  36.894   2.854
47476W        W 7221   3.304  25.484  12.824
47477W        W 7222  41.502  41.014   0.302
47478W        W 7223   2.810   0.757  12.843
47479W        W 7224  21.513  19.702   2.708
47480W        W 7225  40.878  35.056  14.509
47481W        W 7226  26.099   4.732   0.950
47482W        W 7227  11.628  18.720  11.552
47483W        W 7228   9.680   8.754   3.652
47484W        W 7229  29.513  38.554   2.805
47485W        W 7230  23.216  34.426   3.242
47486W        W 7231  33.428   7.344  14.415
47487W        W 7232  10.807   7.372   4.149
47488W        W 7233   6.393  24.183   1.430
47489W        W 7234  19.122  32.104  10.417
47490W        W 7235  15.616  19.238  12.430
47491W        W 7236  28.056  18.217  14.318
47492W        W 7237  14.289  19.743  11.604
47493W        W 7238   6.874   1.806  11.048
47494W        W 7239  38.416  26.128  11.046
47495W        W 7240  35.096  16.690   0.259
47496W        W 7241  38.385  44.761   3.290
47497W        W 7242  16.212  28.104   4.228
47498W        W 7243  29.045  42.446   0.285
47499W        W 7244  34.934  22.744  10.029
47500W        W 7245  43.018  27.097  14.357
47501W        W 7246   6.751  38.545  13.368
47502W        W 7247   2.253  23.025  11.857
47503W        W 7248  43.799  22.053   1.219
47504W        W 7249  16.781  20.261  12.847
47505W        W 7250  13.811  44.355  12.990
47506W        W 7251  13.776  26.516   0.922
47507W        W 7252   6.773  16.613   1.847
47508W        W 7253  23.552  27.479   3.376
47509W        W 7254  44.922  35.466   2.374
47510W        W 7255  37.580  25.516  11.540
47511W        W 7256   7.304   7.334  13.839
47512W        W 7257  22.520  28.488   2.885
47513W        W 7258  32.136  39.939  12.007
47514W        W 7259  21.575  35.004   3.729
47515W        W 7260  29.424  17.104  12.036
47516W        W 7261  13.348  17.710  14.477
47517W        W 7262  19.088  11.862  11.888
47518W        W 7263  44.500  33.588   5.086
47519W        W 7264  19.722  39.823  14.368
47520W        W 7265   0.840  35.860  11.376
47521W        W 7266  20.767  37.022  13.802
47522W        W 7267  22.024  17.716   1.423
47523W        W 7268  26.647  15.121   3.847
47524W        W 7269   8.302   1.390  13.835
47525W        W 7270  44.332  26.545   3.729
47526W        W 7271  40.538  41.911   4.201
47527W        W 7272  21.637  12.839  14.285
47528W        W 7273  31.906  13.159   1.414
47529W        W 7274  26.600   6.902   0.444
47530W        W 7275  40.907  25.586   2.764
47531W        W 7276  33.989  30.163  10.639
47532W        W 7277  36.545  33.440   1.270
47533W        W 7278  21.554  20.031   3.748
47534W        W 7279  24.531  13.111  12.943
47535W        W 7280  10.286  28.566  14.409
47536W        W 7281  10.314  30.032   2.417
47537W        W 7282  17.211   4.389   2.270
47538W        W 7283   6.679   2.359   4.718
47539W        W 7284  39.820  32.481   4.247
47540W        W 7285  39.485  16.693  14.482
47541W        W 7286  19.551   7.790  13.331
47542W        W 7287   4.707  41.402  14.918
47543W        W 7288  32.099  18.156   2.833
47544W        W 7289  20.697  13.743   3.281
47545W        W 7290  14.278  12.156   0.483
47546W        W 7291  18.592  16.257  11.487
47547W        W 7292  43.487  15.141  14.408
47548W        W 7293  27.165  19.583   4.774
47549W        W 7294  24.117   4.908  12.440
47550W        W 7295  26.056  36.482  11.397
47551W        W 7296  22.609  14.814  14.403
47552W        W 7297  31.407  25.482   4.670
47553W        W 7298  22.599  30.088   1.715
47554W        W 7299  29.592   2.350  13.514
47555W        W 7300  26.022  21.145   4.780
47556W        W 7301  39.999  22.727  11.466
47557W        W 7302  36.938  40.478   2.726
47558W        W 7303  30.947  44.330   3.675
47559W        W 7304  11.225  25.469  11.999
47560W        W 7305   4.240  29.020   3.328
47561W        W 7306   1.917   7.826   1.842
47562W        W 7307   7.403  10.677  13.862
47563W        W 7308  12.280  34.953   3.303
47564W        W 7309  19.672   1.274  12.094
47565W        W 7310  38.980  12.162  11.882
47566W        W 7311  13.808  20.554   0.368
47567W        W 7312  12.349  34.552  14.832
47568W        W 7313   0.904  44.948  10.975
47569W        W 7314   5.396   8.682  11.595
47570W        W 7315  14.766  24.513  14.315
47571W        W 7316  43.491  26.523   4.822
47572W        W 7317   0.299  12.317   3.332
47573W        W 7318  24.713  38.899  11.575
47574W        W 7319  26.603  42.368   1.294
47575W        W 7320  13.690   6.742   2.718
47576W        W 7321  37.883   9.842  12.878
47577W        W 7322   0.956   2.936   3.160
47578W        W 7323  40.520  10.824   2.378
47579W        W 7324  12.856  27.985   0.803
47580W        W 7325  13.709  29.997   2.382
47581W        W 7326  43.857  42.430  12.405
47582W        W 7327  18.245  36.906   0.820
47583W        W 7328  24.985  19.261  13.315
47584W        W 7329  31.043  28.116  10.899
47585W        W 7330   1.434  24.157  10.947
47586W        W 7331  44.866  39.810   0.740
47587W        W 7332  19.776  21.623   0.484
47588W        W 7333  38.330  20.524   2.682
47589W        W 7334  39.066  33.887  12.524
47590W        W 7335  40.400  43.484  11.023
47591W        W 7336   4.714  29.488   3.298
47592W        W 7337   9.350  29.950   3.297
47593W        W 7338  12.672   8.270   4.269
47594W        W 7339  33.503  37.472  10.132
47595W        W 7340  37.882  21.124  12.371
47596W        W 7341  10.750  11.219   2.797
47597W        W 7342  33.943   6.855  12.938
47598W        W 7343  26.022  39.863   0.759
47599W        W 7344   9.150  40.377  12.481
47600W        W 7345  11.788  21.256   5.204
47601W        W 7346   5.430   9.749   0.337
47602W        W 7347  38.834   0.895  11.458
47603W        W 7348  12.744   4.839  11.942
47604W        W 7349  28.062   1.353   1.285
47605W        W 7350  44.358  19.180  11.441
47606W        W 7351  13.718  11.236  14.482
47607W        W 7352  44.984  19.178   0.365
47608W        W 7353  19.555   6.830  13.984
47609W        W 7354  13.816   7.852  14.376
47610W        W 7355  40.321   4.901   0.430
47611W        W 7356  11.191   9.659   1.834
47612W        W 7357  25.120  30.068  14.890
47613W        W 7358   4.699  10.696  14.509
47614W        W 7359  21.591   8.721   0.422
47615W        W 7360  24.486  10.255  12.995
47616W        W 7361  25.516  43.819   4.274
47617W        W 7362  30.935   3.755   2.895
47618W        W 7363  32.991  20.121   5.569
47619W        W 7364  37.440  20.154  10.487
47620W        W 7365  36.871  44.469   1.719
47621W        W 7366  13.113  37.834   1.880
47622W        W 7367  11.639  22.168  13.439
47623W        W 7368   0.862  12.229  12.072
47624W        W 7369  33.884  44.456  14.012
47625W        W 7370  40.388  13.180   1.877
47626W        W 7371  23.701  44.884  13.406
47627W        W 7372   8.192   2.895  14.468
47628W        W 7373  43.328  44.902  11.862
47629W        W 7374  16.767  23.608  13.941
47630W        W 7375  15.095  17.601   2.707
47631W        W 7376  25.530   6.915   1.783
47632W        W 7377   4.267  31.043   1.268
47633W        W 7378  44.336  29.934   1.827
47634W        W 7379   2.311  30.518   5.189
47635W        W 7380  28.455   3.901  13.513
47636W        W 7381  41.931  11.724  13.372
47637W        W 7382  37.570   5.895   0.860
47638W        W 7383  17.685   0.415  11.939
47639W        W 7384   6.235   8.253  14.408
47640W        W 7385   8.735   3.416  12.905
47641W        W 7386   5.414   4.348   1.398
47642W        W 7387  10.844  28.518   4.263
47643W        W 7388   7.833  28.544  13.977
47644W        W 7389   2.419  17.588  11.550
47645W        W 7390   3.874   0.834   0.759
47646W        W 7391  43.301  36.487   1.935
47647W        W 7392  19.685  27.658  10.540
47648W        W 7393  22.136  12.232  14.327
47649W        W 7394  40.365  23.030   1.726
47650W        W 7395  34.387  15.619   4.646
47651W        W 7396  14.309  41.800  13.032
47652W        W 7397  40.909  11.693  12.575
47653W        W 7398  18.188  26.672   4.278
47654W        W 7399  43.003  12.190   1.703
47655W        W 7400  43.830  26.152  10.517
47656W        W 7401  43.017  11.198  12.074
47657W        W 7402  26.464  28.107   1.822
47658W        W 7403  11.282  42.412  14.911
47659W        W 7404   7.801  24.701  12.973
47660W        W 7405   2.795  43.494   3.286
47661W        W 7406  14.789  21.130  11.464
47662W        W 7407  22.103  25.134   2.388
47663W        W 7408  22.563  24.172   1.315
47664W        W 7409   5.249   0.805  11.918
47665W        W 7410   6.233  24.631  14.894
47666W        W 7411  16.214  13.647  12.012
47667W        W 7412  38.345   9.706  13.404
47668W        W 7413   2.396  40.012  14.791
47669W        W 7414  17.733  21.191  13.473
47670W        W 7415  40.011  12.294   2.742
47671W        W 7416  22.090   0.489   3.705
47672W        W 7417  38.820  16.173   3.707
47673W        W 7418  34.378  41.376  14.023
47674W        W 7419  32.899  41.794   4.754
47675W        W 7420  24.674  16.177  13.807
47676W        W 7421   3.220  42.324   4.667
47677W        W 7422  21.624  27.033  11.600
47678W        W 7423  23.727  12.227   3.677
47679W        W 7424   4.882  15.276   1.354
47680W        W 7425   0.439   5.422  11.594
47681W        W 7426   3.834  10.310  14.411
47682W        W 7427  44.372  12.172  11.925
47683W        W 7428  22.687  32.614   3.271
47684W        W 7429   8.677  10.218   3.373
47685W        W 7430   0.393  43.464  10.892
47686W        W 7431  21.040  44.347   3.386
47687W        W 7432   7.696  15.206  12.341
47688W        W 7433  16.112   6.232   4.208
47689W        W 7434  28.110  15.107  14.822
47690W        W 7435  31.086  28.528   1.905
47691W        W 7436  30.554   1.413  14.434
47692W        W 7437  28.075   9.738  13.375
47693W        W 7438  33.005  12.240   3.844
47694W        W 7439   8.334  35.568  10.505
47695W        W 7440  33.981   9.646  12.524
47696W        W 7441  30.122  31.139  12.481
47697W        W 7442   4.852  40.977   1.433
47698W        W 7443  13.323   1.795  13.970
47699W        W 7444  20.607   4.702  11.419
47700W        W 7445  19.112   5.930   4.317
47701W        W 7446  27.544  31.497   0.842
47702W        W 7447  34.456  23.733  14.015
47703W        W 7448   7.351  32.101   4.246
47704W        W 7449   3.867  29.093   1.398
47705W        W 7450  29.482  42.401  13.049
47706W        W 7451  24.130  35.058  11.529
47707W        W 7452   1.332  25.056   2.250
47708W        W 7453  29.957  17.137  13.501
47709W        W 7454   4.854   4.341  11.419
47710W        W 7455  30.572  44.462   0.830
47711W        W 7456   2.725   0.987   3.284
47712W        W 7457  35.002  36.486   0.780
47713W        W 7458  36.015  33.524   0.398
47714W        W 7459  19.097  13.805  14.446
47715W        W 7460   9.870  34.489   0.452
47716W        W 7461  31.929  37.558   2.319
47717W        W 7462  10.285  11.223  12.934
47718W        W 7463  15.092  31.101  12.073
47719W        W 7464   8.275   5.404   0.458
47720W        W 7465  42.443  15.203   1.278
47721W        W 7466  42.353  10.815  11.600
47722W        W 7467  40.344  25.608  10.951
47723W        W 7468  39.327  16.737  11.453
47724W        W 7469  29.494  13.718   2.268
47725W        W 7470  19.082   9.183  11.912
47726W        W 7471  31.913  35.883  12.539
47727W        W 7472  41.830  28.063   3.323
47728W        W 7473  20.596  24.049  13.875
47729W        W 7474  26.162  36.527  10.937
47730W        W 7475  19.101  42.961   4.287
47731W        W 7476   8.367  36.076  13.983
47732W        W 7477  14.100  13.166  11.423
47733W        W 7478  27.511  42.980  10.555
47734W        W 7479  23.615   0.748   0.293
47735W        W 7480   1.776  44.373  12.093
47736W        W 7481   0.316   2.818  12.477
47737W        W 7482  14.304   5.732  13.328
47738W        W 7483  44.367   8.899   4.705
47739W        W 7484  44.912  17.195   2.210
47740W        W 7485  17.727  43.778  11.578
47741W        W 7486  41.412  27.652   4.294
47742W        W 7487  33.977  34.561  11.447
47743W        W 7488  36.041  38.444  14.346
47744W        W 7489  23.218   8.211  12.968
47745W        W 7490   7.284  39.435  12.053
47746W        W 7491  27.019  28.541  11.859
47747W        W 7492  31.026  17.063   2.284
47748W        W 7493  14.311  13.841  10.475
47749W        W 7494   0.962  33.920   2.229
47750W        W 7495  42.303  28.621   1.842
47751W        W 7496  13.789  34.018  13.429
47752W        W 7497  34.864  17.111  14.348
47753W        W 7498  12.683  25.709   0.318
47754W        W 7499  16.131  40.360  14.805
47755W        W 7500  43.830  28.517  13.503
47756W        W 7501   4.925  44.436  12.858
47757W        W 7502  41.313  26.038  10.957
47758W        W 7503  23.570  19.729  11.899
47759W        W 7504  41.788   5.343   2.391
47760W        W 7505  18.168  44.324   3.766
47761W        W 7506  28.144  20.109  12.078
47762W        W 7507   2.382  27.142   3.294
47763W        W 7508  14.230  43.334   2.308
47764W        W 7509   4.844  35.963  13.512
47765W        W 7510  13.184   2.304   0.403
47766W        W 7511  14.340   9.720  13.403
47767W        W 7512  14.716  11.723  13.401
47768W        W 7513  37.396   4.330  10.009
47769W        W 7514  22.127   5.764   3.200
47770W        W 7515  18.777  44.438   5.160
47771W        W 7516  28.592   3.376  12.091
47772W        W 7517   7.192  25.557   0.911
47773W        W 7518  25.091  39.818   2.295
47774W        W 7519   0.368  33.617   9.948
47775W        W 7520  31.062  22.109  11.039
47776W        W 7521   2.807  27.634   0.288
47777W        W 7522   6.790  13.707  13.821
47778W        W 7523  33.879   2.793   3.699
47779W        W 7524  17.702  41.957   4.281
47780W        W 7525  32.077  17.157  10.563
47781W        W 7526  21.204   9.777   0.330
47782W        W 7527  31.092  20.148   2.782
47783W        W 7528  10.361  28.462   0.470
47784W        W 7529   6.747  34.080  14.973
47785W        W 7530   9.818  35.977  11.860
47786W        W 7531   8.719  38.376  11.916
47787W        W 7532  38.848  12.742   0.397
47788W        W 7533  23.562  18.085   2.313
47789W        W 7534  14.785  12.202   2.353
47790W        W 7535  41.980  25.039  14.993
47791W        W 7536  23.565  32.933  13.445
47792W        W 7537  37.966   5.373   2.313
47793W        W 7538  10.658  38.462   2.742
47794W        W 7539  25.121  41.370  11.864
47795W        W 7540   0.821  10.641   1.809
47796W        W 7541  13.248  13.175  11.980
47797W        W 7542   0.472   9.704  10.455
47798W        W 7543  32.432   8.890   1.913
47799W        W 7544  18.254  23.495   3.344
47800W        W 7545  42.526  13.306  12.421
47801W        W 7546  26.177   4.904  11.866
47802W        W 7547  32.092  33.384   0.749
47803W        W 7548  15.093  14.151  14.315
47804W        W 7549   9.789  38.861  13.063
47805W        W 7550  10.269  25.207  13.430
47806W        W 7551  21.160   0.329   3.276
47807W        W 7552  10.208   1.338   1.264
47808W        W 7553  36.070  35.600   3.267
47809W        W 7554  36.059  20.711  14.351
47810W        W 7555  10.187  32.906   4.734
47811W        W 7556  19.620  11.707   1.397
47812W        W 7557  36.073   9.377   2.899
47813W        W 7558  21.160  43.829  10.411
47814W        W 7559  22.512  32.423  14.464
47815W        W 7560  44.359  25.619  12.968
47816W        W 7561  11.862  40.311  14.927
47817W        W 7562   6.908   4.247   2.314
47818W        W 7563  21.131  28.987  13.039
47819W        W 7564  28.943  24.595  10.617
47820W        W 7565  44.440  32.887   2.840
47821W        W 7566  33.626  15.652  10.117
47822W        W 7567  40.352  43.360   4.347
47823W        W 7568  34.030  19.097  12.494
47824W        W 7569  32.574  38.031   4.177
47825W        W 7570  29.054   1.816  14.837
47826W        W 7571  33.931   3.440   2.663
47827W        W 7572  31.928  32.559  12.413
47828W        W 7573  44.976   8.369   0.314
47829W        W 7574  34.084   6.765   0.443
47830W        W 7575  10.832  38.931   4.651
47831W        W 7576   6.255  25.649  11.963
47832W        W 7577   8.321   1.253   2.398
47833W        W 7578  37.988  20.057  10.948
47834W        W 7579   2.903  12.191  10.944
47835W        W 7580   1.822  40.380  13.452
47836W        W 7581  28.122  10.782   3.368
47837W        W 7582  13.830  20.536   1.307
47838W        W 7583  19.759   5.367  13.911
47839W        W 7584  42.875  10.298  13.374
47840W        W 7585  13.176  21.612   3.725
47841W        W 7586   8.327   3.254  12.559
47842W        W 7587  39.995  17.651  14.482
47843W        W 7588   9.683  41.455  12.512
47844W        W 7589  17.764  16.614  12.411
47845W        W 7590   8.746  18.244   2.856
47846W        W 7591  37.525  30.451  11.081
47847W        W 7592  18.079   9.343  11.928
47848W        W 7593  29.625  27.507   1.241
47849W        W 7594  33.399  42.317  12.577
47850W        W 7595  36.036  34.966   3.655
47851W        W 7596  30.430  29.597  14.871
47852W        W 7597  16.737  18.187  13.482
47853W        W 7598  18.143  26.458  11.406
47854W        W 7599  14.095  42.985  13.514
47855W        W 7600   4.894   5.713  11.505
47856W        W 7601  40.443   7.347   0.268
47857W        W 7602  20.133  25.550   3.661
47858W        W 7603  20.622  43.314   0.768
47859W        W 7604   9.356  39.971   3.693
47860W        W 7605  21.582  27.544   0.438
47861W        W 7606  26.575  42.015   4.293
47862W        W 7607  43.293  23.158   0.805
47863W        W 7608   8.389  29.956   2.741
47864W        W 7609  20.584   0.769  11.896
47865W        W 7610   2.933  35.876   1.448
47866W        W 7611   0.773  39.944   0.806
47867W        W 7612  32.077  10.638  13.956
47868W        W 7613  41.400  29.469   3.163
47869W        W 7614  17.619  29.138  11.443
47870W        W 7615  13.285  28.081  11.416
47871W        W 7616   0.948  24.011  11.503
47872W        W 7617  44.776  28.454  14.450
47873W        W 7618  20.680   5.795  13.885
47874W        W 7619  27.033  18.080   1.313
47875W        W 7620  35.496  33.049   1.289
47876W        W 7621   7.912  26.197  12.080
47877W        W 7622  19.181  26.565  14.340
47878W        W 7623  23.664  11.247  10.528
47879W        W 7624   1.332  44.471   1.298
47880W        W 7625  40.044  31.468  10.997
47881W        W 7626  13.134   8.786  14.402
47882W        W 7627   1.732   1.273  14.368
47883W        W 7628  21.545  31.106   0.964
47884W        W 7629  11.298  39.000  13.469
47885W        W 7630  35.863  13.343  12.570
47886W        W 7631  23.669  33.408   1.419
47887W        W 7632  21.705  18.782  11.927
47888W        W 7633  30.153   0.486   4.670
47889W        W 7634   0.440  34.874  12.019
47890W        W 7635  28.672  28.586  11.880
47891W        W 7636  37.850  19.714   3.706
47892W        W 7637  34.863  13.634   0.376
47893W        W 7638  11.673  24.178   2.336
47894W        W 7639  31.093  33.894  14.876
47895W        W 7640  16.762  31.521  11.516
47896W        W 7641  31.152  21.652   3.836
47897W        W 7642   3.301  24.583  12.534
47898W        W 7643  25.517  40.894  11.073
47899W        W 7644  19.109   4.231  12.578
47900W        W 7645  40.444  33.081   2.214
47901W        W 7646   8.197  19.152   3.780
47902W        W 7647   4.389  40.549  13.842
47903W        W 7648  12.759  25.616   1.375
47904W        W 7649  12.734   8.876   4.759
47905W        W 7650  35.979  36.434  13.033
47906W        W 7651  35.416  30.499   0.824
47907W        W 7652  26.190  28.023   0.826
47908W        W 7653  27.175  24.639  12.995
47909W        W 7654  18.746  12.221  12.376
47910W        W 7655   5.836  18.628  10.585
47911W        W 7656  31.024  35.468   3.652
47912W        W 7657  18.558  30.479   4.333
47913W        W 7658  33.075   0.753   3.854
47914W        W 7659  39.951  26.690  12.555
47915W        W 7660  37.408  19.057  12.509
47916W        W 7661  30.060  22.727  13.506
47917W        W 7662  20.543  35.561  12.371
47918W        W 7663  37.076   6.844  13.821
47919W        W 7664  15.171  19.103   1.696
47920W        W 7665   3.764  32.099   0.828
47921W        W 7666  19.277  30.570  13.918
47922W        W 7667   4.330  39.449  10.985
47923W        W 7668   1.450  19.224   2.337
47924W        W 7669  17.126  17.567   2.871
47925W        W 7670  35.386  37.530  10.546
47926W        W 7671  41.398  41.348  10.560
47927W        W 7672  21.540   0.261  13.411
47928W        W 7673   6.278  10.159  14.776
47929W        W 7674  15.764  17.117  14.881
47930W        W 7675  13.834  44.350  14.459
47931W        W 7676   4.797  36.407  14.820
47932W        W 7677   3.854  13.242   3.858
47933W        W 7678  27.107  30.141  11.523
47934W        W 7679  36.881  31.096   0.321
47935W        W 7680  20.624   6.783   1.373
47936W        W 7681  14.676   1.736   0.339
47937W        W 7682  13.222  28.929   4.281
47938W        W 7683  42.830  24.618   2.214
47939W        W 7684  19.074  12.651  14.446
47940W        W 7685  12.148  38.532   2.898
47941W        W 7686  42.313  29.640  13.020
47942W        W 7687  27.094  24.057  10.995
47943W        W 7688  28.992  29.985   1.245
47944W        W 7689  27.121  28.473  11.559
47945W        W 7690  11.254  19.157   0.339
47946W        W 7691  32.036  32.630  10.978
47947W        W 7692  10.240  33.917   1.221
47948W        W 7693   2.917  39.334   2.404
47949W        W 7694  16.161  21.182  14.459
47950W        W 7695  40.876  31.125  10.556
47951W        W 7696   6.411  29.147   0.929
47952W        W 7697   3.714  13.225   0.743
47953W        W 7698   7.280  26.051   3.192
47954W        W 7699  34.042   8.758   3.342
47955W        W 7700   0.778  37.460   1.257
47956W        W 7701  18.167   3.345  10.019
47957W        W 7702  41.900  40.839   4.266
47958W        W 7703  25.034  36.926  10.631
47959W        W 7704  27.092  18.600  12.499
47960W        W 7705   1.959  39.375  10.936
47961W        W 7706   5.732   2.402   3.849
47962W        W 7707  37.522  15.191  13.998
47963W        W 7708  44.777  20.708   1.303
47964W        W 7709  21.099  16.607  11.552
47965W        W 7710  31.504  13.261  10.638
47966W        W 7711  34.084  29.442  10.473
47967W        W 7712  27.022  42.782   5.242
47968W        W 7713  24.483  22.685   4.702
47969W        W 7714  26.199   7.362  11.005
47970W        W 7715   3.840  18.614  13.507
47971W        W 7716   7.400  12.615   4.124
47972W        W 7717  32.980  15.800  10.145
47973W        W 7718   4.270  41.308   4.649
47974W        W 7719  43.922  26.085  12.016
47975W        W 7720   6.916   1.261  12.572
47976W        W 7721  29.107  23.128  11.865
47977W        W 7722   7.792  34.056  11.123
47978W        W 7723  32.597  14.708  14.774
47979W        W 7724  37.399  18.142   0.774
47980W        W 7725  40.926   0.488   3.356
47981W        W 7726  44.424  16.076   2.418
47982W        W 7727  41.446   2.348   4.334
47983W        W 7728   0.893  22.634  11.530
47984W        W 7729   4.823   2.347   1.815
47985W        W 7730  44.337  32.479  13.516
47986W        W 7731  26.575  12.623  11.991
47987W        W 7732  34.865  17.244   4.732
47988W        W 7733  39.343  10.674   4.829
47989W        W 7734   2.892  32.632  13.407
47990W        W 7735  18.589  14.308  10.149
47991W        W 7736  16.177   3.903   4.833
47992W        W 7737  29.565  21.195   2.772
47993W        W 7738  29.430   0.381  12.902
47994W        W 7739  33.544   3.712  12.070
47995W        W 7740  30.580  41.896   1.315
47996W        W 7741  41.911   4.877   1.922
47997W        W 7742  30.042  27.660   2.747
47998W        W 7743   1.268  14.629  11.524
47999W        W 7744  21.537  34.495  14.971
48000W        W 7745  11.192  24.516  10.899
48001W        W 7746  35.097   7.184   3.640
48002W        W 7747  15.104  30.570   1.446
48003W        W 7748  20.035  43.446   0.892
48004W        W 7749  32.097  43.802  14.366
48005W        W 7750   6.329  13.334   2.866
48006W        W 7751  31.512  35.991  12.897
48007W        W 7752  18.166  18.774  11.428
48008W        W 7753   8.885  27.453   1.261
48009W        W 7754  27.020  25.100   3.679
48010W        W 7755   3.917  44.823   4.664
48011W        W 7756  44.798   8.860  14.877
48012W        W 7757  11.752   5.366   1.319
48013W        W 7758   8.659  30.551  11.398
48014W        W 7759   2.324   4.709   0.966
48015W        W 7760  38.980   8.827  12.888
48016W        W 7761  37.966  30.103   0.478
48017W        W 7762  21.713  23.510  13.825
48018W        W 7763  41.393  29.127   3.376
48019W        W 7764  14.212  44.320   1.753
48020W        W 7765  36.558  37.398  13.017
48021W        W 7766  31.110  36.541   2.323
48022W        W 7767  18.717  44.426   3.311
48023W        W 7768  41.945  15.749   1.358
48024W        W 7769  20.675  39.954   2.343
48025W        W 7770  10.740  43.773   0.328
48026W        W 7771   3.286  33.028  11.011
48027W        W 7772  23.661  29.632   2.731
48028W        W 7773  32.560  17.088  13.393
48029W        W 7774  10.726   3.816   2.272
48030W        W 7775  11.136  15.600  10.156
48031W        W 7776   6.821  36.865  14.995
48032W        W 7777  17.598  35.431  11.481
48033W        W 7778  23.220  20.544   1.775
48034W        W 7779   1.333  24.543  10.554
48035W        W 7780   7.346   9.307  11.110
48036W        W 7781  29.980   9.739  11.471
48037W        W 7782  30.973  43.816  14.892
48038W        W 7783  37.956  15.800  14.821
48039W        W 7784  43.894   2.927   4.670
48040W        W 7785  20.029  19.696   5.081
48041W        W 7786  19.177  25.511   2.892
48042W        W 7787  30.583  41.024   4.835
48043W        W 7788   2.288   4.833   4.666
48044W        W 7789  20.640  19.552  14.312
48045W        W 7790  34.972  37.488  12.931
48046W        W 7791  12.140  28.936   1.723
48047W        W 7792  42.935  36.969  10.531
48048W        W 7793  25.075  21.162  10.927
48049W        W 7794  13.227  27.512   2.207
48050W        W 7795  33.943  39.353  10.906
48051W        W 7796  13.215  18.641   2.839
48052W        W 7797   7.371   5.281   1.348
48053W        W 7798  34.113  30.566   1.270
48054W        W 7799  34.374   1.261  10.620
48055W        W 7800   5.201   3.317   5.098
48056W        W 7801  14.622  22.732   0.322
48057W        W 7802   8.676  34.076  14.491
48058W        W 7803  12.228  12.758   4.260
48059W        W 7804  17.758  44.795   3.231
48060W        W 7805  21.162  18.561  11.488
48061W        W 7806   8.701  12.279   3.827
48062W        W 7807  13.329   8.896  10.123
48063W        W 7808  34.120  37.355  10.976
48064W        W 7809  16.647  30.583  14.962
48065W        W 7810  23.619  37.844  10.489
48066W        W 7811  19.629  12.132  13.869
48067W        W 7812  27.461  19.140   4.818
48068W        W 7813  13.741  21.118  14.426
48069W        W 7814  16.571  33.422  11.030
48070W        W 7815   6.341  37.496  10.436
48071W        W 7816  34.939   2.814  13.047
48072W        W 7817  26.516  38.531  13.466
48073W        W 7818  29.166   5.714  10.072
48074W        W 7819  41.796  17.639  10.536
48075W        W 7820  18.195  43.473   5.124
48076W        W 7821  12.252  10.153  14.817
48077W        W 7822   4.777   4.805  14.939
48078W        W 7823  40.976  15.290   3.808
48079W        W 7824  23.112  19.609  14.882
48080W        W 7825  12.693  15.239   4.682
48081W        W 7826  11.800  10.279  11.004
48082W        W 7827   3.759   7.191  12.025
48083W        W 7828  27.988   0.943   4.639
48084W        W 7829  26.508  23.186  14.494
48085W        W 7830  27.573   4.810  12.373
48086W        W 7831  28.607  43.371  12.400
48087W        W 7832  22.667  20.531  12.906
48088W        W 7833  35.896  37.419   3.704
48089W        W 7834   1.309  17.717  14.340
48090W        W 7835  22.195  33.499   1.776
48091W        W 7836  26.682   7.214  10.931
48092W        W 7837  14.813   6.863   0.321
48093W        W 7838  42.300  13.197   3.651
48094W        W 7839   2.231  19.539   1.398
48095W        W 7840  17.598  18.724  12.353
48096W        W 7841  21.262  19.541   0.922
48097W        W 7842  40.504   6.808  12.903
48098W        W 7843   4.293  13.698   2.278
48099W        W 7844   1.825  19.269   1.797
48100W        W 7845  24.716  34.017  11.476
48101W        W 7846  43.430  44.502  10.405
48102W        W 7847  40.442  18.726   3.165
48103W        W 7848   8.235   8.772   4.649
48104W        W 7849   3.822   4.864   9.929
48105W        W 7850  39.875  20.558   3.337
48106W        W 7851  31.424   3.882   3.173
48107W        W 7852  41.820   9.648   3.283
48108W        W 7853  43.414   8.680  10.971
48109W        W 7854  11.361  33.428   3.708
48110W        W 7855  43.302  30.923  14.932
48111W        W 7856  18.760  22.664  11.903
48112W        W 7857   5.721  16.796   4.787
48113W        W 7858  17.104   0.822   4.327
48114W        W 7859  26.596  18.654  14.345
48115W        W 7860  11.829  12.641   2.396
48116W        W 7861   2.411  25.060   2.280
48117W        W 7862  15.605  26.526  11.123
48118W        W 7863  17.062  41.030   4.614
48119W        W 7864  32.507  43.468   0.328
48120W        W 7865  24.001  40.371   4.757
48121W        W 7866   9.305  30.531  12.922
48122W        W 7867  39.961  42.847  13.429
48123W        W 7868   9.242  29.124   2.345
48124W        W 7869  33.580   2.900   3.154
48125W        W 7870  33.950  24.213   0.761
48126W        W 7871  30.647  14.599   4.637
48127W        W 7872   6.233  38.913   1.748
48128W        W 7873  25.698   6.881   2.372
48129W        W 7874  12.333  35.088  12.052
48130W        W 7875  31.466  44.892   1.247
48131W        W 7876  41.922   8.305  13.790
48132W        W 7877  11.694   8.223  14.300
48133W        W 7878  38.898  20.182  11.954
48134W        W 7879  10.173  16.754   0.769
48135W        W 7880   1.848  21.552  10.965
48136W        W 7881  41.324  17.195  12.369
48137W        W 7882  35.389   8.276   2.393
48138W        W 7883  35.586  23.551   2.863
48139W        W 7884  36.066   7.751  12.537
48140W        W 7885   6.904   6.303  14.027
48141W        W 7886  19.553  30.521  12.360
48142W        W 7887   5.376  11.734  13.027
48143W        W 7888   7.864  10.789  12.017
48144W        W 7889  19.635  32.400  10.448
48145W        W 7890  32.892   7.215  14.486
48146W        W 7891   7.708  18.103  10.160
48147W        W 7892  31.635  34.611  11.090
48148W        W 7893  21.698  37.477   3.774
48149W        W 7894   2.425  21.652  11.440
48150W        W 7895  17.278  34.018  10.639
48151W        W 7896   7.822  15.794   2.815
48152W        W 7897   3.348  31.405  10.898
48153W        W 7898  30.487  27.452   3.782
48154W        W 7899  22.584  33.913  14.373
48155W        W 7900  27.535  40.974   0.272
48156W        W 7901  21.626  21.581  12.450
48157W        W 7902  30.561  31.502   9.972
48158W        W 7903  16.273   2.344  14.843
48159W        W 7904  37.994  33.500  13.390
48160W        W 7905  22.015  32.944  11.006
48161W        W 7906  28.437  35.067  11.396
48162W        W 7907   0.255  28.182   9.943
48163W        W 7908  40.016  20.621  11.961
48164W        W 7909  39.823  29.081   3.792
48165W        W 7910  31.041  16.720  10.908
48166W        W 7911  44.486  41.523  13.457
48167W        W 7912  44.409  37.518   3.711
48168W        W 7913  18.077  25.119  12.496
48169W        W 7914  15.242  19.759  11.930
48170W        W 7915  15.099   1.890  13.366
48171W        W 7916  17.588  30.639  10.513
48172W        W 7917  37.409  35.483   1.794
48173W        W 7918  25.987  31.465   1.391
48174W        W 7919  28.477  20.272  11.990
48175W        W 7920  27.186   2.422  14.928
48176W        W 7921   3.844  11.163  11.920
48177W        W 7922  30.634  12.646  13.009
48178W        W 7923  31.954  10.184   0.388
48179W        W 7924  21.731   6.692   0.950
48180W        W 7925  40.907  19.044   2.219
48181W        W 7926  13.791  37.991  10.952
48182W        W 7927  38.015   3.241   2.339
48183W        W 7928  24.545  12.199  10.897
48184W        W 7929   7.228  39.482   3.288
48185W        W 7930  36.013  15.663  14.837
48186W        W 7931  31.458  33.513   1.281
48187W        W 7932  39.013   7.833   2.271
48188W        W 7933   6.748  43.286   2.282
48189W        W 7934  33.100  17.081   2.768
48190W        W 7935   4.268  21.554  11.504
48191W        W 7936  41.886  28.655   3.745
48192W        W 7937  38.412  17.106  11.954
48193W        W 7938  40.047  22.659   3.387
48194W        W 7939   4.311  40.921   4.784
48195W        W 7940  20.244   5.902  13.054
48196W        W 7941  41.482  43.313  12.830
48197W        W 7942  42.460  33.987   2.271
48198W        W 7943  33.422   2.418   0.479
48199W        W 7944  40.896  20.710  10.507
48200W        W 7945   1.439   1.855  12.951
48201W        W 7946   4.264   8.885   1.750
48202W        W 7947  36.997  44.302  13.308
48203W        W 7948  22.025   0.254  10.933
48204W        W 7949  12.688   0.826  13.418
48205W        W 7950   2.362  38.945  12.057
48206W        W 7951  25.211  36.092   3.192
48207W        W 7952  44.344   1.272  13.845
48208W        W 7953  29.012   5.327  12.039
48209W        W 7954  18.262   7.748  10.988
48210W        W 7955  20.577  18.714   0.884
48211W        W 7956  37.468   3.954  12.052
48212W        W 7957  25.658  28.980  13.866
48213W        W 7958  27.504  36.462  12.546
48214W        W 7959  26.538  22.134   4.761
48215W        W 7960  24.180  13.139   1.374
48216W        W 7961   0.836   7.845  13.945
48217W        W 7962  27.948  37.020  13.463
48218W        W 7963  41.502  19.596   3.741
48219W        W 7964  44.006  37.951   0.349
48220W        W 7965   9.852  21.026   1.212
48221W        W 7966  17.565  18.701   4.114
48222W        W 7967  41.527   3.938  13.059
48223W        W 7968  24.175   2.833   0.450
48224W        W 7969  18.754  18.696  13.467
48225W        W 7970  38.900  29.528   0.395
48226W        W 7971  31.081  30.487   3.226
48227W        W 7972  20.108  15.693  11.604
48228W        W 7973  31.511  33.566  10.499
48229W        W 7974  21.248  39.979  11.399
48230W        W 7975  29.467   6.239  13.873
48231W        W 7976  23.992   5.318   0.855
48232W        W 7977  42.327  12.336  13.803
48233W        W 7978  22.526   0.429  11.527
48234W        W 7979  12.740  13.229   0.272
48235W        W 7980   5.252  19.539   5.679
48236W        W 7981  16.710  20.755  14.982
48237W        W 7982   0.931  10.180   0.440
48238W        W 7983  15.809  15.627  14.284
48239W        W 7984   8.200  44.280   3.736
48240W        W 7985  43.501  17.726  13.334
48241W        W 7986  28.105  29.080   4.720
48242W        W 7987  36.898  16.749   0.431
48243W        W 7988  22.634   5.266  14.405
48244W        W 7989  13.742  20.176  14.341
48245W        W 7990  23.049  43.979  12.052
48246W        W 7991  12.781  29.924   3.173
48247W        W 7992  30.628  27.063  12.046
48248W        W 7993   2.835  35.476   3.234
48249W        W 7994  20.033   2.784  12.553
48250W        W 7995  37.978  24.497   4.770
48251W        W 7996  31.960  16.790  14.278
48252W        W 7997   9.766  35.429   9.675
48253W        W 7998  18.678   4.821   4.833
48254W        W 7999  36.415  44.284   2.879
48255W        W 8000  28.946   6.236   4.693
48256W        W 8001   0.793  15.756  14.860
48257W        W 8002  22.508   7.776   0.927
48258W        W 8003  12.785   0.906  12.001
48259W        W 8004   4.793  41.322   4.210
48260W        W 8005   2.464  12.667   0.316
48261W        W 8006  24.577  44.372   2.765
48262W        W 8007  39.473   5.713   0.884
48263W        W 8008  44.402  21.525   2.414
48264W        W 8009  29.474  30.977  12.431
48265W        W 8010   3.376  36.868   0.428
48266W        W 8011  16.194  36.576   9.960
48267W        W 8012  39.469  18.136  11.881
48268W        W 8013  36.067  35.984  12.078
48269W        W 8014  32.042  28.526   2.823
48270W        W 8015  20.634   8.690  13.962
48271W        W 8016  21.734  30.982  11.372
48272W        W 8017  25.660  38.553  11.861
48273W        W 8018  11.267  41.810  12.095
48274W        W 8019   5.371   7.263  10.614
48275W        W 8020  15.288   9.276  12.361
48276W        W 8021  21.583  34.566  12.432
48277W        W 8022  34.895  44.399   0.446
48278W        W 8023   1.750  19.663   0.476
48279W        W 8024   8.321  19.769   1.897
48280W        W 8025  12.352  37.979  11.588
48281W        W 8026   2.777   5.319   3.821
48282W        W 8027  24.694  13.211   3.694
48283W        W 8028  29.429  39.054  12.453
48284W        W 8029  38.488  32.543   3.704
48285W        W 8030  37.557  12.709   0.809
48286W        W 8031  29.472  24.143   3.321
48287W        W 8032  23.202  12.308   2.846
48288W        W 8033  20.149  42.405   3.825
48289W        W 8034   4.395  28.172  12.428
48290W        W 8035  23.550  14.133   2.256
48291W        W 8036  42.828  22.627   4.266
48292W        W 8037  23.052  13.766   1.280
48293W        W 8038   1.933  17.268   0.349
48294W        W 8039  26.674  11.639  12.065
48295W        W 8040  36.406  29.618  10.902
48296W        W 8041  26.507  40.833   4.261
48297W        W 8042  42.844  19.614  12.510
48298W        W 8043  38.930  21.040  11.423
48299W        W 8044  24.144  24.606   0.331
48300W        W 8045  25.653  29.663  11.936
48301W        W 8046   6.827   8.690   2.886
48302W        W 8047  23.704  27.631   1.805
48303W        W 8048  41.932   3.945   1.404
48304W        W 8049  15.215  10.819   2.199
48305W        W 8050  21.743   3.920   3.364
48306W        W 8051  37.977  22.521  11.983
48307W        W 8052   3.224  28.449  10.924
48308W        W 8053  42.787  39.905   4.631
48309W        W 8054  21.710  12.293   1.829
48310W        W 8055  28.572  36.589   2.204
48311W        W 8056  39.392  41.392  13.380
48312W        W 8057   6.427  36.977  14.001
48313W        W 8058   7.894  16.780   1.447
48314W        W 8059  22.066  38.953  14.338
48315W        W 8060  34.937  38.378   2.404
48316W        W 8061  17.266  19.100   2.889
48317W        W 8062  43.992  12.340  12.830
48318W        W 8063  37.854  25.555  14.863
48319W        W 8064   6.917  21.059  11.453
48320W        W 8065  32.135   9.339  13.002
48321W        W 8066  22.090  32.595   3.154
48322W        W 8067  28.153  29.962  12.014
48323W        W 8068  16.808  11.730   2.810
48324W        W 8069  20.228   3.392   1.226
48325W        W 8070  28.475  13.126  14.514
48326W        W 8071  14.159  35.381  11.587
48327W        W 8072  27.573  20.605  11.578
48328W        W 8073   8.299  33.495   1.335
48329W        W 8074   2.838  44.415   0.772
48330W        W 8075  13.615  24.078  14.812
48331W        W 8076  40.461  18.661  11.098
48332W        W 8077  18.775  10.641   2.363
48333W        W 8078  21.089  41.978   2.722
48334W        W 8079  36.417   9.701  10.924
48335W        W 8080   1.925  37.082  12.936
48336W        W 8081  41.944   6.863   2.325
48337W        W 8082  34.006  28.636   3.828
48338W        W 8083  44.287  27.974   4.185
48339W        W 8084   8.221  44.408   3.207
48340W        W 8085  32.605  13.712  12.552
48341W        W 8086  43.497  25.626  11.122
48342W        W 8087  24.621   0.485   2.287
48343W        W 8088  20.047  22.584  10.922
48344W        W 8089  43.774  38.867  12.385
48345W        W 8090  23.577  26.604   2.242
48346W        W 8091   1.476  36.067  10.454
48347W        W 8092  24.705  17.167   0.870
48348W        W 8093  29.038  25.688  13.018
48349W        W 8094  44.762  17.718  13.359
48350W        W 8095  32.094  31.994   0.368
48351W        W 8096  34.536  27.549   1.794
48352W        W 8097  21.725   5.895  10.984
48353W        W 8098  17.666  28.969   2.846
48354W        W 8099  21.117  27.041  11.514
48355W        W 8100   8.705  36.059   3.331
48356W        W 8101  42.476  21.100  13.531
48357W        W 8102  35.397  28.549   0.780
48358W        W 8103   5.236   2.316   3.156
48359W        W 8104  27.565  38.038   2.893
48360W        W 8105  31.019  25.678   0.802
48361W        W 8106  26.987  41.011  10.441
48362W        W 8107  33.439  10.163   3.262
48363W        W 8108  25.568  44.344   4.301
48364W        W 8109  41.348  16.175   0.315
48365W        W 8110  29.435  11.748   9.981
48366W        W 8111  19.054  17.107   1.762
48367W        W 8112  34.421  11.811   2.864
48368W        W 8113  32.465  14.753  14.320
48369W        W 8114  41.305  37.554  11.102
48370W        W 8115   5.755  27.657  12.561
48371W        W 8116  34.905  44.363  10.455
48372W        W 8117  15.167  20.242   1.427
48373W        W 8118  40.001   2.949   1.446
48374W        W 8119  27.039  23.586   2.378
48375W        W 8120   9.715  28.648   2.807
48376W        W 8121  38.376   6.351   2.771
48377W        W 8122  32.089   7.843   2.879
48378W        W 8123  13.275  41.330  11.900
48379W        W 8124  20.670  26.595   4.185
48380W        W 8125  28.145  42.829   0.435
48381W        W 8126  22.021  30.050   4.172
48382W        W 8127  32.407  12.709   0.310
48383W        W 8128  15.287  31.518   1.898
48384W        W 8129  29.955  13.697   2.897
48385W        W 8130  13.312   5.401   3.279
48386W        W 8131   2.225  38.071  11.458
48387W        W 8132  12.743  24.155   1.210
48388W        W 8133   4.727  34.508  14.480
48389W        W 8134  36.558   0.252   2.368
48390W        W 8135   0.791  14.324   2.739
48391W        W 8136   9.274  27.663   3.716
48392W        W 8137   8.328  38.066  13.003
48393W        W 8138  14.158  31.906  12.923
48394W        W 8139  35.104  20.150  11.395
48395W        W 8140   2.889  36.081   1.874
48396W        W 8141  23.614  18.777   0.949
48397W        W 8142   0.842  40.542   5.191
48398W        W 8143   1.922  28.453   9.531
48399W        W 8144   6.756  17.133   3.759
48400W        W 8145   2.878  32.529  14.855
48401W        W 8146  34.471   4.209  13.473
48402W        W 8147  20.558  41.007  12.905
48403W        W 8148  17.282   0.441  10.441
48404W        W 8149  17.695  18.719   2.851
48405W        W 8150  37.877   8.167   2.719
48406W        W 8151  43.926  10.321  11.079
48407W        W 8152  18.747  44.451  13.328
48408W        W 8153   1.392   1.408   2.391
48409W        W 8154  14.625  32.937  12.953
48410W        W 8155  35.544  27.962  10.450
48411W        W 8156   2.296  33.072  14.446
48412W        W 8157   2.881  16.210  13.873
48413W        W 8158  17.064  35.083  13.456
48414W        W 8159   9.645  21.140   4.753
48415W        W 8160  12.162  23.017  12.056
48416W        W 8161  30.069  36.884  10.901
48417W        W 8162  36.381   6.297  10.936
48418W        W 8163  33.914   2.348  14.284
48419W        W 8164  21.217  34.433   9.987
48420W        W 8165  25.649   7.377  11.050
48421W        W 8166   6.731  19.224   2.898
48422W        W 8167  44.999  33.493   4.621
48423W        W 8168  39.894  42.292   4.163
48424W        W 8169   7.896  11.855   4.739
48425W        W 8170  37.433  44.847  13.978
48426W        W 8171  25.203   0.759   0.915
48427W        W 8172  25.202   3.261   1.430
48428W        W 8173  42.469   0.281  11.454
48429W        W 8174   7.296  12.724   2.362
48430W        W 8175  10.837  13.728  13.414
48431W        W 8176  41.031  10.197   4.826
48432W        W 8177  32.436  27.528  12.414
48433W        W 8178  13.692  27.481  12.509
48434W        W 8179  38.864  14.833  14.370
48435W        W 8180  36.402  38.430   1.375
48436W        W 8181  35.072   1.394  11.396
48437W        W 8182  43.325   0.855  10.508
48438W        W 8183  11.731   8.656  14.404
48439W        W 8184  10.667  31.015   2.182
48440W        W 8185   9.156  28.582   0.804
48441W        W 8186  24.542  19.642   0.802
48442W        W 8187  38.396  37.442   3.699
48443W        W 8188  37.907   9.186  13.441
48444W        W 8189  23.534  22.127  13.044
48445W        W 8190  13.143  22.062  13.007
48446W        W 8191  16.757  16.582  12.390
48447W        W 8192  40.529  27.085   3.663
48448W        W 8193  20.156  32.050  14.877
48449W        W 8194  33.457   4.272  10.894
48450W        W 8195  16.597  27.194  11.032
48451W        W 8196  23.675  14.119   1.712
48452W        W 8197  36.516   4.254  10.558
48453W        W 8198   8.811  20.764  10.571
48454W        W 8199  44.265  39.405   1.833
48455W        W 8200  22.013  44.854   3.860
48456W        W 8201  18.282  29.171   0.379
48457W        W 8202  38.431  25.557  10.900
48458W        W 8203  14.325  13.280   3.734
48459W        W 8204   8.753  34.401  14.484
48460W        W 8205  37.434  15.669  14.845
48461W        W 8206  14.711  11.833   1.284
48462W        W 8207  28.037  29.987   3.839
48463W        W 8208   1.750  29.558  14.363
48464W        W 8209  20.181   9.285  11.572
48465W        W 8210  20.661  18.617   4.271
48466W        W 8211  33.130  11.832   2.889
48467W        W 8212  38.874   5.848  12.380
48468W        W 8213  24.089  25.089  13.945
48469W        W 8214  15.637  39.834   0.244
48470W        W 8215  15.094  40.004   1.316
48471W        W 8216  31.565  37.044  11.084
48472W        W 8217  10.797   8.401   4.348
48473W        W 8218  28.942   0.364   0.312
48474W        W 8219  43.958   3.944   4.262
48475W        W 8220  20.692  16.684   0.882
48476W        W 8221  43.416  11.305  11.893
48477W        W 8222  28.487   5.304  14.877
48478W        W 8223   2.737  14.706   0.265
48479W        W 8224  37.047   9.366  11.029
48480W        W 8225  13.206  30.628  10.407
48481W        W 8226  30.958  21.107  12.992
48482W        W 8227  14.669  31.431  12.088
48483W        W 8228  36.899   2.461  14.760
48484W        W 8229  27.545   1.962   0.798
48485W        W 8230  30.571  30.594   0.926
48486W        W 8231  14.771   0.251  11.427
48487W        W 8232  39.510  30.910   1.721
48488W        W 8233  33.602  36.019  14.422
48489W        W 8234  43.399  11.348  13.035
48490W        W 8235  37.447  26.632  11.588
48491W        W 8236   3.455  23.100   2.826
48492W        W 8237   0.896  13.665   1.753
48493W        W 8238   0.865   2.468  13.402
48494W        W 8239   8.801   1.248  14.422
48495W        W 8240  32.625  20.737   4.665
48496W        W 8241  26.681  26.683  13.959
48497W        W 8242  41.470  14.767  11.067
48498W        W 8243  20.266   8.714   4.706
48499W        W 8244  18.181  41.965   0.904
48500W        W 8245  26.192   4.936   4.246
48501W        W 8246   8.851  27.113  12.827
48502W        W 8247   5.754  23.640  11.873
48503W        W 8248  10.784  12.821  12.545
48504W        W 8249  27.509  17.666  13.041
48505W        W 8250  32.073  39.029  12.037
48506W        W 8251  37.938  39.351   4.280
48507W        W 8252  34.397   0.433  11.547
48508W        W 8253  41.010  43.785   4.354
48509W        W 8254  13.663  44.469   2.859
48510W        W 8255  23.564   9.303  12.360
48511W        W 8256  34.943  38.883  12.548
48512W        W 8257  28.522  40.412   3.151
48513W        W 8258  22.511  39.064  12.954
48514W        W 8259  34.507  15.227   3.245
48515W        W 8260  14.116  15.744   0.442
48516W        W 8261  19.709  22.647  10.635
48517W        W 8262  38.859  11.368   3.177
48518W        W 8263  26.556  20.182  10.471
48519W        W 8264  43.365  24.563  13.938
48520W        W 8265  13.736  11.222   4.290
48521W        W 8266  35.549  41.420  11.459
48522W        W 8267   5.325  38.500  14.758
48523W        W 8268   3.935   8.824   1.419
48524W        W 8269  41.322  16.288  13.537
48525W        W 8270  14.739  14.795  10.569
48526W        W 8271  30.501   2.765  11.012
48527W        W 8272  44.455  28.083   4.745
48528W        W 8273  28.606  12.812   3.649
48529W        W 8274  11.311  19.131   4.670
48530W        W 8275  21.122  33.991   0.257
48531W        W 8276  33.606  23.072  12.067
48532W        W 8277  23.999  33.608   1.790
48533W        W 8278  44.456  10.167  13.859
48534W        W 8279  16.785  31.023  11.456
48535W        W 8280  36.569   2.837  11.562
48536W        W 8281   4.853  18.702   0.423
48537W        W 8282  19.677   8.798  14.821
48538W        W 8283  15.644  32.461   2.320
48539W        W 8284  19.686  25.002   9.922
48540W        W 8285  39.504  27.165   4.788
48541W        W 8286  43.271  29.138   2.724
48542W        W 8287  21.713  10.283   4.747
48543W        W 8288  42.974  33.521   0.832
48544W        W 8289  13.228  42.507   0.449
48545W        W 8290  20.193  23.196   0.468
48546W        W 8291  10.284  14.195   1.818
48547W        W 8292  40.014   5.216  13.507
48548W        W 8293   6.906  40.416  14.498
48549W        W 8294  33.110  41.338  11.492
48550W        W 8295  29.160  16.080  13.508
48551W        W 8296  42.828  26.203  11.035
48552W        W 8297   1.845  10.855  10.585
48553W        W 8298  22.191  37.353   3.655
48554W        W 8299  21.697  31.150   4.199
48555W        W 8300  41.488  26.506  11.941
48556W        W 8301   9.816  40.833   2.319
48557W        W 8302  30.026  29.635   2.343
48558W        W 8303  22.020  10.258   2.322
48559W        W 8304  32.587   6.703   2.896
48560W        W 8305  43.462   1.770  14.319
48561W        W 8306   1.289  41.874   4.738
48562W        W 8307  13.696   5.819  14.767
48563W        W 8308   1.367  37.510  12.078
48564W        W 8309  35.103   0.477  13.318
48565W        W 8310  12.737   6.889  12.836
48566W        W 8311  19.188  34.495   1.245
48567W        W 8312  32.136  44.309   3.352
48568W        W 8313  42.844  25.122   4.153
48569W        W 8314   2.881   4.720   1.855
48570W        W 8315  37.517  22.588   1.386
48571W        W 8316  40.799  12.758  11.055
48572W        W 8317  22.203  25.521   0.919
48573W        W 8318  13.127  15.618   2.218
48574W        W 8319  30.081  20.211   0.446
48575W        W 8320   9.331  41.928   4.717
48576W        W 8321   3.350  29.431  13.798
48577W        W 8322  19.109   2.324  12.960
48578W        W 8323  29.623  26.995  12.447
48579W        W 8324  36.955  44.307  10.952
48580W        W 8325  29.115   4.722   5.173
48581W        W 8326  42.322  22.537   4.132
48582W        W 8327  10.769  34.483   0.859
48583W        W 8328  18.118  37.990   0.790
48584W        W 8329  17.292  41.823   1.247
48585W        W 8330  16.118   7.311   2.364
48586W        W 8331   2.924  29.149  10.588
48587W        W 8332  22.653  40.979   3.652
48588W        W 8333  35.426  34.396  12.992
48589W        W 8334  30.473  18.127   4.808
48590W        W 8335   1.427  16.661  11.474
48591W        W 8336  30.108  39.425  13.401
48592W        W 8337  24.035  23.215  14.408
48593W        W 8338  34.081  37.536  11.943
48594W        W 8339  36.504  33.537  11.440
48595W        W 8340  14.713  37.943   3.345
48596W        W 8341  19.185   0.474   1.785
48597W        W 8342  18.225  30.436   2.366
48598W        W 8343  21.640  26.556  13.831
48599W        W 8344  20.206  30.619  12.979
48600W        W 8345  11.704   4.903  14.819
48601W        W 8346  35.010  19.700  14.949
48602W        W 8347  25.675  16.632   2.890
48603W        W 8348  39.431  37.961   1.784
48604W        W 8349   3.354  23.024   1.775
48605W        W 8350  32.034  30.559   3.244
48606W        W 8351  44.755  22.210   2.323
48607W        W 8352  10.241  28.610  12.366
48608W        W 8353   1.937  25.029  13.469
48609W        W 8354  42.867  10.345  14.946
48610W        W 8355  36.417  22.063  13.385
48611W        W 8356  37.339  11.722  10.555
48612W        W 8357  13.728  35.871  10.463
48613W        W 8358  11.719  13.682   1.772
48614W        W 8359   5.744  13.749   1.402
48615W        W 8360  23.660  37.025   4.141
48616W        W 8361  23.133  30.634  11.564
48617W        W 8362  22.095  11.145   2.207
48618W        W 8363  26.541  15.759   3.722
48619W        W 8364  32.533  11.716   2.881
48620W        W 8365  30.934  22.587   3.362
48621W        W 8366  22.569  35.088  13.500
48622W        W 8367  16.287  11.325  10.583
48623W        W 8368   5.302  24.587   2.367
48624W        W 8369  26.696   0.810   4.646
48625W        W 8370  14.231  28.134   2.739
48626W        W 8371  21.540  13.599   1.250
48627W        W 8372  10.657  15.725  13.873
48628W        W 8373   6.187  36.988  10.941
48629W        W 8374  18.272  27.509  12.095
48630W        W 8375  40.938  35.550   0.954
48631W        W 8376  28.643  34.090  12.026
48632W        W 8377  40.856  21.165   0.301
48633W        W 8378  31.117   5.803  14.031
48634W        W 8379  37.943  44.840   2.866
48635W        W 8380   7.906  14.655  12.944
48636W        W 8381   8.333  35.925  12.080
48637W        W 8382  22.147   6.841   3.758
48638W        W 8383  18.748   7.351   1.392
48639W        W 8384   0.976   5.778   1.437
48640W        W 8385  27.448  14.676  12.423
48641W        W 8386  20.220  38.455   2.698
48642W        W 8387  27.976   1.860  10.008
48643W        W 8388  16.195   6.324  13.895
48644W        W 8389  20.166  17.296   4.801
48645W        W 8390  35.885   9.875   2.776
48646W        W 8391  37.021  31.558   0.456
48647W        W 8392   1.915  16.737  10.498
48648W        W 8393  17.571  27.449   1.797
48649W        W 8394  31.481   6.339   4.658
48650W        W 8395  15.251  31.454   3.729
48651W        W 8396  20.700  16.153  11.984
48652W        W 8397  22.547  10.710   0.958
48653W        W 8398   9.384  17.246  13.318
48654W        W 8399   7.770  36.844  13.493
48655W        W 8400  19.221  36.088   1.908
48656W        W 8401  18.283   5.735  11.539
48657W        W 8402   0.290  23.112  13.020
48658W        W 8403  23.001  39.535   2.211
48659W        W 8404  41.942  42.998   5.219
48660W        W 8405   7.185  42.365   2.201
48661W        W 8406  27.516  21.156  12.012
48662W        W 8407  42.291   1.885   4.712
48663W        W 8408   9.375   0.828   3.262
48664W        W 8409  21.148  29.019  11.907
48665W        W 8410   0.782  31.602   0.922
48666W        W 8411  10.373  39.951  10.890
48667W        W 8412  24.682  41.992   4.649
48668W        W 8413   1.455  30.608  12.427
48669W        W 8414  29.428   0.279  14.861
48670W        W 8415   5.346   7.313  10.916
48671W        W 8416  38.324  24.587  11.534
48672W        W 8417   6.832   5.754   0.915
48673W        W 8418  24.096  19.596  14.434
48674W        W 8419  28.462   3.350  10.549
48675W        W 8420  36.469  10.766  13.383
48676W        W 8421  38.050  15.804   2.411
48677W        W 8422  33.592  18.559   1.337
48678W        W 8423  29.579  38.848   4.302
48679W        W 8424  33.528  23.495   2.801
48680W        W 8425  43.807  41.470  10.469
48681W        W 8426  22.504  34.071  12.395
48682W        W 8427  24.073  29.574  14.512
48683W        W 8428  31.108  38.041  12.853
48684W        W 8429  43.468  11.177   3.688
48685W        W 8430   6.420  11.151  13.923
48686W        W 8431  11.693  12.218   2.787
48687W        W 8432   8.695   2.741   2.285
48688W        W 8433  32.014  42.942  12.566
48689W        W 8434  10.181  31.489   4.137
48690W        W 8435  28.027  22.669   0.263
48691W        W 8436  30.153  10.364  13.396
48692W        W 8437   4.706  18.126   3.206
48693W        W 8438   5.347  18.602   4.679
48694W        W 8439  28.939  37.570  11.123
48695W        W 8440  29.539   1.402  13.515
48696W        W 8441  25.584  38.870   0.291
48697W        W 8442  38.428  16.619  14.373
48698W        W 8443  25.088  37.374  13.908
48699W        W 8444   3.289  28.479   0.253
48700W        W 8445  16.733  18.052   4.321
48701W        W 8446  14.786  32.449  10.609
48702W        W 8447   2.859  20.530   5.692
48703W        W 8448  40.329  14.217   2.242
48704W        W 8449  43.484   5.331   2.704
48705W        W 8450  35.874   2.726   1.725
48706W        W 8451  15.708  24.082  13.497
48707W        W 8452  25.972   5.324   2.707
48708W        W 8453  30.542  17.562   2.248
48709W        W 8454  39.547  19.284   2.362
48710W        W 8455   7.174  34.055   2.835
48711W        W 8456  34.942  33.899   4.221
48712W        W 8457  10.379  44.460  13.526
48713W        W 8458   3.741   2.899  11.044
48714W        W 8459   3.311  20.147   3.311
48715W        W 8460  12.335  22.242  12.960
48716W        W 8461  26.023  22.170   4.285
48717W        W 8462  27.083  11.139  13.949
48718W        W 8463  33.033  39.901  11.864
48719W        W 8464  31.553  37.397   2.224
48720W        W 8465  13.806  23.151   3.751
48721W        W 8466   7.772  15.735  11.463
48722W        W 8467   7.877  10.239   0.794
48723W        W 8468  34.958   5.239  11.497
48724W        W 8469  13.615  20.736   0.828
48725W        W 8470  20.236  39.336   4.641
48726W        W 8471   6.257  32.518  12.855
48727W        W 8472  37.086  42.336   0.415
48728W        W 8473   4.700  37.346   5.278
48729W        W 8474  14.099  18.697   3.762
48730W        W 8475  38.064  19.184   3.834
48731W        W 8476   7.736  27.572   1.776
48732W        W 8477  21.074  22.022  13.939
48733W        W 8478  28.980  44.760  11.121
48734W        W 8479   8.659  13.778   4.115
48735W        W 8480  30.103   6.264   0.288
48736W        W 8481  28.094  33.600  11.575
48737W        W 8482  29.093  40.808   3.803
48738W        W 8483  10.729  25.520   3.353
48739W        W 8484  27.450  19.546   2.322
48740W        W 8485  42.407  19.267   1.905
48741W        W 8486  35.913  30.594   2.269
48742W        W 8487   2.845   3.304   2.862
48743W        W 8488  40.974  16.163   3.296
48744W        W 8489  13.657  11.769  14.032
48745W        W 8490  10.663  33.439   4.205
48746W        W 8491  12.174  37.377  13.978
48747W        W 8492   3.947  40.963  14.873
48748W        W 8493  17.657  29.133  10.493
48749W        W 8494  40.872  23.586  11.925
48750W        W 8495  14.684  41.464  11.987
48751W        W 8496  11.815   2.782  14.443
48752W        W 8497  35.878  44.004   0.473
48753W        W 8498  37.505  43.486  12.572
48754W        W 8499  18.624  28.537   1.339
48755W        W 8500  42.478  19.200   0.424
48756W        W 8501  37.434  36.409   5.186
48757W        W 8502  32.933  32.560   1.299
48758W        W 8503  41.864  30.918   4.267
48759W        W 8504  19.043   7.362   1.908
48760W        W 8505  34.063  23.725   1.346
48761W        W 8506   8.287  34.889   2.662
48762W        W 8507  26.039  13.765   3.870
48763W        W 8508  20.727   0.786  11.610
48764W        W 8509  21.642  40.311  14.004
48765W        W 8510  39.391   3.354   2.767
48766W        W 8511  16.639  42.844   4.600
48767W        W 8512   4.341  32.940   2.219
48768W        W 8513  43.909  29.520   2.323
48769W        W 8514   9.257  22.742   0.431
48770W        W 8515   3.260  36.532   4.264
48771W        W 8516   9.274  43.486  14.457
48772W        W 8517  36.936  34.114   3.305
48773W        W 8518  17.727  20.734  11.891
48774W        W 8519  13.701  17.571   2.298
48775W        W 8520  39.891  15.319  10.427
48776W        W 8521  24.158   3.816   4.178
48777W        W 8522  10.826  14.720  10.477
48778W        W 8523   6.808  12.823  10.410
48779W        W 8524  43.879   8.788  11.994
48780W        W 8525  36.038  22.527  11.397
48781W        W 8526  43.877   6.725  13.001
48782W        W 8527  19.272  42.986   3.788
48783W        W 8528   8.736   8.895  12.011
48784W        W 8529  10.709  13.318   3.311
48785W        W 8530  29.125   3.920   1.837
48786W        W 8531  35.032  26.680  11.488
48787W        W 8532  36.968  11.372   1.748
48788W        W 8533  35.370  39.977  12.071
48789W        W 8534   0.764  17.133  13.493
48790W        W 8535   4.816  36.424   4.353
48791W        W 8536   1.283   3.319  12.043
48792W        W 8537  17.203  17.625   4.191
48793W        W 8538  20.247   1.794   0.478
48794W        W 8539   7.694  17.714  12.475
48795W        W 8540   2.927  32.097  14.001
48796W        W 8541   4.445  31.436  11.856
48797W        W 8542   0.814  18.718  14.472
48798W        W 8543  23.556  11.714  14.875
48799W        W 8544  37.517  10.285   2.768
48800W        W 8545   6.396  44.281  13.825
48801W        W 8546  40.445  33.407  11.409
48802W        W 8547   0.371  12.667   1.893
48803W        W 8548  31.640  29.020   1.344
48804W        W 8549  23.582  44.997  14.395
48805W        W 8550  14.668  33.443  12.005
48806W        W 8551  37.561  33.595  13.490
48807W        W 8552  29.042  22.661  11.984
48808W        W 8553  30.632  41.480   2.670
48809W        W 8554   6.218  31.134  14.950
48810W        W 8555  37.074  41.489   4.706
48811W        W 8556  42.829  37.343  10.485
48812W        W 8557   8.707   2.844  12.088
48813W        W 8558  29.089  42.525   2.689
48814W        W 8559  24.606  36.532   1.885
48815W        W 8560  28.449  13.639   3.358
48816W        W 8561   9.277  20.101   3.154
48817W        W 8562  43.000   7.905   4.350
48818W        W 8563  37.902  23.120  12.455
48819W        W 8564  27.596   6.288  10.417
48820W        W 8565  35.935   7.688   3.330
48821W        W 8566  39.541  44.892  11.931
48822W        W 8567   3.308   5.402   3.840
48823W        W 8568  21.534  27.050  13.499
48824W        W 8569  40.477   0.809  14.494
48825W        W 8570  28.583  12.185   1.365
48826W        W 8571   9.804  12.851  10.961
48827W        W 8572   0.457   6.719  10.989
48828W        W 8573  31.900  29.454  12.403
48829W        W 8574  26.594  21.694   0.254
48830W        W 8575   9.362   9.281  10.478
48831W        W 8576  19.131  18.230  13.855
48832W        W 8577  41.532  33.063  12.986
48833W        W 8578  20.269  36.436  12.489
48834W        W 8579  22.170  43.340   3.662
48835W        W 8580  36.048  17.135   4.697
48836W        W 8581  30.005   9.261  11.100
48837W        W 8582  22.064  40.411   4.792
48838W        W 8583   0.282  28.068   1.875
48839W        W 8584   5.757  11.175   2.270
48840W        W 8585  22.632  18.189  11.038
48841W        W 8586  14.292   7.761   3.844
48842W        W 8587   6.897  40.892  12.529
48843W        W 8588  37.425  27.982   1.296
48844W        W 8589  34.433   7.673  11.606
48845W        W 8590  35.486   6.404  14.919
48846W        W 8591  39.406  38.381   4.640
48847W        W 8592  30.142   4.815  12.942
48848W        W 8593   0.306  44.335   3.718
48849W        W 8594  43.305  11.183   1.350
48850W        W 8595   0.813  30.618   4.162
48851W        W 8596   9.168  16.663  10.894
48852W        W 8597  38.511   3.819   4.629
48853W        W 8598  23.505  34.099   5.236
48854W        W 8599  13.614   6.324   0.747
48855W        W 8600  33.981  36.942  11.400
48856W        W 8601  41.026  37.978  12.849
48857W        W 8602  25.061  26.034   1.739
48858W        W 8603  13.617  42.392  13.807
48859W        W 8604  24.711  19.184   3.177
48860W        W 8605  43.487  40.467   0.470
48861W        W 8606  18.546  40.944  14.385
48862W        W 8607   2.362  41.936  12.010
48863W        W 8608   7.754  24.146   0.939
48864W        W 8609  11.198  36.025   3.672
48865W        W 8610  33.927  19.557   0.293
48866W        W 8611   9.305  22.047   3.352
48867W        W 8612   0.352  11.340   1.339
48868W        W 8613  24.139  30.088  14.322
48869W        W 8614   9.311  39.442   1.877
48870W        W 8615  28.097   2.856  14.001
48871W        W 8616  42.852  36.952   3.299
48872W        W 8617  13.777  34.916  13.522
48873W        W 8618  38.466  10.711   1.923
48874W        W 8619  30.956   0.877   2.688
48875W        W 8620  25.655  11.279  12.961
48876W        W 8621   0.278  35.958   2.411
48877W        W 8622  19.260  26.033  11.905
48878W        W 8623  43.456  16.112  11.371
48879W        W 8624   8.724  39.439   4.190
48880W        W 8625   1.975   4.329   3.261
48881W        W 8626  11.327  30.572  14.484
48882W        W 8627  17.656  13.342   0.245
48883W        W 8628  20.558  17.699  14.381
48884W        W 8629   2.919   0.341  11.561
48885W        W 8630  37.862  44.311  11.030
48886W        W 8631  18.053  41.867   1.443
48887W        W 8632  38.039  42.905  10.895
48888W        W 8633  44.765  27.001   3.263
48889W        W 8634  42.033  23.722  10.973
48890W        W 8635  36.501  36.878  13.529
48891W        W 8636  20.529   8.887   4.289
48892W        W 8637  22.614   9.800  12.563
48893W        W 8638  33.480   9.189  11.409
48894W        W 8639   8.745  36.536  14.851
48895W        W 8640   8.680   6.380   3.327
48896W        W 8641  41.906  35.856   2.813
48897W        W 8642  12.357  28.150  14.031
48898W        W 8643  34.598  17.762   4.188
48899W        W 8644   5.717  21.690   4.149
48900W        W 8645   9.789  23.154  12.958
48901W        W 8646  29.090  34.394   1.807
48902W        W 8647  29.555   8.890  10.553
48903W        W 8648  25.030  39.027  10.619
48904W        W 8649  27.112  18.177  11.468
48905W        W 8650  40.893  38.496   0.752
48906W        W 8651  35.049  12.662  14.877
48907W        W 8652   3.406  13.138  13.363
48908W        W 8653  23.526  36.531  14.794
48909W        W 8654  35.943  17.589  12.365
48910W        W 8655  38.978  37.457  14.419
48911W        W 8656  29.957  11.185  10.956
48912W        W 8657  38.033  31.113   0.952
48913W        W 8658   4.934  35.430  10.484
48914W        W 8659  41.325  34.903   2.277
48915W        W 8660  34.056  42.016  10.907
48916W        W 8661   7.207  41.795  12.917
48917W        W 8662  43.453   0.980   3.841
48918W        W 8663   2.902  13.148  12.001
48919W        W 8664  12.638  44.968  10.406
48920W        W 8665  20.669  33.418   3.794
48921W        W 8666  13.802  26.099  10.501
48922W        W 8667  12.684  43.822  13.314
48923W        W 8668  19.224  27.628  12.017
48924W        W 8669  24.985  18.678  14.400
48925W        W 8670  33.006  11.364   4.664
48926W        W 8671  13.269   5.853  11.542
48927W        W 8672  32.476  23.549   5.649
48928W        W 8673  20.689  35.512  11.415
48929W        W 8674  23.088  28.497   1.808
48930W        W 8675   8.689  30.134  13.406
48931W        W 8676  18.742   4.347  11.442
48932W        W 8677  32.134  41.460  13.369
48933W        W 8678  13.182  20.162  10.494
48934W        W 8679  21.180  40.820  14.990
48935W        W 8680  37.838  26.567  11.484
48936W        W 8681  33.028  17.128  14.006
48937W        W 8682  31.136  43.384   4.350
48938W        W 8683  32.039  10.747  12.880
48939W        W 8684  13.634   8.880  12.875
48940W        W 8685  12.119   6.857   3.179
48941W        W 8686  30.986  38.344   0.965
48942W        W 8687   8.228  14.215   1.694
48943W        W 8688  38.932  35.392  11.401
48944W        W 8689  14.176  34.889  11.549
48945W        W 8690   0.963  32.424  11.487
48946W        W 8691  35.573  20.183  13.923
48947W        W 8692  18.288  43.442   3.666
48948W        W 8693  16.747  35.376  14.780
48949W        W 8694   7.345  19.108   4.328
48950W        W 8695   2.772  16.752   0.864
48951W        W 8696  20.147  14.811   5.236
48952W        W 8697   5.696  17.219   2.290
48953W        W 8698  22.064  34.550  11.989
48954W        W 8699  35.405  30.538  14.900
48955W        W 8700   4.802  38.530  10.953
48956W        W 8701  12.832  30.415  13.954
48957W        W 8702  14.113  25.048   3.170
48958W        W 8703  18.280  15.264  11.476
48959W        W 8704  13.678  34.555  10.622
48960W        W 8705  16.181  40.887  12.415
48961W        W 8706  33.979  15.812   9.968
48962W        W 8707   1.823  17.165   1.766
48963W        W 8708  39.868  10.828   0.389
48964W        W 8709  38.475   8.178   2.273
48965W        W 8710  22.092  21.686   4.206
48966W        W 8711  23.229  10.207   3.282
48967W        W 8712   3.853  13.198  13.005
48968W        W 8713  13.670  37.955  10.563
48969W        W 8714   1.415   7.272  14.367
48970W        W 8715  23.059  29.456   5.168
48971W        W 8716  20.737  23.568   3.250
48972W        W 8717  16.157  31.017  10.529
48973W        W 8718  20.148  28.032  10.484
48974W        W 8719   2.819   9.277  12.075
48975W        W 8720  11.131  24.506   3.845
48976W        W 8721  27.071   4.888   4.347
48977W        W 8722   1.471  22.159  11.040
48978W        W 8723   5.765  33.033   3.699
48979W        W 8724  33.420  20.534   4.182
48980W        W 8725   6.708  39.526   4.694
48981W        W 8726  20.723  31.567  13.043
48982W        W 8727   2.891  35.409   1.701
48983W        W 8728  19.107   8.317   4.131
48984W        W 8729   4.830  29.030   2.180
48985W        W 8730   9.697   1.954  10.425
48986W        W 8731  39.015  33.545  10.460
48987W        W 8732  34.517   1.735  10.927
48988W        W 8733  25.212   2.466   5.173
48989W        W 8734  21.653  38.543   0.821
48990W        W 8735   2.776  32.104   2.376
48991W        W 8736  40.876  14.674  14.465
48992W        W 8737  39.374  23.081  14.394
48993W        W 8738  29.645  10.385   3.830
48994W        W 8739  11.371   9.353   3.785
48995W        W 8740  23.491   1.332   9.570
48996W        W 8741  39.860   2.920  12.853
48997W        W 8742  36.987  37.007  10.625
48998W        W 8743  44.981  34.071  13.381
48999W        W 8744  39.444  42.983   4.729
49000W        W 8745  31.046  30.962  11.126
49001W        W 8746  36.897  38.910   2.309
49002W        W 8747  17.671  43.803  13.535
49003W        W 8748  14.724  25.582  10.490
49004W        W 8749  39.395  23.728   5.087
49005W        W 8750  18.564  35.594  11.601
49006W        W 8751  20.762   2.848   9.486
49007W        W 8752  12.834  10.223   3.651
49008W        W 8753  33.607  25.213  12.513
49009W        W 8754   8.782  16.179  11.504
49010W        W 8755  32.052  30.423  12.047
49011W        W 8756  33.401  39.003  14.023
49012W        W 8757  43.279  36.950   0.841
49013W        W 8758  44.006  17.082  13.431
49014W        W 8759  40.483  31.603  14.001
49015W        W 8760  26.988  14.693   1.271
49016W        W 8761  22.639  44.928   1.295
49017W        W 8762  35.961  44.952  10.567
49018W        W 8763  16.634  33.464   3.775
49019W        W 8764  18.776   5.417   0.272
49020W        W 8765  28.028   8.324   3.647
49021W        W 8766  34.052  25.621   0.379
49022W        W 8767  10.215  13.290  10.016
49023W        W 8768  18.065  42.926   2.328
49024W        W 8769  20.144  14.168  13.358
49025W        W 8770   7.281  18.671   3.243
49026W        W 8771  27.159  43.347   0.838
49027W        W 8772   4.829  36.963   1.429
49028W        W 8773   7.897  26.590  11.000
49029W        W 8774  29.508  17.148   0.952
49030W        W 8775  11.327  10.276   3.186
49031W        W 8776  14.707  28.017  13.318
49032W        W 8777  42.357  11.858  11.110
49033W        W 8778   9.889  26.144  13.920
49034W        W 8779  25.495  29.115   1.736
49035W        W 8780   4.373   5.355  12.913
49036W        W 8781  22.069  29.565  14.301
49037W        W 8782  32.911  11.838   1.382
49038W        W 8783  23.592   3.233  12.826
49039W        W 8784   0.432   2.782  13.920
49040W        W 8785  42.969  30.949  13.398
49041W        W 8786  10.355   3.900  13.941
49042W        W 8787  27.137   7.719   2.284
49043W        W 8788  34.046  10.838  13.425
49044W        W 8789  20.227  22.569   4.242
49045W        W 8790   2.930  33.955   4.692
49046W        W 8791  11.162  26.976  13.898
49047W        W 8792  13.294  13.843  11.486
49048W        W 8793   7.248  40.478   0.395
49049W        W 8794  13.745  23.614  12.504
49050W        W 8795  32.626  31.631  14.391
49051W        W 8796  13.665  13.287  11.379
49052W        W 8797  12.199  34.920   9.481
49053W        W 8798  41.892   8.838   1.844
49054W        W 8799  24.995  32.413   0.848
49055W        W 8800  40.372  41.952   3.201
49056W        W 8801  40.385  15.135  12.017
49057W        W 8802  18.217  13.756  14.404
49058W        W 8803   5.687  29.596   4.150
49059W        W 8804   0.780   3.849  12.949
49060W        W 8805   3.244  12.707   2.670
49061W        W 8806  27.985  23.236  12.435
49062W        W 8807  16.652   5.718   4.281
49063W        W 8808   4.430   0.865   0.847
49064W        W 8809  22.563   7.217  11.023
49065W        W 8810  10.217  41.864  14.357
49066W        W 8811   3.318  20.143   1.750
49067W        W 8812   7.827  27.564   2.184
49068W        W 8813  31.616  19.119   1.367
49069W        W 8814  16.305   1.864  14.463
49070W        W 8815   9.725  14.662  11.855
49071W        W 8816  34.971  18.701   3.648
49072W        W 8817   6.219  25.694   0.370
49073W        W 8818   4.850  10.341  11.905
49074W        W 8819  37.071  29.474  13.892
49075W        W 8820  23.022  40.979  12.851
49076W        W 8821  17.211  42.965   0.262
49077W        W 8822   7.675  24.612  14.470
49078W        W 8823  22.174  13.646  12.016
49079W        W 8824  33.586   3.872   3.674
49080W        W 8825  30.079  24.488   2.893
49081W        W 8826  10.632  44.890   3.849
49082W        W 8827   2.431  13.217  13.856
49083W        W 8828  31.422  29.036   2.749
49084W        W 8829  28.130  25.129  11.582
49085W        W 8830  38.532   0.931   3.373
49086W        W 8831  10.310  16.235   4.655
49087W        W 8832  37.362  10.810  12.495
49088W        W 8833  27.138  35.432   3.772
49089W        W 8834  15.272  33.936   3.633
49090W        W 8835  24.537   2.267  11.045
49091W        W 8836  17.627  37.371   4.296
49092W        W 8837  22.622  40.468  13.993
49093W        W 8838  43.890  44.782  14.022
49094W        W 8839  40.016  25.510  11.047
49095W        W 8840  29.455  35.936   5.218
49096W        W 8841  10.825  21.530   1.440
49097W        W 8842  16.089  13.668  13.944
49098W        W 8843  39.956   6.364  14.999
49099W        W 8844   8.851  33.517  11.081
49100W        W 8845  43.825  40.346   3.257
49101W        W 8846  25.509  23.672  12.404
49102W        W 8847  26.626  24.537  14.885
49103W        W 8848  29.101  34.864  10.588
49104W        W 8849   2.306   3.278  11.516
49105W        W 8850   2.740  11.679  14.407
49106W        W 8851  13.822  28.460   2.401
49107W        W 8852  24.162  28.018  13.881
49108W        W 8853  34.982  15.308  10.489
49109W        W 8854  41.451   2.938   4.294
49110W        W 8855  24.195  11.269   1.707
49111W        W 8856  25.149  22.576   3.334
49112W        W 8857  20.566  14.224   1.849
49113W        W 8858  43.765  19.076  14.835
49114W        W 8859  18.188  43.445   0.307
49115W        W 8860   4.398  33.559   0.446
49116W        W 8861   9.804  40.476  12.014
49117W        W 8862   1.470  17.237   5.095
49118W        W 8863  10.205  33.920  12.911
49119W        W 8864  33.083  15.307  13.957
49120W        W 8865  42.382  25.139   1.850
49121W        W 8866  30.917   4.733  14.403
49122W        W 8867  42.467  17.601   1.812
49123W        W 8868  22.195  33.412  10.562
49124W        W 8869  40.314  42.493   2.876
49125W        W 8870  41.860  14.616  13.335
49126W        W 8871  37.435  18.176   4.741
49127W        W 8872  13.727  39.855  12.438
49128W        W 8873  17.799  41.021  13.936
49129W        W 8874  29.141   3.362   3.776
49130W        W 8875  25.684   7.352   4.760
49131W        W 8876  23.146   0.809   0.852
49132W        W 8877   9.164  30.153   0.941
49133W        W 8878  12.354  11.369   1.748
49134W        W 8879  34.923  33.502  14.330
49135W        W 8880  29.614   0.784   3.637
49136W        W 8881  39.440  20.656   3.869
49137W        W 8882  42.806   6.851   4.150
49138W        W 8883  35.957  26.600  13.053
49139W        W 8884  18.780   7.879  13.439
49140W        W 8885  18.255  33.912  13.970
49141W        W 8886  40.477  21.235  13.942
49142W        W 8887   1.371  19.721   3.203
49143W        W 8888  32.415  28.673  14.405
49144W        W 8889  33.535  29.069   1.450
49145W        W 8890  41.475  21.018  14.879
49146W        W 8891  32.453   4.944  14.864
49147W        W 8892  31.105  26.199  12.386
49148W        W 8893   0.873  17.144   0.403
49149W        W 8894  35.082  41.430   4.685
49150W        W 8895  43.435  29.525   1.826
49151W        W 8896  11.803   8.357   2.845
49152W        W 8897  14.134  16.720  10.605
49153W        W 8898  17.229  26.557  12.954
49154W        W 8899   4.448  11.132   2.341
49155W        W 8900  17.639  33.398   3.385
49156W        W 8901  29.054  26.200  12.343
49157W        W 8902  44.829  16.277   5.107
49158W        W 8903  20.574  27.497  10.587
49159W        W 8904   7.855  20.150   4.194
49160W        W 8905   1.767  37.395  12.936
49161W        W 8906  11.640  34.585  14.927
49162W        W 8907  24.692  15.087   3.257
49163W        W 8908  30.954   7.731  13.343
49164W        W 8909  16.257  23.495   4.133
49165W        W 8910   3.794   4.433  12.989
49166W        W 8911  30.916  22.222   0.733
49167W        W 8912   9.186  23.025  11.038
49168W        W 8913   1.921  23.035   3.363
49169W        W 8914  37.478   7.267  12.903
49170W        W 8915  36.552  33.928   3.293
49171W        W 8916  31.422  25.673  10.920
49172W        W 8917   7.819  12.201   3.777
49173W        W 8918   1.363  26.621  12.850
49174W        W 8919  14.263  22.543   0.804
49175W        W 8920  36.360   4.329   3.347
49176W        W 8921   7.697  34.975  12.410
49177W        W 8922  24.021  10.156  14.457
49178W        W 8923  16.644   5.231   0.318
49179W        W 8924  37.568  26.657   3.775
49180W        W 8925  36.850   0.922   4.836
49181W        W 8926   5.791  29.138   4.777
49182W        W 8927  19.602  42.804   1.363
49183W        W 8928   2.237  32.925   1.839
49184W        W 8929  13.769  12.802  11.950
49185W        W 8930  13.713   4.834  11.556
49186W        W 8931   7.861  34.387  11.861
49187W        W 8932  21.720  38.445   0.476
49188W        W 8933  41.965  32.084   3.825
49189W        W 8934  27.680  23.679  11.460
49190W        W 8935  30.110  31.444   1.364
49191W        W 8936  39.359   3.817  11.402
49192W        W 8937   8.189   8.378  14.286
49193W        W 8938  28.525   1.292  11.515
49194W        W 8939  22.026  22.104  12.886
49195W        W 8940  32.939  19.680   4.651
49196W        W 8941  44.437  42.474   3.854
49197W        W 8942  19.176  41.473  12.859
49198W        W 8943   5.841  19.604  11.497
49199W        W 8944  18.758  29.438   3.850
49200W        W 8945  27.625  16.718  11.907
49201W        W 8946   2.782  10.255  14.345
49202W        W 8947  19.634   8.690   3.239
49203W        W 8948  30.029  22.599   4.780
49204W        W 8949  27.988  44.442   0.783
49205W        W 8950  13.293   3.400  12.893
49206W        W 8951  29.168  21.160   0.958
49207W        W 8952  38.940  32.130   1.773
49208W        W 8953  26.526  24.528   2.330
49209W        W 8954  33.626  16.272   2.855
49210W        W 8955  16.799  22.218   0.901
49211W        W 8956  42.980  16.273  11.539
49212W        W 8957  23.028  27.690  14.503
49213W        W 8958  27.945  42.923  10.529
49214W        W 8959  26.698  36.424  14.457
49215W        W 8960  10.140  12.735   2.275
49216W        W 8961  19.576   1.474  11.568
49217W        W 8962  28.645   1.270   1.241
49218W        W 8963  11.739  16.167   1.433
49219W        W 8964  16.569  23.676  10.959
49220W        W 8965  14.123  32.082  10.504
49221W        W 8966   0.387   1.276  13.959
49222W        W 8967  37.421  25.057  10.904
49223W        W 8968  24.227  43.317  12.036
49224W        W 8969  19.546  42.332  10.459
49225W        W 8970   8.296  10.788   0.430
49226W        W 8971  25.509  13.600   0.738
49227W        W 8972  35.440  32.976   3.193
49228W        W 8973  41.325   5.885  14.287
49229W        W 8974  37.441  42.309  14.443
49230W        W 8975   3.779  25.679   0.939
49231W        W 8976  35.440  15.667   2.736
49232W        W 8977  29.044  40.814  12.572
49233W        W 8978  30.974  15.324   0.789
49234W        W 8979   6.418  21.670   1.850
49235W        W 8980   4.289  23.495   2.801
49236W        W 8981  32.595  17.245  14.377
49237W        W 8982   2.935  21.745   1.273
49238W        W 8983  24.576   8.760   4.746
49239W        W 8984  34.048  28.487   5.583
49240W        W 8985   6.422  32.885  12.883
49241W        W 8986  10.849   2.871  10.512
49242W        W 8987  36.010  32.609   3.633
49243W        W 8988  44.331  16.296  11.375
49244W        W 8989  44.915  15.262   2.342
49245W        W 8990  12.651  26.572   0.858
49246W        W 8991   0.426  19.609   4.284
49247W        W 8992  43.352  28.589  14.767
49248W        W 8993  39.484  32.140   4.825
49249W        W 8994  18.560  38.054  10.544
49250W        W 8995  39.380  14.760  13.448
49251W        W 8996  23.985  17.726   0.788
49252W        W 8997  41.811  14.316  10.495
49253W        W 8998   7.796  37.408  14.884
49254W        W 8999   7.817  19.720   3.794
49255W        W 9000  12.326  13.699  12.981
49256W        W 9001  33.034   2.305   3.769
49257W        W 9002  13.603  15.243   3.305
49258W        W 9003  14.184  25.033  12.544
49259W        W 9004  35.366  10.181  13.862
49260W        W 9005  29.051   9.882   0.346
49261W        W 9006   0.321  42.510  12.411
49262W        W 9007  19.718  37.995   1.447
49263W        W 9008  19.212  25.084   4.820
49264W        W 9009   8.217  19.771   0.966
49265W        W 9010  18.775  35.596   1.890
49266W        W 9011  24.016  35.375  11.588
49267W        W 9012  24.210   1.877  13.400
49268W        W 9013  16.117  43.409  11.125
49269W        W 9014   8.674  42.397  14.783
49270W        W 9015   6.700  23.008  13.926
49271W        W 9016  41.300  27.047   2.342
49272W        W 9017  34.588  31.008  12.027
49273W        W 9018  15.191  23.645  10.960
49274W        W 9019   8.828  24.211   2.236
49275W        W 9020  30.522   0.300  14.809
49276W        W 9021  18.609  39.521  10.509
49277W        W 9022   9.150  44.934  12.080
49278W        W 9023  11.312  11.752   4.130
49279W        W 9024  35.869  19.734   4.650
49280W        W 9025   2.274  17.093   4.762
49281W        W 9026  12.358  36.847  11.592
49282W        W 9027   0.293  26.075   3.186
49283W        W 9028  23.647  17.232   4.659
49284W        W 9029  16.128  38.875  11.078
49285W        W 9030  18.152  32.094  14.309
49286W        W 9031  27.078  25.158   5.313
49287W        W 9032  34.121   1.461  12.521
49288W        W 9033   8.749  14.735  13.892
49289W        W 9034   0.272  14.718  11.120
49290W        W 9035   4.389  34.878   2.289
49291W        W 9036  18.219   3.356   4.700
49292W        W 9037  37.057  32.019  14.427
49293W        W 9038  12.719  42.513  14.319
49294W        W 9039  31.128  44.962  14.295
49295W        W 9040  41.929   4.767  12.923
49296W        W 9041  35.428  29.531  12.922
49297W        W 9042   4.234  33.498  10.926
49298W        W 9043  36.915  19.252   1.417
49299W        W 9044  41.514   9.354  10.888
49300W        W 9045   1.466  27.583   2.837
49301W        W 9046  26.055  23.727  14.888
49302W        W 9047  31.951   8.856   0.887
49303W        W 9048  14.671  17.166   3.780
49304W        W 9049  10.155  39.381  11.032
49305W        W 9050  23.638  20.049  10.594
49306W        W 9051  31.573  15.235   3.674
49307W        W 9052  38.012  29.432   9.994
49308W        W 9053  44.004  10.726  11.385
49309W        W 9054  29.112  14.777  10.635
49310W        W 9055   2.427  26.552  12.352
49311W        W 9056  27.666  16.628   1.296
49312W        W 9057  42.855  26.630  11.484
49313W        W 9058  43.516  20.713  11.569
49314W        W 9059  29.129  16.734  12.418
49315W        W 9060  20.083   7.730   3.208
49316W        W 9061   5.711  22.034   0.325
49317W        W 9062  26.060  10.694   3.374
49318W        W 9063  25.201  15.237  12.865
49319W        W 9064  21.544  33.876  10.419
49320W        W 9065  28.540   9.659  13.385
49321W        W 9066   8.825   0.340   4.780
49322W        W 9067  26.692   8.282  14.999
49323W        W 9068   9.739  13.746   4.145
49324W        W 9069  42.427  28.551   4.711
49325W        W 9070  23.046  29.156   4.352
49326W        W 9071  27.967  29.927   1.849
49327W        W 9072  13.182  26.085  12.870
49328W        W 9073  38.911  24.084   3.156
49329W        W 9074   8.760   6.279  12.939
49330W        W 9075  28.071   8.702  13.427
49331W        W 9076  39.823  43.374  12.360
49332W        W 9077   6.210  26.609  13.985
49333W        W 9078  25.711   5.785  11.434
49334W        W 9079  27.599   0.981   4.177
49335W        W 9080  14.266   9.747  11.466
49336W        W 9081  29.669  35.056  10.416
49337W        W 9082  12.118   4.891  11.925
49338W        W 9083  20.662  29.148   0.817
49339W        W 9084  28.525  41.482  13.912
49340W        W 9085  34.464   4.802   4.695
49341W        W 9086  41.343  36.377   4.136
49342W        W 9087  42.391   4.415   0.448
49343W        W 9088   3.933  35.067  14.930
49344W        W 9089  38.000   0.339  12.577
49345W        W 9090  32.012  40.424  14.423
49346W        W 9091  39.538  41.883  10.539
49347W        W 9092  37.884  28.450  14.471
49348W        W 9093   7.732  38.474  12.865
49349W        W 9094  26.962  41.917   1.352
49350W        W 9095  31.629   1.795  12.420
49351W        W 9096   8.350  33.117  14.856
49352W        W 9097  10.854   1.902   0.834
49353W        W 9098  30.569  36.091  10.405
49354W        W 9099   1.839  13.231  12.859
49355W        W 9100   9.296   1.968   2.333
49356W        W 9101  18.127  14.602  13.061
49357W        W 9102  33.066  29.031   3.339
49358W        W 9103   3.773  41.913   4.816
49359W        W 9104   6.848  13.819   1.395
49360W        W 9105  18.253   3.760   3.376
49361W        W 9106  10.679  31.487   1.377
49362W        W 9107  29.595  33.618  11.862
49363W        W 9108  28.501  44.505   3.793
49364W        W 9109  28.668   9.154  12.020
49365W        W 9110   9.246  27.977   1.402
49366W        W 9111  24.638  24.681   3.233
49367W        W 9112  19.104  31.615  12.881
49368W        W 9113  40.847   0.962  14.982
49369W        W 9114  25.514  42.291   2.299
49370W        W 9115  24.574  30.146   3.771
49371W        W 9116  14.166  20.171   2.414
49372W        W 9117  41.376  42.346  14.376
49373W        W 9118  41.373  25.963  11.454
49374W        W 9119  10.698  18.283   3.644
49375W        W 9120   3.851  19.099  10.128
49376W        W 9121  12.263  30.021   4.753
49377W        W 9122  31.564   1.435   0.907
49378W        W 9123  10.676  23.539   0.774
49379W        W 9124   4.926  21.602  13.463
49380W        W 9125  12.762   5.764   4.646
49381W        W 9126  38.405  35.574   2.302
49382W        W 9127   4.812   7.870   1.782
49383W        W 9128   3.892   0.981  14.961
49384W        W 9129  23.714  41.531   1.406
49385W        W 9130  18.103   7.405   3.762
49386W        W 9131  41.417   4.284  13.378
49387W        W 9132  38.047  26.512  12.061
49388W        W 9133   2.365  28.617  12.866
49389W        W 9134  39.373  16.098  10.500
49390W        W 9135   7.817  44.393   2.253
49391W        W 9136  22.598  23.132   4.353
49392W        W 9137  44.907  43.301   3.365
49393W        W 9138  44.792   0.331   2.308
49394W        W 9139  36.411  14.272   2.667
49395W        W 9140  12.305  32.463  11.477
49396W        W 9141   3.330  33.558   3.293
49397W        W 9142  22.066   0.420  13.006
49398W        W 9143  33.422  15.287   4.150
49399W        W 9144  43.994  19.632   4.340
49400W        W 9145  17.650  13.106   0.936
49401W        W 9146  24.120  25.615   1.701
49402W        W 9147  22.587  37.833  10.535
49403W        W 9148  37.550  26.474  11.886
49404W        W 9149  36.393  18.269   9.923
49405W        W 9150  23.125  29.066   3.197
49406W        W 9151  19.780   0.348  13.435
49407W        W 9152  22.656  10.246  14.409
49408W        W 9153  12.691  10.634   0.762
49409W        W 9154  39.398  15.819   3.697
49410W        W 9155  22.533  37.890   3.761
49411W        W 9156  24.182   2.912  10.564
49412W        W 9157   1.852  32.122   4.352
49413W        W 9158  24.031  42.282  14.955
49414W        W 9159  18.273   0.314  11.461
49415W        W 9160  39.924  13.736   1.344
49416W        W 9161  39.420  32.601  14.761
49417W        W 9162   9.256  40.876  13.867
49418W        W 9163   9.319  29.607   1.291
49419W        W 9164  41.802   3.774  11.005
49420W        W 9165   1.354  30.979   0.741
49421W        W 9166  12.315  28.582  13.519
49422W        W 9167   1.273  24.692  10.945
49423W        W 9168  27.949  22.601  13.515
49424W        W 9169   8.206  36.393  13.547
49425W        W 9170  34.058  16.265   4.158
49426W        W 9171   6.761  39.852   2.681
49427W        W 9172  37.346  18.727   4.287
49428W        W 9173  19.279  34.984  13.918
49429W        W 9174  27.947  28.128  11.410
49430W        W 9175  39.860  43.021   0.340
49431W        W 9176  24.013  38.474   2.713
49432W        W 9177   2.419   6.243   3.776
49433W        W 9178  34.039   1.308   1.822
49434W        W 9179  28.602  25.644   2.759
49435W        W 9180   9.783   7.793  11.891
49436W        W 9181  12.288   6.783   2.189
49437W        W 9182  10.710  39.457   2.714
49438W        W 9183  17.705  12.798  13.863
49439W        W 9184   3.843   3.283   3.716
49440W        W 9185  17.558   6.271   1.807
49441W        W 9186  39.973   5.816   4.721
49442W        W 9187   8.777  19.777   1.755
49443W        W 9188  22.074  30.989  12.476
49444W        W 9189  13.648  28.477  14.898
49445W        W 9190  14.288  30.634  10.994
49446W        W 9191   2.324  34.447  12.538
49447W        W 9192  27.587  26.097  11.455
49448W        W 9193  17.799  44.278   4.348
49449W        W 9194   8.783  32.420  13.974
49450W        W 9195  35.518   6.852  14.820
49451W        W 9196  16.105   8.204  11.580
49452W        W 9197  20.072  41.471  14.003
49453W        W 9198   8.246  29.568   3.848
49454W        W 9199  33.910  33.423   0.770
49455W        W 9200  38.500  31.580  12.091
49456W        W 9201  17.193  29.527   0.252
49457W        W 9202  34.026  11.326  11.606
49458W        W 9203  37.399  44.466  14.382
49459W        W 9204  24.058  33.101   4.665
49460W        W 9205  41.319   1.381   2.401
49461W        W 9206   3.790  34.461   3.758
49462W        W 9207  11.215  34.522  13.324
49463W        W 9208  26.971  30.647   0.781
49464W        W 9209  14.715  28.140  14.351
49465W        W 9210  12.245  37.056  12.550
49466W        W 9211   0.283   8.896  13.362
49467W        W 9212  26.001  19.694   0.353
49468W        W 9213  35.917  30.021   3.291
49469W        W 9214  24.197  16.636  12.065
49470W        W 9215  32.935  12.628   2.354
49471W        W 9216  40.544   3.425  10.119
49472W        W 9217  31.603  29.503  11.011
49473W        W 9218  34.105  15.680  13.817
49474W        W 9219  38.417  28.138  10.431
49475W        W 9220  20.621  19.699  12.371
49476W        W 9221  14.620  14.321  11.395
49477W        W 9222  20.139  16.267  14.840
49478W        W 9223  30.924  15.178  12.540
49479W        W 9224  18.547  38.547  10.534
49480W        W 9225   7.714  19.168   1.349
49481W        W 9226   9.860  40.433   0.316
49482W        W 9227   6.870  26.197   0.771
49483W        W 9228   2.903   3.342   0.827
49484W        W 9229  41.471  33.039  11.905
49485W        W 9230   7.367   6.881  11.078
49486W        W 9231  19.100   1.861   3.870
49487W        W 9232  22.187   1.291   0.765
49488W        W 9233  34.452  26.125  10.482
49489W        W 9234  26.067  22.236   0.922
49490W        W 9235  20.535   0.294  14.994
49491W        W 9236  29.658  35.497   0.928
49492W        W 9237  25.054  21.196   4.599
49493W        W 9238  31.991  10.379  14.775
49494W        W 9239   4.847   0.382  14.373
49495W        W 9240   6.706  23.651  12.979
49496W        W 9241  42.433  23.999  14.474
49497W        W 9242  31.935  28.660  12.537
49498W        W 9243   5.251  35.911  14.502
49499W        W 9244  21.055  20.604  11.016
49500W        W 9245  29.125   1.451   2.767
49501W        W 9246  44.380   7.346  11.109
49502W        W 9247   6.822   7.365  12.960
49503W        W 9248  36.085  36.347   2.748
49504W        W 9249  23.214   9.680   3.722
49505W        W 9250  12.353  24.112  13.911
49506W        W 9251  28.991  38.509   3.869
49507W        W 9252  39.814  35.046   2.774
49508W        W 9253  23.093  33.129   0.768
49509W        W 9254  43.010   1.939  14.025
49510W        W 9255  12.680  13.283   4.213
49511W        W 9256  37.513  41.043   1.373
49512W        W 9257   2.730  29.048  12.950
49513W        W 9258  12.141  18.185   0.828
49514W        W 9259   2.347   5.232   3.727
49515W        W 9260  27.186  26.011   2.344
49516W        W 9261  34.533  29.473   4.295
49517W        W 9262   6.356   7.405   1.790
49518W        W 9263  35.402   7.223   2.246
49519W        W 9264  11.360  30.624  12.347
49520W        W 9265   4.733  13.684  11.104
49521W        W 9266  32.947  26.074  14.411
49522W        W 9267  31.522  30.458   2.842
49523W        W 9268  27.175  42.825   4.628
49524W        W 9269  34.592  35.591  13.929
49525W        W 9270  27.941   4.854   0.374
49526W        W 9271  25.619  28.475   1.915
49527W        W 9272  40.938  36.085  13.865
49528W        W 9273  31.541  36.859  11.991
49529W        W 9274  44.975   0.828  10.545
49530W        W 9275  44.470  10.384  14.383
49531W        W 9276  28.080   3.279   1.258
49532W        W 9277  44.943  11.688  10.476
49533W        W 9278  32.581  40.361  12.924
49534W        W 9279   3.367  21.047  14.459
49535W        W 9280  28.658  19.156   1.695
49536W        W 9281  18.147  15.714  13.418
49537W        W 9282   9.197  37.831   4.341
49538W        W 9283  27.970  13.346   0.284
49539W        W 9284  23.206   8.703   2.685
49540W        W 9285  24.224  27.556  11.535
49541W        W 9286  22.195   9.736   3.339
49542W        W 9287  28.495  18.050  13.854
49543W        W 9288  43.294  38.458  11.860
49544W        W 9289  31.082  22.724   1.334
49545W        W 9290  37.919  13.250  11.414
49546W        W 9291   8.811  15.617   5.316
49547W        W 9292  33.588  40.359   0.314
49548W        W 9293  36.928  23.132  11.522
49549W        W 9294  42.898  44.362  14.901
49550W        W 9295   6.684  31.935   2.406
49551W        W 9296  17.155  20.081   3.841
49552W        W 9297  36.944  29.455   0.371
49553W        W 9298  11.137  31.581  11.984
49554W        W 9299  32.094  28.560   0.767
49555W        W 9300   1.471  20.253  11.574
49556W        W 9301  16.793   4.422  12.037
49557W        W 9302  25.698   0.862  11.885
49558W        W 9303  23.718  14.808   1.267
49559W        W 9304  25.064   1.314  10.638
49560W        W 9305  37.544   3.381  11.017
49561W        W 9306  36.414  41.404  10.029
49562W        W 9307  28.585   9.819   1.378
49563W        W 9308   9.867  13.277  13.950
49564W        W 9309  13.274  23.640  11.884
49565W        W 9310  30.445  31.925  12.068
49566W        W 9311  13.192   3.919  12.879
49567W        W 9312  37.529  12.729   4.148
49568W        W 9313   8.770  27.498   2.334
49569W        W 9314   2.799   9.180   1.824
49570W        W 9315  38.466  26.999  13.345
49571W        W 9316  14.694  38.017   3.730
49572W        W 9317   3.804  11.315   1.887
49573W        W 9318   2.423  36.851  14.349
49574W        W 9319   9.694  28.037   3.774
49575W        W 9320  25.049  25.485  11.089
49576W        W 9321  44.321  13.224   0.768
49577W        W 9322   2.433  26.678   0.827
49578W        W 9323  37.379  42.839  10.997
49579W        W 9324  15.753  39.512  13.850
49580W        W 9325  26.520  32.057   3.684
49581W        W 9326  26.502   8.851  12.067
49582W        W 9327  40.444  32.096   2.266
49583W        W 9328  20.698   1.425  12.896
49584W        W 9329  21.743  10.283   2.386
49585W        W 9330  36.898  11.138   1.264
49586W        W 9331  22.639  39.492   2.786
49587W        W 9332  32.536  36.851   3.264
49588W        W 9333  21.639   6.237   4.756
49589W        W 9334  40.355  17.209   4.794
49590W        W 9335  29.127  17.171  14.300
49591W        W 9336  40.901  18.101   3.744
49592W        W 9337   5.424  18.692  10.411
49593W        W 9338  42.896  35.009  14.482
49594W        W 9339  13.285   3.742   3.372
49595W        W 9340  16.317   8.674   3.736
49596W        W 9341  31.012  12.625   3.186
49597W        W 9342   6.250  14.207   4.173
49598W        W 9343   9.805   9.221  11.867
49599W        W 9344   1.965  44.973  12.469
49600W        W 9345  11.760  38.015  14.801
49601W        W 9346  24.617   4.373  11.094
49602W        W 9347  25.639  32.429   5.165
49603W        W 9348   8.842  13.149   3.716
49604W        W 9349  16.191  38.014  12.880
49605W        W 9350   2.229   2.449   3.215
49606W        W 9351  39.540   5.815  13.538
49607W        W 9352   6.421   3.457  11.995
49608W        W 9353   7.781  30.079   2.861
49609W        W 9354  40.425  35.478   0.357
49610W        W 9355  20.618  26.483  13.819
49611W        W 9356  27.461  25.511  11.547
49612W        W 9357  40.499  22.157  12.524
49613W        W 9358  32.629  29.926   4.805
49614W        W 9359   8.295   0.839  10.601
49615W        W 9360   8.709  35.525   4.337
49616W        W 9361  28.018   1.738   0.746
49617W        W 9362   8.362  11.149  10.561
49618W        W 9363  29.517  42.317   2.318
49619W        W 9364  11.229  18.603  10.990
49620W        W 9365  25.986   6.780   0.801
49621W        W 9366  35.422  37.486   2.377
49622W        W 9367  14.283  44.352   1.302
49623W        W 9368  24.158  20.067  11.591
49624W        W 9369  34.534  25.653  13.844
49625W        W 9370   1.345  26.521  14.319
49626W        W 9371   2.282  39.847   1.701
49627W        W 9372  42.463  41.983  13.357
49628W        W 9373   6.771   1.913  13.982
49629W        W 9374  24.150  44.296   4.175
49630W        W 9375  35.899  28.057  11.965
49631W        W 9376   7.232  31.553  13.017
49632W        W 9377   0.837  32.990  13.960
49633W        W 9378  11.352   1.441   1.865
49634W        W 9379   9.863  22.522   0.761
49635W        W 9380   3.797  10.784   2.662
49636W        W 9381   8.654  30.438   3.365
49637W        W 9382   2.727  24.677   0.864
49638W        W 9383  30.997  43.824   3.343
49639W        W 9384  30.619  44.849  14.448
49640W        W 9385  18.155   9.734  11.541
49641W        W 9386   1.868  10.375   1.226
49642W        W 9387  13.137  27.629   3.672
49643W        W 9388   2.730  15.231  13.520
49644W        W 9389  36.581  10.314   1.354
49645W        W 9390  18.279  30.592  14.306
49646W        W 9391  19.068  20.271  13.406
49647W        W 9392  30.092  41.962   4.284
49648W        W 9393  27.663  18.732  11.918
49649W        W 9394  39.354   0.392   4.233
49650W        W 9395  24.090  29.062   0.806
49651W        W 9396  16.190  31.494   0.957
49652W        W 9397  28.077   6.761  13.539
49653W        W 9398  31.599  16.072  11.103
49654W        W 9399   9.790  39.062   4.769
49655W        W 9400  33.099  37.504   1.855
49656W        W 9401  35.548  37.862  12.499
49657W        W 9402  11.330  15.096  11.127
49658W        W 9403  12.198  15.670   4.727
49659W        W 9404  34.023  35.025   1.440
49660W        W 9405  31.598  23.671   3.678
49661W        W 9406   4.220  29.638   3.796
49662W        W 9407  41.408  22.564  13.506
49663W        W 9408  23.158   1.847   2.758
49664W        W 9409   8.757  34.981   4.720
49665W        W 9410  26.039  40.432  14.960
49666W        W 9411  29.658  24.712   4.273
49667W        W 9412  42.318  14.601   0.894
49668W        W 9413   6.761  37.415  11.996
49669W        W 9414  36.439  14.263  13.041
49670W        W 9415  37.562  34.466  10.604
49671W        W 9416   2.405  18.659   2.222
49672W        W 9417  25.653  20.158  11.054
49673W        W 9418  36.955  40.850   3.247
49674W        W 9419  44.409   8.681   1.382
49675W        W 9420  17.767  34.914   1.301
49676W        W 9421   3.367  32.070  10.984
49677W        W 9422  30.082  29.485  14.275
49678W        W 9423  29.032   4.792  12.043
49679W        W 9424  41.452  15.278   0.922
49680W        W 9425  30.008  34.946  10.442
49681W        W 9426  18.658  10.241  12.046
49682W        W 9427   8.206  28.665  14.770
49683W        W 9428  16.185  15.303  14.895
49684W        W 9429   4.274  43.774   3.157
49685W        W 9430  13.730  16.214  12.552
49686W        W 9431  20.209  31.531   3.227
49687W        W 9432  17.248  40.378  14.443
49688W        W 9433  44.289   0.371  13.343
49689W        W 9434  33.124  28.554   1.835
49690W        W 9435   8.392  34.425  11.935
49691W        W 9436  14.686   4.285  14.980
49692W        W 9437  37.557   3.735  13.436
49693W        W 9438  40.917  20.743   3.690
49694W        W 9439   3.418   0.772   2.407
49695W        W 9440  41.375   6.401   4.805
49696W        W 9441  28.482  32.120   4.788
49697W        W 9442  44.921  11.711  12.086
49698W        W 9443  43.450  35.951  12.449
49699W        W 9444  36.540  16.655  11.414
49700W        W 9445  31.086  28.511   3.168
49701W        W 9446  40.419  26.033   3.737
49702W        W 9447  39.543  40.362   0.731
49703W        W 9448  26.505  31.967  13.501
49704W        W 9449  32.003  33.963  10.976
49705W        W 9450  20.257  13.275  11.388
49706W        W 9451  23.592  22.677   0.770
49707W        W 9452   0.470   6.844  14.356
49708W        W 9453   2.298  14.695   0.785
49709W        W 9454  38.883  41.375   1.696
49710W        W 9455  30.087  23.099   4.349
49711W        W 9456  10.211  21.225   3.311
49712W        W 9457  35.531  10.316   3.282
49713W        W 9458  11.193  43.390   1.814
49714W        W 9459   3.445  18.153  13.324
49715W        W 9460   8.345  12.784   0.339
49716W        W 9461  16.679  43.425   2.319
49717W        W 9462   8.864  11.697   1.712
49718W        W 9463  15.254  15.244  11.952
49719W        W 9464  10.760  39.504   4.674
49720W        W 9465  37.871  21.736  13.358
49721W        W 9466   8.773  11.154   2.748
49722W        W 9467   4.332  43.938  12.841
49723W        W 9468  38.956  31.901  10.548
49724W        W 9469  10.188  33.447   3.296
49725W        W 9470   0.794  37.408   2.328
49726W        W 9471  25.584  38.852   4.166
49727W        W 9472   5.822  35.470   0.424
49728W        W 9473   6.755  25.056  14.945
49729W        W 9474  35.891  15.814   2.178
49730W        W 9475   4.839  17.154   2.237
49731W        W 9476   4.364   4.378   0.250
49732W        W 9477  25.189  26.128   0.799
49733W        W 9478  11.748  29.491  11.916
49734W        W 9479  33.909  11.838   3.358
49735W        W 9480  10.802  31.060   4.804
49736W        W 9481  42.019  34.115  14.461
49737W        W 9482  23.038  23.629   0.379
49738W        W 9483  19.122  20.743   1.220
49739W        W 9484   2.252  27.007  12.962
49740W        W 9485  33.579  32.513   1.451
49741W        W 9486  26.663  31.442  11.418
49742W        W 9487  34.094  27.458   1.414
49743W        W 9488  20.174  33.012   0.873
49744W        W 9489  11.316   3.758  13.879
49745W        W 9490  13.842   7.685   3.387
49746W        W 9491  34.380   0.321  13.019
49747W        W 9492  22.588  27.491   4.709
49748W        W 9493   5.808   0.431   3.870
49749W        W 9494  26.557  19.679  13.349
49750W        W 9495  35.592  12.332  14.340
49751W        W 9496  36.471   5.281  13.981
49752W        W 9497  43.349  13.813   4.650
49753W        W 9498  40.819  33.441   2.741
49754W        W 9499  23.592  20.029  11.611
49755W        W 9500  34.945  39.979  12.446
49756W        W 9501  33.111  12.695   2.709
49757W        W 9502  41.489  28.679  14.840
49758W        W 9503   3.712  12.193   2.863
49759W        W 9504   2.737   8.382   4.713
49760W        W 9505  33.560  40.395   5.283
49761W        W 9506  39.369  16.591   3.631
49762W        W 9507  36.436  12.270   1.738
49763W        W 9508  39.997  19.199   4.144
49764W        W 9509  23.123   9.216   4.646
49765W        W 9510   4.322  27.177   3.810
49766W        W 9511  31.605  37.903  14.320
49767W        W 9512  39.445  26.535  13.045
49768W        W 9513   4.389   1.769  12.937
49769W        W 9514  15.313  36.884   0.749
49770W        W 9515  37.414  26.583  13.917
49771W        W 9516  25.024  11.852   0.938
49772W        W 9517  29.166  19.053  12.423
49773W        W 9518   3.860  21.754   4.134
49774W        W 9519  12.163   0.462  14.314
49775W        W 9520  41.473  38.495  13.045
49776W        W 9521  26.045  24.168  13.543
49777W        W 9522  14.196   4.856   3.823
49778W        W 9523  15.691  23.128   2.301
49779W        W 9524  25.539   5.347  12.541
49780W        W 9525  10.160  42.289   0.794
49781W        W 9526  42.003  44.762   3.831
49782W        W 9527  44.479  31.092   1.337
49783W        W 9528   3.234  30.101   3.332
49784W        W 9529  12.256  35.432  14.899
49785W        W 9530  42.451  37.059   2.389
49786W        W 9531  29.560   3.238  13.062
49787W        W 9532   7.703   5.418  10.551
49788W        W 9533  21.548  24.712  14.401
49789W        W 9534  43.966   5.392   1.721
49790W        W 9535  29.548  21.726  12.545
49791W        W 9536  13.669  19.536  11.546
49792W        W 9537  37.440  23.086   4.213
49793W        W 9538   1.475   8.223  10.929
49794W        W 9539  23.128  11.677  12.936
49795W        W 9540  39.370  16.085  10.936
49796W        W 9541  18.719  19.739   4.195
49797W        W 9542   6.763   9.792   2.353
49798W        W 9543   0.883  30.639  13.427
49799W        W 9544  14.312  17.666  11.012
49800W        W 9545  10.150  30.419  13.407
49801W        W 9546  16.225   6.355   3.334
49802W        W 9547  26.205   1.398  12.948
49803W        W 9548  44.281  29.054  11.988
49804W        W 9549  35.989   4.909   1.399
49805W        W 9550  17.195  39.987   0.312
49806W        W 9551  25.043  31.532   0.414
49807W        W 9552  25.173  23.536  11.071
49808W        W 9553  23.083  20.238  12.433
49809W        W 9554  26.538  36.532  14.835
49810W        W 9555  31.021  32.039  13.839
49811W        W 9556   5.859  37.467  12.824
49812W        W 9557  13.633  19.608   2.243
49813W        W 9558   1.749  21.574   1.903
49814W        W 9559  18.546  11.339  13.438
49815W        W 9560  39.529  21.218  13.981
49816W        W 9561  12.118   6.898   3.850
49817W        W 9562   8.688   6.315   4.214
49818W        W 9563  33.056  36.519   1.718
49819W        W 9564  40.953  35.860  14.391
49820W        W 9565  19.557   3.220   0.275
49821W        W 9566  26.618  32.493   1.406
49822W        W 9567  24.228  15.137  13.919
49823W        W 9568  42.455   2.853  11.433
49824W        W 9569   9.723  42.892   5.107
49825W        W 9570  33.538  15.725  12.963
49826W        W 9571  21.142  23.015   4.808
49827W        W 9572   3.924  41.455  13.485
49828W        W 9573  25.074   3.948  13.864
49829W        W 9574   5.340  39.461   2.837
49830W        W 9575  22.550  28.489   0.882
49831W        W 9576   3.731  13.682   0.741
49832W        W 9577  43.901  23.119   0.816
49833W        W 9578  21.141  28.158  12.993
49834W        W 9579  34.413  31.012   9.541
49835W        W 9580   6.343   1.330   0.386
49836W        W 9581  25.016  15.184   1.402
49837W        W 9582  36.350  40.002  11.539
49838W        W 9583  29.460  40.384   3.384
49839W        W 9584  25.498  18.157  11.511
49840W        W 9585  28.081  15.631   0.293
49841W        W 9586  36.559  36.010   0.810
49842W        W 9587  22.086  38.039   2.664
49843W        W 9588  41.898  19.261   2.841
49844W        W 9589  20.600  34.420   4.715
49845W        W 9590   7.172  20.055   0.457
49846W        W 9591   8.250  38.057   2.834
49847W        W 9592  42.449  14.626   2.178
49848W        W 9593   3.769   5.374  10.611
49849W        W 9594   6.183  14.125  13.431
49850W        W 9595  44.265  28.479   4.116
49851W        W 9596  20.212  31.604  10.452
49852W        W 9597   5.723  42.427  11.969
49853W        W 9598  33.926   5.268   0.911
49854W        W 9599  24.512  11.228  12.015
49855W        W 9600  23.105  17.098   4.122
49856W        W 9601  44.453  21.077   1.261
49857W        W 9602  17.662  28.506  12.829
49858W        W 9603   1.925  35.581   1.268
49859W        W 9604  18.156  35.916  11.941
49860W        W 9605   0.840  34.378   3.813
49861W        W 9606  40.038   0.956   3.772
49862W        W 9607  42.975  11.188   1.231
49863W        W 9608  44.279   0.349   2.413
49864W        W 9609  16.295  15.162   2.356
49865W        W 9610  15.086  28.555   3.384
49866W        W 9611  43.946  18.689   3.780
49867W        W 9612  15.617  30.509  10.147
49868W        W 9613   1.942  13.616  13.415
49869W        W 9614  38.548  17.133  12.573
49870W        W 9615   1.793  41.996  11.574
49871W        W 9616  16.625  36.060   4.682
49872W        W 9617  23.014  22.092  12.091
49873W        W 9618  18.590  41.395  13.969
49874W        W 9619   4.394   3.222  12.502
49875W        W 9620  27.500   2.392  11.524
49876W        W 9621   7.281  38.373   1.252
49877W        W 9622  44.449  27.940  13.536
49878W        W 9623  19.568  24.716  14.368
49879W        W 9624  38.391  35.538  11.067
49880W        W 9625  30.627  11.130   4.290
49881W        W 9626   1.271  34.028  11.531
49882W        W 9627  42.966  12.689   2.341
49883W        W 9628  10.162   1.957   4.179
49884W        W 9629  29.607  24.552   0.267
49885W        W 9630  20.250  33.896  11.911
49886W        W 9631   4.898  13.714  12.854
49887W        W 9632  25.985  39.852  13.058
49888W        W 9633  34.981  43.789   0.292
49889W        W 9634  22.237  41.462   1.752
49890W        W 9635  35.520  14.150  12.042
49891W        W 9636  16.799  36.457  11.890
49892W        W 9637  19.708  40.401  13.437
49893W        W 9638  22.645  26.529   3.193
49894W        W 9639  14.316  16.132   3.678
49895W        W 9640   0.929  21.223  12.969
49896W        W 9641  24.050   0.413   2.377
49897W        W 9642   3.258  31.404  14.806
49898W        W 9643  41.884  12.324   0.345
49899W        W 9644   8.276  16.570  13.853
49900W        W 9645   8.388  17.285   3.350
49901W        W 9646   9.709  29.031   3.762
49902W        W 9647  10.346  15.771   0.252
49903W        W 9648  16.672  28.549  14.495
49904W        W 9649  18.112  23.105  10.908
49905W        W 9650   1.317   7.249   4.661
49906W        W 9651  18.671   8.275  13.939
49907W        W 9652  40.864   8.365  12.848
49908W        W 9653  39.042   3.838  14.944
49909W        W 9654  21.201  12.851  11.004
49910W        W 9655   0.878  20.218   1.870
49911W        W 9656  26.516  39.897  13.880
49912W        W 9657  11.743  36.583   4.182
49913W        W 9658  10.646   1.849  11.481
49914W        W 9659  31.421   8.197  13.034
49915W        W 9660  34.390   4.397  14.964
49916W        W 9661   5.403  40.450   4.123
49917W        W 9662  16.194   8.764  14.771
49918W        W 9663  36.069  32.526   2.675
49919W        W 9664  27.121  27.541  12.082
49920W        W 9665  29.599   6.250  14.468
49921W        W 9666  36.060   0.348  13.472
49922W        W 9667  42.949  29.541  12.544
49923W        W 9668  32.570  26.552  10.029
49924W        W 9669  32.497  19.084   3.222
49925W        W 9670  28.510   1.959   1.313
49926W        W 9671   6.348  20.661  12.471
49927W        W 9672  35.937  25.694   4.175
49928W        W 9673  30.518  12.220   0.408
49929W        W 9674  40.841  36.413  14.359
49930W        W 9675  24.995  28.173  10.529
49931W        W 9676   7.307  37.931  12.934
49932W        W 9677  28.023  13.107   2.874
49933W        W 9678  12.321  38.928  12.839
49934W        W 9679  33.410  38.909  13.500
49935W        W 9680   0.752  22.508   4.837
49936W        W 9681  23.091  25.107   3.194
49937W        W 9682   4.414  14.312   1.883
49938W        W 9683  26.145  42.280   0.884
49939W        W 9684  24.192  44.997   3.227
49940W        W 9685  23.139  23.015  14.776
49941W        W 9686   7.688  32.485   1.767
49942W        W 9687  29.525  37.346   2.316
49943W        W 9688   0.290  16.191  11.874
49944W        W 9689  41.503  30.572   1.830
49945W        W 9690  41.534  35.586   4.790
49946W        W 9691  29.943  15.721   1.416
49947W        W 9692  21.666  18.182   4.778
49948W        W 9693  32.499  32.475   2.804
49949W        W 9694  26.169   4.933   1.793
49950W        W 9695  18.616  32.407  11.595
49951W        W 9696   4.814  19.279   2.250
49952W        W 9697  26.158  40.512   4.637
49953W        W 9698  17.737   5.740   1.933
49954W        W 9699  24.192  18.779  13.815
49955W        W 9700  33.071  44.913   3.236
49956W        W 9701  10.196   7.852  14.988
49957W        W 9702   1.861  39.820  10.034
49958W        W 9703  32.116  32.607  11.376
49959W        W 9704  17.075   3.457   3.763
49960W        W 9705  12.727  15.195   2.689
49961W        W 9706   2.878   8.826  11.424
49962W        W 9707  16.251  15.753   2.755
49963W        W 9708  19.254   6.843  13.334
49964W        W 9709   1.853  43.479   2.179
49965W        W 9710  35.918  12.654  10.943
49966W        W 9711   1.318  12.634  12.414
49967W        W 9712  26.524  13.147   4.253
49968W        W 9713   1.734  16.661  14.848
49969W        W 9714  20.095  32.483   1.829
49970W        W 9715  30.430  19.046  12.974
49971W        W 9716   5.921  42.913   0.297
49972W        W 9717   9.820  23.032   0.858
49973W        W 9718  18.548  14.279   2.357
49974W        W 9719  35.973  35.565   2.289
49975W        W 9720  43.896  15.186  11.481
49976W        W 9721  24.700  40.006  12.515
49977W        W 9722  30.547  33.053   2.796
49978W        W 9723   1.279  25.582  13.426
49979W        W 9724  39.950  27.132   2.851
49980W        W 9725   0.935  37.363  14.448
49981W        W 9726  31.498  36.018  10.967
49982W        W 9727  38.496  21.062  14.420
49983W        W 9728  34.055  37.077   1.796
49984W        W 9729  29.444  38.498   3.285
49985W        W 9730  26.156  23.691   4.303
49986W        W 9731  33.513  11.758  13.890
49987W        W 9732  35.062  21.673   3.730
49988W        W 9733  36.591  26.062   0.389
49989W        W 9734   6.348  22.692   5.134
49990W        W 9735  19.091   3.446  12.015
49991W        W 9736   8.655  16.672   0.751
49992W        W 9737  20.202  22.087  13.405
49993W        W 9738   2.839   8.363   3.672
49994W        W 9739  19.717  26.620  14.319
49995W        W 9740  11.244  36.929  11.481
49996W        W 9741   7.670  40.329   9.970
49997W        W 9742  10.646  35.101  14.770
49998W        W 9743  17.795  23.603  11.480
49999W        W 9744  30.626  34.967  14.859
50000W        W 9745   7.751   2.846  12.509
50001W        W 9746  10.332  18.630   4.659
50002W        W 9747  28.462  34.389   1.935
50003W        W 9748  22.626  30.449   0.349
50004W        W 9749  24.228  30.978   2.394
50005W        W 9750  27.529  29.115   5.164
50006W        W 9751  27.081  32.970   1.364
50007W        W 9752  28.108  34.409   0.946
50008W        W 9753   2.876  33.499  13.537
50009W        W 9754  21.520  29.079   4.352
50010W        W 9755  12.147  37.506  10.583
50011W        W 9756  17.114   0.936  13.533
50012W        W 9757  40.021  18.677   2.373
50013W        W 9758  38.377  36.095  13.497
50014W        W 9759   0.310  21.675  13.830
50015W        W 9760  24.153   3.378   3.166
50016W        W 9761  39.922  43.403  13.318
50017W        W 9762  40.032  12.221  13.888
50018W        W 9763   5.353  32.953   0.942
50019W        W 9764   8.318  32.060  12.871
50020W        W 9765   4.313  26.590   3.328
50021W        W 9766  36.083  11.731  13.513
50022W        W 9767  14.174   2.381  12.081
50023W        W 9768  23.229  40.353  13.498
50024W        W 9769  26.605  41.860  14.283
50025W        W 9770  36.935  23.633  12.088
50026W        W 9771  35.528  21.073  13.440
50027W        W 9772   6.837  35.433  11.508
50028W        W 9773   3.891  25.590   4.758
50029W        W 9774  35.378   3.747  13.446
50030W        W 9775  35.535   0.852  10.561
50031W        W 9776   0.963   3.773  14.497
50032W        W 9777  22.541  26.093   3.673
50033W        W 9778  41.520  18.226   2.709
50034W        W 9779  38.908  30.157   3.236
50035W        W 9780  16.697  43.451   3.272
50036W        W 9781  11.715  20.666   2.318
50037W        W 9782  25.002   4.837  11.424
50038W        W 9783  18.083  41.407  13.863
50039W        W 9784  38.517   7.814  14.434
50040W        W 9785   2.788   1.290   3.291
50041W        W 9786  40.322   1.309  11.994
50042W        W 9787  33.037  25.603  13.398
50043W        W 9788   4.306  22.164   1.845
50044W        W 9789  26.031  41.000  13.365
50045W        W 9790  43.499   5.343  11.023
50046W        W 9791  32.404  29.093  12.954
50047W        W 9792   1.287  26.015  11.997
50048W        W 9793   8.804  40.947  14.489
50049W        W 9794  18.220   2.458   3.292
50050W        W 9795  40.426   0.920   0.910
50051W        W 9796  40.837  23.724   4.205
50052W        W 9797  15.728  38.979  13.997
50053W        W 9798  39.982  17.146   1.811
50054W        W 9799  23.686   7.697   0.386
50055W        W 9800  14.609   6.802  14.470
50056W        W 9801  34.609  25.110   4.127
50057W        W 9802  23.027  37.368  12.088
50058W        W 9803  43.402  18.772   2.691
50059W        W 9804  18.692  16.646  12.846
50060W        W 9805  26.163  10.148  14.842
50061W        W 9806  17.282   5.760   4.799
50062W        W 9807   4.324  16.594  14.398
50063W        W 9808  23.111  21.044  14.308
50064W        W 9809  18.165  17.091   2.677
50065W        W 9810  16.753  43.435  14.009
50066W        W 9811  39.846  40.988  11.403
50067W        W 9812  38.539  14.315   4.628
50068W        W 9813  13.739   8.686  12.005
50069W        W 9814  13.184  13.167  13.438
50070W        W 9815  42.368  26.127   4.832
50071W        W 9816  33.949  25.617  13.908
50072W        W 9817  35.473  11.292   1.330
50073W        W 9818   4.378  28.044  10.616
50074W        W 9819  13.771  18.777   3.731
50075W        W 9820  11.293   7.187  11.602
50076W        W 9821  32.050   3.759  12.910
50077W        W 9822  44.844   2.241   1.720
50078W        W 9823   2.295  17.207  11.060
50079W        W 9824  23.643  44.260  13.798
50080W        W 9825  17.686  37.904   4.331
50081W        W 9826  27.552  15.653  12.488
50082W        W 9827  43.325   0.270  12.843
50083W        W 9828   6.359  25.515  11.550
50084W        W 9829  23.573   0.793   2.208
50085W        W 9830  44.387  20.109   2.893
50086W        W 9831  19.623  29.944  14.943
50087W        W 9832  38.570  32.012   3.640
50088W        W 9833  32.407   4.354  12.865
50089W        W 9834  30.492  32.072  14.408
50090W        W 9835  21.648  28.048   3.226
50091W        W 9836  32.554  14.311  12.018
50092W        W 9837  26.031  30.448   4.773
50093W        W 9838  31.561  35.961   4.724
50094W        W 9839   6.678   6.704  13.369
50095W        W 9840  16.110   3.954  14.993
50096W        W 9841  14.766  29.430   1.721
50097W        W 9842   2.872   0.327  13.391
50098W        W 9843  22.008  30.511   4.171
50099W        W 9844   2.856  15.119  12.354
50100W        W 9845  16.584  22.191  13.419
50101W        W 9846   9.389  33.473   3.726
50102W        W 9847  10.193  31.582   1.223
50103W        W 9848  41.832   0.936  14.007
50104W        W 9849  12.341   5.886   2.805
50105W        W 9850  35.543  43.813  11.000
50106W        W 9851  28.080  38.948   0.949
50107W        W 9852  14.811  11.261  14.985
50108W        W 9853  18.776  38.835  12.569
50109W        W 9854   1.882  31.642   3.168
50110W        W 9855  27.034  26.644  13.937
50111W        W 9856  39.500  44.424   0.741
50112W        W 9857  16.613  13.666   4.206
50113W        W 9858  16.247  18.296  11.475
50114W        W 9859  40.846   3.885   2.246
50115W        W 9860  21.040  37.490  12.879
50116W        W 9861   4.233  23.168   3.708
50117W        W 9862  26.572  36.576  13.010
50118W        W 9863  24.158  36.002  10.914
50119W        W 9864  13.709  15.696   3.216
50120W        W 9865  34.377   4.300  10.960
50121W        W 9866  20.707  21.214  12.044
50122W        W 9867  12.685   3.726  13.371
50123W        W 9868  41.852  37.560   1.727
50124W        W 9869  16.161  25.020   2.219
50125W        W 9870   9.347  19.263  13.411
50126W        W 9871  18.060  19.177  10.566
50127W        W 9872  17.776  30.457   3.349
50128W        W 9873  24.166  31.472  14.378
50129W        W 9874  31.946  40.874   1.798
50130W        W 9875   7.720  42.977  14.971
50131W        W 9876  22.733  35.910   1.303
50132W        W 9877   5.797  22.181   3.236
50133W        W 9878  18.711  18.745  12.953
50134W        W 9879  10.840  37.837   4.604
50135W        W 9880  32.895  42.291   0.328
50136W        W 9881   0.387  27.543   9.469
50137W        W 9882   1.427   9.377  11.090
50138W        W 9883  30.506  31.038   4.345
50139W        W 9884  19.621   4.351   3.807
50140W        W 9885  10.342  37.034  10.539
50141W        W 9886  23.996  11.793  13.360
50142W        W 9887  24.101  23.502   5.116
50143W        W 9888  22.999   4.858   2.901
50144W        W 9889  13.258  28.555  10.511
50145W        W 9890  19.074  31.017  12.024
50146W        W 9891  18.684  27.627  13.399
50147W        W 9892   5.430  25.519  12.969
50148W        W 9893  36.575  25.043  11.593
50149W        W 9894  20.258  22.214   3.710
50150W        W 9895   6.688  39.998   4.233
50151W        W 9896  27.069  18.182  12.546
50152W        W 9897   3.746  42.783  11.056
50153W        W 9898   2.932   8.190  14.993
50154W        W 9899  28.467  14.813  13.929
50155W        W 9900  28.963  38.431  12.874
50156W        W 9901  33.435  10.302   0.242
50157W        W 9902  36.474  13.722   3.299
50158W        W 9903  32.117  36.873   3.749
50159W        W 9904  16.113   2.412   4.118
50160W        W 9905  37.378  34.902   4.256
50161W        W 9906  43.499  20.170  14.866
50162W        W 9907  42.907  28.478  12.034
50163W        W 9908  26.636  34.394   0.875
50164W        W 9909  19.270  24.039   0.738
50165W        W 9910  31.108  14.203  13.524
50166W        W 9911  18.195  31.087  14.975
50167W        W 9912  17.179  24.538   2.684
50168W        W 9913  11.729   9.394   1.755
50169W        W 9914   4.375  10.184  10.919
50170W        W 9915  23.183   3.396  11.470
50171W        W 9916  16.239  32.062  13.425
50172W        W 9917  36.065  12.713   4.811
50173W        W 9918  15.289  33.414   0.810
50174W        W 9919  43.403  24.124   1.302
50175W        W 9920  11.301  19.102   1.746
50176W        W 9921  31.405   5.790   0.462
50177W        W 9922  32.040  38.065   2.272
50178W        W 9923   4.258   2.815  10.619
50179W        W 9924  30.025  38.505  14.888
50180W        W 9925  12.228  30.430  10.921
50181W        W 9926   5.881  10.321  11.428
50182W        W 9927  39.812   1.304   1.347
50183W        W 9928  17.130   1.454  11.384
50184W        W 9929  18.591  40.324  12.832
50185W        W 9930   0.430  42.324  12.976
50186W        W 9931  32.065  20.189  14.825
50187W        W 9932   9.823  11.778   2.857
50188W        W 9933  19.066  15.166  12.910
50189W        W 9934  15.097   3.928   4.327
50190W        W 9935  25.629  33.446  11.895
50191W        W 9936  28.588  42.930  13.930
50192W        W 9937  35.366   0.472  11.897
50193W        W 9938  40.467  31.064   3.685
50194W        W 9939  22.666  24.543  10.580
50195W        W 9940   5.869  32.602  10.465
50196W        W 9941   8.357  40.921  14.897
50197W        W 9942  14.271  13.649  12.055
50198W        W 9943  25.132   5.320   2.740
50199W        W 9944  17.105  21.594  11.930
50200W        W 9945  24.659  28.479   1.420
50201W        W 9946  39.354   7.846   1.797
50202W        W 9947   7.842  27.564  13.805
50203W        W 9948  14.614   1.797  14.973
50204W        W 9949  31.996  12.749   2.406
50205W        W 9950  32.400  32.096   4.337
50206W        W 9951  38.943  18.074   4.785
50207W        W 9952  21.044  21.567  13.810
50208W        W 9953  28.581  33.930   3.151
50209W        W 9954  16.641  22.527   3.851
50210W        W 9955  28.592  33.066   3.851
50211W        W 9956  42.949   6.362  12.460
50212W        W 9957   8.753  30.091  10.523
50213W        W 9958  40.828   0.984   4.690
50214W        W 9959  11.701  15.630   4.795
50215W        W 9960  17.159  17.301  11.574
50216W        W 9961  16.566   9.756   3.189
50217W        W 9962  28.586   9.759  14.762
50218W        W 9963  38.526  25.555  10.532
50219W        W 9964  25.972  22.709   3.211
50220W        W 9965  30.049   4.368  11.955
50221W        W 9966  24.684  42.477   2.903
50222W        W 9967   7.849  15.296  10.585
50223W        W 9968  26.698   5.759  12.387
50224W        W 9969  10.228  29.663  13.479
50225W        W 9970  30.656  18.110   3.276
50226W        W 9971  39.869   3.301  12.524
50227W        W 9972  13.329  28.464  14.929
50228W        W 9973  28.598  44.320   4.320
50229W        W 9974  20.562  34.603  10.455
50230W        W 9975  28.034  38.021  12.072
50231W        W 9976  13.343  25.040  12.389
50232W        W 9977  10.287  24.130  11.505
50233W        W 9978   9.664  30.060   2.858
50234W        W 9979  11.655   9.773   1.926
50235W        W 9980  26.996  41.890  13.795
50236W        W 9981  44.949  37.476  14.364
50237W        W 9982  13.343  21.248   2.675
50238W        W 9983   0.871  35.082   0.891
50239W        W 9984  31.963  34.983   5.153
50240W        W 9985  11.257   0.259   2.754
50241W        W 9986  38.450  37.470   0.911
50242W        W 9987  17.586  20.168  11.485
50243W        W 9988   2.914   1.789  14.293
50244W        W 9989  11.187  25.976   2.402
50245W        W 9990  35.595  17.635   3.755
50246W        W 9991  34.554  14.301  13.000
50247W        W 9992  21.632  17.207   0.789
50248W        W 9993   3.348  35.036  11.982
50249W        W 9994  44.418  11.752  10.520
50250W        W 9995   5.733  35.975   0.417
50251W        W 9996  20.656   0.312   5.211
50252W        W 9997  41.492  21.201  14.468
50253W        W 9998  25.136  44.924   4.778
50254W        W 9999   0.817  30.151  10.546
50255W        W10000  13.229  11.640  12.866
50256W        W10001   7.779  32.099   0.896
50257W        W10002  17.764  10.664  10.494
50258W        W10003   7.298  35.519   4.184
50259W        W10004  36.882   7.689   3.805
50260W        W10005  27.514  42.422   4.829
50261W        W10006  33.986  36.533  13.973
50262W        W10007  42.296   8.655  11.438
50263W        W10008  44.431  16.584  13.386
50264W        W10009  31.101  24.122   2.402
50265W        W10010  37.931  27.156   3.249
50266W        W10011  36.964   2.312  11.872
50267W        W10012  27.588  10.792  11.373
50268W        W10013  35.459  13.741  13.384
50269W        W10014  39.886  32.085   0.440
50270W        W10015  12.196  27.684   2.276
50271W        W10016  25.629  31.602   0.825
50272W        W10017  25.209  10.377   3.229
50273W        W10018  36.994  24.190  10.898
50274W        W10019   3.709   7.414   4.220
50275W        W10020  38.415  21.216  13.952
50276W        W10021  32.138  11.640  10.517
50277W        W10022  26.056  36.534   2.793
50278W        W10023  28.991   5.766   1.818
50279W        W10024  26.131   5.792  12.488
50280W        W10025   7.846  11.628   3.360
50281W        W10026  43.513  14.770   4.729
50282W        W10027  36.000  11.331   0.442
50283W        W10028   2.958  23.614   1.888
50284W        W10029  24.046   7.262  11.454
50285W        W10030  34.593   4.731   2.862
50286W        W10031  23.717  44.908   2.388
50287W        W10032  31.950  42.794   1.802
50288W        W10033  25.666  42.858   1.701
50289W        W10034  33.116  26.156   0.334
50290W        W10035  21.660   3.933  14.462
50291W        W10036  31.113  44.281   5.190
50292W        W10037  33.877  21.086   4.301
50293W        W10038  29.655  39.857  11.570
50294W        W10039   2.870  25.586  10.411
50295W        W10040   3.297  26.086  14.832
50296W        W10041  41.472  11.361   3.834
50297W        W10042  37.370  28.986  13.947
50298W        W10043  16.074   1.809   0.371
50299W        W10044  14.264  38.944   4.819
50300W        W10045  22.111   0.838  11.894
50301W        W10046  21.102  36.977   4.786
50302W        W10047  37.551   2.256  11.924
50303W        W10048  26.663  24.208   2.867
50304W        W10049   9.797  22.698  10.639
50305W        W10050  40.465  27.995   1.427
50306W        W10051  43.335  40.028   4.140
50307W        W10052  17.791  33.459  11.926
50308W        W10053   1.872   8.746   1.336
50309W        W10054  35.000  33.401   4.751
50310W        W10055  28.046  13.111   0.779
50311W        W10056  12.694   9.242  10.415
50312W        W10057  25.164  37.531   0.878
50313W        W10058  24.018  32.140  10.060
50314W        W10059  18.781  30.088  10.976
50315W        W10060  33.613  39.025   1.748
50316W        W10061  43.512   2.426   0.256
50317W        W10062  28.939  38.977   3.847
50318W        W10063   0.812  40.386  12.949
50319W        W10064   7.714   0.971   4.620
50320W        W10065  42.350  41.980  12.469
50321W        W10066   2.299  29.523  11.990
50322W        W10067   5.300   8.303  14.380
50323W        W10068  31.969  19.710   2.834
50324W        W10069  28.579  44.425   4.692
50325W        W10070  15.768  31.954   3.680
50326W        W10071  23.609  38.910  12.399
50327W        W10072  40.046   6.756   2.401
50328W        W10073  31.116  23.985  13.320
50329W        W10074  15.214  36.542   9.443
50330W        W10075  19.550  40.502   4.723
50331W        W10076  36.503  39.446   3.652
50332W        W10077  38.490  41.884  12.456
50333W        W10078  44.940  39.497  13.954
50334W        W10079  14.311   3.390  12.460
50335W        W10080  41.013  11.681   0.936
50336W        W10081  35.957  13.817   1.296
50337W        W10082  42.371  31.526  13.438
50338W        W10083   0.456  38.537  11.887
50339W        W10084  38.946  21.753  12.489
50340W        W10085  17.582  40.447   1.249
50341W        W10086  38.480  13.292  14.801
50342W        W10087  32.558   2.250  11.473
50343W        W10088  39.458  40.817  13.429
50344W        W10089   1.861  20.262   5.120
50345W        W10090  37.496   4.231  12.928
50346W        W10091  15.637  27.539  12.057
50347W        W10092   2.333   1.447  11.596
50348W        W10093   0.424  23.625   2.312
50349W        W10094  11.723  35.550  12.416
50350W        W10095  19.249   9.342  12.887
50351W        W10096  34.572  22.724  10.449
50352W        W10097  11.656  27.115   0.348
50353W        W10098   8.728  23.703   1.379
50354W        W10099   0.270  36.380  14.435
50355W        W10100  35.025   2.436  10.629
50356W        W10101  18.702  42.983  11.527
50357W        W10102  44.963   0.451   3.315
50358W        W10103   1.899  26.025   1.221
50359W        W10104   0.750  34.935   9.933
50360W        W10105   5.786  41.480  15.000
50361W        W10106  29.443  23.169   2.409
50362W        W10107  41.401   6.794  11.097
50363W        W10108   3.240  18.765  12.054
50364W        W10109  41.381  12.180   4.688
50365W        W10110  36.533  30.058  11.591
50366W        W10111  15.822  11.159  10.540
50367W        W10112   1.360  31.134  13.485
50368W        W10113  37.579  44.289   1.387
50369W        W10114  23.718  18.068  11.594
50370W        W10115   3.222  34.010   3.187
50371W        W10116  36.887  39.381  12.902
50372W        W10117  31.553  16.809   2.771
50373W        W10118  22.126  31.556   1.816
50374W        W10119  22.600  32.115   0.271
50375W        W10120  28.140  14.153  13.980
50376W        W10121  37.844  42.346  13.937
50377W        W10122  40.907  32.601  11.088
50378W        W10123  18.289  38.353  12.477
50379W        W10124  25.590  21.688   3.231
50380W        W10125   4.255  28.037   1.281
50381W        W10126   1.252   7.697   3.168
50382W        W10127   4.725   4.341  14.763
50383W        W10128  44.351  35.377  12.006
50384W        W10129  18.677  26.037   0.735
50385W        W10130   5.416  31.529  10.476
50386W        W10131  40.481  16.290   1.898
50387W        W10132   3.878  18.590   2.766
50388W        W10133   0.396  10.212   4.772
50389W        W10134   6.870  17.786  13.510
50390W        W10135  19.285  21.698  14.323
50391W        W10136  32.063  42.499  11.613
50392W        W10137  31.061  36.403  14.781
50393W        W10138   5.295  39.954  12.832
50394W        W10139  20.129  30.148   0.412
50395W        W10140  25.707   1.846  10.444
50396W        W10141   5.870  25.106   3.236
50397W        W10142  44.010  14.750   2.293
50398W        W10143  39.840  18.250  11.860
50399W        W10144  38.991  32.564   0.413
50400W        W10145  24.010   9.360   3.780
50401W        W10146  21.581   2.393   3.761
50402W        W10147  21.639   6.343   1.847
50403W        W10148  16.249   1.731   4.272
50404W        W10149  14.125   1.786  10.441
50405W        W10150  36.427  41.894   3.354
50406W        W10151  17.655   1.810  14.981
50407W        W10152  17.244   3.873   1.733
50408W        W10153  43.447  21.672  14.336
50409W        W10154  10.692  23.040  12.051
50410W        W10155  12.755  32.431  14.326
50411W        W10156  37.347  12.822   0.436
50412W        W10157   9.883  14.738  11.525
50413W        W10158  32.490  40.986   2.258
50414W        W10159  42.345   0.977  11.048
50415W        W10160  38.467  20.673  12.900
50416W        W10161  28.663  37.019  10.970
50417W        W10162  26.987  26.697   3.339
50418W        W10163  19.094  15.629   4.300
50419W        W10164  23.620  39.008   4.743
50420W        W10165   3.339  35.868  12.563
50421W        W10166   1.844   4.807  11.018
50422W        W10167  17.130  38.477   1.365
50423W        W10168  21.234  16.189   4.725
50424W        W10169  24.515  10.206   4.121
50425W        W10170  27.577  15.805  10.997
50426W        W10171   3.305  40.931   4.626
50427W        W10172   6.721  15.257   2.803
50428W        W10173   2.354  24.061  14.776
50429W        W10174  31.502  10.757   3.713
50430W        W10175  28.062  22.550   1.863
50431W        W10176  31.124  35.904   0.767
50432W        W10177  40.812   1.949   4.198
50433W        W10178   0.965  20.748  11.610
50434W        W10179  44.968   5.688  13.942
50435W        W10180  43.813  33.040  13.542
50436W        W10181  25.646  16.171  10.514
50437W        W10182  30.020  23.490   3.841
50438W        W10183  29.009  18.781  12.547
50439W        W10184  44.840  16.804  11.471
50440W        W10185  31.940   3.220   4.739
50441W        W10186   4.358   8.811  13.361
50442W        W10187   0.854  16.227   4.155
50443W        W10188   2.760  31.996  11.965
50444W        W10189  12.148  20.711  10.476
50445W        W10190  44.876   5.736   3.358
50446W        W10191  10.818  40.318  11.375
50447W        W10192  28.162  38.336  10.604
50448W        W10193  44.394  15.095  10.973
50449W        W10194  43.429  42.816   1.838
50450W        W10195  30.073  38.535  12.576
50451W        W10196  10.384  21.138   4.707
50452W        W10197  36.388  25.470   1.783
50453W        W10198  19.145  22.702  12.052
50454W        W10199  32.898  24.703  10.612
50455W        W10200  31.113   8.851  13.872
50456W        W10201  43.886  17.774  14.996
50457W        W10202  15.776  25.004  14.810
50458W        W10203  40.832  25.624  14.998
50459W        W10204  29.968  24.625   0.915
50460W        W10205  30.012  35.008   0.428
50461W        W10206  13.762  24.221  14.419
50462W        W10207  42.437  41.483   4.192
50463W        W10208  31.048   2.367  14.390
50464W        W10209  25.534  19.110   4.240
50465W        W10210  43.948  30.641  12.345
50466W        W10211  29.055  12.814  14.980
50467W        W10212  36.523  27.591   3.172
50468W        W10213  38.371  23.037  12.398
50469W        W10214  34.023   7.295   4.126
50470W        W10215  10.303  38.481   3.215
50471W        W10216  22.572  33.489   1.834
50472W        W10217   7.362  16.245  11.412
50473W        W10218  28.583  13.146  11.868
50474W        W10219  44.765  42.823   1.365
50475W        W10220  23.012   9.818  12.893
50476W        W10221  38.044  31.453   2.717
50477W        W10222  36.898  39.904  14.508
50478W        W10223  36.990   3.386   2.184
50479W        W10224  27.137  21.112   4.652
50480W        W10225  30.460   6.870  12.525
50481W        W10226  30.012   3.269  12.493
50482W        W10227  35.518  20.099   2.849
50483W        W10228  26.996  19.203   2.311
50484W        W10229  16.646  42.808   4.123
50485W        W10230  26.558   7.748   3.148
50486W        W10231   5.408  13.179   1.812
50487W        W10232   8.675  31.496   3.758
50488W        W10233  11.208   2.241  14.382
50489W        W10234   9.348   1.240  14.978
50490W        W10235  13.816   3.843  14.780
50491W        W10236  34.958  31.412  10.498
50492W        W10237  33.957  13.289   2.811
50493W        W10238   2.941  13.798   0.832
50494W        W10239  29.114  44.927  14.025
50495W        W10240   1.464  16.269  10.995
50496W        W10241  22.119   5.361  12.399
50497W        W10242  11.141   8.318  11.391
50498W        W10243  31.636  37.539   1.877
50499W        W10244  33.970  27.603   3.654
50500W        W10245  44.375  23.520  11.947
50501W        W10246   2.317   0.826  11.498
50502W        W10247  16.247  24.218   4.216
50503W        W10248  40.397  36.391   3.190
50504W        W10249  16.600  39.060  10.949
50505W        W10250  23.224   7.298   1.794
50506W        W10251  10.719  21.189   2.401
50507W        W10252  37.941  42.991   1.832
50508W        W10253  24.162  17.138  11.402
50509W        W10254   9.763  39.525  12.455
50510W        W10255  25.159  44.504   2.328
50511W        W10256   3.951  39.539  11.437
50512W        W10257  14.784  12.331   3.746
50513W        W10258  23.724  33.524  14.791
50514W        W10259  20.271  19.240  12.515
50515W        W10260  44.914  31.979   2.237
50516W        W10261   9.672   8.221  12.411
50517W        W10262   6.383  24.076  14.834
50518W        W10263  15.779  36.926  11.414
50519W        W10264   9.158  27.024   4.151
50520W        W10265  25.556  39.930  14.970
50521W        W10266  27.493   7.811  11.428
50522W        W10267  14.685  40.469   2.301
50523W        W10268  38.003  27.133   0.874
50524W        W10269  15.615  37.937  12.525
50525W        W10270  15.167  38.417  13.937
50526W        W10271  27.993  13.134  14.877
50527W        W10272   2.799   3.392   3.773
50528W        W10273  14.120  36.890   5.598
50529W        W10274   9.178  10.757  14.894
50530W        W10275  27.606  26.103  13.348
50531W        W10276  36.567   5.877  14.873
50532W        W10277  15.692  30.602  11.985
50533W        W10278  37.410  17.641  13.452
50534W        W10279  32.132  19.562   0.909
50535W        W10280   5.396   7.797  11.608
50536W        W10281  34.556   9.690  14.803
50537W        W10282   0.887  30.507  11.902
50538W        W10283  18.199  12.636   4.839
50539W        W10284  17.117  29.507  13.036
50540W        W10285   5.831  42.873  10.119
50541W        W10286   1.323  13.772   0.911
50542W        W10287   6.386   8.899   3.153
50543W        W10288  33.407  31.012   0.891
50544W        W10289   8.790  12.325   2.880
50545W        W10290  31.126  10.213  11.469
50546W        W10291  32.597  30.098  12.968
50547W        W10292  12.846  29.479   3.755
50548W        W10293  43.413   2.466  13.366
50549W        W10294  34.888  12.362   0.446
50550W        W10295  44.989  22.036  11.864
50551W        W10296  38.351  32.438  11.947
50552W        W10297  21.530  34.475   4.645
50553W        W10298  39.836   7.391   1.839
50554W        W10299  11.865  32.030  13.793
50555W        W10300  13.295  43.950  13.319
50556W        W10301  10.814  18.133   4.643
50557W        W10302  21.521  34.471  11.557
50558W        W10303  44.408  13.674   4.262
50559W        W10304  29.438  35.378   1.364
50560W        W10305  43.475  21.681  10.542
50561W        W10306  28.144  33.926  12.482
50562W        W10307   3.752  25.127  14.849
50563W        W10308  40.998  21.173   0.965
50564W        W10309  32.621  35.857   2.249
50565W        W10310   6.406  15.586  12.070
50566W        W10311  11.743   4.319  13.997
50567W        W10312  23.535  26.156  13.007
50568W        W10313  13.775   5.233   2.787
50569W        W10314  11.769  35.935  12.357
50570W        W10315  30.508  17.606  12.502
50571W        W10316  15.690  18.570   1.763
50572W        W10317  36.490   9.756  12.362
50573W        W10318  38.959  44.998   3.283
50574W        W10319   9.690  39.916   0.876
50575W        W10320  10.361  24.208  11.101
50576W        W10321  36.090   7.893  14.836
50577W        W10322   5.412   2.721   1.450
50578W        W10323  24.201  11.860   4.306
50579W        W10324  28.533  23.648  10.409
50580W        W10325  15.146   1.248   0.929
50581W        W10326  34.011   0.789  12.843
50582W        W10327   0.821  24.662  13.381
50583W        W10328  23.986  18.152  11.018
50584W        W10329  29.165   7.807  10.516
50585W        W10330  39.010  32.091  10.958
50586W        W10331  34.928   8.224  13.948
50587W        W10332  26.590  41.467   2.728
50588W        W10333  26.980  12.247   1.888
50589W        W10334  33.126  39.396  11.585
50590W        W10335  19.736   1.268  14.998
50591W        W10336  29.469  17.128   0.251
50592W        W10337  15.619  34.482   5.126
50593W        W10338   4.838  17.767  13.816
50594W        W10339  37.451  15.746   1.822
50595W        W10340   4.329  30.537  13.978
50596W        W10341  14.750  40.928   2.354
50597W        W10342  43.319  21.618  12.477
50598W        W10343  17.619   4.290   2.183
50599W        W10344  21.096  24.552  10.997
50600W        W10345  33.938  39.403   0.833
50601W        W10346  26.066  29.558   0.906
50602W        W10347  34.518  44.868   2.842
50603W        W10348  11.832  34.956   3.265
50604W        W10349  27.068  23.194   4.140
50605W        W10350  12.313  41.482  14.489
50606W        W10351   5.210  27.548   0.439
50607W        W10352  39.838  12.789  14.364
50608W        W10353  33.408  44.386  14.280
50609W        W10354  23.229  12.185  12.070
50610W        W10355   3.893  12.758   0.392
50611W        W10356  13.166  17.792  11.512
50612W        W10357   6.228  35.920   4.144
50613W        W10358   1.919  17.072  12.543
50614W        W10359  32.034   1.795   1.405
50615W        W10360  25.587  19.256   4.763
50616W        W10361  31.135  30.922   4.811
50617W        W10362  10.292  41.526   3.323
50618W        W10363  18.679   5.320   3.764
50619W        W10364  38.447   9.819  10.935
50620W        W10365  24.483  26.143   3.839
50621W        W10366   0.371   1.353  11.091
50622W        W10367   7.735  15.224  11.111
50623W        W10368  23.708  19.166  10.596
50624W        W10369  42.011  41.888   3.776
50625W        W10370   4.263   1.415  11.373
50626W        W10371   9.314  29.011  14.013
50627W        W10372  18.638  14.332  13.817
50628W        W10373  13.676   2.788  12.006
50629W        W10374  34.399  13.816  13.487
50630W        W10375  42.976  43.349   2.688
50631W        W10376  22.020   5.279  14.888
50632W        W10377  24.566  42.409  14.342
50633W        W10378   1.462  24.632  13.064
50634W        W10379  42.968  13.613  13.489
50635W        W10380  16.725  16.594   4.650
50636W        W10381  31.914  19.560   0.328
50637W        W10382   3.338  39.394  11.391
50638W        W10383  28.666  29.631  14.780
50639W        W10384  33.417  25.673  10.939
50640W        W10385  25.663  22.680   1.307
50641W        W10386  24.478   7.409  14.516
50642W        W10387  16.079  29.966   3.839
50643W        W10388  26.164  42.913   4.230
50644W        W10389  36.082   9.882   4.752
50645W        W10390  22.159  30.974   2.735
50646W        W10391  27.666  43.998  12.908
50647W        W10392  10.863  25.997  12.489
50648W        W10393  22.049  34.922  14.993
50649W        W10394  12.800   7.278  10.990
50650W        W10395   9.700  18.606  11.896
50651W        W10396  10.642   6.912   2.274
50652W        W10397   3.331  19.185  13.500
50653W        W10398  19.554   6.195   1.830
50654W        W10399  38.396  13.615   1.254
50655W        W10400   4.852  15.698  10.495
50656W        W10401  16.637  34.952  13.459
50657W        W10402   2.793   4.779  11.404
50658W        W10403   3.938  43.880   2.675
50659W        W10404   1.457  39.356   0.870
50660W        W10405  15.097  34.008   4.145
50661W        W10406  20.182  15.276  10.458
50662W        W10407  41.354  38.359  13.810
50663W        W10408  13.644  36.067  14.322
50664W        W10409   6.394  22.237  11.556
50665W        W10410  36.000  25.083   0.255
50666W        W10411  21.237  32.446   0.410
50667W        W10412  33.514   2.872   2.390
50668W        W10413  27.460   0.254  13.399
50669W        W10414  31.611   1.894  13.811
50670W        W10415  14.825   3.894  11.124
50671W        W10416  31.440   1.843  14.317
50672W        W10417  40.004  24.688  14.513
50673W        W10418  26.083  29.654  12.908
50674W        W10419  35.884  16.274  14.404
50675W        W10420  16.281  43.315   4.775
50676W        W10421  12.124  31.917   4.742
50677W        W10422   7.261   2.295   0.289
50678W        W10423  26.016  25.666   2.380
50679W        W10424  12.145  19.613   4.784
50680W        W10425   9.846  23.027   3.276
50681W        W10426   7.330   1.976   3.861
50682W        W10427  41.944  22.639   4.351
50683W        W10428  16.710  18.763  14.013
50684W        W10429  40.977   8.188  13.411
50685W        W10430  11.256  43.972  13.396
50686W        W10431  43.830  34.906  12.906
50687W        W10432  40.420   4.932  14.353
50688W        W10433   9.372  31.616  14.438
50689W        W10434  40.485   6.292  10.529
50690W        W10435  12.804  30.078   2.751
50691W        W10436  34.998  39.335  14.288
50692W        W10437  31.938  21.187  11.523
50693W        W10438  23.092  28.096  10.467
50694W        W10439   0.333  32.042   2.345
50695W        W10440  13.169  27.542   1.860
50696W        W10441   9.337   6.224   0.444
50697W        W10442   1.873   2.889  13.838
50698W        W10443  24.166  37.864  13.334
50699W        W10444  10.256  42.348   2.207
50700W        W10445   4.894  11.850   3.808
50701W        W10446   2.315  27.589  14.785
50702W        W10447  20.140   7.215   2.867
50703W        W10448   8.349   6.754  14.000
50704W        W10449   3.841  40.981  10.527
50705W        W10450  29.937   2.390  14.497
50706W        W10451   0.448  38.367  12.408
50707W        W10452  27.027  38.879  14.996
50708W        W10453   6.864   3.236  11.469
50709W        W10454   9.352   5.196  11.109
50710W        W10455  42.844  20.675  14.823
50711W        W10456  34.490   0.975  14.315
50712W        W10457  19.736   2.260   0.439
50713W        W10458  14.772  11.310   4.602
50714W        W10459   9.769  27.687   3.358
50715W        W10460   7.372  10.665  14.333
50716W        W10461  35.104  37.368   3.714
50717W        W10462  21.540   4.313  14.410
50718W        W10463  42.883  39.977  12.989
50719W        W10464  35.900   7.286  14.288
50720W        W10465   4.831  14.752   0.422
50721W        W10466  43.490  10.216  13.529
50722W        W10467  44.402  28.131  11.985
50723W        W10468  10.647  20.630   4.321
50724W        W10469  33.938  13.662   3.167
50725W        W10470  35.551  12.636  10.627
50726W        W10471  32.090  42.481  13.980
50727W        W10472   3.326  26.668  12.857
50728W        W10473   4.791  38.904  11.545
50729W        W10474   4.349  37.841   1.823
50730W        W10475   2.794  26.034  13.920
50731W        W10476  30.993  18.082  12.894
50732W        W10477  39.989   9.769  14.952
50733W        W10478   9.646  41.818   1.398
50734W        W10479  42.364  14.234   1.789
50735W        W10480   4.830   5.212  11.609
50736W        W10481  29.960  42.983  12.487
50737W        W10482   4.385  41.907  11.946
50738W        W10483  42.342  44.394   4.616
50739W        W10484  40.545  19.574  13.906
50740W        W10485  27.574  34.479   3.283
50741W        W10486  42.356   0.849  13.887
50742W        W10487  20.768   2.386  14.925
50743W        W10488  36.859  17.186   3.366
50744W        W10489  36.565   0.912   4.773
50745W        W10490  14.324  28.026  12.572
50746W        W10491  35.561  27.482  13.374
50747W        W10492   4.906  20.232   2.834
50748W        W10493   7.740  13.298  11.591
50749W        W10494  25.574  16.214   1.795
50750W        W10495   8.383  42.909  11.859
50751W        W10496  12.256  15.697  14.363
50752W        W10497  14.703  39.460   9.963
50753W        W10498   6.739  28.578  12.850
50754W        W10499  39.828  38.943   2.879
50755W        W10500  21.180   8.276  12.847
50756W        W10501  33.578   1.803  11.498
50757W        W10502  38.542  37.544  12.542
50758W        W10503  41.033  31.510   3.338
50759W        W10504  23.193  22.568  10.576
50760W        W10505  43.429  15.720   2.256
50761W        W10506   4.429   4.800  10.639
50762W        W10507  40.394  10.733  11.378
50763W        W10508  38.328  34.118   2.279
50764W        W10509   1.965  16.105   1.281
50765W        W10510  38.938  34.548   1.285
50766W        W10511  36.073  16.689  13.350
50767W        W10512  25.603  40.924  12.526
50768W        W10513   2.867  22.050   2.829
50769W        W10514  26.548  42.291  10.570
50770W        W10515  33.093  43.352   1.372
50771W        W10516   9.754   8.379   0.302
50772W        W10517  35.073  37.847  14.944
50773W        W10518  23.134   7.216  11.450
50774W        W10519   4.862  20.057   3.202
50775W        W10520  16.269   6.893   0.796
50776W        W10521   6.911   2.864   0.259
50777W        W10522   0.788  11.841   3.321
50778W        W10523  31.014  27.974   0.820
50779W        W10524  16.140  25.107   4.730
50780W        W10525  20.618  41.366  13.374
50781W        W10526  12.342  12.645   4.643
50782W        W10527  44.951  22.727   3.836
50783W        W10528   4.834  33.576   3.749
50784W        W10529   6.820  26.570  14.963
50785W        W10530  16.688  11.192   0.915
50786W        W10531  23.022   2.247  13.508
50787W        W10532   2.284  13.135  14.930
50788W        W10533  20.189  25.200   3.344
50789W        W10534  41.313  11.170   4.640
50790W        W10535   2.338  23.022  12.930
50791W        W10536  33.981  29.646   1.842
50792W        W10537  14.769  44.895  14.010
50793W        W10538  43.970  31.905  12.068
50794W        W10539   2.736  24.149  11.053
50795W        W10540  29.020  23.583   4.286
50796W        W10541  30.467  36.492  13.003
50797W        W10542  30.580  28.466  11.942
50798W        W10543  17.164  21.552  12.524
50799W        W10544  16.219  25.001   0.272
50800W        W10545  40.503  28.595  11.434
50801W        W10546   6.857  23.635   0.816
50802W        W10547  27.125  20.210   4.220
50803W        W10548  12.304   4.382   3.338
50804W        W10549  30.512  11.641  13.880
50805W        W10550  21.023   2.765  12.060
50806W        W10551  27.491   1.449  11.028
50807W        W10552  36.419  33.060  10.436
50808W        W10553   8.750  22.587   0.732
50809W        W10554   1.425  28.045   5.198
50810W        W10555  37.457  19.591  14.496
50811W        W10556  35.067  16.262  14.833
50812W        W10557   7.294  43.014  14.925
50813W        W10558  36.911  40.387   2.399
50814W        W10559   1.433  28.437  12.449
50815W        W10560  19.231  13.244  13.438
50816W        W10561  28.560   8.778  10.941
50817W        W10562  41.833  14.310  14.962
50818W        W10563  20.220   7.247  13.473
50819W        W10564   6.859  31.618   2.371
50820W        W10565  30.933  29.109   2.225
50821W        W10566  17.165  11.154   0.475
50822W        W10567  28.505  36.025  11.967
50823W        W10568   2.421  10.856   1.839
50824W        W10569  27.562  22.680   1.215
50825W        W10570  12.699  32.391  11.387
50826W        W10571  42.431  29.951   0.744
50827W        W10572  19.716  20.626  13.920
50828W        W10573  39.842   8.389  13.316
50829W        W10574  41.389  28.480   1.865
50830W        W10575  19.205   6.375  13.792
50831W        W10576  12.839  28.096   4.268
50832W        W10577  41.471  15.227  11.502
50833W        W10578  27.514  35.535  14.821
50834W        W10579   7.200  26.955  13.823
50835W        W10580   2.343  27.063   0.301
50836W        W10581   5.689  11.622  14.956
50837W        W10582   9.658  26.465  12.080
50838W        W10583  17.108  15.779   4.306
50839W        W10584  31.079  23.576  13.379
50840W        W10585  13.670  26.498  11.042
50841W        W10586  18.689  43.494  10.990
50842W        W10587  19.224  28.994   3.190
50843W        W10588   8.709   2.259   4.143
50844W        W10589  26.169  27.093  11.411
50845W        W10590  16.784  26.675  10.136
50846W        W10591  14.226   5.418   1.747
50847W        W10592  30.613  22.542  13.533
50848W        W10593   9.259   0.804   4.676
50849W        W10594  22.162   6.775   4.695
50850W        W10595  33.095  24.482  14.997
50851W        W10596  10.220   6.828   2.356
50852W        W10597  40.979   3.710   0.435
50853W        W10598  28.443   7.900   1.287
50854W        W10599   5.321  11.634   3.648
50855W        W10600  13.647  11.207   4.786
50856W        W10601  43.004   2.412   3.809
50857W        W10602  21.709  44.350  12.055
50858W        W10603  19.595  22.189  13.828
50859W        W10604   1.375  16.705   3.819
50860W        W10605   0.419  28.024   5.213
50861W        W10606  27.979   2.892   4.263
50862W        W10607   2.422  12.119   3.764
50863W        W10608  42.382  42.850   2.395
50864W        W10609  15.136  18.102   1.434
50865W        W10610  30.995  41.975   3.223
50866W        W10611   9.294   7.325   2.868
50867W        W10612  34.615  44.756   0.732
50868W        W10613  36.552  35.537  14.792
50869W        W10614  21.130  44.903   2.212
50870W        W10615  40.311  33.110  13.898
50871W        W10616  17.709  31.979   3.804
50872W        W10617  15.823  36.415   1.428
50873W        W10618  12.845  13.297  11.461
50874W        W10619   6.398  27.111   0.873
50875W        W10620   3.805  32.588  14.970
50876W        W10621  42.406  37.578   0.436
50877W        W10622  23.163  28.658   4.797
50878W        W10623  16.787  12.287   2.713
50879W        W10624  14.162  16.247   3.375
50880W        W10625  42.332  44.900  10.956
50881W        W10626  26.005  13.132   2.367
50882W        W10627  28.510   8.855   4.837
50883W        W10628  38.994   4.343   0.793
50884W        W10629  40.853  18.742   2.789
50885W        W10630  15.118  12.723   2.288
50886W        W10631   7.286  36.956   4.314
50887W        W10632  12.247  17.642   3.257
50888W        W10633  31.118  42.475   1.905
50889W        W10634  17.709  17.283  12.065
50890W        W10635  40.306  40.388   1.872
50891W        W10636  12.635   6.743  14.335
50892W        W10637  44.360   2.775   0.463
50893W        W10638  32.136  24.722  13.927
50894W        W10639   7.372  21.135  14.417
50895W        W10640  22.177  36.398  12.545
50896W        W10641  30.053  30.037   1.814
50897W        W10642   3.751  28.504   4.213
50898W        W10643  43.460  14.625  14.877
50899W        W10644   5.405  19.546  10.984
50900W        W10645   6.735  26.959  12.074
50901W        W10646  30.081   7.249  14.876
50902W        W10647  23.146  32.042  13.029
50903W        W10648  26.542  30.553  12.358
50904W        W10649  42.836  37.836   1.900
50905W        W10650  32.599  40.960   4.224
50906W        W10651  11.652  32.544  12.530
50907W        W10652   0.268  23.099   1.840
50908W        W10653   2.304  43.842  11.878
50909W        W10654   0.320  26.602   2.201
50910W        W10655  32.474  30.091   5.322
50911W        W10656  15.604  12.260   1.722
50912W        W10657   9.689  32.536   3.160
50913W        W10658  34.407   1.835   3.726
50914W        W10659  21.017  24.014   4.198
50915W        W10660  36.533   9.257  12.451
50916W        W10661  11.243  18.124   1.228
50917W        W10662  10.329  10.877   2.760
50918W        W10663  42.026  34.490   3.656
50919W        W10664  44.766  20.670   0.246
50920W        W10665   1.951  28.475  10.990
50921W        W10666  37.870  41.317   0.952
50922W        W10667  35.363  17.213  10.459
50923W        W10668  41.508  10.862  14.937
50924W        W10669  18.609  35.587  12.919
50925W        W10670   8.304  37.385  13.333
50926W        W10671  16.119   4.276  12.481
50927W        W10672  27.149   3.733   1.256
50928W        W10673  29.139  18.214   4.193
50929W        W10674  37.539  19.691   3.373
50930W        W10675  39.037  40.403   0.435
50931W        W10676  39.378  28.036   1.926
50932W        W10677  18.589  35.593  13.308
50933W        W10678  20.554  32.574   4.786
50934W        W10679  15.088   0.965  10.500
50935W        W10680  33.067   6.684   0.927
50936W        W10681  27.594  11.311   4.331
50937W        W10682  28.680   4.386  13.525
50938W        W10683  14.308   6.915  11.482
50939W        W10684  24.550  22.680  13.411
50940W        W10685  12.775   9.323   4.771
50941W        W10686   5.784   2.885  13.949
50942W        W10687  34.494   7.883   1.857
50943W        W10688   1.412  29.447  11.880
50944W        W10689  33.058  40.820  13.329
50945W        W10690  22.129  30.052  11.415
50946W        W10691  29.459   8.717   2.350
50947W        W10692  29.061  33.030  10.620
50948W        W10693  20.628   5.693   1.321
50949W        W10694  31.483  39.369  14.305
50950W        W10695  33.931  19.669  12.910
50951W        W10696  41.447   7.339  13.925
50952W        W10697  13.125  36.402   0.397
50953W        W10698  34.956  29.103   3.230
50954W        W10699  35.873  24.651  11.396
50955W        W10700  43.943  16.075   0.784
50956W        W10701   3.729   3.859  10.990
50957W        W10702  44.791  14.598   1.704
50958W        W10703  26.973  28.556   5.276
50959W        W10704  28.584   6.388  13.433
50960W        W10705  30.605  26.582  13.936
50961W        W10706  21.615   9.201  13.805
50962W        W10707   6.407   6.761  12.881
50963W        W10708  31.945  34.028  14.001
50964W        W10709   7.853   7.262   0.770
50965W        W10710  26.504  22.047  10.570
50966W        W10711  32.439   9.241  12.556
50967W        W10712  32.138  42.291   2.822
50968W        W10713  43.826  25.157  13.459
50969W        W10714  11.679  13.632  14.458
50970W        W10715   0.968  36.461   0.443
50971W        W10716   2.306  20.262   3.629
50972W        W10717  18.683  44.892   2.743
50973W        W10718  35.379   8.221   4.653
50974W        W10719  41.469  43.822   4.746
50975W        W10720  14.130   9.233  11.111
50976W        W10721  17.224  41.474   2.820
50977W        W10722  16.080  15.799  13.895
50978W        W10723  18.286  15.612   3.644
50979W        W10724  17.071  35.945   5.142
50980W        W10725   0.986  28.558  11.967
50981W        W10726   9.286   4.318  14.906
50982W        W10727  20.123  41.991   2.840
50983W        W10728  31.064   4.802   0.942
50984W        W10729  30.068  40.446  13.885
50985W        W10730  40.037   7.348   2.706
50986W        W10731   0.957   7.351  11.501
50987W        W10732   7.680  22.668   4.239
50988W        W10733  13.219  22.612  14.814
50989W        W10734   7.317  14.783  14.005
50990W        W10735  26.974   6.847  14.992
50991W        W10736  30.421  25.549   3.790
50992W        W10737   7.870  42.004   3.159
50993W        W10738   0.269   7.674  10.563
50994W        W10739  30.037  38.950  10.985
50995W        W10740  20.035  39.483   0.420
50996W        W10741   1.349  37.884   2.349
50997W        W10742  43.422  42.489   1.382
50998W        W10743  20.558   4.372   3.705
50999W        W10744  36.484  38.406  11.052
51000W        W10745  32.087   7.368   0.483
51001W        W10746  41.873  30.093   4.252
51002W        W10747   4.724   2.470   2.895
51003W        W10748  39.813  28.948   0.422
51004W        W10749   5.802  38.341   0.805
51005W        W10750  14.172  12.303   2.322
51006W        W10751  18.724   3.829   3.159
51007W        W10752   1.899  23.604  12.014
51008W        W10753  34.896   4.905   0.403
51009W        W10754   8.217  11.336  14.293
51010W        W10755  12.311  29.035  13.968
51011W        W10756   6.742  26.646   2.271
51012W        W10757  14.786  31.522   2.367
51013W        W10758   2.846  25.559   2.822
51014W        W10759  21.171   7.806   2.414
51015W        W10760  10.645  43.347   1.731
51016W        W10761  34.938  42.999  14.845
51017W        W10762   9.329   4.722   1.366
51018W        W10763   7.679   2.287   4.213
51019W        W10764  24.045  14.668  11.098
51020W        W10765  39.414  13.689  10.986
51021W        W10766  39.553  36.548  13.484
51022W        W10767  25.187  25.107   2.344
51023W        W10768  34.444  41.985   4.764
51024W        W10769  11.358  42.326  13.360
51025W        W10770  16.711  13.731  12.921
51026W        W10771  25.964  13.658  14.823
51027W        W10772  44.879  43.348  11.108
51028W        W10773  34.536   2.410  10.898
51029W        W10774  23.025  15.290   4.297
51030W        W10775  43.904  36.484  12.523
51031W        W10776  30.599  41.523  10.433
51032W        W10777  28.942   1.408  12.888
51033W        W10778  40.375   8.391   3.334
51034W        W10779  15.582   1.934   1.739
51035W        W10780  30.087  27.638   5.226
51036W        W10781   1.448  15.116  14.834
51037W        W10782  14.772  35.089  12.924
51038W        W10783  34.479  17.688   2.831
51039W        W10784  16.153  31.980   4.660
51040W        W10785   0.256  20.722   4.178
51041W        W10786  35.421  40.030   0.251
51042W        W10787  14.098  18.776  12.504
51043W        W10788  36.051  24.581  14.869
51044W        W10789  23.003  41.938   2.777
51045W        W10790  16.760  37.917   0.257
51046W        W10791   6.840  10.214   0.272
51047W        W10792   0.300  44.432   2.208
51048W        W10793  36.421  16.144  10.645
51049W        W10794  43.414  40.830   4.789
51050W        W10795  38.481  22.122  13.425
51051W        W10796  13.648  41.527   0.409
51052W        W10797   1.368  13.146  14.375
51053W        W10798   8.249   3.255  12.862
51054W        W10799  23.984  42.496  12.927
51055W        W10800  25.190  25.600   2.262
51056W        W10801  30.475  14.752   1.906
51057W        W10802   1.945   0.427   2.886
51058W        W10803   1.782  27.154   4.667
51059W        W10804  12.848   9.295  14.275
51060W        W10805  19.705  21.729   3.697
51061W        W10806  43.899  11.787   0.754
51062W        W10807  30.457   4.388  13.890
51063W        W10808  10.869  26.000  10.911
51064W        W10809  16.198  12.633  11.088
51065W        W10810  13.282  17.714  12.379
51066W        W10811  13.789   0.449   1.373
51067W        W10812   1.330   6.281  10.499
51068W        W10813  14.174  36.361  13.499
51069W        W10814  17.078  27.079  11.931
51070W        W10815  28.055   3.390  14.321
51071W        W10816   6.356  25.503   1.773
51072W        W10817  37.398   5.839  12.538
51073W        W10818  43.310   0.950   0.363
51074W        W10819  37.997  41.837  13.526
51075W        W10820  12.680  17.574   0.816
51076W        W10821  27.942  32.533   1.383
51077W        W10822  32.899   5.836  10.998
51078W        W10823  15.672   0.933  14.782
51079W        W10824  27.106  15.298   0.746
51080W        W10825  20.571  42.807  14.997
51081W        W10826  30.467  32.044  10.992
51082W        W10827  44.848   9.178  12.030
51083W        W10828   9.245   0.950  11.903
51084W        W10829  34.947  18.680   2.224
51085W        W10830  21.224  31.921   2.341
51086W        W10831  21.704  27.490  12.055
51087W        W10832  38.474  24.588   3.821
51088W        W10833  39.417  12.719   1.249
51089W        W10834   8.751  34.475   1.323
51090W        W10835  35.370  36.052   2.411
51091W        W10836  25.124   3.844   0.450
51092W        W10837  14.180   9.700  12.347
51093W        W10838  13.289   7.891  11.529
51094W        W10839  38.998  33.983  10.567
51095W        W10840   9.342  28.966   3.776
51096W        W10841  26.994  20.560   2.861
51097W        W10842   4.314  10.816   4.719
51098W        W10843   6.920  37.937   3.254
51099W        W10844  21.240  23.499   3.198
51100W        W10845   2.467   8.351  10.438
51101W        W10846  24.184  33.451   4.208
51102W        W10847   4.420  23.530   3.860
51103W        W10848  28.657   0.341  12.053
51104W        W10849  28.541  44.892   0.852
51105W        W10850   7.379  18.212   2.336
51106W        W10851   5.909  10.675   3.672
51107W        W10852  28.574  17.277   3.290
51108W        W10853  28.634   1.759   2.867
51109W        W10854  32.981  14.241  12.855
51110W        W10855  28.668  28.655   0.260
51111W        W10856  12.178  22.021   0.756
51112W        W10857  18.124  38.392   1.282
51113W        W10858   1.242  15.250   4.616
51114W        W10859  39.962   1.317  11.073
51115W        W10860  25.559  28.184   2.225
51116W        W10861  31.582  17.243   4.302
51117W        W10862  27.617   0.765  11.458
51118W        W10863  42.808  31.950  11.092
51119W        W10864  22.527  25.500  13.404
51120W        W10865  16.237   6.840  14.015
51121W        W10866  22.669  41.958  13.312
51122W        W10867  26.088   6.309  12.515
51123W        W10868  37.055   5.798   3.850
51124W        W10869   8.659  21.661   3.357
51125W        W10870  40.037  44.979  13.320
51126W        W10871  34.116  13.711  10.594
51127W        W10872  27.168  11.758  10.941
51128W        W10873  25.543   7.202   5.181
51129W        W10874  34.003  44.001   0.457
51130W        W10875  22.141  28.541  12.363
51131W        W10876  23.692   1.340   3.776
51132W        W10877  12.787  44.300   3.324
51133W        W10878  27.953  17.116  13.852
51134W        W10879   3.441  33.010   0.892
51135W        W10880   2.858  32.403   0.425
51136W        W10881  32.071   9.678   4.130
51137W        W10882  25.561  16.742  13.033
51138W        W10883   5.196  34.035  11.911
51139W        W10884  13.221  29.979  12.026
51140W        W10885  41.041  40.466  10.465
51141W        W10886  22.587  35.565  12.879
51142W        W10887   5.863  17.090  14.841
51143W        W10888  10.756   4.373   0.905
51144W        W10889  16.085   0.303  10.479
51145W        W10890  31.003  28.029   4.794
51146W        W10891  21.112  43.954  11.611
51147W        W10892   0.768  35.057  12.496
51148W        W10893  36.865  30.091  14.945
51149W        W10894  16.302  26.090   4.738
51150W        W10895   6.283  28.634   2.181
51151W        W10896  40.040  15.684  10.439
51152W        W10897  14.704   5.260  10.415
51153W        W10898  18.739  17.207  12.019
51154W        W10899  12.228  44.875  12.423
51155W        W10900  27.633  44.887  14.464
51156W        W10901  31.500  25.047  13.473
51157W        W10902  31.403   9.776   0.923
51158W        W10903  23.197  27.955  11.909
51159W        W10904  21.736  37.831  13.376
51160W        W10905  29.493   3.302   2.314
51161W        W10906   5.866  21.166  10.486
51162W        W10907  31.514   0.318  10.548
51163W        W10908  14.634   0.430   4.133
51164W        W10909  39.885  12.819   1.865
51165W        W10910   9.180  34.596   2.348
51166W        W10911  19.617  29.160   4.282
51167W        W10912  40.992  32.026   1.929
51168W        W10913  13.138  29.014  10.492
51169W        W10914  19.725   9.162  12.411
51170W        W10915   6.746  11.683  10.491
51171W        W10916   2.842  32.891   2.417
51172W        W10917  36.499  17.625  13.945
51173W        W10918   2.307  36.021   3.361
51174W        W10919  35.988  31.056  14.013
51175W        W10920  19.081  18.678   2.356
51176W        W10921   6.207  29.423   5.202
51177W        W10922   4.804  43.928   0.784
51178W        W10923   4.216  25.088  13.540
51179W        W10924  38.000   0.450   0.386
51180W        W10925  38.400  44.473   3.305
51181W        W10926  27.508  37.071   3.757
51182W        W10927  10.740  11.290  10.579
51183W        W10928  24.551  44.889   3.804
51184W        W10929  20.063  15.315   2.790
51185W        W10930   1.302  34.873  10.140
51186W        W10931  19.258  36.058   1.382
51187W        W10932   4.886  44.408  13.932
51188W        W10933  30.159  24.652   4.681
51189W        W10934  37.959   6.337   4.311
51190W        W10935   4.328   8.356  14.956
51191W        W10936  32.887  39.882  14.835
51192W        W10937  28.525  14.613   2.271
51193W        W10938   2.870  27.570  11.565
51194W        W10939  15.153  15.187  11.533
51195W        W10940  15.629  14.709  13.335
51196W        W10941  13.818  21.586  11.457
51197W        W10942  12.665  31.545  14.414
51198W        W10943  38.901  43.427   1.309
51199W        W10944  40.318  37.541  10.428
51200W        W10945  38.983  38.894   2.673
51201W        W10946  29.640  23.539  12.552
51202W        W10947   0.335  32.433   0.909
51203W        W10948  15.652  22.740   5.258
51204W        W10949   7.216   4.441   3.714
51205W        W10950  27.955  26.534   1.276
51206W        W10951  36.098  24.528  11.044
51207W        W10952  42.336  28.046  11.554
51208W        W10953  21.073   3.300   3.168
51209W        W10954  35.987  11.226   4.708
51210W        W10955  34.899  20.532   3.170
51211W        W10956   6.249  37.921  12.885
51212W        W10957  21.563  13.318   3.373
51213W        W10958  40.386  15.188   3.171
51214W        W10959  38.454  23.622   0.327
51215W        W10960  30.029  11.200   2.346
51216W        W10961  43.328  31.929  13.010
51217W        W10962  28.473  33.943   2.695
51218W        W10963  23.701  32.429   1.428
51219W        W10964  12.674  37.346  14.950
51220W        W10965   8.342  27.493  11.899
51221W        W10966  16.222   0.811   4.825
51222W        W10967  39.893  37.082  12.039
51223W        W10968   9.157  39.958   2.718
51224W        W10969  28.535  15.084  13.003
51225W        W10970  29.588  14.641  14.859
51226W        W10971  22.616   4.252   9.996
51227W        W10972  12.154  37.564  11.994
51228W        W10973  41.850  43.773  13.400
51229W        W10974  43.337  28.092   3.808
51230W        W10975  26.634  23.137  11.883
51231W        W10976  26.101   8.660   4.760
51232W        W10977  15.635  38.049   3.769
51233W        W10978  18.620  16.180   4.343
51234W        W10979  10.757   1.359   0.764
51235W        W10980  10.235  36.068   5.205
51236W        W10981  40.352  41.038  10.898
51237W        W10982  28.100  37.993  11.030
51238W        W10983   2.965  15.314  11.046
51239W        W10984  11.851  38.458   3.721
51240W        W10985  21.593   0.263   2.838
51241W        W10986  33.421  20.609   1.709
51242W        W10987  34.498  16.652  10.114
51243W        W10988  26.546   7.813  13.948
51244W        W10989  14.794  43.911  12.410
51245W        W10990  21.056  21.083   0.359
51246W        W10991   0.870  30.091   0.899
51247W        W10992  11.332  37.376   1.274
51248W        W10993  35.031   9.800  13.524
51249W        W10994  27.036  14.702   3.868
51250W        W10995  33.583   4.251  14.812
51251W        W10996  36.972  28.468  10.938
51252W        W10997   5.865  30.962   1.805
51253W        W10998  17.202  35.064   2.694
51254W        W10999  21.530  22.624  11.916
51255W        W11000  22.175  28.954   3.652
51256W        W11001  23.603  37.526  10.531
51257W        W11002  44.955  20.628  11.928
51258W        W11003  17.573  13.338  10.470
51259W        W11004  30.616   8.817   5.302
51260W        W11005  25.504  31.021   2.211
51261W        W11006  29.980  16.717  10.408
51262W        W11007  21.046  23.643  14.892
51263W        W11008  22.553  21.061   5.244
51264W        W11009  19.160  35.505  14.826
51265W        W11010  25.564  44.827  14.906
51266W        W11011  36.039   3.842  10.566
51267W        W11012   2.724  36.398   3.750
51268W        W11013  31.036   2.295   4.692
51269W        W11014  27.656  43.451   2.727
51270W        W11015   6.792  42.900  10.638
51271W        W11016  41.810  41.446  13.915
51272W        W11017  17.574  35.438  13.793
51273W        W11018   5.322   4.878  11.463
51274W        W11019   1.758  17.189  13.852
51275W        W11020  24.098  37.881  14.509
51276W        W11021   9.880   4.288  10.913
51277W        W11022  12.746  10.675  14.810
51278W        W11023  43.389   9.334   3.640
51279W        W11024  37.907  28.016   3.736
51280W        W11025  32.132  23.685   3.809
51281W        W11026  26.143  17.630  12.888
51282W        W11027  37.563  37.034  11.373
51283W        W11028  32.406  35.091  11.967
51284W        W11029  18.569   9.237  13.433
51285W        W11030  31.450  18.660   1.326
51286W        W11031  29.056  38.938   4.114
51287W        W11032   5.825   9.742   1.769
51288W        W11033  27.091  25.551   1.427
51289W        W11034   5.725  18.124   3.708
51290W        W11035   0.943  32.896  10.413
51291W        W11036  41.012  22.680   4.204
51292W        W11037  38.037  26.131   4.217
51293W        W11038  21.146  43.279  14.002
51294W        W11039  18.115  15.273  12.397
51295W        W11040  28.934   3.292   4.353
51296W        W11041  32.991   2.769   1.835
51297W        W11042  28.549  44.798  12.384
51298W        W11043  27.159  29.031   2.896
51299W        W11044  27.448  23.616   2.890
51300W        W11045  32.083   1.937   4.181
51301W        W11046  43.982  16.299  13.945
51302W        W11047  21.550  23.705   0.767
51303W        W11048  42.966   4.268  14.363
51304W        W11049  42.885  24.105   2.373
51305W        W11050  30.530  15.100  14.416
51306W        W11051  44.290  40.831  13.793
51307W        W11052  12.671   1.284  10.421
51308W        W11053  11.269   6.357   4.239
51309W        W11054  11.299  18.232   3.215
51310W        W11055  19.079   1.455   3.346
51311W        W11056  13.667  14.806  14.775
51312W        W11057  38.045   6.916   4.661
51313W        W11058  27.676   7.669   2.330
51314W        W11059  42.902  43.812  13.347
51315W        W11060  10.648  41.877  11.405
51316W        W11061  40.311  26.975   0.801
51317W        W11062  35.408  31.955   0.915
51318W        W11063  23.180  33.955   2.687
51319W        W11064   3.396   7.851  14.793
51320W        W11065  30.566  26.150  13.919
51321W        W11066  36.041  26.190  12.493
51322W        W11067  19.698  25.564  13.500
51323W        W11068   4.789  25.622   4.807
51324W        W11069  40.357  37.450  12.440
51325W        W11070  35.380  28.563   0.409
51326W        W11071  10.262  36.918   1.838
51327W        W11072  35.071  15.308   2.218
51328W        W11073   3.846  35.500  11.976
51329W        W11074  28.981  35.483  12.895
51330W        W11075  12.806  37.039  13.900
51331W        W11076  40.955  41.828  14.847
51332W        W11077  36.593   3.441  13.971
51333W        W11078  42.492  40.823  10.599
51334W        W11079  24.606  21.616  13.485
51335W        W11080  34.410   1.397  10.997
51336W        W11081  41.472   4.709   4.626
51337W        W11082  10.681  42.778  12.385
51338W        W11083  37.527  32.465  12.929
51339W        W11084   5.836  24.560  13.371
51340W        W11085  32.454   7.417  12.992
51341W        W11086   6.405  13.337  13.841
51342W        W11087  19.780  18.765   4.605
51343W        W11088  29.490  31.423  13.971
51344W        W11089  37.859   9.781  11.522
51345W        W11090   5.437  36.369   2.813
51346W        W11091  15.601   5.915   1.844
51347W        W11092   6.304  10.640   1.335
51348W        W11093  36.081  39.873  14.820
51349W        W11094  25.526  43.922  13.061
51350W        W11095  35.035  40.344   4.694
51351W        W11096  25.170   4.795   3.732
51352W        W11097  16.760   8.744  11.070
51353W        W11098  17.084  41.438   1.757
51354W        W11099  16.136   7.320  11.527
51355W        W11100  41.411  15.104   3.289
51356W        W11101  29.925  38.052   2.673
51357W        W11102  39.935   4.734   2.827
51358W        W11103   9.216  30.039   2.869
51359W        W11104  24.655  30.502   0.821
51360W        W11105  36.486  31.086   0.750
51361W        W11106  41.854   3.940  13.890
51362W        W11107  26.689   7.323   2.345
51363W        W11108  30.055  13.749   4.350
51364W        W11109   6.816  14.315   1.404
51365W        W11110  36.493  44.010  11.090
51366W        W11111  14.619   5.257   2.766
51367W        W11112  43.493  21.513  12.896
51368W        W11113   4.269  40.341  11.371
51369W        W11114  43.352  30.551  11.489
51370W        W11115  44.955   1.279  10.592
51371W        W11116   4.351  23.066   1.288
51372W        W11117  32.469   0.251  14.781
51373W        W11118  42.412  30.520  12.046
51374W        W11119  21.033  24.162   4.710
51375W        W11120  44.854   9.326  13.547
51376W        W11121  16.103  22.058  12.393
51377W        W11122  29.960  16.210   1.745
51378W        W11123  23.147   7.740   3.832
51379W        W11124  20.709  26.954  11.925
51380W        W11125  23.223   3.772   2.742
51381W        W11126  18.672  32.420  13.433
51382W        W11127  35.945  21.096  11.551
51383W        W11128  25.567  28.548   2.244
51384W        W11129  18.674  20.711   0.770
51385W        W11130  36.090  23.647  11.389
51386W        W11131  10.856  35.995  14.419
51387W        W11132   4.897   9.225  14.858
51388W        W11133  23.630  36.347  13.361
51389W        W11134  18.219   8.842   2.710
51390W        W11135  12.243  38.420   1.821
51391W        W11136   3.772  35.381  11.029
51392W        W11137  17.741  19.559   4.265
51393W        W11138  15.110  35.019  12.911
51394W        W11139  34.986  40.800  12.488
51395W        W11140  30.914  21.126   2.723
51396W        W11141  35.919  10.774  10.405
51397W        W11142  15.238  37.860   1.929
51398W        W11143  26.082   2.326  13.887
51399W        W11144  15.588  41.937  14.782
51400W        W11145  17.673  42.295   0.358
51401W        W11146  37.914  41.973  10.638
51402W        W11147  20.750  12.646  12.571
51403W        W11148  29.600  33.010   3.703
51404W        W11149   1.916   9.391  14.305
51405W        W11150  10.815  31.481  14.402
51406W        W11151   8.769  40.390  10.905
51407W        W11152  27.474  40.866   1.350
51408W        W11153  16.688  41.813   0.935
51409W        W11154  35.540  10.736   4.829
51410W        W11155  31.144  23.671  10.904
51411W        W11156  19.269  10.780  10.545
51412W        W11157   7.242  34.925  10.920
51413W        W11158   4.243  25.157   0.949
51414W        W11159  17.769  25.552   1.820
51415W        W11160  15.773  34.918   5.677
51416W        W11161   8.211  41.536   0.331
51417W        W11162  11.334  36.067  13.336
51418W        W11163  24.146   2.335   0.828
51419W        W11164   4.933  24.189   9.992
51420W        W11165   7.770  13.659   3.664
51421W        W11166  41.299  28.998  12.992
51422W        W11167   9.322  26.587  13.310
51423W        W11168  21.069  27.582   1.248
51424W        W11169   7.689   9.795  13.543
51425W        W11170  39.834   8.170   4.627
51426W        W11171  35.900   4.925  13.431
51427W        W11172  22.123   4.220   0.791
51428W        W11173  11.128  38.434  11.868
51429W        W11174  27.668  41.798  11.540
51430W        W11175   5.848   4.317   1.408
51431W        W11176  34.577  11.177   3.264
51432W        W11177  33.016  43.826  13.409
51433W        W11178  22.560  22.055  12.958
51434W        W11179  20.058   9.304   0.784
51435W        W11180   7.807  22.201   2.384
51436W        W11181  29.637  43.969  13.829
51437W        W11182  34.884  39.927   2.356
51438W        W11183  15.709  35.403  14.945
51439W        W11184  31.921  36.512   2.351
51440W        W11185   1.830   1.904  14.311
51441W        W11186  10.322  16.587  14.370
51442W        W11187  14.674  38.475   4.806
51443W        W11188   0.903   1.932   1.275
51444W        W11189  38.878  35.949  13.967
51445W        W11190  28.943   5.336   1.413
51446W        W11191  17.786   3.288   1.932
51447W        W11192  44.805   4.396   3.194
51448W        W11193  35.509  10.707   2.302
51449W        W11194   0.803  17.168   4.721
51450W        W11195  27.975  43.461   1.849
51451W        W11196  40.449   2.918   2.229
51452W        W11197  33.489  20.614  13.917
51453W        W11198  33.998  36.381  10.425
51454W        W11199  30.547  36.909   4.189
51455W        W11200  23.108  44.809   2.777
51456W        W11201  39.555  33.460  14.336
51457W        W11202  34.048  36.524  14.280
51458W        W11203   1.891  24.677  11.492
51459W        W11204  18.053  13.740  13.434
51460W        W11205  36.841  32.635  10.405
51461W        W11206   5.317  29.982   1.270
51462W        W11207  10.251   3.328  10.508
51463W        W11208  40.447  24.120   0.963
51464W        W11209  36.860  39.841   0.847
51465W        W11210  12.772  34.576  14.026
51466W        W11211  34.989  28.577   2.337
51467W        W11212  28.165  38.428   1.926
51468W        W11213   5.367  38.352  10.125
51469W        W11214  13.303  40.938  12.560
51470W        W11215  38.032  25.496   0.797
51471W        W11216   7.840  40.394  11.923
51472W        W11217  12.625  30.613   2.383
51473W        W11218  36.390  22.075   0.441
51474W        W11219  36.542  19.672   0.875
51475W        W11220   4.763  34.068  11.069
51476W        W11221  10.726  22.211  11.551
51477W        W11222  29.499  39.482   1.788
51478W        W11223   2.821  14.662  13.522
51479W        W11224   3.430  38.559   3.770
51480W        W11225   9.207  38.407   0.461
51481W        W11226  18.272  31.108  12.449
51482W        W11227  42.870  18.658   3.274
51483W        W11228  41.434  33.132  10.544
51484W        W11229  15.306  41.797   1.246
51485W        W11230  33.538  10.220   1.226
51486W        W11231  34.979   4.806   1.737
51487W        W11232   7.307  12.824  11.888
51488W        W11233  36.888   1.261   4.720
51489W        W11234   9.731   3.259  13.903
51490W        W11235  26.629   3.739  10.519
51491W        W11236  18.773   5.388  11.988
51492W        W11237  19.678  14.131   0.404
51493W        W11238   7.803   0.422   3.288
51494W        W11239   3.793   9.843  11.980
51495W        W11240  30.449  27.983  11.510
51496W        W11241  10.333  38.466  10.889
51497W        W11242  39.337  36.056   3.305
51498W        W11243  22.135  17.753  14.353
51499W        W11244  22.715   9.209   4.771
51500W        W11245  32.553  41.797   3.786
51501W        W11246  39.868   7.762   1.437
51502W        W11247  17.617   4.793  11.946
51503W        W11248  23.552  42.290   0.756
51504W        W11249  34.046  30.657   3.320
51505W        W11250  11.171  37.383  14.423
51506W        W11251  37.407  40.887   4.178
51507W        W11252  37.352  12.241   2.796
51508W        W11253   9.241  35.457  12.428
51509W        W11254  28.668   8.705   2.867
51510W        W11255  34.520   5.853  11.559
51511W        W11256  22.642  29.447  10.084
51512W        W11257   6.230  10.336  11.086
51513W        W11258  12.314  11.208  11.036
51514W        W11259  30.007  40.879   4.617
51515W        W11260  31.983  26.136  12.505
51516W        W11261   2.462  23.612  13.421
51517W        W11262  18.788   1.828   4.120
51518W        W11263  26.599  15.209   3.235
51519W        W11264  44.473  35.008   4.687
51520W        W11265  34.033  33.919  14.355
51521W        W11266  13.680   0.812  13.316
51522W        W11267   8.191  42.468   0.930
51523W        W11268   3.351  42.401  11.932
51524W        W11269  10.148  31.488   1.865
51525W        W11270   8.202  15.193   3.283
51526W        W11271   1.428  25.508   3.344
51527W        W11272  24.526  13.790   0.299
51528W        W11273   2.804  37.448   0.730
51529W        W11274  35.002  28.604   4.219
51530W        W11275   8.404  33.441  14.333
51531W        W11276  29.536  14.598   3.829
51532W        W11277  42.331  16.140   4.291
51533W        W11278  17.216  43.908  11.087
51534W        W11279  42.881  31.060   4.190
51535W        W11280  19.265  12.157  11.936
51536W        W11281   1.297  36.431  10.045
51537W        W11282  11.680   2.733   0.452
51538W        W11283   6.315  31.503  12.002
51539W        W11284  40.004   9.665   0.734
51540W        W11285   2.919  41.790  14.309
51541W        W11286  10.745  15.248   3.743
51542W        W11287  24.160  27.617   1.844
51543W        W11288  28.031  38.356   2.390
51544W        W11289  43.443   6.244  13.047
51545W        W11290   4.403  37.552  14.439
51546W        W11291  42.438   5.796  12.080
51547W        W11292   0.311  44.937   2.777
51548W        W11293  33.578   9.320  11.025
51549W        W11294  32.534  29.002  11.864
51550W        W11295   2.795  13.629  13.941
51551W        W11296  11.132   0.985  13.390
51552W        W11297   6.912  17.692   2.401
51553W        W11298  32.888  19.709  12.998
51554W        W11299  15.578   0.916   0.323
51555W        W11300  39.513   1.932  11.006
51556W        W11301  23.127  19.662   4.803
51557W        W11302   9.879   9.689  10.453
51558W        W11303  34.573  34.392  14.438
51559W        W11304  10.782  29.436   0.450
51560W        W11305  41.391  37.860   3.292
51561W        W11306  32.404  39.435   1.392
51562W        W11307  33.586  12.843   1.254
51563W        W11308   9.378  10.795  10.945
51564W        W11309  23.612  43.311  11.948
51565W        W11310  31.044  43.836  12.484
51566W        W11311  33.889   9.312   1.924
51567W        W11312  10.818  14.307   2.861
51568W        W11313  21.203   0.862  12.482
51569W        W11314  25.197  34.075   0.759
51570W        W11315  29.460  29.061   0.460
51571W        W11316   6.424  34.520  10.118
51572W        W11317  15.817  24.618   3.189
51573W        W11318  10.232   1.373   0.303
51574W        W11319  10.364  18.695  10.444
51575W        W11320  30.418   2.768  13.324
51576W        W11321  27.193   1.806  12.841
51577W        W11322  21.227   8.875  10.898
51578W        W11323  27.175  44.969   1.407
51579W        W11324  10.236   7.288  12.069
51580W        W11325  41.444  42.456   1.283
51581W        W11326  41.024  31.415  13.827
51582W        W11327  13.727   1.374  12.352
51583W        W11328  30.519  42.394  10.927
51584W        W11329  25.549   8.375  10.528
51585W        W11330  42.005  16.309   0.379
51586W        W11331  17.606   2.895   1.798
51587W        W11332  14.190   1.813  14.982
51588W        W11333  23.001  13.814   3.808
51589W        W11334  42.962  15.693  13.877
51590W        W11335   0.479  21.551   3.758
51591W        W11336  24.125  34.428   2.290
51592W        W11337   5.382  22.518  12.568
51593W        W11338   3.394   9.346   4.306
51594W        W11339  15.673  28.576   0.846
51595W        W11340   1.425  13.115  13.971
51596W        W11341   1.445  27.448   4.348
51597W        W11342  40.813  35.511   2.327
51598W        W11343  38.335  12.679   4.265
51599W        W11344   1.423   2.735  12.036
51600W        W11345  27.108   3.792   0.413
51601W        W11346   0.474  26.574   0.337
51602W        W11347  44.368  29.929  13.418
51603W        W11348  15.718   4.448   1.215
51604W        W11349  22.136  23.084   0.747
51605W        W11350  15.644  30.917  13.341
51606W        W11351   8.892  41.371   0.473
51607W        W11352  27.094  40.353   3.224
51608W        W11353  18.570  44.954  10.611
51609W        W11354  31.542  34.916   0.391
51610W        W11355  42.801  42.395  14.344
51611W        W11356  42.523  13.757   1.893
51612W        W11357  11.173  28.146   2.190
51613W        W11358  38.466  25.712   4.225
51614W        W11359  18.131  29.996   4.123
51615W        W11360  29.965  30.533   1.266
51616W        W11361   7.239  41.982   4.741
51617W        W11362   5.198  26.548  13.983
51618W        W11363  29.155  36.458  12.020
51619W        W11364  29.506  34.945  14.824
51620W        W11365  15.128  34.019   0.954
51621W        W11366  41.819   2.777   3.336
51622W        W11367  41.319   0.834   1.813
51623W        W11368  13.211  42.412   0.754
51624W        W11369  26.558  13.716  11.097
51625W        W11370  24.546  33.081  14.458
51626W        W11371  39.445  12.163  11.560
51627W        W11372  43.502  26.205   3.676
51628W        W11373  11.292  16.143  14.931
51629W        W11374  28.062   3.279   2.886
51630W        W11375  30.538   2.279  11.932
51631W        W11376  13.654  34.973  11.396
51632W        W11377   5.714  38.344   1.355
51633W        W11378  28.094  44.881  12.418
51634W        W11379  25.565  35.009  14.362
51635W        W11380  41.310   5.265   4.718
51636W        W11381  19.736  19.271  12.522
51637W        W11382  26.994   4.298  11.392
51638W        W11383  34.462  34.390   1.365
51639W        W11384  31.150  33.607  14.378
51640W        W11385  28.182  28.440  11.504
51641W        W11386  27.974   3.825   4.709
51642W        W11387  32.406  13.635  14.978
51643W        W11388  30.137  22.155   0.418
51644W        W11389  40.829  27.103   4.659
51645W        W11390  42.469  43.997  11.586
51646W        W11391  32.018  37.964  14.899
51647W        W11392  44.441  28.462   2.755
51648W        W11393  26.145  24.074   1.755
51649W        W11394  44.443   0.435   1.808
51650W        W11395  37.946  44.926  11.544
51651W        W11396  21.511   6.205  11.867
51652W        W11397  44.296  31.463  13.490
51653W        W11398  27.490  32.498   1.865
51654W        W11399  26.101  38.949  12.993
51655W        W11400  18.120   5.727  10.443
51656W        W11401  18.064  15.769   0.331
51657W        W11402  34.392  30.981   5.166
51658W        W11403  40.545  36.408   0.933
51659W        W11404  34.549  39.878   0.762
51660W        W11405  39.862  42.469   4.750
51661W        W11406  37.453  41.494   1.452
51662W        W11407  43.854  30.646  14.025
51663W        W11408  17.145  39.386   3.746
51664W        W11409  22.745  17.763   2.409
51665W        W11410  38.384   2.306  11.984
51666W        W11411  10.379   6.888  12.437
51667W        W11412  13.328  16.237  13.343
51668W        W11413  24.995  43.951  12.366
51669W        W11414  35.924  22.036   3.231
51670W        W11415  20.765  14.825  11.955
51671W        W11416  30.629   2.319  10.898
51672W        W11417   7.669   5.694   2.375
51673W        W11418  15.583  12.844  12.489
51674W        W11419  34.983  42.996  11.437
51675W        W11420  28.518  32.511   5.314
51676W        W11421   9.799  41.397  14.419
51677W        W11422  17.078  10.763  13.794
51678W        W11423  37.960  26.001  11.513
51679W        W11424  37.830  27.660   4.679
51680W        W11425  33.999  17.120   0.784
51681W        W11426  15.618   9.788   4.171
51682W        W11427  41.361   9.311   2.885
51683W        W11428  11.748  36.066  14.027
51684W        W11429   7.743   2.267   1.361
51685W        W11430  13.726   3.853  11.883
51686W        W11431  16.659  15.666   0.246
51687W        W11432   8.692  44.272  10.574
51688W        W11433  32.041  37.550   2.768
51689W        W11434  31.150  35.043  14.966
51690W        W11435  35.362   7.336  12.441
51691W        W11436  27.145   8.780  12.416
51692W        W11437  21.237  33.485  13.911
51693W        W11438  27.002  42.873  14.821
51694W        W11439  21.204  38.938   3.356
51695W        W11440  11.321  42.882  11.119
51696W        W11441  14.322  42.936  12.932
51697W        W11442  19.253  42.507   2.845
51698W        W11443   0.458   7.176  13.881
51699W        W11444  39.347  42.999   0.354
51700W        W11445  42.980  17.728  12.513
51701W        W11446  16.305  37.401  13.321
51702W        W11447  29.089  22.567  12.351
51703W        W11448  17.622  27.947  14.287
51704W        W11449  32.458  30.630   3.151
51705W        W11450  12.135  19.771   4.143
51706W        W11451  31.552  18.234  14.453
51707W        W11452  44.462  32.540  11.550
51708W        W11453  18.683  17.619   3.212
51709W        W11454  29.983  18.650   3.196
51710W        W11455  41.021  28.968  10.949
51711W        W11456  23.611  24.614  14.378
51712W        W11457  27.191  43.351   4.724
51713W        W11458  11.821  37.974  12.894
51714W        W11459  44.918   6.377  14.923
51715W        W11460  44.934  38.073   1.350
51716W        W11461   2.829   9.206   3.346
51717W        W11462  38.459   8.689  10.412
51718W        W11463   4.383   8.705   1.440
51719W        W11464   3.736   9.704   4.690
51720W        W11465   4.226  44.326  12.096
51721W        W11466  13.683   2.819  12.904
51722W        W11467  43.876  28.541   3.739
51723W        W11468   1.785  29.486  12.387
51724W        W11469   3.932  34.067  13.811
51725W        W11470  13.732   5.741   2.240
51726W        W11471  19.649   9.829   1.244
51727W        W11472  20.226   5.270   5.157
51728W        W11473  23.713   8.793  11.097
51729W        W11474   0.249  37.026  12.924
51730W        W11475  37.504  37.575  11.575
51731W        W11476  29.132  27.591  11.922
51732W        W11477  42.785   3.805  13.874
51733W        W11478  25.032   2.426   3.776
51734W        W11479  31.080  17.129   1.371
51735W        W11480   9.164  41.531  13.360
51736W        W11481  40.435   1.828   2.233
51737W        W11482  42.421  18.725   0.831
51738W        W11483  12.704  21.215  14.954
51739W        W11484   9.764   8.783  10.561
51740W        W11485  28.645  31.939   2.842
51741W        W11486  28.156  37.576   3.674
51742W        W11487  18.226  26.515   2.881
51743W        W11488  33.405  32.422  14.424
51744W        W11489  36.447   4.443  12.001
51745W        W11490  39.523   7.300  14.999
51746W        W11491   2.756  19.553   5.709
51747W        W11492   0.772  24.565   0.808
51748W        W11493  39.991  21.174   2.373
51749W        W11494   6.236  25.065   4.279
51750W        W11495  13.756  44.358  13.385
51751W        W11496   9.797  16.783   4.687
51752W        W11497  32.013  28.507  12.966
51753W        W11498   5.314   7.242   1.787
51754W        W11499  27.509  14.633   4.832
51755W        W11500  28.455  42.463  10.532
51756W        W11501  26.124  38.038  11.988
51757W        W11502  36.881   7.342  12.389
51758W        W11503  35.945  19.112   1.782
51759W        W11504  34.970  12.211   2.186
51760W        W11505  14.171  41.994   2.870
51761W        W11506  28.027   0.847  13.468
51762W        W11507  13.340   1.478  13.530
51763W        W11508  16.753  28.537   0.331
51764W        W11509   8.285   2.446   3.788
51765W        W11510  15.581  32.442   3.820
51766W        W11511  13.150  19.158  13.410
51767W        W11512  36.587  25.977   2.360
51768W        W11513   0.870  10.368   5.244
51769W        W11514  42.917  33.064   9.988
51770W        W11515  34.021   6.282  14.851
51771W        W11516  14.617  31.545  13.309
51772W        W11517  38.552   3.777  12.411
51773W        W11518  26.516   7.268  10.121
51774W        W11519  18.237  38.847   3.776
51775W        W11520  29.484   2.233  11.956
51776W        W11521  14.702  15.740   3.685
51777W        W11522  21.585  22.017   0.870
51778W        W11523  16.591  33.126   0.941
51779W        W11524  10.263  35.387  10.498
51780W        W11525  10.346  27.072   4.328
51781W        W11526  33.036  19.078   0.961
51782W        W11527  40.959   8.347   4.327
51783W        W11528  40.375   8.659   5.307
51784W        W11529  15.633  31.572   4.338
51785W        W11530  11.698  27.601  11.383
51786W        W11531  28.046   5.846  11.510
51787W        W11532   3.881  36.006  12.025
51788W        W11533   7.854  38.337  12.375
51789W        W11534  15.720  42.502   2.319
51790W        W11535  29.104  13.151  10.556
51791W        W11536  16.146  33.473  12.525
51792W        W11537  35.474  23.491  10.550
51793W        W11538  19.603   0.440   2.735
51794W        W11539  20.571   9.173  10.461
51795W        W11540  25.071  32.007   2.412
51796W        W11541  10.803   8.749  14.295
51797W        W11542   9.668   8.327   0.757
51798W        W11543   4.850  44.308   4.826
51799W        W11544  38.561   0.798   0.481
51800W        W11545  18.106   3.222   1.355
51801W        W11546   1.321   2.899  13.349
51802W        W11547  39.324  42.406  10.541
51803W        W11548   9.693  15.623   0.442
51804W        W11549  13.746   1.348   4.684
51805W        W11550  26.054  28.596   0.816
51806W        W11551  15.813  34.009  13.852
51807W        W11552  38.358   0.345   1.314
51808W        W11553  22.550  29.005   2.823
51809W        W11554  20.626  13.206  12.938
51810W        W11555  30.627  24.229  10.888
51811W        W11556   4.807   3.944  10.938
51812W        W11557  14.178  18.130   4.233
51813W        W11558  25.544   7.223   2.846
51814W        W11559  16.284  22.015   3.639
51815W        W11560  32.114  28.948   1.915
51816W        W11561  29.589  15.110  14.759
51817W        W11562  25.685  35.440   4.318
51818W        W11563   8.747  33.471   3.867
51819W        W11564  24.204  23.193  13.961
51820W        W11565  24.165   4.894  10.932
51821W        W11566   2.939  27.190   1.750
51822W        W11567  24.662   9.194  12.481
51823W        W11568  11.330  28.610  14.429
51824W        W11569   9.182  28.980   4.189
51825W        W11570   9.305   8.213   2.345
51826W        W11571   4.766  11.170   2.693
51827W        W11572   0.967  10.242   4.691
51828W        W11573  26.567  36.572   0.743
51829W        W11574  23.125  12.701   1.223
51830W        W11575  23.125  30.940  11.947
51831W        W11576  26.167  37.408  10.606
51832W        W11577  23.597   2.954   2.416
51833W        W11578  27.508  44.458   1.764
51834W        W11579  34.002  12.362  11.004
51835W        W11580  32.447  41.854  11.080
51836W        W11581   2.723   5.337   2.811
51837W        W11582  10.334  27.503   2.200
51838W        W11583  10.198  29.064   0.754
51839W        W11584  26.085   6.849  11.057
51840W        W11585  25.138  20.719   4.261
51841W        W11586   9.727   7.284  12.023
51842W        W11587  22.615  18.740  12.994
51843W        W11588  18.246  29.148  13.415
51844W        W11589  26.043  43.410   1.822
51845W        W11590  23.035  15.807   5.286
51846W        W11591  13.765  25.988  14.468
51847W        W11592  10.633  11.373  14.325
51848W        W11593  23.995  32.625   1.914
51849W        W11594  33.988  16.789  10.448
51850W        W11595  33.948   8.768   2.762
51851W        W11596  27.958  13.656  13.406
51852W        W11597  21.226  44.332  11.880
51853W        W11598  24.721  34.553   2.313
51854W        W11599  10.645   7.180   1.374
51855W        W11600   2.339  37.072   2.729
51856W        W11601   2.230  12.627  10.915
51857W        W11602   2.248  18.261  13.906
51858W        W11603  11.157   6.358  14.900
51859W        W11604  30.464  18.649  10.420
51860W        W11605   2.739  33.470  14.329
51861W        W11606  20.593  20.684   1.869
51862W        W11607   5.399  43.490   4.829
51863W        W11608  35.516  38.336   4.760
51864W        W11609  14.628  10.290   3.780
51865W        W11610  16.269  19.283  13.856
51866W        W11611  25.558  12.352  14.773
51867W        W11612   7.883   4.239  11.611
51868W        W11613  39.394   6.900  11.428
51869W        W11614  43.964  15.157  10.562
51870W        W11615  42.311  20.200  14.443
51871W        W11616   3.867  35.099  14.308
51872W        W11617  40.834  19.587  11.995
51873W        W11618  12.116  40.470   4.195
51874W        W11619   8.199  24.190   0.468
51875W        W11620  20.736   9.847   1.295
51876W        W11621  32.433  42.447   4.197
51877W        W11622  36.486  38.901   3.705
51878W        W11623  33.576  26.152   3.187
51879W        W11624  33.008  32.477   3.266
51880W        W11625  30.961  24.229   1.864
51881W        W11626  42.810  16.756   0.467
51882W        W11627  17.644  35.435  12.955
51883W        W11628  26.104  28.049   2.827
51884W        W11629  23.993  13.192   4.332
51885W        W11630  35.874  27.041  13.531
51886W        W11631  40.914  19.271  12.891
51887W        W11632  33.878   6.373  11.924
51888W        W11633   6.228  21.201  13.950
51889W        W11634   2.469  19.090   0.389
51890W        W11635  11.831  23.196  11.991
51891W        W11636   4.331  25.492  14.952
51892W        W11637  28.173  24.027  10.538
51893W        W11638  32.575  40.053  14.812
51894W        W11639  38.061  37.390   2.315
51895W        W11640  35.548   3.389   1.916
51896W        W11641  44.345  41.900  11.452
51897W        W11642  19.752  14.758  10.996
51898W        W11643  33.982  14.721   2.206
51899W        W11644   3.752  19.690  12.860
51900W        W11645  24.522  37.978  11.055
51901W        W11646  30.936  38.857   0.905
51902W        W11647  21.652  37.473  13.500
51903W        W11648  23.507  27.640   2.752
51904W        W11649  27.679  21.741  12.386
51905W        W11650   4.803  13.184   0.839
51906W        W11651  25.643  19.584   4.833
51907W        W11652  39.813  35.558  12.900
51908W        W11653   3.338  29.561  10.956
51909W        W11654  33.053  43.317   0.411
51910W        W11655  41.919  40.937  10.998
51911W        W11656  39.980   4.233   2.412
51912W        W11657  38.866  22.201  14.029
51913W        W11658  30.031  38.521   2.709
51914W        W11659  20.607  26.017  14.396
51915W        W11660  29.119  30.539  12.521
51916W        W11661  25.063  36.434  11.982
51917W        W11662  11.358  39.372  14.315
51918W        W11663  23.551  37.999  12.854
51919W        W11664  40.964  24.196   3.161
51920W        W11665  11.740   8.282   0.293
51921W        W11666  16.207  29.074  14.462
51922W        W11667  21.079  39.821   2.866
51923W        W11668  35.927  43.299   2.717
51924W        W11669  25.690  29.950   4.202
51925W        W11670  32.505  19.118   4.128
51926W        W11671  29.455   4.332  10.497
51927W        W11672  39.454  36.532   2.805
51928W        W11673  13.191   4.888   3.871
51929W        W11674  31.065  44.770  11.542
51930W        W11675  13.826  24.486  11.385
51931W        W11676   5.223  36.383   4.702
51932W        W11677  39.026   8.389  14.420
51933W        W11678   4.699   0.287   4.153
51934W        W11679  34.563   0.891  11.956
51935W        W11680   8.695  21.560  13.437
51936W        W11681  10.282  15.202   2.734
51937W        W11682  33.431  10.758   0.263
51938W        W11683  37.071  27.486  13.992
51939W        W11684  43.499  33.993   4.142
51940W        W11685  33.998   1.313   2.400
51941W        W11686  18.715  27.528   2.297
51942W        W11687  35.363  29.552   1.885
51943W        W11688  14.741  30.910  13.793
51944W        W11689  28.591  14.238  14.857
51945W        W11690   8.404  39.999   0.744
51946W        W11691  33.074  30.542  12.976
51947W        W11692   8.821  16.630  11.913
51948W        W11693  11.364  35.961   0.875
51949W        W11694  30.574  41.032  10.915
51950W        W11695  18.197  27.052   1.891
51951W        W11696  12.250  33.381  12.457
51952W        W11697  32.097  18.244   5.628
51953W        W11698  44.368  22.679   0.279
51954W        W11699  30.956  27.459  11.416
51955W        W11700  19.649  38.886   4.314
51956W        W11701  21.131  19.148   2.698
51957W        W11702   9.881  40.541  14.318
51958W        W11703  21.077  43.842   3.188
51959W        W11704  30.048  19.719  13.523
51960W        W11705  31.941   8.765  13.877
51961W        W11706  27.621  18.667   2.878
51962W        W11707  28.095  18.599   3.240
51963W        W11708  44.460  38.480   4.605
51964W        W11709  21.678  40.911  11.050
51965W        W11710  10.303   9.662  13.808
51966W        W11711  35.499   4.749   1.921
51967W        W11712  33.594  16.621   4.690
51968W        W11713  11.797  27.986   5.119
51969W        W11714  15.167  31.921  10.945
51970W        W11715  40.384  11.723   5.271
51971W        W11716  44.992  13.108   4.743
51972W        W11717  19.230  13.837  11.035
51973W        W11718  31.408  39.456   3.742
51974W        W11719  15.330   8.306   0.431
51975W        W11720   9.824  15.803   3.855
51976W        W11721   9.792  19.056  12.978
51977W        W11722  39.999  42.374  11.024
51978W        W11723  41.024  10.666  14.420
51979W        W11724  14.283  39.888  14.325
51980W        W11725  42.395  42.366  14.010
51981W        W11726  15.176  27.969  14.957
51982W        W11727   9.688  16.710   0.819
51983W        W11728  42.425  20.211  12.873
51984W        W11729  17.200   5.895  10.937
51985W        W11730   7.299  14.250  12.482
51986W        W11731   3.713  29.925   0.901
51987W        W11732  31.930   3.366   0.738
51988W        W11733  42.339  11.192   1.805
51989W        W11734  34.596  19.698  13.898
51990W        W11735  27.942  30.974   1.250
51991W        W11736  28.455  27.578  11.433
51992W        W11737  44.857   2.916  13.868
51993W        W11738  44.404  39.008   1.753
51994W        W11739   4.732  33.516  10.537
51995W        W11740  24.491  20.683   4.610
51996W        W11741  36.941  32.540   0.418
51997W        W11742  19.140   6.379   2.701
51998W        W11743   7.766  29.998  10.626
51999W        W11744  44.882  14.729   0.805
52000W        W11745  41.877  27.097  14.355
52001W        W11746  27.098  16.291  12.092
52002W        W11747  39.907  18.593   2.763
52003W        W11748  38.990  30.636   3.282
52004W        W11749  22.230  34.593   4.215
52005W        W11750  22.623  44.331  14.412
52006W        W11751  32.962  32.578   4.618
52007W        W11752  28.009  28.461   0.277
52008W        W11753  41.978  13.239   2.329
52009W        W11754   8.183  29.539   0.429
52010W        W11755  15.711  20.546   0.813
52011W        W11756  11.193  36.478  10.911
52012W        W11757  31.441   5.783  10.609
52013W        W11758  41.849  15.309  13.832
52014W        W11759  16.772  23.226  13.031
52015W        W11760  43.329  22.157   4.608
52016W        W11761  33.975   2.317   1.251
52017W        W11762  38.896  44.891   1.749
52018W        W11763   1.975   1.964   2.248
52019W        W11764  34.980   7.689   4.636
52020W        W11765  41.405  30.529  12.458
52021W        W11766  36.490  11.743   3.287
52022W        W11767  19.205  18.215  14.501
52023W        W11768  37.031  22.649   1.850
52024W        W11769  26.131  28.148  13.459
52025W        W11770   9.287  41.980   2.670
52026W        W11771   2.734  14.168   1.421
52027W        W11772   1.318  16.127   3.281
52028W        W11773  30.561  44.276  12.867
52029W        W11774   4.831  18.623  13.376
52030W        W11775  10.738  32.461  10.989
52031W        W11776  44.407   1.339  10.468
52032W        W11777  29.617  20.078   2.786
52033W        W11778  32.468  29.120  12.494
52034W        W11779  27.130   2.731  10.489
52035W        W11780   3.406  35.978   0.831
52036W        W11781  39.868   8.163  11.445
52037W        W11782  42.513  22.525  12.495
52038W        W11783  39.947  18.608  11.563
52039W        W11784  15.229   8.894   4.833
52040W        W11785  33.385   8.778   3.193
52041W        W11786  30.504  18.630  11.514
52042W        W11787  44.778   9.653  11.500
52043W        W11788  39.890  25.528   1.701
52044W        W11789   5.799   1.364  14.957
52045W        W11790   7.905  41.416  10.037
52046W        W11791  26.476  24.717   2.814
52047W        W11792  15.785   9.160  13.309
52048W        W11793  14.622  43.810  11.459
52049W        W11794   9.262  34.883   3.714
52050W        W11795   8.871  13.626   2.824
52051W        W11796  37.572   6.887   1.744
52052W        W11797  33.416   6.815   0.803
52053W        W11798  44.974  22.515   4.227
52054W        W11799   3.250  23.013  11.954
52055W        W11800  24.056   0.441   4.320
52056W        W11801  25.976  18.230  11.453
52057W        W11802   5.802  28.638   3.719
52058W        W11803  38.410   4.710  13.457
52059W        W11804  17.116  26.531   3.805
52060W        W11805  38.379  43.017   1.916
52061W        W11806  37.391  19.686  14.824
52062W        W11807  24.554   7.841  11.963
52063W        W11808  12.132   0.840  11.008
52064W        W11809  14.310  43.937  14.958
52065W        W11810  38.558  44.309   4.746
52066W        W11811  30.650  30.003  12.039
52067W        W11812  40.378  34.897  11.508
52068W        W11813  34.450   8.698   2.264
52069W        W11814  43.908   0.267  13.520
52070W        W11815   4.770  42.418  14.960
52071W        W11816  15.788  23.996  10.984
52072W        W11817   7.395  29.996   0.885
52073W        W11818  36.914  12.853  13.026
52074W        W11819  29.064  28.587   1.427
52075W        W11820   8.716   3.342  11.996
52076W        W11821   3.315  24.502  12.996
52077W        W11822  29.562  19.216  11.932
52078W        W11823  26.527  27.641   1.431
52079W        W11824  22.159   5.876  12.839
52080W        W11825  33.495  43.964  11.472
52081W        W11826  41.995  12.136   2.299
52082W        W11827  15.087  26.580   3.845
52083W        W11828  32.113   1.386   3.802
52084W        W11829   7.178  23.220   4.642
52085W        W11830  38.853  44.504  11.894
52086W        W11831  41.414  39.397  11.909
52087W        W11832  41.813  10.700   1.712
52088W        W11833  32.120  27.027  12.351
52089W        W11834  17.786  15.702   0.273
52090W        W11835  10.677  31.510   4.737
52091W        W11836  28.048   3.268   0.449
52092W        W11837  15.646  30.080   3.214
52093W        W11838  29.466  31.422  11.598
52094W        W11839  18.294  22.604   4.658
52095W        W11840  11.352   0.422  10.956
52096W        W11841  25.710  25.009   3.857
52097W        W11842  34.041  28.061  14.410
52098W        W11843  38.986  24.638  12.059
52099W        W11844  26.049  38.005   3.847
52100W        W11845  38.013   5.909  11.393
52101W        W11846  35.520  25.001  13.874
52102W        W11847  30.999  31.560   4.631
52103W        W11848  43.775  39.982   1.891
52104W        W11849   0.772  35.877  10.006
52105W        W11850  37.947  41.324   4.672
52106W        W11851   3.274  41.414   4.718
52107W        W11852  43.401   3.409   0.860
52108W        W11853  16.262  22.176  14.000
52109W        W11854  24.596  38.068  13.824
52110W        W11855  17.632  33.902   2.218
52111W        W11856  13.764  25.971   0.931
52112W        W11857   4.754   4.792   4.814
52113W        W11858  18.292  15.254   1.776
52114W        W11859  40.445   2.740  13.888
52115W        W11860  27.525  43.992  14.917
52116W        W11861  13.633  13.723   3.710
52117W        W11862  22.080  34.940  11.988
52118W        W11863  33.908  38.541   3.360
52119W        W11864  36.542  30.000  13.446
52120W        W11865  11.795  11.278  14.284
52121W        W11866  22.600  36.879   2.362
52122W        W11867   8.706  17.207  14.961
52123W        W11868   5.865  38.045  12.432
52124W        W11869  31.626   8.818  12.843
52125W        W11870  13.178  34.429   3.805
52126W        W11871  12.811  36.355   2.389
52127W        W11872  20.593  10.160   3.711
52128W        W11873  44.855  18.072  11.916
52129W        W11874  31.570   0.446  13.536
52130W        W11875  34.388  33.915   4.609
52131W        W11876  37.371  27.161  11.494
52132W        W11877  44.950  18.221  10.912
52133W        W11878  44.942   4.274  11.599
52134W        W11879  17.267  35.062   4.775
52135W        W11880  13.243  41.375  14.283
52136W        W11881  29.591  12.256   2.703
52137W        W11882  41.329  21.593  11.431
52138W        W11883  21.061   0.285  11.986
52139W        W11884  32.917  14.739   1.410
52140W        W11885  25.608  10.358  10.045
52141W        W11886  23.510  36.002  13.362
52142W        W11887   0.463  11.643   1.797
52143W        W11888  23.236  14.323  13.519
52144W        W11889  33.429  14.227  13.028
52145W        W11890  37.508  20.204  11.554
52146W        W11891   8.845   8.257   3.833
52147W        W11892  43.780  43.347  13.426
52148W        W11893  10.291  15.769   1.926
52149W        W11894  27.641  29.568   1.892
52150W        W11895  39.331  37.844   4.694
52151W        W11896  41.319  22.595   3.869
52152W        W11897  41.412  38.978   0.872
52153W        W11898  13.326  27.189   2.763
52154W        W11899  44.340  17.259  12.982
52155W        W11900  20.549   5.872  10.536
52156W        W11901  35.369   3.234   2.699
52157W        W11902  27.043  34.500   0.869
52158W        W11903  18.621  34.874   4.811
52159W        W11904  30.543  22.714   3.707
52160W        W11905   4.718  20.750  12.370
52161W        W11906  23.111   4.227  14.378
52162W        W11907  32.910  39.924   1.240
52163W        W11908  42.418   8.267  11.382
52164W        W11909   0.458  43.288  10.433
52165W        W11910  20.053  32.895  13.399
52166W        W11911  10.688   6.869  13.015
52167W        W11912  17.603  15.108   1.930
52168W        W11913  44.004   3.359  14.331
52169W        W11914  29.432  26.144  10.902
52170W        W11915  10.348  17.089   4.720
52171W        W11916  27.955   1.823  11.435
52172W        W11917  17.122  37.411   2.700
52173W        W11918  31.000   8.773  13.510
52174W        W11919  35.020  43.276  13.926
52175W        W11920   2.887   8.735   1.322
52176W        W11921  14.833  36.358  14.995
52177W        W11922   2.903  13.669   4.796
52178W        W11923  16.153  16.595  14.021
52179W        W11924  24.592  39.421   2.401
52180W        W11925  25.637  22.181  13.017
52181W        W11926  16.791  38.971  14.766
52182W        W11927  30.997  17.190   1.895
52183W        W11928  25.678  39.436   2.247
52184W        W11929  28.956   0.837   4.165
52185W        W11930  41.367  25.131  10.644
52186W        W11931  13.172  37.484  11.975
52187W        W11932  28.470   6.863   0.854
52188W        W11933  34.493  43.875  12.363
52189W        W11934   1.321  11.814   3.642
52190W        W11935  24.723   7.318   3.169
52191W        W11936  30.156  10.360   1.280
52192W        W11937  24.676  29.111  13.885
52193W        W11938  32.526   3.816   3.352
52194W        W11939  16.612  44.849   0.884
52195W        W11940  16.791  30.916   4.163
52196W        W11941  12.353  42.886  11.092
52197W        W11942  33.548  17.270   5.135
52198W        W11943  15.753   3.893  12.872
52199W        W11944   0.881  34.381   2.239
52200W        W11945  27.015   1.456  13.527
52201W        W11946  40.922   6.806   4.760
52202W        W11947  32.987   8.370   3.645
52203W        W11948  16.209  26.555   4.648
52204W        W11949  39.455  25.570   2.710
52205W        W11950  20.681  24.188  10.634
52206W        W11951  43.313   7.745  14.902
52207W        W11952  11.187  14.145  10.469
52208W        W11953  22.016  23.683  11.966
52209W        W11954  38.832  16.686   3.274
52210W        W11955  30.505  17.663   1.405
52211W        W11956   1.869  20.161  11.108
52212W        W11957   9.683  28.966  12.086
52213W        W11958  24.996  27.043   1.707
52214W        W11959  37.493  15.709   4.819
52215W        W11960  22.654  14.694   3.207
52216W        W11961   6.207  42.819  13.875
52217W        W11962  26.064  33.551   1.811
52218W        W11963  15.170   6.757  13.365
52219W        W11964  26.085  32.500  13.351
52220W        W11965  18.572   7.331   5.279
52221W        W11966  41.822  27.945  12.501
52222W        W11967   1.848   1.925  12.572
52223W        W11968  32.080  27.047  13.392
52224W        W11969   2.228  11.370   3.299
52225W        W11970  10.317  40.952   4.351
52226W        W11971   2.258  11.627  13.393
52227W        W11972  19.741   6.833  12.910
52228W        W11973  23.679  40.052   4.134
52229W        W11974  15.155  15.793  13.354
52230W        W11975  40.541  18.056   1.262
52231W        W11976  31.542   8.286   1.733
52232W        W11977  35.076  27.111  13.797
52233W        W11978  43.399  25.006   3.828
52234W        W11979  37.018  15.125  11.888
52235W        W11980   3.944   3.280   5.176
52236W        W11981  12.323  14.678   1.901
52237W        W11982  21.238  24.216   5.159
52238W        W11983  23.221  43.484   2.305
52239W        W11984  21.513  31.449   1.403
52240W        W11985  19.687  20.050  10.992
52241W        W11986   5.881  19.086   3.726
52242W        W11987  29.665  23.102   1.932
52243W        W11988  15.762  11.767  12.429
52244W        W11989  26.050  41.815  13.055
52245W        W11990  14.155  36.462  13.990
52246W        W11991  37.956  18.275  11.964
52247W        W11992  18.729  44.871   0.448
52248W        W11993  44.866  42.788   3.313
52249W        W11994  28.080  14.815  10.935
52250W        W11995  22.151  22.107   3.782
52251W        W11996  13.605  16.105   0.967
52252W        W11997  13.726  39.403   2.833
52253W        W11998  15.313  39.838  10.971
52254W        W11999  19.538  40.531   0.853
52255W        W12000  40.820  23.039   0.819
52256W        W12001  27.141  29.477   0.741
52257W        W12002   8.235  41.938  12.514
52258W        W12003   1.442  43.343  14.458
52259W        W12004  35.929  44.487   3.806
52260W        W12005  18.546  43.951   3.295
52261W        W12006  14.261  30.014   2.827
52262W        W12007  24.498   4.881  14.017
52263W        W12008  43.859  31.132  14.377
52264W        W12009   3.885   1.430   3.709
52265W        W12010  38.384  14.701   4.198
52266W        W12011   9.162  14.333  10.160
52267W        W12012  15.321  20.118  14.988
52268W        W12013   9.857   5.291   3.314
52269W        W12014  21.224  35.077   2.272
52270W        W12015  16.695  38.826  10.157
52271W        W12016  34.914  30.468  12.529
52272W        W12017   9.281   0.302  11.945
52273W        W12018  29.423  24.216  13.889
52274W        W12019  26.484  26.466  12.092
52275W        W12020  11.176   4.861  11.523
52276W        W12021   2.784  38.496  11.417
52277W        W12022  21.058  14.323  11.403
52278W        W12023  13.736  25.546   3.796
52279W        W12024  39.535  34.096  14.343
52280W        W12025  13.193   8.863   0.375
52281W        W12026  24.153  35.871   2.683
52282W        W12027  25.675  23.052  13.847
52283W        W12028  22.610  28.586  13.046
52284W        W12029  13.228  35.517  13.451
52285W        W12030  21.666  39.956  12.850
52286W        W12031   8.227  25.632  12.542
52287W        W12032  32.524  21.524  10.451
52288W        W12033  21.074  27.471   0.740
52289W        W12034  29.630  32.484   2.297
52290W        W12035   4.827   5.693  12.398
52291W        W12036  38.062   4.740   2.276
52292W        W12037  27.620   1.321   2.300
52293W        W12038  26.140   6.820   4.662
52294W        W12039  13.306  14.723  13.015
52295W        W12040  33.106  44.385   4.198
52296W        W12041   7.711  25.533  11.884
52297W        W12042   6.748  25.652   3.190
52298W        W12043   4.244  31.545   4.661
52299W        W12044  17.691   2.817  13.924
52300W        W12045   9.758  32.461   1.699
52301W        W12046  32.896  30.061   2.403
52302W        W12047  30.459   3.821   3.378
52303W        W12048   8.257   3.815   0.349
52304W        W12049  12.299   2.230   4.693
52305W        W12050  33.114  40.332  12.377
52306W        W12051  30.088  28.680   0.798
52307W        W12052  22.170  25.644   1.449
52308W        W12053  36.955  29.498   3.679
52309W        W12054   4.221  43.351  12.382
52310W        W12055  22.541  22.657  12.883
52311W        W12056  23.605  18.208  11.910
52312W        W12057   0.744  19.702   1.813
52313W        W12058  40.409  17.741  13.493
52314W        W12059  30.075  42.452  14.924
52315W        W12060  42.411  25.488   4.803
52316W        W12061  32.486  13.798  11.874
52317W        W12062  34.580  31.934   1.210
52318W        W12063   3.899  22.137   2.237
52319W        W12064  38.441  22.576   1.910
52320W        W12065   5.327  40.435  13.541
52321W        W12066   0.961  40.876   4.239
52322W        W12067  19.276  38.020   2.259
52323W        W12068  22.593  29.135  12.992
52324W        W12069  33.403   3.427  12.518
52325W        W12070  42.485  21.719   1.428
52326W        W12071   3.882  20.051   2.746
52327W        W12072  36.954   2.297  13.469
52328W        W12073  20.204   1.781  14.404
52329W        W12074   3.792  36.044  11.438
52330W        W12075  41.908  40.359   3.766
52331W        W12076  32.894  18.553  11.030
52332W        W12077  17.104  19.168  10.430
52333W        W12078   5.308  17.594  11.032
52334W        W12079  19.268  23.545   1.213
52335W        W12080   2.732  34.115  12.080
52336W        W12081  32.539  33.993   1.232
52337W        W12082  31.062  22.124   1.268
52338W        W12083  25.661  29.107  14.870
52339W        W12084  41.943  21.092  13.407
52340W        W12085  10.641  15.169   1.771
52341W        W12086  15.293   2.400  12.931
52342W        W12087  34.612  23.591   0.303
52343W        W12088  25.687  29.059  12.440
52344W        W12089  30.642  26.697   0.480
52345W        W12090  10.303  34.371   4.809
52346W        W12091  34.424  22.694   4.784
52347W        W12092  41.411  22.510  14.859
52348W        W12093   2.285   8.877  11.021
52349W        W12094  26.537  41.315   3.800
52350W        W12095  18.738  43.801   0.837
52351W        W12096  13.255  26.097   1.230
52352W        W12097   4.758  13.343   4.702
52353W        W12098  18.690  15.189  13.424
52354W        W12099  24.196  38.379   4.672
52355W        W12100  36.416  18.562   2.406
52356W        W12101  19.573  34.448   0.334
52357W        W12102  31.123  24.622   1.221
52358W        W12103  19.699  34.927   0.744
52359W        W12104  13.241  12.717   0.287
52360W        W12105  31.556  13.803   2.765
52361W        W12106   8.211  40.959  14.424
52362W        W12107   1.956  24.982   1.264
52363W        W12108  23.734  31.615  10.140
52364W        W12109  38.999  40.439   2.744
52365W        W12110  27.001   8.859   3.169
52366W        W12111   9.865  14.761  11.089
52367W        W12112  25.494  10.740  12.826
52368W        W12113   4.709  13.819  12.463
52369W        W12114  41.032  24.061  11.088
52370W        W12115  21.723  35.005  13.360
52371W        W12116  39.944  22.146  10.474
52372W        W12117   0.912  41.304   1.923
52373W        W12118  17.151   7.252  14.393
52374W        W12119  20.212  36.913  11.883
52375W        W12120   3.401   2.316   4.125
52376W        W12121  41.489  23.693   0.299
52377W        W12122  34.007  20.078  10.534
52378W        W12123  38.407  31.438   4.137
52379W        W12124  19.184  44.859   0.949
52380W        W12125  32.893  22.560  11.072
52381W        W12126  12.650  20.524   4.345
52382W        W12127  13.813  30.618   3.348
52383W        W12128   4.320  23.726   1.335
52384W        W12129  20.244  29.018  12.454
52385W        W12130  29.526  18.678   4.625
52386W        W12131  28.029  31.595   3.156
52387W        W12132  25.053  14.741   0.939
52388W        W12133  12.796  33.017   4.237
52389W        W12134  30.646   8.692   2.691
52390W        W12135  18.571  36.487  12.068
52391W        W12136  35.928  22.189  11.966
52392W        W12137   1.321   0.931  12.515
52393W        W12138  20.273   2.921  10.009
52394W        W12139  33.387  39.014   4.126
52395W        W12140  21.070  29.966  14.869
52396W        W12141  31.004  31.000  14.890
52397W        W12142  15.166  25.598   0.912
52398W        W12143   3.302  30.927  11.944
52399W        W12144  31.115  12.197   2.860
52400W        W12145   6.207  44.273   5.142
52401W        W12146  36.008   7.173   4.684
52402W        W12147   8.799  36.034  12.052
52403W        W12148  36.978  26.105  11.080
52404W        W12149  15.808  31.011  11.571
52405W        W12150  36.448  30.556   1.354
52406W        W12151  31.545  21.136  13.815
52407W        W12152  33.573  18.790   1.882
52408W        W12153   4.930  12.688  12.515
52409W        W12154   0.889   4.293  13.891
52410W        W12155   8.833  41.985  13.038
52411W        W12156   8.758   5.228  12.400
52412W        W12157  38.562  32.979  14.450
52413W        W12158  33.100  30.145   4.603
52414W        W12159  42.317  13.603   4.336
52415W        W12160  41.488  43.358   4.681
52416W        W12161   6.676   6.344   1.763
52417W        W12162  39.810  12.196  14.789
52418W        W12163  18.666   4.300  12.835
52419W        W12164  24.015  44.757  12.418
52420W        W12165  20.268   9.159  10.451
52421W        W12166  15.297   8.851  10.978
52422W        W12167   9.214  22.667  10.153
52423W        W12168  18.782  20.652  12.898
52424W        W12169  20.715  43.974  14.945
52425W        W12170   2.958  17.656  12.095
52426W        W12171  30.443  16.728   0.371
52427W        W12172  33.481  34.421  11.596
52428W        W12173   9.870   1.361   1.223
52429W        W12174  34.499  22.714   3.685
52430W        W12175  28.130  21.246   0.271
52431W        W12176  44.388   0.748  10.462
52432W        W12177   5.693  16.109  10.436
52433W        W12178  38.530  36.368  14.890
52434W        W12179   7.347  31.637   0.425
52435W        W12180  21.545  25.137   1.262
52436W        W12181  31.470   8.660   0.931
52437W        W12182  27.600   7.743  13.884
52438W        W12183  30.583  44.295   3.658
52439W        W12184  12.683  17.711  11.966
52440W        W12185  13.821  15.688   2.694
52441W        W12186  14.800  14.312  12.568
52442W        W12187   6.188   2.965   1.431
52443W        W12188  14.612   2.363  11.015
52444W        W12189   0.944  26.607   0.403
52445W        W12190  17.635   1.791  12.912
52446W        W12191  22.724  16.296  10.949
52447W        W12192  38.480  31.973   4.334
52448W        W12193  39.024   3.380   0.329
52449W        W12194  35.038  28.448  11.930
52450W        W12195   7.869   1.303  14.954
52451W        W12196  41.517  24.585  11.959
52452W        W12197   1.320  31.483   2.298
52453W        W12198   8.227  37.938   3.231
52454W        W12199   1.923  19.709  13.024
52455W        W12200   4.820  31.550  12.896
52456W        W12201  36.477  33.473   0.877
52457W        W12202  40.342  21.629   0.783
52458W        W12203  38.339  43.813   2.793
52459W        W12204  33.604  15.143  13.524
52460W        W12205  21.258  38.825   4.140
52461W        W12206   6.318  26.651   0.440
52462W        W12207  32.570  25.998   4.671
52463W        W12208  24.689  39.996  11.414
52464W        W12209  21.055  21.513  12.946
52465W        W12210  29.030  36.844   3.276
52466W        W12211   9.842  38.492   2.701
52467W        W12212  24.716  23.163  14.833
52468W        W12213  42.380  20.757   0.837
52469W        W12214  22.020  16.209   0.348
52470W        W12215  34.873   5.697  11.900
52471W        W12216   6.239   6.218   0.382
52472W        W12217  14.741  26.140   0.439
52473W        W12218   5.712   6.357  13.947
52474W        W12219  33.591  42.794   1.419
52475W        W12220  11.786  34.998  13.465
52476W        W12221  13.812  15.288   4.715
52477W        W12222  37.371  32.141  11.564
52478W        W12223  39.978   7.410  14.785
52479W        W12224  31.567   2.260   3.148
52480W        W12225   7.206   6.904   4.686
52481W        W12226  19.278   8.224   4.701
52482W        W12227  15.589  36.439   2.309
52483W        W12228   7.319   6.689   3.651
52484W        W12229  10.725   6.363  14.770
52485W        W12230  21.736   7.345   2.816
52486W        W12231  14.276  22.738  11.945
52487W        W12232   9.221  23.623   0.295
52488W        W12233  41.452   2.848   2.790
52489W        W12234  40.412  42.391   4.204
52490W        W12235  29.538   2.822   2.312
52491W        W12236  15.194  33.918  11.062
52492W        W12237  38.933   8.871  11.011
52493W        W12238  12.199  29.530  14.414
52494W        W12239  32.956  22.743  14.322
52495W        W12240  26.589   8.387   0.428
52496W        W12241  13.674  24.009   4.173
52497W        W12242  30.934   9.822  14.398
52498W        W12243  43.384  25.687  12.397
52499W        W12244  23.597  41.815  11.613
52500W        W12245  22.058  15.807   1.853
52501W        W12246  37.979  36.514   4.143
52502W        W12247  36.066  35.897  13.909
52503W        W12248  16.591   2.884  12.017
52504W        W12249   0.755  29.585  11.607
52505W        W12250  25.169  34.119  13.900
52506W        W12251   3.848  26.124  12.019
52507W        W12252  24.510  32.911   2.373
52508W        W12253  11.731  13.173   0.863
52509W        W12254   7.789  20.740   3.706
52510W        W12255  43.822  34.412   1.276
52511W        W12256   1.312   1.258  13.459
52512W        W12257  26.486   3.309   9.960
52513W        W12258  38.395   2.420   1.757
52514W        W12259  22.050  26.635  14.863
52515W        W12260   6.329  35.365  11.448
52516W        W12261  20.575  12.766   1.818
52517W        W12262  15.163  32.558   3.660
52518W        W12263  23.529  17.108  12.358
52519W        W12264  42.405  44.463   2.695
52520W        W12265  10.370   5.415   3.230
52521W        W12266  31.096   9.745   1.324
52522W        W12267  11.356  19.685  13.508
52523W        W12268  36.516  13.741   4.760
52524W        W12269  10.374   2.270  13.385
52525W        W12270  25.194  44.768   3.220
52526W        W12271  28.471   5.216   3.280
52527W        W12272   8.237  34.534  11.436
52528W        W12273   5.242  11.847   3.258
52529W        W12274  33.563  19.169  14.932
52530W        W12275  35.905  12.135  12.556
52531W        W12276   2.228  10.741   2.845
52532W        W12277   5.730  13.330   4.664
52533W        W12278  37.969  30.617  11.383
52534W        W12279  38.374  18.266   2.837
52535W        W12280  40.466  21.578   3.297
52536W        W12281   1.754  40.305   0.429
52537W        W12282  14.822  11.712  10.627
52538W        W12283   3.790   8.388   1.430
52539W        W12284   4.309  24.620  11.887
52540W        W12285   9.813  17.753   0.859
52541W        W12286  18.667  22.059  12.842
52542W        W12287  29.006  44.311   4.280
52543W        W12288  23.540  26.521  13.371
52544W        W12289   3.358  15.289  13.467
52545W        W12290  15.611  41.423   9.944
52546W        W12291   4.362  22.719  12.962
52547W        W12292   6.803  26.526   3.745
52548W        W12293  37.387   5.362  12.032
52549W        W12294   5.728  36.911   2.766
52550W        W12295  38.541  25.994  11.547
52551W        W12296  24.567  11.353   2.201
52552W        W12297  40.854  24.594  12.089
52553W        W12298  21.533  16.810   3.206
52554W        W12299  11.864  27.623  13.830
52555W        W12300  22.730  17.594  14.988
52556W        W12301   5.826  11.863   4.610
52557W        W12302  29.462   4.748   0.947
52558W        W12303  19.063  29.014  10.585
52559W        W12304  26.970  15.762   0.326
52560W        W12305   4.771  19.734   2.799
52561W        W12306   6.849  17.237  10.574
52562W        W12307  22.127  11.258   9.968
52563W        W12308  18.654  39.322   2.179
52564W        W12309  22.224  43.807   4.772
52565W        W12310  32.523  42.855   4.644
52566W        W12311  41.304  12.804   1.229
52567W        W12312  22.523   4.339  14.993
52568W        W12313  19.626  25.995   1.772
52569W        W12314   9.297   7.185   0.873
52570W        W12315   4.344  23.021  13.024
52571W        W12316  21.676  35.590  11.525
52572W        W12317  32.463  43.337  14.278
52573W        W12318  16.741   7.797  11.439
52574W        W12319  43.350  15.211  12.417
52575W        W12320  34.873  12.811   9.976
52576W        W12321  16.746  12.627  10.947
52577W        W12322  19.257  16.679  14.852
52578W        W12323  34.571  27.641   1.288
52579W        W12324  14.824  12.838   3.852
52580W        W12325  21.690  25.493  13.417
52581W        W12326  40.891  33.084  12.475
52582W        W12327  18.740  42.494  13.323
52583W        W12328  23.733  36.994   2.377
52584W        W12329  22.072  20.525   2.843
52585W        W12330   7.225  23.551   4.161
52586W        W12331  25.061  41.389  14.848
52587W        W12332  41.857  30.537  10.600
52588W        W12333   4.794  15.140  14.941
52589W        W12334  17.762  13.731  12.010
52590W        W12335  11.671  32.896  10.157
52591W        W12336  30.648   4.359   1.907
52592W        W12337  37.866  31.958   2.299
52593W        W12338  40.342  29.544  14.482
52594W        W12339  21.118   2.885  12.988
52595W        W12340  37.376  17.704   0.853
52596W        W12341   6.391  24.138   5.228
52597W        W12342  24.542   3.355  14.918
52598W        W12343  38.484   0.986  11.990
52599W        W12344  33.615  43.296   4.334
52600W        W12345   4.246  13.791  14.892
52601W        W12346  25.972  13.764  14.000
52602W        W12347  20.596  34.894   0.820
52603W        W12348  15.635  41.824   5.202
52604W        W12349   8.706  16.659  14.027
52605W        W12350  43.824  12.762   0.940
52606W        W12351  43.360  29.660  14.338
52607W        W12352  16.196  12.158  12.977
52608W        W12353  20.705  14.670  13.451
52609W        W12354  31.611   0.330   4.343
52610W        W12355  39.355  33.004  11.106
52611W        W12356   9.713   3.718   3.869
52612W        W12357  39.361   0.361   2.724
52613W        W12358   1.450  39.414   3.207
52614W        W12359  22.025  24.152  13.348
52615W        W12360  39.411  37.046  14.957
52616W        W12361  10.144  37.503  10.418
52617W        W12362   6.385  16.618   4.291
52618W        W12363  31.505  15.694  12.494
52619W        W12364  44.860  17.796   0.314
52620W        W12365  12.728  12.330  14.974
52621W        W12366  28.577  10.672  11.392
52622W        W12367  25.500   0.271  12.367
52623W        W12368  17.780  11.669   0.941
52624W        W12369  10.746   2.912  11.093
52625W        W12370  35.109  40.053  13.881
52626W        W12371  34.437  35.587  13.328
52627W        W12372   7.725   4.704  11.123
52628W        W12373  24.633   9.759  12.053
52629W        W12374   8.722   2.334  12.496
52630W        W12375   0.814  26.143  11.528
52631W        W12376  43.488  40.815  10.411
52632W        W12377   2.262  28.097   0.730
52633W        W12378  42.304   0.300  11.110
52634W        W12379  37.396  37.924   4.699
52635W        W12380  20.204  24.048  12.861
52636W        W12381  26.052  41.412   2.859
52637W        W12382  39.916  26.530  14.983
52638W        W12383   5.786  27.161  11.128
52639W        W12384  15.325  25.032  12.461
52640W        W12385  44.799  11.353  12.527
52641W        W12386  43.015   8.815   2.314
52642W        W12387  36.427  18.674   1.832
52643W        W12388   6.796  19.722  11.395
52644W        W12389  38.470  33.466   2.814
52645W        W12390  44.871  19.191  12.385
52646W        W12391  42.308   9.266  14.485
52647W        W12392  22.180  36.435  14.976
52648W        W12393  30.027   6.194   2.349
52649W        W12394   6.333  31.532  13.412
52650W        W12395  30.086  39.015  12.946
52651W        W12396  28.532  29.967  11.485
52652W        W12397  12.310  37.026   3.334
52653W        W12398   9.162  36.019   0.959
52654W        W12399  41.437  20.558  10.637
52655W        W12400  23.568  11.176  12.846
52656W        W12401  17.607   6.798  14.372
52657W        W12402  29.644  29.658  12.548
52658W        W12403  14.211  18.624  14.275
52659W        W12404  15.786   5.905  10.927
52660W        W12405  17.143  38.533  13.969
52661W        W12406  34.579   9.746   3.839
52662W        W12407  26.673   8.303   2.393
52663W        W12408  14.129  31.562  12.012
52664W        W12409  13.736  30.018   2.803
52665W        W12410  22.689  34.999   2.780
52666W        W12411  21.100   1.964   2.748
52667W        W12412  41.938   7.321   5.160
52668W        W12413  11.818  30.111   2.889
52669W        W12414  39.990   5.261  14.822
52670W        W12415   0.898  18.579   1.234
52671W        W12416  41.357  34.544   1.320
52672W        W12417  41.519  44.921   0.345
52673W        W12418   3.256  21.087   3.350
52674W        W12419  21.081   3.789   4.206
52675W        W12420  32.608  20.126   2.394
52676W        W12421  34.563  27.169  14.863
52677W        W12422  30.972  27.949   2.322
52678W        W12423   1.239  23.734   1.436
52679W        W12424  28.176  25.073   2.761
52680W        W12425  16.705  15.782  14.976
52681W        W12426  10.734  11.787  14.304
52682W        W12427  28.960  24.493   0.810
52683W        W12428   5.699  26.648   3.683
52684W        W12429   9.670  17.208  11.574
52685W        W12430  34.527  36.092  12.864
52686W        W12431   6.803   9.243  14.810
52687W        W12432  43.015   9.185   4.711
52688W        W12433   4.866  29.144   3.185
52689W        W12434  27.079  36.970   1.263
52690W        W12435   9.889   8.739  13.000
52691W        W12436  44.287  13.347  12.580
52692W        W12437   0.802  16.255   0.808
52693W        W12438   0.808  31.138   3.856
52694W        W12439  42.312   2.867  12.400
52695W        W12440  41.040   8.318   1.437
52696W        W12441  32.596  12.327   4.726
52697W        W12442  40.836  43.374   0.455
52698W        W12443  27.958  34.043   3.773
52699W        W12444  18.587  19.744   5.221
52700W        W12445  17.219  25.144  13.515
52701W        W12446  42.391  19.746  12.940
52702W        W12447  22.243  17.773  10.985
52703W        W12448  37.017   5.865   3.239
52704W        W12449  43.017   7.811  13.529
52705W        W12450   6.253  15.764   4.294
52706W        W12451  21.573  36.570   1.799
52707W        W12452   2.760  38.822   0.874
52708W        W12453  41.308  38.885   4.646
52709W        W12454  22.642  25.144  10.974
52710W        W12455  42.858   0.767   2.811
52711W        W12456  39.056   8.743  13.485
52712W        W12457  34.502  26.556  12.459
52713W        W12458  30.442   7.236   0.930
52714W        W12459  37.861  44.423   1.737
52715W        W12460  41.028   1.784   1.809
52716W        W12461  35.379   8.237   4.146
52717W        W12462  26.984  12.845  14.923
52718W        W12463  33.473  44.928   3.279
52719W        W12464  12.220  19.140   3.345
52720W        W12465  34.866  17.294   0.763
52721W        W12466   5.739  43.815  14.863
52722W        W12467  38.846  36.539   1.223
52723W        W12468  12.697  38.043  13.039
52724W        W12469  15.103  17.078  14.823
52725W        W12470  40.901  36.051  13.335
52726W        W12471  12.765   8.366   3.149
52727W        W12472   5.389   8.173  12.873
52728W        W12473  22.542  36.068  11.430
52729W        W12474   7.887   8.665   2.184
52730W        W12475  26.182  16.602   0.371
52731W        W12476  25.638   2.380  14.989
52732W        W12477  36.078  26.121   2.860
52733W        W12478  23.554  39.553  13.438
52734W        W12479  12.266  43.945  11.592
52735W        W12480  35.991  26.066   0.744
52736W        W12481  19.049  22.547   3.825
52737W        W12482  18.759  19.683  10.415
52738W        W12483   7.888  34.535   3.744
52739W        W12484  13.634  21.018  10.544
52740W        W12485  14.184  39.459  13.319
52741W        W12486  25.124  29.972  14.291
52742W        W12487  19.654  34.003  13.934
52743W        W12488  16.187  42.922  14.829
52744W        W12489   5.817  38.990  13.057
52745W        W12490  19.755  15.154  12.999
52746W        W12491   4.209  29.483   4.192
52747W        W12492  36.488  33.883   0.384
52748W        W12493  14.297  36.539   1.217
52749W        W12494  24.020  28.503   5.268
52750W        W12495  43.011   4.306   2.294
52751W        W12496   2.920  30.613   1.212
52752W        W12497  31.617  34.986  14.478
52753W        W12498  42.929  10.763  13.039
52754W        W12499   4.853  16.097  13.495
52755W        W12500  13.826   4.259   1.929
52756W        W12501   8.871   7.325   0.349
52757W        W12502  23.135  19.699  11.384
52758W        W12503   9.239  14.833   2.900
52759W        W12504  16.793  15.734  10.991
52760W        W12505   1.450  10.191   2.901
52761W        W12506  31.435  22.017   3.241
52762W        W12507  16.603  37.370  12.092
52763W        W12508  18.069  40.313   0.273
52764W        W12509  26.525  13.613   2.335
52765W        W12510   3.817  39.963   2.866
52766W        W12511  14.686  34.526   4.263
52767W        W12512  27.689  43.800  11.427
52768W        W12513  37.461  35.954   0.775
52769W        W12514   1.882  11.698  10.600
52770W        W12515  36.950   7.266   1.292
52771W        W12516  39.507  44.989  11.027
52772W        W12517  14.241  27.573  11.431
52773W        W12518  16.645   3.758   1.759
52774W        W12519  11.868  12.832  11.095
52775W        W12520   0.822   7.369   1.321
52776W        W12521  28.984  22.643  12.972
52777W        W12522  41.809   2.836  11.593
52778W        W12523  31.917   1.932   3.173
52779W        W12524   1.768   3.422   1.878
52780W        W12525  20.056  24.708  11.097
52781W        W12526   0.371  41.814  11.456
52782W        W12527  24.132  12.742   1.318
52783W        W12528  36.419  31.423   1.819
52784W        W12529  19.264  30.011  10.637
52785W        W12530  25.062  30.116   4.250
52786W        W12531  39.888  41.827   3.211
52787W        W12532  27.015  13.249  11.563
52788W        W12533   9.873   5.228   0.375
52789W        W12534  42.443  21.251   0.789
52790W        W12535   3.329   3.380   0.473
52791W        W12536   8.205  44.787  13.481
52792W        W12537  13.674  30.634  13.355
52793W        W12538   5.421  31.420   3.280
52794W        W12539  12.796   8.337   2.668
52795W        W12540   6.828  44.829   3.638
52796W        W12541  31.423  14.632   0.864
52797W        W12542  17.637  41.504   2.252
52798W        W12543  40.866  29.995  10.987
52799W        W12544  17.761  38.012  12.914
52800W        W12545  11.219  15.171   3.146
52801W        W12546  37.499  40.852   4.679
52802W        W12547  40.401  24.675   2.351
52803W        W12548  28.618   9.275  13.032
52804W        W12549  27.599  24.076   0.463
52805W        W12550  21.521   2.824  10.958
52806W        W12551  31.404  13.206  14.344
52807W        W12552  40.885   9.188   1.756
52808W        W12553  34.401  15.783   0.903
52809W        W12554  16.687   9.356  10.902
52810W        W12555  24.547  28.955   3.253
52811W        W12556  34.491  10.722   1.802
52812W        W12557  18.684  29.147   4.727
52813W        W12558  30.441  25.124   0.251
52814W        W12559  32.948  24.219  10.557
52815W        W12560  36.930   0.460  12.545
52816W        W12561  43.853   7.716  11.582
52817W        W12562  41.932  34.439   1.854
52818W        W12563  30.078   2.869   0.382
52819W        W12564  39.980  26.664   0.296
52820W        W12565  23.682  17.244   0.868
52821W        W12566  24.138  29.134   3.218
52822W        W12567  22.031  10.813   2.747
52823W        W12568   0.306  31.972   9.580
52824W        W12569  30.554  39.887   1.863
52825W        W12570  26.987  15.187  11.599
52826W        W12571  39.926  16.707   3.306
52827W        W12572  34.517  28.670   5.104
52828W        W12573   9.244  10.150  10.596
52829W        W12574  35.548  36.411  10.898
52830W        W12575  26.657  22.518  14.995
52831W        W12576  30.953   0.949   0.255
52832W        W12577  35.002  36.359  11.120
52833W        W12578  15.776   4.348   2.297
52834W        W12579  16.219  25.545  14.321
52835W        W12580  23.491  37.535   2.800
52836W        W12581   8.707  21.244  14.334
52837W        W12582  31.594   1.811  10.430
52838W        W12583  26.144  22.180   4.615
52839W        W12584   7.697  43.981  14.955
52840W        W12585   4.450  20.537   1.336
52841W        W12586  23.994  37.976  12.846
52842W        W12587  31.041  27.154   0.374
52843W        W12588  12.803  44.311  10.608
52844W        W12589  34.953  38.474   3.643
52845W        W12590  12.300   1.310  13.430
52846W        W12591  39.909  44.769   4.604
52847W        W12592  39.547   8.866   2.213
52848W        W12593  28.654  33.590  12.918
52849W        W12594   8.734  31.437   2.300
52850W        W12595  26.592   1.828   4.283
52851W        W12596  41.874  36.062  11.026
52852W        W12597  16.768  19.129   1.374
52853W        W12598  16.095  26.004   0.293
52854W        W12599   9.325  15.705   1.264
52855W        W12600  39.005   6.374   4.355
52856W        W12601   3.928  36.583  13.800
52857W        W12602  29.067   7.678  12.057
52858W        W12603  25.626  15.119  10.545
52859W        W12604  20.593  43.369   3.152
52860W        W12605  18.131  12.632  14.490
52861W        W12606  11.295   9.394  14.011
52862W        W12607  24.717  29.121  12.902
52863W        W12608  18.236  19.568   5.130
52864W        W12609   3.846  29.121   0.880
52865W        W12610  17.794  44.291   4.789
52866W        W12611  25.987   6.767   1.415
52867W        W12612  37.996  34.438  12.855
52868W        W12613  40.362  29.485  12.437
52869W        W12614  17.773   8.801  11.055
52870W        W12615   0.419  32.005  10.030
52871W        W12616   3.853  27.998  13.419
52872W        W12617   0.896   6.705   0.326
52873W        W12618  11.756  18.173   2.293
52874W        W12619  34.019  10.813  11.937
52875W        W12620  36.408   5.817   4.819
52876W        W12621  18.678  41.847  14.999
52877W        W12622  26.037   8.780  11.374
52878W        W12623  17.711  39.314   1.384
52879W        W12624   3.790  40.350   4.307
52880W        W12625  16.267  26.036  13.340
52881W        W12626  35.532  28.012  12.928
52882W        W12627  21.540   4.893   0.420
52883W        W12628  23.014  21.690  14.825
52884W        W12629  21.156  21.216   3.845
52885W        W12630  41.843   6.333  14.828
52886W        W12631  12.118   3.834   3.770
52887W        W12632  37.856  42.398  10.487
52888W        W12633  26.520  17.122   2.887
52889W        W12634  22.618  41.944  14.787
52890W        W12635  35.997  43.836  14.275
52891W        W12636  21.550   8.834   2.665
52892W        W12637  12.742  23.617   4.268
52893W        W12638  10.194   5.328  10.914
52894W        W12639   1.800  10.166   3.278
52895W        W12640  43.404  23.222  12.492
52896W        W12641   3.370  39.936   1.858
52897W        W12642  13.201  29.132  13.534
52898W        W12643  33.080   4.841   0.802
52899W        W12644  35.954  16.087   2.396
52900W        W12645   6.425   4.764   2.277
52901W        W12646  20.649  19.050  10.632
52902W        W12647  36.062  26.206   3.253
52903W        W12648   3.449  25.590  12.533
52904W        W12649  38.897  14.712  10.582
52905W        W12650   4.354  11.342  14.968
52906W        W12651  34.891  27.984  13.370
52907W        W12652  32.432   7.818  13.022
52908W        W12653  12.787  20.737  12.860
52909W        W12654  32.459  33.439   3.714
52910W        W12655  18.142  16.603   2.808
52911W        W12656  10.244  30.072   4.294
52912W        W12657  26.633  32.490   0.272
52913W        W12658  12.266   2.872   4.641
52914W        W12659  36.397  35.600  14.485
52915W        W12660   0.260   4.231  11.411
52916W        W12661  34.887  13.142  10.607
52917W        W12662  32.465  18.181   1.700
52918W        W12663   0.400  42.019   3.291
52919W        W12664  20.765  42.949   1.707
52920W        W12665  16.707  28.474  10.623
52921W        W12666  30.973  16.634   0.726
52922W        W12667   1.956  22.520  12.407
52923W        W12668  34.993  32.979   1.344
52924W        W12669  35.482  32.520   1.729
52925W        W12670  39.828  32.004  14.506
52926W        W12671   0.423   7.240  13.349
52927W        W12672  15.313  32.608  12.991
52928W        W12673  26.085  24.975   0.829
52929W        W12674  40.489  10.366   1.376
52930W        W12675  17.252  31.071   3.700
52931W        W12676   3.716   1.767   9.930
52932W        W12677  21.229  23.672   2.284
52933W        W12678  22.744  11.229  11.000
52934W        W12679  16.288   3.304  14.948
52935W        W12680   0.962   5.726  11.946
52936W        W12681  14.715  10.790  10.644
52937W        W12682  43.957   9.206   1.787
52938W        W12683  27.003  34.410   3.645
52939W        W12684   4.314   4.327  10.992
52940W        W12685  12.338  24.989   0.292
52941W        W12686  38.909  13.784   4.713
52942W        W12687  19.072  27.651   2.714
52943W        W12688  16.177   4.266   0.830
52944W        W12689  35.897   5.341   0.798
52945W        W12690  10.165  34.117  14.372
52946W        W12691  20.616  40.868  11.505
52947W        W12692   1.286  23.186   5.142
52948W        W12693  41.807  44.365   4.740
52949W        W12694  16.604  21.709   3.669
52950W        W12695   8.188  20.238  14.799
52951W        W12696  38.943  34.417   0.437
52952W        W12697  28.527  16.747  14.960
52953W        W12698  10.243  29.963  10.949
52954W        W12699  37.555  44.907   0.348
52955W        W12700  39.334  16.793  13.869
52956W        W12701   0.300  19.679  11.585
52957W        W12702  39.430  14.741   1.833
52958W        W12703   3.915  15.768  12.876
52959W        W12704   0.481   1.336  10.469
52960W        W12705  15.596  27.019   2.366
52961W        W12706  33.093  16.754   0.751
52962W        W12707   2.281  19.069  11.865
52963W        W12708  30.518   7.774   1.227
52964W        W12709  18.711  40.478   4.772
52965W        W12710  27.630  43.003   4.829
52966W        W12711  10.706  16.146   0.854
52967W        W12712  23.076   1.731  13.517
52968W        W12713  30.989  36.022   2.199
52969W        W12714  21.245  12.342   2.298
52970W        W12715   7.221  24.983   2.740
52971W        W12716  38.010  39.879   3.736
52972W        W12717   2.454   5.258  11.458
52973W        W12718  30.474   1.858   4.199
52974W        W12719   8.802   6.221   0.940
52975W        W12720  19.273  38.434   4.167
52976W        W12721   5.354   2.951   1.753
52977W        W12722  10.852  36.029   1.714
52978W        W12723  36.355   8.761  11.528
52979W        W12724  23.129  24.185   2.187
52980W        W12725  34.598  24.514  14.847
52981W        W12726  33.080  31.073   4.810
52982W        W12727  39.372  28.102  13.865
52983W        W12728  43.308   2.922   0.871
52984W        W12729   8.251  22.659  14.815
52985W        W12730   6.685  22.224  13.323
52986W        W12731  35.038  36.854   3.183
52987W        W12732   5.356  37.002  11.460
52988W        W12733  41.010  36.569  13.924
52989W        W12734   4.428  15.692  12.386
52990W        W12735  36.019  40.353  11.584
52991W        W12736  24.515  27.619  13.791
52992W        W12737  20.674  32.114  14.414
52993W        W12738   1.774  40.864   4.207
52994W        W12739  21.104  38.442  13.408
52995W        W12740  24.995  20.679  13.859
52996W        W12741  18.255  20.710   0.273
52997W        W12742   4.783  27.514   0.377
52998W        W12743   3.782  32.491   0.339
52999W        W12744  30.934   1.379   5.767
53000W        W12745   2.845   2.761   1.298
53001W        W12746  24.689  34.876   2.396
53002W        W12747  37.582  22.715   2.367
53003W        W12748   1.329  11.167  10.473
53004W        W12749  24.497  30.646  10.490
53005W        W12750  25.989  10.142  14.368
53006W        W12751  15.580   6.828  14.777
53007W        W12752  30.424   8.772   2.400
53008W        W12753  18.734   2.893   2.807
53009W        W12754  25.496  40.369  11.953
53010W        W12755  28.670  13.709  10.513
53011W        W12756  31.465   2.407  12.883
53012W        W12757  16.138  30.030  14.390
53013W        W12758  25.020  15.217   4.680
53014W        W12759   1.935  40.407   1.397
53015W        W12760   2.285  21.020  11.435
53016W        W12761  19.675  21.260   2.386
53017W        W12762  29.933  22.620  14.847
53018W        W12763  27.651  15.302   3.317
53019W        W12764   9.806  43.019   0.455
53020W        W12765  13.175  24.032  14.886
53021W        W12766   3.387  24.198   4.269
53022W        W12767  40.888  35.493   1.778
53023W        W12768  18.649  32.528  13.930
53024W        W12769  44.851  38.072  13.941
53025W        W12770   0.937  38.502   3.699
53026W        W12771   1.926  11.681   1.867
53027W        W12772   1.912  22.168  12.849
53028W        W12773  26.515  37.864  13.548
53029W        W12774   5.904   5.262   1.809
53030W        W12775  20.033  11.739   1.362
53031W        W12776  27.052   9.871   2.858
53032W        W12777  25.573  32.936  10.943
53033W        W12778   2.448  26.590   3.181
53034W        W12779   0.309  22.031   1.780
53035W        W12780  26.674  34.590   3.869
53036W        W12781   8.683  27.670  12.501
53037W        W12782  44.464   7.838   1.268
53038W        W12783  34.050  33.935   4.288
53039W        W12784  31.921   8.225  11.420
53040W        W12785  34.470  16.660   0.808
53041W        W12786  18.643  39.969  14.383
53042W        W12787  14.724  25.066   2.213
53043W        W12788  31.132  16.616   3.294
53044W        W12789   9.652  34.019  13.356
53045W        W12790   5.903  26.571   1.261
53046W        W12791  41.899   7.256  13.315
53047W        W12792  23.572  35.990  12.979
53048W        W12793  10.758   3.859  14.439
53049W        W12794  43.308   8.324   1.281
53050W        W12795  10.748   0.837  14.899
53051W        W12796  18.774   1.762   1.873
53052W        W12797  30.092  15.653   0.390
53053W        W12798  41.353  41.821   3.791
53054W        W12799  29.925  40.811  12.503
53055W        W12800   6.921  35.589   1.832
53056W        W12801  11.634  29.000  10.561
53057W        W12802  12.166   1.742  14.503
53058W        W12803  30.618  32.112   4.654
53059W        W12804  18.561  20.675   2.679
53060W        W12805  21.236  22.104  13.494
53061W        W12806  10.808   1.409   0.300
53062W        W12807  22.035  17.647  10.436
53063W        W12808  30.472  28.036  13.852
53064W        W12809  17.092   6.878   4.691
53065W        W12810  16.237   0.316   2.246
53066W        W12811  43.987  33.085   2.724
53067W        W12812  34.606  38.056   4.254
53068W        W12813  15.775  28.604   4.769
53069W        W12814  25.089  19.171   1.754
53070W        W12815  36.361  44.959  10.927
53071W        W12816  42.444  37.954   2.384
53072W        W12817   6.219  33.566   3.314
53073W        W12818   2.847  22.225  14.312
53074W        W12819   1.806  31.616   2.268
53075W        W12820  41.996  33.622  13.532
53076W        W12821   9.685  16.315   0.459
53077W        W12822  22.613  24.545  14.911
53078W        W12823  35.892   7.900   1.347
53079W        W12824  17.276   1.790  11.571
53080W        W12825  14.644   7.200  13.378
53081W        W12826  20.522  19.088   0.380
53082W        W12827   4.243  35.468   2.348
53083W        W12828  42.807  29.964   0.740
53084W        W12829  33.447  32.095   1.881
53085W        W12830  36.940  19.777   2.804
53086W        W12831  34.528   1.875   0.437
53087W        W12832  40.930  35.928  11.901
53088W        W12833  42.523  44.772  14.772
53089W        W12834  25.501  44.854  13.810
53090W        W12835  23.003   8.709  14.402
53091W        W12836   8.860  33.887  13.057
53092W        W12837  32.587   8.255   9.517
53093W        W12838  17.268  41.322   4.698
53094W        W12839  34.892   2.873   4.652
53095W        W12840  14.780  29.480  12.456
53096W        W12841  29.030  40.468   2.784
53097W        W12842  11.353  38.985   3.206
53098W        W12843   1.741  25.017  14.963
53099W        W12844  14.260  22.024   2.189
53100W        W12845  30.486   1.437   4.177
53101W        W12846   4.794  21.078   1.365
53102W        W12847  29.024   3.268   3.183
53103W        W12848  34.083  24.484  12.864
53104W        W12849  17.112  18.214  14.300
53105W        W12850  30.468  18.054  13.457
53106W        W12851   2.297  22.029  14.792
53107W        W12852  18.151  23.507  13.904
53108W        W12853  14.782  34.045   1.816
53109W        W12854  40.920  12.223   1.812
53110W        W12855  21.696  31.926   0.313
53111W        W12856  42.498  25.205  13.986
53112W        W12857   6.785  43.909   2.698
53113W        W12858  10.745  14.645   1.439
53114W        W12859  35.602  25.046   0.729
53115W        W12860  17.796  29.432  14.875
53116W        W12861   5.774   9.323  12.566
53117W        W12862   7.848  20.208   1.928
53118W        W12863  13.313  30.968  12.367
53119W        W12864  28.629   7.870  13.017
53120W        W12865   1.888  20.028  14.949
53121W        W12866  22.635  28.147  12.044
53122W        W12867   3.380  17.244  11.413
53123W        W12868  15.611   4.853  12.055
53124W        W12869  38.380  10.797   2.412
53125W        W12870   6.689  27.154   4.655
53126W        W12871  35.401   5.906   5.235
53127W        W12872  23.109  25.114   1.908
53128W        W12873  39.901  44.925  14.377
53129W        W12874  18.688  38.369   0.735
53130W        W12875  34.947  40.799  13.943
53131W        W12876  11.765  24.180  11.511
53132W        W12877  38.425  22.636   4.627
53133W        W12878  11.787  10.672   3.213
53134W        W12879  37.904  24.680   2.681
53135W        W12880  23.603   2.928  12.084
53136W        W12881   9.772  23.592   0.285
53137W        W12882  23.069   5.401  11.887
53138W        W12883  38.074  11.704  10.973
53139W        W12884  41.503  12.633   1.867
53140W        W12885  37.411   7.855  13.470
53141W        W12886  38.835   6.196   1.882
53142W        W12887  35.979  28.562  11.890
53143W        W12888  27.020  34.036   9.588
53144W        W12889  43.779   1.240  11.099
53145W        W12890  10.686  34.455  12.054
53146W        W12891  29.538  20.638   0.272
53147W        W12892  14.820  35.953  14.849
53148W        W12893  19.236  33.063   3.671
53149W        W12894  16.136  32.046  14.396
53150W        W12895  26.530  39.390  14.897
53151W        W12896  29.025  42.814  11.450
53152W        W12897   6.292  27.109  10.095
53153W        W12898  42.421  36.943  10.990
53154W        W12899  19.156  21.597   4.250
53155W        W12900  15.743  36.047   2.258
53156W        W12901   7.672  34.030   1.703
53157W        W12902  23.602  31.491   3.207
53158W        W12903  36.360  42.942   2.336
53159W        W12904  23.688  18.581  11.086
53160W        W12905  44.982   9.238  13.822
53161W        W12906  14.805  15.326   4.718
53162W        W12907  29.998   8.183   3.711
53163W        W12908  10.369   2.442   0.363
53164W        W12909  18.747   7.705   4.705
53165W        W12910  24.217  19.205   4.702
53166W        W12911  29.921  36.358   4.354
53167W        W12912   8.246  27.589   3.194
53168W        W12913  13.118   2.421  14.484
53169W        W12914  26.063   1.280   4.282
53170W        W12915   8.667   6.895  14.843
53171W        W12916  21.255  14.619   2.342
53172W        W12917   3.927  15.167   1.240
53173W        W12918  35.057  16.715   4.772
53174W        W12919  29.639  36.029  11.575
53175W        W12920  23.185   2.470  13.851
53176W        W12921   7.320  36.004  14.816
53177W        W12922  22.203  31.914  13.357
53178W        W12923  28.584  18.586  10.422
53179W        W12924  10.193  39.398  10.538
53180W        W12925  34.509   1.747  12.482
53181W        W12926  15.273  22.511   4.825
53182W        W12927  35.546   6.402   2.247
53183W        W12928  38.953  38.356   3.215
53184W        W12929   2.848  30.072  14.846
53185W        W12930  28.050  31.976   5.158
53186W        W12931  41.509   8.207   0.855
53187W        W12932   4.773   8.731   5.099
53188W        W12933  12.807  30.474  11.010
53189W        W12934  25.639  10.819  13.843
53190W        W12935  22.201  40.995  12.437
53191W        W12936  37.868   4.721  11.381
53192W        W12937  14.249  37.422  12.964
53193W        W12938  14.811  20.177   3.779
53194W        W12939  18.294  35.528  14.325
53195W        W12940  29.925  36.396   1.234
53196W        W12941  16.606  37.470  10.508
53197W        W12942  19.121  37.455   0.827
53198W        W12943  42.295  37.395  14.507
53199W        W12944   2.730   6.726  10.476
53200W        W12945  35.976  10.221   4.711
53201W        W12946   9.208  19.766   5.187
53202W        W12947  38.902  29.055   4.661
53203W        W12948  30.995   3.799   0.789
53204W        W12949  41.834  34.569  14.368
53205W        W12950  34.890  21.529  14.370
53206W        W12951   2.383  27.523  12.837
53207W        W12952  21.244  24.039  12.506
53208W        W12953   7.681  23.173  13.435
53209W        W12954  14.630  39.043   1.798
53210W        W12955  41.006  36.585   3.678
53211W        W12956   3.823   1.409   4.239
53212W        W12957   3.893   8.201  14.867
53213W        W12958   6.755  34.924   4.618
53214W        W12959  11.293  35.603   1.810
53215W        W12960  28.173  22.609   3.225
53216W        W12961   1.259  37.005   2.376
53217W        W12962  12.273   5.291   1.306
53218W        W12963   8.880  24.717  14.920
53219W        W12964   5.800  43.351  12.997
53220W        W12965  22.709  44.278  12.051
53221W        W12966  11.621   8.808  14.893
53222W        W12967  35.938  39.380  11.064
53223W        W12968  18.565  11.839   1.883
53224W        W12969  36.949  33.468  14.369
53225W        W12970  20.748  11.699  12.376
53226W        W12971  26.487  40.805   3.682
53227W        W12972  24.217  17.637  13.511
53228W        W12973  20.622  29.555   1.342
53229W        W12974  42.975  44.458   3.761
53230W        W12975  25.130  21.139  13.875
53231W        W12976  25.057  40.890  11.074
53232W        W12977   2.849  17.632   2.894
53233W        W12978  44.925  30.910  12.462
53234W        W12979  16.773   4.901   1.793
53235W        W12980  19.553   9.714  10.569
53236W        W12981  30.974  24.688   0.376
53237W        W12982  16.233  13.305  11.432
53238W        W12983  19.695  13.322   5.180
53239W        W12984  36.088  23.220  11.497
53240W        W12985  21.098  11.859   3.168
53241W        W12986  36.383  33.114   4.132
53242W        W12987  16.218  41.531  12.898
53243W        W12988   2.319  20.748   3.824
53244W        W12989  14.767  42.483   4.172
53245W        W12990   6.354  20.066  12.960
53246W        W12991  11.324  23.202   1.815
53247W        W12992  36.996  40.440   0.796
53248W        W12993  21.121  12.659  12.496
53249W        W12994  28.656  14.148   3.281
53250W        W12995  43.867   6.214  13.943
53251W        W12996  36.094  17.649   0.263
53252W        W12997  31.007  43.835   2.342
53253W        W12998  19.062  36.414  13.985
53254W        W12999   6.708  17.791  12.917
53255W        W13000  26.174  23.670   0.755
53256W        W13001   5.421  10.859   2.668
53257W        W13002  32.602  31.006   2.313
53258W        W13003  42.322  18.285  12.916
53259W        W13004  43.437  30.917  11.110
53260W        W13005  20.150   2.469   2.240
53261W        W13006  42.410  17.131   3.311
53262W        W13007   7.807   9.315   0.337
53263W        W13008  41.953  39.442  12.459
53264W        W13009  37.406  18.782   1.398
53265W        W13010  11.163  31.105  11.427
53266W        W13011  13.841  29.091   2.834
53267W        W13012  29.488  15.738  11.605
53268W        W13013  38.045  23.680  14.323
53269W        W13014  28.523  31.042   0.345
53270W        W13015  13.729  13.241  10.981
53271W        W13016  25.025  24.480   1.428
53272W        W13017  41.005  14.257   1.776
53273W        W13018  32.885  36.924  14.996
53274W        W13019  34.875   2.306  13.796
53275W        W13020  33.885  11.151   3.165
53276W        W13021  30.582   8.769  11.930
53277W        W13022  27.446   4.855   3.656
53278W        W13023  12.821   1.428   2.858
53279W        W13024   4.242  29.663   4.628
53280W        W13025  37.450   3.858   2.293
53281W        W13026  37.076  34.543  13.369
53282W        W13027  16.113  26.031   1.862
53283W        W13028  24.491  41.365   0.282
53284W        W13029   6.834  27.546  13.337
53285W        W13030  12.281  31.133  14.428
53286W        W13031   2.898  27.573   1.700
53287W        W13032   8.304  31.455   1.393
53288W        W13033  30.109  35.865   3.296
53289W        W13034   9.874  43.309  14.360
53290W        W13035  29.484   1.826  11.859
53291W        W13036  27.632  16.595   4.636
53292W        W13037  25.492  22.188   1.759
53293W        W13038  37.551   9.394   2.868
53294W        W13039   1.849  24.524  11.010
53295W        W13040   4.869  37.445  12.478
53296W        W13041  33.596  21.658  13.981
53297W        W13042  30.618  18.108   0.952
53298W        W13043  11.166   2.754   2.682
53299W        W13044  39.983   8.321   0.951
53300W        W13045   1.295  34.924   4.210
53301W        W13046  11.661  11.273  11.441
53302W        W13047   3.292  24.718  12.013
53303W        W13048  39.028  30.473  14.275
53304W        W13049  19.135  33.991   3.166
53305W        W13050  40.800  17.141   3.788
53306W        W13051   7.738  42.862   3.322
53307W        W13052  17.174   8.400   4.200
53308W        W13053  12.686  35.904  13.479
53309W        W13054  17.602  25.030  11.538
53310W        W13055   7.207  16.114   3.307
53311W        W13056  18.572  20.230   0.963
53312W        W13057  35.415  19.047  12.972
53313W        W13058  12.248   8.203   0.928
53314W        W13059   3.286  27.035   4.205
53315W        W13060  21.516   5.762   1.839
53316W        W13061  23.201   2.238   2.329
53317W        W13062  26.016  44.419  13.870
53318W        W13063  18.730  40.498   0.854
53319W        W13064  37.067  34.508  13.056
53320W        W13065  19.659   5.199   1.809
53321W        W13066  44.299  14.757  11.046
53322W        W13067  32.012   8.261   4.147
53323W        W13068  19.082   7.335  11.437
53324W        W13069  42.852   1.763   0.472
53325W        W13070  22.186   7.808  14.936
53326W        W13071  30.429  43.431  11.970
53327W        W13072  21.165  30.470  14.941
53328W        W13073  40.462  19.262  10.493
53329W        W13074  20.106  36.567   0.942
53330W        W13075  29.032   5.315  14.490
53331W        W13076  22.562  10.871   4.742
53332W        W13077  25.546  36.915  12.872
53333W        W13078   4.313  20.076   4.238
53334W        W13079   4.411  41.032  13.036
53335W        W13080  39.346  23.724  11.604
53336W        W13081  21.141  18.668  14.441
53337W        W13082   4.704  38.941   0.803
53338W        W13083  22.587   7.752  12.995
53339W        W13084   9.160  38.453   2.273
53340W        W13085  28.015  19.154  12.552
53341W        W13086  12.615  43.959   0.296
53342W        W13087   9.645   3.865  11.043
53343W        W13088   0.765  35.853   2.702
53344W        W13089  10.870   6.831  13.380
53345W        W13090  36.846  38.027  14.426
53346W        W13091  11.266  24.692   2.880
53347W        W13092  28.162  42.422   2.857
53348W        W13093  19.723  17.655  14.901
53349W        W13094   8.183  14.119  10.932
53350W        W13095   7.716  40.027  11.930
53351W        W13096  43.790   5.734  14.399
53352W        W13097  24.123  16.727  13.494
53353W        W13098  16.239  41.396   4.798
53354W        W13099  25.676  20.036   2.275
53355W        W13100   6.891  16.784  14.365
53356W        W13101  13.824   6.869  13.952
53357W        W13102  35.858  16.285  12.579
53358W        W13103  35.373  38.327  13.321
53359W        W13104  25.675  43.380  13.361
53360W        W13105   1.927  27.642   4.249
53361W        W13106  44.302  17.699   0.277
53362W        W13107  38.855  13.828   1.853
53363W        W13108  43.870  21.666   1.315
53364W        W13109  28.066  43.342   0.444
53365W        W13110  13.828  24.217  12.497
53366W        W13111  10.193  20.560   4.772
53367W        W13112  23.199   5.414  12.358
53368W        W13113  27.053  31.087   5.228
53369W        W13114  29.636  26.099  12.055
53370W        W13115  21.542  40.857  13.860
53371W        W13116  38.495  18.134  14.905
53372W        W13117   6.394  40.422  14.391
53373W        W13118  29.957   2.263  13.447
53374W        W13119  19.549  26.969   2.319
53375W        W13120  24.489  23.508   0.267
53376W        W13121   0.314  16.189   3.325
53377W        W13122  37.970  44.818  10.924
53378W        W13123  19.598  33.950   2.814
53379W        W13124  43.882   6.209  12.929
53380W        W13125  24.503  18.648  13.063
53381W        W13126  19.750   6.845  11.877
53382W        W13127  37.870  21.572   1.801
53383W        W13128   7.847  44.296   3.754
53384W        W13129  20.224  32.937  13.939
53385W        W13130  16.301  27.083  11.559
53386W        W13131   1.368  42.927   0.746
53387W        W13132  40.798  34.519   3.351
53388W        W13133   4.414  41.325   3.652
53389W        W13134   7.405  43.493  13.508
53390W        W13135  33.886  10.376  12.389
53391W        W13136  11.224  27.042   1.761
53392W        W13137  19.160  17.268   1.427
53393W        W13138   8.322   6.274  14.282
53394W        W13139   9.255  44.901  11.039
53395W        W13140   3.390  38.473   0.400
53396W        W13141  15.216  40.950   0.922
53397W        W13142  16.286  33.002  11.579
53398W        W13143  21.130   9.782   0.851
53399W        W13144  39.364  38.543  12.463
53400W        W13145  35.475  10.176  11.046
53401W        W13146  24.593  19.049   0.741
53402W        W13147  24.203  28.091   0.337
53403W        W13148  13.313  15.102   3.695
53404W        W13149  27.451  10.671  11.017
53405W        W13150  38.500  31.623  11.427
53406W        W13151   4.370   1.365   3.258
53407W        W13152  31.094  14.591  14.990
53408W        W13153   9.290  13.661   3.714
53409W        W13154  25.050  20.692   1.239
53410W        W13155   5.304  34.609   1.417
53411W        W13156   8.735  43.769  11.462
53412W        W13157   8.828  17.623  11.608
53413W        W13158   5.930  40.019  12.844
53414W        W13159  26.567  32.994  12.470
53415W        W13160  21.065  38.059  14.330
53416W        W13161  44.298  43.359  13.994
53417W        W13162  31.909  24.076  13.538
53418W        W13163  37.855  38.034  14.817
53419W        W13164  14.747  11.185   1.740
53420W        W13165   6.839  33.585  10.901
53421W        W13166  13.189   8.818   3.235
53422W        W13167  15.797  35.988  14.877
53423W        W13168  40.409  33.597   2.251
53424W        W13169   0.880   8.388  14.774
53425W        W13170   5.431  36.489   4.131
53426W        W13171   8.326  35.523  11.596
53427W        W13172  12.643  19.580   1.377
53428W        W13173  36.568  31.129  12.941
53429W        W13174  22.571   6.421   3.224
53430W        W13175  23.581   0.780  14.950
53431W        W13176  14.340   7.886  12.440
53432W        W13177   5.703  23.618   4.336
53433W        W13178  40.049  19.105  13.881
53434W        W13179  10.232  33.992  13.548
53435W        W13180  21.726  17.142   1.924
53436W        W13181  36.502  20.250   4.291
53437W        W13182  20.688   3.226   4.781
53438W        W13183   0.823   3.356   4.207
53439W        W13184   0.787  26.041   9.673
53440W        W13185   3.371   8.383   2.224
53441W        W13186   7.693  27.606  10.532
53442W        W13187  33.885  43.021   0.356
53443W        W13188  40.437  30.082  14.288
53444W        W13189   8.259   4.386  11.982
53445W        W13190  27.568   2.296  11.962
53446W        W13191   7.317   4.371  14.907
53447W        W13192  10.182   8.200   0.347
53448W        W13193  24.694   8.350  13.893
53449W        W13194  37.884   5.285  11.608
53450W        W13195  26.069  27.082   0.309
53451W        W13196  30.593   6.279   0.304
53452W        W13197   0.326  33.405  14.509
53453W        W13198  44.916   9.667  12.058
53454W        W13199   0.965  40.309   1.742
53455W        W13200  27.191   9.817   0.420
53456W        W13201  40.995  34.427   4.713
53457W        W13202  23.533  38.346  11.900
53458W        W13203   8.696  36.075   4.193
53459W        W13204  29.618  35.038   1.903
53460W        W13205  15.664   8.661  13.993
53461W        W13206  22.577  43.889  11.071
53462W        W13207   6.367  26.568   1.698
53463W        W13208   9.811  41.392   4.833
53464W        W13209  17.152  31.966   5.136
53465W        W13210  29.036  24.088   1.281
53466W        W13211  13.344  38.395  11.102
53467W        W13212   0.483  35.381  12.062
53468W        W13213  26.128  41.786   3.216
53469W        W13214   4.429  40.028  14.899
53470W        W13215  33.003  24.690   3.178
53471W        W13216  38.336  17.098   4.750
53472W        W13217  39.493  45.000  11.561
53473W        W13218  12.743  21.589   1.932
53474W        W13219  13.751   4.212  12.542
53475W        W13220  31.966  30.055   2.810
53476W        W13221  12.618  23.108   1.918
53477W        W13222   0.317   8.326   1.872
53478W        W13223  15.655  33.388  13.499
53479W        W13224   3.314   7.174   4.740
53480W        W13225  16.212  41.455   3.640
53481W        W13226  18.136   1.453   3.794
53482W        W13227   9.663  27.593  12.345
53483W        W13228  25.218  23.669   0.777
53484W        W13229   6.371   3.459   3.205
53485W        W13230  44.932  34.896  13.029
53486W        W13231  20.267   9.849   0.923
53487W        W13232  13.261  11.700  11.968
53488W        W13233  42.010  41.500  14.299
53489W        W13234   2.790  43.850  11.426
53490W        W13235  30.636  29.039  10.562
53491W        W13236   6.372  44.890  11.872
53492W        W13237  26.654   4.922  10.539
53493W        W13238  39.556  20.599  14.914
53494W        W13239  27.074  38.936   4.278
53495W        W13240   3.299  35.872   2.193
53496W        W13241   2.761   6.321   4.799
53497W        W13242  28.997  24.153   2.786
53498W        W13243  21.565  21.082  12.912
53499W        W13244  41.341  10.351   3.332
53500W        W13245  14.678  12.353   4.201
53501W        W13246  35.063  18.255   2.223
53502W        W13247  26.666   6.229  11.437
53503W        W13248  22.112   2.443  13.858
53504W        W13249  14.819   7.906  14.278
53505W        W13250  18.643  33.452   0.837
53506W        W13251   5.232  12.146  13.820
53507W        W13252  27.022  20.136  11.593
53508W        W13253   2.806  44.360   3.837
53509W        W13254   5.715  34.088   4.300
53510W        W13255  21.144  27.029  14.404
53511W        W13256   8.745   3.712  11.085
53512W        W13257   4.747  17.794  11.497
53513W        W13258  35.582  24.052  14.888
53514W        W13259  33.504  30.600   3.691
53515W        W13260  42.509  14.244  11.523
53516W        W13261  40.423  16.648   2.737
53517W        W13262   2.441  31.048  11.862
53518W        W13263  13.790   9.709  13.866
53519W        W13264   6.183  10.670  11.012
53520W        W13265  19.254   8.679  12.876
53521W        W13266  29.050  23.177   0.375
53522W        W13267  15.195  26.537  12.554
53523W        W13268  36.894   8.397  11.519
53524W        W13269  31.056  37.571  10.098
53525W        W13270  14.158   3.282   4.811
53526W        W13271  12.806  22.166   4.114
53527W        W13272  33.098  28.490   2.824
53528W        W13273  14.825   6.358  13.450
53529W        W13274  23.219  20.701  10.434
53530W        W13275   7.714  13.618  14.979
53531W        W13276  29.948  19.703   2.805
53532W        W13277  37.344  17.634   4.691
53533W        W13278  10.305  23.603   0.914
53534W        W13279  24.720  36.004  13.364
53535W        W13280  44.449  33.106  11.465
53536W        W13281  26.464   6.241   5.202
53537W        W13282  28.440  29.950   2.287
53538W        W13283  23.213  18.270   2.811
53539W        W13284  29.956  11.867  10.605
53540W        W13285  23.649  35.561  14.770
53541W        W13286  40.869   7.401   4.261
53542W        W13287   1.359  30.429  14.766
53543W        W13288  25.152  39.979  13.022
53544W        W13289   7.254  41.008  10.506
53545W        W13290  11.253  29.512   0.312
53546W        W13291  19.153  20.074   1.333
53547W        W13292  16.316  25.588  13.444
53548W        W13293  25.546  21.052  11.981
53549W        W13294  35.480   3.450  11.588
53550W        W13295  39.464  39.903  12.374
53551W        W13296   7.261  29.142  12.422
53552W        W13297  40.303  40.337   1.441
53553W        W13298   8.292  36.062   0.412
53554W        W13299   9.657   0.767  11.530
53555W        W13300  18.579  13.127   1.377
53556W        W13301  25.200  40.390  14.495
53557W        W13302   2.398  34.382  13.507
53558W        W13303  25.683  18.708  14.836
53559W        W13304  18.585  15.209   0.417
53560W        W13305  13.607  31.640   3.337
53561W        W13306  13.170  31.941  11.453
53562W        W13307  17.744  29.630   1.343
53563W        W13308  36.540  20.542  11.589
53564W        W13309   3.715  16.278   3.643
53565W        W13310  30.910  34.085  13.062
53566W        W13311  18.202  25.491  14.475
53567W        W13312  17.570  38.031   2.902
53568W        W13313  37.539  24.646  12.967
53569W        W13314  15.266  18.134   3.292
53570W        W13315  36.440   2.860  12.021
53571W        W13316   2.730  40.416   4.251
53572W        W13317   4.864  11.374  13.965
53573W        W13318  26.535  38.454   0.925
53574W        W13319  25.971   3.784  13.509
53575W        W13320   9.314  22.242   0.886
53576W        W13321   9.392  38.875  11.928
53577W        W13322  43.806  10.844   2.260
53578W        W13323   6.363  17.115   3.712
53579W        W13324  38.460  19.173  13.319
53580W        W13325  24.585  26.701  14.438
53581W        W13326  28.654  36.395   2.837
53582W        W13327  32.481  21.090   3.787
53583W        W13328  43.437  39.947   1.866
53584W        W13329  40.829  40.443   2.867
53585W        W13330  20.152  15.617  13.423
53586W        W13331   1.264  14.276  11.932
53587W        W13332   0.783  17.801  14.929
53588W        W13333  24.704   0.831   3.326
53589W        W13334  39.491  44.316  12.561
53590W        W13335  16.215  12.178   3.775
53591W        W13336  17.185  37.891  14.874
53592W        W13337  31.556  26.165  14.835
53593W        W13338   2.723  36.096  12.997
53594W        W13339  10.178   8.267  12.340
53595W        W13340   0.358  34.994  13.014
53596W        W13341  23.183  29.461  13.884
53597W        W13342  26.096   8.304  12.543
53598W        W13343   3.226   9.208  12.039
53599W        W13344  27.945   8.896  11.914
53600W        W13345  12.231  32.413   0.945
53601W        W13346  38.450  10.249   2.752
53602W        W13347  43.381  34.899  14.293
53603W        W13348  33.532  37.402   2.275
53604W        W13349  21.751   5.433  12.950
53605W        W13350  39.405  40.539   3.304
53606W        W13351   3.429  34.470  12.985
53607W        W13352   5.318   8.825   3.693
53608W        W13353  42.911  37.485   5.286
53609W        W13354  43.409  25.044   5.129
53610W        W13355  41.015  18.732   1.761
53611W        W13356  28.027  28.944  14.955
53612W        W13357  44.984  27.669   5.701
53613W        W13358  11.333  10.765   3.764
53614W        W13359  36.961  15.717  14.832
53615W        W13360   4.837   9.231  13.893
53616W        W13361  13.288  18.084  11.124
53617W        W13362  28.503  30.092   1.731
53618W        W13363  26.688   3.783  13.805
53619W        W13364  28.953   7.686  11.528
53620W        W13365  25.604  17.558   4.832
53621W        W13366   9.313  34.886  14.501
53622W        W13367   8.238   7.219  10.407
53623W        W13368  22.555  29.948   0.853
53624W        W13369  39.018   8.277  10.922
53625W        W13370  21.178  40.938  14.300
53626W        W13371  30.013  14.600  13.016
53627W        W13372  11.784  39.931   0.327
53628W        W13373  26.688  31.444  13.465
53629W        W13374  36.857  33.465   1.413
53630W        W13375   0.902  28.097  14.863
53631W        W13376  12.360  43.928   0.314
53632W        W13377   3.269  38.481   1.850
53633W        W13378  36.448  35.539   0.420
53634W        W13379  27.471  13.247  12.044
53635W        W13380  20.035  32.580  12.056
53636W        W13381  37.974  37.904  13.041
53637W        W13382  39.377  31.988   0.333
53638W        W13383  35.549  42.969   1.889
53639W        W13384  28.037   0.888   3.260
53640W        W13385   9.728   4.344   3.362
53641W        W13386  18.105  11.309   0.838
53642W        W13387   1.384  26.610  11.999
53643W        W13388  35.910  32.109   1.736
53644W        W13389  43.293  24.616   1.750
53645W        W13390  10.873  40.024  12.920
53646W        W13391  43.330  16.721  12.483
53647W        W13392  25.639  24.523  12.997
53648W        W13393   7.815  44.463  12.954
53649W        W13394  18.143  13.134   3.692
53650W        W13395   8.313  24.159   1.407
53651W        W13396   7.177  43.345  11.084
53652W        W13397  24.067   9.879  12.923
53653W        W13398   2.768  29.140   1.889
53654W        W13399  40.536   2.778  11.423
53655W        W13400   1.841   5.413   0.480
53656W        W13401  10.296  29.479  11.989
53657W        W13402  32.423  43.292  13.939
53658W        W13403  44.922  42.000  13.508
53659W        W13404   2.815  23.107   0.426
53660W        W13405  27.690  22.110  13.530
53661W        W13406  26.998  24.137  12.061
53662W        W13407   1.757  25.018   2.323
53663W        W13408  38.823  29.569   1.825
53664W        W13409  24.985  39.535  14.315
53665W        W13410  27.618  15.769   0.264
53666W        W13411  25.687  21.656   1.305
53667W        W13412   1.470   0.442   3.276
53668W        W13413  38.398   1.911  11.010
53669W        W13414   9.273  34.903  13.338
53670W        W13415  23.519  43.420   0.317
53671W        W13416   6.402  15.792   2.764
53672W        W13417  28.441  28.448   1.349
53673W        W13418  23.197  22.747   4.276
53674W        W13419   5.816  21.119   0.815
53675W        W13420  28.999  18.697   1.744
53676W        W13421  18.146  41.023  12.368
53677W        W13422   3.899  43.801   0.764
53678W        W13423  16.143  26.538   3.265
53679W        W13424  36.028  33.067   1.396
53680W        W13425  32.496  17.070   4.303
53681W        W13426  30.013  28.537  11.894
53682W        W13427  17.244  41.892   3.172
53683W        W13428  15.194  32.927  12.994
53684W        W13429  14.608  13.347   2.307
53685W        W13430  36.031  26.494  10.532
53686W        W13431   5.772  13.230  13.035
53687W        W13432  27.680  34.463  10.468
53688W        W13433  32.998   6.251   4.797
53689W        W13434  16.212  40.994  13.795
53690W        W13435  44.870  28.163   4.629
53691W        W13436  34.415   3.423   1.826
53692W        W13437  18.753   2.778   1.902
53693W        W13438  28.148  38.336   4.153
53694W        W13439   6.378  39.386  11.454
53695W        W13440  15.175  15.786   3.368
53696W        W13441  19.710  40.478   3.677
53697W        W13442  19.089   9.249  11.559
53698W        W13443  26.500  32.083  11.434
53699W        W13444  12.293   3.721   0.841
53700W        W13445  36.029   3.856  12.010
53701W        W13446  39.393   4.716  13.964
53702W        W13447  22.584  42.437  13.415
53703W        W13448  38.495  10.281   4.710
53704W        W13449  14.669  42.525   1.818
53705W        W13450   8.175   6.411   2.285
53706W        W13451  38.489  38.476  13.523
53707W        W13452  39.351  41.333  11.908
53708W        W13453  24.218  36.561  14.796
53709W        W13454  30.928  39.915  11.437
53710W        W13455  25.535  35.518   1.316
53711W        W13456  44.809  39.878  13.503
53712W        W13457  33.483  27.057  11.078
53713W        W13458  32.622  28.143  14.348
53714W        W13459  31.999  24.997   0.850
53715W        W13460  28.506  44.414   0.755
53716W        W13461  10.205   4.301  14.974
53717W        W13462  22.523   8.862   4.702
53718W        W13463  38.394  20.747   3.700
53719W        W13464  17.789  22.142   3.334
53720W        W13465  14.603  23.633   4.635
53721W        W13466  43.840  37.074  11.042
53722W        W13467   6.754  33.960  11.123
53723W        W13468   7.257  38.538  11.446
53724W        W13469  43.275  12.304   0.853
53725W        W13470   6.776   9.881   2.822
53726W        W13471  43.495   2.843  12.550
53727W        W13472  39.011  13.731  11.476
53728W        W13473  23.109  26.053  14.323
53729W        W13474  26.586  37.478  12.431
53730W        W13475  33.422  31.559  12.838
53731W        W13476  39.011  40.809  10.527
53732W        W13477  20.572  21.202   1.296
53733W        W13478  30.088   5.437  13.331
53734W        W13479  32.543  43.282   0.935
53735W        W13480  42.526  17.132  13.938
53736W        W13481   1.826  20.043  13.415
53737W        W13482   2.949   6.700   2.196
53738W        W13483  19.646  34.479   0.757
53739W        W13484  18.061  23.996  11.480
53740W        W13485   3.251  24.091   3.714
53741W        W13486  43.321  29.997   3.347
53742W        W13487  25.612  22.226  12.579
53743W        W13488  24.554  27.549   3.215
53744W        W13489  14.151  35.100  12.534
53745W        W13490  43.875  10.652   4.803
53746W        W13491  20.238   1.950  12.502
53747W        W13492  41.894  24.672   3.692
53748W        W13493  35.421  37.065   4.240
53749W        W13494  20.091   0.278  12.018
53750W        W13495  35.034  18.137   3.747
53751W        W13496  43.485  36.873   4.661
53752W        W13497   7.874  35.892  11.912
53753W        W13498  31.029  12.318  14.031
53754W        W13499  28.539   6.234   1.852
53755W        W13500  13.320  18.619  12.375
53756W        W13501  24.175  14.681  13.808
53757W        W13502  20.195  30.469  12.514
53758W        W13503  15.227  26.512   0.353
53759W        W13504  33.495  27.000   3.730
53760W        W13505  25.557  21.587   4.128
53761W        W13506  42.307  35.595  13.513
53762W        W13507  23.191   2.903  13.918
53763W        W13508  20.767  43.363  13.804
53764W        W13509  32.114  40.897  12.926
53765W        W13510  26.113  42.886  10.161
53766W        W13511   1.451  42.457  10.904
53767W        W13512   9.332  22.551   1.352
53768W        W13513  28.479  27.511   2.335
53769W        W13514   8.216  25.166   4.667
53770W        W13515  10.765  31.029  12.019
53771W        W13516  34.400  40.916  10.499
53772W        W13517   9.390  14.733  10.443
53773W        W13518  32.412  34.411  12.942
53774W        W13519   9.742  26.073   3.712
53775W        W13520  41.992  39.979   0.949
53776W        W13521  41.456  38.017   4.770
53777W        W13522  14.685  38.874   5.272
53778W        W13523  17.147   4.261  12.891
53779W        W13524  32.943  40.332   4.624
53780W        W13525  26.970  32.113  11.990
53781W        W13526  11.650  15.628   0.292
53782W        W13527  36.981  30.478  13.880
53783W        W13528  34.567   0.788   2.209
53784W        W13529   7.754  11.153  11.871
53785W        W13530  17.646  25.962  12.363
53786W        W13531   0.836  40.392  13.359
53787W        W13532  41.457  13.216  11.440
53788W        W13533  44.376  17.086   2.231
53789W        W13534  17.087  24.570   1.783
53790W        W13535  30.611  15.269   3.166
53791W        W13536  14.236  38.002   9.925
53792W        W13537  43.965  25.061  14.796
53793W        W13538   1.866  37.512   0.944
53794W        W13539  44.491   8.748  12.843
53795W        W13540  24.721  25.629   4.303
53796W        W13541  40.484  41.380  12.945
53797W        W13542  25.035  18.094  14.385
53798W        W13543  20.122  40.997   1.225
53799W        W13544  31.541  26.981   2.335
53800W        W13545  20.138  28.980  12.006
53801W        W13546  36.550  21.229  14.362
53802W        W13547  15.701   3.752  10.597
53803W        W13548  18.560  16.748  10.920
53804W        W13549   3.357  31.492   4.280
53805W        W13550  34.523   1.409   4.267
53806W        W13551  42.513  42.384  14.318
53807W        W13552  33.875   4.698   9.629
53808W        W13553  29.434  42.963   0.409
53809W        W13554  31.638  29.560  14.471
53810W        W13555  28.140   5.914  13.047
53811W        W13556  27.624  36.905   1.353
53812W        W13557   7.681  27.145  13.974
53813W        W13558  22.725  22.076  13.972
53814W        W13559   3.899  18.099  10.974
53815W        W13560  16.812   7.867   1.244
53816W        W13561   3.230  17.729  10.107
53817W        W13562  44.309  41.380  10.420
53818W        W13563  44.362  37.831   2.188
53819W        W13564  33.621   8.717   4.321
53820W        W13565  11.837  16.689  14.767
53821W        W13566  36.942   0.971  13.024
53822W        W13567  20.732  32.553  11.989
53823W        W13568   4.353   7.839   3.286
53824W        W13569  17.123  31.567  10.413
53825W        W13570  23.227  33.608   3.799
53826W        W13571   4.332  31.624  13.871
53827W        W13572  14.193  14.199   4.604
53828W        W13573  18.267  27.082  13.512
53829W        W13574  32.462  13.206   2.756
53830W        W13575  41.898  38.522  14.016
53831W        W13576   2.966  40.967   2.866
53832W        W13577  28.519  32.549   1.285
53833W        W13578  22.722  36.370  13.838
53834W        W13579  24.070  41.916   0.856
53835W        W13580   1.252  33.496   9.636
53836W        W13581   1.842  12.212  12.848
53837W        W13582  19.556  38.867   1.282
53838W        W13583  36.036   9.347   3.263
53839W        W13584  33.408  30.936  13.988
53840W        W13585   5.355  32.114   2.189
53841W        W13586  15.685  27.972  11.066
53842W        W13587  33.054  10.793  10.599
53843W        W13588  16.690   9.236  10.445
53844W        W13589  37.872  17.738   3.154
53845W        W13590  43.924  30.556   1.788
53846W        W13591  26.142  34.409   3.377
53847W        W13592  26.171  29.659   5.182
53848W        W13593  34.981   8.784  14.439
53849W        W13594  30.442  30.614  13.806
53850W        W13595  26.588  26.550  12.941
53851W        W13596   0.438  35.867   0.447
53852W        W13597  19.740  21.623   0.855
53853W        W13598   4.375  40.045  11.076
53854W        W13599  37.853  19.255  13.510
53855W        W13600  23.515   9.805   2.341
53856W        W13601  37.927  33.531  11.959
53857W        W13602   5.730   0.370  14.914
53858W        W13603  12.696  31.910   3.379
53859W        W13604   7.863   8.788   4.204
53860W        W13605  31.621  11.343   0.872
53861W        W13606   4.777  22.668  13.325
53862W        W13607  19.040  28.526   0.464
53863W        W13608  38.014   3.824   3.807
53864W        W13609  10.230  26.565   9.993
53865W        W13610  36.045  25.127   4.246
53866W        W13611   0.350  37.900   0.863
53867W        W13612  44.275  17.259  14.987
53868W        W13613  39.517   9.330  13.997
53869W        W13614   2.822  24.124  14.917
53870W        W13615  18.702   4.807  11.012
53871W        W13616   6.769  27.002   1.213
53872W        W13617   6.724  30.493   3.824
53873W        W13618  34.473  39.946  12.417
53874W        W13619  13.757   4.857  11.056
53875W        W13620   1.817  29.003  14.032
53876W        W13621  34.079  26.132   2.316
53877W        W13622  19.683   7.202   1.306
53878W        W13623  12.760   3.452   4.660
53879W        W13624  37.050  29.524   4.131
53880W        W13625  23.593   0.836  10.537
53881W        W13626   9.786  39.553  14.963
53882W        W13627  18.687  26.586   0.965
53883W        W13628  35.954   3.393   1.426
53884W        W13629  41.959  24.663  12.036
53885W        W13630  25.706   3.297  13.475
53886W        W13631  36.448  29.514  14.007
53887W        W13632   7.361   4.373  11.482
53888W        W13633  26.083   2.392  12.854
53889W        W13634  42.340  41.357  13.330
53890W        W13635  41.841  14.769   3.157
53891W        W13636  27.963   1.847   1.916
53892W        W13637   9.205  25.660   2.261
53893W        W13638  43.502  15.606   4.722
53894W        W13639  30.563  36.513   3.749
53895W        W13640  18.147   2.226  13.891
53896W        W13641  14.824  14.160   0.418
53897W        W13642  13.316  35.097   0.745
53898W        W13643  39.443  12.791   1.928
53899W        W13644  19.206   6.250  10.904
53900W        W13645  43.897  14.255   4.344
53901W        W13646  13.183  25.593   1.288
53902W        W13647  10.245  22.186   1.718
53903W        W13648   6.331  42.425   0.348
53904W        W13649  30.413  44.268   0.385
53905W        W13650  34.982   5.693  13.360
53906W        W13651  26.009  19.250  14.852
53907W        W13652   2.358  40.396  12.545
53908W        W13653  38.848   7.402  13.393
53909W        W13654  31.587  29.507  11.526
53910W        W13655  23.665   2.848  13.817
53911W        W13656  39.382   7.716   3.695
53912W        W13657  24.519  15.740  12.345
53913W        W13658  24.026  12.631  13.367
53914W        W13659  34.085  11.295   4.236
53915W        W13660  36.844  29.037   0.356
53916W        W13661  31.066  40.304   0.284
53917W        W13662  30.005  27.537   4.732
53918W        W13663  30.039  29.484  13.036
53919W        W13664  41.876  43.325  11.588
53920W        W13665   3.847   2.225   0.258
53921W        W13666  35.907  43.823  10.534
53922W        W13667   0.909   7.185  10.625
53923W        W13668  41.515  23.214   1.261
53924W        W13669  26.588  40.053   1.782
53925W        W13670  16.262  20.076   4.824
53926W        W13671  12.272  18.748  14.761
53927W        W13672   0.774  39.355   1.853
53928W        W13673  21.567  22.706   4.152
53929W        W13674  32.455  24.504  12.887
53930W        W13675  35.525  30.004   1.360
53931W        W13676  14.238  34.500   4.197
53932W        W13677  18.564  16.608   2.411
53933W        W13678  28.084  28.056  11.879
53934W        W13679  33.065  11.856  10.430
53935W        W13680  15.305  38.993  12.880
53936W        W13681  13.834  13.116   0.361
53937W        W13682  44.888  17.182   1.910
53938W        W13683  24.190  33.454   3.154
53939W        W13684  18.603   6.882  10.586
53940W        W13685  28.966  22.607  13.365
53941W        W13686  25.097   6.243   0.801
53942W        W13687   0.811   8.300  11.525
53943W        W13688   1.438  14.128   1.904
53944W        W13689   6.871   1.742  11.510
53945W        W13690  10.150  31.560  11.862
53946W        W13691  15.674  10.344   0.264
53947W        W13692   7.312  11.798   0.380
53948W        W13693  40.494  42.502   0.898
53949W        W13694  19.628  33.491  13.000
53950W        W13695  24.113  23.012   3.672
53951W        W13696  20.582  40.390  12.020
53952W        W13697  21.128  36.866  12.568
53953W        W13698  17.591  20.088  13.450
53954W        W13699  22.619  23.675  13.850
53955W        W13700  16.697  11.797   1.377
53956W        W13701  23.706  30.538   2.844
53957W        W13702  34.047  34.465   4.676
53958W        W13703  15.250  43.305  13.968
53959W        W13704  11.788  37.571   0.328
53960W        W13705  36.017  44.434  14.479
53961W        W13706  37.009   3.229   1.431
53962W        W13707  17.673  13.680  11.049
53963W        W13708  30.626  29.994   1.260
53964W        W13709  10.298  33.028   1.914
53965W        W13710  15.126  40.419   4.268
53966W        W13711  11.779   0.314  14.328
53967W        W13712  42.987   2.396  13.451
53968W        W13713  25.537   9.658   3.301
53969W        W13714  11.309  30.428   2.381
53970W        W13715  44.381  12.618   4.666
53971W        W13716  17.660  15.320  12.909
53972W        W13717  23.118  36.436  14.429
53973W        W13718  14.675  29.989   1.289
53974W        W13719   3.756  23.990  14.328
53975W        W13720   2.452   8.337   4.772
53976W        W13721   2.856  15.315   9.969
53977W        W13722  23.734  29.508  13.866
53978W        W13723  22.671  38.850   0.311
53979W        W13724   3.336  19.057  12.900
53980W        W13725  11.770   5.213   3.289
53981W        W13726   0.479  40.942   4.329
53982W        W13727  33.401  30.031  11.095
53983W        W13728  22.228  38.982  13.906
53984W        W13729  16.172   4.314   1.830
53985W        W13730   2.941   6.883   4.324
53986W        W13731  38.964  29.991  14.351
53987W        W13732   5.821  37.351  10.939
53988W        W13733   2.832  13.653   4.216
53989W        W13734  31.422  21.035   4.159
53990W        W13735  28.990  37.986  10.984
53991W        W13736   8.715   3.339   3.305
53992W        W13737   6.802   9.758   1.802
53993W        W13738  36.379   4.336  13.915
53994W        W13739  20.586   3.401   0.432
53995W        W13740   4.257  41.502  11.013
53996W        W13741  25.471  38.487   0.416
53997W        W13742  34.495  35.436  13.046
53998W        W13743  27.044  16.733   0.844
53999W        W13744  40.499  36.389  13.428
54000W        W13745  40.403   3.243   4.158
54001W        W13746  13.240  32.592  14.415
54002W        W13747  19.057   1.411  10.931
54003W        W13748  17.557  25.986   0.278
54004W        W13749   2.935   2.230   2.790
54005W        W13750   6.406  27.628   0.736
54006W        W13751   0.450   5.807   2.744
54007W        W13752  11.279  43.444   2.214
54008W        W13753   1.404  26.665   4.670
54009W        W13754   1.917  26.983  12.357
54010W        W13755   6.874  35.381  12.054
54011W        W13756  22.516  26.459   2.665
54012W        W13757  36.950  20.202  13.349
54013W        W13758  29.993  21.623  14.397
54014W        W13759  38.909  21.634  13.391
54015W        W13760  21.549  20.056  13.925
54016W        W13761  11.648   5.778  10.935
54017W        W13762   8.350  26.046  11.407
54018W        W13763  26.652  34.392   1.851
54019W        W13764  32.942  31.972  12.979
54020W        W13765   9.834  23.608  12.047
54021W        W13766  19.273  27.634  13.444
54022W        W13767  41.038   4.415   0.278
54023W        W13768   8.844  40.519  10.567
54024W        W13769  16.141  14.102  12.516
54025W        W13770   0.749  29.459   1.390
54026W        W13771  36.888   3.737   0.303
54027W        W13772   2.830  22.119   5.174
54028W        W13773   0.472   4.795   1.906
54029W        W13774  39.386  13.309   1.366
54030W        W13775  10.873  26.525   4.726
54031W        W13776  35.585  21.255   0.315
54032W        W13777  21.579  42.397  12.962
54033W        W13778   0.793  27.606   4.700
54034W        W13779  35.509  43.409  10.492
54035W        W13780  31.980  43.353   2.275
54036W        W13781  37.378   1.342  11.424
54037W        W13782   0.967   1.741   5.231
54038W        W13783  16.289   3.270   3.274
54039W        W13784  22.023   0.886  14.464
54040W        W13785  33.917  24.177  14.908
54041W        W13786  26.072  14.134   5.263
54042W        W13787  24.708  43.320  10.449
54043W        W13788   1.967  23.238  13.385
54044W        W13789  11.197  36.048   1.252
54045W        W13790   2.442  28.158  14.858
54046W        W13791  44.858  39.338  13.314
54047W        W13792  10.348  18.191   2.886
54048W        W13793  10.184  11.257   1.304
54049W        W13794   8.253  21.655  11.008
54050W        W13795  35.888   1.778  13.983
54051W        W13796  40.365   1.297  10.460
54052W        W13797  19.631  40.410  12.540
54053W        W13798  19.231   6.372  14.853
54054W        W13799  26.616  10.374   2.391
54055W        W13800  23.998   5.719  12.962
54056W        W13801  43.891  31.033  12.863
54057W        W13802  43.794  40.510  13.806
54058W        W13803  28.469  13.794  11.042
54059W        W13804  18.051  30.646  14.807
54060W        W13805  25.652  27.021  14.398
54061W        W13806   5.749  12.664   3.379
54062W        W13807  35.409   2.427   3.228
54063W        W13808   4.366   1.448  13.915
54064W        W13809  32.102   6.286   4.650
54065W        W13810   5.337   5.930   0.892
54066W        W13811  43.297  42.798   0.731
54067W        W13812  29.544  27.114  14.927
54068W        W13813   9.686   2.774   2.882
54069W        W13814  44.329  34.919   1.713
54070W        W13815  40.051  29.931   0.326
54071W        W13816  27.114  23.592   1.350
54072W        W13817   8.162   2.821  10.500
54073W        W13818   4.359  24.973  10.417
54074W        W13819  10.839  39.973   3.665
54075W        W13820  21.075  24.599   0.386
54076W        W13821  20.267  38.911  11.416
54077W        W13822   3.230  16.803   0.840
54078W        W13823  13.631  27.172  12.982
54079W        W13824  44.378  18.226   2.670
54080W        W13825  25.994  32.427  13.040
54081W        W13826  41.381  16.666  12.095
54082W        W13827  27.109  15.712  14.828
54083W        W13828  28.137   3.828   3.725
54084W        W13829  34.993  36.568  12.514
54085W        W13830  38.894  44.267   3.290
54086W        W13831   2.923  30.005   3.357
54087W        W13832  35.058  26.484   2.834
54088W        W13833  35.377  42.938   3.756
54089W        W13834  22.602  21.605  10.092
54090W        W13835  28.547   9.765   2.760
54091W        W13836  29.937  14.754   3.857
54092W        W13837  12.682  23.025   4.295
54093W        W13838  26.470   3.712  11.948
54094W        W13839  28.580  10.688   2.287
54095W        W13840  43.364  41.901  11.038
54096W        W13841   2.963  40.326  13.833
54097W        W13842  35.543  27.046  12.878
54098W        W13843   4.730   9.353  12.343
54099W        W13844   7.194  38.880   4.609
54100W        W13845  22.725  36.078   3.255
54101W        W13846  39.893   6.216  13.910
54102W        W13847  24.532   1.954   1.361
54103W        W13848  21.080   7.707   3.162
54104W        W13849  33.537  40.036   2.336
54105W        W13850  29.639  42.990   2.772
54106W        W13851  32.107  32.924   3.776
54107W        W13852  20.208  28.163   3.305
54108W        W13853   8.305  37.351   2.264
54109W        W13854   5.910  15.735   3.308
54110W        W13855  12.853  31.528  13.007
54111W        W13856  15.737  40.979   2.786
54112W        W13857  12.254  21.717  12.868
54113W        W13858   8.194  15.097   2.396
54114W        W13859  34.606  28.442   1.364
54115W        W13860   5.747  40.526   1.259
54116W        W13861  38.559  40.334  13.535
54117W        W13862  31.906  22.551   4.255
54118W        W13863  33.128   0.825   0.739
54119W        W13864   8.705  42.342   1.871
54120W        W13865   5.336  40.490   1.802
54121W        W13866  43.993  10.162  14.995
54122W        W13867  28.098  36.990   4.694
54123W        W13868   6.272  13.761   0.349
54124W        W13869  39.868  10.682   4.805
54125W        W13870  16.770  29.095   0.247
54126W        W13871  20.180  42.805  14.390
54127W        W13872  44.964  15.815  11.407
54128W        W13873  19.051  30.553   2.766
54129W        W13874  24.546  16.662   1.376
54130W        W13875   9.707  15.179   4.121
54131W        W13876  26.016  26.194  10.551
54132W        W13877  33.416   3.331   0.433
54133W        W13878  44.280  12.205  13.829
54134W        W13879  16.128  19.246   3.778
54135W        W13880   8.240  40.499   4.693
54136W        W13881  29.102  36.404  11.504
54137W        W13882   5.799  42.385   2.414
54138W        W13883   3.334  18.573  12.579
54139W        W13884  42.367  37.529  10.964
54140W        W13885   8.761   7.803   3.166
54141W        W13886  10.750  24.059  13.032
54142W        W13887  35.476  20.732  12.907
54143W        W13888  32.559   0.289   3.154
54144W        W13889  26.560  39.877   0.397
54145W        W13890  28.930  20.056  13.487
54146W        W13891  14.662  24.701  12.966
54147W        W13892  37.932  39.440   2.269
54148W        W13893  44.932  38.939   4.275
54149W        W13894  31.429  20.640   2.720
54150W        W13895  23.078  19.589   3.679
54151W        W13896  14.334  36.850  13.354
54152W        W13897   0.393  26.599   1.300
54153W        W13898  16.606  37.484  10.889
54154W        W13899  22.508  34.486   3.830
54155W        W13900   5.366  20.077  11.997
54156W        W13901  38.979   1.873  12.399
54157W        W13902   9.778  19.724  11.422
54158W        W13903  26.125  16.618   0.756
54159W        W13904  11.215   3.301  11.028
54160W        W13905  22.042  35.565  12.049
54161W        W13906   1.802   3.375   0.885
54162W        W13907  13.782  44.379  10.595
54163W        W13908  29.997  24.688  11.064
54164W        W13909   9.162  15.802   3.376
54165W        W13910   5.379   9.682  11.493
54166W        W13911   4.706   6.849  12.070
54167W        W13912   4.294   7.863  10.442
54168W        W13913  26.100  29.516  11.501
54169W        W13914   0.806  17.703  12.971
54170W        W13915  33.904  26.028  13.370
54171W        W13916   8.192   1.866   2.707
54172W        W13917   0.978  20.100  11.450
54173W        W13918  12.343  30.438   4.736
54174W        W13919   7.904  37.499   3.852
54175W        W13920  24.977  42.290   3.815
54176W        W13921  37.417  17.640  14.949
54177W        W13922  24.210  40.451   2.354
54178W        W13923  36.500  31.908  13.396
54179W        W13924  33.117   6.228   0.912
54180W        W13925  43.869  24.686  12.447
54181W        W13926  20.725   7.770  14.514
54182W        W13927  33.976  11.155  11.887
54183W        W13928  33.015  12.660  11.006
54184W        W13929  28.025  44.912   2.362
54185W        W13930   6.410  35.091   0.320
54186W        W13931  32.576  26.964   2.786
54187W        W13932  38.541  28.012  11.018
54188W        W13933  26.639   9.329  13.459
54189W        W13934  30.426  37.398   1.402
54190W        W13935  15.589  34.484   1.717
54191W        W13936  25.504  16.768  12.577
54192W        W13937  11.797  36.989  11.030
54193W        W13938   6.370   3.287   1.752
54194W        W13939  41.024  18.782   4.734
54195W        W13940  39.426  12.162   0.874
54196W        W13941  18.691  42.333  13.905
54197W        W13942  43.825  16.718   4.805
54198W        W13943  31.068   9.345  11.472
54199W        W13944  20.130  25.589  13.814
54200W        W13945  27.452  34.049   0.887
54201W        W13946  43.408   5.824  13.445
54202W        W13947  30.568  27.595  13.808
54203W        W13948   9.696   4.304  13.494
54204W        W13949  30.096  40.359   1.883
54205W        W13950  14.321   0.856  12.081
54206W        W13951  13.714  16.738  12.078
54207W        W13952  23.098  42.297  13.022
54208W        W13953  41.472  41.499   1.324
54209W        W13954  16.760  24.563   2.356
54210W        W13955   8.796  16.708  11.057
54211W        W13956  11.241  35.036  10.610
54212W        W13957  10.230  41.825   1.846
54213W        W13958  41.986  26.650   5.222
54214W        W13959   6.414  41.961  14.460
54215W        W13960  40.940  14.248   4.740
54216W        W13961  41.470  14.097  14.427
54217W        W13962   2.423   8.303  13.538
54218W        W13963  43.916  19.123  10.410
54219W        W13964   6.688  12.736   0.855
54220W        W13965  11.321   1.807  10.946
54221W        W13966  40.864  17.160  10.576
54222W        W13967  39.323   0.791   2.720
54223W        W13968   1.410  16.297   5.309
54224W        W13969  33.068  11.748  13.960
54225W        W13970  11.827  24.103  11.078
54226W        W13971  37.501   8.696   3.726
54227W        W13972  16.133  24.496   2.347
54228W        W13973  12.796  32.411   1.225
54229W        W13974  40.976  41.323  12.968
54230W        W13975   0.276  21.577  12.499
54231W        W13976   7.334   5.841  13.023
54232W        W13977  39.960   1.747  14.952
54233W        W13978   4.274  17.698   3.739
54234W        W13979  36.561   7.803   2.815
54235W        W13980  31.951  24.704   1.364
54236W        W13981  26.463  17.243   0.778
54237W        W13982  38.426  20.034   4.651
54238W        W13983  21.673  23.725  10.530
54239W        W13984  31.477  18.776   0.264
54240W        W13985  14.264  38.075   0.797
54241W        W13986  42.479   7.352   4.247
54242W        W13987  39.427  35.472  10.955
54243W        W13988   0.392  22.081  13.982
54244W        W13989   6.190  24.575  11.595
54245W        W13990  27.609  22.524  11.386
54246W        W13991   5.754  42.281   0.811
54247W        W13992   8.779  19.196  13.419
54248W        W13993  18.641  23.079  13.935
54249W        W13994  37.477  29.599   4.224
54250W        W13995   9.380  36.461  11.422
54251W        W13996  36.075  17.269  13.357
54252W        W13997  20.684   0.267   2.383
54253W        W13998  40.963  24.177   2.725
54254W        W13999  10.267  38.979   2.220
54255W        W14000  40.982  15.800  10.991
54256W        W14001   9.394  27.572   2.759
54257W        W14002  34.548  28.466   2.355
54258W        W14003  18.637  10.715  12.902
54259W        W14004   9.704   7.403   1.271
54260W        W14005  42.978  30.096  13.056
54261W        W14006  10.270  19.235   4.218
54262W        W14007  43.961  15.705   4.328
54263W        W14008   4.283   2.767  13.863
54264W        W14009  23.131  23.502   2.830
54265W        W14010  39.034  28.044   2.876
54266W        W14011   7.758  39.529  11.375
54267W        W14012   8.768   2.273   0.728
54268W        W14013  35.050  19.767   3.192
54269W        W14014  12.157  32.454   1.223
54270W        W14015  33.964   2.758  10.126
54271W        W14016  12.190  15.632   1.413
54272W        W14017   6.420   8.334   1.694
54273W        W14018  14.655  21.239   0.867
54274W        W14019  37.537   8.273   0.746
54275W        W14020   7.367  16.766  14.900
54276W        W14021  22.097  16.650  12.041
54277W        W14022   1.401  20.612  14.995
54278W        W14023  42.403   8.836   0.253
54279W        W14024  25.037   5.812   2.693
54280W        W14025  39.052  34.962  14.903
54281W        W14026  31.493   8.200  13.994
54282W        W14027  28.495  18.122  12.970
54283W        W14028  31.008  17.249   0.440
54284W        W14029   9.670  43.314   0.779
54285W        W14030   2.284  14.636  13.370
54286W        W14031  31.588  39.366  13.358
54287W        W14032  14.733  31.415   4.601
54288W        W14033   9.818  10.842   1.420
54289W        W14034   7.353   1.310   0.802
54290W        W14035   7.849  15.759  14.366
54291W        W14036  19.641  37.025   0.427
54292W        W14037  34.026  34.593   3.381
54293W        W14038  43.438  22.526   3.670
54294W        W14039   3.876  18.136   2.345
54295W        W14040  32.078   1.353   0.878
54296W        W14041  23.717   9.764   0.915
54297W        W14042  16.614  38.547  10.454
54298W        W14043  12.122  35.045  12.897
54299W        W14044  20.138  21.519  12.945
54300W        W14045  44.940  15.194   1.764
54301W        W14046  31.129  18.182   3.200
54302W        W14047  13.689  16.255  14.383
54303W        W14048  19.741   3.419  12.870
54304W        W14049  28.015  28.534   4.741
54305W        W14050  25.992  11.730   3.242
54306W        W14051  19.222  36.024  11.050
54307W        W14052   2.440   9.265   2.385
54308W        W14053  26.509  11.147   9.945
54309W        W14054  14.751   7.796  12.943
54310W        W14055  44.916  32.088  12.826
54311W        W14056  38.382  17.758   2.817
54312W        W14057  26.999   9.741   4.653
54313W        W14058   9.259  21.106   1.247
54314W        W14059  37.975   0.440   0.804
54315W        W14060  42.363  26.051  14.991
54316W        W14061  16.771  22.569   2.687
54317W        W14062  16.751  19.077  10.529
54318W        W14063  39.973   7.735   0.960
54319W        W14064  25.605   6.842  12.434
54320W        W14065   2.851   8.217   2.892
54321W        W14066  19.749  33.015  11.478
54322W        W14067   8.722  14.595  10.640
54323W        W14068  18.584  14.820   2.344
54324W        W14069  27.042  17.270   4.669
54325W        W14070  31.963  13.613   1.845
54326W        W14071   0.457  42.321   2.313
54327W        W14072  23.575   7.760  12.489
54328W        W14073  38.491  30.449   1.255
54329W        W14074  16.652  21.710  10.463
54330W        W14075   1.365  39.337  14.815
54331W        W14076  24.116  33.115   3.723
54332W        W14077  35.592  44.377  11.995
54333W        W14078  14.676   4.280   3.264
54334W        W14079  26.627  21.086   0.456
54335W        W14080   4.698  12.734   2.843
54336W        W14081  30.058  18.579   3.779
54337W        W14082  38.058  11.835  11.480
54338W        W14083  17.700  18.587   0.894
54339W        W14084  32.070  10.351   5.118
54340W        W14085  32.911   4.240   0.796
54341W        W14086   1.809  12.143   0.808
54342W        W14087  44.761  14.650   0.424
54343W        W14088  24.153  28.161  11.108
54344W        W14089  11.346   9.757  14.869
54345W        W14090  38.397  34.586  10.576
54346W        W14091   6.857  34.537  12.551
54347W        W14092  30.551  40.428  14.801
54348W        W14093   5.358  18.078   4.800
54349W        W14094  15.179  40.982   4.117
54350W        W14095  25.583  12.756   3.317
54351W        W14096  18.220  41.429   2.209
54352W        W14097  11.824   9.870   0.792
54353W        W14098   2.740   7.899   2.835
54354W        W14099  36.477  44.983  12.045
54355W        W14100  24.700  36.510   4.792
54356W        W14101  17.238  11.677  12.983
54357W        W14102  26.680  29.940  13.334
54358W        W14103  34.881  29.980  14.979
54359W        W14104  10.769  43.337   4.121
54360W        W14105  30.105   1.273   3.796
54361W        W14106  19.608  23.201   1.399
54362W        W14107  42.922  23.217  11.564
54363W        W14108  16.750  35.861  10.032
54364W        W14109   0.443  42.897  14.383
54365W        W14110  25.962  12.673   2.199
54366W        W14111   2.909  15.616  14.432
54367W        W14112  39.558  10.844   0.376
54368W        W14113  35.860  42.460   4.614
54369W        W14114  32.459   9.664  10.457
54370W        W14115   0.434  18.704   0.291
54371W        W14116  39.938  17.629   2.348
54372W        W14117  40.402  16.718  14.477
54373W        W14118  37.076  26.629   0.358
54374W        W14119  11.139  24.621   3.209
54375W        W14120  41.439  33.518   1.268
54376W        W14121  15.142  28.535  11.947
54377W        W14122  13.657   5.850   2.864
54378W        W14123   2.776  44.793   3.755
54379W        W14124  22.161   8.752   0.922
54380W        W14125  29.036  33.435  14.894
54381W        W14126   6.800  22.171   4.283
54382W        W14127   8.221  37.077   4.775
54383W        W14128  37.397  37.014   3.302
54384W        W14129  23.496  44.495   1.225
54385W        W14130  35.027   3.373   1.911
54386W        W14131   4.941  35.905   3.309
54387W        W14132  24.136  22.097   3.851
54388W        W14133  35.369  21.684   1.889
54389W        W14134  35.462  19.077   3.172
54390W        W14135  24.701   2.888  10.998
54391W        W14136  12.702  34.480  10.123
54392W        W14137   9.651  21.180   0.870
54393W        W14138  42.286  15.289   4.298
54394W        W14139  10.660   6.314  13.917
54395W        W14140  38.327  17.602   2.338
54396W        W14141  33.473  41.909  13.408
54397W        W14142  12.767  39.397  11.463
54398W        W14143   6.251   2.817  13.312
54399W        W14144  43.403  27.941   4.754
54400W        W14145  24.176   8.203   3.230
54401W        W14146  11.641   8.750   3.149
54402W        W14147  13.246   9.306  14.498
54403W        W14148  24.487  32.030  14.338
54404W        W14149   7.706  35.079  13.536
54405W        W14150  10.723  36.984  10.466
54406W        W14151  43.317  41.418   1.757
54407W        W14152   1.844  19.112   1.329
54408W        W14153  38.505  21.555  13.505
54409W        W14154  17.164  24.095  14.923
54410W        W14155  26.046  24.157  14.455
54411W        W14156  12.809  24.719   0.839
54412W        W14157  30.501  16.249  13.442
54413W        W14158  12.268  18.755  12.936
54414W        W14159  25.690  10.254   1.311
54415W        W14160  41.362  44.754   0.818
54416W        W14161  14.710  17.083   0.273
54417W        W14162  35.443  25.990   3.216
54418W        W14163  14.831  15.101   1.769
54419W        W14164  29.092  41.985   2.365
54420W        W14165  23.213   7.211   1.361
54421W        W14166  41.302  33.381   2.324
54422W        W14167   0.785  30.528  14.475
54423W        W14168  41.391  29.173   4.226
54424W        W14169  26.552  14.215   3.693
54425W        W14170  36.927  25.589   0.435
54426W        W14171  23.619   7.679  14.298
54427W        W14172   3.315  32.939   1.776
54428W        W14173   4.257   5.758  13.032
54429W        W14174  16.623  25.605  12.493
54430W        W14175  27.030  15.744   5.604
54431W        W14176  36.448  40.477  12.849
54432W        W14177  34.374  21.513  14.443
54433W        W14178  38.991  35.107   3.202
54434W        W14179  35.516   1.975   4.145
54435W        W14180   0.768  31.558  12.557
54436W        W14181  12.253   5.850  12.986
54437W        W14182  40.005  14.244  10.500
54438W        W14183  15.758  20.037  10.609
54439W        W14184  25.554  23.536  14.393
54440W        W14185   0.822  44.982  14.969
54441W        W14186  29.944  11.371  13.056
54442W        W14187   8.761   0.797   4.284
54443W        W14188  25.110  27.103  11.957
54444W        W14189  19.196   0.760  12.893
54445W        W14190  35.920  37.552  12.848
54446W        W14191  11.663  35.876  10.044
54447W        W14192  26.137  40.977  12.340
54448W        W14193  34.378  22.540  12.442
54449W        W14194  36.443   1.461  11.404
54450W        W14195  26.458   7.874   2.334
54451W        W14196  10.251  27.011   1.376
54452W        W14197  40.988  24.155  10.437
54453W        W14198  10.342  29.123  11.866
54454W        W14199  21.562  12.672   4.149
54455W        W14200   0.949  14.293   2.211
54456W        W14201  12.627  16.583  13.377
54457W        W14202  19.614  21.126  10.612
54458W        W14203  44.401  29.962   2.309
54459W        W14204  44.775  31.539   4.294
54460W        W14205  30.151  16.090  11.867
54461W        W14206   0.848  25.985   5.604
54462W        W14207  35.877  33.571  13.385
54463W        W14208  29.481  34.102   4.614
54464W        W14209   0.361  28.454   3.631
54465W        W14210  22.701  10.183  11.598
54466W        W14211  23.690   1.460  13.817
54467W        W14212  38.968  25.129  14.994
54468W        W14213  24.025  11.626  13.799
54469W        W14214  22.727  13.158  11.523
54470W        W14215   8.302   3.711   1.902
54471W        W14216  13.241  17.192  14.287
54472W        W14217   1.867  27.454   3.701
54473W        W14218  25.702  37.582   3.149
54474W        W14219  22.078  26.549   1.788
54475W        W14220  35.459  34.494   0.324
54476W        W14221  38.926   0.491   4.781
54477W        W14222  41.510  18.138  10.509
54478W        W14223   7.832  35.473   0.409
54479W        W14224   9.813  26.659  14.441
54480W        W14225   3.451  33.387   4.174
54481W        W14226   5.795  39.060  13.906
54482W        W14227  25.092  40.803  12.940
54483W        W14228  36.528  34.610  11.122
54484W        W14229  36.431   6.773  13.009
54485W        W14230  12.707  16.610   1.805
54486W        W14231   7.793  15.592   3.164
54487W        W14232  19.623  33.539   4.747
54488W        W14233  36.061  33.938  14.875
54489W        W14234   6.754  29.078  13.380
54490W        W14235  39.441  33.892  12.899
54491W        W14236  36.585  34.885  14.841
54492W        W14237  39.522  13.314  13.998
54493W        W14238  40.803  22.513  14.828
54494W        W14239  16.281   4.754  12.913
54495W        W14240   9.366  35.881   3.243
54496W        W14241  29.141   5.710  11.022
54497W        W14242  37.535  44.917  10.945
54498W        W14243  28.492   5.432  12.993
54499W        W14244   8.374  12.775  11.375
54500W        W14245  12.184  21.669  11.596
54501W        W14246  34.965  22.183   0.764
54502W        W14247   8.703  24.146   4.808
54503W        W14248  37.356  29.994  12.999
54504W        W14249  23.517   5.244   1.397
54505W        W14250  21.692  40.040   1.308
54506W        W14251  32.472  38.910  12.072
54507W        W14252  26.998  34.955   1.919
54508W        W14253  39.020  29.583   2.343
54509W        W14254   0.466  28.046   2.310
54510W        W14255  15.117  14.319  11.541
54511W        W14256   9.294   9.716  11.050
54512W        W14257   2.913  13.663  12.452
54513W        W14258   3.889  10.273  14.934
54514W        W14259  10.304   6.390   0.345
54515W        W14260  18.242  40.415   3.708
54516W        W14261  39.811  13.665  10.470
54517W        W14262  24.188  17.735   2.893
54518W        W14263  40.944   2.848   4.777
54519W        W14264   3.405  14.233  10.922
54520W        W14265  13.706  19.647   1.244
54521W        W14266   9.289  11.630  12.560
54522W        W14267   6.244  15.623   0.472
54523W        W14268  25.579  31.441  13.029
54524W        W14269  27.638  22.687   1.702
54525W        W14270  38.355  13.257   3.700
54526W        W14271  14.662  26.695   4.143
54527W        W14272  31.534  26.478   2.706
54528W        W14273  30.078  28.141   1.711
54529W        W14274  41.984  13.697   0.326
54530W        W14275   8.717  38.822   0.295
54531W        W14276  26.037  11.731   0.471
54532W        W14277   5.359  10.870   3.203
54533W        W14278  15.795   2.914   0.769
54534W        W14279  43.967   8.361  10.524
54535W        W14280  19.604  13.689   1.787
54536W        W14281   2.313  37.566  11.982
54537W        W14282  42.520   2.877   0.322
54538W        W14283  29.115  28.126  11.065
54539W        W14284  30.924  44.418   4.139
54540W        W14285   4.892   1.417  11.384
54541W        W14286  30.453  26.631   3.248
54542W        W14287  34.903  37.914   3.820
54543W        W14288   5.731  42.997   3.803
54544W        W14289   4.795  22.157   2.729
54545W        W14290  12.126  41.402   4.702
54546W        W14291  26.560  27.584  11.901
54547W        W14292  21.617  13.730  14.448
54548W        W14293  10.765  27.668   1.435
54549W        W14294  36.996  30.604   0.317
54550W        W14295   2.912  21.096   0.763
54551W        W14296   0.932   7.388   4.129
54552W        W14297  25.138   1.971   3.834
54553W        W14298  19.083  31.450  13.869
54554W        W14299   7.191  36.843   4.611
54555W        W14300  39.985   9.784  13.385
54556W        W14301  19.745  24.690  10.572
54557W        W14302  27.198  44.984  13.040
54558W        W14303  26.186  14.758   3.710
54559W        W14304  40.816  37.078   4.329
54560W        W14305  26.499  19.087  14.790
54561W        W14306  33.983  16.769   3.723
54562W        W14307  12.664  26.191  12.443
54563W        W14308  43.307   1.764   2.385
54564W        W14309  30.637  39.324   3.862
54565W        W14310  15.173   4.407  14.472
54566W        W14311  13.688   1.244  14.455
54567W        W14312  15.720   0.310  11.964
54568W        W14313   9.240  37.473   0.457
54569W        W14314  25.151  15.603  13.027
54570W        W14315   8.258  33.044  13.905
54571W        W14316  43.493  35.418  12.513
54572W        W14317  42.930  21.601   3.164
54573W        W14318  27.019  13.709   2.374
54574W        W14319   6.298  28.005  12.988
54575W        W14320  28.949  17.197   2.397
54576W        W14321  44.499   4.329   2.757
54577W        W14322  34.964  19.156  12.461
54578W        W14323   0.255  20.117   1.875
54579W        W14324  35.879  37.965   4.724
54580W        W14325  11.220  32.047  13.061
54581W        W14326  19.168  26.565  11.592
54582W        W14327   8.860  20.251  11.127
54583W        W14328  20.221  36.570   1.729
54584W        W14329  33.462  37.882   1.780
54585W        W14330   6.847  14.725  13.547
54586W        W14331  43.464  22.048   2.335
54587W        W14332  37.357  34.009  11.446
54588W        W14333  33.064   6.743   1.833
54589W        W14334  39.900  18.288  13.833
54590W        W14335   6.784  43.373  14.481
54591W        W14336  18.262   5.909  14.943
54592W        W14337  34.557   4.288  10.109
54593W        W14338  14.825   9.794  13.054
54594W        W14339  26.480  31.052  11.469
54595W        W14340   5.694  42.506   3.355
54596W        W14341  36.432   4.440  10.937
54597W        W14342  10.864  31.637   0.743
54598W        W14343   2.426  11.332  11.433
54599W        W14344   7.241  44.463  13.036
54600W        W14345  14.148   3.807   1.817
54601W        W14346  34.979  35.089   2.791
54602W        W14347  10.751  15.790  10.517
54603W        W14348  43.855  16.727  13.818
54604W        W14349  16.621  22.523  13.475
54605W        W14350  31.557  38.946  11.978
54606W        W14351  40.399  12.653   5.306
54607W        W14352  17.260  23.726  13.451
54608W        W14353  12.835  43.900   4.803
54609W        W14354   2.427  19.097  13.546
54610W        W14355  44.269   3.869  14.011
54611W        W14356  41.465  19.050   0.259
54612W        W14357  44.272  32.523   1.902
54613W        W14358  25.173  27.175   4.137
54614W        W14359  26.185  22.185  10.507
54615W        W14360  29.536  18.621  13.442
54616W        W14361  26.509  37.408  14.325
54617W        W14362  37.842  29.945   1.923
54618W        W14363  13.791  36.920  11.100
54619W        W14364  39.522  26.628   2.805
54620W        W14365   0.401  13.779  11.532
54621W        W14366  30.527  38.060   2.678
54622W        W14367  23.986  44.260   1.823
54623W        W14368  30.154  26.550  14.819
54624W        W14369  42.461  22.070  10.891
54625W        W14370  22.140  21.602   3.185
54626W        W14371  29.075  30.099   0.353
54627W        W14372  43.844   1.432  12.383
54628W        W14373  39.546  21.145   9.988
54629W        W14374  14.123  10.272  14.489
54630W        W14375  27.676  13.192  14.423
54631W        W14376  18.128  29.101  14.882
54632W        W14377  16.647  34.900  11.970
54633W        W14378   0.949  35.602   5.607
54634W        W14379  29.452  42.829   3.653
54635W        W14380  20.087   4.869   3.328
54636W        W14381  15.789  30.585  12.891
54637W        W14382   7.699  13.706  11.402
54638W        W14383  39.945   8.790  14.355
54639W        W14384   8.176  30.092   3.181
54640W        W14385  42.486  35.536   1.928
54641W        W14386  24.523   5.352  12.855
54642W        W14387  28.995  37.389   4.261
54643W        W14388  10.255   1.867  13.518
54644W        W14389  13.242  12.134   2.335
54645W        W14390  27.575   6.836  11.419
54646W        W14391   5.846  23.009   1.371
54647W        W14392  17.618  29.490   4.728
54648W        W14393  39.905   1.785  12.918
54649W        W14394   4.230  28.583  13.845
54650W        W14395  22.030   5.276   2.353
54651W        W14396   4.348  19.646   1.787
54652W        W14397  26.473  15.792  11.097
54653W        W14398   3.255  15.299  14.947
54654W        W14399  13.288  26.100   4.803
54655W        W14400  18.056  22.706   4.295
54656W        W14401  27.049   1.359   4.814
54657W        W14402  28.566   3.430   1.919
54658W        W14403  35.430  12.128  14.784
54659W        W14404  13.309  37.997   5.571
54660W        W14405  36.949  38.499  12.478
54661W        W14406  17.782  43.901  13.854
54662W        W14407  22.524  43.975   1.362
54663W        W14408  40.984  35.408   4.774
54664W        W14409  14.214   7.298  11.125
54665W        W14410  25.497   9.810  12.976
54666W        W14411  33.004  13.699  11.962
54667W        W14412   7.331  18.188   1.891
54668W        W14413  14.114  44.465   5.315
54669W        W14414   2.799   2.250   1.856
54670W        W14415  13.835   0.491  13.361
54671W        W14416  17.105  32.592  13.504
54672W        W14417  18.221  35.402   4.155
54673W        W14418  10.659  17.197   4.825
54674W        W14419  26.508  17.706   0.304
54675W        W14420  25.206  24.035   0.365
54676W        W14421  39.876   3.403   4.682
54677W        W14422  41.963   4.207   2.860
54678W        W14423  35.040   4.910  11.490
54679W        W14424  16.312   3.461  12.514
54680W        W14425  18.547  19.605  11.877
54681W        W14426  27.664  41.325  11.873
54682W        W14427   1.895  14.125  10.608
54683W        W14428   3.894   7.307   1.854
54684W        W14429  24.140   9.380  11.004
54685W        W14430  32.439  44.385   4.297
54686W        W14431  26.569  13.760   5.115
54687W        W14432   5.359  33.007   2.317
54688W        W14433  15.176  11.710   2.697
54689W        W14434  32.962  28.590  12.482
54690W        W14435  31.496  19.623   0.917
54691W        W14436  29.588  38.981   3.638
54692W        W14437  34.979  37.022  12.097
54693W        W14438  25.180  16.738  11.501
54694W        W14439  35.995  40.885   1.411
54695W        W14440  26.095  28.514  10.618
54696W        W14441  12.707  41.431   2.214
54697W        W14442  28.011  29.656   5.629
54698W        W14443  37.011  37.425   4.706
54699W        W14444  24.642  25.995  12.870
54700W        W14445  16.105  23.097  11.974
54701W        W14446  30.079   0.362   4.232
54702W        W14447  36.061  27.061  14.774
54703W        W14448  43.311   3.298  13.484
54704W        W14449   7.720  33.446   1.746
54705W        W14450  40.428  42.787  10.595
54706W        W14451   9.726   2.766   3.858
54707W        W14452  21.619  40.516   1.346
54708W        W14453  43.433  40.338  10.961
54709W        W14454  29.472  35.535   2.297
54710W        W14455   7.379  16.711  12.054
54711W        W14456  30.096  21.653  14.975
54712W        W14457  39.981  42.817  12.485
54713W        W14458  13.613   3.880  14.490
54714W        W14459  13.160  38.889   1.439
54715W        W14460  24.655  33.509  14.501
54716W        W14461  41.387  17.793  13.946
54717W        W14462  43.474  28.541   0.354
54718W        W14463  23.721  25.085  10.909
54719W        W14464   9.664  15.692   3.208
54720W        W14465  17.175  40.883  12.418
54721W        W14466  27.108  15.645   2.338
54722W        W14467  36.430  11.710   1.792
54723W        W14468  21.707  32.999  10.484
54724W        W14469  24.720  24.069   2.884
54725W        W14470  19.120  26.151   3.326
54726W        W14471   7.309  37.475   3.641
54727W        W14472  34.480   6.880   1.246
54728W        W14473  32.123  29.995  12.345
54729W        W14474  14.233   5.874  11.439
54730W        W14475   6.767  43.947   3.678
54731W        W14476  30.043  16.588  13.496
54732W        W14477   1.868  36.022   2.232
54733W        W14478   8.382  34.468  13.840
54734W        W14479  29.969  15.804  14.784
54735W        W14480   6.306  12.703  13.798
54736W        W14481  18.588  10.361  10.986
54737W        W14482  10.160  17.800  10.534
54738W        W14483  36.434   2.875   4.178
54739W        W14484  25.041  21.253   3.202
54740W        W14485  17.694   1.404  12.567
54741W        W14486  31.556  12.690  14.486
54742W        W14487  42.459   2.443  12.844
54743W        W14488  12.731  41.528  13.792
54744W        W14489  15.636  34.390   3.711
54745W        W14490  28.028  33.987   4.216
54746W        W14491  37.470   8.750   4.723
54747W        W14492  17.639  10.161  12.834
54748W        W14493  12.785  13.762  10.444
54749W        W14494   7.804  22.111  10.967
54750W        W14495  44.902  10.219  14.765
54751W        W14496  30.604  28.047   5.317
54752W        W14497  16.253  11.231  14.421
54753W        W14498  29.061   3.248   2.201
54754W        W14499  35.364  35.973  14.389
54755W        W14500  29.486  13.764   1.786
54756W        W14501  11.308  33.061   4.647
54757W        W14502   4.294  21.181   2.188
54758W        W14503  14.335   9.736   3.270
54759W        W14504  24.663  19.722  13.542
54760W        W14505  40.500  35.388   1.221
54761W        W14506  34.114  30.985   4.777
54762W        W14507  28.166   5.816   1.778
54763W        W14508  21.751   4.939  10.983
54764W        W14509  11.786  15.193  11.901
54765W        W14510  44.801  23.096  11.051
54766W        W14511   2.437  11.779  10.152
54767W        W14512  18.736  25.134   4.345
54768W        W14513  11.829   5.749  12.453
54769W        W14514  43.966  30.568   0.732
54770W        W14515  14.627  17.233  13.046
54771W        W14516  23.013  20.663   3.752
54772W        W14517  34.959  32.132  11.079
54773W        W14518  24.668  26.490  11.371
54774W        W14519  26.958  43.007  12.557
54775W        W14520  37.901  19.672   5.110
54776W        W14521  20.589  37.397   2.886
54777W        W14522  24.985  39.812   0.847
54778W        W14523  19.613  26.586   0.942
54779W        W14524  35.931  41.530  10.920
54780W        W14525  14.721  18.591  10.569
54781W        W14526  41.487  14.634  11.527
54782W        W14527  44.402   0.771   2.324
54783W        W14528   6.416  43.945  12.501
54784W        W14529  44.982  11.839  12.989
54785W        W14530  24.665  29.642  10.453
54786W        W14531  40.965  37.075  12.058
54787W        W14532  37.088  29.162  11.019
54788W        W14533  19.597  11.745  12.535
54789W        W14534  27.466  30.978   2.758
54790W        W14535  26.498  16.083   0.808
54791W        W14536  16.187   5.714   4.133
54792W        W14537   9.846  39.859   1.244
54793W        W14538  16.076  11.810   2.802
54794W        W14539  41.012  11.372  12.055
54795W        W14540   6.762   8.725  11.551
54796W        W14541  14.673  37.484   4.287
54797W        W14542  23.554  43.500   2.352
54798W        W14543  29.127  35.420   1.386
54799W        W14544  34.431  30.945   1.287
54800W        W14545  25.157  11.332   3.765
54801W        W14546  11.155   9.691   2.406
54802W        W14547   4.315   0.820   4.163
54803W        W14548  16.279  41.458   1.413
54804W        W14549   4.804  38.845   5.268
54805W        W14550  11.337  42.806  13.029
54806W        W14551  35.567  28.096  12.357
54807W        W14552   9.302   9.660  14.894
54808W        W14553  36.436  27.611  11.372
54809W        W14554  40.954  40.924  11.459
54810W        W14555  27.046  23.201   2.194
54811W        W14556  41.402   0.344   1.880
54812W        W14557  12.706  34.567   3.297
54813W        W14558  43.425   3.219   4.224
54814W        W14559  14.673  16.092   1.238
54815W        W14560   4.931  19.762   3.817
54816W        W14561  27.515  12.153  14.959
54817W        W14562  41.465   6.834   3.847
54818W        W14563  19.113  42.792  10.910
54819W        W14564  22.719  23.084   0.296
54820W        W14565  42.441  43.473  14.869
54821W        W14566  39.465  15.189   4.691
54822W        W14567   6.397  28.134   5.314
54823W        W14568  41.942   8.185  13.001
54824W        W14569   2.749  19.570   2.739
54825W        W14570  34.890  14.162   4.637
54826W        W14571  12.654  31.069   2.706
54827W        W14572  26.491  43.789  13.901
54828W        W14573  22.544  16.163  13.801
54829W        W14574  15.647  10.854  11.959
54830W        W14575  17.247  36.903  11.515
54831W        W14576  27.105  13.607  10.555
54832W        W14577   5.687  13.138   3.674
54833W        W14578  43.870  13.601  14.912
54834W        W14579  23.195  13.605  12.426
54835W        W14580  21.520   8.222  11.086
54836W        W14581  36.453   8.173   3.202
54837W        W14582  37.358  35.857   2.244
54838W        W14583  22.144   6.397   1.315
54839W        W14584   5.307  15.178  14.356
54840W        W14585  33.410  10.766  13.482
54841W        W14586  29.066  16.271   4.239
54842W        W14587   4.762   1.283  13.405
54843W        W14588  22.181  33.012   4.802
54844W        W14589  24.503  20.210   0.903
54845W        W14590  10.649  28.960   0.943
54846W        W14591  16.774  43.455  14.926
54847W        W14592  20.081  16.677  15.000
54848W        W14593  40.883  17.262   0.382
54849W        W14594  23.550  11.152   1.811
54850W        W14595  21.205  21.682  12.485
54851W        W14596  43.298  38.968   3.278
54852W        W14597  35.916  35.417   1.824
54853W        W14598  12.655   8.797  13.933
54854W        W14599  30.414  15.594   0.281
54855W        W14600  13.738  13.224  12.510
54856W        W14601  30.530  19.170  14.898
54857W        W14602   7.354  25.473  14.505
54858W        W14603  19.205   0.418   1.417
54859W        W14604  13.156  33.935  14.763
54860W        W14605  40.860  18.553   3.716
54861W        W14606  22.170  11.194  13.033
54862W        W14607  18.778  44.460  13.831
54863W        W14608  36.572   3.713  11.377
54864W        W14609  20.761  36.860  13.323
54865W        W14610  17.065  27.056   1.898
54866W        W14611  11.645  15.620   3.332
54867W        W14612   7.393  36.907   0.740
54868W        W14613  29.478   0.807  12.053
54869W        W14614  21.222  33.903   0.920
54870W        W14615  24.633  25.652  14.766
54871W        W14616  13.256  15.296   0.421
54872W        W14617  40.829  43.441  12.034
54873W        W14618  24.183   1.384  11.395
54874W        W14619   7.369  12.318  11.934
54875W        W14620   9.808  26.511   1.439
54876W        W14621  16.213  24.582  14.311
54877W        W14622   3.309   3.739   2.718
54878W        W14623  19.710  10.872  14.859
54879W        W14624  23.137   6.823  11.915
54880W        W14625   4.706  23.189  11.050
54881W        W14626  34.479  44.377  12.069
54882W        W14627  25.594  15.818  12.442
54883W        W14628  13.153  30.921   0.436
54884W        W14629  17.602  35.995   0.332
54885W        W14630  19.050  17.244  14.368
54886W        W14631  31.637  14.195  13.896
54887W        W14632   8.342  41.444   2.755
54888W        W14633   8.704  35.916   3.784
54889W        W14634  30.500  26.591  11.905
54890W        W14635   8.898  35.582   2.304
54891W        W14636  34.924  14.170   1.212
54892W        W14637  17.768   4.289  10.630
54893W        W14638  44.416   2.895  12.480
54894W        W14639  36.471  19.732   2.749
54895W        W14640   6.711  19.278  13.367
54896W        W14641  34.098  21.702   1.744
54897W        W14642  43.390  38.501   1.922
54898W        W14643  28.163  24.494  14.837
54899W        W14644  11.151  22.538   2.816
54900W        W14645  28.975  12.746   2.206
54901W        W14646  43.934  40.050  14.337
54902W        W14647  34.972   3.936  11.092
54903W        W14648   2.745  28.477   0.301
54904W        W14649  25.581  36.489   0.468
54905W        W14650  11.290  25.987  13.845
54906W        W14651  34.428   2.897   1.240
54907W        W14652  39.048  17.092  14.412
54908W        W14653  18.184  19.285   0.277
54909W        W14654  11.786  19.676   4.221
54910W        W14655  28.673  10.163   1.752
54911W        W14656  40.305  36.956   0.732
54912W        W14657  10.771  37.431   3.739
54913W        W14658  10.310  21.260  11.060
54914W        W14659  33.421  44.843  11.093
54915W        W14660   6.223  41.409  10.991
54916W        W14661  21.263  44.979   1.398
54917W        W14662   9.747  35.528  10.527
54918W        W14663  35.081   3.236  13.538
54919W        W14664  24.489   7.359  13.496
54920W        W14665   1.860  26.644   4.287
54921W        W14666  16.701  40.834  14.367
54922W        W14667  17.165  34.431   4.216
54923W        W14668  39.358  43.833   3.330
54924W        W14669  40.999   3.233  13.994
54925W        W14670  38.496   7.737  12.979
54926W        W14671  13.308   1.815   3.814
54927W        W14672   2.832  13.294   3.762
54928W        W14673  33.483  27.599   0.733
54929W        W14674  36.048   4.938  11.038
54930W        W14675  14.694  27.060  14.763
54931W        W14676  34.073  33.094   1.331
54932W        W14677  13.622  14.729   3.848
54933W        W14678  20.251   1.473  12.092
54934W        W14679   9.317  32.450  12.446
54935W        W14680  44.968   0.838  13.484
54936W        W14681  35.886  44.798  11.475
54937W        W14682  11.797  43.800   1.877
54938W        W14683  42.954   3.847   0.285
54939W        W14684  36.409  39.339  12.946
54940W        W14685   5.297  37.976   4.230
54941W        W14686  27.552   7.192  13.051
54942W        W14687   2.427   9.293   3.692
54943W        W14688  24.973  28.968   1.835
54944W        W14689   2.409  43.460   2.298
54945W        W14690  24.483  33.993   1.232
54946W        W14691  39.967  16.672  10.572
54947W        W14692  39.822  34.921  13.498
54948W        W14693  22.694   1.358  12.875
54949W        W14694  38.445  24.039   1.892
54950W        W14695  15.730  43.318   4.675
54951W        W14696  42.358  33.980   4.283
54952W        W14697  40.451   5.282   0.249
54953W        W14698  42.500  36.449   1.446
54954W        W14699  36.845  35.884  11.094
54955W        W14700  18.551  38.521  13.918
54956W        W14701  34.015  15.184   2.810
54957W        W14702  31.006  10.244   0.911
54958W        W14703  13.185  28.967   1.762
54959W        W14704  34.497  28.139  13.448
54960W        W14705   9.781   5.924   3.770
54961W        W14706  17.305  16.113  12.460
54962W        W14707  41.953   8.297   1.300
54963W        W14708   6.736  37.347   1.701
54964W        W14709  27.130  42.341   0.261
54965W        W14710  25.973   4.437   0.794
54966W        W14711   8.302  16.705  14.497
54967W        W14712  20.147  23.997   0.760
54968W        W14713  15.239  41.870   4.653
54969W        W14714  39.454  33.083  11.903
54970W        W14715  40.906  13.312   4.793
54971W        W14716   2.935   1.344   2.766
54972W        W14717   0.378   2.276  13.396
54973W        W14718  38.343  30.419  11.006
54974W        W14719  30.007   9.665   2.837
54975W        W14720  11.863   6.827  11.891
54976W        W14721   1.764  22.023   1.213
54977W        W14722  18.590  38.386   3.329
54978W        W14723  20.086  24.140  14.968
54979W        W14724  40.473  26.180  12.882
54980W        W14725  20.145   9.154   0.436
54981W        W14726   1.321   4.762   3.279
54982W        W14727   2.879  32.602   1.386
54983W        W14728  40.844   7.376   3.219
54984W        W14729  13.210   1.390  11.104
54985W        W14730  16.569  21.198  14.284
54986W        W14731  34.028  29.164   0.964
54987W        W14732  33.614  42.363   2.372
54988W        W14733  34.388   1.361  13.947
54989W        W14734  26.004  13.777   0.390
54990W        W14735  39.314  21.138  12.901
54991W        W14736  37.016  39.532  11.094
54992W        W14737  42.944   2.936  10.536
54993W        W14738  19.734  17.068  11.527
54994W        W14739  16.196  24.057   0.934
54995W        W14740   5.428  30.606   1.419
54996W        W14741  29.630  39.883   1.915
54997W        W14742  31.023  25.476  13.467
54998W        W14743  22.111  37.065   1.813
54999W        W14744  11.736  20.149   0.794
55000W        W14745  33.116  23.120   1.790
55001W        W14746  31.065  18.642  12.495
55002W        W14747   4.428  34.426  13.335
55003W        W14748  39.023  16.635  11.013
55004W        W14749  30.650  16.261  11.865
55005W        W14750  38.971  43.275  12.983
55006W        W14751   4.367   0.747  12.460
55007W        W14752  31.994  25.536   1.293
55008W        W14753  31.077  34.585  12.443
55009W        W14754   3.879  34.468   3.374
55010W        W14755  26.558  24.679   0.415
55011W        W14756   9.194  35.529  10.932
55012W        W14757  20.123  20.642   4.672
55013W        W14758  41.358  19.685   2.349
55014W        W14759  11.173  41.911   2.345
55015W        W14760  44.875   2.851  11.104
55016W        W14761  18.780  23.088  13.446
55017W        W14762   0.917  21.705   3.369
55018W        W14763  27.071   6.289   0.846
55019W        W14764  25.143  38.977  14.421
55020W        W14765  36.092   5.764  12.450
55021W        W14766  11.365  25.575  13.417
55022W        W14767  28.635   8.763   3.297
55023W        W14768  40.996  23.577   3.825
55024W        W14769  19.266  10.687  11.921
55025W        W14770  38.959  41.338  11.020
55026W        W14771   4.321   0.309  11.456
55027W        W14772  16.184  19.222  14.314
55028W        W14773  19.145   6.687  14.292
55029W        W14774  31.592   5.727   1.302
55030W        W14775   9.748  43.770  13.334
55031W        W14776   8.226  41.492  13.030
55032W        W14777  20.583  12.631  12.943
55033W        W14778  29.670  12.298  12.878
55034W        W14779  44.952  25.144  14.300
55035W        W14780  20.675   7.238   1.783
55036W        W14781  18.550  33.530  11.538
55037W        W14782   1.283  33.467   0.291
55038W        W14783  35.962  11.186   3.255
55039W        W14784   8.855  21.741  14.784
55040W        W14785  34.396  43.005  10.951
55041W        W14786  42.390   8.761  12.998
55042W        W14787  44.883  20.045   3.777
55043W        W14788  37.884   3.843   2.254
55044W        W14789   4.356  38.516   5.677
55045W        W14790  20.597  38.486  12.452
55046W        W14791  31.039  14.623   2.341
55047W        W14792  44.984  26.018   1.726
55048W        W14793   2.417  29.137   2.804
55049W        W14794  25.677  11.794  14.351
55050W        W14795  39.489  43.402   0.964
55051W        W14796  12.213  29.532  14.939
55052W        W14797  20.636  23.209  11.382
55053W        W14798   8.352  36.020   1.362
55054W        W14799  28.643  42.993  12.574
55055W        W14800  44.444  22.010  13.006
55056W        W14801   7.853  14.125   1.930
55057W        W14802   5.223  35.928  10.636
55058W        W14803  23.607  27.006  11.065
55059W        W14804  33.467  37.541  10.586
55060W        W14805   9.232  41.813  14.322
55061W        W14806   1.367  30.020  13.857
55062W        W14807  17.651  34.024  11.549
55063W        W14808  36.028  36.500   0.288
55064W        W14809  26.068   1.825  10.433
55065W        W14810  24.985  27.618   1.238
55066W        W14811   0.288  16.144  12.984
55067W        W14812  23.029   3.437   4.171
55068W        W14813  42.007  37.405   4.823
55069W        W14814  39.975   9.189  11.084
55070W        W14815  13.238  26.557  12.053
55071W        W14816  11.640  31.581   2.716
55072W        W14817  12.119  39.848  11.118
55073W        W14818  34.580  28.939  14.276
55074W        W14819  17.281   4.698  14.771
55075W        W14820  42.961   4.324  12.989
55076W        W14821  40.374  30.447   2.336
55077W        W14822   8.688  19.162   0.447
55078W        W14823  37.949  44.896  12.062
55079W        W14824  24.635  40.861  14.973
55080W        W14825   6.883  29.117  10.632
55081W        W14826   9.385   9.700  10.530
55082W        W14827   9.250  18.663  14.432
55083W        W14828  43.431  34.373  10.487
55084W        W14829  18.079  36.989  14.815
55085W        W14830  37.427  13.226   4.134
55086W        W14831  16.258  34.417   3.662
55087W        W14832  25.540  28.187   3.178
55088W        W14833  35.925  29.150  13.408
55089W        W14834  13.790  15.640   1.393
55090W        W14835  42.328  17.189  11.005
55091W        W14836   9.681  30.474  12.569
55092W        W14837  37.881  16.124   1.764
55093W        W14838   6.219  44.889   0.369
55094W        W14839   5.843  15.229  13.454
55095W        W14840   7.896  36.984   2.192
55096W        W14841   0.964  32.986  12.438
55097W        W14842   9.369  28.594  13.374
55098W        W14843  24.674  44.772  12.938
55099W        W14844  28.079   5.299  13.848
55100W        W14845   3.320  38.036   1.880
55101W        W14846  14.294  26.959  12.990
55102W        W14847  20.070  29.502   1.890
55103W        W14848  23.058  20.235   3.261
55104W        W14849  41.474  31.524  11.933
55105W        W14850   1.377  32.597   0.868
55106W        W14851  17.149  17.104   2.203
55107W        W14852  17.738  17.562  12.515
55108W        W14853  37.939   3.417   4.810
55109W        W14854  41.825   3.416  13.487
55110W        W14855  44.411  10.796   4.669
55111W        W14856  34.452  35.105  14.346
55112W        W14857  36.355  12.129   2.684
55113W        W14858  34.513  13.137   2.883
55114W        W14859  28.079   1.373   0.952
55115W        W14860  35.992  42.491  11.888
55116W        W14861   6.819  25.120  14.291
55117W        W14862  19.089   1.475  12.572
55118W        W14863   2.815  29.069  11.101
55119W        W14864  12.635  14.154   2.356
55120W        W14865  37.945  10.201  12.852
55121W        W14866   0.420  22.629   0.360
55122W        W14867  15.584  44.839  11.855
55123W        W14868  21.108  17.085   3.164
55124W        W14869  41.864  15.239   4.326
55125W        W14870  25.651   7.301  13.852
55126W        W14871  31.479  10.348  12.483
55127W        W14872  35.498   5.808  14.356
55128W        W14873  44.281  39.491  10.491
55129W        W14874  43.920  14.761  11.934
55130W        W14875  32.547  38.972  13.951
55131W        W14876  20.718  32.060   1.239
55132W        W14877  28.952  25.195  11.882
55133W        W14878  41.877  42.994   2.315
55134W        W14879  30.985   0.845  14.319
55135W        W14880   7.227  17.593  14.001
55136W        W14881  30.936  11.714   2.786
55137W        W14882   6.291  21.726   3.832
55138W        W14883  24.102   6.241  10.147
55139W        W14884  32.401  11.703  11.994
55140W        W14885  42.782   4.320  14.014
55141W        W14886  44.956  11.154  10.925
55142W        W14887  33.064  15.597  11.449
55143W        W14888  40.988   7.233  12.449
55144W        W14889  16.770  23.540  13.023
55145W        W14890  28.976  42.993   5.307
55146W        W14891   9.213  16.091   1.696
55147W        W14892  33.419  11.322   2.290
55148W        W14893  23.555  35.008   1.782
55149W        W14894  13.127  19.675  11.095
55150W        W14895   6.419  35.507  12.992
55151W        W14896   7.853  41.963   0.870
55152W        W14897  16.687  44.277  12.019
55153W        W14898  33.467  21.691   0.764
55154W        W14899  41.801  26.062   3.263
55155W        W14900  17.657   3.833  14.396
55156W        W14901   5.716   2.449  10.950
55157W        W14902   9.322  19.118   3.766
55158W        W14903  39.364   6.387   4.266
55159W        W14904   7.786   9.290   3.183
55160W        W14905   6.891   4.842   0.305
55161W        W14906  39.933   3.929   4.190
55162W        W14907  22.642  22.600  11.571
55163W        W14908  41.371   4.360  14.890
55164W        W14909  21.135  11.771  11.944
55165W        W14910  15.798  32.442   3.363
55166W        W14911  20.233   5.838  14.407
55167W        W14912  22.077  20.528   3.289
55168W        W14913  23.124  28.591  10.487
55169W        W14914  44.468  19.225  14.027
55170W        W14915  42.482  44.456   3.160
55171W        W14916  44.308   1.289  14.287
55172W        W14917  42.991  26.087   1.911
55173W        W14918  37.468   4.827  11.574
55174W        W14919  33.906   1.838  11.524
55175W        W14920  43.870  39.382   4.183
55176W        W14921   8.739   6.366  11.511
55177W        W14922  39.028  15.769  11.899
55178W        W14923  28.992  32.430  13.830
55179W        W14924   4.894  32.131  13.396
55180W        W14925  37.896  25.100   2.301
55181W        W14926  44.784  41.442   3.785
55182W        W14927  17.206   0.811  14.845
55183W        W14928  37.949   6.923   1.256
55184W        W14929   1.749  18.132   2.693
55185W        W14930  14.251  11.766  14.473
55186W        W14931  43.326   2.744  11.091
55187W        W14932  42.394  40.450  12.924
55188W        W14933  25.093  26.049   2.685
55189W        W14934  10.191   0.477  13.333
55190W        W14935  22.120  38.371  12.983
55191W        W14936  38.902  37.574  12.994
55192W        W14937   4.752  29.592   2.243
55193W        W14938  30.081  30.460   2.718
55194W        W14939  33.388  32.125   2.240
55195W        W14940  12.193  17.765   1.822
55196W        W14941  13.267   2.787   3.806
55197W        W14942  32.910   5.726   3.672
55198W        W14943  32.624  31.074  12.535
55199W        W14944  32.967  44.438  13.881
55200W        W14945   7.739  29.427   1.772
55201W        W14946   1.409  16.728  10.416
55202W        W14947  21.060  37.478  12.485
55203W        W14948   4.296   6.838  14.404
55204W        W14949  41.358  12.293  14.005
55205W        W14950  28.602  19.134   2.802
55206W        W14951  40.439   1.776   0.455
55207W        W14952  23.043  39.926   1.935
55208W        W14953  32.139  22.524  13.420
55209W        W14954  35.370  42.387   1.223
55210W        W14955  40.402  41.960   0.389
55211W        W14956  34.611  33.130  11.026
55212W        W14957  20.756   3.425   3.248
55213W        W14958  13.128  40.341  14.869
55214W        W14959  40.377   5.422  14.398
55215W        W14960  42.873  17.763   1.894
55216W        W14961  23.159  27.603  13.941
55217W        W14962  11.749  10.809   0.960
55218W        W14963  42.013  23.223  10.419
55219W        W14964  20.767  28.480  13.958
55220W        W14965  12.159  34.879  10.512
55221W        W14966  31.413  39.507   0.906
55222W        W14967  26.520   1.862   1.405
55223W        W14968  29.968  19.043  11.973
55224W        W14969  28.526  31.574   0.775
55225W        W14970  10.352   3.829  13.417
55226W        W14971  14.111  32.462  12.483
55227W        W14972  13.263  28.975  14.957
55228W        W14973  26.539  25.029   2.737
55229W        W14974  10.212  40.319  12.555
55230W        W14975  36.464   0.967  14.365
55231W        W14976  29.977  42.468  13.350
55232W        W14977  19.263  22.196  14.892
55233W        W14978  21.101  14.776  13.953
55234W        W14979  33.944  41.915  11.483
55235W        W14980   8.838  14.138  12.974
55236W        W14981  20.708  21.635   1.695
55237W        W14982  14.668  36.065  12.497
55238W        W14983  31.050  40.797   2.231
55239W        W14984   6.283   1.482  11.862
55240W        W14985  34.448  26.027  13.896
55241W        W14986  21.726  21.197   3.166
55242W        W14987  35.428  22.036   9.966
55243W        W14988  17.065  16.720   0.322
55244W        W14989  22.618  31.493  14.996
55245W        W14990  27.605  29.081   9.448
55246W        W14991  12.842  41.340  14.928
55247W        W14992  17.729  41.399   4.245
55248W        W14993   1.938  12.838  12.363
55249W        W14994  11.225   6.718  12.490
55250W        W14995  39.502  21.514   2.209
55251W        W14996   5.332  39.880   2.368
55252W        W14997  15.251  41.795  10.492
55253W        W14998  41.037  17.726  11.944
55254W        W14999   1.883  28.633  12.071
55255W        W15000  38.454  35.385  11.891
55256W        W15001  13.338   9.822   3.810
55257W        W15002  18.634  10.683   2.756
55258W        W15003  20.728  39.344   2.805
55259W        W15004  41.901   0.486   3.320
55260W        W15005  13.272  13.653  12.044
55261W        W15006  31.507  42.948  14.484
55262W        W15007  35.550  27.610  12.831
55263W        W15008  32.493   3.916   4.644
55264W        W15009  42.423   3.746   4.837
55265W        W15010   4.931  14.102  13.492
55266W        W15011  26.601  28.031   2.304
55267W        W15012  19.658  20.070   1.275
55268W        W15013  33.955   3.954   1.435
55269W        W15014  35.385  10.779  14.392
55270W        W15015  37.843  43.435   4.730
55271W        W15016  40.477   0.756   1.915
55272W        W15017  16.259  14.620   0.937
55273W        W15018  25.028  10.733   4.687
55274W        W15019  19.539  17.659   2.831
55275W        W15020  42.827  31.018   1.902
55276W        W15021  35.391  44.312  14.936
55277W        W15022  11.714  10.827  13.380
55278W        W15023  17.638  18.133  11.606
55279W        W15024  33.971  26.145  14.884
55280W        W15025  27.947  22.077   3.285
55281W        W15026  43.982  39.029  11.459
55282W        W15027  40.824  25.501  12.564
55283W        W15028  16.130  11.828  12.511
55284W        W15029  41.405  15.113   2.753
55285W        W15030  43.372   4.259   3.649
55286W        W15031  42.997   4.229   0.425
55287W        W15032   4.822  26.988  10.617
55288W        W15033   7.411   7.290  14.421
55289W        W15034  44.936   2.944   4.818
55290W        W15035   2.899  10.210   0.473
55291W        W15036  31.079  22.121   3.152
55292W        W15037  26.674  40.946  14.301
55293W        W15038  20.092  18.176   3.285
55294W        W15039   0.409  13.776   3.725
55295W        W15040  28.097  42.458   0.760
55296W        W15041   3.745  30.140  11.549
55297W        W15042  31.984  22.632   0.845
55298W        W15043  41.418  40.533   2.339
55299W        W15044   5.206  13.223   0.795
55300W        W15045   0.417  25.962  12.870
55301W        W15046  28.937  43.375  14.341
55302W        W15047  42.926  15.683   3.688
55303W        W15048  11.665  41.858  10.924
55304W        W15049  34.461  13.127   4.242
55305W        W15050  29.133  25.479  14.306
55306W        W15051  43.874   6.273   4.604
55307W        W15052   1.295  26.036   2.299
55308W        W15053  16.572   1.298  13.907
55309W        W15054  32.932   9.247  10.924
55310W        W15055  27.526  38.073   4.336
55311W        W15056  32.446  16.095  11.057
55312W        W15057  21.657   3.800   9.476
55313W        W15058  39.945  18.101   0.729
55314W        W15059   8.381   4.277  14.357
55315W        W15060  15.718   6.416   0.948
55316W        W15061  23.521  37.515  12.934
55317W        W15062  11.182   0.380  14.976
55318W        W15063  32.130  43.326   4.329
55319W        W15064   0.927   0.326   1.315
55320W        W15065  41.500   2.764  13.909
55321W        W15066  39.810  40.509  13.868
55322W        W15067  43.291  34.880  12.356
55323W        W15068  40.908  31.076   0.366
55324W        W15069  42.281  18.281   4.291
55325W        W15070  30.606  43.897   3.870
55326W        W15071  13.606  44.358  13.816
55327W        W15072  27.063  35.570   0.244
55328W        W15073   2.362  29.476  13.377
55329W        W15074  35.374  20.235   0.897
55330W        W15075  11.723  26.576   1.272
55331W        W15076  37.576  35.087   1.753
55332W        W15077  43.856  22.703  13.507
55333W        W15078  20.126   3.441   0.961
55334W        W15079  43.480   8.280  14.301
55335W        W15080  10.775   0.852   2.902
55336W        W15081   5.795  33.962  11.943
55337W        W15082  34.868  33.962  10.421
55338W        W15083  43.954  12.740  13.519
55339W        W15084  32.085   8.747  12.345
55340W        W15085  21.688   1.244   1.910
55341W        W15086  38.924   4.259  11.129
55342W        W15087  24.056  11.240  11.118
55343W        W15088  17.661  17.254   4.800
55344W        W15089  31.414   9.688   3.700
55345W        W15090  27.551  42.327  12.069
55346W        W15091  40.516  26.582   4.159
55347W        W15092   2.961  37.843   5.762
55348W        W15093  20.233  41.416   5.198
55349W        W15094   4.821  35.985   4.602
55350W        W15095  40.416  17.081  11.435
55351W        W15096  43.966  21.261   3.719
55352W        W15097  26.987  44.368  10.041
55353W        W15098  44.295  32.493   3.870
55354W        W15099   5.735  22.598   1.705
55355W        W15100  42.951   1.847  11.420
55356W        W15101   3.411  12.211   1.856
55357W        W15102  11.852  33.110  11.506
55358W        W15103   7.322  44.503  11.123
55359W        W15104  31.082  11.731  12.553
55360W        W15105  28.072   8.721   1.219
55361W        W15106   5.925  38.895   4.210
55362W        W15107  21.061  42.281  11.868
55363W        W15108  11.367   2.468   3.382
55364W        W15109  37.538  44.955   3.689
55365W        W15110  26.608   1.851   1.762
55366W        W15111  42.452   3.832   2.673
55367W        W15112  39.364  36.402   0.384
55368W        W15113  31.105  38.549  14.942
55369W        W15114  42.919  36.002  10.551
55370W        W15115  37.003   9.814  14.397
55371W        W15116   3.711  36.860  14.003
55372W        W15117  10.814  21.108  11.916
55373W        W15118  28.544  22.560   2.415
55374W        W15119  44.998   2.885  14.896
55375W        W15120  28.101  20.694   3.687
55376W        W15121  37.433  16.686  12.397
55377W        W15122  42.824   6.807  10.896
55378W        W15123  27.060  17.273  11.909
55379W        W15124  39.336   9.384  14.915
55380W        W15125   7.297   9.692   2.847
55381W        W15126  21.630  13.714   3.770
55382W        W15127  42.927  31.603   1.871
55383W        W15128  20.241  44.469  10.473
55384W        W15129  19.574  22.725   1.357
55385W        W15130  25.084   7.273  13.915
55386W        W15131   5.927  36.526  13.062
55387W        W15132   6.200  36.078   0.850
55388W        W15133  21.564  19.578   1.782
55389W        W15134  34.042   4.815   4.121
55390W        W15135  30.150   8.846   3.834
55391W        W15136  38.493   2.887   1.722
55392W        W15137   7.852  23.682  11.093
55393W        W15138  15.228  13.704   1.433
55394W        W15139  40.535   3.296   1.870
55395W        W15140  31.034   2.902  14.373
55396W        W15141  32.990  11.684   0.843
55397W        W15142   9.748  19.177  12.432
55398W        W15143  31.979  15.723  14.335
55399W        W15144  34.906  25.615  13.532
55400W        W15145  43.940   8.180  13.972
55401W        W15146  30.132  18.207   2.735
55402W        W15147  11.348   3.924   4.650
55403W        W15148  42.025  43.977  13.849
55404W        W15149   8.381  28.984  13.887
55405W        W15150  42.807  33.983  14.778
55406W        W15151  26.010  38.449   3.862
55407W        W15152  18.734  34.532  14.829
55408W        W15153  36.350  38.334   4.210
55409W        W15154   7.691  40.877   2.812
55410W        W15155   6.320  32.976   0.248
55411W        W15156   7.200   5.917  14.366
55412W        W15157   3.289  18.124  14.482
55413W        W15158  19.585  30.623   3.808
55414W        W15159  27.454  37.084  14.884
55415W        W15160  30.976   7.880   3.788
55416W        W15161   8.664  27.556  14.026
55417W        W15162  41.452  32.894  14.361
55418W        W15163  28.565  37.350   2.786
55419W        W15164   1.392  25.700  13.043
55420W        W15165  42.912   9.833  10.568
55421W        W15166  25.102  25.556  14.942
55422W        W15167  40.902  28.082  13.794
55423W        W15168  12.214  22.017   4.246
55424W        W15169   5.771  37.976   3.339
55425W        W15170  15.766   2.266  10.957
55426W        W15171  41.342  26.025   4.136
55427W        W15172  27.494  34.540  13.325
55428W        W15173  36.958  16.189  14.382
55429W        W15174  26.562  25.061   4.268
55430W        W15175  26.517  20.626  11.585
55431W        W15176  11.252  12.633  10.449
55432W        W15177  19.749  13.789   5.294
55433W        W15178   9.263  18.184  14.026
55434W        W15179  23.188   1.910  11.445
55435W        W15180   8.303  42.863  12.898
55436W        W15181  35.862  15.659  11.591
55437W        W15182  27.636  30.514  13.430
55438W        W15183  36.041  44.909   2.698
55439W        W15184  24.635  19.134   4.253
55440W        W15185   1.429  35.051   3.309
55441W        W15186  18.719  33.466   1.280
55442W        W15187  21.629  15.130  12.056
55443W        W15188  39.835  36.422   4.721
55444W        W15189  36.525  20.061  14.823
55445W        W15190  25.586  43.768   3.680
55446W        W15191  42.870  17.578   3.647
55447W        W15192  23.530  18.744   1.716
55448W        W15193  11.654   9.332  14.498
55449W        W15194  13.304  20.766  12.948
55450W        W15195   0.804  41.901  14.955
55451W        W15196  29.532  13.275  12.348
55452W        W15197  21.126  37.057  14.958
55453W        W15198  34.534  10.641  13.345
55454W        W15199  35.593  25.186   4.769
55455W        W15200  43.933  43.479   3.194
55456W        W15201  25.494   0.299   4.792
55457W        W15202  27.619  30.907   1.887
55458W        W15203  36.937  13.730   4.633
55459W        W15204  23.013  37.860   4.327
55460W        W15205  24.127  39.008   5.217
55461W        W15206  27.063  31.952  10.103
55462W        W15207  30.006  32.113  14.942
55463W        W15208  27.964  36.058   2.664
55464W        W15209   1.392  22.086  14.910
55465W        W15210  32.013  21.258  11.026
55466W        W15211   7.780  33.912   2.383
55467W        W15212   2.258  28.679   4.657
55468W        W15213  24.538  36.991   3.635
55469W        W15214  14.629  26.953   3.196
55470W        W15215  15.181  19.144   1.368
55471W        W15216  39.016  27.106  12.530
55472W        W15217  44.318  17.666   2.852
55473W        W15218   0.272   8.781  10.914
55474W        W15219   2.835  21.088   2.368
55475W        W15220  32.595  24.021   1.935
55476W        W15221  21.555  36.905   2.414
55477W        W15222  22.069  27.045   0.482
55478W        W15223  18.282  14.724   1.281
55479W        W15224   1.320  25.141  10.618
55480W        W15225  23.003  16.771   3.306
55481W        W15226  42.902   9.718  10.896
55482W        W15227  36.526  11.365   1.835
55483W        W15228  37.970   6.228  12.375
55484W        W15229  41.456  26.647   0.273
55485W        W15230  39.930   7.692  11.444
55486W        W15231  13.664  24.024   3.674
55487W        W15232  11.212  13.676  12.525
55488W        W15233   9.342  40.887  10.975
55489W        W15234  20.037  16.118   3.236
55490W        W15235  29.987   8.268   1.327
55491W        W15236  19.617  21.238   3.846
55492W        W15237  33.928  18.761   1.739
55493W        W15238  43.952  14.834  13.384
55494W        W15239  16.279  43.495   2.761
55495W        W15240   0.919  35.425   3.310
55496W        W15241  39.890  34.983   2.291
55497W        W15242  29.624  22.537  14.480
55498W        W15243  23.241  28.183   2.882
55499W        W15244  30.039  29.928  13.046
55500W        W15245  29.057   6.786  14.393
55501W        W15246   4.434  23.698   2.332
55502W        W15247  35.854   7.905   5.213
55503W        W15248  40.368  39.518   0.313
55504W        W15249   1.330  43.897  10.969
55505W        W15250  18.072   4.826   2.823
55506W        W15251  22.061  21.205  10.435
55507W        W15252  39.875  39.963  12.388
55508W        W15253  15.245   1.422  12.007
55509W        W15254  33.967  28.185   0.731
55510W        W15255  32.614  34.948  13.000
55511W        W15256  20.711  12.278   3.744
55512W        W15257   4.827   1.912   4.140
55513W        W15258  42.351   3.280  13.437
55514W        W15259  22.541  27.534   0.364
55515W        W15260  25.699   1.846  13.996
55516W        W15261  11.321   2.285   1.261
55517W        W15262  44.471  18.716   9.962
55518W        W15263   7.246  31.648   4.795
55519W        W15264  32.946  24.007   3.304
55520W        W15265  11.226  44.846  11.877
55521W        W15266  31.903  35.546  12.376
55522W        W15267  43.932  44.426   3.377
55523W        W15268  10.738  17.586  10.906
55524W        W15269   0.252  14.710   2.686
55525W        W15270  41.898  23.675  10.524
55526W        W15271  21.210   4.702   2.291
55527W        W15272   7.730   5.195   3.218
55528W        W15273  20.163   8.334  12.974
55529W        W15274   6.762   1.357   3.303
55530W        W15275   1.786   7.206   3.842
55531W        W15276  29.065  44.788   2.855
55532W        W15277  14.331  38.426   0.936
55533W        W15278  34.611  39.459   4.603
55534W        W15279  20.269  16.784   4.763
55535W        W15280  19.656  25.005   2.885
55536W        W15281  19.046  15.794   3.270
55537W        W15282  15.169   6.813  14.370
55538W        W15283  10.184  42.517   1.831
55539W        W15284  28.122   0.449   0.382
55540W        W15285  44.972  31.119  14.023
55541W        W15286   7.883  35.868  10.111
55542W        W15287  16.165  24.622  14.945
55543W        W15288   9.666  15.685  11.601
55544W        W15289  11.254  39.333  13.439
55545W        W15290  19.181   9.220   3.750
55546W        W15291  24.145  12.741   4.678
55547W        W15292  17.105  19.651  10.532
55548W        W15293  19.108  14.155   3.193
55549W        W15294   0.820   6.193  11.537
55550W        W15295  22.095  13.721  14.883
55551W        W15296  12.747  10.641  11.070
55552W        W15297  11.334  20.727   2.677
55553W        W15298  40.430  22.518   2.327
55554W        W15299  26.609  31.119   2.696
55555W        W15300  13.787  22.079   2.280
55556W        W15301  19.654  17.562  12.066
55557W        W15302  44.764  30.117  14.915
55558W        W15303   8.236  29.019   2.792
55559W        W15304   9.339  10.776   2.742
55560W        W15305  17.601  33.000   4.266
55561W        W15306  41.893  17.779   1.378
55562W        W15307  24.545  34.573  10.891
55563W        W15308  37.558  33.915  14.995
55564W        W15309  26.561  43.447   2.246
55565W        W15310  38.023  13.222   1.270
55566W        W15311  23.040  33.496   1.451
55567W        W15312  14.592  43.335   2.863
55568W        W15313   8.873  25.149  10.494
55569W        W15314  22.664  42.333  10.019
55570W        W15315  20.653   3.802   1.780
55571W        W15316  30.616   4.870   2.793
55572W        W15317   8.862  33.057   0.859
55573W        W15318   7.398  24.585  13.862
55574W        W15319  23.654   6.912   0.760
55575W        W15320  32.085  22.668   3.802
55576W        W15321  42.484  41.494  13.040
55577W        W15322  14.822  40.828   0.271
55578W        W15323  25.479  18.653   2.850
55579W        W15324   9.720   3.952  11.389
55580W        W15325  38.883  17.216  14.932
55581W        W15326  38.356  27.944  13.816
55582W        W15327  35.415  42.907  12.498
55583W        W15328  38.508  25.096   4.258
55584W        W15329  39.374  35.878   3.799
55585W        W15330  10.691  43.799   1.770
55586W        W15331  20.526  14.649   4.619
55587W        W15332   6.229  19.728   4.699
55588W        W15333  27.659  34.946  11.067
55589W        W15334  19.136  39.536  13.399
55590W        W15335  13.247   7.343   3.702
55591W        W15336   1.276  19.751  13.058
55592W        W15337  11.706   9.368  13.971
55593W        W15338  28.957  20.063   4.140
55594W        W15339   5.687  38.065   4.172
55595W        W15340  27.079  10.719   0.815
55596W        W15341  37.459   3.396   3.740
55597W        W15342  21.230  12.681   4.187
55598W        W15343  28.158  33.100   1.216
55599W        W15344  42.335  30.482   5.110
55600W        W15345  19.627  16.591   1.234
55601W        W15346   7.284  12.209  11.077
55602W        W15347   6.900  34.933   3.810
55603W        W15348  21.623  44.343  14.933
55604W        W15349  40.399  29.154  10.411
55605W        W15350  44.919   3.261  10.530
55606W        W15351  22.658   9.752  11.561
55607W        W15352   9.163   5.873   4.619
55608W        W15353  44.825  27.677   2.891
55609W        W15354   7.676  35.392   4.277
55610W        W15355  34.991   8.858  13.874
55611W        W15356  30.624  22.108  13.372
55612W        W15357  33.381  18.072   0.270
55613W        W15358   8.206  15.764   1.777
55614W        W15359  29.578   4.428   5.734
55615W        W15360  33.468  29.137   2.265
55616W        W15361   1.280  42.281  12.560
55617W        W15362  41.457  41.855  11.982
55618W        W15363  29.146  22.239   4.739
55619W        W15364  44.259  17.725  11.442
55620W        W15365  11.748   7.365   1.892
55621W        W15366  17.182  18.690   2.724
55622W        W15367  27.178  29.988   9.964
55623W        W15368  40.013  41.425  13.037
55624W        W15369  34.482  23.064   1.770
55625W        W15370  22.719  43.769  12.971
55626W        W15371   3.887   2.790  12.825
55627W        W15372  20.623  30.101   3.744
55628W        W15373  41.042  14.180  14.837
55629W        W15374  11.185  11.281   3.304
55630W        W15375  20.649  32.499  14.320
55631W        W15376  42.435  34.882   3.178
55632W        W15377  25.702  40.896  13.801
55633W        W15378  16.624   2.312  10.536
55634W        W15379  24.681   5.341  11.435
55635W        W15380  43.437  23.005  14.004
55636W        W15381  35.394  23.588  13.986
55637W        W15382  44.804   7.183  10.960
55638W        W15383   4.820  26.194  13.918
55639W        W15384   5.693  16.723  14.878
55640W        W15385  37.929   6.392  11.109
55641W        W15386  37.947  10.861   4.780
55642W        W15387  38.428   8.707   0.442
55643W        W15388  14.696  18.691  14.906
55644W        W15389   6.310  26.087  11.894
55645W        W15390  41.007  36.033   1.712
55646W        W15391  25.668  11.279   4.173
55647W        W15392  34.880  15.092  12.016
55648W        W15393  35.869  12.214   3.664
55649W        W15394  19.745  27.032  11.982
55650W        W15395   7.901  19.073  11.513
55651W        W15396  29.098  44.275  13.045
55652W        W15397  18.586   5.209  10.456
55653W        W15398  36.035  40.853   3.240
55654W        W15399  19.616   4.867  11.592
55655W        W15400  32.569  16.086   0.862
55656W        W15401  14.828  12.289   1.752
55657W        W15402  18.594  35.109   1.392
55658W        W15403   2.861  32.026   4.133
55659W        W15404  41.019  26.570   2.220
55660W        W15405  20.155  28.993  10.945
55661W        W15406  13.205  42.894   5.125
55662W        W15407  23.013  12.240   0.791
55663W        W15408  10.164  17.139   5.160
55664W        W15409  41.362  18.173   4.246
55665W        W15410  40.013   9.327   4.754
55666W        W15411   4.262  37.976  13.471
55667W        W15412  38.360  25.704  11.606
55668W        W15413  12.845  44.847   0.325
55669W        W15414  23.621  21.115  13.477
55670W        W15415  43.495  10.755  14.904
55671W        W15416  33.077  32.439   3.855
55672W        W15417  41.985  44.821  14.986
55673W        W15418   4.376  28.930   4.717
55674W        W15419  19.706  14.661   0.313
55675W        W15420  39.837  30.934   2.789
55676W        W15421   9.161  25.003   4.335
55677W        W15422   5.696  26.952  12.007
55678W        W15423  18.175  15.751  13.041
55679W        W15424  27.073  14.646   4.331
55680W        W15425  31.492   5.236  12.454
55681W        W15426  36.911   1.415   3.752
55682W        W15427  35.922  41.953   0.908
55683W        W15428  42.911   8.863   4.174
55684W        W15429  28.568  38.546   2.224
55685W        W15430  28.638  36.378  13.993
55686W        W15431  41.897  42.285  14.915
55687W        W15432  24.089  40.347   1.339
55688W        W15433  31.088   3.833   9.585
55689W        W15434  39.968  16.236  13.543
55690W        W15435   6.360  16.716  14.297
55691W        W15436  44.344   1.916  11.572
55692W        W15437   5.285  32.093   1.429
55693W        W15438  43.955  35.034  11.474
55694W        W15439  31.409  29.512  10.581
55695W        W15440   6.353  41.979  10.974
55696W        W15441  18.790  36.955  12.871
55697W        W15442  31.917  15.249  13.956
55698W        W15443   9.804  24.633  13.510
55699W        W15444  22.743  20.095  12.958
55700W        W15445  26.535  34.426  13.333
55701W        W15446  35.972   2.356  13.309
55702W        W15447  19.128  13.611  14.845
55703W        W15448   4.227  35.549  11.992
55704W        W15449   9.392   6.862  10.903
55705W        W15450  16.164  13.770  13.529
55706W        W15451  38.933   7.871  14.463
55707W        W15452  33.383  33.916  10.966
55708W        W15453   3.858  20.736  13.912
55709W        W15454  30.656  12.132   2.362
55710W        W15455  44.975  43.415   4.171
55711W        W15456  19.172  37.449  13.954
55712W        W15457  44.373  24.996   2.880
55713W        W15458  17.645  17.146  11.442
55714W        W15459   0.248   0.296   4.187
55715W        W15460  37.927  12.767  10.599
55716W        W15461  13.125  15.312   4.212
55717W        W15462  17.124  19.186   2.412
55718W        W15463  40.511  13.621   4.300
55719W        W15464  21.145  16.192   4.335
55720W        W15465   9.188  41.515   2.806
55721W        W15466   1.259  18.227   0.762
55722W        W15467   8.720  36.586   3.783
55723W        W15468   5.872  25.203  13.037
55724W        W15469   3.352   1.843  11.496
55725W        W15470  42.783  14.230  14.426
55726W        W15471   2.365  24.493   4.262
55727W        W15472  31.416  12.169  14.973
55728W        W15473   8.816   8.799   0.364
55729W        W15474   1.239  43.946   3.292
55730W        W15475  38.468  36.552  12.428
55731W        W15476   4.281   5.712  13.815
55732W        W15477   2.744  36.534   9.968
55733W        W15478  18.292  11.189  13.486
55734W        W15479  31.912  23.709   1.413
55735W        W15480  29.107  37.924  12.839
55736W        W15481  10.293  24.053   3.732
55737W        W15482  14.247  14.257   1.884
55738W        W15483   3.244  13.772   2.409
55739W        W15484  15.277  21.024  13.366
55740W        W15485  28.599  17.573  13.868
55741W        W15486  15.293   3.236  12.854
55742W        W15487  11.829   8.358  10.079
55743W        W15488  25.164  39.510  13.405
55744W        W15489   1.824  37.001   3.170
55745W        W15490  37.368  32.515  13.525
55746W        W15491  32.623  41.376   5.159
55747W        W15492   3.727  28.976   2.404
55748W        W15493  18.606   5.715  11.381
55749W        W15494  23.024  27.499  10.533
55750W        W15495  35.034  28.019  11.987
55751W        W15496  24.528  38.507   0.379
55752W        W15497  40.543  30.452  14.896
55753W        W15498  16.266  17.792   1.303
55754W        W15499  42.370  34.501  10.522
55755W        W15500  33.937  17.281  11.546
55756W        W15501  42.366   1.907  12.975
55757W        W15502  33.545  15.675  10.462
55758W        W15503  33.974  44.872  11.861
55759W        W15504  17.086  26.176  14.991
55760W        W15505  23.021  36.926   2.755
55761W        W15506  33.474  19.563  11.977
55762W        W15507  14.312   1.789   3.223
55763W        W15508  41.535   0.344   0.846
55764W        W15509  17.573  33.958  13.054
55765W        W15510   0.290  36.526   9.607
55766W        W15511  28.966  16.623  13.541
55767W        W15512  15.137   5.820  13.329
55768W        W15513   6.880  24.556  11.585
55769W        W15514  21.124  34.116   3.674
55770W        W15515  29.981  42.419   3.698
55771W        W15516  13.232  39.432  14.910
55772W        W15517  33.893  43.933  13.363
55773W        W15518  21.528   1.899  13.468
55774W        W15519  43.467  25.179  13.325
55775W        W15520  28.982  27.592   4.183
55776W        W15521  40.413  44.969   2.818
55777W        W15522  28.539  19.731  12.380
55778W        W15523  29.457  17.157   1.359
55779W        W15524  42.993   7.395   2.679
55780W        W15525  25.646  39.002  10.144
55781W        W15526   8.760  34.431  11.464
55782W        W15527  32.527  34.421  10.461
55783W        W15528  42.459  27.175   4.171
55784W        W15529  43.977   8.802  12.454
55785W        W15530  38.325  36.428   2.828
55786W        W15531  24.063   4.412   2.198
55787W        W15532  23.092  43.964   2.384
55788W        W15533   4.936  32.515   4.263
55789W        W15534  43.344  10.152   3.362
55790W        W15535  19.729  36.000  14.347
55791W        W15536   0.878  17.561   3.281
55792W        W15537  33.891  15.221  10.529
55793W        W15538   2.785  26.172   2.798
55794W        W15539  43.929  21.681   3.773
55795W        W15540  43.969  18.583   4.697
55796W        W15541   2.288  17.586  13.064
55797W        W15542  18.614  43.949   1.299
55798W        W15543  22.248   4.224  10.004
55799W        W15544  41.437  13.138  11.874
55800W        W15545  35.554  22.097  12.487
55801W        W15546   7.834  15.658   3.852
55802W        W15547  18.144  18.670  13.533
55803W        W15548   8.887  20.589   0.244
55804W        W15549  38.332  14.114  11.126
55805W        W15550  11.372  34.464  14.459
55806W        W15551  21.049  25.493   2.890
55807W        W15552  10.300  25.115   4.272
55808W        W15553  28.051  34.940   4.135
55809W        W15554  22.624   6.394  10.069
55810W        W15555   0.373  35.461  12.436
55811W        W15556  25.486  24.683   3.309
55812W        W15557  17.724   8.869   1.749
55813W        W15558  18.215  15.613  14.278
55814W        W15559  41.819  39.990  10.599
55815W        W15560  18.735  20.063   0.341
55816W        W15561  34.898  17.106   2.873
55817W        W15562  33.397  41.491  14.969
55818W        W15563  30.930   9.236   1.810
55819W        W15564  10.809  18.091   0.869
55820W        W15565  24.061  42.925  13.392
55821W        W15566  42.449  17.701   2.265
55822W        W15567  14.282  21.220  12.928
55823W        W15568  32.892  16.769   4.683
55824W        W15569  10.372  32.512   0.925
55825W        W15570  37.500   5.735  13.814
55826W        W15571   1.416  40.332  13.855
55827W        W15572  16.173  25.526   2.376
55828W        W15573  14.155  26.557  14.446
55829W        W15574  35.022  41.996  13.033
55830W        W15575  27.982   8.696   0.763
55831W        W15576  43.276  27.121  14.342
55832W        W15577  29.634   1.946   4.697
55833W        W15578   2.730  44.271  12.960
55834W        W15579   5.755  24.991   2.700
55835W        W15580   2.377  16.780   5.708
55836W        W15581  41.848  31.988   1.386
55837W        W15582  32.134  14.823   2.855
55838W        W15583  41.943  11.212  13.925
55839W        W15584  16.151  17.770  12.976
55840W        W15585  10.180   1.767   9.997
55841W        W15586  40.978  11.857  13.394
55842W        W15587  12.825  18.643  12.534
55843W        W15588  20.603  32.115   4.666
55844W        W15589  38.070  17.586  12.497
55845W        W15590  32.535  23.127  11.431
55846W        W15591  32.414  43.411  13.399
55847W        W15592  24.655   2.397   4.296
55848W        W15593  13.344  39.899  11.093
55849W        W15594   9.267  21.528  10.965
55850W        W15595  31.580  36.378  12.079
55851W        W15596  17.710  17.155   3.633
55852W        W15597   5.719  20.056  11.030
55853W        W15598  36.976  14.813   2.702
55854W        W15599  21.125  20.155   4.339
55855W        W15600  14.323  36.862  14.349
55856W        W15601  35.535  37.370   1.793
55857W        W15602  25.707   9.712   2.877
55858W        W15603   0.861  27.153   0.918
55859W        W15604   0.392   6.857   4.755
55860W        W15605  42.476  38.893   0.892
55861W        W15606  30.596  38.455  11.025
55862W        W15607  23.688  34.976  11.506
55863W        W15608  26.477  37.464   2.187
55864W        W15609  43.878  16.665   3.666
55865W        W15610   1.741  15.143   2.285
55866W        W15611  40.435  40.546   3.794
55867W        W15612  13.607   9.647  10.433
55868W        W15613  27.482  25.021  10.562
55869W        W15614   7.895  20.624   4.331
55870W        W15615  21.619  38.945  11.454
55871W        W15616  11.818   7.863  11.458
55872W        W15617  12.681   5.293   4.312
55873W        W15618  19.271   4.938  12.089
55874W        W15619  34.006  39.340   4.753
55875W        W15620  17.137  13.237   2.292
55876W        W15621  29.540  23.719   0.920
55877W        W15622  27.072  38.826   1.905
55878W        W15623  10.382   4.898  14.779
55879W        W15624  25.122  26.574   1.929
55880W        W15625  41.985  39.853  12.846
55881W        W15626  42.984  22.067  12.856
55882W        W15627  28.951  30.656  13.396
55883W        W15628  15.267   9.740   1.401
55884W        W15629  30.068  41.418   3.846
55885W        W15630  30.129  31.583   1.811
55886W        W15631  21.683   2.800  10.411
55887W        W15632  26.605  15.274  12.495
55888W        W15633  10.827  12.141  13.386
55889W        W15634  35.475  41.437   3.739
55890W        W15635  10.233  24.574  14.996
55891W        W15636  11.833   1.310   4.692
55892W        W15637  42.828  22.199  10.148
55893W        W15638   0.931  22.700   3.695
55894W        W15639   2.229  17.663   2.773
55895W        W15640  20.748  10.175  11.863
55896W        W15641  18.560  26.533   2.691
55897W        W15642   1.928  36.059  13.799
55898W        W15643   7.795  37.065  11.995
55899W        W15644  10.212   1.359  12.077
55900W        W15645  17.691  34.422   1.289
55901W        W15646  38.826  35.600   0.957
55902W        W15647  32.898   1.428   0.289
55903W        W15648  27.498  31.623   4.828
55904W        W15649  24.048  33.908   2.744
55905W        W15650   8.674  32.107   2.365
55906W        W15651  37.447  28.503  10.542
55907W        W15652  34.611  38.835  14.848
55908W        W15653  16.572  10.845   3.759
55909W        W15654  29.041  44.302  11.876
55910W        W15655  27.092  30.149  10.993
55911W        W15656  31.063  18.615   4.155
55912W        W15657  27.656  21.039   0.960
55913W        W15658   4.781  23.584   2.794
55914W        W15659  11.633  26.604  14.001
55915W        W15660  22.727   5.197   0.942
55916W        W15661  26.969   6.855   0.327
55917W        W15662  42.931  23.054   4.114
55918W        W15663  38.059  32.979   0.940
55919W        W15664  20.753  15.733  13.952
55920W        W15665  19.631  11.240  14.342
55921W        W15666  37.477  11.681  14.796
55922W        W15667  24.995  17.752  12.002
55923W        W15668  14.306   3.887   4.272
55924W        W15669   8.282  16.813  12.345
55925W        W15670   7.673  44.410  14.291
55926W        W15671  44.265   1.956  14.362
55927W        W15672  18.063   8.255   4.664
55928W        W15673   9.770  42.827   3.663
55929W        W15674  30.977  36.982  13.031
55930W        W15675  15.328  28.641  11.379
55931W        W15676  33.982  42.008   3.753
55932W        W15677  37.865  23.216  13.062
55933W        W15678  27.579  16.804  12.978
55934W        W15679  39.060  14.822   2.796
55935W        W15680   2.336  14.310   3.354
55936W        W15681   1.314  39.958  13.373
55937W        W15682  34.049  22.201   2.186
55938W        W15683  33.893  25.532   4.312
55939W        W15684  35.372  22.743  13.408
55940W        W15685  34.389  39.971   1.394
55941W        W15686  44.313  43.989   4.341
55942W        W15687  18.216  31.591   2.863
55943W        W15688  31.623  10.211  14.371
55944W        W15689  30.646  32.548   2.235
55945W        W15690  24.200  42.938   5.226
55946W        W15691   2.839  22.080   2.304
55947W        W15692  11.239  10.144   2.830
55948W        W15693   6.295   4.294  10.910
55949W        W15694   7.353  21.136   2.413
55950W        W15695  34.028  13.729  13.532
55951W        W15696  26.635  44.852   4.761
55952W        W15697  42.828   7.228   0.803
55953W        W15698  37.409  21.606   4.766
55954W        W15699  26.498  24.000   1.751
55955W        W15700   8.695  23.494  12.580
55956W        W15701   4.439   3.364   3.754
55957W        W15702  42.355  23.528  12.002
55958W        W15703  17.613  42.494  14.431
55959W        W15704  24.553  23.567   3.209
55960W        W15705  39.043  36.448  11.377
55961W        W15706   9.333  10.364  11.606
55962W        W15707  20.216  13.199   3.341
55963W        W15708  39.018  13.811   1.362
55964W        W15709   2.769  28.080   2.234
55965W        W15710   5.923  17.649   4.753
55966W        W15711  13.122  32.439   5.146
55967W        W15712  13.168  33.982  14.339
55968W        W15713  22.744  29.005  13.378
55969W        W15714  28.569  39.873  11.502
55970W        W15715   7.377  35.020  13.808
55971W        W15716  35.383  19.680   1.291
55972W        W15717   1.795  38.995  12.421
55973W        W15718  39.429   6.421  10.969
55974W        W15719  30.647  19.129  13.859
55975W        W15720  42.521  19.648  12.570
55976W        W15721   5.902  32.116  11.491
55977W        W15722  44.883  26.033  12.895
55978W        W15723  38.471  12.236  12.381
55979W        W15724   3.446  12.644   3.296
55980W        W15725   8.295   0.987   3.695
55981W        W15726  14.777  19.064  10.473
55982W        W15727  27.627  42.010  12.854
55983W        W15728   8.215  35.068   1.797
55984W        W15729  22.716  43.460  14.332
55985W        W15730  28.182   8.728  11.592
55986W        W15731   9.715   2.231  12.929
55987W        W15732  28.661  12.696   2.376
55988W        W15733  29.426   8.181   2.860
55989W        W15734  17.624  39.999  13.940
55990W        W15735  28.133  41.958   4.726
55991W        W15736  20.249  13.690  13.367
55992W        W15737  24.196  15.314   3.317
55993W        W15738  40.808  22.719  11.049
55994W        W15739  40.998   6.783   2.358
55995W        W15740  17.157  13.336   4.140
55996W        W15741  28.538  17.793   4.126
55997W        W15742  33.600   1.312  12.883
55998W        W15743  40.361  17.556  10.592
55999W        W15744  31.948  31.633   2.219
56000W        W15745  11.728  23.994   3.722
56001W        W15746  14.684  16.756   4.176
56002W        W15747  12.217   2.428  13.831
56003W        W15748  27.622   6.182   2.784
56004W        W15749  42.360  24.021   1.271
56005W        W15750  40.452  28.987   2.343
56006W        W15751  40.887  40.945   2.263
56007W        W15752   3.456   8.888   1.737
56008W        W15753  43.826  21.078   1.275
56009W        W15754  29.153   0.882   0.398
56010W        W15755  29.477   4.751   1.392
56011W        W15756  39.383  30.598   4.772
56012W        W15757  12.756  30.018  11.012
56013W        W15758  34.871   2.467  13.364
56014W        W15759   6.743   9.286   1.253
56015W        W15760  17.239  16.649   2.178
56016W        W15761  40.370  27.572   4.201
56017W        W15762  14.753  15.188   1.358
56018W        W15763  25.029  15.199   5.208
56019W        W15764   4.217  38.487   2.889
56020W        W15765  34.370  18.135   0.268
56021W        W15766  33.111  13.106  11.859
56022W        W15767   4.921  28.123   1.858
56023W        W15768  41.478  13.677  13.470
56024W        W15769   8.337   8.756   2.380
56025W        W15770  37.840  34.079   3.652
56026W        W15771  28.658   7.741  11.910
56027W        W15772  31.050  22.735  12.828
56028W        W15773  42.003   8.691   2.842
56029W        W15774  13.306  32.055  10.420
56030W        W15775  10.687  10.749   4.768
56031W        W15776  12.250  15.676   4.170
56032W        W15777  12.711  22.225  13.876
56033W        W15778  37.961   0.904  12.449
56034W        W15779  31.088   0.932   1.320
56035W        W15780  19.598  41.879   1.424
56036W        W15781  14.146  26.050  12.950
56037W        W15782  27.650  23.157   3.672
56038W        W15783  36.939  16.231   3.218
56039W        W15784   0.858  27.598  11.969
56040W        W15785   6.355  37.418  10.967
56041W        W15786  39.360  28.106  13.466
56042W        W15787  19.245  33.449   0.470
56043W        W15788   2.355  44.872   3.851
56044W        W15789  42.810  18.156  10.587
56045W        W15790  44.009  14.692  10.951
56046W        W15791  17.100   1.860   5.262
56047W        W15792   3.290  28.968  11.863
56048W        W15793  27.609  39.937  10.632
56049W        W15794   8.218  28.678  13.456
56050W        W15795   3.813  23.210  11.022
56051W        W15796  40.514   6.263   3.299
56052W        W15797  32.602  32.037  11.075
56053W        W15798  29.965  41.915  11.489
56054W        W15799  36.974  24.584  10.404
56055W        W15800  44.419  11.277  10.567
56056W        W15801  39.955   1.816   1.813
56057W        W15802  21.077  13.303   1.935
56058W        W15803  18.651  37.382   1.746
56059W        W15804   5.884  11.675   1.269
56060W        W15805  13.654  22.075   3.856
56061W        W15806  10.300  23.672  13.437
56062W        W15807  24.480  14.335  12.079
56063W        W15808  25.008  37.862   3.188
56064W        W15809  12.628  40.927  12.844
56065W        W15810  44.304  14.109   4.173
56066W        W15811  13.289   5.433   1.281
56067W        W15812   1.731   8.305   2.241
56068W        W15813  31.977   9.241   3.655
56069W        W15814  35.940  26.514  13.504
56070W        W15815  16.776   6.705  13.879
56071W        W15816  28.187  28.181  13.852
56072W        W15817  23.569   0.288  12.573
56073W        W15818  10.185  29.171  12.918
56074W        W15819  39.915  31.908   3.245
56075W        W15820   5.852  13.283  14.933
56076W        W15821  32.947  38.551   2.372
56077W        W15822  14.288   9.395  10.563
56078W        W15823  39.430  16.077  11.869
56079W        W15824  12.135  21.054   3.693
56080W        W15825  22.572  12.755   1.895
56081W        W15826  44.373  28.162  11.418
56082W        W15827  34.066  44.359   0.952
56083W        W15828  17.305  40.543   9.951
56084W        W15829  29.442  27.154  10.627
56085W        W15830  20.698  28.612   2.204
56086W        W15831  14.716  23.166  10.476
56087W        W15832   2.248  23.028   4.739
56088W        W15833  24.166  43.975   4.723
56089W        W15834  42.344  11.348   0.361
56090W        W15835  39.387  44.856  14.510
56091W        W15836  14.644  18.660  14.428
56092W        W15837  36.077  36.015   2.902
56093W        W15838  42.304  40.337   0.456
56094W        W15839  13.145  37.557  13.445
56095W        W15840  26.054  41.787  13.544
56096W        W15841  36.444  13.230  11.084
56097W        W15842   0.864  21.709   0.774
56098W        W15843  28.485  14.785   0.467
56099W        W15844  24.538   3.421   1.451
56100W        W15845  17.594  33.048   2.726
56101W        W15846  10.681  33.548  11.428
56102W        W15847  21.219  10.669   0.943
56103W        W15848  26.476  25.010   1.329
56104W        W15849   9.358  34.957   0.256
56105W        W15850   8.189  41.922   3.322
56106W        W15851  35.458   7.723  10.553
56107W        W15852   5.262  41.322  14.848
56108W        W15853  16.810  37.359   4.288
56109W        W15854   8.209  33.608  12.882
56110W        W15855  19.115   8.170   3.775
56111W        W15856   3.735  17.561  10.469
56112W        W15857  40.859  42.430  12.468
56113W        W15858  14.227  29.557   5.174
56114W        W15859  38.435  27.103   1.428
56115W        W15860  18.083   5.886   1.787
56116W        W15861  15.730  27.167  14.335
56117W        W15862  15.613  32.914  11.597
56118W        W15863  44.259  20.627   0.344
56119W        W15864  11.775  30.643   4.123
56120W        W15865  17.684   2.435   4.626
56121W        W15866  21.741  16.671  13.993
56122W        W15867  14.623   8.173  11.456
56123W        W15868  22.029  39.859   2.786
56124W        W15869  43.310  33.006  12.474
56125W        W15870  30.438  33.400  14.434
56126W        W15871  30.105  32.080  11.984
56127W        W15872  37.009  23.666   4.726
56128W        W15873  23.118   6.415  13.052
56129W        W15874   5.692   7.724   4.269
56130W        W15875  25.490  11.733  14.888
56131W        W15876  11.839  16.645   3.311
56132W        W15877  41.941  28.618  11.119
56133W        W15878  34.418  23.514  12.085
56134W        W15879  10.302  36.541  13.367
56135W        W15880  37.412   2.839  12.081
56136W        W15881  32.510  22.654  10.978
56137W        W15882  32.946  25.654  12.460
56138W        W15883  28.584   8.320  10.518
56139W        W15884  10.286  42.830  14.970
56140W        W15885  31.914   8.843   2.693
56141W        W15886  32.015  12.216  10.602
56142W        W15887   4.271  31.542   9.606
56143W        W15888   6.282   3.352   1.303
56144W        W15889   4.445  28.532  14.380
56145W        W15890  42.360   0.471   1.353
56146W        W15891  17.184  28.093   4.831
56147W        W15892  32.464  33.592  13.038
56148W        W15893  44.790  22.187  12.480
56149W        W15894  39.945  22.540  12.546
56150W        W15895  40.900  25.711  11.514
56151W        W15896   0.768   2.884   2.240
56152W        W15897  44.366  24.099  13.818
56153W        W15898  37.505  40.005  13.442
56154W        W15899  31.599  37.443   0.930
56155W        W15900   7.851  17.264  14.018
56156W        W15901  22.027  13.188  12.868
56157W        W15902  31.022  14.312  13.818
56158W        W15903  21.647  43.280   1.257
56159W        W15904  13.635  35.021   3.734
56160W        W15905  37.008  34.092   0.910
56161W        W15906  38.494  29.551   0.260
56162W        W15907  17.154  42.014   0.379
56163W        W15908  25.020   8.708   1.219
56164W        W15909  24.205  36.425  10.892
56165W        W15910   9.157   1.394   3.834
56166W        W15911  30.594   1.748   2.725
56167W        W15912  39.988  11.283   3.322
56168W        W15913   1.762  33.459   1.769
56169W        W15914  21.669  44.778   0.750
56170W        W15915  20.563  35.946   0.359
56171W        W15916   3.888  38.363  10.462
56172W        W15917  26.591   3.722   3.154
56173W        W15918  36.916  30.449  12.911
56174W        W15919   0.338  44.967  11.437
56175W        W15920  10.844  44.781  14.762
56176W        W15921  31.001  19.131   1.732
56177W        W15922   7.193   5.307   1.710
56178W        W15923  25.712  43.888  14.327
56179W        W15924  12.843  34.941   2.309
56180W        W15925   8.256  44.355   4.195
56181W        W15926  41.035   1.838   1.255
56182W        W15927   4.935   0.863  12.863
56183W        W15928  33.886  33.948   3.241
56184W        W15929  11.306   6.715  11.457
56185W        W15930  20.680  20.064   2.243
56186W        W15931  37.367  16.229  14.335
56187W        W15932  41.459  20.227   0.873
56188W        W15933  11.845  32.423   2.185
56189W        W15934  44.800  25.188   0.432
56190W        W15935  30.571  43.889   1.882
56191W        W15936  40.881   8.672  12.081
56192W        W15937  16.755  14.788  13.947
56193W        W15938   9.377  42.282   0.448
56194W        W15939  39.994   7.778   3.168
56195W        W15940   0.940   2.459  12.018
56196W        W15941  34.116  43.332   4.655
56197W        W15942   8.242  29.062   0.737
56198W        W15943  22.526  11.340   3.692
56199W        W15944  21.080  17.131   1.447
56200W        W15945  28.655  27.959  13.307
56201W        W15946  12.835  20.759   2.257
56202W        W15947  26.691   1.846   3.786
56203W        W15948  27.680  21.533  13.942
56204W        W15949  20.250  26.130   4.186
56205W        W15950  28.126  42.895  12.000
56206W        W15951  39.335   3.381   3.210
56207W        W15952  17.251  19.695   4.200
56208W        W15953  38.483  39.992   3.340
56209W        W15954  38.838  15.612  13.394
56210W        W15955  27.597   5.221  14.465
56211W        W15956  18.132  22.674  14.916
56212W        W15957  29.999  18.647   0.915
56213W        W15958  16.757  20.548  12.387
56214W        W15959  42.475  11.841  13.866
56215W        W15960   5.744  15.723  12.946
56216W        W15961  19.078  17.736  11.858
56217W        W15962  28.442   2.907   1.379
56218W        W15963  38.010  31.933  13.497
56219W        W15964  37.336   3.318   4.341
56220W        W15965   6.778  27.625  12.407
56221W        W15966  21.229  31.033   0.748
56222W        W15967  44.974   3.371  14.466
56223W        W15968   3.311   1.412   0.834
56224W        W15969  32.091   8.249  11.123
56225W        W15970   9.722  24.995   0.729
56226W        W15971  36.011   3.226   1.698
56227W        W15972  22.098   0.469   0.423
56228W        W15973   0.871  42.027   4.273
56229W        W15974   8.177  32.618   4.823
56230W        W15975  43.316  31.948  13.502
56231W        W15976   2.425  14.158  11.495
56232W        W15977   0.869  31.533  12.077
56233W        W15978  36.942  43.796   4.620
56234W        W15979  24.108  35.424  10.567
56235W        W15980  39.968   6.194   0.920
56236W        W15981  28.511  30.148  11.968
56237W        W15982  20.609  25.476   1.922
56238W        W15983  10.704  14.163   2.397
56239W        W15984   4.843   7.838  12.886
56240W        W15985  14.641   4.340   4.627
56241W        W15986  10.320   7.830  10.604
56242W        W15987   4.872  13.149  11.591
56243W        W15988   0.247  14.330   3.230
56244W        W15989  32.082  31.578  14.952
56245W        W15990  40.892  38.387   1.246
56246W        W15991  12.728  29.645   1.330
56247W        W15992   1.942  20.104   1.784
56248W        W15993   8.324  35.866   3.383
56249W        W15994  19.706  17.218  12.908
56250W        W15995   7.332  11.307  12.894
56251W        W15996  20.230  20.191  13.936
56252W        W15997  36.459  39.835  13.975
56253W        W15998  43.442  29.553   3.231
56254W        W15999  24.182  21.106   2.295
56255W        W16000  20.721   9.718  13.829
56256W        W16001  34.031  42.824   4.351
56257W        W16002  32.567  12.321   4.246
56258W        W16003  28.012  14.215   1.860
56259W        W16004  41.797  22.721   3.186
56260W        W16005  19.230   2.369  14.979
56261W        W16006  21.129  13.775  13.915
56262W        W16007  35.056  26.137  10.598
56263W        W16008  40.303  36.964  11.997
56264W        W16009   0.351  38.878   0.874
56265W        W16010   5.744  20.609  14.495
56266W        W16011  39.314  44.771   4.264
56267W        W16012  10.788  12.205  14.318
56268W        W16013  12.349   5.913  11.567
56269W        W16014  25.144   1.299   3.765
56270W        W16015  31.517   9.856   1.753
56271W        W16016  43.006  22.095  12.444
56272W        W16017  33.966   5.431   3.342
56273W        W16018   5.232  34.921   1.846
56274W        W16019  35.862  15.733  13.924
56275W        W16020  31.946  34.005  14.932
56276W        W16021  28.965  33.879   1.447
56277W        W16022  38.916  14.699   1.312
56278W        W16023  33.402  35.949   0.817
56279W        W16024  13.129   5.387   2.230
56280W        W16025  23.669  25.555  11.591
56281W        W16026  39.918   6.729  12.388
56282W        W16027  27.467   6.684   1.834
56283W        W16028  20.064  10.276   3.763
56284W        W16029  29.082  42.304   2.339
56285W        W16030  34.979   3.915   1.929
56286W        W16031  15.179  34.107  14.291
56287W        W16032  34.375   3.277   0.853
56288W        W16033   0.957  10.262  11.555
56289W        W16034  33.429  19.105  14.473
56290W        W16035  38.871  27.558  12.013
56291W        W16036  39.412  19.664   1.441
56292W        W16037  41.461   1.807  10.645
56293W        W16038   9.788  20.568   0.443
56294W        W16039  32.887  13.324   1.783
56295W        W16040  19.593  43.426  10.593
56296W        W16041  33.090  33.608   3.291
56297W        W16042   3.434  39.412   1.772
56298W        W16043   0.786  11.302   2.199
56299W        W16044  30.526  26.045  11.380
56300W        W16045   6.774  10.874   1.213
56301W        W16046  20.049  10.782   4.625
56302W        W16047  17.099  38.978   1.424
56303W        W16048  31.643  26.554  14.300
56304W        W16049  18.165  32.610   0.307
56305W        W16050  20.749  38.839  10.635
56306W        W16051  14.295  38.037  10.443
56307W        W16052  12.344   5.302  10.641
56308W        W16053   2.852  13.712  14.936
56309W        W16054   2.429  37.372  12.575
56310W        W16055  18.627  43.841   2.743
56311W        W16056  21.624  38.548  13.515
56312W        W16057  38.470   8.319   0.813
56313W        W16058  34.588  19.691  12.492
56314W        W16059  38.914  16.209  11.947
56315W        W16060  35.982  24.029   2.392
56316W        W16061  31.577  32.427   1.213
56317W        W16062  21.756  39.002  11.082
56318W        W16063  25.549  41.415   1.387
56319W        W16064  37.467  13.164   3.288
56320W        W16065   9.154  41.420  10.983
56321W        W16066  40.807  11.327  14.856
56322W        W16067  33.914   2.333  12.830
56323W        W16068  17.282   9.271  12.095
56324W        W16069  34.595  36.067   1.863
56325W        W16070  17.680  15.803  14.500
56326W        W16071  32.523   7.827  11.449
56327W        W16072  28.041  18.784  10.542
56328W        W16073  10.795  16.239   2.670
56329W        W16074  38.894  40.326   4.285
56330W        W16075  32.129   8.360   0.948
56331W        W16076  39.977  13.106   1.924
56332W        W16077  40.320  27.067  10.419
56333W        W16078  24.675  23.007   1.827
56334W        W16079  43.985  20.083   3.232
56335W        W16080  13.733  35.009   2.818
56336W        W16081  23.202  19.174   3.704
56337W        W16082  42.846   6.854   1.879
56338W        W16083  30.129  21.514   0.905
56339W        W16084   6.255  29.969  14.929
56340W        W16085  41.891  14.322   5.085
56341W        W16086  39.887  11.684   1.884
56342W        W16087  10.206  12.772   3.687
56343W        W16088   7.261  35.468  10.955
56344W        W16089  41.848  24.130  10.021
56345W        W16090   0.316  13.254   3.168
56346W        W16091  13.244   0.805  12.435
56347W        W16092  43.923   5.400  12.995
56348W        W16093  31.596   2.383   1.332
56349W        W16094   1.963   7.386   3.194
56350W        W16095  11.299   2.273  11.937
56351W        W16096  20.080  29.542   3.858
56352W        W16097   5.377   0.811   0.318
56353W        W16098   9.869  30.033  10.603
56354W        W16099  17.645  32.948   3.663
56355W        W16100  36.569   9.356   3.184
56356W        W16101  43.310   2.846   1.442
56357W        W16102  26.987  36.005  14.433
56358W        W16103  24.118   2.925   4.138
56359W        W16104   1.889  11.713  13.337
56360W        W16105  22.160  11.318   4.189
56361W        W16106  11.149   8.801   2.885
56362W        W16107  24.145  22.707   3.244
56363W        W16108  10.149   4.345   3.710
56364W        W16109  42.435  43.430  10.597
56365W        W16110  29.058   1.356   1.234
56366W        W16111  15.816  10.323   1.716
56367W        W16112  19.155   8.813   2.749
56368W        W16113  11.780  42.875  13.517
56369W        W16114  20.124  32.512   2.683
56370W        W16115  33.102  13.647  14.303
56371W        W16116  28.447  26.011  11.061
56372W        W16117  31.415  20.105  12.410
56373W        W16118  10.716  32.109   3.830
56374W        W16119  19.759  28.479  13.402
56375W        W16120   8.236  41.985   2.179
56376W        W16121  22.712  36.479   2.829
56377W        W16122   6.408  26.691   0.759
56378W        W16123  39.422   9.776  12.366
56379W        W16124  25.991  27.619  11.058
56380W        W16125  33.390  19.777   0.283
56381W        W16126  26.526  28.088  13.513
56382W        W16127   2.290   1.407   2.888
56383W        W16128  44.298  30.659   5.226
56384W        W16129  41.919  32.889   2.264
56385W        W16130  30.111  33.404  14.000
56386W        W16131   7.303  39.530   0.852
56387W        W16132  26.652   5.224   3.331
56388W        W16133  23.560   6.359  14.867
56389W        W16134  42.856  34.573  13.020
56390W        W16135   6.244  38.889  12.342
56391W        W16136  38.351  29.565  14.403
56392W        W16137  23.670  16.804  12.462
56393W        W16138  16.205  28.652  11.046
56394W        W16139   9.761  35.473  14.348
56395W        W16140  37.904  36.421   2.310
56396W        W16141   6.314  44.832   3.709
56397W        W16142  43.883  16.800   1.918
56398W        W16143  37.520  16.616  11.006
56399W        W16144  37.006  16.758  13.516
56400W        W16145  39.940   3.375  12.028
56401W        W16146   4.828  15.647   4.606
56402W        W16147   9.802  41.856  11.999
56403W        W16148  32.061  30.606   2.357
56404W        W16149  15.282  14.590   1.860
56405W        W16150   6.879  37.349   5.119
56406W        W16151  34.870  38.512  12.913
56407W        W16152   9.881  32.491  11.000
56408W        W16153  40.435  15.194  14.505
56409W        W16154   7.908  18.161   1.360
56410W        W16155  24.191  29.653   9.985
56411W        W16156  30.947   8.761  12.365
56412W        W16157  24.686   0.968   1.382
56413W        W16158   4.877  31.141  13.009
56414W        W16159  25.075  37.914  14.327
56415W        W16160  21.580  42.027  12.480
56416W        W16161  40.332  14.336  12.002
56417W        W16162  18.690  43.333  14.487
56418W        W16163  12.199  15.752  14.999
56419W        W16164  21.247  35.078  10.010
56420W        W16165  23.621   9.237   4.682
56421W        W16166  26.605   9.875  10.415
56422W        W16167   6.849  17.643  11.888
56423W        W16168  11.707  43.354   1.734
56424W        W16169  31.594  27.977  13.488
56425W        W16170  15.685  44.469   2.367
56426W        W16171  40.882  28.671   2.875
56427W        W16172  18.291  11.818   3.195
56428W        W16173  20.068  33.017  12.082
56429W        W16174  33.561  37.980   0.850
56430W        W16175  29.583  18.759   0.251
56431W        W16176  16.585   1.239   4.706
56432W        W16177  42.322  16.237  10.569
56433W        W16178  41.036   4.287   2.325
56434W        W16179  42.340  29.078  14.760
56435W        W16180  25.144  19.207  10.498
56436W        W16181  28.011   5.841   1.433
56437W        W16182  28.072  20.223   3.795
56438W        W16183   3.440  37.432   2.274
56439W        W16184  26.035  29.958  14.021
56440W        W16185  18.148   5.383   3.371
56441W        W16186  41.979   8.288  12.526
56442W        W16187  16.080  11.341   2.824
56443W        W16188  28.161  38.544   1.409
56444W        W16189   6.404   3.304  11.581
56445W        W16190  40.328  11.189  11.989
56446W        W16191  27.453   2.782  11.923
56447W        W16192   8.179  25.690  14.460
56448W        W16193  40.307   5.698   0.896
56449W        W16194  20.752  26.648  11.058
56450W        W16195  17.133  32.926  14.985
56451W        W16196  44.806  32.414   2.312
56452W        W16197  33.455  38.493   2.797
56453W        W16198  30.627  20.218  11.888
56454W        W16199  30.462  10.847  10.558
56455W        W16200   6.738  37.086   1.843
56456W        W16201  40.487  21.070   5.257
56457W        W16202  22.643  34.079  11.429
56458W        W16203   8.792  33.493  11.943
56459W        W16204  19.283  38.538   0.844
56460W        W16205  22.682  44.259   3.838
56461W        W16206  33.122  28.061   3.346
56462W        W16207   5.760  41.889  11.961
56463W        W16208   5.796   1.824   2.321
56464W        W16209   4.912  42.816   5.182
56465W        W16210  27.163  22.243  10.935
56466W        W16211  15.325  24.644   2.860
56467W        W16212  39.065  18.766  10.023
56468W        W16213  31.509  36.387   3.782
56469W        W16214  21.234  11.806   2.732
56470W        W16215  22.133  28.495  14.465
56471W        W16216   5.864  40.449  14.906
56472W        W16217  37.894  18.234   0.904
56473W        W16218   9.202  23.646  13.428
56474W        W16219  13.600   4.351   4.270
56475W        W16220  32.117  14.297  11.092
56476W        W16221  30.933  22.509   5.228
56477W        W16222  17.277  15.702  14.000
56478W        W16223   4.322   6.685  11.525
56479W        W16224  24.073  12.241  14.811
56480W        W16225  31.084  40.436   2.734
56481W        W16226   0.470  13.781  10.558
56482W        W16227  33.912   9.213   2.320
56483W        W16228   0.893  14.711  10.905
56484W        W16229   0.907  20.716  14.876
56485W        W16230  40.516  44.452  13.416
56486W        W16231  41.434  44.324  14.760
56487W        W16232  31.530  28.985  14.902
56488W        W16233   1.396  44.472  10.902
56489W        W16234  42.849  24.618   3.646
56490W        W16235  15.312   1.475  12.537
56491W        W16236  30.481   6.288   4.752
56492W        W16237  27.081  27.581  13.324
56493W        W16238  33.465  12.320   2.378
56494W        W16239   2.879  21.647   4.791
56495W        W16240  37.077   2.872   0.934
56496W        W16241  29.027  10.716  12.000
56497W        W16242   2.808  42.961   0.368
56498W        W16243  14.677  23.162  11.031
56499W        W16244  43.007  31.153   2.219
56500W        W16245  12.641  42.991  14.788
56501W        W16246  20.158  37.576   2.209
56502W        W16247  37.968  14.800   2.716
56503W        W16248   7.767  14.099   4.619
56504W        W16249   7.799  40.344  14.280
56505W        W16250  32.124   0.392  14.874
56506W        W16251  17.582   5.353  13.473
56507W        W16252  23.121  25.162   0.761
56508W        W16253  13.828  37.345  12.953
56509W        W16254   5.417  17.111   0.902
56510W        W16255  44.475  12.643   0.341
56511W        W16256  20.693  41.865  10.545
56512W        W16257  20.665  16.677  13.901
56513W        W16258   2.802  33.106   4.707
56514W        W16259  24.978  16.149  12.578
56515W        W16260  28.956  38.879   0.772
56516W        W16261   8.877   0.310   1.389
56517W        W16262  24.566  11.653   3.172
56518W        W16263  10.370  10.806  11.969
56519W        W16264  33.881  26.105  13.804
56520W        W16265  42.340  11.152   1.225
56521W        W16266  42.295  26.068  12.078
56522W        W16267  43.967  33.001  10.934
56523W        W16268  17.651  12.337  10.510
56524W        W16269   9.327  25.552  11.541
56525W        W16270  38.561  15.109   0.411
56526W        W16271  22.049  33.431   2.312
56527W        W16272  25.570  30.519  12.015
56528W        W16273  34.436  41.838  12.470
56529W        W16274  22.998  23.610  11.078
56530W        W16275  11.774  36.004  12.931
56531W        W16276  25.984  35.019   2.300
56532W        W16277  31.099  16.641  13.945
56533W        W16278  30.064  33.444  12.006
56534W        W16279   8.189   3.762   2.811
56535W        W16280   7.246   2.789  12.407
56536W        W16281  27.964  26.970  12.536
56537W        W16282   3.277  23.024  14.816
56538W        W16283   3.454  27.988   0.249
56539W        W16284   7.334  41.419   4.333
56540W        W16285  40.410   5.933  12.849
56541W        W16286  12.207  33.059  10.417
56542W        W16287  17.614  17.214   1.447
56543W        W16288  24.658  25.643   0.890
56544W        W16289  44.335  40.931  10.981
56545W        W16290   5.888  33.109  13.062
56546W        W16291  43.827  16.731  11.443
56547W        W16292  44.764  32.966  14.463
56548W        W16293  27.467  31.124   4.826
56549W        W16294  41.835  34.052  14.937
56550W        W16295  28.487  29.162  14.838
56551W        W16296  16.720  37.406  13.808
56552W        W16297  42.288  32.417  12.519
56553W        W16298  34.447  38.366  11.879
56554W        W16299   0.978  43.980   4.740
56555W        W16300   8.841  22.080  10.580
56556W        W16301  13.642   3.285   3.818
56557W        W16302  25.996   3.774   0.833
56558W        W16303  33.444  41.978   0.818
56559W        W16304  12.803  20.722   1.413
56560W        W16305  31.079  27.092   1.897
56561W        W16306   9.653  11.369  13.896
56562W        W16307  23.667   5.284  10.013
56563W        W16308  43.341  10.170  11.416
56564W        W16309  36.053  32.946   3.218
56565W        W16310   0.867  34.001   1.337
56566W        W16311  30.088  38.970   3.754
56567W        W16312  22.606  20.544   1.805
56568W        W16313   2.912  16.279   3.145
56569W        W16314  43.310  13.788   1.732
56570W        W16315  36.389  33.024  11.542
56571W        W16316  16.147   3.878   2.208
56572W        W16317  10.796  27.582  11.939
56573W        W16318   5.765   0.261   4.658
56574W        W16319   4.811  39.860  11.572
56575W        W16320  34.579  37.437   2.406
56576W        W16321  18.648  10.159  12.348
56577W        W16322  10.228  11.716   4.216
56578W        W16323  38.515   9.675  14.020
56579W        W16324  18.683  34.569   1.823
56580W        W16325  23.209  43.411   3.168
56581W        W16326   8.311  32.468  12.075
56582W        W16327  40.918   8.340  11.406
56583W        W16328  19.114  37.527  14.409
56584W        W16329   3.955  41.504  10.621
56585W        W16330  42.952  32.594   0.729
56586W        W16331   5.374  17.203  14.787
56587W        W16332  32.928   4.733  12.396
56588W        W16333  14.595  19.577   1.832
56589W        W16334  33.102  27.670  14.879
56590W        W16335  39.938  39.412   1.934
56591W        W16336  27.161  12.661   2.709
56592W        W16337  27.119  11.790   3.257
56593W        W16338  34.535   0.494  14.978
56594W        W16339  19.686  11.834   2.741
56595W        W16340  35.420  10.860  12.086
56596W        W16341   4.903  13.132  13.865
56597W        W16342  28.646   2.962  14.762
56598W        W16343   2.423  33.114   4.281
56599W        W16344  14.263  35.043   0.378
56600W        W16345   2.901  36.000   4.320
56601W        W16346  33.440  35.908  13.879
56602W        W16347  17.760  24.029   4.129
56603W        W16348  43.416   9.199  14.029
56604W        W16349  43.336   2.722  12.931
56605W        W16350  14.784  39.059  13.910
56606W        W16351  41.839  12.808  13.943
56607W        W16352  42.421   3.813  14.510
56608W        W16353  27.946  12.741   2.331
56609W        W16354  39.014  30.508  11.384
56610W        W16355  32.967  32.588  12.394
56611W        W16356  33.933  15.604   2.196
56612W        W16357  33.590   2.388  11.580
56613W        W16358  43.409  21.144  10.953
56614W        W16359   7.778   1.315   4.323
56615W        W16360  31.951  19.123   2.354
56616W        W16361  15.732  20.720  14.773
56617W        W16362  15.271  13.350  13.525
56618W        W16363  18.657  39.958   3.365
56619W        W16364   3.422   9.696  12.051
56620W        W16365  21.020  36.435   1.881
56621W        W16366  42.954  25.689  12.402
56622W        W16367  42.966  22.138  14.506
56623W        W16368  22.167  12.258  10.992
56624W        W16369  43.960  20.034   2.191
56625W        W16370  17.756  27.085  14.295
56626W        W16371  42.450  26.982   3.680
56627W        W16372  21.603  36.015   4.341
56628W        W16373  26.037  15.174   9.442
56629W        W16374  36.546  12.216  10.462
56630W        W16375  28.475   1.369  12.868
56631W        W16376  28.153  32.626  10.959
56632W        W16377  35.071  25.469  11.530
56633W        W16378  32.943  36.050  13.819
56634W        W16379  42.869  24.998  11.524
56635W        W16380  26.548  28.616   1.776
56636W        W16381  12.249  35.952  13.838
56637W        W16382   9.702  28.996  14.905
56638W        W16383  41.843  15.217   0.965
56639W        W16384  34.564  21.641   1.778
56640W        W16385   0.933  22.715   0.459
56641W        W16386  15.275  39.552  13.796
56642W        W16387  33.900  38.883   1.907
56643W        W16388   5.873  34.596  11.895
56644W        W16389   9.204  34.587   4.764
56645W        W16390  24.073  27.055  13.025
56646W        W16391  18.585  22.164   0.247
56647W        W16392  35.091  13.706   1.725
56648W        W16393  39.045  29.665   5.202
56649W        W16394   5.871   0.879  12.543
56650W        W16395  26.971  43.776   1.435
56651W        W16396  14.138  26.647  13.917
56652W        W16397   9.319  36.062  13.324
56653W        W16398  15.100  41.818   0.441
56654W        W16399  34.095   8.318   3.172
56655W        W16400  22.177  30.918  12.023
56656W        W16401  41.964   7.728   3.665
56657W        W16402  36.867  42.411  10.902
56658W        W16403  12.614  40.331  12.959
56659W        W16404  23.023  21.124   0.282
56660W        W16405  15.211  27.942   2.882
56661W        W16406  15.768  19.050  10.936
56662W        W16407  39.491  10.224   0.799
56663W        W16408  20.682  38.067  12.851
56664W        W16409  10.701  11.707  10.116
56665W        W16410  11.204  28.668  13.862
56666W        W16411  17.222  39.488  10.967
56667W        W16412  34.516  32.558   3.760
56668W        W16413  38.457  10.197  13.020
56669W        W16414  44.776  33.018  12.398
56670W        W16415  18.730  24.085   1.440
56671W        W16416  19.193  33.130  12.511
56672W        W16417  21.592  24.718  10.463
56673W        W16418  22.520  41.900  10.479
56674W        W16419  35.893   5.215   2.735
56675W        W16420  32.958  25.208  11.535
56676W        W16421  43.501  16.205  13.351
56677W        W16422  24.193  36.365   1.431
56678W        W16423   4.892  34.940  14.861
56679W        W16424  20.620  13.163   4.620
56680W        W16425  16.768  32.403   0.756
56681W        W16426  17.722  39.529   3.823
56682W        W16427  14.652  26.520   1.284
56683W        W16428  19.698  24.126   0.371
56684W        W16429  21.680  31.527  14.998
56685W        W16430  35.093   3.836   4.820
56686W        W16431   0.286  18.108  12.932
56687W        W16432  38.925  18.617  12.349
56688W        W16433  44.472  22.121   4.124
56689W        W16434  29.470  36.978  13.855
56690W        W16435   2.739  31.122  11.119
56691W        W16436  20.529  37.076   3.845
56692W        W16437   2.439   1.324  10.478
56693W        W16438  31.019  14.200   1.409
56694W        W16439  20.626  12.746  13.946
56695W        W16440  22.169  27.138   0.928
56696W        W16441  16.206   6.245   1.231
56697W        W16442  29.523  24.153   4.653
56698W        W16443  27.484  16.137   3.250
56699W        W16444  39.978  24.703  12.483
56700W        W16445  26.162  35.903   1.239
56701W        W16446  41.971  28.066  13.034
56702W        W16447  24.167  37.835   1.257
56703W        W16448   2.347  17.278   1.313
56704W        W16449  30.432  23.191  14.412
56705W        W16450  29.001  13.619   4.310
56706W        W16451  11.319  16.632   2.856
56707W        W16452   7.714  19.669  10.991
56708W        W16453   8.382  30.619   0.388
56709W        W16454  25.132  16.185   2.299
56710W        W16455  44.980  20.667   2.288
56711W        W16456   7.282  19.580  14.975
56712W        W16457   0.320  40.330  14.381
56713W        W16458  30.469  20.742   1.909
56714W        W16459  25.695   3.419   2.251
56715W        W16460  22.014  16.301   4.719
56716W        W16461  26.603   4.865   1.892
56717W        W16462  31.026   9.746  11.494
56718W        W16463   2.763  22.206   4.169
56719W        W16464  11.340  23.986  11.490
56720W        W16465   9.265  12.165  12.902
56721W        W16466  32.553  30.124   3.658
56722W        W16467  17.752  37.038   3.842
56723W        W16468  40.806  40.545  12.918
56724W        W16469  33.009  32.411  11.558
56725W        W16470   4.216  41.873  14.294
56726W        W16471  25.547  24.514  12.452
56727W        W16472  30.962  27.463   3.746
56728W        W16473  38.558   1.393   3.762
56729W        W16474   8.304  30.564  11.950
56730W        W16475   5.876  40.446   2.402
56731W        W16476  29.503   5.223   1.309
56732W        W16477  11.748  39.891  12.907
56733W        W16478  12.278  25.643   4.775
56734W        W16479   1.294  23.034   0.380
56735W        W16480  27.010  35.096   4.216
56736W        W16481  14.340   4.929  14.387
56737W        W16482  40.515  43.885  14.412
56738W        W16483  21.656  14.591   2.411
56739W        W16484  26.113  19.754  11.011
56740W        W16485  18.558  11.319   3.868
56741W        W16486   7.234   4.377   1.218
56742W        W16487  31.997  32.113   2.287
56743W        W16488   0.336  28.087   2.800
56744W        W16489  42.334  35.471   1.233
56745W        W16490  28.013  30.017   0.922
56746W        W16491  16.217   2.947   2.668
56747W        W16492  17.148   2.832   2.335
56748W        W16493   0.378  44.916  14.495
56749W        W16494  21.110  13.185  11.549
56750W        W16495   8.851   7.350   2.832
56751W        W16496  11.136  30.149  10.512
56752W        W16497   3.386  37.871   0.335
56753W        W16498  32.608  29.937  10.438
56754W        W16499  20.138  35.593   0.431
56755W        W16500  15.183  12.342  11.044
56756W        W16501  27.450   3.313  10.614
56757W        W16502  17.183  16.588  13.508
56758W        W16503  26.016  23.693  12.067
56759W        W16504   6.895  24.484  12.497
56760W        W16505  10.787  44.925  11.502
56761W        W16506  17.583  36.927   2.713
56762W        W16507  18.598  22.596   2.313
56763W        W16508  18.143  19.714  11.071
56764W        W16509  19.618  18.172   2.355
56765W        W16510  25.144  29.440  13.875
56766W        W16511  37.834   8.769   1.765
56767W        W16512  43.465  17.682  12.454
56768W        W16513  34.552  13.770  10.428
56769W        W16514   4.842  42.837   3.719
56770W        W16515  35.528  13.347   1.229
56771W        W16516   0.746  23.157   2.309
56772W        W16517  11.245  37.534  11.559
56773W        W16518  28.957  42.949   0.305
56774W        W16519  18.117   2.896  13.313
56775W        W16520  24.056  43.465   2.209
56776W        W16521  13.765  26.123   3.161
56777W        W16522  20.202  42.285  14.816
56778W        W16523  18.709  28.588   0.282
56779W        W16524  37.343  35.376  10.935
56780W        W16525   3.725  26.067  11.054
56781W        W16526   8.308  18.254  13.513
56782W        W16527  38.519  27.976  11.575
56783W        W16528  16.620  44.365   1.334
56784W        W16529  25.534  20.632   4.218
56785W        W16530   6.195  31.956  11.505
56786W        W16531  28.016  42.837  13.904
56787W        W16532  32.976  29.971  10.026
56788W        W16533  40.410  38.557   0.420
56789W        W16534   1.775  24.498   1.433
56790W        W16535  29.433   7.294   1.339
56791W        W16536  14.282  25.523   2.770
56792W        W16537  12.145   5.273  11.111
56793W        W16538  23.514  17.694   0.871
56794W        W16539  21.756  18.274   1.248
56795W        W16540  22.209   0.978   0.828
56796W        W16541  10.785  36.921  12.973
56797W        W16542   0.795  28.582  10.946
56798W        W16543  31.511  33.914   1.332
56799W        W16544  32.911  38.519  14.337
56800W        W16545  21.260  33.600  14.878
56801W        W16546  38.841   2.774  14.007
56802W        W16547  12.736  25.125   2.200
56803W        W16548  26.696  14.254  14.936
56804W        W16549  16.772   8.695   4.257
56805W        W16550  19.766  15.690   4.181
56806W        W16551  24.130  35.894   3.374
56807W        W16552  17.167  27.672  12.451
56808W        W16553  33.527  44.454   1.278
56809W        W16554  16.147  16.158   4.212
56810W        W16555   2.450  36.425  13.486
56811W        W16556  11.296  32.532   4.662
56812W        W16557  26.157  24.714  13.900
56813W        W16558  14.291  31.032  11.115
56814W        W16559   6.792  44.818   2.669
56815W        W16560  39.536  36.040  11.395
56816W        W16561  12.849  26.691  11.971
56817W        W16562  28.449  35.449   4.144
56818W        W16563  23.530  41.513   2.807
56819W        W16564   7.686   4.377  14.477
56820W        W16565  38.055  24.229   0.245
56821W        W16566  14.679   4.832   0.468
56822W        W16567  42.480  11.802  12.915
56823W        W16568  29.433  12.830   0.271
56824W        W16569  44.309  21.546  10.048
56825W        W16570   2.928   9.238  11.048
56826W        W16571  10.229  17.260   3.156
56827W        W16572   7.877  16.635   3.158
56828W        W16573  19.548  34.614  11.963
56829W        W16574  29.139  35.502  11.520
56830W        W16575   3.253  39.813   4.288
56831W        W16576  14.305   8.270   1.880
56832W        W16577  12.685  24.194  11.917
56833W        W16578  22.062   5.349   0.384
56834W        W16579  41.932  19.060   1.761
56835W        W16580  33.981   2.950  11.893
56836W        W16581   8.294  16.117   4.632
56837W        W16582  12.262  21.712  14.889
56838W        W16583   5.688  19.570   5.121
56839W        W16584  34.393  43.865   2.835
56840W        W16585  13.820  30.914  12.435
56841W        W16586  23.148  33.420   0.433
56842W        W16587  32.496  25.189  14.904
56843W        W16588  13.606   3.438  11.403
56844W        W16589  14.196   8.405  13.800
56845W        W16590  23.155   6.193   3.193
56846W        W16591  38.828   5.771   1.371
56847W        W16592  16.799  18.600  12.463
56848W        W16593  31.430   3.221   4.235
56849W        W16594   6.774  40.371   2.277
56850W        W16595  17.237  19.645   1.312
56851W        W16596   6.297  14.158  14.390
56852W        W16597   0.939  42.516   4.314
56853W        W16598   7.180  19.099  10.979
56854W        W16599  22.140  22.652  11.918
56855W        W16600  16.685  19.674   2.289
56856W        W16601   3.914  11.831  10.918
56857W        W16602   5.308  28.012  10.106
56858W        W16603  15.686  11.740   0.836
56859W        W16604  37.991   3.356   1.443
56860W        W16605  44.000  23.108   3.298
56861W        W16606  19.060  13.176   0.425
56862W        W16607  43.950  12.234  12.385
56863W        W16608  31.624  32.085   4.783
56864W        W16609   4.824  32.416   3.170
56865W        W16610  10.308  31.995  10.955
56866W        W16611   7.235   6.412   2.788
56867W        W16612  12.615  31.499  13.524
56868W        W16613  35.909   0.964  14.438
56869W        W16614  28.964   4.430   5.162
56870W        W16615  39.013   6.838  11.405
56871W        W16616  23.639  35.524  11.887
56872W        W16617  36.491  44.000   0.244
56873W        W16618  17.676  40.834   4.137
56874W        W16619  21.643  44.982   5.647
56875W        W16620  14.794  33.525   1.710
56876W        W16621  33.120  19.595   1.276
56877W        W16622   9.188  24.669  10.592
56878W        W16623  10.840  12.221   2.414
56879W        W16624  20.746  16.118   3.846
56880W        W16625  17.708  35.949  12.904
56881W        W16626  31.627   3.383  13.811
56882W        W16627   0.438  43.775   3.255
56883W        W16628  20.054   4.705   0.864
56884W        W16629  14.812  23.605  12.065
56885W        W16630   7.212  28.595  11.559
56886W        W16631  28.539  24.056  11.859
56887W        W16632  30.995  16.252  14.822
56888W        W16633  26.610  39.827  10.888
56889W        W16634   9.818   0.808  10.501
56890W        W16635  10.297   7.193  11.422
56891W        W16636  10.841  38.400  13.537
56892W        W16637   1.794  12.638   1.243
56893W        W16638   2.286  24.218  12.567
56894W        W16639  37.926  26.503   5.207
56895W        W16640  13.696  21.712  10.493
56896W        W16641  14.714   1.389   1.444
56897W        W16642  13.818  11.664  14.978
56898W        W16643  32.106  25.475   3.697
56899W        W16644  21.114   5.851   3.663
56900W        W16645  13.335  35.072  13.802
56901W        W16646   9.845  11.683  13.928
56902W        W16647   7.269   5.304  11.051
56903W        W16648  29.012  24.070  12.962
56904W        W16649  32.094  26.606   4.679
56905W        W16650   6.837   2.897   2.312
56906W        W16651  24.717  36.501   5.187
56907W        W16652  12.306  20.728   1.397
56908W        W16653  17.290  35.407  14.389
56909W        W16654  32.031   3.818  11.941
56910W        W16655  43.944  35.908   0.311
56911W        W16656  16.219  35.855  14.439
56912W        W16657  15.121  14.672   0.858
56913W        W16658   4.405  38.368  14.472
56914W        W16659  34.940   3.955   3.332
56915W        W16660   6.319  23.583   1.921
56916W        W16661  20.083  41.295   3.766
56917W        W16662  31.542  40.817   3.869
56918W        W16663  33.416  18.211  10.147
56919W        W16664  12.129  24.718  14.319
56920W        W16665   7.202  15.319  10.476
56921W        W16666  23.510  35.469   2.262
56922W        W16667  10.331  40.469   4.172
56923W        W16668   0.472  12.329  11.451
56924W        W16669  28.631  21.139   1.741
56925W        W16670  37.555  27.687  10.587
56926W        W16671  39.497   0.744  10.513
56927W        W16672  44.888   7.688  11.502
56928W        W16673   7.363  39.389  10.463
56929W        W16674  15.765   4.282  13.344
56930W        W16675  35.465  17.698  12.385
56931W        W16676   5.715  22.074  13.924
56932W        W16677   0.968  37.040   4.325
56933W        W16678  29.061   8.861   0.852
56934W        W16679  37.451  10.305  13.794
56935W        W16680  18.600   4.407  13.339
56936W        W16681  24.630   6.208  11.118
56937W        W16682   8.819   6.851  13.373
56938W        W16683  34.534   2.924   4.167
56939W        W16684   1.821  38.537  14.372
56940W        W16685  26.038  19.220   2.823
56941W        W16686   8.402  15.801   4.231
56942W        W16687   5.322   4.263   1.793
56943W        W16688  28.575  27.641   0.835
56944W        W16689  44.961   6.324   2.356
56945W        W16690  35.866  15.197   3.849
56946W        W16691  13.252  34.497   5.624
56947W        W16692  43.987  41.397   3.757
56948W        W16693  11.263  14.785   0.473
56949W        W16694  14.733  22.197  13.948
56950W        W16695  26.997  12.295  10.929
56951W        W16696   8.384  26.645  10.407
56952W        W16697  44.814   5.820   0.464
56953W        W16698  32.978  36.514   3.640
56954W        W16699  19.155  39.355  10.913
56955W        W16700  39.967  22.722   4.776
56956W        W16701   7.263   9.364   0.368
56957W        W16702  33.416  21.083   5.152
56958W        W16703  24.206  36.423  11.546
56959W        W16704  14.671  39.428   0.290
56960W        W16705  37.904   0.368  14.865
56961W        W16706  36.590  32.500  14.282
56962W        W16707   7.909  18.105  13.040
56963W        W16708  16.616  35.913  10.968
56964W        W16709  43.003   7.726  13.887
56965W        W16710  35.899   3.400  10.515
56966W        W16711  23.156  20.163   2.239
56967W        W16712  36.457  21.227  12.445
56968W        W16713  42.876  42.313   1.908
56969W        W16714  32.583  20.717  11.449
56970W        W16715  40.015   4.918   3.687
56971W        W16716  10.656  18.709   3.146
56972W        W16717   0.325  43.453   1.324
56973W        W16718  12.782  13.650  11.910
56974W        W16719  41.349  41.411   0.258
56975W        W16720  39.014   3.221   3.771
56976W        W16721  30.475  38.920  11.113
56977W        W16722  26.584  22.182   2.249
56978W        W16723  14.643  25.692  11.944
56979W        W16724  33.913   7.742  14.304
56980W        W16725  21.192   4.207   9.602
56981W        W16726   4.799   0.382  11.055
56982W        W16727  43.780  35.405   3.699
56983W        W16728   0.313  12.283   4.629
56984W        W16729  31.423  20.135   1.333
56985W        W16730  30.594  14.640  11.534
56986W        W16731  28.967  40.017   4.814
56987W        W16732  17.590  34.370   2.703
56988W        W16733  10.238  14.818   0.250
56989W        W16734   3.798  31.621   4.782
56990W        W16735  28.153   4.317  13.495
56991W        W16736  37.955   3.434  14.873
56992W        W16737  32.527   5.929  10.465
56993W        W16738  18.741  37.846  10.907
56994W        W16739   5.862  34.919   3.200
56995W        W16740  17.567  17.733  13.987
56996W        W16741  38.980  11.154   1.734
56997W        W16742   2.229  12.209  11.969
56998W        W16743   4.775   0.924   0.459
56999W        W16744  30.039  43.377   3.154
57000W        W16745  20.577  24.639  10.522
57001W        W16746  41.368   6.287  14.385
57002W        W16747   4.701   7.712  10.489
57003W        W16748   6.678  35.108  10.907
57004W        W16749  19.112  16.689  14.369
57005W        W16750  20.122  31.971  11.456
57006W        W16751  13.817  36.875   2.824
57007W        W16752  43.328   6.302  10.140
57008W        W16753  30.540  38.041  10.404
57009W        W16754  27.977  18.138   1.908
57010W        W16755  36.011  31.625  13.433
57011W        W16756  11.786  30.633   3.715
57012W        W16757  35.094  19.660  14.385
57013W        W16758   9.872  35.504  12.002
57014W        W16759  25.048  41.943   3.218
57015W        W16760   6.421   4.939  13.961
57016W        W16761  37.973  13.707   4.127
57017W        W16762  27.006   7.412  13.908
57018W        W16763  39.933  23.172  12.036
57019W        W16764  31.477   9.811  14.361
57020W        W16765  24.126  31.424   2.832
57021W        W16766   3.222  41.935  12.416
57022W        W16767  43.291  12.199  11.890
57023W        W16768  16.646  29.660  12.356
57024W        W16769  21.609  22.067   4.263
57025W        W16770  15.097  15.682   0.302
57026W        W16771  31.545  24.200  14.356
57027W        W16772   2.297   7.721   0.465
57028W        W16773  31.939  23.584  13.334
57029W        W16774  44.794  34.030  11.608
57030W        W16775  44.870  25.200  14.013
57031W        W16776  23.676  11.355   2.775
57032W        W16777  40.358  43.277  14.990
57033W        W16778  28.963  17.223  12.511
57034W        W16779   3.329  38.419  11.908
57035W        W16780   1.842   7.783   4.123
57036W        W16781  33.403  16.081  14.853
57037W        W16782  24.647   4.715  12.562
57038W        W16783  28.183  12.272   0.739
57039W        W16784  35.976   0.917   3.782
57040W        W16785  12.239  41.924   2.203
57041W        W16786   3.913  24.105  13.884
57042W        W16787  30.631  35.554   2.825
57043W        W16788  20.036  16.685  11.576
57044W        W16789   0.294  30.067   2.710
57045W        W16790  35.433  40.458  14.340
57046W        W16791  10.342  26.457   1.933
57047W        W16792   7.911  26.588   4.733
57048W        W16793   6.211  14.301   1.825
57049W        W16794  34.074  30.610  13.392
57050W        W16795  11.277  27.116   3.382
57051W        W16796  43.275  15.102   3.315
57052W        W16797  29.626  40.348  13.854
57053W        W16798   1.866  31.437   4.276
57054W        W16799  11.283  21.668   2.692
57055W        W16800  19.208  33.425   4.271
57056W        W16801  26.159  23.039  14.420
57057W        W16802  19.264  18.763   1.230
57058W        W16803  40.397   4.882   2.750
57059W        W16804  43.445  18.744  14.806
57060W        W16805   5.778  35.049  10.504
57061W        W16806  21.213   4.702   4.147
57062W        W16807   3.377  22.679   2.744
57063W        W16808  15.581  30.502  14.830
57064W        W16809  28.966   1.258   2.181
57065W        W16810  30.929  30.018  13.488
57066W        W16811  44.375  24.487  12.565
57067W        W16812   1.300  33.923   2.292
57068W        W16813   4.923  23.158   4.778
57069W        W16814  16.163   5.840   2.289
57070W        W16815   4.761   2.921  13.057
57071W        W16816  29.160  43.483  11.447
57072W        W16817   9.754   8.316   2.317
57073W        W16818  31.521   3.897   5.146
57074W        W16819  35.011  15.651   2.797
57075W        W16820  27.631  40.054  11.933
57076W        W16821  24.131  42.789   9.936
57077W        W16822   0.946  38.557   0.873
57078W        W16823   2.874  31.547  13.548
57079W        W16824   3.818  37.578  11.433
57080W        W16825   8.348  33.019  13.341
57081W        W16826  37.516  16.121   2.257
57082W        W16827  43.346  21.739   2.694
57083W        W16828  32.402   7.823  10.938
57084W        W16829   6.773  26.510   4.724
57085W        W16830  32.596   1.851  14.844
57086W        W16831  10.288  28.584   3.364
57087W        W16832  10.637   0.383  12.568
57088W        W16833  32.482  27.550  14.794
57089W        W16834  42.371  34.974   4.601
57090W        W16835   3.377  36.499   1.412
57091W        W16836   4.288  17.124   4.115
57092W        W16837  37.547  35.415   2.311
57093W        W16838  43.883  31.958  12.964
57094W        W16839  40.852  18.578  14.830
57095W        W16840  28.020  13.234   4.700
57096W        W16841  28.073  16.289  12.383
57097W        W16842  32.085  16.102  12.374
57098W        W16843  15.262  17.631   2.215
57099W        W16844  44.899  26.155   2.788
57100W        W16845  14.739  39.041   0.426
57101W        W16846  39.530  22.577   4.630
57102W        W16847  18.127  38.346   4.282
57103W        W16848  34.419  17.658  14.457
57104W        W16849  13.224  35.446  14.011
57105W        W16850  42.913  42.833  13.931
57106W        W16851   2.284  38.423  12.367
57107W        W16852  38.521  28.582   4.817
57108W        W16853  41.852  13.679   2.761
57109W        W16854  25.559  17.245  12.030
57110W        W16855   0.965  25.992   2.401
57111W        W16856  27.988  29.512   5.185
57112W        W16857  35.094  22.675   0.771
57113W        W16858  14.102  35.940   0.836
57114W        W16859  36.369  24.037  12.476
57115W        W16860   4.376  36.551  12.403
57116W        W16861   9.317  40.397   4.205
57117W        W16862  31.483  15.167   0.455
57118W        W16863  27.108  20.562  12.576
57119W        W16864  42.783  27.944   0.337
57120W        W16865   3.285  27.157   3.256
57121W        W16866  19.777  16.697   2.419
57122W        W16867  37.347   6.326   0.846
57123W        W16868  12.727  10.248  12.487
57124W        W16869  17.567  32.986  11.587
57125W        W16870  21.066   5.211  12.409
57126W        W16871  10.720  38.994   0.447
57127W        W16872   3.402  16.283  12.017
57128W        W16873  13.828  25.000   0.347
57129W        W16874  29.457  30.948   3.218
57130W        W16875  29.033   3.724   9.983
57131W        W16876  40.514   1.840  10.550
57132W        W16877  26.123   5.806  11.102
57133W        W16878  19.235  25.176  10.602
57134W        W16879   6.372  23.530  12.991
57135W        W16880   6.716  28.552   3.822
57136W        W16881  12.330  30.472  13.370
57137W        W16882  35.589  38.383   4.115
57138W        W16883  14.675  42.778   3.759
57139W        W16884   3.391  43.356   3.757
57140W        W16885  37.006   5.826   4.773
57141W        W16886  23.042  34.948  11.418
57142W        W16887   6.719  29.097  11.964
57143W        W16888   5.730  12.160  12.551
57144W        W16889  39.504  12.193   4.285
57145W        W16890  15.592   9.190   5.218
57146W        W16891  36.943  41.804  11.494
57147W        W16892  13.335  10.680  14.836
57148W        W16893  25.680  37.974  14.858
57149W        W16894  43.422  43.271   1.856
57150W        W16895   3.447  10.812  10.609
57151W        W16896  26.179  35.098  12.872
57152W        W16897  30.125   8.872   0.294
57153W        W16898  33.522  31.560   3.781
57154W        W16899  38.032  36.977  11.015
57155W        W16900  32.437   3.917   2.838
57156W        W16901  43.305  36.853   9.957
57157W        W16902   7.880  33.501  10.583
57158W        W16903  34.992  25.647   4.710
57159W        W16904   3.451   4.885  11.893
57160W        W16905  39.947  39.390   2.358
57161W        W16906  13.338   3.416  14.356
57162W        W16907  13.324  31.532  10.484
57163W        W16908  44.360  26.190  11.895
57164W        W16909   1.313  15.661  10.917
57165W        W16910  17.305  30.621   1.869
57166W        W16911  27.192   8.691  11.560
57167W        W16912   1.411  14.259   0.764
57168W        W16913  31.476   5.917  13.971
57169W        W16914  41.825  39.016  10.942
57170W        W16915  13.678  38.038   3.770
57171W        W16916  19.090  29.436   2.846
57172W        W16917   3.270   0.876   1.880
57173W        W16918   6.831  38.525  11.388
57174W        W16919  27.144  30.649   2.227
57175W        W16920  33.056  44.407  11.424
57176W        W16921  42.491   0.776  10.532
57177W        W16922  16.134  42.933   0.375
57178W        W16923  23.018  23.614  11.972
57179W        W16924  17.761  18.234  14.965
57180W        W16925  28.541  11.788  12.414
57181W        W16926  17.207  20.569  11.428
57182W        W16927  23.067  32.523   0.388
57183W        W16928  16.080  11.197  12.983
57184W        W16929  27.186  22.688   3.753
57185W        W16930  16.136  22.680  10.600
57186W        W16931  13.629  34.530  13.047
57187W        W16932  41.532  31.956   2.841
57188W        W16933  39.542  39.435   3.378
57189W        W16934  31.035  29.002   0.783
57190W        W16935  44.488  23.146   3.331
57191W        W16936  37.363  14.317   4.767
57192W        W16937  17.102   1.413  12.579
57193W        W16938  17.170  29.163   2.890
57194W        W16939  26.204  21.098   2.790
57195W        W16940  39.480   3.420   1.832
57196W        W16941   8.213  15.227  14.407
57197W        W16942  33.100  39.507  10.629
57198W        W16943   0.494  31.487   0.309
57199W        W16944   0.974  23.542  12.571
57200W        W16945  31.919   6.836   1.377
57201W        W16946  26.954  16.279  14.779
57202W        W16947  36.423  30.570   0.861
57203W        W16948   6.712  20.621   3.834
57204W        W16949  28.061  19.217  13.935
57205W        W16950  27.030   4.257   2.807
57206W        W16951  41.850  18.058  12.472
57207W        W16952   4.792  42.427  10.478
57208W        W16953  25.468   9.247  11.115
57209W        W16954   0.320  28.093   0.442
57210W        W16955  23.507   9.233  10.534
57211W        W16956  40.336  42.440   3.221
57212W        W16957  15.809  39.332  12.880
57213W        W16958  16.091   9.286  11.858
57214W        W16959  10.833  22.100  13.917
57215W        W16960  40.867  38.536  12.898
57216W        W16961  11.260  30.922   0.478
57217W        W16962  27.077   5.233  13.809
57218W        W16963  13.340  10.673   4.196
57219W        W16964  36.455   8.188  13.424
57220W        W16965   9.175  39.560  11.038
57221W        W16966  43.020  20.247  10.530
57222W        W16967  42.434  24.079   1.882
57223W        W16968  31.975  37.436  12.070
57224W        W16969   2.433  17.645   0.318
57225W        W16970  18.643   2.768   1.228
57226W        W16971   9.328  26.468   0.253
57227W        W16972  36.540  15.759  13.020
57228W        W16973  38.942  38.369  12.503
57229W        W16974  20.064  21.708   2.180
57230W        W16975   5.290  26.469   2.310
57231W        W16976  26.203  30.991  10.514
57232W        W16977   5.288   8.720  13.499
57233W        W16978  39.827  26.564   1.402
57234W        W16979  27.447  13.807  10.533
57235W        W16980  40.342  42.392  14.491
57236W        W16981  34.588  27.446  12.462
57237W        W16982  15.112  23.985  12.551
57238W        W16983   9.256  33.589  13.994
57239W        W16984  14.158  16.258   0.870
57240W        W16985  31.142  27.129   3.231
57241W        W16986   6.247  40.362  13.920
57242W        W16987   7.243  16.183  12.472
57243W        W16988   8.306  37.049   2.682
57244W        W16989  36.548   6.213   1.710
57245W        W16990  10.155  30.502  10.459
57246W        W16991   7.335   2.343   2.271
57247W        W16992  14.779   2.898  10.427
57248W        W16993  15.160   5.930  12.084
57249W        W16994  31.463  37.932  11.612
57250W        W16995  39.926  39.992   2.796
57251W        W16996  21.076   4.288   2.372
57252W        W16997  13.255  27.596   0.793
57253W        W16998  43.939   0.926  12.866
57254W        W16999   7.878  31.645  14.443
57255W        W17000  19.281  37.394   0.470
57256W        W17001  26.587  27.047   4.631
57257W        W17002   4.700   7.899  13.362
57258W        W17003  35.484  36.890  14.024
57259W        W17004  18.109   0.440  12.966
57260W        W17005  10.137   3.221   2.220
57261W        W17006  33.518   3.827  10.505
57262W        W17007   5.373   7.676  12.921
57263W        W17008  17.617  33.466   0.780
57264W        W17009   6.351  22.057  10.595
57265W        W17010   7.370  44.290  13.315
57266W        W17011  32.068  44.872  14.917
57267W        W17012   5.919   5.350  11.006
57268W        W17013   3.752  14.134  14.762
57269W        W17014  15.297  10.231   2.300
57270W        W17015   0.756   0.358   4.140
57271W        W17016  37.532  23.494  12.985
57272W        W17017  24.622  43.507  11.503
57273W        W17018   3.924  44.505  10.906
57274W        W17019  42.335  11.199  10.607
57275W        W17020  39.060   5.800   3.312
57276W        W17021  38.021  16.089   0.924
57277W        W17022   2.365  37.565  13.907
57278W        W17023  10.168  16.152  12.077
57279W        W17024  16.114   7.411   5.252
57280W        W17025  33.058   6.692  11.527
57281W        W17026  28.664  30.573   1.724
57282W        W17027  30.066  17.283   2.889
57283W        W17028  25.101  22.721   4.352
57284W        W17029  13.756   6.186   1.309
57285W        W17030   2.467  35.983   4.346
57286W        W17031   5.841   2.751   1.347
57287W        W17032  44.001  20.182   9.617
57288W        W17033  39.362  44.913   2.408
57289W        W17034  41.808  40.967   2.791
57290W        W17035  44.399   8.405   1.926
57291W        W17036  42.326  14.186   4.132
57292W        W17037  25.682   1.970   0.927
57293W        W17038   2.415   4.857   2.673
57294W        W17039   1.314  16.656  10.932
57295W        W17040  18.083  12.196  13.039
57296W        W17041   6.321   2.251   4.822
57297W        W17042  40.322  24.598   3.240
57298W        W17043  33.012  33.019   1.916
57299W        W17044  33.983  37.543  14.341
57300W        W17045  26.182  22.081  14.347
57301W        W17046   7.734  39.983  13.009
57302W        W17047  10.146  25.033  13.920
57303W        W17048  19.605  12.765  14.812
57304W        W17049  32.473   9.701  12.359
57305W        W17050   3.231  21.597  14.360
57306W        W17051   4.792  39.512   4.299
57307W        W17052  25.039   2.298  12.013
57308W        W17053  22.132  42.401   4.685
57309W        W17054  44.354  20.585  11.031
57310W        W17055  32.557  36.874   0.408
57311W        W17056  40.914  21.171  11.502
57312W        W17057  20.157  21.677  11.558
57313W        W17058  34.917  30.928   1.291
57314W        W17059  19.658  34.081  12.946
57315W        W17060  24.002  30.079  10.585
57316W        W17061  15.740   9.743  10.602
57317W        W17062   5.421  19.622   0.732
57318W        W17063  11.238  13.697  13.379
57319W        W17064  26.550  43.280  12.851
57320W        W17065  36.490  29.114   0.371
57321W        W17066  25.639   0.322   3.768
57322W        W17067  27.648  38.859   1.819
57323W        W17068  43.885   4.437  14.951
57324W        W17069   7.396   0.846   4.804
57325W        W17070   8.399  10.832  10.447
57326W        W17071   0.904  13.699  13.518
57327W        W17072  28.503  31.534  12.499
57328W        W17073  44.841  40.546  14.481
57329W        W17074   6.853  32.078  11.392
57330W        W17075   2.437  28.618   4.160
57331W        W17076  12.356  29.608  13.538
57332W        W17077  11.806  36.348   3.326
57333W        W17078  37.952  16.600   3.830
57334W        W17079  18.697  24.990  13.809
57335W        W17080   2.338  34.078   0.955
57336W        W17081  19.275   8.378  12.884
57337W        W17082  17.162  14.158   3.244
57338W        W17083  23.231   4.869   0.908
57339W        W17084   6.304  37.562  10.003
57340W        W17085   9.180  30.633   2.681
57341W        W17086  34.538  20.545   2.178
57342W        W17087  35.569  25.664  10.963
57343W        W17088  12.680  43.294   0.310
57344W        W17089   3.442  40.890  14.009
57345W        W17090   2.406  30.518   2.227
57346W        W17091   0.759  40.463  12.498
57347W        W17092  38.444  30.155   1.231
57348W        W17093  22.173  15.794   2.192
57349W        W17094  18.213  18.555   0.369
57350W        W17095  29.971  32.929   2.374
57351W        W17096  18.186  32.408   2.700
57352W        W17097  35.522  29.078  12.041
57353W        W17098   1.463   3.403  14.364
57354W        W17099  38.422  35.554   4.201
57355W        W17100   8.352  16.087   2.257
57356W        W17101  43.292  32.124   1.264
57357W        W17102  25.700  10.257   3.821
57358W        W17103  42.323  33.526  12.933
57359W        W17104  35.570  36.066  13.395
57360W        W17105  21.054  17.619   2.314
57361W        W17106  39.368  37.533   3.172
57362W        W17107  32.583   9.660  11.495
57363W        W17108  13.601  23.701   1.336
57364W        W17109   6.342  32.537  10.500
57365W        W17110  39.545  34.442  14.318
57366W        W17111  26.543   5.738  10.524
57367W        W17112  42.386   0.966   1.419
57368W        W17113   4.704   4.700  13.869
57369W        W17114  30.472  11.158   0.737
57370W        W17115  21.619   5.370   1.357
57371W        W17116  36.007   8.691  11.065
57372W        W17117  27.999  36.989  10.608
57373W        W17118  10.640  32.963   1.807
57374W        W17119  23.643   8.771   2.867
57375W        W17120  13.260   2.890   2.250
57376W        W17121  44.388  19.654  14.796
57377W        W17122   8.279  30.423   1.753
57378W        W17123  13.146  14.285   1.715
57379W        W17124  39.330   1.817   4.266
57380W        W17125  23.200  25.103  11.542
57381W        W17126  36.358  37.566  10.150
57382W        W17127  37.416  39.844   4.670
57383W        W17128  41.819  21.135  12.520
57384W        W17129  34.569  16.129  14.295
57385W        W17130  44.849   3.345  11.076
57386W        W17131  42.008  32.591  11.045
57387W        W17132  12.813   7.681   4.120
57388W        W17133  30.107  38.343   3.678
57389W        W17134  33.488  13.820   2.394
57390W        W17135  27.475  30.594  12.403
57391W        W17136  27.605   4.847  11.496
57392W        W17137   0.312  20.759   1.863
57393W        W17138  38.932  30.606  12.511
57394W        W17139   8.255  21.060   3.155
57395W        W17140  23.117  27.073  12.826
57396W        W17141  31.149  27.644   0.300
57397W        W17142  28.618  15.224  13.462
57398W        W17143  14.639  29.579  12.073
57399W        W17144   7.194  18.742   1.913
57400W        W17145  40.454  15.677  14.412
57401W        W17146   9.696  34.601  11.097
57402W        W17147  32.123   3.748   1.730
57403W        W17148  42.810  25.049   5.087
57404W        W17149   2.842  33.381  14.876
57405W        W17150  15.696   3.381  10.494
57406W        W17151   5.771  12.845   1.367
57407W        W17152  11.833  22.745   0.314
57408W        W17153  37.949   5.265  14.458
57409W        W17154  15.263  12.758  12.397
57410W        W17155  21.552   1.798   4.348
57411W        W17156   2.314  44.953   0.900
57412W        W17157  22.598  28.041   4.329
57413W        W17158  40.806   6.828  14.008
57414W        W17159   1.897   2.374  10.936
57415W        W17160  32.550  23.504  13.458
57416W        W17161  29.095  16.232  14.920
57417W        W17162  22.526  44.453   0.925
57418W        W17163  30.957   3.327  13.351
57419W        W17164  14.292  38.446  14.979
57420W        W17165  22.671  29.170   2.214
57421W        W17166  21.723  12.143   1.261
57422W        W17167  11.641  29.440  10.404
57423W        W17168  25.503  22.037  13.461
57424W        W17169   3.859  15.249  13.391
57425W        W17170  36.980  40.050  11.894
57426W        W17171   6.286  16.302   1.702
57427W        W17172  16.301  26.580   2.675
57428W        W17173  18.116  19.177   1.893
57429W        W17174  11.325  15.224  11.917
57430W        W17175  36.475   7.775  11.470
57431W        W17176  35.934  23.172  13.846
57432W        W17177  43.798  33.477  12.957
57433W        W17178  41.372  44.968   3.366
57434W        W17179  25.491  30.434  14.510
57435W        W17180  14.730  21.556  13.979
57436W        W17181  29.584  18.279   3.210
57437W        W17182  25.654  38.919  12.949
57438W        W17183   6.768  43.933  13.805
57439W        W17184  15.226  32.545   2.419
57440W        W17185  42.998   5.908  11.857
57441W        W17186  16.578  32.490  14.951
57442W        W17187  39.916  36.435  13.363
57443W        W17188  40.798   2.818  14.954
57444W        W17189  26.555   8.218  11.963
57445W        W17190  36.576   7.283  11.950
57446W        W17191  17.591   4.203  11.529
57447W        W17192  44.856  44.781   3.822
57448W        W17193  25.585  27.136   1.408
57449W        W17194   0.255  31.613  14.858
57450W        W17195   8.752  21.092  10.531
57451W        W17196  41.439  17.561  11.117
57452W        W17197  27.537  21.652  10.542
57453W        W17198  17.651  21.685  12.085
57454W        W17199  24.572  34.038  13.856
57455W        W17200  24.206  43.484   3.661
57456W        W17201  40.381   5.688  14.404
57457W        W17202  29.918  17.194   0.300
57458W        W17203  30.501  35.396   1.892
57459W        W17204  36.510  24.706  14.395
57460W        W17205  38.056  11.211  13.888
57461W        W17206  42.857  25.114  14.401
57462W        W17207  37.869  25.166   2.691
57463W        W17208   0.958  40.491  14.459
57464W        W17209  42.965  39.004  12.562
57465W        W17210  14.249  10.303   0.444
57466W        W17211   6.757   8.327  14.916
57467W        W17212  27.945  36.487  10.523
57468W        W17213  34.575  37.463  11.534
57469W        W17214   5.695   3.738  10.994
57470W        W17215  13.720  40.847  13.488
57471W        W17216  20.524  43.430   1.257
57472W        W17217   6.227  41.827  13.493
57473W        W17218  20.164  29.119   0.459
57474W        W17219  38.421   3.276  12.422
57475W        W17220  26.145   8.658   4.225
57476W        W17221  19.570   7.841  11.042
57477W        W17222  26.588   5.265   2.789
57478W        W17223  40.347   6.200   2.385
57479W        W17224  14.288   8.171  11.997
57480W        W17225  19.082  44.845   3.662
57481W        W17226  42.313  18.662   0.251
57482W        W17227  28.476  14.750   3.163
57483W        W17228  30.908  44.896  10.910
57484W        W17229  24.499  25.657   1.872
57485W        W17230  11.736  27.452   4.220
57486W        W17231  30.440  26.991   2.237
57487W        W17232  13.804  20.756   4.322
57488W        W17233  33.382  23.141  13.918
57489W        W17234  25.004   6.915  11.466
57490W        W17235  18.132   5.848  13.400
57491W        W17236  24.116   9.753  11.048
57492W        W17237   5.308  26.672  13.062
57493W        W17238   5.846  30.007   1.727
57494W        W17239  10.234   6.403  14.023
57495W        W17240  29.501  20.548  13.851
57496W        W17241  14.729  42.320  11.485
57497W        W17242  27.688  44.907  14.976
57498W        W17243   7.229  22.507   4.337
57499W        W17244  21.101   3.349   4.728
57500W        W17245  29.555  18.070   0.392
57501W        W17246   3.401  44.325   0.748
57502W        W17247  32.434  27.948  12.343
57503W        W17248   3.862   4.870  14.282
57504W        W17249  23.705  30.000   3.837
57505W        W17250  43.493  19.534  12.362
57506W        W17251   8.855  33.389   2.866
57507W        W17252  24.606  12.152   1.783
57508W        W17253  14.167   1.861   1.450
57509W        W17254  37.462   4.417  13.394
57510W        W17255  31.433  35.025  10.903
57511W        W17256  42.952  36.992   0.815
57512W        W17257  28.642   8.897  14.359
57513W        W17258   1.340   6.743  11.518
57514W        W17259  34.070  23.988  10.606
57515W        W17260  30.519  28.986   3.859
57516W        W17261   9.692  43.007   2.193
57517W        W17262  39.052  27.085  10.982
57518W        W17263  17.305  14.245   2.315
57519W        W17264  28.577  17.251   0.303
57520W        W17265   9.310  31.570  11.010
57521W        W17266  24.083  40.889   1.393
57522W        W17267  41.884  37.547   3.866
57523W        W17268  37.463  41.537   4.178
57524W        W17269  34.021  16.786   2.802
57525W        W17270  32.898  32.062   3.154
57526W        W17271   3.453  15.241   1.446
57527W        W17272  41.968  40.505   1.286
57528W        W17273  39.483  34.034   1.275
57529W        W17274  28.930   9.159   3.150
57530W        W17275   3.361  22.049   4.241
57531W        W17276  41.026  15.115  12.439
57532W        W17277  38.946  33.550   4.815
57533W        W17278  30.436  19.184   2.378
57534W        W17279   3.786  43.425   4.166
57535W        W17280   6.347  25.513   3.693
57536W        W17281  31.631  18.079  13.913
57537W        W17282  44.482   9.172  14.987
57538W        W17283  24.685  13.626  14.984
57539W        W17284   8.264  37.550   2.841
57540W        W17285  23.667  43.940  13.501
57541W        W17286  41.841  33.895  13.432
57542W        W17287  22.550  15.324  14.786
57543W        W17288  33.530  38.431  10.912
57544W        W17289   3.329  10.360  14.472
57545W        W17290  36.390  15.202  13.355
57546W        W17291   3.810   5.367   1.929
57547W        W17292  21.531   1.439   2.409
57548W        W17293  20.655  34.874  12.931
57549W        W17294  22.244  22.174   0.819
57550W        W17295  22.551  38.434   1.258
57551W        W17296   8.685   4.902  11.982
57552W        W17297  28.049  24.499   1.222
57553W        W17298  40.004  33.044  13.534
57554W        W17299  26.191  13.255   0.252
57555W        W17300  22.510  18.214   3.277
57556W        W17301  23.502  21.594   2.868
57557W        W17302  33.007  16.793   3.810
57558W        W17303  13.843  14.722  14.434
57559W        W17304  13.614  43.850   0.425
57560W        W17305  22.728  41.886  14.492
57561W        W17306  39.552   7.171   2.298
57562W        W17307  33.055  30.139  11.420
57563W        W17308   8.823  11.298   2.385
57564W        W17309  41.802  38.325  13.449
57565W        W17310  38.334  10.349  10.476
57566W        W17311  34.479   2.451  11.951
57567W        W17312  43.982  21.523  14.280
57568W        W17313  39.026  11.773   0.734
57569W        W17314  14.181  36.060   0.357
57570W        W17315  29.473  24.538   4.736
57571W        W17316  24.677  39.056  13.470
57572W        W17317   8.872   7.252  11.113
57573W        W17318  21.550  26.686   1.902
57574W        W17319   3.746  18.583  13.832
57575W        W17320   4.221  30.444  14.350
57576W        W17321  30.013  18.611   1.837
57577W        W17322  37.030  41.927  13.907
57578W        W17323   9.754  40.504  10.506
57579W        W17324   2.366   1.464   4.746
57580W        W17325  17.213  19.614   1.872
57581W        W17326  40.002   7.254   1.264
57582W        W17327  11.305  18.175  11.052
57583W        W17328   4.237  12.298  13.961
57584W        W17329  42.924  42.322  12.887
57585W        W17330   7.208  35.884  14.356
57586W        W17331  21.538   0.886  10.913
57587W        W17332  17.279  33.560  10.079
57588W        W17333   7.379  12.291  14.899
57589W        W17334  39.334   7.827   0.408
57590W        W17335  32.001  40.512   5.120
57591W        W17336  20.260  34.101  12.922
57592W        W17337  20.561  21.583  14.001
57593W        W17338  38.358  40.909  11.463
57594W        W17339  26.021  21.039   0.814
57595W        W17340  20.642   4.727   3.687
57596W        W17341  40.969   2.314   0.888
57597W        W17342  19.254  29.474   4.659
57598W        W17343  17.633  15.761  13.952
57599W        W17344  33.567  10.221  14.465
57600W        W17345  27.078  41.881   3.852
57601W        W17346  28.561  22.690   4.598
57602W        W17347  22.502  23.110  13.889
57603W        W17348  35.986  43.980  13.413
57604W        W17349   9.159  21.150   1.878
57605W        W17350  40.931  20.764  11.987
57606W        W17351  27.103  25.132   3.245
57607W        W17352  13.719  22.681  14.772
57608W        W17353   0.295  14.675  11.506
57609W        W17354  33.523  21.750   4.135
57610W        W17355  28.555  38.340   4.338
57611W        W17356  31.617  30.154   2.414
57612W        W17357  11.229  36.417  13.513
57613W        W17358  42.008  17.301  10.896
57614W        W17359  23.531  24.486   2.312
57615W        W17360  13.112  34.872   1.283
57616W        W17361   9.758   0.970  14.776
57617W        W17362  37.071  33.040   4.333
57618W        W17363   6.269  40.366  14.878
57619W        W17364  23.020  44.919  14.943
57620W        W17365  29.967  22.615   4.309
57621W        W17366   1.827  43.000   1.711
57622W        W17367  32.908  43.499  12.536
57623W        W17368  25.531  38.945  11.401
57624W        W17369  14.634  15.745  14.001
57625W        W17370  18.762  43.382  14.939
57626W        W17371   5.254   0.296   3.698
57627W        W17372  42.464  23.693   2.888
57628W        W17373   6.862  20.167  10.929
57629W        W17374  11.298  42.850  10.633
57630W        W17375  28.184  39.530  12.554
57631W        W17376   5.882  43.827   4.164
57632W        W17377   8.279  34.386  10.528
57633W        W17378  42.428  11.851   3.219
57634W        W17379  29.447   7.245  13.437
57635W        W17380  31.089  13.772  14.365
57636W        W17381   7.227  16.087   0.451
57637W        W17382  37.514   4.269   3.655
57638W        W17383   0.834   7.341  13.871
57639W        W17384  16.786   4.853  12.838
57640W        W17385  27.532  17.241   4.788
57641W        W17386   0.959  23.123   3.175
57642W        W17387   7.415   0.467   1.733
57643W        W17388   5.706  17.593  10.924
57644W        W17389  25.559  42.932   4.667
57645W        W17390   8.881  22.638  11.918
57646W        W17391   9.872  12.134   1.377
57647W        W17392  35.496  20.116  11.065
57648W        W17393  22.108  26.155  12.938
57649W        W17394   7.745   7.384   0.309
57650W        W17395   6.271  43.364   3.700
57651W        W17396  32.484  20.051  14.940
57652W        W17397   7.774  29.445  11.069
57653W        W17398  12.293  23.683  14.449
57654W        W17399  35.472  30.130  11.423
57655W        W17400  19.630  33.936   4.215
57656W        W17401  30.131  39.978   2.895
57657W        W17402   7.365  33.473   2.329
57658W        W17403  37.894   1.381   0.405
57659W        W17404  12.266  31.584  10.927
57660W        W17405  31.614   2.958  11.964
57661W        W17406  15.180  24.193   0.442
57662W        W17407   0.252  25.557   3.202
57663W        W17408  16.129  13.812  13.054
57664W        W17409  34.451  20.110   9.999
57665W        W17410  41.366  32.959   2.735
57666W        W17411  41.331  16.141  13.905
57667W        W17412  42.924  19.043   2.810
57668W        W17413  36.436  32.587   2.361
57669W        W17414  44.374   8.778   3.338
57670W        W17415  29.586  24.178  12.487
57671W        W17416   1.266  37.502   1.359
57672W        W17417  13.324   1.760  10.059
57673W        W17418   1.314  44.856   4.811
57674W        W17419  36.481  23.023   3.688
57675W        W17420  14.694  32.482  13.450
57676W        W17421  22.527  26.462  13.846
57677W        W17422  43.434  29.584   2.830
57678W        W17423   1.381   5.431   0.267
57679W        W17424   5.265  38.371  11.951
57680W        W17425  44.920  27.013   2.265
57681W        W17426   6.233  23.227   1.889
57682W        W17427  24.206  34.066  11.590
57683W        W17428  25.082  38.536  10.954
57684W        W17429  15.088   9.875  11.970
57685W        W17430  27.153  33.481  12.992
57686W        W17431  13.828  35.592   4.217
57687W        W17432   1.751   6.680   0.441
57688W        W17433  33.528  18.140   0.955
57689W        W17434  18.193  24.980  12.958
57690W        W17435  25.503   6.824   3.223
57691W        W17436  44.365  32.090   1.406
57692W        W17437  28.643  43.377   0.911
57693W        W17438  13.302  30.157   4.134
57694W        W17439  28.165  44.834   9.934
57695W        W17440   3.891  26.973   2.296
57696W        W17441  43.400  32.915  11.528
57697W        W17442  22.158   6.282   0.935
57698W        W17443  23.714  37.079  13.503
57699W        W17444  18.591  42.029  11.059
57700W        W17445  18.118  13.212  11.108
57701W        W17446  23.166  19.178   4.645
57702W        W17447  14.676  25.157  10.634
57703W        W17448  33.917  23.100   0.820
57704W        W17449   2.246   4.313   4.156
57705W        W17450   9.269  13.143   3.377
57706W        W17451  29.512  19.709   0.750
57707W        W17452  14.789  33.410  10.996
57708W        W17453  38.932   0.817   5.215
57709W        W17454  18.291  13.652   0.739
57710W        W17455  28.635  32.522  10.440
57711W        W17456  21.038  12.335   3.713
57712W        W17457   8.209  44.820   3.641
57713W        W17458   7.700  37.890   1.807
57714W        W17459  43.926  15.099   3.347
57715W        W17460  11.369  37.474  12.412
57716W        W17461  40.010  21.522  13.930
57717W        W17462  41.489  26.164  14.277
57718W        W17463  36.543  18.731  10.054
57719W        W17464  26.066   0.381   3.864
57720W        W17465  30.001  34.615   3.640
57721W        W17466  39.556   9.786   0.390
57722W        W17467  35.891  39.823   0.825
57723W        W17468  26.972   6.747  12.459
57724W        W17469   3.322   0.805   5.222
57725W        W17470  35.948  13.228   0.387
57726W        W17471  35.598  31.451   3.768
57727W        W17472   8.404  14.793   3.818
57728W        W17473  32.994   7.707  12.897
57729W        W17474  22.149  44.905  10.940
57730W        W17475  21.742   0.351   5.616
57731W        W17476   1.774  16.645  12.419
57732W        W17477   1.921  27.941  11.591
57733W        W17478  11.262   4.293  10.437
57734W        W17479  11.151  31.476   1.213
57735W        W17480   7.765  22.217   4.130
57736W        W17481   3.739  21.176   0.790
57737W        W17482  37.924  10.342  14.400
57738W        W17483  23.237  31.090  13.417
57739W        W17484  43.883  26.546   0.752
57740W        W17485  42.938  38.836  12.049
57741W        W17486  25.075  28.038   0.727
57742W        W17487  29.638   4.231  12.080
57743W        W17488  31.555  15.309   2.891
57744W        W17489   1.286  33.023  12.055
57745W        W17490   9.352  38.013   4.627
57746W        W17491  23.597   1.241  10.559
57747W        W17492   2.299  20.687   2.373
57748W        W17493   4.291   3.215   2.376
57749W        W17494  16.670  25.094   0.869
57750W        W17495  27.548  27.973   0.434
57751W        W17496   5.777  34.062   0.732
57752W        W17497   2.861  15.216   2.689
57753W        W17498  31.007  40.862  12.557
57754W        W17499  23.237  24.620  14.982
57755W        W17500  34.612  23.563  13.474
57756W        W17501  25.082  27.475  13.962
57757W        W17502  10.182  19.281  14.018
57758W        W17503  33.098  28.068   2.676
57759W        W17504  25.615  37.532  13.064
57760W        W17505  31.484  32.427   1.924
57761W        W17506  44.870  44.285   0.856
57762W        W17507  38.442  31.608   3.859
57763W        W17508   0.935   0.754   3.831
57764W        W17509  11.634  15.289   1.815
57765W        W17510   4.356   6.243  13.979
57766W        W17511  38.985  41.884  11.890
57767W        W17512  39.911  44.355   4.605
57768W        W17513  18.295  32.896   3.767
57769W        W17514  31.542  22.509  10.454
57770W        W17515  14.182  34.595   2.819
57771W        W17516  14.699  10.762   0.363
57772W        W17517  10.367  34.943  14.499
57773W        W17518  26.980  21.083  14.407
57774W        W17519  30.078  35.886  11.096
57775W        W17520   3.787   6.833  10.896
57776W        W17521  15.245   2.918  12.952
57777W        W17522   8.342  22.178  12.368
57778W        W17523  43.500   2.321  14.827
57779W        W17524  25.671  37.512   2.368
57780W        W17525   9.884  16.243   3.290
57781W        W17526  19.093  36.411  12.455
57782W        W17527  31.484  25.655  13.024
57783W        W17528  27.995  37.906   2.237
57784W        W17529   7.716  25.651  12.388
57785W        W17530   6.812  14.800  11.469
57786W        W17531  10.377  17.558   2.214
57787W        W17532   8.188  43.345   0.467
57788W        W17533  20.274  26.069  12.543
57789W        W17534   7.307   2.463  12.020
57790W        W17535  34.521  23.001  14.905
57791W        W17536  16.253  35.932  10.153
57792W        W17537   8.299   3.950  10.558
57793W        W17538  42.849   5.261  10.439
57794W        W17539  26.664   8.356  13.842
57795W        W17540   2.273   5.293   3.243
57796W        W17541  37.582   2.440   0.852
57797W        W17542  37.444  37.384  11.941
57798W        W17543  39.006  43.291  11.594
57799W        W17544  24.709  16.607   3.797
57800W        W17545  15.726  44.798  13.801
57801W        W17546  35.429  36.893   2.357
57802W        W17547  14.175   3.930  10.605
57803W        W17548   9.650   2.461  13.506
57804W        W17549  14.099  14.711  14.836
57805W        W17550  15.636  32.415   1.344
57806W        W17551   4.755  15.093   2.377
57807W        W17552  24.645  33.999  10.610
57808W        W17553  18.767  17.082   5.125
57809W        W17554   9.761  23.991   2.674
57810W        W17555   7.885   7.767  11.997
57811W        W17556  37.018  10.337  13.465
57812W        W17557  12.663  44.920   3.151
57813W        W17558  13.680  34.566   1.367
57814W        W17559  11.645   3.280   0.735
57815W        W17560  20.648  28.993   3.234
57816W        W17561  37.022  28.659  12.095
57817W        W17562   9.709  42.474   2.216
57818W        W17563  23.530  43.451   3.728
57819W        W17564  36.084   3.351   4.806
57820W        W17565  10.662  15.305  12.055
57821W        W17566  43.378  11.679   4.834
57822W        W17567   7.903  21.756   0.895
57823W        W17568  27.616  10.367   1.776
57824W        W17569  18.765   4.314  13.988
57825W        W17570  38.403  16.083  11.456
57826W        W17571  22.060  32.098  14.420
57827W        W17572  29.488  37.959   3.260
57828W        W17573  38.571   4.788   3.728
57829W        W17574  39.400  32.540  14.279
57830W        W17575   3.799  25.148   3.807
57831W        W17576  27.609   3.445   0.790
57832W        W17577  20.729   0.347  13.543
57833W        W17578   0.378  31.135  11.454
57834W        W17579  40.320  38.564   1.763
57835W        W17580   7.871  22.038  12.885
57836W        W17581  23.725  43.949  10.463
57837W        W17582  20.711   9.705   3.765
57838W        W17583  36.088  21.661  13.921
57839W        W17584  10.847   1.777   0.468
57840W        W17585   4.713  25.160  11.377
57841W        W17586   7.831  20.062  12.979
57842W        W17587  16.675  36.891   4.234
57843W        W17588  21.153  28.159  11.055
57844W        W17589  36.019  20.613   1.800
57845W        W17590  38.008  25.186  14.972
57846W        W17591  30.019   9.868   1.302
57847W        W17592  36.048  19.044  14.479
57848W        W17593   6.819  12.180   1.389
57849W        W17594  11.650  15.137  13.866
57850W        W17595  13.696  35.999   3.386
57851W        W17596  21.683   5.253  10.564
57852W        W17597  32.979  22.112   4.799
57853W        W17598  10.781  19.254  10.485
57854W        W17599  11.345  24.043   1.832
57855W        W17600  37.408   6.753   3.220
57856W        W17601   4.938  35.438  12.408
57857W        W17602  12.749  31.482  10.914
57858W        W17603   2.961  27.063  10.026
57859W        W17604  11.774  34.508   1.714
57860W        W17605  25.688  14.822   0.920
57861W        W17606  37.004   8.208  12.033
57862W        W17607  40.359  17.129   0.292
57863W        W17608  19.672  25.191   3.191
57864W        W17609  26.573  12.611  11.423
57865W        W17610  15.091   9.316  11.413
57866W        W17611  26.133  17.618   5.215
57867W        W17612  35.899  21.180  13.988
57868W        W17613  27.689  33.586   3.192
57869W        W17614  21.144   0.948   4.306
57870W        W17615   5.698  14.623  14.964
57871W        W17616  38.434   1.737  11.886
57872W        W17617  33.979  23.015  12.345
57873W        W17618  16.577  33.517   0.280
57874W        W17619  10.740  19.214   2.740
57875W        W17620  40.824  23.664   2.753
57876W        W17621   4.893  15.676   3.271
57877W        W17622  38.063  20.711   1.447
57878W        W17623  40.318  30.435  10.906
57879W        W17624  36.447  36.412  10.612
57880W        W17625  33.043  21.039   5.309
57881W        W17626  11.647   0.361  11.862
57882W        W17627   4.283  35.925   0.302
57883W        W17628  18.554   5.357   2.248
57884W        W17629  25.488  28.960  10.981
57885W        W17630  40.005  44.855  11.055
57886W        W17631  32.586  43.891   4.732
57887W        W17632  33.082  10.660   4.708
57888W        W17633  43.502  29.015   1.833
57889W        W17634  21.102  39.511   4.616
57890W        W17635  22.513  16.663   2.277
57891W        W17636  36.075   6.362   2.406
57892W        W17637   9.334   0.463  10.553
57893W        W17638   2.726  28.667  12.983
57894W        W17639  29.465  10.262  14.791
57895W        W17640  24.170  36.904  12.563
57896W        W17641  25.027  12.165   3.762
57897W        W17642  11.706  14.121   0.878
57898W        W17643  33.602  13.760  11.598
57899W        W17644  34.964  29.946  11.600
57900W        W17645   5.299   8.787  10.537
57901W        W17646  19.690  25.121  12.976
57902W        W17647   3.434  28.942  11.483
57903W        W17648  23.179  13.696  14.877
57904W        W17649  31.502  42.422  13.893
57905W        W17650  41.886   3.256  12.929
57906W        W17651  39.443  31.581  13.996
57907W        W17652  36.371  18.700  14.925
57908W        W17653   7.412  11.776  12.863
57909W        W17654  23.662  43.940   1.781
57910W        W17655  41.860  25.706   0.907
57911W        W17656  41.869   4.272  11.078
57912W        W17657  25.162   4.738   1.882
57913W        W17658  31.964   0.403  12.522
57914W        W17659  32.621  41.905  14.893
57915W        W17660  35.454  44.502  10.960
57916W        W17661  31.138  44.777   2.840
57917W        W17662  42.512  42.417   3.700
57918W        W17663  42.991  43.510  14.325
57919W        W17664   2.785  21.660   3.158
57920W        W17665  33.484  24.621   4.260
57921W        W17666  28.021   4.357   5.306
57922W        W17667  13.204  34.894   1.904
57923W        W17668  39.918  15.204   3.180
57924W        W17669  41.836  38.917  13.393
57925W        W17670   6.273   7.899  12.898
57926W        W17671   7.211  26.473  13.005
57927W        W17672  13.632   4.277  14.452
57928W        W17673  10.806   9.246  10.973
57929W        W17674  25.170   7.775  11.573
57930W        W17675  13.271  18.549   1.241
57931W        W17676  40.042   9.243   1.396
57932W        W17677  23.166   3.733   3.238
57933W        W17678  23.669   9.154   2.841
57934W        W17679  16.728  18.190   1.428
57935W        W17680  20.712  24.002   4.838
57936W        W17681  30.153  10.384  10.912
57937W        W17682  16.770  41.479  11.023
57938W        W17683  29.027  27.447   2.811
57939W        W17684  43.391  23.086  14.823
57940W        W17685   2.246  20.557   1.823
57941W        W17686  15.736  30.997   5.137
57942W        W17687  37.348  29.592  13.796
57943W        W17688  22.518  26.037   0.265
57944W        W17689   5.207   3.869   4.343
57945W        W17690  10.874  41.882  14.479
57946W        W17691  26.568  26.161   3.148
57947W        W17692   5.206  10.193   0.326
57948W        W17693  14.189  28.569  10.888
57949W        W17694   5.690  42.939  13.536
57950W        W17695  23.544  40.855   1.781
57951W        W17696  43.399   4.728  14.910
57952W        W17697   2.342  35.983  12.368
57953W        W17698  19.170  29.011  14.491
57954W        W17699  30.572  12.681  12.528
57955W        W17700  17.619  35.378   1.821
57956W        W17701  39.347  25.627  13.490
57957W        W17702  26.173  19.573   4.118
57958W        W17703  11.667   1.914  11.029
57959W        W17704  40.815  17.609  14.357
57960W        W17705  38.004  35.069   3.832
57961W        W17706  26.504   6.755  10.931
57962W        W17707  28.527   5.885   3.662
57963W        W17708  29.573  22.159  14.322
57964W        W17709  18.775  44.865  12.088
57965W        W17710   1.914  19.081   0.300
57966W        W17711  18.238  32.002  10.128
57967W        W17712  25.004  32.536   0.467
57968W        W17713  42.509  20.110   4.312
57969W        W17714  11.213  38.417  10.067
57970W        W17715   2.928  16.091   1.890
57971W        W17716  42.919   8.179  12.535
57972W        W17717  32.977  28.114   2.357
57973W        W17718  22.038  19.039   0.847
57974W        W17719   0.871   9.821  14.508
57975W        W17720  19.717  31.100  13.413
57976W        W17721   1.776  42.975   2.888
57977W        W17722  11.233  39.381  10.449
57978W        W17723  18.581   5.391  13.408
57979W        W17724  23.706  31.045  11.485
57980W        W17725  14.236   2.930  13.936
57981W        W17726  13.641   5.395   0.362
57982W        W17727  42.930  37.944  12.844
57983W        W17728  20.690  43.782  10.959
57984W        W17729   9.227  12.830   2.787
57985W        W17730  15.109  43.819   4.766
57986W        W17731   7.327  40.838  11.990
57987W        W17732  37.339   7.723  10.977
57988W        W17733  37.377  19.568   1.344
57989W        W17734  41.412   3.255  12.085
57990W        W17735  30.155   7.377  13.007
57991W        W17736  22.671  17.767  12.984
57992W        W17737  34.050  37.352  14.030
57993W        W17738  25.698  43.317  14.877
57994W        W17739  21.528  26.965  12.531
57995W        W17740  18.081  37.548   0.283
57996W        W17741  17.751  10.843   3.756
57997W        W17742   3.949  44.397   0.961
57998W        W17743  15.249  29.022   0.301
57999W        W17744  31.956   8.180  13.853
58000W        W17745  40.315  35.471   2.707
58001W        W17746  34.526   4.414   1.881
58002W        W17747  20.580  38.076  14.491
58003W        W17748  38.901  22.230   4.649
58004W        W17749  28.094  22.625   4.606
58005W        W17750  25.102  13.750  10.492
58006W        W17751   4.371   3.801  12.548
58007W        W17752   1.272  42.485   4.158
58008W        W17753  37.384  27.524   3.689
58009W        W17754  38.961   1.259   1.722
58010W        W17755  37.544  25.981   2.814
58011W        W17756  32.454  16.244   3.147
58012W        W17757  43.013  31.079  13.016
58013W        W17758   1.745  27.537  13.467
58014W        W17759  13.121   3.379  11.380
58015W        W17760   3.354  10.306   2.346
58016W        W17761   4.322   2.380   3.867
58017W        W17762  13.827  16.208   3.169
58018W        W17763   9.759   1.303  10.448
58019W        W17764  27.109   3.222   1.217
58020W        W17765  23.548  28.113  11.892
58021W        W17766  39.376  30.570   1.229
58022W        W17767  37.518   9.392   1.933
58023W        W17768  17.191  33.565   4.661
58024W        W17769  36.944  28.010  11.910
58025W        W17770  19.739  35.086  13.494
58026W        W17771  18.214  10.207  12.386
58027W        W17772  18.129   8.857  14.761
58028W        W17773  18.616  29.626  11.511
58029W        W17774  44.332  31.586   2.852
58030W        W17775   8.848  44.756  12.854
58031W        W17776   7.775  20.742   1.814
58032W        W17777  32.015  15.109   3.214
58033W        W17778   6.896   3.725   0.772
58034W        W17779  20.190  43.932   4.755
58035W        W17780  37.392  13.757   1.312
58036W        W17781  33.921  43.337  11.079
58037W        W17782  31.639   1.479  13.015
58038W        W17783  30.141   6.733  14.958
58039W        W17784  26.167   9.289   3.801
58040W        W17785  44.497  32.066   3.378
58041W        W17786  33.114  19.688   2.662
58042W        W17787  18.689  23.000   4.315
58043W        W17788  23.137   1.310  10.973
58044W        W17789  39.993   2.265  10.515
58045W        W17790  22.198  15.172   9.921
58046W        W17791  41.042  27.086   4.281
58047W        W17792  11.166  10.674  13.377
58048W        W17793  33.893   1.970   4.717
58049W        W17794   5.882  33.423   1.436
58050W        W17795   6.377  13.818   4.262
58051W        W17796  25.963  33.044  11.541
58052W        W17797  22.576  42.987  14.815
58053W        W17798  37.001  35.994   1.759
58054W        W17799  38.461  31.473  10.521
58055W        W17800  36.572   9.864  11.990
58056W        W17801  12.240  15.192   0.451
58057W        W17802  33.474   3.268   2.294
58058W        W17803  40.502  32.551  10.999
58059W        W17804  38.526  20.769   1.694
58060W        W17805  39.359  33.048   4.137
58061W        W17806  23.733  27.017   4.283
58062W        W17807  21.660  43.961   2.297
58063W        W17808  34.397  13.187  11.927
58064W        W17809   1.929  11.190   4.616
58065W        W17810  23.591   5.900   0.740
58066W        W17811  19.248  40.354  14.910
58067W        W17812  19.621  24.008   2.232
58068W        W17813  43.820  17.181  12.900
58069W        W17814  25.692  31.063   5.242
58070W        W17815  42.850   2.841   3.815
58071W        W17816  42.398  21.133  11.381
58072W        W17817  36.439  32.046   2.794
58073W        W17818  21.092   2.757  13.989
58074W        W17819   4.898  29.011   3.709
58075W        W17820  27.171  31.478   3.273
58076W        W17821  14.748  34.957  14.817
58077W        W17822   2.943  16.571   3.791
58078W        W17823   4.716   3.724   3.205
58079W        W17824  31.403  29.471   1.444
58080W        W17825   8.222  26.150  13.006
58081W        W17826  15.585  26.975   3.169
58082W        W17827   9.159  38.369  11.455
58083W        W17828  38.866   6.763   3.303
58084W        W17829  23.645  37.042  12.056
58085W        W17830  15.277  25.536   0.430
58086W        W17831  15.726  40.382   3.176
58087W        W17832  35.487  42.980   3.175
58088W        W17833  11.847  14.236  10.114
58089W        W17834  22.021  21.156  11.871
58090W        W17835  35.364  33.411   1.706
58091W        W17836  39.523  35.108  10.953
58092W        W17837   3.798  28.624   5.301
58093W        W17838   0.296  12.627  12.389
58094W        W17839  42.778   9.658   2.675
58095W        W17840  13.830  28.033   0.950
58096W        W17841   6.688  14.695  12.564
58097W        W17842   9.733   3.440   3.795
58098W        W17843  32.546  10.824  14.867
58099W        W17844  12.305  40.318  13.412
58100W        W17845  43.975  24.069   2.706
58101W        W17846  21.560   5.410  14.483
58102W        W17847  25.210  39.394   3.813
58103W        W17848  40.836  27.516   1.338
58104W        W17849  35.452  30.986  13.798
58105W        W17850  11.306  17.682  13.867
58106W        W17851  10.667  36.559   1.731
58107W        W17852  42.959  12.739  10.917
58108W        W17853  42.374  28.019   0.444
58109W        W17854   6.846  10.281  14.942
58110W        W17855  27.646   2.835   2.689
58111W        W17856  30.149   7.875   4.214
58112W        W17857   5.279  41.416   2.843
58113W        W17858   7.911  30.637  13.935
58114W        W17859  25.094  12.164   1.903
58115W        W17860  31.637   2.457   1.694
58116W        W17861  38.058  19.716  12.345
58117W        W17862  35.069  26.974   4.681
58118W        W17863  16.300  29.151  14.992
58119W        W17864  19.180  26.175  12.917
58120W        W17865  40.991  23.160  14.368
58121W        W17866  40.950   8.406  14.278
58122W        W17867   6.902   5.754  11.985
58123W        W17868  35.052  44.002  14.020
58124W        W17869   5.749  12.751  12.947
58125W        W17870   3.291  40.963   5.250
58126W        W17871  44.823  41.920   2.739
58127W        W17872  38.957  36.010   4.155
58128W        W17873   5.921   4.301  14.409
58129W        W17874  14.714   3.288   9.950
58130W        W17875   0.816   1.917  12.939
58131W        W17876  28.655  17.092   4.674
58132W        W17877   2.811   6.410  14.468
58133W        W17878  40.424   9.336  12.837
58134W        W17879   4.830  30.596  14.797
58135W        W17880  13.745  36.434   4.792
58136W        W17881  44.943   6.804  12.466
58137W        W17882  22.637  18.234   4.229
58138W        W17883  32.086  14.125   2.265
58139W        W17884  24.002   7.687   0.729
58140W        W17885   0.946  42.346  11.120
58141W        W17886  25.618  32.033   1.868
58142W        W17887  14.644  26.629  14.027
58143W        W17888  14.715  11.203   3.338
58144W        W17889  19.054  29.439   0.777
58145W        W17890  18.593  36.030   1.710
58146W        W17891  27.629  15.606   3.645
58147W        W17892  19.718  33.061   4.606
58148W        W17893  37.527  31.900  13.491
58149W        W17894  31.427  16.313  11.874
58150W        W17895   8.892  42.783   2.735
58151W        W17896  37.856  12.252  10.998
58152W        W17897  19.188  15.134   3.802
58153W        W17898  19.654  20.196   0.759
58154W        W17899  11.209   2.323   0.925
58155W        W17900  28.140  26.103  10.520
58156W        W17901  39.428  38.962  12.895
58157W        W17902  12.693   1.918  12.544
58158W        W17903  35.437  40.901  12.840
58159W        W17904  22.151  23.528  13.494
58160W        W17905  23.640  33.386   4.675
58161W        W17906   9.855  36.429  11.125
58162W        W17907  17.721  19.776  11.926
58163W        W17908  11.767  25.071   2.726
58164W        W17909  33.126  31.994   3.860
58165W        W17910  43.395  27.495   4.204
58166W        W17911  30.075  26.036   5.633
58167W        W17912  10.143   6.184   3.331
58168W        W17913   9.652  24.485  13.795
58169W        W17914   0.885   3.877   1.340
58170W        W17915  24.047  34.580   3.213
58171W        W17916  37.372  12.749   2.761
58172W        W17917  42.351   6.916   2.364
58173W        W17918  24.142   4.264   3.383
58174W        W17919  19.765   1.297   3.828
58175W        W17920   4.901  41.313   2.689
58176W        W17921  33.506   5.691  14.396
58177W        W17922   6.205  33.008  14.765
58178W        W17923   3.772  41.875   1.380
58179W        W17924   6.262   4.873  13.540
58180W        W17925  19.157  19.606   1.413
58181W        W17926  42.321  42.940   1.450
58182W        W17927  13.153  22.689  10.563
58183W        W17928   8.874  35.484  10.626
58184W        W17929  12.278  10.214  12.579
58185W        W17930  42.776  21.600  14.914
58186W        W17931  27.002  39.513  13.339
58187W        W17932  13.618  24.057   1.821
58188W        W17933   6.862  29.056  12.549
58189W        W17934  42.502  26.475  14.299
58190W        W17935  18.050  28.533   1.831
58191W        W17936  25.569  41.440   0.317
58192W        W17937  10.834  39.822  11.912
58193W        W17938   1.316  20.258  12.414
58194W        W17939  40.400  31.025   1.400
58195W        W17940   4.721  24.069  12.998
58196W        W17941  31.546  15.741  14.470
58197W        W17942   9.174  18.626   0.818
58198W        W17943   2.259  27.529   3.749
58199W        W17944   2.454  23.072   1.323
58200W        W17945   9.266  25.506   3.643
58201W        W17946  13.278   5.924  13.010
58202W        W17947  14.224  27.122   3.183
58203W        W17948   0.396  32.427   5.799
58204W        W17949  42.435  33.962  10.632
58205W        W17950  17.629   1.768  13.822
58206W        W17951  31.908  10.874  11.100
58207W        W17952  27.117  18.180  11.124
58208W        W17953   7.710  35.517  11.612
58209W        W17954  19.603  39.999   0.387
58210W        W17955  37.944  28.955   1.341
58211W        W17956  18.173  41.951  12.857
58212W        W17957  11.666  15.602  10.092
58213W        W17958  30.443   9.866   2.791
58214W        W17959  16.284   3.216   4.794
58215W        W17960   3.956   5.887   4.772
58216W        W17961   2.921  43.311   0.349
58217W        W17962  32.964   3.937  12.451
58218W        W17963  10.248  40.323   3.729
58219W        W17964  17.115  21.079  11.431
58220W        W17965  35.382   1.970   0.939
58221W        W17966   2.401  13.700  12.438
58222W        W17967  15.600  17.750  10.442
58223W        W17968   2.879   7.763  11.040
58224W        W17969   6.309   9.314  11.605
58225W        W17970  16.626  18.217  14.472
58226W        W17971  17.785  41.473   1.338
58227W        W17972  38.549  41.328  12.404
58228W        W17973  43.431  20.631  12.009
58229W        W17974   5.878  34.455   0.746
58230W        W17975  41.913  25.168   0.469
58231W        W17976  28.662  37.485  12.053
58232W        W17977  17.162  27.107  14.342
58233W        W17978  38.056   0.373  13.999
58234W        W17979  22.538   5.745  10.599
58235W        W17980  24.217   8.704  13.914
58236W        W17981   9.390  10.702  11.372
58237W        W17982  11.642  43.936  10.575
58238W        W17983  43.019   8.281   4.639
58239W        W17984  19.180  33.902   4.688
58240W        W17985  39.970  15.582   4.659
58241W        W17986   6.370  43.830  11.862
58242W        W17987   8.381  34.061  13.514
58243W        W17988  13.132  17.216  14.974
58244W        W17989   6.717  25.473   2.831
58245W        W17990  29.504  22.246   0.481
58246W        W17991  40.466  14.170   0.740
58247W        W17992  12.209   6.899  11.067
58248W        W17993   0.401  40.397   2.213
58249W        W17994  23.711  13.344   9.614
58250W        W17995   6.375  42.929  11.420
58251W        W17996  41.860   3.865  12.967
58252W        W17997  21.745  30.428   2.256
58253W        W17998  10.703   2.902   2.700
58254W        W17999  34.061   4.296  12.418
58255W        W18000   2.923  33.497   1.892
58256W        W18001  28.516  19.280  12.436
58257W        W18002   1.345  43.957   3.777
58258W        W18003  18.546  29.949   4.117
58259W        W18004  42.893   1.341   2.858
58260W        W18005  33.400  26.644   1.327
58261W        W18006   5.305  16.610   4.310
58262W        W18007  27.074   5.199  14.762
58263W        W18008  18.239  30.041   4.733
58264W        W18009   6.238  38.452   4.602
58265W        W18010  28.434  23.670   3.375
58266W        W18011  29.480  39.990  11.107
58267W        W18012  25.712  18.682  12.444
58268W        W18013  29.951  23.139   1.779
58269W        W18014  22.137   3.885  13.034
58270W        W18015  41.376  26.079   3.858
58271W        W18016  39.909  15.305  13.794
58272W        W18017   2.407  14.223  12.540
58273W        W18018  32.963   2.313   0.799
58274W        W18019  44.329  44.288   4.768
58275W        W18020   8.375  30.927  11.029
58276W        W18021   9.217  15.321   3.232
58277W        W18022  10.251  13.831   4.620
58278W        W18023  14.256  24.558   3.254
58279W        W18024   0.902  21.544   1.269
58280W        W18025  28.975  30.970  13.848
58281W        W18026  16.614  32.499   2.698
58282W        W18027   8.175  17.738  11.097
58283W        W18028  36.026  30.045   4.639
58284W        W18029  31.945  22.008   4.659
58285W        W18030   5.305   1.339   4.610
58286W        W18031  38.830  33.947  11.092
58287W        W18032   4.358  37.051   5.801
58288W        W18033  41.036   7.728  14.996
58289W        W18034  22.745  33.913   0.426
58290W        W18035  19.286  13.306  13.837
58291W        W18036  25.122   1.760  11.960
58292W        W18037  37.455  35.875  14.879
58293W        W18038  19.602   1.924  13.362
58294W        W18039   6.225  34.450   2.359
58295W        W18040  20.257  37.451  14.352
58296W        W18041  33.886  23.099   2.833
58297W        W18042  19.230   8.306  10.507
58298W        W18043   2.942  42.967   4.282
58299W        W18044  10.738   6.368   3.786
58300W        W18045   1.795   7.278   1.365
58301W        W18046  31.016  39.446  12.927
58302W        W18047  33.972  43.285  11.886
58303W        W18048  12.290  29.535   2.315
58304W        W18049  41.472  14.107  11.027
58305W        W18050   5.332   8.811  12.478
58306W        W18051  23.232   5.260   0.926
58307W        W18052   6.382  14.623  11.428
58308W        W18053  21.132  30.077   4.215
58309W        W18054  35.556  25.570  11.443
58310W        W18055  12.182  11.272   1.236
58311W        W18056  43.856   9.681  12.017
58312W        W18057  30.595  33.568  11.982
58313W        W18058  25.004  32.092  12.088
58314W        W18059  12.357  43.818   0.827
58315W        W18060  42.019   7.349  12.046
58316W        W18061  19.659  10.846   4.644
58317W        W18062  24.015  23.673  12.059
58318W        W18063   9.310  13.216  13.539
58319W        W18064   3.244  44.464   1.399
58320W        W18065  39.477  18.758   4.819
58321W        W18066  20.649  27.003   3.181
58322W        W18067  32.455  29.546  12.065
58323W        W18068  37.556  12.728   3.296
58324W        W18069  43.355  32.979   1.286
58325W        W18070  25.483  19.133   2.237
58326W        W18071   2.271  11.796   0.931
58327W        W18072  42.833  28.981   9.669
58328W        W18073  32.009  44.968  10.566
58329W        W18074  38.051   9.860  14.469
58330W        W18075  21.634  39.495   0.275
58331W        W18076  31.947  17.107   1.836
58332W        W18077  23.025  24.658   3.794
58333W        W18078  17.149  36.092   4.255
58334W        W18079  30.458   0.314  12.522
58335W        W18080  14.285  20.198   1.437
58336W        W18081  17.745  24.058  12.853
58337W        W18082   1.253  20.078   3.162
58338W        W18083   8.788   6.239   4.769
58339W        W18084  35.961  38.438   1.715
58340W        W18085  39.012   2.410  13.540
58341W        W18086  32.575  22.658   4.782
58342W        W18087   6.360  21.715  12.066
58343W        W18088  40.911   2.800  10.963
58344W        W18089  12.255   8.160   1.696
58345W        W18090  23.730  41.855  10.594
58346W        W18091  39.986   2.809  14.787
58347W        W18092  43.936  24.654   2.310
58348W        W18093   5.376  23.985   2.709
58349W        W18094  17.196  22.016   4.627
58350W        W18095  19.163  21.194   2.858
58351W        W18096  24.501  18.249  13.949
58352W        W18097  43.907  39.478   3.176
58353W        W18098  19.073  15.086   2.752
58354W        W18099  13.809   7.239  14.483
58355W        W18100  15.124  42.824   1.216
58356W        W18101  36.431  19.272   1.842
58357W        W18102  18.108   9.790  11.867
58358W        W18103  16.590  44.839   1.404
58359W        W18104  12.674  16.199   4.657
58360W        W18105  11.623   1.372  11.108
58361W        W18106  14.764  40.413   1.832
58362W        W18107  21.165   4.867   1.704
58363W        W18108  26.187   0.277  14.813
58364W        W18109  10.663  29.952   3.377
58365W        W18110  14.193  18.593  10.583
58366W        W18111  44.464  18.658   2.379
58367W        W18112  11.808  21.560   3.266
58368W        W18113  15.759  12.693  11.070
58369W        W18114  29.045  34.511   1.363
58370W        W18115  21.639  35.433  14.972
58371W        W18116  29.923  26.607  11.002
58372W        W18117  33.382  30.655  14.790
58373W        W18118  11.261  12.839   0.792
58374W        W18119  28.053  42.851  14.850
58375W        W18120   4.330   2.369   1.891
58376W        W18121   2.357  30.508  13.853
58377W        W18122  18.063   3.357   3.808
58378W        W18123   0.349  28.152   0.802
58379W        W18124  19.126  31.602   2.821
58380W        W18125  24.539  41.954   0.254
58381W        W18126   2.264  31.425   4.342
58382W        W18127  32.119  25.603  13.440
58383W        W18128  27.975  20.526   0.349
58384W        W18129  40.897  30.596  12.362
58385W        W18130  35.571  11.682  12.007
58386W        W18131  39.390  26.003   1.904
58387W        W18132  19.114  40.450   2.295
58388W        W18133  11.641  33.503  11.427
58389W        W18134  10.766  33.963   0.410
58390W        W18135  43.015   8.189   2.319
58391W        W18136  38.424   5.720   2.245
58392W        W18137   9.732  11.622   3.840
58393W        W18138  32.965   2.303   4.821
58394W        W18139   0.375  39.498  13.911
58395W        W18140  33.382  34.957   0.290
58396W        W18141  41.407  30.149   4.294
58397W        W18142  24.633  38.531   0.935
58398W        W18143   4.926  34.910   4.267
58399W        W18144  22.185  14.621  14.828
58400W        W18145  27.180  25.111   4.722
58401W        W18146  34.873  17.560  13.362
58402W        W18147  25.039  28.008  11.931
58403W        W18148   1.810  42.831   0.895
58404W        W18149  28.983  31.141  11.869
58405W        W18150  32.898  35.572  11.402
58406W        W18151  40.515  28.953  11.861
58407W        W18152   8.806   3.372   2.360
58408W        W18153  23.656   3.763  11.044
58409W        W18154  37.405  43.467   0.453
58410W        W18155  44.361  21.594   3.834
58411W        W18156  13.740  33.403  12.877
58412W        W18157  10.744   1.815  14.978
58413W        W18158  34.369  18.091   1.887
58414W        W18159   5.748  42.949  14.940
58415W        W18160  23.220   2.889   1.921
58416W        W18161  42.353  23.000  10.481
58417W        W18162  35.049  28.524   3.164
58418W        W18163  43.324  44.982  12.946
58419W        W18164  31.035  40.949  13.857
58420W        W18165  14.715   2.254  12.381
58421W        W18166  40.312  34.430  13.912
58422W        W18167  30.073  34.002   4.783
58423W        W18168  21.611  17.175  11.912
58424W        W18169  39.378   9.205   1.212
58425W        W18170  24.581  42.806   0.276
58426W        W18171  37.474  37.961   4.306
58427W        W18172  37.040   2.883  14.004
58428W        W18173  11.179  37.055   0.317
58429W        W18174  43.882  28.574  10.898
58430W        W18175   6.334   4.421   3.300
58431W        W18176  44.957  35.039  11.918
58432W        W18177  11.625  43.454  14.470
58433W        W18178  36.030  31.584  10.906
58434W        W18179  31.598   1.393   4.314
58435W        W18180  30.548  10.236   1.397
58436W        W18181  31.896  42.351   4.263
58437W        W18182  36.990   9.866   3.253
58438W        W18183  12.225  41.852  11.017
58439W        W18184  13.147   3.837   2.206
58440W        W18185  15.092  25.609  14.022
58441W        W18186  16.641  19.233  13.542
58442W        W18187  11.791  27.515   4.809
58443W        W18188  31.558   5.894  10.914
58444W        W18189  37.865  20.646  13.517
58445W        W18190   3.833  15.734   3.327
58446W        W18191   3.950  28.540  10.497
58447W        W18192  16.102   5.776   0.828
58448W        W18193   7.368  20.220  11.477
58449W        W18194   3.274  38.437  14.511
58450W        W18195  20.055  41.325   1.866
58451W        W18196  30.416   6.371   0.912
58452W        W18197  37.953  11.130   2.798
58453W        W18198  20.629  37.972   3.782
58454W        W18199  18.556   0.438   0.857
58455W        W18200  29.106   0.436  14.954
58456W        W18201  11.181  44.888  14.391
58457W        W18202   4.807  32.905   2.291
58458W        W18203  41.500  40.887  11.901
58459W        W18204   9.888  35.577  10.122
58460W        W18205  26.644  26.485  12.379
58461W        W18206  32.142  32.098  11.466
58462W        W18207   1.238  17.276   1.735
58463W        W18208  28.989  32.991  10.967
58464W        W18209  10.675  43.826  12.869
58465W        W18210  40.979  10.142  11.518
58466W        W18211  10.156   8.668   1.878
58467W        W18212  37.045  19.670  10.407
58468W        W18213   1.797  40.542  12.430
58469W        W18214  43.385  19.684  13.366
58470W        W18215   8.391  15.757   2.223
58471W        W18216   1.343  32.006   5.283
58472W        W18217  13.778  43.007  10.564
58473W        W18218   1.847  43.380   1.323
58474W        W18219  39.546  22.187   1.799
58475W        W18220  12.133  15.808   3.674
58476W        W18221  40.829  39.859  11.436
58477W        W18222  38.566  33.545   0.414
58478W        W18223   8.769  29.456   2.226
58479W        W18224  17.784  33.513   3.637
58480W        W18225  25.649   8.281   4.163
58481W        W18226  14.661   1.829  11.902
58482W        W18227  36.993  25.181  11.489
58483W        W18228  32.029  22.521  14.369
58484W        W18229  43.276  10.372  14.839
58485W        W18230  41.351  40.945  11.095
58486W        W18231  41.913  35.892   3.362
58487W        W18232  38.571  26.075  14.822
58488W        W18233  11.675  26.505   4.635
58489W        W18234   9.670  23.654  13.491
58490W        W18235  33.598   2.259  13.847
58491W        W18236  21.176   7.718   1.897
58492W        W18237   8.861  24.595  14.406
58493W        W18238  26.477  21.240  11.857
58494W        W18239  44.976  19.733  11.013
58495W        W18240  14.171  26.117   4.135
58496W        W18241  27.015   4.748  14.941
58497W        W18242  17.172  31.439  13.839
58498W        W18243  10.187  19.089  11.462
58499W        W18244  41.793  37.491   4.253
58500W        W18245  35.523  37.366   3.274
58501W        W18246  43.296   9.333  12.558
58502W        W18247  33.411  43.415  13.890
58503W        W18248  13.771  31.515  11.077
58504W        W18249  17.614  25.026  10.594
58505W        W18250  35.549  20.659   0.773
58506W        W18251  17.634  40.335  12.059
58507W        W18252  39.864  43.788   4.657
58508W        W18253  37.497  12.345  10.956
58509W        W18254  23.718  44.935   3.837
58510W        W18255  20.664  36.568   4.168
58511W        W18256  14.670  10.791  14.468
58512W        W18257  17.196  29.653   3.637
58513W        W18258  22.144   8.310  11.494
58514W        W18259   6.868  23.079   0.254
58515W        W18260  14.739   7.212  11.002
58516W        W18261  35.923  39.048   2.259
58517W        W18262  28.512   0.438  12.981
58518W        W18263   0.415  43.301  12.014
58519W        W18264  42.432  33.532  13.861
58520W        W18265  41.451  13.695  14.938
58521W        W18266  21.537  11.189  12.007
58522W        W18267  37.872  27.994   0.902
58523W        W18268  35.075   6.726  13.371
58524W        W18269   2.303  44.394   0.806
58525W        W18270  34.984   0.288   3.701
58526W        W18271  18.241  27.089  14.957
58527W        W18272  32.444  20.713   1.914
58528W        W18273  10.669  21.149  10.902
58529W        W18274  30.150  26.104   0.755
58530W        W18275  25.557  32.115   3.689
58531W        W18276  26.677  11.226  13.451
58532W        W18277  13.299   2.455  14.914
58533W        W18278  22.732   5.874   2.813
58534W        W18279  21.588  20.645  13.021
58535W        W18280  35.452   3.734   1.300
58536W        W18281  21.623  34.011   2.799
58537W        W18282  34.867  12.285  14.476
58538W        W18283   5.328  26.466   1.300
58539W        W18284  36.073   1.279  14.986
58540W        W18285  14.796  19.122   3.710
58541W        W18286  13.312  41.896   0.946
58542W        W18287  14.639  22.160   3.864
58543W        W18288   2.341  43.824   2.391
58544W        W18289  11.161   7.235  14.346
58545W        W18290  44.769  11.707  11.427
58546W        W18291  25.019   8.814  12.360
58547W        W18292  40.358   9.253  11.972
58548W        W18293  22.530  21.519  14.900
58549W        W18294   4.836   3.908   1.886
58550W        W18295   0.286  25.584  11.505
58551W        W18296  37.351  38.557   1.300
58552W        W18297  44.811  27.529   4.817
58553W        W18298  35.879  25.690   0.420
58554W        W18299  11.283  22.209  10.981
58555W        W18300   0.261  10.359  13.038
58556W        W18301  28.569  30.024   3.799
58557W        W18302  18.067   8.662  12.850
58558W        W18303   8.725  11.345   4.184
58559W        W18304  30.054  31.033  11.024
58560W        W18305  39.892  40.927   4.246
58561W        W18306  22.605  29.424  13.406
58562W        W18307  34.864  39.404   4.175
58563W        W18308  36.472  29.605  11.881
58564W        W18309   6.853  31.137   2.313
58565W        W18310  44.394  36.363   3.288
58566W        W18311  24.022  17.650  14.836
58567W        W18312  29.641  19.053   1.412
58568W        W18313   4.918  33.952   0.746
58569W        W18314  37.402  10.201   4.631
58570W        W18315  16.119  21.152   4.782
58571W        W18316   7.809  19.246   4.321
58572W        W18317  24.674  43.772  12.030
58573W        W18318  42.861  12.353  11.902
58574W        W18319  27.180   5.918  12.572
58575W        W18320  12.225   7.218  11.410
58576W        W18321  11.260  20.703   3.179
58577W        W18322  13.319  35.856  13.873
58578W        W18323  35.462   7.224   2.878
58579W        W18324  23.126  35.108   0.957
58580W        W18325  23.057  15.169  10.948
58581W        W18326  27.950  18.551  12.566
58582W        W18327  21.583  43.440  13.951
58583W        W18328   4.326   0.477   1.809
58584W        W18329  39.879  34.525  11.485
58585W        W18330  28.032   0.862   2.262
58586W        W18331  31.620   2.919   4.824
58587W        W18332   2.798  32.988   1.848
58588W        W18333  12.717  25.553  11.918
58589W        W18334  16.778  29.616   4.619
58590W        W18335  29.502  28.057  12.992
58591W        W18336  11.630  19.076   1.829
58592W        W18337  10.826   3.241   4.836
58593W        W18338  17.207  35.020  14.508
58594W        W18339   0.874  22.170   1.279
58595W        W18340   1.791  43.907  14.872
58596W        W18341  26.141  31.899  13.910
58597W        W18342  42.284  27.166  10.992
58598W        W18343   1.414   6.289   1.734
58599W        W18344   8.168  21.043   4.630
58600W        W18345  30.963   2.284   3.181
58601W        W18346   5.310  25.214   1.281
58602W        W18347  33.912  38.360  10.891
58603W        W18348  10.291  15.316   4.794
58604W        W18349  13.713  44.814  13.435
58605W        W18350  38.537  28.974  14.863
58606W        W18351   6.363  17.733  10.442
58607W        W18352  26.050  12.627  12.052
58608W        W18353   1.402  20.598   1.733
58609W        W18354   5.856  40.425  10.992
58610W        W18355   8.677   9.840  14.372
58611W        W18356   4.727   3.942   4.606
58612W        W18357   3.363  17.654   1.243
58613W        W18358  20.627  15.196  12.442
58614W        W18359  34.389  19.229   3.365
58615W        W18360  41.973  34.987  13.969
58616W        W18361  12.690   9.324   0.918
58617W        W18362  24.603  27.064  11.034
58618W        W18363  41.386   7.180   3.720
58619W        W18364  42.958  29.138   0.416
58620W        W18365  42.799  17.651   4.718
58621W        W18366  20.076  28.526  10.407
58622W        W18367  14.108   8.675   0.301
58623W        W18368  11.837  12.120   0.332
58624W        W18369  23.683  18.288   2.903
58625W        W18370  22.554  25.684  12.041
58626W        W18371  38.365  17.656   0.942
58627W        W18372  17.114  13.627   1.807
58628W        W18373  20.219  32.546  14.510
58629W        W18374  11.361  39.459  12.464
58630W        W18375  33.967  26.029  12.963
58631W        W18376  17.078  38.923  12.042
58632W        W18377  26.526  12.133   4.632
58633W        W18378  44.885  21.713  13.023
58634W        W18379  32.100  19.643  11.956
58635W        W18380  36.006   2.336   0.936
58636W        W18381  42.299  36.042  11.990
58637W        W18382  41.337  15.159  13.024
58638W        W18383   7.227   2.299  12.513
58639W        W18384   8.374  18.063   2.902
58640W        W18385   7.375  34.092   2.385
58641W        W18386  42.988  14.806  14.990
58642W        W18387   1.853  19.585   4.716
58643W        W18388  11.865  20.227  11.486
58644W        W18389  20.755  17.093   1.253
58645W        W18390   9.784  30.424   0.779
58646W        W18391   8.900   4.897  14.846
58647W        W18392  24.149  27.643  14.815
58648W        W18393  19.712  16.293  10.636
58649W        W18394  44.493  40.972   4.162
58650W        W18395  36.459  12.800  10.932
58651W        W18396  31.423   9.675   2.377
58652W        W18397  41.421  44.801   1.716
58653W        W18398  39.941  39.975   3.260
58654W        W18399  10.198  40.849   3.368
58655W        W18400   0.860  36.409  12.923
58656W        W18401  15.687  12.235  11.977
58657W        W18402  39.965  30.467  13.022
58658W        W18403  39.501  34.615   1.331
58659W        W18404  43.385   8.884   1.341
58660W        W18405  14.616   6.702   2.842
58661W        W18406  37.537  11.860  11.965
58662W        W18407  18.765  24.990   0.941
58663W        W18408  14.132  22.107  13.459
58664W        W18409  33.047  43.278  14.950
58665W        W18410  23.193  26.144  10.543
58666W        W18411   3.802  23.549   2.292
58667W        W18412   5.336  32.086  13.941
58668W        W18413   8.738   9.203   4.695
58669W        W18414  42.025  42.004  12.366
58670W        W18415  24.185  30.571   4.290
58671W        W18416   7.843  34.928   2.839
58672W        W18417  33.122   2.962  13.312
58673W        W18418   8.777  15.581   1.770
58674W        W18419  42.777   6.253  10.435
58675W        W18420  20.688   0.852   5.676
58676W        W18421   3.235  44.370   0.436
58677W        W18422   6.193  35.418  13.841
58678W        W18423  25.047  41.814  11.071
58679W        W18424   4.879  10.359  13.481
58680W        W18425  41.317  38.409  11.521
58681W        W18426  44.935  43.499   0.752
58682W        W18427   5.253  41.433  11.518
58683W        W18428  32.110  36.052  11.590
58684W        W18429   7.361  30.472  14.841
58685W        W18430  15.683  44.881   0.437
58686W        W18431   0.367  41.475  11.445
58687W        W18432  13.216  17.802  11.030
58688W        W18433  12.847  43.937  11.610
58689W        W18434  23.507  29.952   4.758
58690W        W18435  19.672  12.253   4.753
58691W        W18436  25.036  39.540   0.749
58692W        W18437   4.889  26.679  10.628
58693W        W18438  38.484  31.027   3.711
58694W        W18439  28.096  28.533  13.323
58695W        W18440  39.527  29.008   1.331
58696W        W18441  43.428  39.402  14.958
58697W        W18442  29.535  15.646  14.770
58698W        W18443  24.625  11.304  13.547
58699W        W18444  43.388  24.634   3.213
58700W        W18445  28.992  28.571  14.808
58701W        W18446  35.014  13.327   1.429
58702W        W18447  32.006  42.826  13.357
58703W        W18448  12.195  24.219   4.717
58704W        W18449  10.272  12.669  13.326
58705W        W18450  21.073  17.291   3.827
58706W        W18451  15.248  29.041   4.715
58707W        W18452  38.514   0.884  10.955
58708W        W18453   2.417  33.119  13.007
58709W        W18454   4.210  43.814   4.825
58710W        W18455  24.088  27.189   1.898
58711W        W18456  21.182  43.464  11.588
58712W        W18457  37.054  42.958   1.336
58713W        W18458  42.995  37.883  11.856
58714W        W18459  29.567  42.015   0.293
58715W        W18460  26.037  14.619   2.743
58716W        W18461   6.920   2.852  11.501
58717W        W18462  28.964  38.032  11.431
58718W        W18463  43.405   0.846  12.078
58719W        W18464  19.589  40.898  14.384
58720W        W18465  43.936  34.111  12.903
58721W        W18466  36.994  30.463   0.893
58722W        W18467   9.735  30.557   2.191
58723W        W18468  13.125  44.496  13.996
58724W        W18469  13.160   3.852  13.822
58725W        W18470   7.764  15.671   0.786
58726W        W18471  13.679  18.730   3.296
58727W        W18472  13.149  21.618  10.448
58728W        W18473  39.449  22.556   0.965
58729W        W18474  44.974  17.100  14.799
58730W        W18475   7.692  40.477  13.345
58731W        W18476  32.628  35.427   3.657
58732W        W18477   5.434  22.106   4.715
58733W        W18478  11.828  26.523   5.298
58734W        W18479  16.309  29.564   0.393
58735W        W18480  11.361  43.811   0.965
58736W        W18481   4.298  28.947  14.792
58737W        W18482  36.963  11.758   1.270
58738W        W18483  39.377  14.261  10.981
58739W        W18484  26.159  27.151  10.631
58740W        W18485  36.456  22.007   3.361
58741W        W18486   9.656  18.199  13.316
58742W        W18487  39.898  40.463  11.111
58743W        W18488  39.933  44.504  12.480
58744W        W18489  25.079  44.372  12.026
58745W        W18490  38.940   9.795  10.615
58746W        W18491  29.150  21.546  11.399
58747W        W18492  37.399  39.023  14.820
58748W        W18493  22.738  21.745  13.048
58749W        W18494  43.014  42.382   2.346
58750W        W18495   8.287  38.960   1.787
58751W        W18496  37.431   0.861  13.385
58752W        W18497  37.502   2.456   0.321
58753W        W18498  23.056  22.072   1.350
58754W        W18499  39.508  28.454  14.338
58755W        W18500  19.757   7.760  14.492
58756W        W18501  37.521   1.452  13.400
58757W        W18502   5.837  39.934   3.787
58758W        W18503   4.354  27.645  12.432
58759W        W18504  34.430  38.361   3.207
58760W        W18505  27.180  17.234  10.146
58761W        W18506  33.061  29.511  13.458
58762W        W18507   4.883  37.062   2.403
58763W        W18508   7.723  11.285  12.472
58764W        W18509  44.502  29.631  12.032
58765W        W18510  33.888  32.459  11.933
58766W        W18511  22.108  27.593  11.578
58767W        W18512  27.095  40.517  10.633
58768W        W18513  39.996  30.564  14.792
58769W        W18514  36.011  34.080  13.497
58770W        W18515  36.861  27.462   0.406
58771W        W18516  36.944  14.719   3.770
58772W        W18517  12.745  27.125   3.687
58773W        W18518  44.877  21.034   1.426
58774W        W18519  33.496  41.956   3.751
58775W        W18520  21.739  33.908   3.291
58776W        W18521  14.638  27.094   3.860
58777W        W18522   2.398   5.859   4.141
58778W        W18523   6.278   6.257   4.832
58779W        W18524  20.240   7.876  14.777
58780W        W18525  25.975  27.080   4.821
58781W        W18526  24.685  19.624   2.810
58782W        W18527  27.043  11.788   1.756
58783W        W18528  18.097  35.991   4.300
58784W        W18529  21.678  27.464   4.187
58785W        W18530  22.647   5.253   4.620
58786W        W18531  34.067   0.753  14.491
58787W        W18532  43.338   5.194   0.946
58788W        W18533  27.184  32.545  13.973
58789W        W18534  35.863  14.646  14.450
58790W        W18535   9.364   0.271  14.002
58791W        W18536  42.455   5.344  10.477
58792W        W18537  34.026   1.931  12.881
58793W        W18538   1.378  13.784  10.596
58794W        W18539  11.782   7.185   3.196
58795W        W18540  12.216  14.254   3.261
58796W        W18541  41.815  39.979   1.757
58797W        W18542  35.364  19.693  14.914
58798W        W18543  36.891   7.304   0.469
58799W        W18544   2.921   2.375  12.489
58800W        W18545  28.482  23.097   1.223
58801W        W18546  26.954  26.999   1.308
58802W        W18547  14.828  14.760  14.780
58803W        W18548  21.662  23.665  14.802
58804W        W18549  43.458  36.524   3.737
58805W        W18550  29.967   0.398   1.789
58806W        W18551  35.983  38.856   3.738
58807W        W18552   7.674  11.676   1.259
58808W        W18553  38.329  25.067   1.261
58809W        W18554  21.083   6.262   5.310
58810W        W18555  12.670  38.540   3.344
58811W        W18556  12.691  34.917  13.351
58812W        W18557  27.513   9.153   3.869
58813W        W18558   2.737  41.867   4.265
58814W        W18559  11.207   3.857   0.913
58815W        W18560  38.409   0.827  10.492
58816W        W18561  33.944  21.646   4.275
58817W        W18562   8.269   1.904  10.550
58818W        W18563  19.142  22.736  10.438
58819W        W18564  23.505  20.574   4.133
58820W        W18565  38.871  18.269   0.276
58821W        W18566  23.200  18.674  10.899
58822W        W18567  25.198  16.785   3.632
58823W        W18568  20.267  34.488   1.770
58824W        W18569  24.124  33.515  12.849
58825W        W18570  13.631  12.619  14.899
58826W        W18571  23.673  13.221   5.769
58827W        W18572  14.213  35.891   1.885
58828W        W18573   5.715  32.090  13.810
58829W        W18574  10.789  42.294  13.013
58830W        W18575  26.044  29.494   3.154
58831W        W18576  35.952   3.289   3.866
58832W        W18577   6.762  12.654  12.361
58833W        W18578  41.007  11.771  11.377
58834W        W18579  17.682  31.640  13.055
58835W        W18580  20.073  23.161  11.085
58836W        W18581  30.056  44.311   2.312
58837W        W18582  31.643  37.958  13.984
58838W        W18583   8.379   3.242  13.885
58839W        W18584   3.306  31.621   3.329
58840W        W18585   3.740  11.693  13.978
58841W        W18586   9.835  32.392   3.854
58842W        W18587  18.765   8.719  14.350
58843W        W18588  40.971  23.652  14.859
58844W        W18589  19.757  16.161  12.364
58845W        W18590  28.961  40.021  11.597
58846W        W18591   8.251  42.004   4.272
58847W        W18592  34.024  11.666  11.440
58848W        W18593  23.077   0.312   3.709
58849W        W18594  24.670  22.047   3.169
58850W        W18595  18.142  10.305  11.001
58851W        W18596  13.209  40.874   1.748
58852W        W18597  17.657  43.433  11.075
58853W        W18598  36.062  44.896   3.768
58854W        W18599  13.781  32.953   2.230
58855W        W18600  15.249   4.434   1.841
58856W        W18601  12.661  23.029  13.522
58857W        W18602   9.365  44.377   0.876
58858W        W18603  11.203  38.062   3.651
58859W        W18604   7.730  18.249  14.020
58860W        W18605  36.557  13.245   1.721
58861W        W18606  24.553   2.756  13.978
58862W        W18607  19.059  42.947   0.298
58863W        W18608  17.266  21.541  14.020
58864W        W18609   9.748  28.049  11.539
58865W        W18610  29.491   1.289   3.674
58866W        W18611  31.461   2.317  14.003
58867W        W18612  41.822  22.581   1.391
58868W        W18613   8.877  35.951  11.043
58869W        W18614   5.377   5.332  14.315
58870W        W18615   5.794  14.117  11.865
58871W        W18616  38.396   4.433  11.372
58872W        W18617  41.853  16.649   2.310
58873W        W18618   9.667  33.989   1.295
58874W        W18619   3.851   0.438  13.805
58875W        W18620   0.897   5.377   1.707
58876W        W18621   8.227  25.639  10.554
58877W        W18622  20.660  25.644  11.410
58878W        W18623  34.009  10.383   3.330
58879W        W18624  42.005  37.832   2.410
58880W        W18625  38.500  10.219  14.302
58881W        W18626  14.653  28.946  10.625
58882W        W18627  35.005  22.516   3.846
58883W        W18628  21.602  37.938  12.089
58884W        W18629  24.515  15.195  10.580
58885W        W18630   4.883  33.622   4.619
58886W        W18631  32.603  22.618  10.464
58887W        W18632   9.661  16.595  14.773
58888W        W18633  32.972   9.216   2.856
58889W        W18634  40.327   3.848   1.803
58890W        W18635  41.011  13.216   3.646
58891W        W18636  11.152  29.592  12.432
58892W        W18637  36.881  28.034  12.525
58893W        W18638  12.699  26.460   1.709
58894W        W18639  27.052  38.966  10.597
58895W        W18640  33.028  43.496   0.836
58896W        W18641  14.807   3.879  13.812
58897W        W18642   7.783  10.666  10.922
58898W        W18643   0.810  35.522  12.060
58899W        W18644  41.360  28.442   2.184
58900W        W18645   6.891  41.853   4.172
58901W        W18646   5.255  44.275  12.405
58902W        W18647  17.747   6.367  10.042
58903W        W18648  34.518  38.510   2.884
58904W        W18649  14.828   8.205  13.860
58905W        W18650  28.513  22.245  11.554
58906W        W18651  40.368  33.566  12.376
58907W        W18652   7.386  23.538  12.358
58908W        W18653  17.725  13.746   3.261
58909W        W18654  21.035   4.760  10.957
58910W        W18655  39.413  35.391   1.713
58911W        W18656  20.095   2.791   2.366
58912W        W18657   0.837   9.672   0.321
58913W        W18658  34.077  28.103  12.407
58914W        W18659  13.142  31.914   3.195
58915W        W18660   1.295  39.065   2.346
58916W        W18661   0.282  32.928  14.469
58917W        W18662  13.177  20.104   1.251
58918W        W18663  12.709  24.089  12.552
58919W        W18664  32.960  33.016   3.841
58920W        W18665  30.003  27.001   3.192
58921W        W18666   9.174   0.828  12.986
58922W        W18667   0.361  18.558  12.416
58923W        W18668  17.113  17.687  11.872
58924W        W18669  17.724  10.141   1.398
58925W        W18670  39.923  38.403  10.971
58926W        W18671  11.357  19.120   3.847
58927W        W18672  18.606  44.774   4.733
58928W        W18673   4.866  25.199  14.029
58929W        W18674  42.937  14.130  14.760
58930W        W18675   0.401  27.649   3.168
58931W        W18676  15.717  43.370  12.928
58932W        W18677  11.736  41.380  10.585
58933W        W18678  14.667  19.235   4.119
58934W        W18679  18.776  11.753   0.455
58935W        W18680  34.495  18.627  11.997
58936W        W18681   8.323  11.341  12.044
58937W        W18682  44.010   5.275  11.509
58938W        W18683   2.414   1.809   3.720
58939W        W18684  26.130  31.476  13.052
58940W        W18685  16.720  15.726  13.044
58941W        W18686   3.715  16.766  12.954
58942W        W18687  20.152  38.995  10.063
58943W        W18688  20.204  35.524   1.305
58944W        W18689  37.928  22.131  11.510
58945W        W18690  42.959   7.816   0.936
58946W        W18691  32.517  30.656   4.623
58947W        W18692  13.269  18.232  13.499
58948W        W18693  32.121   5.227  14.900
58949W        W18694  28.060   3.458   3.846
58950W        W18695  19.547  28.091   2.829
58951W        W18696   6.217  17.227   3.360
58952W        W18697  35.395  22.642   0.400
58953W        W18698  31.607  39.830   1.828
58954W        W18699  25.044  14.690  13.375
58955W        W18700  13.698  27.484   0.477
58956W        W18701  27.554  24.489   3.346
58957W        W18702  29.167   4.445   1.329
58958W        W18703  21.740  12.803   0.305
58959W        W18704  36.090  23.162  13.500
58960W        W18705  26.139   3.903  14.816
58961W        W18706  13.179  43.859   1.767
58962W        W18707   9.781  31.950   0.413
58963W        W18708  35.026   6.792   3.716
58964W        W18709   5.920  11.799   4.167
58965W        W18710  15.736   4.934  11.065
58966W        W18711  19.176  38.518   3.263
58967W        W18712  21.163  11.263  10.040
58968W        W18713  33.408  30.149  13.539
58969W        W18714   4.367  30.608  11.405
58970W        W18715  37.843  19.252   1.765
58971W        W18716  13.148  26.037   3.281
58972W        W18717  36.975   0.979   0.470
58973W        W18718  20.163  25.646   3.226
58974W        W18719  42.449   8.702   4.737
58975W        W18720  27.606  23.172   0.441
58976W        W18721  23.514  35.493   3.290
58977W        W18722  37.420   0.788  11.532
58978W        W18723  12.297   1.269  11.999
58979W        W18724  14.634   8.735   5.264
58980W        W18725  36.414  25.565   0.750
58981W        W18726  24.611  34.898   1.813
58982W        W18727   2.962  10.755   4.184
58983W        W18728  32.010  10.843   4.120
58984W        W18729  44.793  32.954  12.050
58985W        W18730   2.227  18.699  13.952
58986W        W18731   4.250   1.846   3.849
58987W        W18732  42.321  31.593   3.737
58988W        W18733  42.935   7.326  10.938
58989W        W18734  41.028   4.381  11.991
58990W        W18735  27.465  17.585   0.364
58991W        W18736  42.421  18.056  10.409
58992W        W18737  10.739   4.727  14.486
58993W        W18738   2.296  33.421   2.320
58994W        W18739  25.624  16.661  13.548
58995W        W18740  31.507  17.271  14.833
58996W        W18741   9.827  30.076   1.883
58997W        W18742  38.348  40.484  13.046
58998W        W18743   0.980  34.053   3.225
58999W        W18744   7.402  30.163  12.994
59000W        W18745  29.943  11.150   2.707
59001W        W18746  26.992  35.420   2.805
59002W        W18747  27.509  14.619   3.260
59003W        W18748  17.717   1.782   2.791
59004W        W18749  44.492  30.912  10.420
59005W        W18750  41.968  14.320  13.977
59006W        W18751  23.576  35.858  12.394
59007W        W18752   3.239  37.876   3.720
59008W        W18753   0.253  33.013  11.946
59009W        W18754  15.686  18.241   1.822
59010W        W18755   3.740  27.074  13.923
59011W        W18756  34.497  34.549   4.123
59012W        W18757   0.984  25.161  14.873
59013W        W18758  15.292  19.103  10.892
59014W        W18759  23.590  38.986  10.457
59015W        W18760   1.858  12.312  11.507
59016W        W18761  33.490  15.304   1.870
59017W        W18762  29.481  40.373  10.148
59018W        W18763  16.269  38.004  12.409
59019W        W18764  29.993  11.726   4.733
59020W        W18765  11.721  41.967   9.990
59021W        W18766  20.226  41.296   0.329
59022W        W18767  41.339   7.336   0.964
59023W        W18768  24.117  38.380  12.343
59024W        W18769  13.211   7.355  11.458
59025W        W18770  11.345  27.077  14.348
59026W        W18771  31.574  12.213   3.311
59027W        W18772  32.078   7.295  10.110
59028W        W18773  21.731  26.620  11.953
59029W        W18774  37.430  43.881   3.200
59030W        W18775  31.547  23.668  14.404
59031W        W18776  37.578  23.610  12.432
59032W        W18777  26.000  17.098  13.925
59033W        W18778  18.237  37.407   2.753
59034W        W18779  13.149  38.347   4.599
59035W        W18780   7.379  17.588  11.119
59036W        W18781  11.839  42.410  10.532
59037W        W18782  32.100  34.380  14.469
59038W        W18783   1.765  37.914   0.361
59039W        W18784  31.113  35.370  12.426
59040W        W18785  43.323  18.688   1.931
59041W        W18786  34.864  43.476  11.017
59042W        W18787  37.477   0.943  12.001
59043W        W18788   9.240  18.789  11.581
59044W        W18789  40.439  25.690   0.283
59045W        W18790   3.310   9.647   1.211
59046W        W18791  29.591  11.372   1.436
59047W        W18792   4.275   9.306  12.429
59048W        W18793  32.124  23.619  14.405
59049W        W18794  44.926   8.201   3.758
59050W        W18795   6.359  29.925   0.738
59051W        W18796  15.148  19.104  12.487
59052W        W18797  13.198   4.769  11.036
59053W        W18798   8.807   9.286   1.284
59054W        W18799  18.730   3.712  13.348
59055W        W18800  31.058  38.469   3.720
59056W        W18801  28.076  34.998   3.778
59057W        W18802   5.866   6.862   3.846
59058W        W18803  36.954  40.513  11.100
59059W        W18804   4.889  25.172  14.908
59060W        W18805  26.533  12.762   5.174
59061W        W18806  29.062  38.887  12.957
59062W        W18807  26.556  24.544   4.753
59063W        W18808  11.711  11.842  12.836
59064W        W18809  42.931  30.909  11.464
59065W        W18810  19.116   0.343   3.375
59066W        W18811   1.353  23.144  14.840
59067W        W18812   0.949  34.527  13.536
59068W        W18813   9.769   0.958   3.312
59069W        W18814   7.322  19.153  14.314
59070W        W18815  14.735  12.791   3.377
59071W        W18816  18.663  44.411   3.732
59072W        W18817  14.311  37.866   1.439
59073W        W18818  18.220   2.791  13.049
59074W        W18819  34.474  23.517   0.742
59075W        W18820  17.248   9.246   0.887
59076W        W18821   2.835  42.396   1.253
59077W        W18822  11.816  13.147   0.406
59078W        W18823  29.065  27.455  12.495
59079W        W18824  24.101  11.197  11.605
59080W        W18825   5.406  17.244   9.517
59081W        W18826  36.864  14.759  11.455
59082W        W18827  41.385  22.200  12.363
59083W        W18828  11.221  32.405  14.322
59084W        W18829  44.834  29.046  14.848
59085W        W18830   7.902   3.318  13.034
59086W        W18831  44.436   0.306  10.037
59087W        W18832  44.847  17.280   4.727
59088W        W18833  17.306   7.898  12.845
59089W        W18834  25.568  38.354  14.847
59090W        W18835   7.216  25.969   0.409
59091W        W18836  21.637  42.468   4.267
59092W        W18837  12.312   4.438  14.823
59093W        W18838   8.801  31.079   0.907
59094W        W18839  28.179  37.514  13.872
59095W        W18840  36.456  36.904  14.959
59096W        W18841  21.048  17.633  11.389
59097W        W18842  10.722   0.379   3.745
59098W        W18843  36.870  41.000  11.903
59099W        W18844  40.462  37.074   3.369
59100W        W18845  38.860  12.290  12.941
59101W        W18846  18.740  14.201   2.826
59102W        W18847  17.207  22.006   1.718
59103W        W18848  26.663  32.014   4.836
59104W        W18849  12.224  23.175  14.470
59105W        W18850  30.455  24.624   3.721
59106W        W18851  30.955  35.394   4.340
59107W        W18852  10.644  41.499   1.220
59108W        W18853   9.379   2.791   3.722
59109W        W18854  34.061   9.158   4.680
59110W        W18855  28.093  24.511   9.966
59111W        W18856  31.460   7.665  14.996
59112W        W18857  32.114  10.200   1.758
59113W        W18858  21.191  42.445  14.974
59114W        W18859  43.888  25.162  11.937
59115W        W18860  24.606   5.857   0.926
59116W        W18861  25.507   6.916   1.368
59117W        W18862  35.954   2.444   2.179
59118W        W18863  19.726  27.603   0.324
59119W        W18864  39.049  43.449   2.205
59120W        W18865   6.804   3.818  13.001
59121W        W18866  28.130  41.944  13.982
59122W        W18867  42.805  25.664  11.401
59123W        W18868  11.654  43.293   2.800
59124W        W18869   4.850  14.607   1.921
59125W        W18870   4.349   7.759   4.200
59126W        W18871   6.891   8.221  10.522
59127W        W18872  39.319  30.513  11.888
59128W        W18873  37.009  31.961  13.401
59129W        W18874  38.968  36.962   5.274
59130W        W18875  16.589  22.709  11.093
59131W        W18876   4.440   0.813  12.949
59132W        W18877  33.125  39.508  14.404
59133W        W18878  30.086  16.151   2.310
59134W        W18879  37.041  40.832   2.280
59135W        W18880  38.435  12.628  13.922
59136W        W18881  36.016   6.289  13.493
59137W        W18882  18.580   1.274   2.183
59138W        W18883  42.417  38.977  14.870
59139W        W18884  33.394  41.923  11.093
59140W        W18885  25.190   6.827   4.599
59141W        W18886  24.130   9.247   0.335
59142W        W18887  29.029  17.640  12.576
59143W        W18888  22.740  40.469   3.735
59144W        W18889   5.776  44.394  10.633
59145W        W18890  35.917  23.226   4.149
59146W        W18891   6.326  44.842  10.613
59147W        W18892  34.375  30.526   2.201
59148W        W18893  31.401  26.998   1.398
59149W        W18894   8.893  36.083   9.940
59150W        W18895  18.183  16.727   3.733
59151W        W18896  31.566  34.489   1.212
59152W        W18897  39.016   8.805   0.414
59153W        W18898  44.476  21.125  11.875
59154W        W18899  15.630  44.970   1.281
59155W        W18900   5.868  21.147  12.519
59156W        W18901  35.506  30.613  10.912
59157W        W18902  27.081   3.364  12.960
59158W        W18903  33.984  36.410  11.457
59159W        W18904  40.047  38.479  13.334
59160W        W18905  22.147   1.843  13.880
59161W        W18906  17.616  34.373   3.327
59162W        W18907  23.541   5.375  13.480
59163W        W18908  24.215  19.676  11.521
59164W        W18909  22.175  24.052   2.261
59165W        W18910  12.118  18.212  11.584
59166W        W18911  33.502  16.284   4.208
59167W        W18912   5.434  25.153   1.715
59168W        W18913  36.538  33.036  14.426
59169W        W18914  10.647  40.915  11.060
59170W        W18915  20.701  36.973   2.675
59171W        W18916   2.838   9.312   4.309
59172W        W18917  19.578  17.623   2.204
59173W        W18918  25.662  35.010   3.166
59174W        W18919  28.946  43.297   3.381
59175W        W18920  33.543  16.274  13.918
59176W        W18921  38.341  35.405   2.674
59177W        W18922  34.466  41.882   2.825
59178W        W18923  24.525  37.881  12.349
59179W        W18924  14.315  34.025  10.158
59180W        W18925  21.127  11.851   4.678
59181W        W18926  26.208  35.479   3.356
59182W        W18927   8.259  43.932   2.854
59183W        W18928  34.015  11.759  14.881
59184W        W18929  13.286  38.934  10.498
59185W        W18930   3.443  21.062   1.393
59186W        W18931  26.002  24.700  10.471
59187W        W18932  39.463  41.451  14.804
59188W        W18933  14.749  32.015   1.704
59189W        W18934  12.689  36.908  14.889
59190W        W18935  12.816   1.758  12.858
59191W        W18936  44.820  32.113   0.320
59192W        W18937  37.411  25.649   0.351
59193W        W18938   0.356  38.056  13.520
59194W        W18939  13.629  30.419  13.853
59195W        W18940  27.569  34.055  14.990
59196W        W18941   3.394   9.230  12.958
59197W        W18942  10.837  34.985   0.735
59198W        W18943  21.535   5.367   3.770
59199W        W18944  36.548  36.465   1.386
59200W        W18945  16.295   1.836  10.410
59201W        W18946  39.876  17.069  10.581
59202W        W18947  41.855  12.130   2.803
59203W        W18948  25.063  36.537   1.812
59204W        W18949  31.549  39.854  13.493
59205W        W18950   5.718  35.065  13.890
59206W        W18951   3.397   2.859  13.450
59207W        W18952   5.385  31.437  13.311
59208W        W18953  11.763   4.246  14.988
59209W        W18954  13.799  38.015  12.552
59210W        W18955  30.567  30.936  14.926
59211W        W18956  20.033   5.322  13.421
59212W        W18957  39.914  43.325  10.612
59213W        W18958  44.418  23.681   3.297
59214W        W18959   1.886   3.435   2.327
59215W        W18960  21.576  35.001   1.777
59216W        W18961  41.016   1.745  13.064
59217W        W18962  16.632   5.711   1.880
59218W        W18963   7.896  22.687  14.920
59219W        W18964  41.038  32.898  11.387
59220W        W18965   3.436  43.845   0.838
59221W        W18966  15.248  36.941   1.906
59222W        W18967  17.217  18.558  10.046
59223W        W18968  27.546  38.408  14.437
59224W        W18969  35.536   5.256   3.657
59225W        W18970  43.805   5.365  14.495
59226W        W18971  34.026  13.792   0.814
59227W        W18972  28.560   1.901  10.474
59228W        W18973   6.904   4.296   1.318
59229W        W18974   6.324   9.327   3.769
59230W        W18975  18.681  26.983  12.449
59231W        W18976   1.437  20.156  10.644
59232W        W18977  13.198  38.030   2.662
59233W        W18978   4.708  25.596   0.732
59234W        W18979  19.597  28.587   2.726
59235W        W18980  16.147  44.845  14.002
59236W        W18981  17.098   4.320   4.156
59237W        W18982  33.523  15.822   5.151
59238W        W18983  40.377  13.221  12.369
59239W        W18984  44.917   4.857  10.526
59240W        W18985  11.309   5.688  10.508
59241W        W18986  43.850  41.340   1.316
59242W        W18987  44.275  33.952   4.152
59243W        W18988   9.698  16.632  10.956
59244W        W18989  14.763  41.948   3.322
59245W        W18990  14.692  21.560  11.604
59246W        W18991  37.338  22.646  13.858
59247W        W18992  17.668  22.699  12.393
59248W        W18993  12.130   7.708   2.711
59249W        W18994  12.252  28.672  14.290
59250W        W18995  43.345  20.119  12.002
59251W        W18996  39.038  37.576  11.460
59252W        W18997  35.524  36.051   1.283
59253W        W18998  36.549  28.023  12.550
59254W        W18999  14.676  29.571   4.650
59255W        W19000  31.492  15.719  14.892
59256W        W19001  42.984   0.857  10.934
59257W        W19002  41.873  22.022  12.350
59258W        W19003  42.429  36.886  11.472
59259W        W19004  27.036  31.437   4.627
59260W        W19005  43.872  37.043  13.326
59261W        W19006  30.531  23.001  10.613
59262W        W19007   0.273  26.657  12.053
59263W        W19008   2.393  34.387  12.978
59264W        W19009  15.187   0.811  12.029
59265W        W19010  16.121   0.945  10.490
59266W        W19011  32.476  11.691  12.924
59267W        W19012   2.784  16.168  12.050
59268W        W19013  25.577  12.813   2.818
59269W        W19014  24.713  35.513   1.217
59270W        W19015  38.419  44.850  12.832
59271W        W19016   2.909  26.013   2.211
59272W        W19017   7.793  23.024   4.760
59273W        W19018   7.904  33.603   2.391
59274W        W19019  27.960   0.900  10.417
59275W        W19020  26.111   8.725  11.882
59276W        W19021  22.161  25.963  12.505
59277W        W19022  11.312  26.060  11.587
59278W        W19023   9.379   4.243   0.455
59279W        W19024  19.562  12.301   3.328
59280W        W19025  17.235  36.553   2.719
59281W        W19026  38.537  30.930   0.389
59282W        W19027  32.918  15.763   0.880
59283W        W19028   6.248  22.688  11.591
59284W        W19029  30.509  32.064   5.088
59285W        W19030  22.503  23.660   0.411
59286W        W19031   5.698  39.340  10.894
59287W        W19032  40.390   3.835   4.184
59288W        W19033  23.997  15.823   0.326
59289W        W19034  15.309  23.029  10.638
59290W        W19035  27.656   5.694   0.425
59291W        W19036  17.225  12.825   4.331
59292W        W19037  28.453  38.476  12.549
59293W        W19038   5.800  16.689  12.521
59294W        W19039  26.114   9.194  12.027
59295W        W19040  43.480  25.472  13.342
59296W        W19041  20.724  12.792   4.150
59297W        W19042  37.495  13.813  14.983
59298W        W19043   9.226  13.318   3.653
59299W        W19044   5.393  43.446  11.433
59300W        W19045   1.263  31.646  13.973
59301W        W19046  13.757  35.517  12.342
59302W        W19047  17.298  43.791  11.945
59303W        W19048  44.921  33.521   1.816
59304W        W19049  39.995  31.976   2.350
59305W        W19050  35.549  13.299   1.741
59306W        W19051  43.440   1.381  14.911
59307W        W19052  43.401  14.173   3.318
59308W        W19053  36.352  41.334  12.831
59309W        W19054  38.445  31.412   0.949
59310W        W19055   2.858   9.192   3.825
59311W        W19056  34.550  34.035   1.328
59312W        W19057   5.712  37.989   2.416
59313W        W19058  44.837   2.305   4.261
59314W        W19059   1.733   8.165  11.085
59315W        W19060  31.926   6.349   3.677
59316W        W19061   5.861  42.780   4.260
59317W        W19062  31.477  20.216   2.854
59318W        W19063  26.579  30.068   3.376
59319W        W19064  33.057  15.091  10.430
59320W        W19065  23.220  27.944  11.055
59321W        W19066   0.444  29.009   3.737
59322W        W19067  37.354  32.540  10.611
59323W        W19068  25.198  29.617  14.786
59324W        W19069  34.072  37.926   2.898
59325W        W19070  40.419  20.190   3.820
59326W        W19071  14.138  18.558  11.897
59327W        W19072  28.553  13.169   1.827
59328W        W19073  31.120   2.257   0.863
59329W        W19074   9.835  11.360   0.839
59330W        W19075  10.152   6.842   1.840
59331W        W19076  34.600  17.174   0.321
59332W        W19077  25.207  29.547  14.333
59333W        W19078  41.405  13.326  14.385
59334W        W19079  26.457  22.222  13.532
59335W        W19080   7.358  42.959   1.329
59336W        W19081  23.490  35.900   2.200
59337W        W19082  30.950  32.400  11.493
59338W        W19083  22.169  32.531   1.215
59339W        W19084  41.455  23.175   4.285
59340W        W19085  39.018  39.353   4.663
59341W        W19086  26.004  29.426   1.279
59342W        W19087  21.142  30.916   0.386
59343W        W19088  23.543   6.259   4.143
59344W        W19089  17.675   5.827   4.296
59345W        W19090   4.438   2.231   2.194
59346W        W19091  19.573  17.650   4.716
59347W        W19092  35.907  18.578   3.820
59348W        W19093  39.808  13.701   0.432
59349W        W19094  10.639  43.783   1.332
59350W        W19095  43.486  37.869   1.437
59351W        W19096  20.718  31.945   2.284
59352W        W19097  37.871  39.456  11.055
59353W        W19098   7.878  42.526   0.820
59354W        W19099  15.304  35.518   0.250
59355W        W19100  31.062  10.189   3.283
59356W        W19101  10.741  31.640  10.548
59357W        W19102  10.798  39.866   1.448
59358W        W19103  11.742  36.846  12.916
59359W        W19104  36.369   9.245   1.356
59360W        W19105  14.244  13.236   0.744
59361W        W19106   4.323  41.840   4.714
59362W        W19107  21.564   7.904  13.029
59363W        W19108  18.693  29.592   4.344
59364W        W19109  16.766  41.013  11.896
59365W        W19110   5.775   9.882   0.804
59366W        W19111  14.615   1.911  12.834
59367W        W19112   0.381   5.302   3.346
59368W        W19113  27.107  43.441   2.356
59369W        W19114  27.959  26.646   5.183
59370W        W19115   2.271   5.287  10.978
59371W        W19116  19.543  10.769   3.659
59372W        W19117  34.589  43.830  11.606
59373W        W19118  39.416   2.320  14.364
59374W        W19119  10.644  29.016  13.470
59375W        W19120   4.328  22.185   3.290
59376W        W19121  22.527  25.469   1.434
59377W        W19122  39.530  30.505  11.034
59378W        W19123   3.857  32.020  14.805
59379W        W19124  26.604  24.196   2.258
59380W        W19125   4.224  29.661  14.450
59381W        W19126  36.548   5.807  13.821
59382W        W19127   2.351  36.409   4.645
59383W        W19128   5.245  32.402  11.008
59384W        W19129  17.768  23.006  12.060
59385W        W19130   1.445  12.796  13.975
59386W        W19131  29.929   4.365  14.822
59387W        W19132  14.754  43.438  11.438
59388W        W19133  44.011  19.103  11.414
59389W        W19134  27.543   5.194   1.775
59390W        W19135  29.962  29.030   2.843
59391W        W19136  15.231  13.680   4.797
59392W        W19137  32.081  17.799   4.234
59393W        W19138  17.779  28.129   2.332
59394W        W19139   0.968  42.360  13.546
59395W        W19140  14.220  13.759   4.316
59396W        W19141   1.460   9.691   2.388
59397W        W19142  38.493  18.652   3.363
59398W        W19143  10.788  23.202   0.807
59399W        W19144  13.253   7.359  10.534
59400W        W19145  17.184  30.552   4.745
59401W        W19146  39.024   1.893   3.671
59402W        W19147   2.748  44.859  14.968
59403W        W19148  20.034  44.437   0.378
59404W        W19149  34.387  42.932   1.309
59405W        W19150  12.122   3.791  11.069
59406W        W19151  35.393  29.641   2.305
59407W        W19152  18.058   4.329   3.751
59408W        W19153  18.260   4.708   4.630
59409W        W19154  22.715  16.199   2.231
59410W        W19155  34.376  20.095   1.805
59411W        W19156   9.320  38.068  14.762
59412W        W19157  44.988   6.684   3.342
59413W        W19158  35.479  33.445   4.184
59414W        W19159  44.798   4.242   1.303
59415W        W19160  35.421  16.197   1.787
59416W        W19161  10.779  30.012  10.928
59417W        W19162  34.523  42.809  12.533
59418W        W19163  18.051  27.519  11.055
59419W        W19164   2.412  43.913  14.000
59420W        W19165  35.390  31.100  14.781
59421W        W19166  26.566  13.248   4.681
59422W        W19167   0.282  18.711   0.949
59423W        W19168   0.790   4.212   1.401
59424W        W19169  24.529  22.718   1.818
59425W        W19170  29.426  27.480  13.952
59426W        W19171  34.538  34.969  12.868
59427W        W19172  27.530  34.875  13.812
59428W        W19173  31.936  13.307  12.438
59429W        W19174  34.970  14.288   2.664
59430W        W19175  42.929  20.261   0.749
59431W        W19176  18.718   0.855   2.853
59432W        W19177  13.231  23.014   2.345
59433W        W19178  28.467  29.005   1.381
59434W        W19179  28.022  19.698  11.603
59435W        W19180  11.732  16.733   0.353
59436W        W19181  25.994  14.792  14.508
59437W        W19182  39.933  25.620   2.745
59438W        W19183  26.183  12.654   2.853
59439W        W19184  43.969  13.330   3.764
59440W        W19185  41.326   4.819   2.287
59441W        W19186  22.076  43.767  14.838
59442W        W19187   7.370  20.708   3.259
59443W        W19188  33.386   3.339  13.029
59444W        W19189   3.796  44.387  14.961
59445W        W19190  21.683  44.770   2.795
59446W        W19191  23.566   4.840   3.782
59447W        W19192  24.592  35.105   3.823
59448W        W19193  38.454  12.180  11.012
59449W        W19194  36.859   2.450   3.736
59450W        W19195  38.887  10.691  12.903
59451W        W19196   9.229  33.000   0.821
59452W        W19197  40.437   6.262  13.401
59453W        W19198   8.290  43.001   1.816
59454W        W19199  22.533   1.871  11.951
59455W        W19200  39.054   3.457  10.633
59456W        W19201  21.601  43.894   0.820
59457W        W19202  25.052  27.515  12.539
59458W        W19203  23.611  27.959  14.290
59459W        W19204  40.916  14.821   2.702
59460W        W19205  29.591   1.482  12.882
59461W        W19206  36.392  31.566  10.595
59462W        W19207  32.056  19.780   1.810
59463W        W19208  30.924  41.333   4.319
59464W        W19209  25.605  26.578   4.243
59465W        W19210   8.282  30.597   0.744
59466W        W19211  26.519   2.382   3.674
59467W        W19212  25.088   1.747  12.848
59468W        W19213   4.843  12.846   3.865
59469W        W19214  36.956  38.932   4.692
59470W        W19215  17.575  29.574  11.580
59471W        W19216  21.142  34.464  14.406
59472W        W19217  27.187  44.785   2.333
59473W        W19218  17.772   2.376   0.314
59474W        W19219  44.305  41.300   0.374
59475W        W19220  25.101   8.866  11.429
59476W        W19221  26.090  18.586   0.824
59477W        W19222  21.104  20.744  11.966
59478W        W19223  27.974  43.463   0.896
59479W        W19224  16.156  39.413  12.008
59480W        W19225  37.964  11.269  13.015
59481W        W19226   9.712  16.641   3.191
59482W        W19227   1.390  35.549   1.756
59483W        W19228  21.712  38.946  13.403
59484W        W19229  21.212  43.934  14.007
59485W        W19230  31.508  25.049   2.824
59486W        W19231  40.453  15.283  13.966
59487W        W19232  20.220   8.222   1.820
59488W        W19233  21.561  12.182   3.153
59489W        W19234   3.900  29.965   3.774
59490W        W19235  19.117   5.753  12.033
59491W        W19236  40.476  17.800  14.454
59492W        W19237  17.711  27.464  11.476
59493W        W19238  13.738  10.357  12.574
59494W        W19239  41.979  15.823  10.561
59495W        W19240  36.454   1.754   1.375
59496W        W19241  41.460  37.882   1.820
59497W        W19242  35.384   3.814   4.838
59498W        W19243   8.367   9.199   3.292
59499W        W19244   8.722  39.476  10.571
59500W        W19245  33.614  11.315  11.588
59501W        W19246  39.532  23.591   1.260
59502W        W19247  10.311  21.743   1.419
59503W        W19248  32.589  39.474  10.963
59504W        W19249  38.542   2.781   4.142
59505W        W19250  18.734  33.991  11.396
59506W        W19251  24.636  30.088  14.778
59507W        W19252  13.658  12.778   4.192
59508W        W19253  26.955  31.981  14.762
59509W        W19254  38.469  18.627   0.740
59510W        W19255  41.406  11.365  12.416
59511W        W19256  12.243  19.055  14.801
59512W        W19257  30.522  43.358   2.282
59513W        W19258  42.508  33.989  12.411
59514W        W19259  21.187  24.085  12.994
59515W        W19260  41.843  40.322   4.194
59516W        W19261  35.947   8.838  13.917
59517W        W19262   0.832  36.372   9.485
59518W        W19263  15.806  27.122  10.992
59519W        W19264  13.632  21.524   4.687
59520W        W19265  16.134  25.575   3.153
59521W        W19266  31.401  27.962   9.971
59522W        W19267  12.289   9.649  11.038
59523W        W19268  11.684  26.633   3.822
59524W        W19269  16.312  42.973  13.012
59525W        W19270   6.794  18.753  14.365
59526W        W19271  18.064  36.993  11.947
59527W        W19272  39.989  34.591   2.362
59528W        W19273  19.180  36.967   4.655
59529W        W19274  19.656  22.703  13.371
59530W        W19275  24.563  34.434  12.939
59531W        W19276  19.221  15.323   4.598
59532W        W19277   1.885  33.893   3.368
59533W        W19278  13.663  18.241  10.936
59534W        W19279   3.723  16.677   4.114
59535W        W19280  10.868  29.490   3.253
59536W        W19281   1.946  22.693   4.165
59537W        W19282  36.411  16.192   0.298
59538W        W19283  15.656  20.081   2.381
59539W        W19284  13.603  13.749   4.826
59540W        W19285  27.128  40.522   4.610
59541W        W19286   9.383  12.122  13.536
59542W        W19287  36.028  22.123   2.829
59543W        W19288   1.947   2.469   2.402
59544W        W19289  16.799  25.113  12.873
59545W        W19290  15.199  10.163   3.826
59546W        W19291   1.735  38.542  11.990
59547W        W19292  12.760   4.847   3.278
59548W        W19293   5.331  43.866  13.464
59549W        W19294  26.588  24.581  11.473
59550W        W19295  35.473  22.709  11.502
59551W        W19296   8.181   6.412   4.134
59552W        W19297   5.774  36.374   1.872
59553W        W19298  24.585  41.344   4.326
59554W        W19299  16.099  22.024  11.900
59555W        W19300  27.020  17.085   4.297
59556W        W19301  42.872  10.738   0.308
59557W        W19302   5.251  39.834   1.313
59558W        W19303   1.270  22.122  11.576
59559W        W19304  12.124  17.084  11.518
59560W        W19305  44.453  40.320   4.225
59561W        W19306   6.793   3.367  11.907
59562W        W19307  33.474  23.631   4.733
59563W        W19308  25.570  18.148   3.378
59564W        W19309  21.634  41.343  13.820
59565W        W19310   1.333  19.219  14.785
59566W        W19311   0.367  11.316  12.395
59567W        W19312  31.415  44.887  10.617
59568W        W19313  19.283   5.753  14.006
59569W        W19314  19.625   3.944   1.225
59570W        W19315   1.467  29.167  13.417
59571W        W19316  31.013  11.266   0.812
59572W        W19317  26.691  38.474  11.062
59573W        W19318  37.573  31.926   2.673
59574W        W19319  20.164   3.297  11.024
59575W        W19320  13.130   4.293   2.792
59576W        W19321  34.979  25.198  11.076
59577W        W19322  28.578   7.264  12.488
59578W        W19323  26.098  32.002  14.512
59579W        W19324  10.741   9.325   4.308
59580W        W19325  30.483   5.256   1.248
59581W        W19326  37.859  36.929   4.728
59582W        W19327   3.931  43.881  14.872
59583W        W19328  27.677  15.622  13.403
59584W        W19329  24.550  44.933   3.197
59585W        W19330  29.515  20.083  10.962
59586W        W19331  24.560  28.587  12.376
59587W        W19332  16.217  19.701   0.406
59588W        W19333  29.998  23.702  13.323
59589W        W19334  25.497  26.475   0.845
59590W        W19335  10.772  43.906  13.894
59591W        W19336  37.539  22.242   2.251
59592W        W19337  14.216  28.986   4.615
59593W        W19338   7.415  39.010   1.376
59594W        W19339  22.216  11.250   1.854
59595W        W19340   4.834   4.854  10.996
59596W        W19341  20.203  44.466  11.045
59597W        W19342   9.721  13.214   2.411
59598W        W19343   0.746   6.406   3.793
59599W        W19344  26.575  42.866   4.333
59600W        W19345   5.851  18.086  10.628
59601W        W19346  23.020   9.362   3.743
59602W        W19347   2.803  11.845  10.904
59603W        W19348   1.897  41.387  12.905
59604W        W19349  38.878  15.579   4.296
59605W        W19350  30.126  40.859   1.293
59606W        W19351  39.409  31.082   3.179
59607W        W19352   9.240  14.759   0.913
59608W        W19353  30.065  32.579  10.588
59609W        W19354  41.496  29.486  13.882
59610W        W19355  44.888  43.801   3.227
59611W        W19356  14.670  15.325   3.699
59612W        W19357  26.003  18.619  14.371
59613W        W19358  39.055  20.255   2.873
59614W        W19359  28.615  27.480  13.888
59615W        W19360   9.185  13.266  12.091
59616W        W19361   1.317  23.606   4.178
59617W        W19362  27.046  43.872   2.309
59618W        W19363  34.873  30.036   2.861
59619W        W19364  16.139  22.177   2.217
59620W        W19365  34.073   1.752   0.806
59621W        W19366   2.229  22.131   2.392
59622W        W19367  16.703  30.416  13.367
59623W        W19368  33.438  35.409  12.546
59624W        W19369  36.051  23.171   1.885
59625W        W19370  33.573  20.566  13.511
59626W        W19371  39.379  21.674  14.967
59627W        W19372  40.334  19.537   3.194
59628W        W19373   6.406  43.899   1.923
59629W        W19374  42.316  40.448  12.357
59630W        W19375  37.915  39.318  11.908
59631W        W19376  22.140  39.929  14.433
59632W        W19377  28.062  21.582  12.506
59633W        W19378  35.585  41.484  14.791
59634W        W19379  43.393  43.815  12.455
59635W        W19380  16.787  11.730  12.422
59636W        W19381  27.101  23.528   3.364
59637W        W19382   3.220  31.147  15.000
59638W        W19383  28.039   2.730  14.345
59639W        W19384   2.420   0.754   4.200
59640W        W19385   8.852  39.499  14.992
59641W        W19386  13.809  12.636   4.749
59642W        W19387  15.640  29.612  13.365
59643W        W19388  38.479   1.959   1.773
59644W        W19389  36.496  39.917   4.633
59645W        W19390  41.858  16.092   0.740
59646W        W19391   1.368  42.823  14.357
59647W        W19392   5.867  40.315   4.178
59648W        W19393  21.180  17.697   4.771
59649W        W19394  29.475  19.670  11.497
59650W        W19395   8.752  10.279  10.497
59651W        W19396   0.863  17.685  13.368
59652W        W19397   2.798  15.093   5.305
59653W        W19398   8.697  41.951  10.427
59654W        W19399  14.663  44.261   2.876
59655W        W19400   8.739  33.439  12.502
59656W        W19401  35.551  23.996  11.381
59657W        W19402  26.542   0.903   3.719
59658W        W19403  36.582   4.244  11.442
59659W        W19404  44.429   7.358  12.570
59660W        W19405   2.462   5.828  14.924
59661W        W19406   8.859  30.496   2.380
59662W        W19407  16.604  38.370   2.859
59663W        W19408  30.447  37.434   4.732
59664W        W19409  19.650  44.503  10.601
59665W        W19410  14.778  38.550  10.606
59666W        W19411  33.893   4.334  13.436
59667W        W19412  10.293  31.593  14.322
59668W        W19413  41.939  38.863   2.192
59669W        W19414   4.370  10.297   2.192
59670W        W19415  17.273   5.372  14.482
59671W        W19416  38.373  27.120   3.783
59672W        W19417  39.962  42.289  14.844
59673W        W19418  43.972  20.609  14.011
59674W        W19419  27.477  31.905   4.747
59675W        W19420   0.743  25.698  12.030
59676W        W19421  37.945   2.469   3.703
59677W        W19422  41.370  36.467  11.081
59678W        W19423  23.715  21.064  10.575
59679W        W19424  18.223  25.011   1.777
59680W        W19425   2.779  19.175   2.262
59681W        W19426   4.428  20.768  11.924
59682W        W19427  10.828  21.176  14.295
59683W        W19428  11.364  44.937  12.910
59684W        W19429  34.443  12.832  12.999
59685W        W19430  21.224  32.541   1.210
59686W        W19431  34.111   1.959   1.383
59687W        W19432  43.951  44.291   1.787
59688W        W19433   5.414  32.556  13.035
59689W        W19434  26.539  44.928  14.438
59690W        W19435  40.439  15.283   1.732
59691W        W19436  13.303  34.374   4.599
59692W        W19437  10.811  15.101  14.441
59693W        W19438  17.204  23.661  11.861
59694W        W19439  11.290  16.143  14.021
59695W        W19440  23.560  30.118   9.619
59696W        W19441  39.923  15.212  12.483
59697W        W19442   4.765  26.177   4.141
59698W        W19443  13.291  13.150  14.855
59699W        W19444  32.614  16.811  11.070
59700W        W19445  39.065  13.795   0.265
59701W        W19446  20.083  19.717   3.222
59702W        W19447  19.213  38.999  12.522
59703W        W19448  16.235  25.619   0.267
59704W        W19449  25.549  41.522  14.390
59705W        W19450   4.793  10.855  14.801
59706W        W19451  35.576  31.476   2.792
59707W        W19452  15.745  10.650  11.427
59708W        W19453  20.167  38.005   0.860
59709W        W19454  27.672  15.219   2.676
59710W        W19455   4.864  43.382  14.021
59711W        W19456  42.370   6.810   4.187
59712W        W19457  25.639  37.961  11.029
59713W        W19458  43.999  30.540   4.752
59714W        W19459  29.070  20.249  14.287
59715W        W19460   9.366  31.937   3.730
59716W        W19461  12.279  44.328   0.790
59717W        W19462  44.973   6.723   0.393
59718W        W19463  18.552   9.727  14.975
59719W        W19464   9.783  35.427   1.406
59720W        W19465  43.922  17.627   1.447
59721W        W19466   9.780  19.680   4.790
59722W        W19467  32.048  17.601   9.501
59723W        W19468   3.453   3.945   3.157
59724W        W19469   5.417   8.697   1.704
59725W        W19470  10.228  22.228  11.107
59726W        W19471  34.518  15.665   1.286
59727W        W19472  18.208   8.819  13.797
59728W        W19473  14.293  13.771   3.857
59729W        W19474  41.334  10.695  10.635
59730W        W19475  38.827   6.877   1.753
59731W        W19476  18.697   1.864  13.544
59732W        W19477  10.306  20.137  14.478
59733W        W19478  39.532   7.310  14.333
59734W        W19479   1.439  30.517   1.211
59735W        W19480  27.552  38.488  11.464
59736W        W19481   4.230  24.537  13.471
59737W        W19482  42.466  19.216   3.195
59738W        W19483  14.247   7.708  13.357
59739W        W19484  40.984  14.174  13.547
59740W        W19485   4.377  18.257  10.602
59741W        W19486  10.228  23.564  14.838
59742W        W19487  20.260   5.895  13.525
59743W        W19488  36.039  32.486   4.251
59744W        W19489  42.851  21.098  14.792
59745W        W19490  20.719  29.516  14.803
59746W        W19491  19.727  13.130  13.409
59747W        W19492  40.406  27.134  11.124
59748W        W19493  40.355  35.581   1.928
59749W        W19494  17.596  40.457   4.307
59750W        W19495   7.856   3.869  12.032
59751W        W19496  24.707  16.759  12.010
59752W        W19497  34.900  22.197  10.966
59753W        W19498  26.070   1.933   1.304
59754W        W19499  37.040  25.135  12.056
59755W        W19500  38.905   1.390  12.017
59756W        W19501  42.841   3.227   0.408
59757W        W19502  35.378  36.914  14.507
59758W        W19503  23.698  28.671  10.508
59759W        W19504   1.736  35.033  13.840
59760W        W19505   1.271  26.134   9.581
59761W        W19506  16.185  24.161  12.394
59762W        W19507   4.216   0.804   4.722
59763W        W19508  23.200  41.393  13.438
59764W        W19509   0.303  17.580  10.021
59765W        W19510  13.121  26.190  12.431
59766W        W19511  44.848  26.094  11.469
59767W        W19512   1.419   1.285   3.374
59768W        W19513  27.637   8.694   3.308
59769W        W19514  13.247  38.503   2.662
59770W        W19515  20.095  20.268   0.912
59771W        W19516  18.134  25.570   1.309
59772W        W19517  20.051  18.775   1.391
59773W        W19518  43.337   7.267   4.788
59774W        W19519   3.412   9.329   3.822
59775W        W19520  14.192  42.470  12.912
59776W        W19521  10.354  41.537  14.870
59777W        W19522  31.509  33.484  11.930
59778W        W19523  28.576  21.619  12.457
59779W        W19524   4.880  44.345   4.299
59780W        W19525  28.461  34.473   2.316
59781W        W19526  33.010  14.619  11.613
59782W        W19527   5.289  13.701  14.952
59783W        W19528  32.932  32.905  11.065
59784W        W19529   1.346  14.825  10.929
59785W        W19530  14.097   1.334  10.933
59786W        W19531  18.189  42.480   1.259
59787W        W19532  43.377   2.463   1.876
59788W        W19533  18.607  35.939   4.263
59789W        W19534  29.109   5.688  13.338
59790W        W19535  41.506  22.660   5.117
59791W        W19536  38.538  42.013  11.904
59792W        W19537   4.248  38.546  10.519
59793W        W19538  29.938  44.364   9.982
59794W        W19539  31.985   1.881  10.900
59795W        W19540  42.461   1.473  12.541
59796W        W19541  10.711   2.928   4.144
59797W        W19542  40.836  29.463   4.329
59798W        W19543   9.209   8.214  13.858
59799W        W19544  43.924  12.830  13.808
59800W        W19545  37.024  27.647  12.983
59801W        W19546  43.864  25.610  11.437
59802W        W19547  21.216   9.650  11.011
59803W        W19548   0.841   3.718  11.595
59804W        W19549   7.238  19.132   1.926
59805W        W19550   2.956  44.796  14.342
59806W        W19551  13.730  22.067  13.461
59807W        W19552   6.881  17.289   2.367
59808W        W19553  35.919   8.782   0.400
59809W        W19554  27.137  27.626   3.679
59810W        W19555   6.691   1.804  13.330
59811W        W19556  14.303  11.799   1.855
59812W        W19557  31.909   0.825   3.339
59813W        W19558   7.877  28.533  11.555
59814W        W19559  36.458   1.828   5.269
59815W        W19560  24.720  35.906   1.407
59816W        W19561  22.238  10.705  11.071
59817W        W19562  34.967  11.757   5.284
59818W        W19563  38.562  42.974   2.781
59819W        W19564  43.486  44.466   0.414
59820W        W19565  11.695  24.531   2.791
59821W        W19566   5.217   0.357  11.393
59822W        W19567  10.143  27.023  11.862
59823W        W19568  19.240  39.549   2.289
59824W        W19569  38.505  13.677   3.286
59825W        W19570  31.969   2.846  11.930
59826W        W19571   7.265  38.966  14.343
59827W        W19572  12.283   9.312   4.833
59828W        W19573  31.602  13.128  11.905
59829W        W19574  24.009   9.360   4.307
59830W        W19575   4.707  40.546   0.899
59831W        W19576  27.101  16.612  12.918
59832W        W19577  17.212  28.101   2.736
59833W        W19578  41.855  36.845   4.742
59834W        W19579  44.302  42.886   2.287
59835W        W19580  14.166  20.275  11.550
59836W        W19581  29.964  43.308   2.379
59837W        W19582   6.228  40.812   3.183
59838W        W19583  30.506  27.155  11.013
59839W        W19584   1.938   9.856  12.084
59840W        W19585  33.548  10.247  10.486
59841W        W19586  36.915  26.964   4.263
59842W        W19587  14.249  42.491  12.547
59843W        W19588  15.170  44.981  10.440
59844W        W19589  43.923  36.032   2.697
59845W        W19590  40.347  23.607   4.694
59846W        W19591  18.067  41.518   4.653
59847W        W19592  36.972  11.298  10.583
59848W        W19593   6.422  24.592   3.309
59849W        W19594  40.417  16.577  13.955
59850W        W19595   1.885  39.928   5.193
59851W        W19596  37.049  19.069  11.597
59852W        W19597  21.621  38.044   2.229
59853W        W19598  32.960  30.515   0.770
59854W        W19599  33.014  41.483   3.728
59855W        W19600  26.685  28.175  11.881
59856W        W19601   1.785   1.347   2.281
59857W        W19602   7.364  43.800   3.815
59858W        W19603  14.696   3.455   2.345
59859W        W19604  13.333  26.143  14.935
59860W        W19605  27.110  25.520  12.524
59861W        W19606  28.098   8.236   4.263
59862W        W19607   2.810   9.345  13.022
59863W        W19608  12.685   1.775   4.218
59864W        W19609  13.802   3.319   1.823
59865W        W19610  34.019   5.723  13.523
59866W        W19611   9.294  14.148  14.477
59867W        W19612   1.900  15.311  14.436
59868W        W19613  26.155  12.731  12.974
59869W        W19614   9.793   0.878  13.342
59870W        W19615  27.004  36.045   2.201
59871W        W19616  36.950  29.048  11.517
59872W        W19617   4.720  22.658   1.850
59873W        W19618  33.938  14.149  11.881
59874W        W19619  28.992   8.200  14.805
59875W        W19620  22.189  24.079   1.247
59876W        W19621  15.586   4.356  11.034
59877W        W19622  14.636  33.920   1.253
59878W        W19623  22.535  33.497  11.551
59879W        W19624  15.772  13.175  11.408
59880W        W19625  40.048  27.998   1.759
59881W        W19626   8.739   1.296   4.349
59882W        W19627  14.142  41.311   4.309
59883W        W19628   3.912  41.926   3.696
59884W        W19629  40.895   9.669  12.522
59885W        W19630  10.324  16.583   4.770
59886W        W19631  15.667   2.943  11.932
59887W        W19632  18.266  42.484   0.449
59888W        W19633  19.635  35.055  12.917
59889W        W19634  11.150  21.749  13.430
59890W        W19635   8.778  38.353   0.935
59891W        W19636  44.903   6.905  12.861
59892W        W19637  27.584   0.908  13.360
59893W        W19638  14.200   1.326  12.093
59894W        W19639  27.070  18.709   1.334
59895W        W19640   7.667  13.781  13.955
59896W        W19641   4.885  37.534   4.228
59897W        W19642  33.052  40.325   2.300
59898W        W19643  20.718  26.099  10.924
59899W        W19644   8.347  29.580  10.960
59900W        W19645  29.538  13.148   5.242
59901W        W19646  34.011  19.768  13.858
59902W        W19647  38.382  28.451   0.336
59903W        W19648  15.305  26.993  12.572
59904W        W19649  37.987  32.619  10.907
59905W        W19650  19.675  27.969  13.804
59906W        W19651  28.000  32.999   4.658
59907W        W19652  18.714   2.457   2.287
59908W        W19653   4.284   7.235  12.426
59909W        W19654  43.381  42.330   0.771
59910W        W19655  32.006  14.124  13.818
59911W        W19656  27.486  20.688  11.910
59912W        W19657   7.236  22.617  14.941
59913W        W19658  17.064   0.278  12.846
59914W        W19659  39.499  40.381  10.936
59915W        W19660  15.748  19.754  10.064
59916W        W19661  27.634  12.669   4.237
59917W        W19662   2.287  24.192   4.213
59918W        W19663  15.118   2.245   2.710
59919W        W19664  32.446   7.702   3.654
59920W        W19665  28.529  30.514  10.526
59921W        W19666  40.544  27.046  14.333
59922W        W19667   6.867  22.742   3.867
59923W        W19668   1.921   5.344  13.346
59924W        W19669  22.635  26.174  14.888
59925W        W19670  18.555   4.925   2.211
59926W        W19671   2.444   3.878  10.580
59927W        W19672  18.083   2.315   0.348
59928W        W19673   5.358  35.372   2.902
59929W        W19674  40.362  20.554  13.917
59930W        W19675   5.772  33.442   0.422
59931W        W19676   2.332  20.693  11.516
59932W        W19677   5.728   8.218   4.655
59933W        W19678  32.461   8.227   0.327
59934W        W19679  34.027  28.136  13.949
59935W        W19680   0.942  40.364  10.146
59936W        W19681   8.704  14.679  12.987
59937W        W19682  25.670   8.810  10.139
59938W        W19683  18.618  14.707  13.838
59939W        W19684   5.426  37.517   5.243
59940W        W19685  37.942  13.648   0.426
59941W        W19686  17.116  40.832  13.467
59942W        W19687   9.280  23.140   1.867
59943W        W19688  29.610   6.854   1.435
59944W        W19689   6.684   2.280  12.349
59945W        W19690  44.337   4.313   0.903
59946W        W19691  30.141  43.924   3.649
59947W        W19692   9.348  33.401   4.295
59948W        W19693   0.312  12.346  12.959
59949W        W19694  17.068  34.900   9.977
59950W        W19695   6.791  33.986   4.827
59951W        W19696   1.258  34.549   9.992
59952W        W19697  37.991  40.873   4.200
59953W        W19698  20.693  10.331  12.580
59954W        W19699  39.960  32.958   3.177
59955W        W19700   0.491  31.116   3.289
59956W        W19701  23.548   0.337   4.215
59957W        W19702  31.037  40.842  13.064
59958W        W19703   6.847  29.058   3.339
59959W        W19704  24.499  42.477  11.926
59960W        W19705  21.674   0.398  11.066
59961W        W19706   5.214  21.223   5.299
59962W        W19707  28.952   9.783  10.924
59963W        W19708  41.020  13.759   3.709
59964W        W19709  35.018  15.594   3.860
59965W        W19710  38.870  28.967   3.201
59966W        W19711   8.672  43.500  14.921
59967W        W19712  23.581  44.891   1.357
59968W        W19713   1.264  43.385   3.356
59969W        W19714  32.049  20.702  14.295
59970W        W19715   4.709   0.952  11.493
59971W        W19716  42.922  17.714  11.058
59972W        W19717  24.512  29.567   2.230
59973W        W19718  41.989  10.324   0.471
59974W        W19719   1.426  24.146  11.894
59975W        W19720  28.039  10.667  11.096
59976W        W19721   4.785  32.556  13.957
59977W        W19722  38.329  20.722   0.278
59978W        W19723  10.321  37.936  11.493
59979W        W19724   9.254  37.069   4.242
59980W        W19725  23.642  18.078  14.402
59981W        W19726  36.455  13.278   0.863
59982W        W19727  29.625  19.721  13.478
59983W        W19728  32.023   0.449  10.418
59984W        W19729  15.657   0.808   3.156
59985W        W19730   7.231  43.865  10.602
59986W        W19731  18.549  14.217  12.834
59987W        W19732   8.727  40.945  13.426
59988W        W19733  35.585  12.214   3.848
59989W        W19734   8.331  21.234  14.505
59990W        W19735  11.733  37.878   3.770
59991W        W19736  29.070   0.451   4.179
59992W        W19737  42.944  23.082   2.263
59993W        W19738   5.407   3.230  11.974
59994W        W19739  15.628  43.794   2.680
59995W        W19740  23.496  20.609  11.519
59996W        W19741  40.344  31.927   4.828
59997W        W19742  26.568  33.602   1.403
59998W        W19743   9.263  21.059  13.797
59999W        W19744   0.472  26.469  13.363
60000W        W19745  33.433  21.735  10.040
60001W        W19746  43.986  42.321  10.468
60002W        W19747  24.601  38.381   2.690
60003W        W19748  20.056  21.621  10.918
60004W        W19749  13.680  20.763  12.435
60005W        W19750  22.633  20.205   1.444
60006W        W19751  36.898  26.459   3.229
60007W        W19752  30.135  29.953  12.565
60008W        W19753  12.181  32.515  12.078
60009W        W19754   4.819  41.305  12.435
60010W        W19755  41.407  25.612   4.119
60011W        W19756   4.298  37.429  10.923
60012W        W19757  20.724  19.281  13.047
60013W        W19758   5.748  33.556   3.298
60014W        W19759   9.293  22.738  14.024
60015W        W19760  11.208  37.867  14.399
60016W        W19761  13.612  15.580  12.543
60017W        W19762  37.486  11.361   2.744
60018W        W19763  44.502  26.042  11.111
60019W        W19764  16.163  34.903   4.654
60020W        W19765  21.618  27.014  10.610
60021W        W19766  42.404  17.588  14.459
60022W        W19767  34.015   5.200   1.307
60023W        W19768  29.971   5.419   0.414
60024W        W19769  30.585  16.654  12.516
60025W        W19770  38.567  43.450  13.454
60026W        W19771   0.493  39.512  10.893
60027W        W19772   9.828   2.384  12.517
60028W        W19773  17.764  34.551  14.990
60029W        W19774  34.058  36.430   0.905
60030W        W19775   3.953  29.032  12.363
60031W        W19776  24.621  28.096   4.159
60032W        W19777  35.502   4.721   3.816
60033W        W19778  28.039  40.833   3.748
60034W        W19779  24.986  23.736  13.347
60035W        W19780  17.251   7.752   3.179
60036W        W19781  10.138   2.741   2.782
60037W        W19782   9.842  38.531  10.917
60038W        W19783   4.367  43.812  13.330
60039W        W19784   0.419  30.428   2.193
60040W        W19785  20.260  10.711  14.361
60041W        W19786  18.050  11.293   4.666
60042W        W19787   1.927   3.763  13.055
60043W        W19788  12.308  44.948   4.276
60044W        W19789  41.845   3.351  11.898
60045W        W19790  32.055  37.996   1.845
60046W        W19791  10.341  30.647   2.323
60047W        W19792  16.768  25.513   0.411
60048W        W19793   9.281  26.626  10.550
60049W        W19794   8.779  43.438   3.653
60050W        W19795  26.128  43.894  10.552
60051W        W19796  43.407  12.169   1.353
60052W        W19797  15.173  29.452  10.566
60053W        W19798  13.646  31.081  11.595
60054W        W19799  27.560  28.058  12.403
60055W        W19800  24.673  40.883   0.410
60056W        W19801  16.300  42.488  13.054
60057W        W19802  30.152  28.052  14.837
60058W        W19803   5.390   2.437  11.891
60059W        W19804   5.899  17.178  13.909
60060W        W19805  43.929   6.891   0.729
60061W        W19806  29.950   0.832   0.397
60062W        W19807   3.372  35.470   5.099
60063W        W19808  14.768   6.254  10.510
60064W        W19809  11.267   2.965  10.615
60065W        W19810  27.688  17.249   3.357
60066W        W19811  30.600   0.972   0.840
60067W        W19812  38.473   9.766  12.485
60068W        W19813  37.428   6.391   1.747
60069W        W19814   5.282  20.719  12.000
60070W        W19815  11.749  39.010  14.905
60071W        W19816   8.400  35.373   4.303
60072W        W19817  37.075  36.451   4.168
60073W        W19818  35.857  43.389   2.294
60074W        W19819  26.692  25.578   2.230
60075W        W19820  16.140  38.995   2.684
60076W        W19821  25.128  21.247  12.832
60077W        W19822  34.434  24.534   3.245
60078W        W19823  19.092   8.367   2.830
60079W        W19824  11.295  13.793   2.192
60080W        W19825  25.040  27.465  14.830
60081W        W19826  29.647  23.560  10.481
60082W        W19827  36.000   3.800  13.307
60083W        W19828  39.024  37.002   0.804
60084W        W19829   7.182  14.781  11.568
60085W        W19830  28.148  23.079   0.734
60086W        W19831   6.806  31.648   2.716
60087W        W19832   1.951  10.307  12.556
60088W        W19833   9.889  12.126   2.808
60089W        W19834  39.822  12.641   3.178
60090W        W19835  36.589   8.214   1.824
60091W        W19836  31.969  33.418  12.554
60092W        W19837  27.110  32.971   3.172
60093W        W19838  38.979  25.112   4.693
60094W        W19839  32.135   3.287  12.862
60095W        W19840  40.933   7.309   1.785
60096W        W19841  22.709   7.670  14.011
60097W        W19842  41.337  43.894  12.976
60098W        W19843  40.355  11.225  13.410
60099W        W19844  19.193   1.376   1.440
60100W        W19845  19.769   0.423  11.433
60101W        W19846  34.544  33.578  11.904
60102W        W19847  33.602   8.751  12.960
60103W        W19848  40.924  20.139  11.105
60104W        W19849  29.038   3.809   2.714
60105W        W19850   6.772  25.045  12.574
60106W        W19851  43.912  34.035   2.725
60107W        W19852  10.871   0.348   1.376
60108W        W19853  43.277  38.402  12.559
60109W        W19854  21.593  23.159  12.934
60110W        W19855  15.600  35.458   3.358
60111W        W19856  24.009  22.715   2.223
60112W        W19857   6.892  32.510  11.437
60113W        W19858  24.518  25.486   0.440
60114W        W19859  26.492  22.115   0.929
60115W        W19860  40.006  32.459   4.740
60116W        W19861   6.719  42.374   0.357
60117W        W19862  39.396  19.283  12.011
60118W        W19863   9.301   2.831  12.496
60119W        W19864  12.196  18.685   0.351
60120W        W19865  13.171  18.278   1.910
60121W        W19866  11.297  15.274  11.557
60122W        W19867  35.378  41.030   4.696
60123W        W19868   7.344   1.397  11.372
60124W        W19869   0.326  44.785   4.616
60125W        W19870  17.711   7.825  12.078
60126W        W19871   0.955   4.903  13.390
60127W        W19872  28.032  12.770  10.597
60128W        W19873   1.948  40.977  10.092
60129W        W19874  14.786   6.282  14.380
60130W        W19875  35.866  16.163  10.959
60131W        W19876  15.589   0.405   3.244
60132W        W19877   6.403  23.689   0.795
60133W        W19878  11.212  36.438   3.329
60134W        W19879  14.781  35.493   2.851
60135W        W19880  25.110  18.709  12.352
60136W        W19881   8.762  27.972   0.435
60137W        W19882  18.783  13.306  10.630
60138W        W19883   5.792  27.146   3.226
60139W        W19884  26.500  28.652  13.833
60140W        W19885  11.361  19.729  10.991
60141W        W19886   4.228  23.698   3.146
60142W        W19887  37.942  37.920   4.191
60143W        W19888  22.631  21.134   3.385
60144W        W19889  36.098  26.034  11.512
60145W        W19890   1.731  44.815  10.952
60146W        W19891  35.936  40.802   2.239
60147W        W19892   5.386   3.267   4.352
60148W        W19893  13.166  44.765  14.821
60149W        W19894   4.283   8.821  11.516
60150W        W19895  43.402  26.651  11.405
60151W        W19896  24.508  10.359   1.315
60152W        W19897  40.479  11.286  14.852
60153W        W19898  22.693   1.294  13.392
60154W        W19899  27.573  10.667   0.818
60155W        W19900   1.317  36.068  13.876
60156W        W19901  31.120  37.924  10.907
60157W        W19902  14.245  24.025  13.473
60158W        W19903   5.752  15.312   4.678
60159W        W19904   2.376  17.751  14.839
60160W        W19905   6.883  29.634  11.982
60161W        W19906  18.141  25.970   1.806
60162W        W19907  44.000  43.880  13.902
60163W        W19908   7.388  37.031   2.772
60164W        W19909  30.499  43.839  11.535
60165W        W19910  39.467  19.198  10.892
60166W        W19911   0.299  38.329  13.401
60167W        W19912  10.238   7.306   1.714
60168W        W19913  25.513  16.158   1.302
60169W        W19914  30.413  19.568  14.423
60170W        W19915  12.193  28.141   2.299
60171W        W19916  42.312  13.187   4.675
60172W        W19917  35.598  40.426  13.471
60173W        W19918  17.145  25.662  14.409
60174W        W19919  39.985  34.479  10.508
60175W        W19920  21.175  11.374   3.326
60176W        W19921  21.033  33.556  14.340
60177W        W19922  39.430  39.042  10.639
60178W        W19923  20.746   0.385  11.496
60179W        W19924  19.043  25.695   0.359
60180W        W19925  38.985   1.864   4.803
60181W        W19926   8.847  36.915   3.361
60182W        W19927  20.127  25.637  10.896
60183W        W19928  21.153  10.171   3.277
60184W        W19929  38.069  37.540  11.007
60185W        W19930   7.350  32.082  10.623
60186W        W19931  22.722  38.890  14.400
60187W        W19932  25.592  20.070  11.958
60188W        W19933  22.515   3.734   4.193
60189W        W19934  20.245  32.980   4.720
60190W        W19935  18.184  22.184  14.434
60191W        W19936   4.944   7.316  12.042
60192W        W19937  21.669  40.024   1.740
60193W        W19938  41.490  24.629   2.747
60194W        W19939  17.108   2.734   1.236
60195W        W19940  41.013  21.613  10.530
60196W        W19941  16.126   0.772   1.397
60197W        W19942   6.856  40.863   0.932
60198W        W19943  25.172  35.958   0.883
60199W        W19944  42.524  32.095   3.299
60200W        W19945  39.422  39.927   0.785
60201W        W19946  40.523   1.743   4.188
60202W        W19947  32.929  23.004  11.487
60203W        W19948  18.134  13.819   2.785
60204W        W19949  14.247  36.492   1.703
60205W        W19950  16.697   6.890  10.587
60206W        W19951  41.457  27.004  12.091
60207W        W19952  24.665  26.463   0.332
60208W        W19953  33.452  18.548   0.751
60209W        W19954  15.635  39.909   2.870
60210W        W19955  43.456  20.171   4.162
60211W        W19956  16.621  17.198  14.326
60212W        W19957  19.709  11.235   0.931
60213W        W19958  14.321  28.027   3.661
60214W        W19959  39.427  43.422  13.916
60215W        W19960  22.514   9.344  12.860
60216W        W19961  21.723   4.932  12.831
60217W        W19962  20.096  24.017  11.408
60218W        W19963  28.609  43.816  13.522
60219W        W19964   2.250   7.412  11.472
60220W        W19965  27.502  36.981   2.396
60221W        W19966   4.885  27.148   3.833
60222W        W19967  28.490   7.274   9.457
60223W        W19968  26.627  35.866  13.478
60224W        W19969  12.851  32.944  14.510
60225W        W19970  19.593  11.270   3.196
60226W        W19971   1.769   6.703  12.974
60227W        W19972  43.865  30.437   2.308
60228W        W19973   1.758  29.508   2.732
60229W        W19974  32.066  44.454   5.254
60230W        W19975  38.405  15.205  12.895
60231W        W19976  34.079  24.641  11.119
60232W        W19977  10.165  15.090  12.396
60233W        W19978  20.673  15.096  13.894
60234W        W19979  35.019  11.650  11.919
60235W        W19980  13.681   9.362  13.050
60236W        W19981  36.881  44.807   4.124
60237W        W19982   3.332  39.416   2.689
60238W        W19983  28.630  32.018  10.992
60239W        W19984  23.157   5.879  13.971
60240W        W19985  32.120   0.944   2.886
60241W        W19986  33.564  33.406   4.125
60242W        W19987  24.196  12.696  13.039
60243W        W19988   1.863   2.322   3.785
60244W        W19989  32.593  20.618   2.766
60245W        W19990  40.024  31.552  12.573
60246W        W19991  28.520  20.112   4.158
60247W        W19992   9.233  28.159  14.972
60248W        W19993  34.912  20.203  10.547
60249W        W19994  24.133  13.272   3.176
60250W        W19995  30.083  31.947  13.491
60251W        W19996  34.009  22.135   9.625
60252W        W19997  14.191  27.977   1.234
60253W        W19998  33.025  33.902   0.745
60254W        W19999  33.572  26.494   0.375
60255W        W20000  44.817  39.426  14.404
60256W        W20001  36.375  39.053   1.264
60257W        W20002  42.912  12.799  12.897
60258W        W20003  19.746  10.341   2.891
60259W        W20004  13.190  34.425  13.521
60260W        W20005   2.963  34.041   3.662
60261W        W20006  34.976  40.993   1.226
60262W        W20007  13.788  25.034   2.892
60263W        W20008  21.619  22.710  10.943
60264W        W20009   7.372   6.758   1.836
60265W        W20010  34.963  23.708  14.990
60266W        W20011  35.874  20.525   1.427
60267W        W20012  43.770  21.688  13.407
60268W        W20013  12.287  35.097   5.082
60269W        W20014  39.894  33.454   3.293
60270W        W20015   1.972   1.889   4.770
60271W        W20016  21.688  19.696  12.865
60272W        W20017  23.208  35.925   4.729
60273W        W20018   6.352  30.448   9.931
60274W        W20019  10.141  22.099   4.637
60275W        W20020  35.472  37.376  11.555
60276W        W20021   1.399  38.959  12.836
60277W        W20022  21.209  36.002   1.282
60278W        W20023  35.497   6.822   0.729
60279W        W20024   4.870  37.561  14.508
60280W        W20025  43.429  34.933   2.798
60281W        W20026  27.090   0.911  13.878
60282W        W20027  24.080  32.532  14.999
60283W        W20028  38.919  27.691   1.403
60284W        W20029  30.610  26.555  12.905
60285W        W20030  42.309  44.498  11.580
60286W        W20031  14.834  32.555   5.678
60287W        W20032  30.964  15.322  14.891
60288W        W20033  20.648   6.729   0.841
60289W        W20034  39.359  28.939   4.246
60290W        W20035   7.692   3.447   0.749
60291W        W20036   2.251  16.142   4.773
60292W        W20037  19.715  31.455   4.763
60293W        W20038  18.554  18.759  12.577
60294W        W20039  31.611   8.735   1.348
60295W        W20040  32.435  27.152   0.329
60296W        W20041   2.355  29.622   1.449
60297W        W20042  41.789  25.065  13.834
60298W        W20043  21.194  31.549   4.207
60299W        W20044   4.922  43.914   2.801
60300W        W20045  29.476  23.094   0.844
60301W        W20046  33.911   3.378  10.598
60302W        W20047  12.357  43.275   2.720
60303W        W20048  31.599  21.552   1.339
60304W        W20049  41.911  28.143   1.761
60305W        W20050  37.405   1.918  14.978
60306W        W20051   3.908  28.982  12.926
60307W        W20052  13.268   9.782   4.616
60308W        W20053  44.302  19.225  14.366
60309W        W20054   7.381  32.913  10.466
60310W        W20055  29.024  11.276  11.983
60311W        W20056  30.432  25.129   2.789
60312W        W20057   2.455  40.487  14.972
60313W        W20058  10.799  19.773   0.944
60314W        W20059  13.821  18.643  10.555
60315W        W20060  11.754  29.107   2.265
60316W        W20061  27.990  22.528  11.404
60317W        W20062  15.623  10.273   4.615
60318W        W20063  28.490  16.129   3.750
60319W        W20064  32.406   1.869  10.056
60320W        W20065  31.508  10.269   0.357
60321W        W20066  34.562  36.992   4.118
60322W        W20067  41.443  26.524   2.292
60323W        W20068   2.268  26.170   1.767
60324W        W20069   2.869  27.681  12.892
60325W        W20070  28.508  34.039   4.248
60326W        W20071   9.662   2.956   2.211
60327W        W20072   0.426   0.910   1.795
60328W        W20073   2.822  38.910   2.224
60329W        W20074  32.907  34.540  11.479
60330W        W20075   4.336  44.785   4.714
60331W        W20076  10.229  18.611   3.334
60332W        W20077  11.741  37.426   3.657
60333W        W20078  10.227  22.550  10.603
60334W        W20079   3.848  36.489   0.252
60335W        W20080  39.404  11.316  12.035
60336W        W20081  13.795  30.443  14.286
60337W        W20082  42.953   4.759   5.322
60338W        W20083   7.734  21.190  12.921
60339W        W20084  33.421   9.222  10.413
60340W        W20085   1.958  32.121   4.642
60341W        W20086  40.447  36.881  12.514
60342W        W20087  38.464   5.195   0.459
60343W        W20088  14.148  27.498  12.386
60344W        W20089  16.076  14.336  11.899
60345W        W20090  40.409  30.479   0.434
60346W        W20091  41.431  20.564   0.357
60347W        W20092  14.646  22.510  13.034
60348W        W20093   1.246  10.873  14.394
60349W        W20094  42.972  20.584   2.902
60350W        W20095   1.319  30.641   5.229
60351W        W20096  21.054  39.902   1.892
60352W        W20097   7.769   3.864  14.912
60353W        W20098  17.298   9.734   0.324
60354W        W20099  12.257  33.472  11.513
60355W        W20100   9.690  25.647  12.575
60356W        W20101  35.505  16.583  13.371
60357W        W20102  25.126  13.672   5.197
60358W        W20103  37.392  40.471   4.759
60359W        W20104  19.245  32.412  12.348
60360W        W20105  32.965  21.697  10.600
60361W        W20106  21.056  31.511  12.975
60362W        W20107  19.625  38.022   4.290
60363W        W20108  35.954   2.458   3.744
60364W        W20109  26.982   1.394   1.890
60365W        W20110   6.413   3.309   0.384
60366W        W20111  36.501  32.554   3.655
60367W        W20112  30.516  36.980  11.858
60368W        W20113  32.984   6.423   2.709
60369W        W20114  27.445  30.950  11.062
60370W        W20115  42.795  40.925  11.388
60371W        W20116   6.781   7.880  12.548
60372W        W20117  36.938  34.575   4.806
60373W        W20118  32.617  43.010  13.044
60374W        W20119  37.340  26.986   4.816
60375W        W20120  19.730  11.648   0.916
60376W        W20121  14.313  31.080   0.878
60377W        W20122   7.297  17.556  11.995
60378W        W20123   0.330  38.342   2.693
60379W        W20124  33.118   0.383   0.430
60380W        W20125  23.043   5.330  10.416
60381W        W20126  29.641  25.134  12.393
60382W        W20127  40.363   9.339   2.691
60383W        W20128  15.781  19.640  11.988
60384W        W20129  31.595  29.038  13.937
60385W        W20130  41.982  10.190  14.943
60386W        W20131   6.188  25.137   3.301
60387W        W20132   7.670   7.737  13.993
60388W        W20133  16.298  28.046   2.662
60389W        W20134   8.760  34.543   4.164
60390W        W20135  16.202   4.708  14.452
60391W        W20136   6.414  32.476  12.506
60392W        W20137  17.565  29.526   4.178
60393W        W20138  43.437   2.938  11.414
60394W        W20139  36.023  16.072  11.552
60395W        W20140   8.743   9.296   3.813
60396W        W20141  13.602   0.271   2.860
60397W        W20142  26.151   7.275  13.991
60398W        W20143  36.998   4.934   4.305
60399W        W20144  30.538  35.581  11.606
60400W        W20145  23.629  18.677   4.261
60401W        W20146   2.808  34.505  11.484
60402W        W20147  35.388  28.129   4.300
60403W        W20148  22.713   6.777   2.848
60404W        W20149  33.489   6.827  13.361
60405W        W20150   1.864  22.169  14.847
60406W        W20151  18.193  39.865  12.052
60407W        W20152  18.200   8.406   1.753
60408W        W20153  21.215   0.426   3.657
60409W        W20154  34.089  33.939  11.579
60410W        W20155  10.376  14.261   5.220
60411W        W20156  16.701   4.888  14.343
60412W        W20157  21.060  26.527  12.003
60413W        W20158  20.713  40.479  13.520
60414W        W20159  18.698  15.302  14.303
60415W        W20160  23.585  34.863  12.500
60416W        W20161   2.458   7.318   0.768
60417W        W20162  12.730  17.078  10.938
60418W        W20163   5.772  11.155  12.987
60419W        W20164   6.918  25.508   4.235
60420W        W20165   3.217  33.570  14.861
60421W        W20166   8.826   5.820   2.692
60422W        W20167  23.105  31.924  13.949
60423W        W20168  43.799  30.449   4.164
60424W        W20169   8.675  35.031  14.814
60425W        W20170  10.791  25.967   2.410
60426W        W20171  12.841  22.025  12.435
60427W        W20172   5.898   4.937   2.304
60428W        W20173   3.907  41.949   4.246
60429W        W20174  18.674  35.401   3.781
60430W        W20175  22.228  42.284  13.822
60431W        W20176   1.734  22.619   1.313
60432W        W20177  36.478   7.364  11.529
60433W        W20178  37.970  11.266  10.935
60434W        W20179   5.803  14.699  13.343
60435W        W20180  14.198  26.691   1.265
60436W        W20181  33.435  17.307   3.373
60437W        W20182  20.583  41.357   3.636
60438W        W20183   9.154   2.456   4.824
60439W        W20184  25.531  16.747  14.379
60440W        W20185  35.472  38.997  11.415
60441W        W20186   7.306  26.513  12.549
60442W        W20187  28.585  25.632   1.894
60443W        W20188  40.028   5.198  11.995
60444W        W20189  21.669  25.038  10.101
60445W        W20190   5.713  32.094   1.384
60446W        W20191  37.993  36.005   1.436
60447W        W20192  43.350  10.170  14.464
60448W        W20193   3.765   4.710  11.527
60449W        W20194  20.680  31.615  10.975
60450W        W20195  18.292  14.196   4.249
60451W        W20196  11.330  21.235  11.992
60452W        W20197  33.978  36.467  13.535
60453W        W20198  39.466  29.615   2.864
60454W        W20199  42.824  37.850  12.411
60455W        W20200  33.978  27.610   4.276
60456W        W20201  26.661  15.585   5.671
60457W        W20202   9.654   6.819  10.628
60458W        W20203  23.037   9.341  14.933
60459W        W20204  44.947  23.707   1.785
60460W        W20205  24.626  38.910   0.915
60461W        W20206   7.885  34.017   3.746
60462W        W20207  41.312  23.545  11.942
60463W        W20208   4.921  12.663   0.963
60464W        W20209  26.109   9.857  10.575
60465W        W20210   4.834  21.053   1.891
60466W        W20211  41.791  37.466   0.373
60467W        W20212   9.818  23.581  10.611
60468W        W20213   3.910  28.475   1.859
60469W        W20214  18.096  19.194   3.857
60470W        W20215   2.736  26.952   3.855
60471W        W20216   2.385  21.201   9.926
60472W        W20217  24.529  16.215  13.484
60473W        W20218  40.473  43.353   1.799
60474W        W20219  22.152   8.194  14.013
60475W        W20220  23.123  44.979  13.853
60476W        W20221  41.913   6.252   3.669
60477W        W20222   5.883  39.965   3.337
60478W        W20223  34.111  42.505  10.583
60479W        W20224  22.524  21.580   1.310
60480W        W20225  39.521  36.993   4.126
60481W        W20226   1.254  34.964   1.329
60482W        W20227  35.090  19.110  12.010
60483W        W20228   8.762  36.399  12.862
60484W        W20229  19.216  43.867  11.461
60485W        W20230  27.100  19.690  13.448
60486W        W20231  18.574   0.366   3.725
60487W        W20232  24.992  13.259   0.424
60488W        W20233  36.361  17.677   0.802
60489W        W20234  44.375   6.285   3.847
60490W        W20235  11.754  32.909   4.236
60491W        W20236  22.537  25.128  14.428
60492W        W20237  35.442  16.292   0.442
60493W        W20238   3.749  10.668  11.879
60494W        W20239   6.691  27.692  14.281
60495W        W20240   7.825  23.601   2.320
60496W        W20241  29.545  14.612  11.393
60497W        W20242   6.910  22.179   4.773
60498W        W20243  30.619  14.686   0.836
60499W        W20244  12.256  30.503  13.833
60500W        W20245  41.385  35.050  14.346
60501W        W20246   9.820  37.385   3.742
60502W        W20247   6.298  19.703   2.326
60503W        W20248  20.565  10.156   2.725
60504W        W20249   0.888  31.897  10.147
60505W        W20250  39.978  33.427  13.459
60506W        W20251  35.964   5.913   2.786
60507W        W20252  12.293   6.424  13.463
60508W        W20253  24.116  40.856   3.171
60509W        W20254   8.840  13.245  13.976
60510W        W20255  18.242  16.638  12.889
60511W        W20256  29.611  17.733   2.800
60512W        W20257  20.120  40.909   4.718
60513W        W20258  27.637  42.855  14.779
60514W        W20259  30.528  28.124  14.407
60515W        W20260  42.945  20.127  13.384
60516W        W20261   8.733  12.184   1.895
60517W        W20262  43.278  40.965  14.917
60518W        W20263  14.228  43.957  14.326
60519W        W20264   8.381   1.360   4.171
60520W        W20265  41.031   7.821   3.387
60521W        W20266  37.016  16.164   1.845
60522W        W20267  36.372  23.617   3.745
60523W        W20268  44.870  26.129  14.480
60524W        W20269  12.116  23.011   1.284
60525W        W20270  35.854  35.987  14.924
60526W        W20271  34.032  11.652   2.666
60527W        W20272  14.764  18.267  13.818
60528W        W20273  38.335  33.070   1.849
60529W        W20274  28.010  36.940   3.748
60530W        W20275  16.124   4.391   1.322
60531W        W20276  14.234  24.137   1.783
60532W        W20277  42.511  39.379  14.806
60533W        W20278  34.873  23.036   0.286
60534W        W20279  31.454  12.772  13.437
60535W        W20280  19.539  19.197  14.476
60536W        W20281  27.053  26.124   4.265
60537W        W20282  34.516  16.659   3.215
60538W        W20283   0.403  12.277   1.303
60539W        W20284  17.064  27.979  12.518
60540W        W20285   6.339  13.815  12.494
60541W        W20286  12.701  13.829   2.765
60542W        W20287  13.317  42.014  11.556
60543W        W20288   1.247   8.327  10.501
60544W        W20289  11.311  40.978   1.701
60545W        W20290   8.376  21.680   1.217
60546W        W20291   1.819  24.711   0.960
60547W        W20292  40.380  32.460  13.390
60548W        W20293  12.254  27.630  13.899
60549W        W20294   7.817  29.121   3.804
60550W        W20295   1.824   9.656  14.360
60551W        W20296  27.571  15.762   1.812
60552W        W20297   3.895  41.019   3.755
60553W        W20298  17.137  27.197   2.763
60554W        W20299   0.364  22.705  12.528
60555W        W20300  16.636  41.968   0.453
60556W        W20301  11.156  19.777  13.040
60557W        W20302  17.212   6.374   5.317
60558W        W20303  29.583  16.189   0.867
60559W        W20304  30.563  36.582   2.842
60560W        W20305  39.495  12.626   2.369
60561W        W20306  39.453  20.130   3.160
60562W        W20307  39.513  26.566  13.995
60563W        W20308   9.241   3.894   3.272
60564W        W20309  20.171  34.486  11.504
60565W        W20310  40.424  28.650  10.543
60566W        W20311   9.749   7.907  12.448
60567W        W20312   4.385  41.958   3.841
60568W        W20313  34.596   9.695  12.378
60569W        W20314  18.117  20.660  12.985
60570W        W20315  32.961   5.221  11.416
60571W        W20316  29.171  21.613  12.007
60572W        W20317   0.424   7.898  14.377
60573W        W20318   2.732  40.333   0.906
60574W        W20319  35.933  36.557  11.029
60575W        W20320   9.742  38.049   1.914
60576W        W20321  40.436  42.857   5.281
60577W        W20322  16.579  18.590   2.251
60578W        W20323   2.855   5.249   2.362
60579W        W20324   6.873  27.552   0.414
60580W        W20325  24.144  34.057  10.462
60581W        W20326  19.659  19.604   3.743
60582W        W20327  29.429   5.719   5.161
60583W        W20328  12.143  39.355   1.840
60584W        W20329  42.978   4.207   1.305
60585W        W20330  31.645  42.309  10.439
60586W        W20331  29.944  39.832  12.341
60587W        W20332   6.916  14.142   2.743
60588W        W20333  20.758  25.473   1.296
60589W        W20334   6.711   4.211  13.403
60590W        W20335  23.540  42.959  14.416
60591W        W20336  43.317   7.214   0.805
60592W        W20337  17.064   4.756   4.759
60593W        W20338  15.220  40.491  13.381
60594W        W20339  19.198  26.955   3.216
60595W        W20340  27.512  10.207   3.163
60596W        W20341   9.675  27.141  13.465
60597W        W20342  24.161  37.903   3.173
60598W        W20343  43.303  34.952   3.747
60599W        W20344  23.569  29.151   4.683
60600W        W20345   1.433  27.692  13.813
60601W        W20346   9.305  15.299  11.489
60602W        W20347  25.632  32.939  13.956
60603W        W20348  28.981   6.872  11.949
60604W        W20349   8.198  40.042  14.837
60605W        W20350  39.468  28.567   2.303
60606W        W20351  20.588  10.820   0.832
60607W        W20352  13.706  29.079   1.441
60608W        W20353  39.050  17.126   3.801
60609W        W20354  40.973   5.816  13.522
60610W        W20355  18.129   5.889   0.428
60611W        W20356  12.651  18.231  12.069
60612W        W20357  23.689  39.834  12.478
60613W        W20358  20.040  29.433  11.953
60614W        W20359  38.348  24.547   4.191
60615W        W20360  44.786   8.794  10.553
60616W        W20361  27.022  37.080  10.639
60617W        W20362  43.774  41.013   4.337
60618W        W20363  25.702  22.635  14.476
60619W        W20364   9.178  13.236  12.497
60620W        W20365  33.429  31.139   1.351
60621W        W20366   4.368  35.594   0.801
60622W        W20367  12.759  26.976   0.262
60623W        W20368   1.962  13.293   1.212
60624W        W20369   2.939  23.048  11.113
60625W        W20370  36.379  15.107  10.465
60626W        W20371  28.646  41.423  10.468
60627W        W20372  37.535  33.620  13.818
60628W        W20373  41.479  24.547   1.828
60629W        W20374  21.194  36.464  13.868
60630W        W20375  42.959  11.346  12.927
60631W        W20376  17.209  15.737  14.314
60632W        W20377  13.785  42.360   1.872
60633W        W20378  25.693  27.024  11.084
60634W        W20379  44.996   4.708   4.642
60635W        W20380  38.866   1.779  14.391
60636W        W20381   2.460  26.673  11.060
60637W        W20382  24.099  39.820  14.774
60638W        W20383  44.807  39.488  12.484
60639W        W20384  29.134  38.062  12.529
60640W        W20385   2.357  14.811  10.409
60641W        W20386  40.541  25.663   1.862
60642W        W20387   6.284  25.210  10.161
60643W        W20388  44.759   0.927  14.984
60644W        W20389  21.737  16.754  11.078
60645W        W20390  42.293  16.654   1.700
60646W        W20391  15.208   7.799  14.334
60647W        W20392  29.593   1.897   0.919
60648W        W20393   8.778  37.850  11.497
60649W        W20394  43.297  19.712   0.369
60650W        W20395  31.983  16.799  12.968
60651W        W20396  34.973  25.154  12.340
60652W        W20397  21.209  41.916  13.987
60653W        W20398  31.474  13.726   1.813
60654W        W20399  20.064   3.922   1.741
60655W        W20400  19.200  16.647  11.905
60656W        W20401  10.372  26.967  13.513
60657W        W20402  32.998  11.223   2.741
60658W        W20403  29.087  33.468  12.358
60659W        W20404  36.577  14.704  11.930
60660W        W20405  22.213  17.158   3.650
60661W        W20406   7.341  41.975  11.555
60662W        W20407  25.518  18.597   0.355
60663W        W20408  28.635   2.761   0.304
60664W        W20409  13.709  41.392  10.561
60665W        W20410  31.460  39.482  13.040
60666W        W20411  36.096   1.938   3.285
60667W        W20412  35.407   4.875  10.498
60668W        W20413  18.695   7.323   0.266
60669W        W20414  37.839  15.133   0.805
60670W        W20415  38.440  13.830  14.955
60671W        W20416  15.717  19.734  10.585
60672W        W20417   4.712   6.204  12.904
60673W        W20418  17.739  18.091   2.867
60674W        W20419   8.751  10.310   1.932
60675W        W20420  44.911  23.183  14.774
60676W        W20421  29.649   8.871  14.513
60677W        W20422  44.860  36.446   1.242
60678W        W20423  38.343  37.891   4.321
60679W        W20424  26.517  33.414  12.967
60680W        W20425  23.136  25.966  11.863
60681W        W20426   0.260  16.744   0.889
60682W        W20427   5.238  17.564  14.307
60683W        W20428  18.281  12.226   3.183
60684W        W20429  19.574  13.600   2.802
60685W        W20430   7.672  29.459   1.241
60686W        W20431  13.643  15.695  11.916
60687W        W20432  17.726  31.005  13.054
60688W        W20433  27.135   2.454  10.404
60689W        W20434  39.008  41.995   0.407
60690W        W20435  37.358  12.138   4.188
60691W        W20436   6.359   2.932  12.020
60692W        W20437   1.920   1.302  10.529
60693W        W20438  13.609  30.063  12.038
60694W        W20439   4.904  23.043  11.938
60695W        W20440  37.540   3.265  13.020
60696W        W20441  24.190   5.321  13.883
60697W        W20442  10.655   0.375  13.792
60698W        W20443  32.016  17.140   2.245
60699W        W20444  44.772   5.377  12.365
60700W        W20445  44.858  35.532  14.983
60701W        W20446   0.924  43.022  14.783
60702W        W20447  24.598  14.294   1.729
60703W        W20448   2.310  31.537  11.937
60704W        W20449  41.913  29.609  14.867
60705W        W20450  16.576   0.397   4.313
60706W        W20451   9.673  22.516   2.246
60707W        W20452  39.059  33.439  13.846
60708W        W20453  21.573   0.353  14.382
60709W        W20454  14.159  13.218  11.907
60710W        W20455  42.361  33.514   4.771
60711W        W20456  17.269   1.893  12.352
60712W        W20457  35.474   0.829  14.910
60713W        W20458  15.769   7.890   4.337
60714W        W20459  42.308  23.580   3.727
60715W        W20460  14.224  40.874   0.854
60716W        W20461  22.536  28.519  14.799
60717W        W20462   2.793   1.905  13.885
60718W        W20463  26.677  16.282   3.654
60719W        W20464  25.522  44.794  12.974
60720W        W20465  39.334  25.093   0.914
60721W        W20466  23.591  19.222  11.054
60722W        W20467  23.540  40.055   1.313
60723W        W20468  43.916   6.889  10.522
60724W        W20469  22.101  28.441  12.996
60725W        W20470  27.956  27.181  14.974
60726W        W20471   2.294  36.494  14.796
60727W        W20472  14.094   5.381  12.083
60728W        W20473  10.716  24.006   1.933
60729W        W20474  19.232  31.078  13.942
60730W        W20475  31.026  41.948  12.049
60731W        W20476   7.365   6.795  11.864
60732W        W20477  24.115  43.883  14.963
60733W        W20478  24.094   7.221  11.928
60734W        W20479   0.368   3.218  14.008
60735W        W20480  12.328  33.025  11.421
60736W        W20481  30.910  27.644  13.367
60737W        W20482  11.357  22.036   2.682
60738W        W20483  36.884  43.823   2.253
60739W        W20484  37.485  31.125   0.730
60740W        W20485  37.458  25.025  10.579
60741W        W20486  27.492  29.928  11.515
60742W        W20487  35.488   5.294  12.378
60743W        W20488  43.510  39.546  13.877
60744W        W20489   1.442  21.179   2.364
60745W        W20490  17.646  43.336   2.753
60746W        W20491   9.664  34.942  13.502
60747W        W20492  30.070  42.904  13.533
60748W        W20493  32.462  33.565  14.375
60749W        W20494  42.445  10.317  11.604
60750W        W20495  38.002  10.846  14.987
60751W        W20496  15.297  35.038   3.244
60752W        W20497  23.724  36.535  11.378
60753W        W20498  15.665   9.324  14.006
60754W        W20499  17.205   1.941  14.341
60755W        W20500   7.337  28.132   3.649
60756W        W20501  32.572  41.801   4.237
60757W        W20502  16.131  37.378  10.950
60758W        W20503   7.220   0.786  12.394
60759W        W20504  27.019   1.733   2.385
60760W        W20505   3.347  24.492  13.410
60761W        W20506   5.913  17.081  10.499
60762W        W20507   2.291  43.014   4.665
60763W        W20508  32.477  43.903  10.422
60764W        W20509  44.970   9.837   3.291
60765W        W20510  34.548   7.828   1.320
60766W        W20511  20.674  10.140   2.295
60767W        W20512  43.398  26.958   1.291
60768W        W20513  41.937  11.649  11.529
60769W        W20514   7.676  13.756   1.704
60770W        W20515   8.878   6.919   4.135
60771W        W20516  18.150   2.349  10.414
60772W        W20517  41.485  16.607  14.824
60773W        W20518  29.145  17.110  13.814
60774W        W20519  26.573  26.697   0.766
60775W        W20520   6.883  20.707  13.848
60776W        W20521  20.740  20.759   0.349
60777W        W20522  23.645  38.851   2.901
60778W        W20523   9.320  30.637  12.051
60779W        W20524  44.797  20.042  11.059
60780W        W20525  40.027  11.693  11.032
60781W        W20526   9.301   7.882  13.792
60782W        W20527   5.355  11.753   2.710
60783W        W20528  21.220  16.740   0.388
60784W        W20529  18.112  39.871   4.209
60785W        W20530  30.027  10.740  11.535
60786W        W20531  19.104  11.183   4.203
60787W        W20532  24.079  27.018   2.258
60788W        W20533  41.039  17.572   1.847
60789W        W20534  41.027  36.857   2.181
60790W        W20535  22.573   2.916  14.310
60791W        W20536  33.959   9.240   0.898
60792W        W20537  23.666  38.386   0.263
60793W        W20538  11.156  19.633  14.429
60794W        W20539   6.227   3.853  14.783
60795W        W20540  39.361  42.504  12.074
60796W        W20541   8.820  12.839  11.387
60797W        W20542  35.434  15.754   3.296
60798W        W20543  38.923  36.478  10.580
60799W        W20544  40.837  24.616  13.378
60800W        W20545  19.669  12.656  10.011
60801W        W20546  34.074  37.580  14.798
60802W        W20547  32.516  33.620   0.882
60803W        W20548  41.999   5.771  11.122
60804W        W20549  11.682   0.288   1.714
60805W        W20550  27.576   9.814   0.389
60806W        W20551   6.234  40.352   4.285
60807W        W20552  16.701  41.007  10.550
60808W        W20553  38.029  12.151  12.458
60809W        W20554  14.207  37.373  10.904
60810W        W20555  29.975  42.965  12.946
60811W        W20556  44.867  23.697   1.289
60812W        W20557  18.200  30.162  13.919
60813W        W20558  10.277   1.385   4.139
60814W        W20559  20.121  11.196  13.513
60815W        W20560  11.154  35.022  13.519
60816W        W20561   0.354  30.996  10.434
60817W        W20562  35.399  14.166   0.426
60818W        W20563   5.702   7.368   1.866
60819W        W20564   7.224  25.602  11.943
60820W        W20565  27.488  18.631   2.194
60821W        W20566  28.610  34.884   4.817
60822W        W20567  24.540   3.242  10.616
60823W        W20568   3.233   3.954   2.318
60824W        W20569  12.707   9.732   1.443
60825W        W20570  15.179  14.753  12.545
60826W        W20571  21.125   5.394  10.902
60827W        W20572  12.823  24.531  10.467
60828W        W20573  24.119  22.161  13.977
60829W        W20574  27.042  17.239   1.819
60830W        W20575  21.228  30.916   9.935
60831W        W20576  44.330  30.513  14.486
60832W        W20577   2.748  36.993  14.862
60833W        W20578  31.072  37.559  14.460
60834W        W20579  32.940   0.413   3.679
60835W        W20580   0.965  23.223   0.294
60836W        W20581  40.983  43.888   1.837
60837W        W20582   4.703  32.456  10.931
60838W        W20583   9.775  41.995  14.389
60839W        W20584   2.425  40.885  12.936
60840W        W20585  17.169   4.732  13.425
60841W        W20586  36.933  42.310  13.491
60842W        W20587  31.956  32.446   0.803
60843W        W20588  42.413   0.337   2.308
60844W        W20589   4.307  27.655   4.125
60845W        W20590  13.107  43.804  14.454
60846W        W20591  26.573  15.127  13.850
60847W        W20592  44.288   7.265  13.947
60848W        W20593   6.376   8.701   0.903
60849W        W20594  39.352  20.273   1.922
60850W        W20595  41.879  17.063  13.936
60851W        W20596  38.535  37.464   2.870
60852W        W20597  36.514  10.666  12.571
60853W        W20598  14.705   0.915  10.153
60854W        W20599   0.775  37.976   1.786
60855W        W20600  12.817  13.325  14.508
60856W        W20601  23.067  35.458   0.428
60857W        W20602  14.617  15.682  12.949
60858W        W20603  31.004  17.129  11.376
60859W        W20604  39.829  11.283  12.890
60860W        W20605   2.343  16.259   1.744
60861W        W20606   5.355  41.968  11.103
60862W        W20607  26.507  13.686   3.656
60863W        W20608   0.861  31.974  13.796
60864W        W20609  35.402   2.943   3.186
60865W        W20610  44.892   1.407  11.082
60866W        W20611  38.910  16.267  14.980
60867W        W20612  39.930  12.746   2.837
60868W        W20613  19.741   5.420   4.825
60869W        W20614  37.024  15.122  13.869
60870W        W20615  19.232  26.042  13.915
60871W        W20616  16.628   2.759   0.431
60872W        W20617  26.618  16.667  14.492
60873W        W20618   1.915  32.122   0.967
60874W        W20619   5.437  44.878  12.942
60875W        W20620  25.642  31.647  12.444
60876W        W20621  41.534  15.710   3.795
60877W        W20622  16.583  37.350   1.393
60878W        W20623  17.668  36.386   2.383
60879W        W20624  16.309   1.835   3.245
60880W        W20625  20.742   8.797  14.480
60881W        W20626  41.812  43.390   1.769
60882W        W20627  27.640  30.619   3.808
60883W        W20628  12.829  42.814   0.438
60884W        W20629  30.506   5.781  10.155
60885W        W20630  14.768  43.790   4.215
60886W        W20631  23.499   9.212  13.020
60887W        W20632  13.227  23.089  13.312
60888W        W20633  43.902   2.785  11.034
60889W        W20634  41.988  26.645   1.737
60890W        W20635   8.705   1.922   0.739
60891W        W20636  41.313   6.224   2.862
60892W        W20637   9.749  15.108   2.698
60893W        W20638  19.048  26.498  14.790
60894W        W20639  39.981  23.557  14.463
60895W        W20640  14.215   3.852   2.238
60896W        W20641   1.788  39.481   4.696
60897W        W20642   9.200  19.062  14.346
60898W        W20643  12.252  38.415  14.476
60899W        W20644  31.408   5.293  13.987
60900W        W20645  39.964  18.275  10.446
60901W        W20646  13.619   9.269  10.630
60902W        W20647  23.049  42.799  12.535
60903W        W20648  20.230  44.896   3.290
60904W        W20649  22.540  28.033   1.768
60905W        W20650  26.072  37.052   3.264
60906W        W20651  28.022   8.251  12.086
60907W        W20652  38.456  21.534   2.255
60908W        W20653   0.975  31.078  14.819
60909W        W20654  37.063   1.956   3.159
60910W        W20655  25.021  34.014  11.073
60911W        W20656  19.730  26.604  10.414
60912W        W20657   8.281  33.600   2.351
60913W        W20658  27.123  12.697   3.812
60914W        W20659  14.631  16.678   0.363
60915W        W20660  32.630  28.045   0.795
60916W        W20661  23.115  14.786   4.284
60917W        W20662  44.894  14.695  14.949
60918W        W20663  19.614  36.861  11.918
60919W        W20664  44.954  14.592  11.554
60920W        W20665  42.933   5.806  12.432
60921W        W20666  32.942  22.246  12.341
60922W        W20667  20.536   6.211   3.158
60923W        W20668  23.168  11.319  14.993
60924W        W20669   6.316  44.915  11.067
60925W        W20670   7.674  38.548   1.395
60926W        W20671  25.148  30.487   5.259
60927W        W20672   7.329   0.284  13.450
60928W        W20673   3.891  32.972  12.981
60929W        W20674  10.750  13.651   2.351
60930W        W20675  23.620  32.572  13.508
60931W        W20676  44.261  23.501  14.893
60932W        W20677   1.329  33.510  14.448
60933W        W20678  19.701   8.866  11.521
60934W        W20679   9.809  10.836  12.529
60935W        W20680   1.382  33.944  13.848
60936W        W20681   3.851  25.165  10.921
60937W        W20682  26.550  35.369  14.285
60938W        W20683  44.295  29.521  14.372
60939W        W20684  30.108   8.278  13.454
60940W        W20685  15.651  11.279   3.280
60941W        W20686  33.504  36.029  10.134
60942W        W20687   9.237  37.434   3.369
60943W        W20688  43.956  32.976  11.545
60944W        W20689  25.526  14.327  12.898
60945W        W20690   8.300  26.015  13.855
60946W        W20691  44.344  25.191  12.402
60947W        W20692  20.233   6.339   2.299
60948W        W20693   9.263  29.981  12.870
60949W        W20694  30.119  38.073  10.500
60950W        W20695  20.255   8.216  10.922
60951W        W20696  38.505  17.137   1.840
60952W        W20697  26.172   9.652  14.927
60953W        W20698  35.941  12.823  12.961
60954W        W20699  39.334  36.363  12.517
60955W        W20700  31.951  27.056  14.867
60956W        W20701  10.866  28.061   2.869
60957W        W20702  24.110   9.213   2.207
60958W        W20703  33.602  17.601   2.239
60959W        W20704  13.714  18.095   2.344
60960W        W20705  26.613  26.188  13.938
60961W        W20706  11.154  21.638   3.766
60962W        W20707  42.908  36.447  11.372
60963W        W20708   6.922  32.624  14.416
60964W        W20709   3.419  34.947   4.276
60965W        W20710  10.696  24.141  13.337
60966W        W20711  11.814  23.195  11.102
60967W        W20712  18.086  31.025   1.765
60968W        W20713  20.730   4.799   2.367
60969W        W20714  36.593   0.418  14.281
60970W        W20715  41.354  44.262  13.397
60971W        W20716  16.761  13.205  10.968
60972W        W20717  14.694  41.491   4.337
60973W        W20718   7.706   3.854   2.374
60974W        W20719  15.194  12.763  10.941
60975W        W20720  13.119  39.546   1.397
60976W        W20721  31.410  13.610  11.504
60977W        W20722  35.601  36.584   0.922
60978W        W20723  32.496  26.055   0.834
60979W        W20724  32.112   3.244  13.969
60980W        W20725  23.199  12.761  11.122
60981W        W20726   5.271  39.502   1.446
60982W        W20727  36.464  36.351  14.332
60983W        W20728   7.711  25.133   4.241
60984W        W20729   2.339  43.463   4.119
60985W        W20730  35.922  15.171  14.809
60986W        W20731  42.913  29.975  14.872
60987W        W20732   4.942  41.006  10.553
60988W        W20733  25.531  22.011   3.838
60989W        W20734   8.685  29.462   1.781
60990W        W20735  14.764  30.616   5.097
60991W        W20736  41.346  28.036  12.489
60992W        W20737  42.436  17.628   0.320
60993W        W20738  35.535  24.648   0.338
60994W        W20739  11.659  21.648   2.405
60995W        W20740  36.890  38.358   3.181
60996W        W20741  31.406   9.304   0.434
60997W        W20742  20.185  41.423  10.622
60998W        W20743   5.725  25.623   3.681
60999W        W20744   9.256   2.926   4.219
61000W        W20745  42.830  34.550  14.369
61001W        W20746  36.864  37.985  13.307
61002W        W20747  13.805  43.288   4.825
61003W        W20748   2.955  23.501  13.311
61004W        W20749  10.668  32.515  12.518
61005W        W20750  43.915  34.414  13.805
61006W        W20751  13.349  32.627   0.275
61007W        W20752  15.190  17.677  11.608
61008W        W20753  25.553   2.892  13.010
61009W        W20754  41.462  34.868   1.421
61010W        W20755  37.548  28.622  14.023
61011W        W20756  18.247  43.788  13.990
61012W        W20757   7.907  23.640   4.174
61013W        W20758  12.737  29.651   3.301
61014W        W20759  43.318  40.389   3.841
61015W        W20760  13.686  14.823  14.018
61016W        W20761  42.404   5.893  14.328
61017W        W20762  18.773   0.334   1.399
61018W        W20763   3.724  42.969   0.360
61019W        W20764   7.225   6.211   0.765
61020W        W20765   7.403  16.812   0.277
61021W        W20766  11.684  40.527   5.230
61022W        W20767   6.676  22.632   4.745
61023W        W20768  36.438  11.192   3.372
61024W        W20769  30.920   1.425  12.564
61025W        W20770  30.139  11.294   3.649
61026W        W20771  24.983  41.374  11.051
61027W        W20772  18.777  10.728  11.435
61028W        W20773  43.014  41.878  12.549
61029W        W20774   9.183   8.836  13.932
61030W        W20775  38.504  14.195   1.855
61031W        W20776   9.688   7.222  10.952
61032W        W20777  40.415  34.469  10.624
61033W        W20778  38.030  40.418   4.758
61034W        W20779   0.258  39.038  13.970
61035W        W20780   7.270  20.601   4.644
61036W        W20781  15.085  10.185   2.664
61037W        W20782  28.568   2.407   0.830
61038W        W20783  41.326  43.010   3.213
61039W        W20784  20.758  13.621  13.349
61040W        W20785  17.567  30.491   4.839
61041W        W20786  28.445  12.145   1.770
61042W        W20787   5.327  41.011   1.780
61043W        W20788  17.732  33.600   1.816
61044W        W20789  40.512  31.405  14.921
61045W        W20790   5.244  32.991   3.805
61046W        W20791  30.154  24.980  13.058
61047W        W20792  22.650   9.383  13.514
61048W        W20793  16.756  44.753   4.770
61049W        W20794  15.669  34.038  13.026
61050W        W20795  11.226  16.600  14.922
61051W        W20796  39.499   8.341   2.205
61052W        W20797   4.426  38.497  12.042
61053W        W20798  15.260  37.887  13.469
61054W        W20799   2.861  11.270   0.875
61055W        W20800  37.568  20.587  11.981
61056W        W20801  41.814  31.533  12.074
61057W        W20802  23.003  16.100   3.314
61058W        W20803   7.388   5.906  13.477
61059W        W20804  36.054  32.046   3.330
61060W        W20805  34.009   8.801   2.303
61061W        W20806   1.430  32.088   3.382
61062W        W20807  14.268   3.239   0.816
61063W        W20808  42.870  34.611  10.451
61064W        W20809  21.247  39.045  12.956
61065W        W20810   2.859  13.349   1.248
61066W        W20811  31.525  42.426   0.325
61067W        W20812   3.731  10.739  10.434
61068W        W20813  19.080  11.355  14.960
61069W        W20814   2.339  11.652  10.598
61070W        W20815  29.137  20.563  12.520
61071W        W20816  27.972  20.534  10.004
61072W        W20817  33.408  31.606   2.385
61073W        W20818   1.349  10.213   3.730
61074W        W20819  10.312  25.500   3.633
61075W        W20820  33.466  32.447   2.376
61076W        W20821   4.246  43.954   0.379
61077W        W20822  26.964  28.628  10.548
61078W        W20823  26.559  17.657   2.760
61079W        W20824  23.509  26.092   4.259
61080W        W20825   0.850   9.286   0.756
61081W        W20826   9.752   8.225  13.034
61082W        W20827  26.031  14.744  13.399
61083W        W20828  20.709  35.043  14.314
61084W        W20829  34.015  42.920   1.725
61085W        W20830  40.968  24.488   0.750
61086W        W20831  13.235  44.329   2.854
61087W        W20832  14.631  24.571   4.706
61088W        W20833  18.118   3.234  14.435
61089W        W20834  40.390  35.369   3.647
61090W        W20835  22.506  23.550   0.923
61091W        W20836  42.329  30.108   1.407
61092W        W20837   7.328  36.486  14.388
61093W        W20838  27.011   5.423   4.821
61094W        W20839  11.152  33.889  14.374
61095W        W20840  16.744  23.028   0.759
61096W        W20841   0.279  24.220  11.023
61097W        W20842   1.404  37.847  10.904
61098W        W20843  32.136  12.358  11.039
61099W        W20844  15.106   3.420  11.947
61100W        W20845   1.293  25.645   0.257
61101W        W20846  29.963   7.258   1.910
61102W        W20847  41.474   6.213  12.537
61103W        W20848  37.337  41.954   3.342
61104W        W20849  31.451   3.793  14.427
61105W        W20850  24.098  40.890   3.700
61106W        W20851  23.686  35.023   0.773
61107W        W20852   1.933  10.876   1.718
61108W        W20853  37.847   1.446  12.449
61109W        W20854  14.258  19.181  11.104
61110W        W20855  32.975  32.437  10.410
61111W        W20856  23.618   3.376   3.652
61112W        W20857  11.336  29.961   3.283
61113W        W20858  20.684  18.224  10.921
61114W        W20859  14.171   0.294   4.833
61115W        W20860  23.590  31.110   2.359
61116W        W20861  28.554   8.326  14.924
61117W        W20862  28.087  43.383   3.718
61118W        W20863  39.963  30.520   4.714
61119W        W20864  41.859  16.180  14.288
61120W        W20865  41.811   9.324   2.339
61121W        W20866  24.661   0.370  10.069
61122W        W20867   6.274  12.758  12.009
61123W        W20868   8.317  20.581   4.619
61124W        W20869  25.684   3.433  10.505
61125W        W20870  43.512   8.774  10.112
61126W        W20871   1.961  18.268   2.321
61127W        W20872  30.597   4.361  14.437
61128W        W20873   5.382  30.939  14.851
61129W        W20874   5.782  12.780   0.854
61130W        W20875   5.696  18.746   3.668
61131W        W20876  42.328  29.044   3.736
61132W        W20877  17.733  38.324   3.800
61133W        W20878  14.691  15.650  11.503
61134W        W20879  21.225  23.194  11.416
61135W        W20880  22.691  12.671  13.335
61136W        W20881  26.549  12.137   3.854
61137W        W20882  35.603  44.307  13.849
61138W        W20883   0.964   6.742  14.988
61139W        W20884  30.634  15.726  13.508
61140W        W20885  13.119  26.964   0.753
61141W        W20886  15.251  35.857  13.406
61142W        W20887  42.297  11.662   1.388
61143W        W20888   0.934  35.886  14.792
61144W        W20889   7.358  21.142  11.601
61145W        W20890  41.991  18.116   0.390
61146W        W20891  13.649  35.898   0.918
61147W        W20892  13.709  35.959   4.324
61148W        W20893  27.981  25.173   2.280
61149W        W20894  12.266  21.535  13.515
61150W        W20895  29.629  39.906  10.487
61151W        W20896  29.618  30.629  12.033
61152W        W20897  36.406   4.418   2.383
61153W        W20898   9.741  19.625  12.533
61154W        W20899   9.746  21.648  14.457
61155W        W20900  44.776   7.887   1.441
61156W        W20901  40.818   9.772   0.432
61157W        W20902  17.683  25.048  13.827
61158W        W20903   2.257  34.384  13.818
61159W        W20904   6.360  30.068  13.015
61160W        W20905   2.963  15.756   2.730
61161W        W20906  18.633  21.551   2.874
61162W        W20907  31.533  11.756  13.821
61163W        W20908  11.779  24.512  11.526
61164W        W20909  25.545  11.830   0.815
61165W        W20910  30.027   4.367  13.916
61166W        W20911  27.133   6.368  11.985
61167W        W20912  44.352  16.771  10.441
61168W        W20913  18.259  11.751  11.460
61169W        W20914   6.352  37.477  12.879
61170W        W20915  13.195  17.181   3.802
61171W        W20916  17.636  25.071   0.403
61172W        W20917  32.497  34.097  11.387
61173W        W20918  24.209  28.652  12.419
61174W        W20919   9.681   7.243   4.279
61175W        W20920  35.031   9.328  12.970
61176W        W20921  38.349  25.611  13.522
61177W        W20922  39.432  37.015  13.439
61178W        W20923  40.811   4.867  14.503
61179W        W20924   8.312  41.534  13.539
61180W        W20925  39.025  36.987  13.887
61181W        W20926  31.099  11.811  12.990
61182W        W20927  29.143  31.005  14.827
61183W        W20928  34.502  28.937  13.047
61184W        W20929  37.063   8.789   4.662
61185W        W20930  17.227  35.940   3.853
61186W        W20931  26.147  43.831   4.166
61187W        W20932  10.343  43.019   0.457
61188W        W20933   0.257  29.134  13.372
61189W        W20934  26.571  23.186   2.296
61190W        W20935   2.358  12.834  13.003
61191W        W20936  29.040   9.157   1.716
61192W        W20937  32.443  12.271  12.887
61193W        W20938  36.584  43.349   0.750
61194W        W20939  32.896  10.324   3.343
61195W        W20940   1.331  21.638  11.581
61196W        W20941  24.109   1.872  14.376
61197W        W20942  38.074  21.138   0.281
61198W        W20943  21.734   4.786  14.780
61199W        W20944  10.168  19.208   3.697
61200W        W20945  29.026   6.847  13.891
61201W        W20946   8.815  33.561   2.389
61202W        W20947  18.782  16.156  13.445
61203W        W20948  31.923   6.767   5.178
61204W        W20949  25.684  34.037   2.293
61205W        W20950  21.079   8.788  12.349
61206W        W20951  31.622  20.127   3.293
61207W        W20952  32.940  14.745   0.935
61208W        W20953  19.063  31.447   1.700
61209W        W20954  38.530   1.404  13.875
61210W        W20955  37.408  24.163  11.383
61211W        W20956  29.535  32.473  12.557
61212W        W20957  39.527  26.091  11.921
61213W        W20958  10.644   1.868   1.742
61214W        W20959  38.526  34.396  14.012
61215W        W20960  20.657  15.771  10.143
61216W        W20961   1.877  42.930  10.580
61217W        W20962   1.481  25.596   3.673
61218W        W20963   9.225   6.276  12.962
61219W        W20964  40.391  15.136  11.392
61220W        W20965  30.010   4.837   3.219
61221W        W20966   5.766  15.640   0.889
61222W        W20967  14.262   9.824   2.179
61223W        W20968   6.290  41.386   0.254
61224W        W20969  11.707  28.115  14.941
61225W        W20970  39.447  37.054  11.921
61226W        W20971  39.397  18.174   0.831
61227W        W20972   7.380  41.871   3.634
61228W        W20973   2.392  39.506   2.769
61229W        W20974  27.035  16.630   4.125
61230W        W20975  16.079  10.308  11.080
61231W        W20976  29.500  37.978   1.299
61232W        W20977  22.163  39.819   4.166
61233W        W20978  29.031  21.628   1.395
61234W        W20979  11.129  39.960   0.809
61235W        W20980  24.135   6.246  13.411
61236W        W20981  31.587   2.830  14.493
61237W        W20982   0.396  27.141  13.913
61238W        W20983   9.798  42.917  12.966
61239W        W20984  34.534   2.409   2.852
61240W        W20985  20.581   4.290  14.943
61241W        W20986   1.916  11.203   3.635
61242W        W20987  22.650  21.205  12.927
61243W        W20988  18.139  12.843  14.938
61244W        W20989  13.164   9.691   1.802
61245W        W20990  30.041  30.461   4.617
61246W        W20991   7.747  41.518  12.836
61247W        W20992  16.131  16.120   1.702
61248W        W20993  35.511  15.595   2.403
61249W        W20994   2.911   9.841   0.916
61250W        W20995  16.742   1.936   0.834
61251W        W20996  26.062  26.086  11.089
61252W        W20997  34.930  20.043   2.316
61253W        W20998  40.422  35.914  14.511
61254W        W20999  33.572  43.339   4.651
61255W        W21000  34.602  17.186  12.914
61256W        W21001  20.209   4.442  11.943
61257W        W21002  13.729  11.202   0.782
61258W        W21003   6.913  30.112   4.137
61259W        W21004  10.284  27.156   1.711
61260W        W21005  44.990  27.600  14.942
61261W        W21006  39.542  42.821  12.953
61262W        W21007   6.232  37.037   3.736
61263W        W21008  24.707  12.154   0.300
61264W        W21009   6.744   2.258  12.874
61265W        W21010  29.014  39.514  10.931
61266W        W21011  12.654  23.084   0.831
61267W        W21012  19.179  19.174  12.356
61268W        W21013   6.865  34.593   3.795
61269W        W21014   3.862  40.348   2.889
61270W        W21015   9.393  16.260   1.435
61271W        W21016   5.424   2.745   0.371
61272W        W21017  38.865  28.594  10.576
61273W        W21018  23.599  25.520  12.910
61274W        W21019  43.278  37.491   2.847
61275W        W21020  23.614  18.254   1.407
61276W        W21021  41.538  41.358  13.896
61277W        W21022  23.171   5.827   4.800
61278W        W21023  36.573  10.752  14.384
61279W        W21024  28.488  16.264   4.641
61280W        W21025  31.011  10.210  10.429
61281W        W21026   2.370   2.386  14.810
61282W        W21027  32.071   6.712  13.346
61283W        W21028  42.513  25.019  10.447
61284W        W21029   2.282  24.589   4.716
61285W        W21030  40.369  17.702   3.174
61286W        W21031  19.129  20.729  13.824
61287W        W21032  25.516   0.764  13.520
61288W        W21033   9.380  18.614  10.504
61289W        W21034   0.775  40.342  14.887
61290W        W21035  36.500  28.647   1.213
61291W        W21036  10.160  26.116  13.388
61292W        W21037   1.441  21.665  10.496
61293W        W21038  16.180  36.464  11.070
61294W        W21039  25.974   0.343   2.781
61295W        W21040  14.327  26.614   3.757
61296W        W21041  41.925  42.461  11.937
61297W        W21042  22.223  44.917  10.438
61298W        W21043  39.040  23.564  14.762
61299W        W21044  42.467  15.621  11.537
61300W        W21045  23.503   9.242   4.166
61301W        W21046  13.216  19.650   2.689
61302W        W21047  11.868  32.479  13.512
61303W        W21048  30.931   8.861   0.360
61304W        W21049  32.494   4.706   3.383
61305W        W21050  42.784  42.867  11.010
61306W        W21051  26.185  42.948   2.415
61307W        W21052   1.863   7.281  14.279
61308W        W21053  38.536  39.512   0.963
61309W        W21054   1.855   1.358  13.380
61310W        W21055  22.170  15.752   0.865
61311W        W21056   7.310  44.753  12.827
61312W        W21057   4.402   2.420   1.237
61313W        W21058   7.303  43.437  13.806
61314W        W21059  35.413  33.951  13.372
61315W        W21060  23.989  11.282  11.967
61316W        W21061  41.304   8.765   4.237
61317W        W21062  36.881   9.321  12.448
61318W        W21063  15.681   1.393   4.175
61319W        W21064  22.101  17.563  13.527
61320W        W21065  12.342  39.944  12.449
61321W        W21066   2.783   2.916  11.050
61322W        W21067  40.831  40.376  12.572
61323W        W21068   9.668  10.647  11.466
61324W        W21069  27.529  28.143  11.571
61325W        W21070   4.718  29.143  12.988
61326W        W21071  41.332  41.824  14.399
61327W        W21072  35.871  30.416  13.403
61328W        W21073   0.322  41.831   0.784
61329W        W21074  12.808  28.999  13.504
61330W        W21075  39.494  38.072  14.348
61331W        W21076  20.061  44.893   4.333
61332W        W21077  35.569  15.290   3.686
61333W        W21078   7.390  14.211  10.569
61334W        W21079   4.450  32.084   4.116
61335W        W21080  28.940  14.636  10.956
61336W        W21081  43.363  30.964   4.313
61337W        W21082  34.016   4.897  12.888
61338W        W21083  28.974  40.006   1.743
61339W        W21084  44.489   8.167  12.893
61340W        W21085  19.562  31.459   0.799
61341W        W21086  10.669   7.755   2.814
61342W        W21087  11.790   3.247  10.124
61343W        W21088   2.469   5.416  12.572
61344W        W21089  39.343  33.457   3.850
61345W        W21090  44.961  14.260   0.788
61346W        W21091   0.357  30.459   5.184
61347W        W21092  35.872   9.666   1.824
61348W        W21093  31.146  26.963  12.057
61349W        W21094  10.846   7.704  10.952
61350W        W21095  35.078  40.947  14.278
61351W        W21096  39.929   8.187   4.327
61352W        W21097   0.257  15.326  14.785
61353W        W21098  18.776   3.363  13.536
61354W        W21099   6.684  44.497  10.563
61355W        W21100   8.666  26.005   2.893
61356W        W21101   2.795  30.506   2.362
61357W        W21102  11.194  16.806  12.486
61358W        W21103  37.931  22.076   3.719
61359W        W21104  19.641   6.745  12.370
61360W        W21105  30.501  38.042  14.908
61361W        W21106  36.948  38.041   4.246
61362W        W21107   8.879  41.353  13.535
61363W        W21108  36.885  34.515   3.642
61364W        W21109   7.277  17.661  11.410
61365W        W21110   4.307  20.264  14.491
61366W        W21111   5.416  42.384  13.524
61367W        W21112  35.429  31.574  13.791
61368W        W21113  28.676   6.339  10.037
61369W        W21114  19.065  20.198   0.341
61370W        W21115  31.439  31.425   1.849
61371W        W21116  19.069  12.333   2.862
61372W        W21117  36.554   1.357   4.676
61373W        W21118  29.491  41.841   3.797
61374W        W21119  35.593  38.446   1.253
61375W        W21120  33.000  15.651   1.695
61376W        W21121  29.473  43.992  11.883
61377W        W21122  28.098  10.780  14.827
61378W        W21123  18.206  17.677  12.979
61379W        W21124  35.600   0.927  13.462
61380W        W21125  39.340  35.976   2.755
61381W        W21126   6.722   9.242   4.246
61382W        W21127  31.993  26.616  10.538
61383W        W21128  39.448  43.381  10.634
61384W        W21129  29.529  33.892   1.223
61385W        W21130  31.539  12.175  14.470
61386W        W21131   4.721   5.244   0.432
61387W        W21132  10.337  33.510  12.339
61388W        W21133  18.717  13.186   0.475
61389W        W21134  14.613  42.861   2.686
61390W        W21135  33.931  18.056  10.926
61391W        W21136  24.130  43.010  11.491
61392W        W21137  12.286  13.308  14.964
61393W        W21138   4.303   1.868  13.850
61394W        W21139  15.801  13.682   1.857
61395W        W21140  37.350   4.742   2.706
61396W        W21141  17.138  36.365   0.740
61397W        W21142  13.664  37.998   0.278
61398W        W21143  33.391  40.313  10.135
61399W        W21144  41.841  11.207   3.671
61400W        W21145  42.428   9.874   4.137
61401W        W21146  36.886  43.956   0.469
61402W        W21147  12.237  21.540  10.999
61403W        W21148  41.854   6.828  11.095
61404W        W21149   8.690  42.016  11.021
61405W        W21150  20.587  25.671  12.998
61406W        W21151   4.281   6.830  13.462
61407W        W21152  23.608  43.013  12.883
61408W        W21153  12.854  12.293   1.231
61409W        W21154   4.806  24.573  10.926
61410W        W21155  16.224  30.491  13.494
61411W        W21156  13.603  39.470  13.035
61412W        W21157  29.015   1.460  11.013
61413W        W21158  26.146  40.845  11.572
61414W        W21159  41.441  15.811   1.297
61415W        W21160  42.486  40.980  12.951
61416W        W21161  32.052  19.163   0.940
61417W        W21162  39.956  36.845   4.785
61418W        W21163  15.261  19.663  12.491
61419W        W21164  34.081  43.867   0.761
61420W        W21165  36.574  20.683   0.891
61421W        W21166  38.383  27.980   0.840
61422W        W21167  16.758   8.364   0.357
61423W        W21168   3.899  26.954  10.563
61424W        W21169  16.776   7.770   3.839
61425W        W21170   8.772  14.290  12.444
61426W        W21171  35.031  42.030   0.332
61427W        W21172   4.944   4.304  13.355
61428W        W21173  40.305   5.353  11.927
61429W        W21174  26.981   2.880  12.907
61430W        W21175   9.691  33.900   4.778
61431W        W21176  30.586  35.396   0.768
61432W        W21177  15.258  19.742   4.182
61433W        W21178  27.464   1.766  14.368
61434W        W21179   6.769  25.683   1.874
61435W        W21180   7.882   3.917   3.860
61436W        W21181  39.832   3.305   3.278
61437W        W21182  15.718  23.735   2.185
61438W        W21183  33.509  21.132  11.568
61439W        W21184  18.609  22.528  13.825
61440W        W21185  22.107  26.111  14.795
61441W        W21186   7.835  10.806  11.460
61442W        W21187   3.747  20.539  14.876
61443W        W21188  19.776  22.564   2.189
61444W        W21189  24.020  22.230  14.284
61445W        W21190  22.227  21.033   0.455
61446W        W21191  18.257   8.236  13.968
61447W        W21192  26.965  41.504   4.343
61448W        W21193  40.865  16.662   0.779
61449W        W21194  18.757   1.426   1.855
61450W        W21195  42.325  31.902  11.941
61451W        W21196  37.512  28.675  12.381
61452W        W21197  31.978  34.497  12.475
61453W        W21198  19.055  38.486  13.042
61454W        W21199   8.815  23.593  12.863
61455W        W21200  27.014   9.207  11.057
61456W        W21201  18.083  39.342  13.813
61457W        W21202   4.355  34.047  14.456
61458W        W21203  40.303  38.331   1.295
61459W        W21204   3.373  17.671  12.377
61460W        W21205  20.735  14.592   9.572
61461W        W21206  22.125  23.492   4.131
61462W        W21207   3.435  37.358   9.468
61463W        W21208  14.218  24.546   1.712
61464W        W21209  33.004  10.324  12.931
61465W        W21210  29.095  14.135  13.833
61466W        W21211  27.605  24.058  12.468
61467W        W21212  24.156   2.873   2.831
61468W        W21213  35.914  20.122  12.850
61469W        W21214  18.643  11.685  14.888
61470W        W21215  27.530  28.552   3.287
61471W        W21216  14.815  21.149  10.465
61472W        W21217   6.905   0.892   2.282
61473W        W21218   6.243   5.762   4.627
61474W        W21219  32.119   7.701   2.188
61475W        W21220   2.924   7.694  11.987
61476W        W21221  30.598   1.776  11.399
61477W        W21222  23.015   8.209   1.254
61478W        W21223  40.405  25.013   0.843
61479W        W21224   0.418   5.809   4.212
61480W        W21225   1.248   8.787  14.830
61481W        W21226  25.497  30.447  12.464
61482W        W21227   8.236   7.402  14.963
61483W        W21228  20.235  18.163  11.859
61484W        W21229  22.617  41.422   3.658
61485W        W21230  37.404   9.813   3.739
61486W        W21231  18.615  34.092  14.377
61487W        W21232   3.955  19.070   3.813
61488W        W21233  16.761  14.212  12.357
61489W        W21234  13.829  14.159  11.423
61490W        W21235  33.886   7.802   4.640
61491W        W21236  27.154  33.422   2.191
61492W        W21237  39.363  18.132  13.953
61493W        W21238  16.089   4.447   3.307
61494W        W21239   2.381  18.615   3.827
61495W        W21240  12.732  40.964  13.337
61496W        W21241   1.470  32.056   4.137
61497W        W21242  15.203  11.745  14.302
61498W        W21243  24.181  23.990  13.365
61499W        W21244   1.974  21.672   4.717
61500W        W21245  26.517  10.300  11.387
61501W        W21246   0.866  27.143  14.887
61502W        W21247  23.667  33.875   0.297
61503W        W21248   5.248  39.982  11.902
61504W        W21249  42.371  36.469   4.673
61505W        W21250  28.515  36.510  11.115
61506W        W21251   9.264  28.030  11.124
61507W        W21252   6.733   3.422  13.407
61508W        W21253   2.733  34.554  12.439
61509W        W21254  39.393  22.176   2.393
61510W        W21255  30.422  21.177   2.309
61511W        W21256  12.791  32.535   3.820
61512W        W21257   7.678  34.509   3.242
61513W        W21258  19.595  30.070  11.458
61514W        W21259  32.135   9.850  14.994
61515W        W21260  38.876  25.675  11.913
61516W        W21261  20.717   4.259  11.917
61517W        W21262  13.172  28.056   2.271
61518W        W21263  17.090   2.898  11.035
61519W        W21264  11.148  21.700  12.550
61520W        W21265  41.459  44.475   0.309
61521W        W21266  25.972   4.846   3.762
61522W        W21267  34.946  22.561  12.030
61523W        W21268  12.693   7.768   2.896
61524W        W21269   4.247  22.119  11.938
61525W        W21270  27.127  36.093  10.509
61526W        W21271  26.590   8.703   4.256
61527W        W21272  33.439  33.003   2.194
61528W        W21273  42.786   5.772  12.824
61529W        W21274   5.783  25.673  12.017
61530W        W21275  31.552  21.176  12.413
61531W        W21276   0.340  40.020  12.995
61532W        W21277  40.017  12.273  10.951
61533W        W21278   6.217   5.790  11.937
61534W        W21279  44.957  18.753  14.449
61535W        W21280  41.348   3.414  12.528
61536W        W21281   3.322  28.994   3.743
61537W        W21282  13.264  22.594   3.171
61538W        W21283  37.538  35.516   0.802
61539W        W21284  33.008  25.015   4.678
61540W        W21285  28.492   7.288   0.257
61541W        W21286   8.315  42.823  13.869
61542W        W21287   0.386  12.336   4.262
61543W        W21288  39.936  19.730   0.363
61544W        W21289  15.240  28.608   0.368
61545W        W21290   2.855  36.980  13.546
61546W        W21291  10.701  26.505  13.910
61547W        W21292   0.912  38.854   3.266
61548W        W21293  15.738  37.521  11.375
61549W        W21294  37.385  25.220   0.331
61550W        W21295  19.164  38.337   1.251
61551W        W21296  19.263  38.507  10.626
61552W        W21297  31.046  15.676   4.131
61553W        W21298  18.143  29.609  11.486
61554W        W21299   4.752  43.378   3.228
61555W        W21300  41.404  16.715   0.937
61556W        W21301  10.676   7.856   1.375
61557W        W21302  11.272  20.268   2.760
61558W        W21303  37.395   5.710  13.037
61559W        W21304  10.828  28.543  11.585
61560W        W21305   1.361  23.638  12.442
61561W        W21306   2.859   4.258  14.394
61562W        W21307   8.882   3.869  13.967
61563W        W21308  13.775  42.841   1.335
61564W        W21309  11.662  19.538  11.611
61565W        W21310   1.762   5.270  10.897
61566W        W21311   9.864   3.724  10.474
61567W        W21312  30.094  40.478  10.990
61568W        W21313  40.425  33.100  13.440
61569W        W21314  39.366   6.192   2.848
61570W        W21315  43.272  27.551  13.002
61571W        W21316  16.747  32.533   1.273
61572W        W21317  22.040  26.575   4.749
61573W        W21318  12.190   1.925  14.013
61574W        W21319  33.537  36.056   3.722
61575W        W21320  12.727   5.891  11.886
61576W        W21321   9.168  18.625   3.332
61577W        W21322  11.341  12.616   1.702
61578W        W21323   6.766  23.493  10.578
61579W        W21324  36.073  29.480   1.770
61580W        W21325  37.869  29.153   1.838
61581W        W21326  44.939  43.486  10.437
61582W        W21327   8.230  19.748  12.023
61583W        W21328  26.588  19.114   0.423
61584W        W21329   0.341  23.061  12.052
61585W        W21330  19.162  23.022  13.837
61586W        W21331   2.884  27.030   0.806
61587W        W21332  16.176  41.841  10.949
61588W        W21333   8.357  22.727   3.342
61589W        W21334  27.657  10.139   0.932
61590W        W21335  42.828  12.836   0.482
61591W        W21336  39.026   6.258  12.542
61592W        W21337  25.063  27.003  14.305
61593W        W21338  35.593  26.626   3.177
61594W        W21339  26.168  15.742  13.432
61595W        W21340  26.630  26.544   3.177
61596W        W21341  20.640  26.620   3.206
61597W        W21342  38.915  10.167  12.357
61598W        W21343   5.854  22.151  12.524
61599W        W21344  11.765  15.579  12.867
61600W        W21345  17.566   7.334   3.724
61601W        W21346  42.815  42.504  11.412
61602W        W21347  10.706  34.913  10.509
61603W        W21348   1.865  36.057  11.025
61604W        W21349  31.578  31.053   3.854
61605W        W21350  10.686  33.125   0.365
61606W        W21351   4.805  36.863  11.572
61607W        W21352  28.453  44.473   1.926
61608W        W21353   9.343  10.378   4.223
61609W        W21354   0.457  29.486   3.289
61610W        W21355  20.546  10.870  10.612
61611W        W21356  25.113  37.513   0.469
61612W        W21357  30.975  29.604   3.352
61613W        W21358  22.153  38.424   1.874
61614W        W21359   1.771   8.665  14.830
61615W        W21360  36.512   1.382   3.313
61616W        W21361   3.415  25.704  14.394
61617W        W21362   5.237  13.238   4.165
61618W        W21363  32.530  22.210  13.903
61619W        W21364  10.203   3.428  14.797
61620W        W21365  41.388  18.248  12.014
61621W        W21366   5.264  15.323  13.498
61622W        W21367  16.567   6.904   1.698
61623W        W21368  42.826   3.370  11.964
61624W        W21369   1.398  19.718  12.575
61625W        W21370  29.596  25.630   3.278
61626W        W21371  18.259   3.345  11.526
61627W        W21372  43.834  12.185   1.855
61628W        W21373   2.808  13.731  14.388
61629W        W21374  40.017  25.522   0.898
61630W        W21375  22.088  35.085   3.345
61631W        W21376  36.856  30.608  12.384
61632W        W21377   3.295   9.236  10.613
61633W        W21378  10.653  33.539  11.977
61634W        W21379  10.752  24.516   1.877
61635W        W21380  15.135  30.614  14.340
61636W        W21381  35.898   5.332   3.216
61637W        W21382  23.714  28.954  14.278
61638W        W21383  16.788   7.865   0.888
61639W        W21384  21.019   8.220   1.863
61640W        W21385   8.289  14.121   3.794
61641W        W21386  40.391  36.476  10.431
61642W        W21387  28.436   6.792   2.213
61643W        W21388  40.919  32.079  12.450
61644W        W21389  14.660  37.382   2.321
61645W        W21390  26.688  20.208  13.981
61646W        W21391  15.726   7.699   0.326
61647W        W21392   1.777   5.715   3.810
61648W        W21393  26.046  20.259   0.960
61649W        W21394   1.439  27.100  13.542
61650W        W21395  22.501   3.411  14.870
61651W        W21396  16.729  10.342  13.357
61652W        W21397  28.946  21.678   2.799
61653W        W21398  17.643  32.512   3.284
61654W        W21399  25.526  44.287   1.421
61655W        W21400  31.923  41.996  14.410
61656W        W21401  33.457   9.164   4.821
61657W        W21402  19.095  44.991  10.615
61658W        W21403  35.089  44.338   2.902
61659W        W21404  39.900  32.078  11.563
61660W        W21405  26.559  17.605  10.413
61661W        W21406  19.777  13.649  12.002
61662W        W21407   0.367   2.960  11.021
61663W        W21408   5.709  18.710   0.938
61664W        W21409   1.440  28.065  10.540
61665W        W21410  11.633  31.512   1.870
61666W        W21411   9.742   6.823   0.332
61667W        W21412  39.007  11.311   4.335
61668W        W21413   7.329  35.006   0.341
61669W        W21414  31.991  30.960  14.795
61670W        W21415   0.941  35.097  11.976
61671W        W21416   0.960   7.680   2.869
61672W        W21417  40.322  35.085  14.477
61673W        W21418  11.330  20.250   4.125
61674W        W21419   6.903  33.403   0.786
61675W        W21420  24.577  10.779   0.305
61676W        W21421  26.534  23.126   4.684
61677W        W21422  36.464   4.731   4.243
61678W        W21423  18.250  15.139   4.174
61679W        W21424  25.711  24.578   2.796
61680W        W21425   8.198  29.485  10.616
61681W        W21426  41.454  28.494   0.381
61682W        W21427  19.175  12.766  12.435
61683W        W21428  10.347   5.261   0.961
61684W        W21429  28.655  27.558  14.480
61685W        W21430   5.834  24.568  14.495
61686W        W21431  22.691   1.934   0.256
61687W        W21432  18.744  35.370  14.438
61688W        W21433  43.416  12.684  12.511
61689W        W21434  17.561  16.651   1.323
61690W        W21435  24.217  14.769   2.191
61691W        W21436  24.045  35.946   2.238
61692W        W21437   4.421  13.314  14.871
61693W        W21438  22.727  40.878  10.588
61694W        W21439  36.890  23.074   4.124
61695W        W21440  19.273   3.410  13.835
61696W        W21441  39.835  35.461   1.762
61697W        W21442  12.845  30.602   1.719
61698W        W21443  25.586  30.083  13.378
61699W        W21444  41.017  15.216   2.418
61700W        W21445  31.110  26.071  13.425
61701W        W21446  28.438  30.995  12.905
61702W        W21447  15.751   0.914  10.468
61703W        W21448  39.879  42.282  10.538
61704W        W21449   5.233  44.788   1.874
61705W        W21450  38.945  42.884  14.877
61706W        W21451  17.180  28.527   0.880
61707W        W21452  33.977  31.045   3.358
61708W        W21453  20.725  42.332  14.898
61709W        W21454  25.686   6.339  13.487
61710W        W21455  10.721  26.554  13.420
61711W        W21456  44.436  17.647  13.315
61712W        W21457  29.165   8.189   2.415
61713W        W21458  29.558  33.441  13.798
61714W        W21459  43.459  17.267   4.768
61715W        W21460  42.981   3.455  14.391
61716W        W21461  15.683  14.672  13.932
61717W        W21462  34.926  39.869  13.049
61718W        W21463  21.254  42.824   2.746
61719W        W21464   0.832  31.092   1.449
61720W        W21465  40.337   8.673  11.529
61721W        W21466  26.159   3.234   3.790
61722W        W21467   8.272  39.332  13.356
61723W        W21468  42.494   3.789  10.638
61724W        W21469  14.312  12.303  11.004
61725W        W21470  27.537  41.531  10.446
61726W        W21471  35.506  25.045  11.099
61727W        W21472  27.552  33.011   1.842
61728W        W21473  28.610  12.344   2.207
61729W        W21474  33.447  24.543   4.761
61730W        W21475  12.292  37.460   3.380
61731W        W21476  14.667  14.698   3.771
61732W        W21477  42.300  31.117  13.046
61733W        W21478  37.351   5.343  14.887
61734W        W21479  19.771   1.858  14.419
61735W        W21480  25.487  35.892  12.402
61736W        W21481  31.124  30.924  14.414
61737W        W21482  21.262  34.417   2.887
61738W        W21483  24.015  18.785   1.332
61739W        W21484  43.848  10.158   2.847
61740W        W21485  13.219  40.450   3.208
61741W        W21486  16.156  34.921   2.682
61742W        W21487  29.956  11.638  11.862
61743W        W21488  40.904  44.416   4.133
61744W        W21489  22.231  24.992  11.093
61745W        W21490  26.061  34.044   1.411
61746W        W21491  10.251   7.183   4.124
61747W        W21492  25.169  15.153   4.191
61748W        W21493  32.078  36.356   0.779
61749W        W21494   8.178  39.401  12.532
61750W        W21495  20.250  36.520   4.651
61751W        W21496   0.856   9.200  13.420
61752W        W21497  20.724   4.249  13.495
61753W        W21498   7.415  18.719  14.495
61754W        W21499  16.136  30.650  11.520
61755W        W21500  16.613  13.182  13.359
61756W        W21501  20.028  33.880  12.454
61757W        W21502  36.953  22.178   3.245
61758W        W21503   1.240  10.778   0.947
61759W        W21504  44.365  23.138   0.964
61760W        W21505  22.568  20.654  11.057
61761W        W21506  18.181   7.382  14.884
61762W        W21507   6.856  11.230  11.885
61763W        W21508  13.769  39.967  11.882
61764W        W21509   9.715  36.994  10.083
61765W        W21510  37.361  42.884   0.937
61766W        W21511   7.309   4.859  14.800
61767W        W21512  43.439  18.614  11.533
61768W        W21513   8.220   6.778   3.804
61769W        W21514  30.517   0.381   0.754
61770W        W21515  42.921  24.077   2.897
61771W        W21516   0.399  36.986  14.445
61772W        W21517  41.442  41.013   2.891
61773W        W21518   6.394  37.845  13.415
61774W        W21519   6.225  25.650   4.771
61775W        W21520  24.667  17.774  13.048
61776W        W21521   5.329   7.851  12.556
61777W        W21522   1.838  39.866   0.848
61778W        W21523  16.301  28.669  14.775
61779W        W21524  37.912  23.589  11.431
61780W        W21525  37.951  34.872  12.502
61781W        W21526  31.454   9.669  11.597
61782W        W21527   4.926  25.178   4.738
61783W        W21528  10.369  42.386  14.311
61784W        W21529   9.677  37.477  10.037
61785W        W21530   6.207   0.918   0.411
61786W        W21531   5.768  13.151  14.312
61787W        W21532  37.916  40.501  10.590
61788W        W21533  33.953   5.825   4.146
61789W        W21534  25.069  24.582  13.519
61790W        W21535  25.021  15.265  12.009
61791W        W21536  29.926   6.281   3.240
61792W        W21537  36.421  25.479   1.235
61793W        W21538  29.582   5.834  10.931
61794W        W21539  22.245  34.047   3.367
61795W        W21540   0.362  13.222   4.775
61796W        W21541  33.572  26.539  11.403
61797W        W21542   1.837   3.802   2.186
61798W        W21543  41.514  14.635  13.445
61799W        W21544  25.615  10.194   2.764
61800W        W21545  25.573  21.641   2.256
61801W        W21546  14.718  41.529   0.889
61802W        W21547  42.412  39.046   3.299
61803W        W21548  16.683  10.165  13.957
61804W        W21549  30.059  34.394  13.337
61805W        W21550   0.313  30.459   4.790
61806W        W21551   7.276  34.408  13.033
61807W        W21552  26.526  19.068   4.837
61808W        W21553  25.714   0.785   1.246
61809W        W21554   0.838  11.350   2.807
61810W        W21555  18.160  23.633  14.422
61811W        W21556   5.345  41.024   0.361
61812W        W21557  33.962  31.080   1.916
61813W        W21558  30.498  24.150   3.763
61814W        W21559  12.171  43.301   0.966
61815W        W21560  21.703  27.081   4.600
61816W        W21561  16.633   5.247  14.339
61817W        W21562  11.322  26.529  12.008
61818W        W21563  43.514  23.551  13.975
61819W        W21564  18.062   1.331   9.950
61820W        W21565  37.374   4.754   4.781
61821W        W21566  34.078   4.916   0.270
61822W        W21567  36.515  32.410   3.177
61823W        W21568   5.871  11.742   2.781
61824W        W21569  33.400  37.055  13.469
61825W        W21570  19.043   3.423  11.422
61826W        W21571  23.691  22.032  11.457
61827W        W21572  31.563  40.845  11.445
61828W        W21573  43.902  26.097  11.033
61829W        W21574  31.636  33.475   4.786
61830W        W21575   7.886  27.125   4.762
61831W        W21576  37.026  14.111   0.247
61832W        W21577  15.596  41.349  12.571
61833W        W21578  38.834   0.952  10.618
61834W        W21579   8.775  37.341   3.171
61835W        W21580  30.129  22.669  12.040
61836W        W21581  36.544  17.651  11.088
61837W        W21582  43.927  44.808   0.337
61838W        W21583  24.635  12.675  12.896
61839W        W21584   9.886  26.688  12.991
61840W        W21585   8.750  20.588  12.483
61841W        W21586  39.317  32.396  10.517
61842W        W21587  23.656  14.192  13.005
61843W        W21588  15.268  36.429  10.046
61844W        W21589  29.635   7.394   3.223
61845W        W21590  18.711  12.671   3.367
61846W        W21591  24.614  36.862   1.880
61847W        W21592   3.820  37.354   3.732
61848W        W21593  40.960   9.187   4.285
61849W        W21594  11.191   3.918  14.462
61850W        W21595  44.947  31.143  10.521
61851W        W21596  12.184   6.422   0.379
61852W        W21597   0.954  27.645   0.955
61853W        W21598  43.833  20.095  13.473
61854W        W21599  38.460  28.058  12.889
61855W        W21600  10.854   8.303  12.960
61856W        W21601  23.057  13.140   0.780
61857W        W21602  14.238  12.822  13.872
61858W        W21603   9.874  24.002  13.475
61859W        W21604  12.813  42.925   3.763
61860W        W21605  40.476  34.378   2.838
61861W        W21606   3.885  25.523  14.314
61862W        W21607  25.609  26.986  11.442
61863W        W21608  33.444  30.039   3.349
61864W        W21609  30.053   6.245  14.839
61865W        W21610   6.196  12.358   0.897
61866W        W21611  26.689  16.765   4.121
61867W        W21612   4.427  35.550  10.515
61868W        W21613  35.549  31.419  10.550
61869W        W21614  32.980  14.184  12.361
61870W        W21615   0.825   9.699  12.917
61871W        W21616  37.960  36.576  12.904
61872W        W21617  13.678  36.546   1.793
61873W        W21618   8.797  13.216  14.385
61874W        W21619  26.689  28.058   5.204
61875W        W21620  13.740  10.659   2.692
61876W        W21621  42.507  19.089  12.910
61877W        W21622  40.914  39.005  14.767
61878W        W21623   4.402  32.531  13.477
61879W        W21624   6.751  20.204  10.583
61880W        W21625  41.359  43.826   0.275
61881W        W21626   0.936   0.390   2.687
61882W        W21627   5.315  11.632  11.422
61883W        W21628  18.287  39.851  11.067
61884W        W21629  14.190  39.884   5.721
61885W        W21630  39.424  13.608   3.748
61886W        W21631  25.693  25.134  10.590
61887W        W21632  42.967   4.883   1.752
61888W        W21633   9.209  17.567  13.506
61889W        W21634  12.130  36.475   2.681
61890W        W21635  37.934  44.367  14.455
61891W        W21636  18.238  39.832  13.391
61892W        W21637   9.347  12.723   0.739
61893W        W21638  42.861  35.885  12.005
61894W        W21639  36.545  23.633  10.044
61895W        W21640   3.237  42.968  13.531
61896W        W21641  25.130   4.716   4.205
61897W        W21642  29.144   0.770   1.754
61898W        W21643   0.764   4.774   2.713
61899W        W21644   8.167  12.164  11.570
61900W        W21645  13.842  10.670   3.737
61901W        W21646  41.438  28.455   4.696
61902W        W21647  11.799  44.757   4.765
61903W        W21648   6.352  42.966   4.750
61904W        W21649  17.703  31.149   1.821
61905W        W21650  10.757   4.936   4.210
61906W        W21651  25.195  23.018   0.331
61907W        W21652  30.492   5.934   5.249
61908W        W21653  19.649  28.081   0.891
61909W        W21654  25.174  17.606   1.254
61910W        W21655  41.525  36.052  11.463
61911W        W21656  35.436  15.266   0.366
61912W        W21657  32.509  16.619  14.298
61913W        W21658   2.800  33.920   0.243
61914W        W21659  21.657  14.215   1.418
61915W        W21660  24.223  37.052   2.393
61916W        W21661  41.452  37.350  10.493
61917W        W21662  15.671  13.204   3.195
61918W        W21663  41.935  31.557   3.636
61919W        W21664  21.038  11.836   2.290
61920W        W21665  31.574  14.213   0.881
61921W        W21666  10.314   6.695   2.728
61922W        W21667  43.451  43.418   1.335
61923W        W21668  19.773  32.615   0.895
61924W        W21669  39.951  35.896  12.074
61925W        W21670   7.825  17.789  11.551
61926W        W21671  38.480  26.629  13.543
61927W        W21672  21.116  13.647  11.996
61928W        W21673  29.045  41.480  13.863
61929W        W21674  32.550  39.876   3.839
61930W        W21675  36.496  20.638  14.470
61931W        W21676   6.850   8.830   1.870
61932W        W21677  22.741   2.807  14.858
61933W        W21678   4.383  20.185   2.263
61934W        W21679  11.288  40.379  12.004
61935W        W21680  36.978   5.828   2.866
61936W        W21681  14.117  32.541   2.382
61937W        W21682   4.698  35.901   3.733
61938W        W21683  29.597  38.926  12.052
61939W        W21684  23.232  42.891  14.906
61940W        W21685  44.459   6.216  12.565
61941W        W21686  25.062  28.642   3.337
61942W        W21687  27.629  38.836  10.605
61943W        W21688  43.934  11.661   3.673
61944W        W21689   9.737   5.439   0.921
61945W        W21690  12.343  40.009   3.256
61946W        W21691  29.005  29.630  12.394
61947W        W21692  18.574  30.562  12.488
61948W        W21693  10.248   9.174  11.433
61949W        W21694  21.125  26.702  13.325
61950W        W21695  36.097  13.196   1.212
61951W        W21696  12.260   3.374   1.212
61952W        W21697  33.058  33.101   1.221
61953W        W21698  34.451  44.765   0.358
61954W        W21699  44.470  44.954  12.913
61955W        W21700   7.669  15.114   3.662
61956W        W21701   2.907   8.266  10.644
61957W        W21702  43.827   9.303   3.821
61958W        W21703  34.916   8.178  11.468
61959W        W21704  16.733  25.704  10.974
61960W        W21705   2.462  17.777   1.925
61961W        W21706  28.139   1.241  13.310
61962W        W21707  40.458  18.716  10.403
61963W        W21708  20.724  42.919  11.891
61964W        W21709  30.659   8.897  11.511
61965W        W21710  26.096  18.118  10.430
61966W        W21711  22.715  40.404  12.515
61967W        W21712   2.825  38.892  11.553
61968W        W21713   6.678  39.451  11.423
61969W        W21714  39.318   0.254  12.539
61970W        W21715  34.551  41.810  11.980
61971W        W21716  11.178  38.013   3.209
61972W        W21717   9.683  11.703   1.862
61973W        W21718  19.071  21.515  13.351
61974W        W21719  30.573  34.436   1.770
61975W        W21720  18.747  38.843   0.838
61976W        W21721   9.201  31.924   4.267
61977W        W21722  27.558  29.604  10.508
61978W        W21723  16.179  33.042  14.470
61979W        W21724  25.190  38.914  12.973
61980W        W21725  31.915  34.940   0.352
61981W        W21726  19.191  11.363   2.856
61982W        W21727  33.022  37.026  12.865
61983W        W21728  41.405  39.961  15.000
61984W        W21729   8.796  44.333   4.123
61985W        W21730  31.048  44.868   3.380
61986W        W21731  22.569  43.889   3.360
61987W        W21732  12.299  21.692   0.812
61988W        W21733  20.224  10.194   9.939
61989W        W21734  38.826   6.328   2.681
61990W        W21735  30.603  34.507  14.788
61991W        W21736   5.276  21.673  12.364
61992W        W21737  42.468  37.963   3.314
61993W        W21738   1.423  15.638   3.218
61994W        W21739  39.845   8.199  10.967
61995W        W21740   8.800  18.173  14.931
61996W        W21741   6.849  12.343   2.299
61997W        W21742  33.896  12.220   3.328
61998W        W21743  26.477  37.505   1.431
61999W        W21744  20.169  44.768  13.368
62000W        W21745  43.885  27.593   2.336
62001W        W21746  14.799  19.682  12.422
62002W        W21747   4.448   7.745   2.310
62003W        W21748  26.670   4.386   0.484
62004W        W21749  16.810  26.528  13.812
62005W        W21750  33.996   0.947   3.378
62006W        W21751  27.624   3.731  10.965
62007W        W21752  32.465  28.114  10.949
62008W        W21753  23.634  28.948   3.704
62009W        W21754  38.074  21.049  11.496
62010W        W21755  35.071   8.254   0.746
62011W        W21756  34.522  14.642   3.720
62012W        W21757  17.749  25.093   3.857
62013W        W21758  36.868  21.122  13.933
62014W        W21759  33.935   4.436   5.175
62015W        W21760  43.966  32.545   0.362
62016W        W21761  12.700  18.294  13.003
62017W        W21762  23.162  41.033   3.777
62018W        W21763  19.220  32.425   4.808
62019W        W21764  23.172  20.207  12.054
62020W        W21765  22.590  15.638  12.378
62021W        W21766  40.816  32.099   0.426
62022W        W21767  24.641  34.923   3.384
62023W        W21768  32.503  43.002   2.324
62024W        W21769  14.162   4.272  11.905
62025W        W21770  22.660  38.571   3.643
62026W        W21771  17.675  10.837  11.493
62027W        W21772  11.673  10.205  12.532
62028W        W21773  26.113   5.336   3.184
62029W        W21774   2.812  42.346  10.943
62030W        W21775  42.789  13.314  10.921
62031W        W21776   4.218  44.949   0.353
62032W        W21777  14.704  34.489   1.315
62033W        W21778   2.383  31.961   3.797
62034W        W21779   4.872   9.716   0.840
62035W        W21780   3.263   9.683  13.333
62036W        W21781  15.738  17.664  11.465
62037W        W21782  27.020  11.813  11.887
62038W        W21783  28.468  23.987  14.320
62039W        W21784  10.230   5.701   0.941
62040W        W21785   6.415   7.690  11.438
62041W        W21786  15.195  17.228   1.281
62042W        W21787  34.972  12.676   4.718
62043W        W21788  12.291  15.136   3.298
62044W        W21789   4.319  44.295   1.794
62045W        W21790   1.372  41.518  12.061
62046W        W21791  13.640  30.479   1.751
62047W        W21792  12.792  31.926  10.911
62048W        W21793  23.155   8.233   3.178
62049W        W21794  32.558  32.542  13.440
62050W        W21795  15.600   3.384   0.428
62051W        W21796  30.567  38.835  13.430
62052W        W21797  36.967  21.564  10.532
62053W        W21798  15.291   1.802  12.400
62054W        W21799  18.136  23.131   3.740
62055W        W21800  33.984  30.630  11.416
62056W        W21801  17.735  42.910  12.525
62057W        W21802  32.983  30.508   3.703
62058W        W21803  15.141  24.975  12.017
62059W        W21804  31.940  21.018  14.462
62060W        W21805   9.215  11.225   3.839
62061W        W21806  13.240  30.636   1.872
62062W        W21807  36.468  20.159   5.215
62063W        W21808  22.050  27.048  10.970
62064W        W21809  41.791   3.288   2.285
62065W        W21810  19.675  12.252   3.789
62066W        W21811  42.427  29.541   5.107
62067W        W21812  32.601  10.180   0.457
62068W        W21813  44.342   9.320  13.383
62069W        W21814   4.426  22.097   4.211
62070W        W21815   1.243  30.040  14.881
62071W        W21816  38.902   5.238   4.201
62072W        W21817   7.877  12.125   1.932
62073W        W21818   7.819  44.905   4.601
62074W        W21819   0.936  13.204   4.676
62075W        W21820  26.956  25.547  12.982
62076W        W21821  20.158  13.774   5.623
62077W        W21822  16.766  37.366   3.254
62078W        W21823  33.527  27.145  12.499
62079W        W21824  28.046  23.117   2.270
62080W        W21825  13.325  16.312  11.568
62081W        W21826  34.491  28.622   4.603
62082W        W21827   2.293  24.230  14.376
62083W        W21828  32.904   7.313   1.289
62084W        W21829  16.082   4.357   2.296
62085W        W21830   6.732   8.179   2.703
62086W        W21831   6.281  31.486   4.234
62087W        W21832   2.871   3.239   3.294
62088W        W21833  32.924  31.043  11.567
62089W        W21834  23.216  35.087   2.214
62090W        W21835  30.107  18.704  13.496
62091W        W21836  25.996  16.206   2.716
62092W        W21837  24.128  19.235  14.325
62093W        W21838  14.212   9.683   4.253
62094W        W21839  25.618  15.657  13.930
62095W        W21840  26.557  27.633   3.360
62096W        W21841  38.490  14.252   3.736
62097W        W21842  14.269  11.157  11.446
62098W        W21843  25.972   8.851  13.977
62099W        W21844  33.473  27.561   4.151
62100W        W21845  36.567   0.464   0.743
62101W        W21846  26.972  19.734  12.552
62102W        W21847   6.375   2.942   4.300
62103W        W21848  12.158  37.454   1.808
62104W        W21849  32.452   6.874  13.393
62105W        W21850  22.698  37.019   1.765
62106W        W21851  12.637  14.179  12.900
62107W        W21852  44.838  40.986  13.936
62108W        W21853   1.762  21.259   9.969
62109W        W21854  40.013  21.253   1.267
62110W        W21855  37.013  13.656  13.889
62111W        W21856  34.577  26.092  14.420
62112W        W21857  42.372  20.094   4.781
62113W        W21858  42.001   1.460   3.729
62114W        W21859  40.529   3.757  14.340
62115W        W21860   2.789  27.017  13.437
62116W        W21861  37.456  22.575   0.779
62117W        W21862  26.636  39.556   3.338
62118W        W21863  12.230  17.612   3.730
62119W        W21864  34.460  23.527   1.265
62120W        W21865  10.798   2.909  14.434
62121W        W21866   7.345  39.391   1.260
62122W        W21867  27.686  11.794   2.699
62123W        W21868  15.638   9.317  11.382
62124W        W21869   5.825  10.837   1.787
62125W        W21870   8.397  25.623  13.357
62126W        W21871  33.908  16.613   4.746
62127W        W21872  33.877  23.143   3.824
62128W        W21873  10.210   0.333   2.307
62129W        W21874  13.130   8.819  11.961
62130W        W21875  32.463  17.784   3.262
62131W        W21876  10.204  15.714  10.897
62132W        W21877  42.025  19.202   2.340
62133W        W21878  27.489   4.220  13.004
62134W        W21879  18.101  10.285   0.798
62135W        W21880  28.630  17.789  10.547
62136W        W21881  41.878  13.199   4.722
62137W        W21882  24.121  33.459  11.580
62138W        W21883  33.127  10.847  11.477
62139W        W21884  29.114  12.254   1.792
62140W        W21885  35.390  18.600  10.066
62141W        W21886   5.865  39.540   1.262
62142W        W21887  27.983  34.068  13.905
62143W        W21888  41.938   3.951   2.196
62144W        W21889  16.214  24.018   0.469
62145W        W21890  25.641   6.285  12.899
62146W        W21891  10.822   1.402   2.676
62147W        W21892  30.947  31.597   5.142
62148W        W21893  11.303  30.065  13.335
62149W        W21894   1.828  34.404   3.701
62150W        W21895   0.434  12.286  13.938
62151W        W21896   6.821  19.224  14.848
62152W        W21897  23.618  42.378   3.752
62153W        W21898  12.265  35.052   2.827
62154W        W21899  23.656   0.395  13.936
62155W        W21900  40.462   0.304   4.150
62156W        W21901  12.233   2.449  12.011
62157W        W21902  19.119  12.817   3.258
62158W        W21903  43.976  14.170  10.544
62159W        W21904  22.128  14.785  14.421
62160W        W21905  39.396  41.008  12.347
62161W        W21906  39.498   6.865  13.443
62162W        W21907  37.087   4.747   3.216
62163W        W21908   7.806  43.021   3.825
62164W        W21909  25.664   9.707  12.568
62165W        W21910  11.252   2.729   1.919
62166W        W21911  11.162  31.425  14.438
62167W        W21912  12.647  18.107  10.955
62168W        W21913  26.094  10.725   3.656
62169W        W21914  38.546  25.988  12.828
62170W        W21915  17.081  28.677   4.636
62171W        W21916  13.127  26.183  13.329
62172W        W21917  34.451  17.655  12.016
62173W        W21918  37.035  41.879  12.907
62174W        W21919  10.862  37.421   2.763
62175W        W21920  35.497  15.200   0.947
62176W        W21921  43.311  27.671  13.422
62177W        W21922  29.051  41.327  11.051
62178W        W21923   5.224  17.197  12.998
62179W        W21924   2.403   0.493  13.516
62180W        W21925  38.997  32.048   4.643
62181W        W21926  33.495   5.353   0.775
62182W        W21927  10.298  22.010   0.804
62183W        W21928   3.326  25.470  14.031
62184W        W21929  19.115  19.585  10.961
62185W        W21930  15.718  21.089   2.861
62186W        W21931  11.748  12.131  12.917
62187W        W21932   3.857  11.643   1.930
62188W        W21933  21.117  29.123  14.379
62189W        W21934  18.242  39.051  11.869
62190W        W21935   4.877  16.254  12.512
62191W        W21936  17.276  35.459   3.734
62192W        W21937  14.106  27.647  12.948
62193W        W21938  17.556  13.243  12.006
62194W        W21939  15.155  43.883   2.412
62195W        W21940  22.216   7.391  11.444
62196W        W21941  35.882  24.105  11.459
62197W        W21942  42.789  27.959   4.196
62198W        W21943  15.589  36.348  10.421
62199W        W21944   8.276  41.960   2.837
62200W        W21945  25.008   8.771   3.323
62201W        W21946  21.638  38.331   3.212
62202W        W21947  19.688  36.921  13.462
62203W        W21948   4.346   6.796   4.735
62204W        W21949  13.736  21.690   1.825
62205W        W21950  31.063  15.668  10.628
62206W        W21951  23.650  12.804  11.572
62207W        W21952  21.261  24.006   2.196
62208W        W21953  14.176   2.364   4.143
62209W        W21954  15.133  31.520   1.283
62210W        W21955  14.690  34.457  14.348
62211W        W21956  43.991  31.637   0.909
62212W        W21957  19.243  11.770  12.504
62213W        W21958  12.123   9.652   2.702
62214W        W21959  31.501   0.291  12.396
62215W        W21960  40.330  22.682  11.980
62216W        W21961  19.268  40.481  12.892
62217W        W21962  34.866  31.976   2.329
62218W        W21963  32.116  29.151  13.873
62219W        W21964  26.647  29.151   1.878
62220W        W21965   4.900  26.586   3.154
62221W        W21966  11.756   8.223   1.929
62222W        W21967  44.476  12.154  12.966
62223W        W21968  41.297  11.326  13.438
62224W        W21969  17.717  42.829  12.019
62225W        W21970   5.895  17.225  13.380
62226W        W21971   9.388  30.013   4.644
62227W        W21972  38.013   6.236  14.376
62228W        W21973  13.769  13.306   1.921
62229W        W21974   7.689  40.827  11.431
62230W        W21975   2.461   6.694  10.537
62231W        W21976  35.903  29.918   0.786
62232W        W21977  22.688  18.713   3.801
62233W        W21978  24.485  29.101  12.363
62234W        W21979  19.541   0.914   2.710
62235W        W21980  17.203  22.186  14.458
62236W        W21981  31.454  14.747  13.007
62237W        W21982  35.866  33.011  14.839
62238W        W21983  40.347  26.988   0.250
62239W        W21984  35.368   7.739   2.383
62240W        W21985  32.929  33.131  11.425
62241W        W21986  22.578   8.677   3.766
62242W        W21987  32.636  28.117   4.326
62243W        W21988  29.939   5.234  14.297
62244W        W21989  18.612  21.611   3.375
62245W        W21990  12.349  38.030   2.786
62246W        W21991   1.474  24.036  11.483
62247W        W21992  11.631  11.250  12.371
62248W        W21993   3.299  15.174   2.279
62249W        W21994  34.403  31.902  14.485
62250W        W21995   8.376  42.519   0.262
62251W        W21996  25.058  24.684  14.366
62252W        W21997  37.541  30.009  14.282
62253W        W21998  26.991  32.991   1.838
62254W        W21999   8.277  11.352   4.238
62255W        W22000   9.150  43.018   0.431
62256W        W22001  37.015  41.964   4.783
62257W        W22002   4.298   8.317  10.425
62258W        W22003  40.516  16.201  11.388
62259W        W22004  32.475  28.574   2.243
62260W        W22005  27.478  14.177   5.287
62261W        W22006  38.433  28.102   1.882
62262W        W22007   3.242  10.204   1.299
62263W        W22008  34.962  31.606   0.270
62264W        W22009   4.805  27.986  14.020
62265W        W22010  14.765  32.140  12.892
62266W        W22011  24.111  28.119  12.547
62267W        W22012   3.268  26.065  13.979
62268W        W22013  27.194  13.690   1.274
62269W        W22014  39.495  16.676   1.418
62270W        W22015  18.775  26.092  11.521
62271W        W22016  35.863  29.162   2.249
62272W        W22017   3.794  38.005  11.110
62273W        W22018  42.426  15.704  11.893
62274W        W22019   1.249  25.505   2.216
62275W        W22020   2.907   9.817  14.820
62276W        W22021  42.818  20.274   2.405
62277W        W22022   7.683  28.581   1.733
62278W        W22023   5.380  14.224   4.237
62279W        W22024  26.109   9.657  13.446
62280W        W22025  29.964  18.639   5.213
62281W        W22026  21.555   9.765   3.744
62282W        W22027  22.180  26.995  10.587
62283W        W22028  40.472  25.062   3.190
62284W        W22029  40.973  15.226  14.808
62285W        W22030  32.121  40.410   0.811
62286W        W22031  40.797  10.312  13.904
62287W        W22032  32.953  22.225  14.025
62288W        W22033  44.843  20.225  10.584
62289W        W22034  31.135   3.442  11.380
62290W        W22035   7.220  12.150   0.815
62291W        W22036  16.081  37.074   0.389
62292W        W22037  21.149  23.037   4.174
62293W        W22038  30.954  21.568  12.448
62294W        W22039  11.652  17.694   3.741
62295W        W22040  37.529  20.194   4.182
62296W        W22041  33.897   5.196   1.712
62297W        W22042  28.673  27.054   0.406
62298W        W22043  12.242  13.719  13.816
62299W        W22044  28.487  34.383   0.258
62300W        W22045  25.528  28.648   4.202
62301W        W22046  16.235  13.823   3.679
62302W        W22047  15.782  23.695   0.264
62303W        W22048  21.070  31.568  11.910
62304W        W22049  27.516  25.653   3.694
62305W        W22050  39.933  25.148   0.331
62306W        W22051  43.438   9.195  11.497
62307W        W22052  19.186   2.363   0.745
62308W        W22053  13.245  43.475   3.791
62309W        W22054  24.033  22.215   4.141
62310W        W22055  20.638  24.982   2.809
62311W        W22056  14.297  41.326  13.926
62312W        W22057  17.106  20.201  14.785
62313W        W22058  41.291  24.115   3.265
62314W        W22059  25.668   4.325  10.156
62315W        W22060   0.980  38.444   0.329
62316W        W22061   0.260  11.143   4.789
62317W        W22062  27.114  14.260   3.370
62318W        W22063  37.964  18.713   4.263
62319W        W22064  31.078  38.357   2.349
62320W        W22065  28.044   2.896  13.531
62321W        W22066  35.515  33.623   4.741
62322W        W22067  44.374  36.396   2.395
62323W        W22068  22.663  39.993   3.273
62324W        W22069   1.249  18.679   1.772
62325W        W22070  21.633  36.572   4.273
62326W        W22071  29.147  35.068   3.335
62327W        W22072  39.517  21.098   3.161
62328W        W22073  27.008  23.201   3.300
62329W        W22074  39.011  42.477  12.843
62330W        W22075  39.511  32.904  13.505
62331W        W22076  12.358   4.270  13.821
62332W        W22077   9.853  39.966  12.951
62333W        W22078  32.517   7.740   2.306
62334W        W22079   0.915  36.433   1.255
62335W        W22080  25.093   8.162   0.429
62336W        W22081  44.883  24.512   2.750
62337W        W22082  20.579   7.292  14.290
62338W        W22083  13.781  10.278   2.777
62339W        W22084  25.578  43.916  13.377
62340W        W22085  13.224  21.719   0.465
62341W        W22086  27.607  24.721  11.585
62342W        W22087   8.709  32.566   3.842
62343W        W22088  37.946  16.202  10.446
62344W        W22089  35.914  13.262  14.306
62345W        W22090  22.572  11.633  11.567
62346W        W22091   1.346  20.670  11.566
62347W        W22092  39.313  26.165  10.528
62348W        W22093   7.809   6.204  11.064
62349W        W22094  37.487   0.897   1.334
62350W        W22095  42.882  22.644  14.820
62351W        W22096   6.382   7.397  13.978
62352W        W22097  20.684   8.183   0.413
62353W        W22098   5.200   3.244  14.032
62354W        W22099  44.842  21.561  10.576
62355W        W22100  11.663  42.786   2.301
62356W        W22101  30.415   0.319  14.490
62357W        W22102   2.744  15.085   3.297
62358W        W22103  24.643  22.140  11.528
62359W        W22104  41.459  22.180  13.406
62360W        W22105  22.128  19.596   4.814
62361W        W22106   3.931   9.288  13.517
62362W        W22107  34.426  42.384   1.824
62363W        W22108   8.206  16.688   1.705
62364W        W22109  20.234  18.061   3.772
62365W        W22110  27.621  20.578  10.495
62366W        W22111  15.703  35.073   3.722
62367W        W22112  38.992   4.800   2.261
62368W        W22113  40.043  33.427   4.679
62369W        W22114  34.409  36.543  11.905
62370W        W22115  31.064   5.804  11.571
62371W        W22116   3.849  32.046  10.442
62372W        W22117   6.870  32.992   1.343
62373W        W22118  10.301  13.620  14.892
62374W        W22119  22.031  11.343   0.249
62375W        W22120  29.958  42.849   1.887
62376W        W22121  27.478  14.280  12.941
62377W        W22122  33.425  41.900  12.433
62378W        W22123  15.228  33.061  11.981
62379W        W22124  23.024   1.464  10.586
62380W        W22125  20.185  26.687   3.691
62381W        W22126  34.405   3.235  11.551
62382W        W22127  24.559  26.164  10.917
62383W        W22128  11.368  26.680  12.835
62384W        W22129   5.196  26.046  10.578
62385W        W22130  38.036  42.292   2.814
62386W        W22131  40.021  39.062   3.752
62387W        W22132  13.281   6.361   1.898
62388W        W22133  27.646  14.186  13.533
62389W        W22134  36.357  38.337   1.868
62390W        W22135  26.481   8.815  14.910
62391W        W22136  24.042  44.268  14.346
62392W        W22137  27.007  13.633  13.988
62393W        W22138  21.104  28.575   4.601
62394W        W22139   2.745   8.772  10.494
62395W        W22140  14.785   5.367   3.805
62396W        W22141  28.026  34.864   0.787
62397W        W22142   4.434  20.036  13.013
62398W        W22143  30.470  39.531  14.829
62399W        W22144  24.616  39.448  13.928
62400W        W22145  18.628  35.431   3.219
62401W        W22146  14.187   8.253   3.157
62402W        W22147  42.975  23.199   4.836
62403W        W22148  40.386  25.046  11.552
62404W        W22149  42.444   2.880   2.273
62405W        W22150  23.222  20.706   1.305
62406W        W22151  30.414  10.155   3.173
62407W        W22152  14.758  19.104   2.776
62408W        W22153  16.091   7.222   0.756
62409W        W22154  35.879  41.391   4.609
62410W        W22155  39.920   3.438  11.430
62411W        W22156   6.830   9.182   3.860
62412W        W22157  17.590  11.250   4.634
62413W        W22158  37.437  27.635   1.451
62414W        W22159   9.341  15.157  12.470
62415W        W22160  41.034  20.602   0.737
62416W        W22161  22.199  41.029  14.487
62417W        W22162  19.563  21.055  12.486
62418W        W22163  22.083   3.393   3.259
62419W        W22164  40.034  11.854   2.851
62420W        W22165  35.972  15.640  12.062
62421W        W22166  20.196  36.059  11.940
62422W        W22167  25.499  32.458   9.955
62423W        W22168  36.890  37.852  12.536
62424W        W22169  28.558  42.889  11.392
62425W        W22170  23.677  13.154  13.833
62426W        W22171  33.482  12.123  13.358
62427W        W22172  14.614  24.002   1.763
62428W        W22173  19.090  42.487  10.915
62429W        W22174  12.669   4.903   0.447
62430W        W22175  34.508   5.760  10.513
62431W        W22176  17.211  31.501  12.962
62432W        W22177  23.004  21.236   0.739
62433W        W22178  32.981   5.694  11.532
62434W        W22179   7.364  44.950  10.593
62435W        W22180  19.585  20.584  10.404
62436W        W22181  27.013  15.086   1.730
62437W        W22182  16.259  28.039   2.323
62438W        W22183   6.370  29.001  12.965
62439W        W22184  25.114  43.961  13.840
62440W        W22185   3.768  35.940  14.991
62441W        W22186  18.566  42.408  10.632
62442W        W22187  38.966  19.768   3.698
62443W        W22188   3.793  10.246  12.449
62444W        W22189  22.097  17.161   0.266
62445W        W22190   3.348   4.897  14.864
62446W        W22191  21.756  13.715  10.057
62447W        W22192  12.119  43.360  11.595
62448W        W22193   3.837  25.030   3.207
62449W        W22194  26.158  15.225   0.446
62450W        W22195  26.978  27.616   3.147
62451W        W22196  20.618  24.031   0.283
62452W        W22197  34.528  23.109  11.035
62453W        W22198  28.963  31.069  13.490
62454W        W22199  10.359  28.021   3.373
62455W        W22200  30.116   9.334   3.779
62456W        W22201  12.286  29.565   4.326
62457W        W22202   3.458  11.849  12.093
62458W        W22203  24.587  17.638   3.163
62459W        W22204  20.214   8.841  12.429
62460W        W22205  13.684  10.759  11.008
62461W        W22206  35.886  11.241  14.306
62462W        W22207  12.286  17.067   1.929
62463W        W22208  41.015   2.359   4.169
62464W        W22209  38.458  10.308  12.085
62465W        W22210  14.279  13.704   2.270
62466W        W22211   3.460  35.893   2.806
62467W        W22212  13.143  34.451   9.519
62468W        W22213   0.274  25.675   4.140
62469W        W22214  37.468  39.425  14.775
62470W        W22215  18.573  23.682  10.922
62471W        W22216  42.306  43.943   2.403
62472W        W22217   1.919   8.666  11.549
62473W        W22218  27.603  40.533   4.340
62474W        W22219  12.124  22.678  11.095
62475W        W22220  26.965  24.611   2.712
62476W        W22221  36.447  29.586  10.455
62477W        W22222  40.444  18.195  11.906
62478W        W22223  11.184  23.598   2.376
62479W        W22224   5.360  18.558  10.998
62480W        W22225  16.106  44.969   0.243
62481W        W22226  40.376  19.767   1.417
62482W        W22227  18.656  18.262   4.686
62483W        W22228  27.166   4.247  14.006
62484W        W22229  42.811   0.417   0.322
62485W        W22230   8.787  25.543   3.766
62486W        W22231  31.097   6.832  11.451
62487W        W22232  11.707  18.059  12.856
62488W        W22233  18.561  18.140   2.692
62489W        W22234  37.005  15.739   1.436
62490W        W22235  39.005  40.999   1.900
62491W        W22236  37.035   4.799   3.713
62492W        W22237  43.300   2.955  14.336
62493W        W22238  32.409  39.489   1.711
62494W        W22239  22.149  24.658  13.035
62495W        W22240   2.410  34.404   2.712
62496W        W22241  37.999  12.676  13.462
62497W        W22242   4.411  10.870  12.861
62498W        W22243  42.806  36.497   0.740
62499W        W22244  38.554  33.988  11.025
62500W        W22245  17.143   9.783   1.291
62501W        W22246  21.189  38.031   1.764
62502W        W22247   4.792  28.438   0.382
62503W        W22248   8.368   9.228   1.799
62504W        W22249  18.717   6.867   4.720
62505W        W22250  34.870   3.932  11.993
62506W        W22251   0.962  39.000  10.437
62507W        W22252  36.068  19.697   1.429
62508W        W22253  33.442  43.954  11.117
62509W        W22254  20.682  19.250  14.467
62510W        W22255  34.412   2.826  12.389
62511W        W22256  12.787   3.772   0.313
62512W        W22257  22.190   9.290   1.921
62513W        W22258   7.874  10.383   4.748
62514W        W22259   4.257  31.123  14.900
62515W        W22260   9.830  44.345  11.069
62516W        W22261  31.493  11.779  11.532
62517W        W22262  36.390  35.010  12.994
62518W        W22263   5.855   7.831  11.429
62519W        W22264  22.205  37.458   0.349
62520W        W22265  35.066  43.780   3.196
62521W        W22266   9.694  30.530  11.022
62522W        W22267   5.692  13.169   1.370
62523W        W22268  15.129   0.449   1.445
62524W        W22269  22.081  13.339  10.459
62525W        W22270   8.163  31.947   4.313
62526W        W22271  27.141  37.431   2.731
62527W        W22272  41.388  20.275   2.239
62528W        W22273  22.572  40.537  12.068
62529W        W22274  30.496   0.878  13.433
62530W        W22275  34.412   3.721   0.302
62531W        W22276  16.786  34.593  13.489
62532W        W22277   9.686  13.827   2.698
62533W        W22278  24.564  43.003  11.871
62534W        W22279  33.900   7.396  10.436
62535W        W22280  19.658  24.065   3.384
62536W        W22281  37.041   3.729   3.838
62537W        W22282  22.653   0.799  12.402
62538W        W22283   6.393   4.729  11.371
62539W        W22284  38.904   8.717   1.859
62540W        W22285  18.589  40.385   3.710
62541W        W22286  35.853  16.681   4.782
62542W        W22287  32.395  19.284  13.379
62543W        W22288   4.297   6.214  14.365
62544W        W22289  28.626  41.384  14.374
62545W        W22290   0.870   7.337   3.647
62546W        W22291  31.061  44.393  13.820
62547W        W22292  43.874  39.856   0.263
62548W        W22293  44.351   9.754   1.318
62549W        W22294  42.374  24.173  13.904
62550W        W22295   6.813  19.637   2.788
62551W        W22296  23.635  34.100   1.436
62552W        W22297  26.017  28.128   1.327
62553W        W22298  28.536  27.097   3.360
62554W        W22299  36.413  44.309  11.373
62555W        W22300  21.682  10.659   0.762
62556W        W22301  44.938  21.626   2.237
62557W        W22302  25.525  16.672  12.026
62558W        W22303  33.379  30.970   3.841
62559W        W22304  35.482  22.668  11.123
62560W        W22305  22.717   9.385  11.047
62561W        W22306   1.446   7.777   2.305
62562W        W22307  22.568  36.842  11.505
62563W        W22308  33.427  36.458   2.222
62564W        W22309   0.772   5.741  11.081
62565W        W22310   8.286  20.757  14.774
62566W        W22311  27.977  21.659   1.401
62567W        W22312  28.150  11.225   2.197
62568W        W22313  40.368   0.263  12.536
62569W        W22314  32.911  14.610   4.351
62570W        W22315   1.303  10.848  14.976
62571W        W22316  39.859  28.990  12.981
62572W        W22317   1.370  29.164   2.891
62573W        W22318  20.256  27.516  11.914
62574W        W22319  13.212  40.383   2.393
62575W        W22320   7.771  43.292   0.923
62576W        W22321   7.865  11.130   2.248
62577W        W22322  31.029  20.727   0.737
62578W        W22323   5.699   6.252  13.382
62579W        W22324  28.935  18.178  13.487
62580W        W22325  43.963  21.214   3.212
62581W        W22326  41.517  31.905   0.256
62582W        W22327  34.074  13.834  12.362
62583W        W22328  42.472   2.750   1.299
62584W        W22329   6.384  43.798   3.372
62585W        W22330  16.164  44.926   3.252
62586W        W22331   4.433  37.482  13.439
62587W        W22332  38.951  25.563   0.420
62588W        W22333  35.075   9.649  13.894
62589W        W22334  17.761   4.727  10.525
62590W        W22335  22.651  27.451  13.832
62591W        W22336  36.362  23.678  12.977
62592W        W22337   6.185  24.635  10.894
62593W        W22338  23.221  42.898  13.914
62594W        W22339  11.291  14.759  13.466
62595W        W22340  42.508  27.050  13.382
62596W        W22341  12.669   2.427   2.743
62597W        W22342  40.974  44.785   4.201
62598W        W22343   0.251   2.236   0.360
62599W        W22344  17.193  44.786   4.330
62600W        W22345  17.189   8.337  14.473
62601W        W22346  42.839   8.804  13.504
62602W        W22347   1.749  38.903   4.296
62603W        W22348  30.559   7.781  13.442
62604W        W22349  36.890  18.578   1.214
62605W        W22350   8.895   0.900  14.420
62606W        W22351  22.528  17.064  10.572
62607W        W22352  18.738  12.225  13.792
62608W        W22353  38.035  14.220   3.245
62609W        W22354  44.354   4.772   3.347
62610W        W22355  28.651  31.648  11.923
62611W        W22356  28.157   7.396  13.464
62612W        W22357  15.668  43.789   4.299
62613W        W22358  34.997  16.270   1.239
62614W        W22359  23.503  27.171   1.230
62615W        W22360   2.270   0.450   2.283
62616W        W22361  11.345  17.244  14.313
62617W        W22362  32.393  27.654  11.943
62618W        W22363  31.081  25.110   3.747
62619W        W22364  36.417  43.948   2.188
62620W        W22365  10.336  39.420  14.445
62621W        W22366  15.716   3.371  10.934
62622W        W22367   7.239  32.007  11.412
62623W        W22368  30.944   1.244  13.048
62624W        W22369   2.459  31.489   3.794
62625W        W22370  25.577  30.476   2.701
62626W        W22371  26.585  22.012  13.971
62627W        W22372  22.059   8.700   2.330
62628W        W22373  39.397   7.268   4.792
62629W        W22374   1.397  14.099  14.016
62630W        W22375   4.727  10.156  11.576
62631W        W22376  31.979  36.416  11.889
62632W        W22377   4.741  26.557  10.946
62633W        W22378  34.534   6.185   3.164
62634W        W22379  37.852   0.263  11.068
62635W        W22380  33.899  12.317  12.841
62636W        W22381   8.332  33.896  11.014
62637W        W22382   5.918  40.395  12.065
62638W        W22383  14.698  20.189   2.328
62639W        W22384  28.137  20.086  12.455
62640W        W22385   1.251  13.167   4.200
62641W        W22386  21.186  18.271  10.160
62642W        W22387   1.753  33.517  14.378
62643W        W22388  25.035  27.093   4.801
62644W        W22389   5.275  44.008   3.387
62645W        W22390   2.349  34.373  14.924
62646W        W22391  13.125  39.540  11.011
62647W        W22392  10.160   3.882   1.720
62648W        W22393  31.017  16.204  10.945
62649W        W22394   3.822  43.849   4.797
62650W        W22395  26.010   0.975   4.806
62651W        W22396  23.625  33.919   2.272
62652W        W22397   6.703   0.348  12.577
62653W        W22398  24.658  41.021  12.971
62654W        W22399  40.408  20.231  11.878
62655W        W22400  34.433  12.795   0.483
62656W        W22401  28.954  31.021   3.272
62657W        W22402   5.406   8.790   1.388
62658W        W22403  32.113  17.065   9.541
62659W        W22404  35.044  11.793   2.233
62660W        W22405  20.553  26.099   4.136
62661W        W22406  21.621  30.582  14.002
62662W        W22407   1.247  33.535  11.957
62663W        W22408   9.158   7.779  10.566
62664W        W22409  29.669   9.268   0.325
62665W        W22410  33.527  35.858  11.425
62666W        W22411  33.966  20.058   3.203
62667W        W22412  24.177   0.949  14.830
62668W        W22413   3.955  36.069  14.480
62669W        W22414  14.804  38.850  14.858
62670W        W22415  30.638  28.558   2.883
62671W        W22416   8.303  21.596  14.777
62672W        W22417  22.678  30.910   0.872
62673W        W22418  29.434  21.073   1.800
62674W        W22419  18.763  27.554   1.378
62675W        W22420   4.793  32.023   3.243
62676W        W22421  11.213  35.982  12.559
62677W        W22422  19.132  19.620  13.844
62678W        W22423  23.175  37.366  13.525
62679W        W22424  29.927  44.838  12.055
62680W        W22425  35.870  11.744  11.445
62681W        W22426  30.024   4.896  14.367
62682W        W22427  15.314  13.653  13.046
62683W        W22428  34.538  43.847   3.250
62684W        W22429   2.831   1.942  10.462
62685W        W22430  19.689  24.508  13.490
62686W        W22431   8.800  24.718   4.806
62687W        W22432  16.215  38.986  10.159
62688W        W22433  16.624  33.046  12.373
62689W        W22434  41.477  41.501   1.826
62690W        W22435   8.202  21.606   2.209
62691W        W22436   0.437   3.403   4.342
62692W        W22437  20.652  33.060   3.632
62693W        W22438  36.536   3.390  10.940
62694W        W22439  17.263  32.028  12.439
62695W        W22440  19.149  35.001  13.495
62696W        W22441  37.954  11.258  10.522
62697W        W22442  25.982  36.881  12.445
62698W        W22443   6.426  25.213   0.483
62699W        W22444  11.191   0.263   4.309
62700W        W22445  28.454  16.659   3.369
62701W        W22446  20.266  20.590  11.870
62702W        W22447  26.203  41.800   1.860
62703W        W22448  36.415  19.622  13.485
62704W        W22449  38.840  26.089   1.858
62705W        W22450   0.804  41.296  10.889
62706W        W22451  23.682  20.758   1.319
62707W        W22452  14.817   2.445  11.488
62708W        W22453   6.688  26.585   0.930
62709W        W22454  13.317  36.991   0.289
62710W        W22455  28.607  34.473  11.522
62711W        W22456  27.683  35.366  10.936
62712W        W22457  41.944   1.838  13.397
62713W        W22458  27.131  27.151   3.331
62714W        W22459  17.628  19.733  12.461
62715W        W22460  41.457   9.201  14.292
62716W        W22461  11.154  29.933  12.501
62717W        W22462  37.508  31.404   0.933
62718W        W22463  22.123  13.624  13.508
62719W        W22464  32.431  11.866   3.380
62720W        W22465  32.037  14.747  12.421
62721W        W22466  41.887  27.041   4.164
62722W        W22467  24.601   4.879   3.678
62723W        W22468  44.327   0.880  13.351
62724W        W22469  44.454  12.808  13.969
62725W        W22470  12.269  11.351  14.010
62726W        W22471  26.120  14.211  11.430
62727W        W22472  20.565  24.186   2.368
62728W        W22473  33.937  41.343  13.318
62729W        W22474  30.507   8.695  11.027
62730W        W22475  13.331   1.450   1.228
62731W        W22476   4.746  16.693   9.522
62732W        W22477   8.830  10.248   4.708
62733W        W22478  26.012  20.633  10.506
62734W        W22479  30.525  20.663  11.028
62735W        W22480  43.481   4.913   4.209
62736W        W22481  30.573  18.120   4.188
62737W        W22482  17.099  11.283  12.386
62738W        W22483  33.968  40.958   1.404
62739W        W22484   4.769  27.174   0.391
62740W        W22485  35.564  19.242   1.299
62741W        W22486  19.239  32.423  11.962
62742W        W22487  13.839  37.843  12.867
62743W        W22488  43.406   9.802  13.836
62744W        W22489  23.554  20.641  14.458
62745W        W22490  19.687   4.905  11.072
62746W        W22491  11.210   7.282   4.301
62747W        W22492  34.567   4.880  13.848
62748W        W22493  34.905  36.552   1.382
62749W        W22494  28.060  32.047   2.358
62750W        W22495  22.241  29.996  13.387
62751W        W22496  28.939   3.420  14.939
62752W        W22497   8.387  31.420  12.848
62753W        W22498  33.013  35.482   3.848
62754W        W22499   9.207  11.651   2.839
62755W        W22500   6.236   2.264  14.855
62756W        W22501  20.218  19.049  11.939
62757W        W22502  40.333  27.667  13.888
62758W        W22503  36.882  34.603  12.080
62759W        W22504  26.591  14.827   5.146
62760W        W22505  38.848  18.200   2.409
62761W        W22506  18.690   6.403  12.826
62762W        W22507  32.045   7.361  11.975
62763W        W22508  34.371  35.520  11.494
62764W        W22509  17.266  22.586  12.960
62765W        W22510  34.398  21.175   4.154
62766W        W22511  37.503  19.772   2.292
62767W        W22512   1.423   6.686   4.237
62768W        W22513  14.707  11.811   0.771
62769W        W22514  33.484  28.022   3.777
62770W        W22515  25.560   8.268  13.534
62771W        W22516  32.891   2.443   4.200
62772W        W22517  21.602  37.025  12.355
62773W        W22518  43.456  22.663  14.460
62774W        W22519  15.179  19.150   3.863
62775W        W22520  37.350  34.505   0.382
62776W        W22521   0.459  20.120   4.661
62777W        W22522  12.773  33.384  10.929
62778W        W22523  32.034  20.546  13.452
62779W        W22524  12.304  40.340  11.505
62780W        W22525  38.971  26.178  12.873
62781W        W22526   3.216  19.110  10.955
62782W        W22527  22.237  10.782  13.861
62783W        W22528   0.305   7.861  12.391
62784W        W22529   5.829  11.193  14.762
62785W        W22530  31.899  41.806  10.557
62786W        W22531  10.701  27.663   4.691
62787W        W22532  35.895  25.601   3.309
62788W        W22533  14.217  39.860   1.405
62789W        W22534  19.744  43.765   2.877
62790W        W22535   7.389  19.665   0.279
62791W        W22536  25.092  32.399  11.119
62792W        W22537  17.699  13.341   2.710
62793W        W22538  24.072  36.575  13.932
62794W        W22539  19.054  14.125   2.790
62795W        W22540  19.203  42.388  14.857
62796W        W22541   8.834   1.284   0.878
62797W        W22542  11.232  30.559  10.597
62798W        W22543  19.721  40.974   1.410
62799W        W22544  44.391   7.299   3.146
62800W        W22545  18.262  44.378  11.987
62801W        W22546  37.926  37.041  12.987
62802W        W22547   4.729  28.152  12.383
62803W        W22548  24.533  22.680  12.449
62804W        W22549  27.465  43.274  13.528
62805W        W22550  10.783  33.450  10.471
62806W        W22551  41.841  13.200   3.175
62807W        W22552  34.577  15.583  13.341
62808W        W22553  36.525  43.897  12.575
62809W        W22554  39.925  29.646  12.069
62810W        W22555  39.494  38.495   0.868
62811W        W22556  22.736  37.972  14.329
62812W        W22557  40.920  33.555   0.794
62813W        W22558  36.404  24.533  14.901
62814W        W22559  39.997   3.447  11.118
62815W        W22560  19.609   7.875  12.560
62816W        W22561   4.330  14.165   3.684
62817W        W22562  33.124  44.785  11.866
62818W        W22563  20.685   4.434   1.394
62819W        W22564  22.661  34.950  12.089
62820W        W22565  38.863  36.001   5.213
62821W        W22566  39.420  37.966  11.856
62822W        W22567  33.447  38.858  11.122
62823W        W22568   7.785   2.265   3.274
62824W        W22569  37.946  30.630  10.908
62825W        W22570  18.191  24.052  13.852
62826W        W22571   7.217  21.060   0.283
62827W        W22572  22.599  36.592  14.821
62828W        W22573   0.908  23.194  14.496
62829W        W22574  35.417  19.597  10.501
62830W        W22575  29.581  44.787   1.696
62831W        W22576  42.835  34.112   2.257
62832W        W22577  19.094  15.263  13.322
62833W        W22578  30.083  38.533  12.037
62834W        W22579  40.509  16.628  11.924
62835W        W22580  24.587  35.065  11.120
62836W        W22581  15.193  20.568   1.766
62837W        W22582   8.343   2.338   0.373
62838W        W22583  24.134  18.064  10.607
62839W        W22584  30.147  10.663  12.940
62840W        W22585  41.025  41.011   1.221
62841W        W22586   5.196  15.269   4.831
62842W        W22587  37.491  24.058  11.035
62843W        W22588  20.210  20.710  12.347
62844W        W22589  27.991  24.080   3.684
62845W        W22590  16.611  13.637   0.806
62846W        W22591  20.539  15.619   4.205
62847W        W22592  35.044   1.850  13.434
62848W        W22593  37.926  25.212  12.895
62849W        W22594   9.212  21.544   4.755
62850W        W22595   9.650  43.853   1.858
62851W        W22596  41.892   6.710   3.737
62852W        W22597  34.525  24.009  14.898
62853W        W22598  19.744  14.095  10.570
62854W        W22599  16.093  20.588  11.435
62855W        W22600  40.002  13.784  11.094
62856W        W22601  40.991   6.858   0.265
62857W        W22602  26.624  29.009  13.820
62858W        W22603  33.055  40.362   1.293
62859W        W22604   5.374  20.653   0.830
62860W        W22605  32.042  14.761   3.773
62861W        W22606  19.778  23.695   1.702
62862W        W22607   8.249  39.830   4.723
62863W        W22608  12.231  37.965  12.569
62864W        W22609  34.485  43.879   1.898
62865W        W22610  16.589  22.233   4.353
62866W        W22611  39.989  16.775  11.016
62867W        W22612  35.089  18.252  10.608
62868W        W22613  42.518  28.113  13.057
62869W        W22614   0.423  25.481   0.251
62870W        W22615  13.682  43.993   4.634
62871W        W22616   6.740  32.981  12.903
62872W        W22617  31.600   4.719  12.985
62873W        W22618  10.366  32.046  12.341
62874W        W22619   3.399  24.668   2.809
62875W        W22620  44.431  37.972  14.396
62876W        W22621  27.979  24.011  11.592
62877W        W22622   0.392   7.296  14.869
62878W        W22623  17.164   9.657  13.442
62879W        W22624   0.334  37.389  14.446
62880W        W22625  30.008  12.713  11.504
62881W        W22626  25.508  33.020   2.361
62882W        W22627   8.755  23.096  11.589
62883W        W22628  18.131  18.661  11.001
62884W        W22629  44.333  32.037  11.607
62885W        W22630  37.923  40.324  13.043
62886W        W22631   8.349   2.903  12.921
62887W        W22632  39.471  17.586   1.356
62888W        W22633   9.293  14.275  13.471
62889W        W22634  24.137  26.021   2.831
62890W        W22635  11.186   0.783   3.146
62891W        W22636  33.550  40.397  11.987
62892W        W22637  22.687  39.949  11.575
62893W        W22638   4.853   9.779  12.999
62894W        W22639  29.551  37.378   0.962
62895W        W22640  31.625   7.667  14.021
62896W        W22641   5.390  15.609  11.458
62897W        W22642  16.178  12.713   1.268
62898W        W22643  30.934  38.457  13.972
62899W        W22644  30.956  20.040   1.347
62900W        W22645   8.382  15.301  12.481
62901W        W22646  38.531  39.959  11.372
62902W        W22647  44.948  32.937   0.343
62903W        W22648  34.949   0.912   2.351
62904W        W22649  20.731  20.726   4.238
62905W        W22650   7.383  21.546  14.929
62906W        W22651  21.515   1.796  12.936
62907W        W22652  19.553  29.993  12.562
62908W        W22653  41.827  10.876  14.877
62909W        W22654  18.613  15.702  14.838
62910W        W22655  38.905  39.991  10.974
62911W        W22656  36.926  13.311   3.670
62912W        W22657  19.637  14.786  11.919
62913W        W22658   9.268  21.197  13.476
62914W        W22659  24.081  15.144  14.856
62915W        W22660  31.115  31.551  10.435
62916W        W22661  42.804  14.715  13.879
62917W        W22662  25.078  16.613   2.785
62918W        W22663  11.172  36.956   2.691
62919W        W22664  31.619  38.939   4.300
62920W        W22665   0.369  10.170   0.397
62921W        W22666   4.351  38.893   2.279
62922W        W22667  13.759  20.566  14.418
62923W        W22668  11.806  40.328   2.870
62924W        W22669  26.549   7.905   5.276
62925W        W22670  38.829   6.717   4.244
62926W        W22671  19.089  29.982   4.162
62927W        W22672  32.444  21.685   2.344
62928W        W22673   6.256   1.836  10.478
62929W        W22674  28.955  36.568   2.838
62930W        W22675  24.030   4.377   2.784
62931W        W22676   7.197  10.678   0.824
62932W        W22677  24.136  30.039   1.337
62933W        W22678  32.932  26.536  11.126
62934W        W22679   3.858  28.095   4.292
62935W        W22680  27.481  10.225   1.451
62936W        W22681  44.817  26.485   4.695
62937W        W22682  20.218  19.664  12.932
62938W        W22683  32.077  18.056   0.293
62939W        W22684  42.386  29.605   4.670
62940W        W22685  18.754  21.577   4.354
62941W        W22686  13.129  28.118   1.315
62942W        W22687   9.772  43.279   3.220
62943W        W22688  30.423  25.584  13.409
62944W        W22689   1.389  16.616  13.875
62945W        W22690  41.442  32.080  11.096
62946W        W22691  32.517  23.113   0.959
62947W        W22692   7.354  11.775  11.017
62948W        W22693   1.404   2.435   4.335
62949W        W22694   8.313   6.362   3.713
62950W        W22695  44.481  23.202  14.478
62951W        W22696  14.278  25.152   2.335
62952W        W22697   8.744  42.480   0.447
62953W        W22698  13.647  23.581  14.376
62954W        W22699  13.180  35.393   1.896
62955W        W22700  25.020  44.927   1.768
62956W        W22701  31.922  28.102  14.298
62957W        W22702  17.728   0.844   3.800
62958W        W22703   8.400  44.759  12.877
62959W        W22704  39.061   4.711   1.383
62960W        W22705  28.525  21.735   3.684
62961W        W22706  25.613  14.743  13.506
62962W        W22707  20.220  41.892   3.199
62963W        W22708  18.574   4.840  10.622
62964W        W22709  16.704  21.600  13.922
62965W        W22710  20.067  14.191  11.548
62966W        W22711  42.514   5.901   2.848
62967W        W22712  17.220   3.394   2.800
62968W        W22713  20.654  33.422   1.825
62969W        W22714  37.876  34.459   5.278
62970W        W22715  30.575  17.692  13.809
62971W        W22716  32.129  17.796   2.839
62972W        W22717  36.592  27.168   1.369
62973W        W22718   5.371   3.747   1.412
62974W        W22719  34.979  32.487  10.434
62975W        W22720  38.369  24.592  14.001
62976W        W22721  25.538  25.701  12.494
62977W        W22722  43.812   4.411   1.323
62978W        W22723  32.499  44.423  10.956
62979W        W22724  44.497  40.369  14.487
62980W        W22725  24.108  30.524   2.345
62981W        W22726  36.553  33.069  13.984
62982W        W22727   7.213  42.496   4.133
62983W        W22728  17.150   7.786   3.750
62984W        W22729  16.138  23.055  13.312
62985W        W22730   0.751  18.243   0.378
62986W        W22731  22.687  37.557  11.082
62987W        W22732  22.685  33.943  11.085
62988W        W22733  35.494  12.699   4.816
62989W        W22734  38.378  19.117   3.384
62990W        W22735  18.105  34.910  12.510
62991W        W22736  11.255   1.834  13.861
62992W        W22737  24.709  31.437   1.877
62993W        W22738  23.687  35.037   2.823
62994W        W22739  27.630  42.459  13.843
62995W        W22740   3.444   5.716   4.140
62996W        W22741  26.073  18.627   0.267
62997W        W22742   8.285  14.295  14.782
62998W        W22743  10.702  35.403  12.367
62999W        W22744  12.289  23.081  10.415
63000W        W22745  28.997   0.967  11.101
63001W        W22746  15.320  44.937   3.708
63002W        W22747  11.297   0.910   0.426
63003W        W22748  34.879  38.041   4.649
63004W        W22749   5.730  29.995   4.264
63005W        W22750  44.394  31.996   0.434
63006W        W22751  20.765  33.555  13.894
63007W        W22752   0.818   6.408   5.134
63008W        W22753  44.817  14.220  11.879
63009W        W22754  42.461  37.871  11.501
63010W        W22755  13.300  22.059   4.124
63011W        W22756   6.255   4.430   2.806
63012W        W22757  17.065  20.266  10.041
63013W        W22758   7.891  16.103   4.285
63014W        W22759  22.103  40.968   2.208
63015W        W22760  10.864  12.617  10.551
63016W        W22761  36.894  14.313   1.450
63017W        W22762  18.121  38.403   0.731
63018W        W22763  23.573   9.890  12.379
63019W        W22764  42.347  14.769  12.096
63020W        W22765   2.370  41.010   4.656
63021W        W22766  30.066   8.347  12.858
63022W        W22767  20.563  20.712   0.924
63023W        W22768  34.049  44.332   2.868
63024W        W22769  40.962   9.210   2.668
63025W        W22770  17.220  19.078   0.337
63026W        W22771  35.562   9.337   1.328
63027W        W22772  11.829  39.016   0.367
63028W        W22773  41.037   5.901  12.867
63029W        W22774  27.590   6.752  14.489
63030W        W22775  43.976  22.148   3.769
63031W        W22776   9.298  15.586  12.416
63032W        W22777  40.019  24.148  11.518
63033W        W22778  39.058  43.007   4.836
63034W        W22779   8.277   1.889   2.225
63035W        W22780  27.179  33.622  13.326
63036W        W22781  25.047  38.069   1.813
63037W        W22782   0.774   1.464  14.454
63038W        W22783   7.234   8.762  12.529
63039W        W22784  38.531  29.933  13.493
63040W        W22785  39.941  13.691   4.193
63041W        W22786  27.663  31.429  14.893
63042W        W22787   4.413  23.666  11.526
63043W        W22788  34.037  38.947  13.346
63044W        W22789  36.431  13.611  12.902
63045W        W22790  37.936   4.912   0.941
63046W        W22791  42.505   7.689  12.005
63047W        W22792  26.559  41.936  12.962
63048W        W22793  16.111  42.378   1.376
63049W        W22794  22.746  36.348   1.211
63050W        W22795  33.908  39.349   3.693
63051W        W22796  32.608  10.319   1.815
63052W        W22797   1.779  15.101  10.900
63053W        W22798  24.669  34.103  13.004
63054W        W22799   3.351  21.233   3.665
63055W        W22800  19.697  25.582   4.749
63056W        W22801  11.195  32.453  11.597
63057W        W22802  24.692  15.730   5.246
63058W        W22803  11.291  41.000   3.864
63059W        W22804  25.113  39.979  14.309
63060W        W22805   0.274   0.873   2.761
63061W        W22806  13.775  23.985   3.162
63062W        W22807  28.006  44.414   2.740
63063W        W22808  14.764  23.565   5.205
63064W        W22809  34.962   7.793   1.335
63065W        W22810  20.167  36.530   1.298
63066W        W22811   4.402  18.049   0.395
63067W        W22812  11.130   8.253   3.201
63068W        W22813  36.548  40.920  10.952
63069W        W22814  37.372   1.882   2.316
63070W        W22815  19.568  33.878  14.289
63071W        W22816  29.982   6.879   2.676
63072W        W22817  20.077  38.459   0.287
63073W        W22818  21.126  39.317  12.363
63074W        W22819  16.317   2.415   0.316
63075W        W22820  13.346  27.636  13.033
63076W        W22821   9.814  42.485  14.971
63077W        W22822  15.262  14.199   2.863
63078W        W22823  25.203   3.765  11.892
63079W        W22824   2.919   7.897   1.426
63080W        W22825  37.013  20.061  12.405
63081W        W22826  44.950  39.988  12.570
63082W        W22827  25.489  24.114   1.284
63083W        W22828   2.282  31.609   0.378
63084W        W22829  22.235   4.211  13.922
63085W        W22830  15.690  27.582  14.799
63086W        W22831  42.806  37.950  11.514
63087W        W22832  23.100  11.629   2.704
63088W        W22833  42.936  31.489   3.246
63089W        W22834  34.374  18.238   4.348
63090W        W22835   6.832   6.355  11.038
63091W        W22836  40.453  31.632  12.882
63092W        W22837  13.238  32.473   4.251
63093W        W22838  17.686  31.560   4.336
63094W        W22839  18.095  34.507  14.293
63095W        W22840  24.529  21.093   1.761
63096W        W22841  22.520  11.814  11.997
63097W        W22842  10.683   9.291   4.704
63098W        W22843   2.413   5.273  14.028
63099W        W22844  15.796  18.133  14.788
63100W        W22845  20.121  15.758  12.957
63101W        W22846  40.887  15.792   3.634
63102W        W22847  35.987   4.443   4.266
63103W        W22848  13.846   3.239  11.034
63104W        W22849  38.367  44.008   0.357
63105W        W22850  44.429  24.059  11.445
63106W        W22851  10.703  25.641  13.501
63107W        W22852  42.520  13.305  12.009
63108W        W22853  23.187   2.802   1.231
63109W        W22854  30.118  30.945   2.886
63110W        W22855  17.765  37.050  14.944
63111W        W22856  36.011  20.566   4.688
63112W        W22857  33.392  36.023   1.383
63113W        W22858  40.838  28.605  13.457
63114W        W22859  24.224  36.479   4.353
63115W        W22860  28.459  27.487   0.256
63116W        W22861  18.089  20.124  14.025
63117W        W22862  35.361  17.157   4.625
63118W        W22863  43.847  17.110   2.827
63119W        W22864   5.414  38.024  12.484
63120W        W22865   0.346  19.711   2.767
63121W        W22866  20.148  21.564   1.251
63122W        W22867   2.934  27.152  14.341
63123W        W22868  43.338  34.524   0.815
63124W        W22869  38.840  13.687   3.221
63125W        W22870  27.996  20.100  13.470
63126W        W22871   5.904  35.499   4.336
63127W        W22872  18.779   3.818   2.702
63128W        W22873  34.940  33.934   4.806
63129W        W22874  44.822   8.777   4.755
63130W        W22875  30.566  39.044   3.794
63131W        W22876  41.963  13.800   1.362
63132W        W22877  16.235  38.892   5.298
63133W        W22878   5.786  41.535  10.995
63134W        W22879   1.304  10.244  11.952
63135W        W22880   4.403  12.280  13.393
63136W        W22881  15.761  31.989   2.327
63137W        W22882  23.660   1.770  11.529
63138W        W22883  14.686   8.752  13.936
63139W        W22884  42.367  16.624  10.938
63140W        W22885  23.621  32.508  14.873
63141W        W22886  11.859  14.664  10.518
63142W        W22887  27.602  26.993   2.758
63143W        W22888  18.180  24.724   0.388
63144W        W22889   6.846  34.042  12.835
63145W        W22890   0.747  15.597  12.894
63146W        W22891   0.407  10.847  14.834
63147W        W22892  39.000  42.502  10.925
63148W        W22893  40.896  38.835   2.877
63149W        W22894  20.092  42.992  13.312
63150W        W22895   6.738  21.516   2.731
63151W        W22896  41.930  33.516  13.033
63152W        W22897  21.060  16.183  12.956
63153W        W22898  40.531  11.363   0.891
63154W        W22899  43.348  22.614   3.384
63155W        W22900  26.122  38.010  13.334
63156W        W22901  34.025  22.226   0.874
63157W        W22902  21.162  17.081   1.851
63158W        W22903  11.713  39.035   1.419
63159W        W22904   9.261  16.172   3.186
63160W        W22905  44.956  17.200   2.695
63161W        W22906   2.339  24.199  13.847
63162W        W22907  23.984  42.514  11.430
63163W        W22908   8.797   1.877   3.719
63164W        W22909   0.782   2.838  12.473
63165W        W22910  32.414  20.123   5.218
63166W        W22911  44.887  12.687  11.525
63167W        W22912  26.175  26.582  13.338
63168W        W22913   8.201  11.762   0.916
63169W        W22914   7.830  27.150   0.953
63170W        W22915  15.736  25.065  13.465
63171W        W22916  10.261  37.555   0.945
63172W        W22917  43.865  17.204  14.308
63173W        W22918  24.974   3.448   3.840
63174W        W22919  14.219  38.428   3.377
63175W        W22920  42.406  41.840   1.914
63176W        W22921  16.671  27.050  10.446
63177W        W22922  36.046  38.834   0.821
63178W        W22923   9.341   9.710  14.329
63179W        W22924  22.137  18.646   0.350
63180W        W22925  30.928  36.006  14.424
63181W        W22926  29.461  10.801  12.991
63182W        W22927  18.779  26.514   3.810
63183W        W22928  23.563  30.658   0.343
63184W        W22929  30.147  18.212   3.677
63185W        W22930  34.121  37.506   1.847
63186W        W22931   0.866  29.647  14.421
63187W        W22932   6.747  39.492   0.790
63188W        W22933  41.458   1.347  10.430
63189W        W22934  34.580  35.984   4.128
63190W        W22935  23.220  14.715  13.307
63191W        W22936  28.624  40.348   0.320
63192W        W22937  37.577   6.290  11.961
63193W        W22938  37.498  11.765   0.415
63194W        W22939  34.015  21.683  10.627
63195W        W22940  17.143  22.103  12.830
63196W        W22941  37.552  11.333  12.990
63197W        W22942  17.652  24.003  10.915
63198W        W22943  37.513   8.380   4.166
63199W        W22944  40.394  39.437   4.334
63200W        W22945  37.994  36.020   2.787
63201W        W22946   7.350  36.587  10.409
63202W        W22947  38.001   7.714   4.668
63203W        W22948  21.644  27.009  12.961
63204W        W22949   4.386  13.620   4.819
63205W        W22950  11.345  11.868  11.526
63206W        W22951  32.630  37.922  13.510
63207W        W22952  33.995   7.226  13.033
63208W        W22953  18.615  28.094   2.195
63209W        W22954   9.281  44.940  12.575
63210W        W22955  20.236  23.522   0.321
63211W        W22956   4.879   7.179   2.276
63212W        W22957  14.667  33.476   2.419
63213W        W22958  39.952  39.976  13.914
63214W        W22959  41.043   7.172  13.541
63215W        W22960  14.683   1.749   3.301
63216W        W22961  39.812  15.608  11.542
63217W        W22962  36.496   6.362   2.387
63218W        W22963  41.879  23.031  14.913
63219W        W22964   4.230   9.300  13.386
63220W        W22965  37.967  24.212  12.414
63221W        W22966  24.204  30.417   1.275
63222W        W22967  27.071  27.562  12.412
63223W        W22968  42.935   1.942   2.185
63224W        W22969  25.136   9.691   3.749
63225W        W22970  24.041  22.125  12.579
63226W        W22971   9.801  37.923  13.792
63227W        W22972  23.211  29.450   4.170
63228W        W22973  17.761  27.080  12.049
63229W        W22974  39.389  11.236   2.343
63230W        W22975  31.086  26.083  13.967
63231W        W22976  27.481  16.083   1.720
63232W        W22977   4.243  12.711  11.113
63233W        W22978  16.602  24.672   2.822
63234W        W22979  33.406  25.688   0.874
63235W        W22980   0.964  18.231   1.319
63236W        W22981  41.010  23.489  10.915
63237W        W22982  38.376   4.210  14.375
63238W        W22983  22.703  34.451   1.449
63239W        W22984  40.946  10.362  12.010
63240W        W22985  40.933  41.340   0.355
63241W        W22986  10.749  35.380   5.688
63242W        W22987  16.666  39.489  11.955
63243W        W22988  24.065  36.895  13.914
63244W        W22989  30.524  44.858   0.475
63245W        W22990  12.329  25.158  13.862
63246W        W22991   7.182  18.767   3.677
63247W        W22992  13.759  28.494   3.308
63248W        W22993   1.954  27.562  14.772
63249W        W22994  29.543  23.722   3.147
63250W        W22995  34.471  38.027  14.009
63251W        W22996  36.543  29.625  12.569
63252W        W22997  40.425   6.300   2.665
63253W        W22998   0.427  19.553   2.198
63254W        W22999   2.757  36.031  12.426
63255W        W23000  29.615  42.402   2.800
63256W        W23001  21.705  39.827   4.729
63257W        W23002  12.229  16.800   4.597
63258W        W23003  15.615   5.863   1.430
63259W        W23004   4.859   7.280   4.230
63260W        W23005  35.035  44.844  14.897
63261W        W23006  30.523  23.059   3.298
63262W        W23007  26.533  12.728   1.895
63263W        W23008   0.822  37.539  14.777
63264W        W23009  17.732  21.660   2.814
63265W        W23010   5.208  16.203  14.915
63266W        W23011   8.273  27.049  13.406
63267W        W23012   3.808  21.661   3.354
63268W        W23013  25.218  36.546  10.548
63269W        W23014  35.462   1.249   0.964
63270W        W23015  11.631   1.351   2.794
63271W        W23016   4.395  15.816  11.474
63272W        W23017   9.302  13.141   4.189
63273W        W23018   1.434   1.782  10.410
63274W        W23019  22.513   8.849   2.273
63275W        W23020  20.207  20.259   3.269
63276W        W23021  36.440  33.929  12.982
63277W        W23022  24.982  40.981   2.356
63278W        W23023   7.690   4.404   4.294
63279W        W23024  12.754  38.934  11.109
63280W        W23025  43.329  27.594   0.962
63281W        W23026  31.602  15.178  10.442
63282W        W23027  36.550  40.402   4.647
63283W        W23028  10.253  28.968  10.016
63284W        W23029  24.517  41.015   4.354
63285W        W23030  10.346  18.232  10.981
63286W        W23031  15.171  11.322  12.552
63287W        W23032  14.273  44.297   2.245
63288W        W23033  11.341  27.576   2.667
63289W        W23034  12.283  44.808   1.777
63290W        W23035  42.025   2.373  13.522
63291W        W23036  38.862   1.293  14.951
63292W        W23037  43.821  29.504   2.837
63293W        W23038  34.026  24.617   2.739
63294W        W23039   1.399  39.984   0.916
63295W        W23040  23.047  36.059  12.056
63296W        W23041  31.595  13.625   2.380
63297W        W23042  29.041  30.629   4.293
63298W        W23043  28.446   7.312   4.189
63299W        W23044  12.667  41.822   2.732
63300W        W23045   9.355  41.531  13.975
63301W        W23046  21.023  22.560   2.206
63302W        W23047  23.620  19.660   3.360
63303W        W23048  23.128   5.282   2.254
63304W        W23049  10.824  38.371   0.801
63305W        W23050   5.819  12.348   3.190
63306W        W23051  20.186  33.580  13.931
63307W        W23052  36.467  18.733  13.979
63308W        W23053  35.011  39.360  14.768
63309W        W23054   7.309  32.060   3.313
63310W        W23055  33.571  16.811  14.759
63311W        W23056  19.549  22.147  10.479
63312W        W23057  18.084  19.675  14.848
63313W        W23058  29.491   6.724  12.564
63314W        W23059   2.407   8.286  11.609
63315W        W23060  29.175  20.722   2.384
63316W        W23061  23.039  36.589   0.249
63317W        W23062   9.395  32.522   3.231
63318W        W23063  36.452  11.741   4.318
63319W        W23064   5.216   3.433   3.672
63320W        W23065  17.245  29.606  13.958
63321W        W23066  22.693  15.678  10.981
63322W        W23067  23.503  23.588  10.965
63323W        W23068  26.037   0.753   3.709
63324W        W23069  21.517  18.183  14.294
63325W        W23070  34.433   3.321   3.788
63326W        W23071  21.083  40.390  12.906
63327W        W23072  30.520  33.053  11.541
63328W        W23073  22.595   7.290  13.363
63329W        W23074  37.994   9.285  13.000
63330W        W23075  30.510  43.347  13.873
63331W        W23076  39.448  25.170  12.445
63332W        W23077  23.727   8.277   4.726
63333W        W23078  18.274  22.062   4.690
63334W        W23079  32.085   4.925   1.740
63335W        W23080  27.591  29.499  10.121
63336W        W23081  26.462  35.447  12.950
63337W        W23082  43.449  13.238  11.547
63338W        W23083  25.091  12.289  11.857
63339W        W23084   0.409  23.098  13.861
63340W        W23085  20.103  16.808  12.570
63341W        W23086  25.554  36.589  11.477
63342W        W23087  18.575  13.707   2.895
63343W        W23088   6.314  36.099  10.896
63344W        W23089  37.834   7.736   0.802
63345W        W23090  27.606   4.711   3.253
63346W        W23091  31.430  15.596  10.438
63347W        W23092  41.519   5.710   1.935
63348W        W23093  10.220  35.892   4.318
63349W        W23094  31.429  25.692   4.254
63350W        W23095  37.084   2.878   1.373
63351W        W23096  19.156  35.420  14.026
63352W        W23097  21.529  44.900  13.053
63353W        W23098  33.954   0.476   4.645
63354W        W23099   9.662  27.076   2.722
63355W        W23100  36.436  14.685  14.386
63356W        W23101   1.256  21.126  10.415
63357W        W23102  34.568  20.646   1.730
63358W        W23103  14.685  17.709  10.975
63359W        W23104  37.386  21.546   4.137
63360W        W23105  38.005  36.503  10.580
63361W        W23106  21.579  14.755   1.778
63362W        W23107  37.352   9.288   4.195
63363W        W23108  24.118  34.087  13.470
63364W        W23109  29.949  42.333   0.866
63365W        W23110  42.492  42.885  10.575
63366W        W23111  34.414  34.535  11.596
63367W        W23112   2.756  32.593   2.359
63368W        W23113  28.450  14.649  11.889
63369W        W23114  17.675  37.474  13.934
63370W        W23115  37.436   8.366   2.681
63371W        W23116  34.443  24.705   1.882
63372W        W23117  15.123  31.047   2.225
63373W        W23118   1.291  22.139   4.173
63374W        W23119  39.901  41.462  13.929
63375W        W23120  31.024  12.194   3.736
63376W        W23121  42.281  38.444  13.846
63377W        W23122   9.703  20.197  11.954
63378W        W23123  38.924  38.044  10.993
63379W        W23124  15.652  28.965   0.457
63380W        W23125  10.251  13.212   1.789
63381W        W23126   1.918  14.648   3.639
63382W        W23127  37.951  37.544  12.429
63383W        W23128  36.411  29.545  14.961
63384W        W23129  42.906  39.966  13.908
63385W        W23130  13.281  23.241   0.775
63386W        W23131  24.074  21.248   2.869
63387W        W23132  42.865  33.535   5.145
63388W        W23133  27.493  37.447  11.599
63389W        W23134  44.351  42.367  11.111
63390W        W23135  37.880  36.364  13.838
63391W        W23136  35.552  43.346   0.467
63392W        W23137  25.657   4.833  11.991
63393W        W23138  32.098   4.425  12.551
63394W        W23139  21.584  33.093   1.744
63395W        W23140  20.585  39.059  14.506
63396W        W23141  33.626   8.776   5.246
63397W        W23142   5.292   5.698  14.006
63398W        W23143  31.466  16.767  13.982
63399W        W23144  36.846   3.869  12.439
63400W        W23145   1.412  20.156   0.352
63401W        W23146   9.334  22.666  14.498
63402W        W23147   5.927  11.680   0.733
63403W        W23148   8.308  20.218  13.377
63404W        W23149  42.369   9.323   0.452
63405W        W23150  23.001  18.552  10.609
63406W        W23151  42.815  20.249   2.666
63407W        W23152  15.720  38.344   3.386
63408W        W23153  17.104  18.608   5.249
63409W        W23154  17.071   6.892  12.426
63410W        W23155   1.320  24.053  13.429
63411W        W23156  41.357  16.693   0.335
63412W        W23157  22.247  16.658   1.422
63413W        W23158   6.390  10.773   3.819
63414W        W23159  16.207   7.827   1.771
63415W        W23160  13.838  27.639  10.939
63416W        W23161  12.703  25.181  14.864
63417W        W23162   7.829  37.956   1.245
63418W        W23163  11.701  16.581   1.722
63419W        W23164   1.776  43.434  12.473
63420W        W23165  41.793  25.021  10.631
63421W        W23166  29.950  35.415  10.580
63422W        W23167  15.609  37.513  14.902
63423W        W23168  34.580   9.352  10.991
63424W        W23169  23.045  20.123   1.440
63425W        W23170  25.063  21.250  11.508
63426W        W23171  15.155  39.857   4.258
63427W        W23172  33.599  34.934   1.904
63428W        W23173  22.066  17.273  13.892
63429W        W23174  39.475  14.597  14.339
63430W        W23175  29.644   9.680  14.998
63431W        W23176   8.831  39.028  13.011
63432W        W23177  25.569  35.948   1.812
63433W        W23178  39.468   1.346  11.466
63434W        W23179  29.106   2.849  12.087
63435W        W23180  35.067  31.603   1.351
63436W        W23181  14.604  19.223  12.449
63437W        W23182  30.614  10.146   0.732
63438W        W23183  36.380   2.860   1.863
63439W        W23184  34.082  28.638  12.424
63440W        W23185  39.356  32.595   1.417
63441W        W23186   7.305  28.154   2.862
63442W        W23187  34.374  40.442  11.486
63443W        W23188  19.599  22.148   0.395
63444W        W23189  35.455  31.940  14.363
63445W        W23190  40.433  26.063   4.176
63446W        W23191  30.067  35.033   1.741
63447W        W23192   0.814   1.830  14.300
63448W        W23193  15.200  41.861   2.346
63449W        W23194  37.859  35.027  13.846
63450W        W23195  34.864  11.679  14.445
63451W        W23196  14.600  21.115  13.458
63452W        W23197  20.147  24.584  12.827
63453W        W23198  18.162  43.429  14.502
63454W        W23199  10.298   3.355   5.214
63455W        W23200  18.742  42.783  13.367
63456W        W23201   0.768  35.409   2.199
63457W        W23202  32.424  17.078   1.862
63458W        W23203  11.855  12.650   3.151
63459W        W23204  10.161   6.250  14.973
63460W        W23205  20.627  18.241   2.855
63461W        W23206   3.901  13.108  11.375
63462W        W23207  38.488  38.357   4.606
63463W        W23208  38.507  12.311  12.011
63464W        W23209  23.135  22.195   0.412
63465W        W23210  20.748  22.525   4.237
63466W        W23211  25.679   2.306   3.315
63467W        W23212  19.220  29.115  14.024
63468W        W23213  41.327  27.659   3.752
63469W        W23214  19.649   9.860   4.812
63470W        W23215  10.860  18.697  11.595
63471W        W23216  33.107  11.243  10.432
63472W        W23217  29.549  37.528  11.910
63473W        W23218  38.873  20.697   0.254
63474W        W23219   8.658   8.749   1.895
63475W        W23220  21.732  26.565  11.075
63476W        W23221  11.210  41.951  14.442
63477W        W23222  38.055  13.178   2.747
63478W        W23223  41.876  32.434   0.367
63479W        W23224   8.705   3.846   4.628
63480W        W23225  40.381   0.332  13.317
63481W        W23226  37.510   2.773  10.585
63482W        W23227  10.163   9.730  14.439
63483W        W23228  42.892  44.320   1.238
63484W        W23229  36.420  40.037  14.841
63485W        W23230  26.121  43.326   1.337
63486W        W23231  32.895   4.241  11.930
63487W        W23232  15.233  23.645  13.054
63488W        W23233  30.061  22.014  13.390
63489W        W23234  30.149   6.703   0.419
63490W        W23235  27.007   1.845  11.388
63491W        W23236  35.973  31.642   1.367
63492W        W23237   0.972  13.722  14.856
63493W        W23238   8.167   4.753  13.838
63494W        W23239   9.733  30.574   3.854
63495W        W23240  35.564  10.376  12.412
63496W        W23241  13.713  29.148  14.800
63497W        W23242   6.223  17.168  13.310
63498W        W23243  10.753  22.145  13.369
63499W        W23244  11.808   2.287  11.401
63500W        W23245  44.962  36.068  12.846
63501W        W23246  19.758   5.420  14.302
63502W        W23247   9.326  39.491   0.296
63503W        W23248  41.338  15.710  10.985
63504W        W23249  39.854  20.690  12.533
63505W        W23250  26.206   2.862   1.307
63506W        W23251  30.472  43.010   4.180
63507W        W23252  21.234  43.953  14.332
63508W        W23253   8.198  12.785  12.984
63509W        W23254  23.578   6.801   3.844
63510W        W23255  17.687  30.097  10.578
63511W        W23256  24.024  42.987   1.723
63512W        W23257  38.365   6.241   4.253
63513W        W23258  32.570  20.721   0.738
63514W        W23259   6.276  43.420   0.845
63515W        W23260  24.511  12.685   3.372
63516W        W23261  28.133   2.874   0.747
63517W        W23262  42.956  12.210  13.319
63518W        W23263   5.743   9.185  14.434
63519W        W23264  44.952  25.167  10.498
63520W        W23265  27.040  19.626   3.722
63521W        W23266   2.426  38.471   2.298
63522W        W23267   1.825   0.773  13.408
63523W        W23268  44.313   3.900  13.527
63524W        W23269   9.323   1.909   4.669
63525W        W23270  21.522  13.651  11.557
63526W        W23271  13.675  40.921   1.902
63527W        W23272  13.263  34.006   4.353
63528W        W23273  18.073   9.212  11.413
63529W        W23274  42.433  22.189   4.344
63530W        W23275  10.332  34.048   9.946
63531W        W23276  33.986  23.593  13.933
63532W        W23277  38.460  30.634  13.859
63533W        W23278  16.318  34.495  13.322
63534W        W23279  33.067   4.902   3.282
63535W        W23280   1.879  29.536  13.818
63536W        W23281  12.845  20.131  14.889
63537W        W23282   3.899  25.180  12.469
63538W        W23283   8.229  38.997  11.032
63539W        W23284  36.575  18.089   1.231
63540W        W23285  28.571  28.107   1.837
63541W        W23286  31.488   4.364   0.862
63542W        W23287  34.400  30.615  12.825
63543W        W23288   1.951  40.532  12.866
63544W        W23289  24.144  36.545  14.341
63545W        W23290  29.495   2.302  12.529
63546W        W23291  32.528  33.024  13.377
63547W        W23292  44.417  42.886   5.114
63548W        W23293   3.855  20.619   3.289
63549W        W23294   9.203  32.068  10.086
63550W        W23295  33.542  11.853  14.775
63551W        W23296  42.360  19.114  12.398
63552W        W23297  39.817  22.705   2.680
63553W        W23298   1.293  33.414  14.827
63554W        W23299   0.754  40.520   4.781
63555W        W23300  16.624   7.274   4.339
63556W        W23301   3.717  21.729  12.415
63557W        W23302  43.291  13.822  14.406
63558W        W23303  24.638  31.482   1.263
63559W        W23304  42.512  26.151  12.432
63560W        W23305   3.398   4.289   3.374
63561W        W23306  19.231  41.786  12.967
63562W        W23307   4.428  25.476  14.421
63563W        W23308  15.122   1.266  10.549
63564W        W23309   5.700  35.367  12.401
63565W        W23310  11.706  22.534  13.440
63566W        W23311   3.413   8.797  10.411
63567W        W23312  28.159   6.294  11.547
63568W        W23313  19.602  11.318   3.829
63569W        W23314  12.656  20.722  10.436
63570W        W23315  34.929  43.465   3.862
63571W        W23316  43.311  31.046  12.458
63572W        W23317  31.403  18.744  13.028
63573W        W23318  39.948  35.574   2.268
63574W        W23319   6.711  15.218  12.074
63575W        W23320  36.581  36.539  13.374
63576W        W23321  34.562  24.683   4.289
63577W        W23322  38.861  33.054   2.793
63578W        W23323   7.842   3.906  12.858
63579W        W23324  15.146  34.989   0.284
63580W        W23325  16.811  33.438  12.011
63581W        W23326   9.830   2.280   4.151
63582W        W23327  42.523  20.574  14.311
63583W        W23328  42.782   9.258  13.423
63584W        W23329  30.992  38.875   1.414
63585W        W23330   4.794  27.602   4.808
63586W        W23331   5.396  17.702   3.241
63587W        W23332  35.561  12.624   0.946
63588W        W23333  22.588  25.543  10.544
63589W        W23334  33.427  36.055   5.216
63590W        W23335  27.017   9.747  13.511
63591W        W23336  33.941  21.554  11.519
63592W        W23337  37.053  22.525  11.960
63593W        W23338  21.579  21.068  13.413
63594W        W23339  12.214  32.984   2.703
63595W        W23340  23.614  40.919  11.539
63596W        W23341  27.034  19.583   0.774
63597W        W23342  30.541   4.898  12.853
63598W        W23343  12.808  42.344   4.774
63599W        W23344  43.860  10.704   1.758
63600W        W23345   9.806  24.636  10.558
63601W        W23346   6.316  40.021  14.375
63602W        W23347   3.449  36.925  11.991
63603W        W23348  24.062  41.890   3.279
63604W        W23349  33.482  19.598  13.882
63605W        W23350   9.294  44.006  10.547
63606W        W23351  13.656  42.986   2.774
63607W        W23352  10.684  29.932  12.083
63608W        W23353  19.095   6.421  11.971
63609W        W23354  26.102  35.379  12.000
63610W        W23355  13.274  37.917  11.460
63611W        W23356  32.918  25.149   0.807
63612W        W23357  37.564  35.369  11.917
63613W        W23358  27.683  28.674   0.452
63614W        W23359  30.528  17.659   1.788
63615W        W23360  38.066  27.061   0.334
63616W        W23361  36.556  21.092  13.948
63617W        W23362  36.424  31.467  13.440
63618W        W23363   9.832  31.099   3.672
63619W        W23364  41.422  30.588   2.739
63620W        W23365  11.639  27.124  14.869
63621W        W23366  34.460  26.580   2.400
63622W        W23367  23.123   4.705   0.479
63623W        W23368  10.172   5.842   4.125
63624W        W23369  12.636  11.172   4.834
63625W        W23370  39.856  20.661  12.878
63626W        W23371  11.225  33.926  10.934
63627W        W23372  34.592  35.401   4.811
63628W        W23373  39.319  37.017  10.602
63629W        W23374  43.427   1.425   0.920
63630W        W23375   6.908  42.325  10.483
63631W        W23376   4.794  17.561   3.701
63632W        W23377   3.252   1.860  11.954
63633W        W23378  39.429   1.293  12.468
63634W        W23379  41.530  11.302   1.328
63635W        W23380  24.675  42.403  12.398
63636W        W23381  34.423  23.129   3.310
63637W        W23382  22.052   0.448  10.108
63638W        W23383   9.183  37.905  13.343
63639W        W23384  24.002  40.835   0.300
63640W        W23385  29.598  35.855   1.295
63641W        W23386  37.358  39.433  12.015
63642W        W23387  26.612  19.133   1.799
63643W        W23388  12.820  24.989   3.826
63644W        W23389   3.287  18.257  14.791
63645W        W23390  14.679  23.672  13.033
63646W        W23391  33.066   6.829   1.333
63647W        W23392  15.100  37.958  12.982
63648W        W23393  14.808  21.157   4.187
63649W        W23394  30.579   3.863   2.717
63650W        W23395  18.676  40.379  11.524
63651W        W23396  19.713  27.981  12.452
63652W        W23397  23.141  21.223  13.406
63653W        W23398   6.766  23.558   2.838
63654W        W23399  27.537  39.473  13.470
63655W        W23400   2.947   9.888  13.412
63656W        W23401  20.598  38.886  12.447
63657W        W23402   9.290   7.716   3.200
63658W        W23403  37.449   2.324   5.313
63659W        W23404  28.183  10.305   3.780
63660W        W23405  43.933   1.770   1.388
63661W        W23406  24.037  33.934  10.067
63662W        W23407  41.362  29.527   5.180
63663W        W23408  33.010  20.076  13.973
63664W        W23409   8.300  17.591  14.372
63665W        W23410  30.453  10.373  12.524
63666W        W23411  42.400  26.479   0.358
63667W        W23412  19.736   4.280   1.220
63668W        W23413  36.002  35.385   0.924
63669W        W23414  38.873  35.909   2.371
63670W        W23415   0.333  25.202  12.824
63671W        W23416   8.385  21.037  13.037
63672W        W23417  42.006  34.026  14.003
63673W        W23418  29.066  36.479   3.164
63674W        W23419   7.399  13.332  12.939
63675W        W23420  29.134  37.079   2.861
63676W        W23421  11.628  43.418   0.738
63677W        W23422  32.075  38.551   1.295
63678W        W23423   7.721  15.256   1.694
63679W        W23424   3.419  24.690  10.558
63680W        W23425   8.178  18.225   0.383
63681W        W23426  38.557  38.414   2.384
63682W        W23427   0.290  25.497  12.530
63683W        W23428  21.217  22.089  14.878
63684W        W23429  40.032  37.572   4.162
63685W        W23430   0.296  12.296   2.739
63686W        W23431   5.405  15.717   0.883
63687W        W23432   3.264   0.251   2.899
63688W        W23433  43.442  39.453  12.488
63689W        W23434   6.188  12.351  10.440
63690W        W23435  30.066  35.528   2.189
63691W        W23436  22.715  40.441  11.516
63692W        W23437  29.537  10.791  14.356
63693W        W23438  41.006  25.525   4.139
63694W        W23439  30.553  19.115   9.934
63695W        W23440   4.366  21.029  10.028
63696W        W23441   6.229   2.831  10.549
63697W        W23442  28.932  32.005   3.772
63698W        W23443  35.556  32.594   3.771
63699W        W23444  30.572  28.038  12.908
63700W        W23445  14.736  30.624   1.840
63701W        W23446  32.508  10.354   1.386
63702W        W23447  40.892  37.367  10.590
63703W        W23448  29.023  34.879   4.306
63704W        W23449  41.315  18.096   0.341
63705W        W23450  41.313  38.478  10.933
63706W        W23451  36.047  35.475  12.956
63707W        W23452  30.647   8.199   2.717
63708W        W23453  37.381  18.084   0.243
63709W        W23454   1.745  36.551   2.311
63710W        W23455  25.649  43.510   4.342
63711W        W23456  19.581   6.317   3.659
63712W        W23457  28.613  34.545   3.254
63713W        W23458   2.856  13.750  11.516
63714W        W23459   9.227  11.751  11.953
63715W        W23460  28.154   6.682   3.343
63716W        W23461   0.332  42.822  12.389
63717W        W23462  42.398  39.404  11.889
63718W        W23463   9.667  21.232  14.941
63719W        W23464  27.962   5.317  12.963
63720W        W23465  41.030   5.329   1.377
63721W        W23466  43.459  41.989   3.372
63722W        W23467   2.284  39.432   0.466
63723W        W23468  31.034  35.026  14.493
63724W        W23469   1.476  13.294  14.944
63725W        W23470  18.617  29.088  12.081
63726W        W23471  23.989   0.429   1.430
63727W        W23472  14.263   7.758  14.774
63728W        W23473  24.556  39.542  10.904
63729W        W23474   5.385  26.672   0.251
63730W        W23475   8.352   7.411   4.644
63731W        W23476  15.658  32.637  10.640
63732W        W23477  35.587  31.979  12.993
63733W        W23478  10.847   8.195  14.410
63734W        W23479  35.510  21.746  12.469
63735W        W23480  25.163  27.595  11.058
63736W        W23481  37.501  21.193  14.476
63737W        W23482  17.066  34.499   0.895
63738W        W23483  15.781  12.237  13.382
63739W        W23484  36.886  22.204  11.511
63740W        W23485  13.789   8.710   1.301
63741W        W23486   8.351  18.063   0.827
63742W        W23487  35.060  19.248  13.029
63743W        W23488  19.719  28.070  10.610
63744W        W23489  19.559  29.442  11.868
63745W        W23490  36.080  25.576   2.324
63746W        W23491  41.986  38.925  13.972
63747W        W23492  10.281  34.003  12.358
63748W        W23493  14.328   1.825   4.767
63749W        W23494   3.439  32.064   3.229
63750W        W23495  31.485  44.921   2.720
63751W        W23496   7.181  11.222   2.858
63752W        W23497  16.251  10.263   4.745
63753W        W23498  13.668  41.022   0.473
63754W        W23499  32.975   4.902  12.001
63755W        W23500   1.940  32.555   2.688
63756W        W23501  41.415  23.076  14.297
63757W        W23502   3.723  35.917  10.907
63758W        W23503  30.000  39.028  13.982
63759W        W23504  42.463  36.402  12.888
63760W        W23505  33.888  37.951  12.078
63761W        W23506  14.659  38.928   2.784
63762W        W23507  22.130  43.899   4.203
63763W        W23508  10.732  35.085   3.811
63764W        W23509   3.282  23.499  14.385
63765W        W23510  32.490  44.870  12.361
63766W        W23511  37.454  32.105   4.830
63767W        W23512   5.730   9.763  11.964
63768W        W23513  28.164  14.714   3.182
63769W        W23514   4.756  29.968  11.470
63770W        W23515  13.766   8.196  12.362
63771W        W23516  26.012  40.805  10.533
63772W        W23517   8.295  27.055   3.297
63773W        W23518  15.650   2.237   2.306
63774W        W23519  44.289  44.466  12.951
63775W        W23520  20.662  37.474   2.363
63776W        W23521  44.757  13.220   2.894
63777W        W23522  39.810  30.982  14.952
63778W        W23523  21.713   8.364   4.334
63779W        W23524  40.044  35.975   2.741
63780W        W23525  38.075  24.151   9.944
63781W        W23526   0.418   1.959  12.448
63782W        W23527  42.775   2.453  14.515
63783W        W23528  44.798   6.819   4.826
63784W        W23529  28.648  38.335  10.643
63785W        W23530  37.513  27.142  14.008
63786W        W23531  26.587  33.020   4.759
63787W        W23532  19.230  29.450   1.789
63788W        W23533  29.509  32.451  12.947
63789W        W23534  33.546   4.226  13.943
63790W        W23535  22.535  42.510   4.736
63791W        W23536  10.662  11.625  12.829
63792W        W23537  16.764  40.413   4.232
63793W        W23538  25.696  19.276  12.969
63794W        W23539  23.055  38.522   2.773
63795W        W23540  35.980  13.611   4.764
63796W        W23541  21.570  28.987  11.601
63797W        W23542   3.848  26.655  10.031
63798W        W23543   2.878  14.708  12.565
63799W        W23544  34.436  24.529   1.376
63800W        W23545  18.064  39.471  13.500
63801W        W23546  37.353  11.634   3.198
63802W        W23547  19.757  20.565  10.956
63803W        W23548   6.246  10.260   4.157
63804W        W23549  41.520   4.883  14.408
63805W        W23550  38.821  27.940  11.863
63806W        W23551  25.597  37.340   3.697
63807W        W23552  12.233  29.977  10.404
63808W        W23553  14.790   2.313  14.885
63809W        W23554  43.292   8.270   3.774
63810W        W23555   9.721   0.333   2.254
63811W        W23556  21.103  13.815   2.764
63812W        W23557  44.455  29.613   1.311
63813W        W23558  28.593   9.872  12.370
63814W        W23559  31.140  27.559   1.448
63815W        W23560   5.789  43.489   4.769
63816W        W23561  13.654  32.046  10.953
63817W        W23562  13.112  20.223  13.023
63818W        W23563   0.435   1.869   0.323
63819W        W23564  26.983   7.848  11.954
63820W        W23565   0.417  36.477   0.861
63821W        W23566  39.387  11.809   1.252
63822W        W23567  27.477  25.675  13.953
63823W        W23568  24.540  30.954  14.995
63824W        W23569  20.245  44.436  14.351
63825W        W23570  32.022  35.977  13.498
63826W        W23571  17.681  21.711  13.914
63827W        W23572   8.883   2.939  12.403
63828W        W23573  41.330  25.096  14.924
63829W        W23574  17.089  30.953  13.044
63830W        W23575  20.699  23.683  11.413
63831W        W23576  27.977  12.142   3.643
63832W        W23577  32.928  17.183   1.883
63833W        W23578  16.777  23.677   0.458
63834W        W23579  43.944  22.230  13.411
63835W        W23580  23.625  22.519   2.285
63836W        W23581  39.460  12.722  13.040
63837W        W23582  24.017   1.312  10.074
63838W        W23583  20.649  18.686   0.455
63839W        W23584  25.189  24.040   2.786
63840W        W23585  39.867  38.385   1.381
63841W        W23586  21.134  26.550  10.898
63842W        W23587  41.336   6.329   5.238
63843W        W23588  28.472  38.443  14.340
63844W        W23589  19.780  16.692  12.008
63845W        W23590  13.305  40.444  12.054
63846W        W23591  42.017  29.099  11.970
63847W        W23592  34.933   0.397   2.189
63848W        W23593   5.409  20.173   2.667
63849W        W23594  31.980  33.086  13.878
63850W        W23595  20.170  17.759  11.932
63851W        W23596  24.516  10.294  13.376
63852W        W23597   4.837  32.010   2.808
63853W        W23598   2.391  42.296   0.814
63854W        W23599  44.415   0.384  10.901
63855W        W23600   8.822   5.362  11.934
63856W        W23601  14.155  41.866  13.444
63857W        W23602  23.171  16.622   4.726
63858W        W23603  15.214   2.954  10.462
63859W        W23604  31.575  16.102  10.413
63860W        W23605   6.199  23.595  14.506
63861W        W23606   9.807  44.921   4.798
63862W        W23607  43.869   7.764  12.897
63863W        W23608  13.211  14.238   2.398
63864W        W23609  35.004  27.003  14.366
63865W        W23610   5.317  13.254   2.314
63866W        W23611   1.806  35.905  13.318
63867W        W23612   8.198  20.201   2.823
63868W        W23613  26.993  21.029  14.778
63869W        W23614  34.569  25.483   2.369
63870W        W23615  26.104  25.704   3.689
63871W        W23616  30.551  28.585  11.529
63872W        W23617  37.515  24.591  11.034
63873W        W23618  39.860  37.573  11.489
63874W        W23619  38.492  24.664  11.015
63875W        W23620  32.069  12.717  13.838
63876W        W23621  20.038   3.758  11.905
63877W        W23622  16.181  14.315  13.339
63878W        W23623  26.641  17.162  10.997
63879W        W23624   1.881  32.611   1.892
63880W        W23625   6.838  22.056   2.829
63881W        W23626  43.978  40.432  14.405
63882W        W23627   3.834  36.946   3.709
63883W        W23628  34.490   0.810   4.354
63884W        W23629  22.693  33.615  10.935
63885W        W23630   9.770  24.993   2.250
63886W        W23631  35.067  10.826  12.894
63887W        W23632  26.600  33.593  11.977
63888W        W23633  37.472   9.745   1.844
63889W        W23634  19.084  11.225  10.498
63890W        W23635  21.647  39.320  12.526
63891W        W23636  10.329  36.037   3.851
63892W        W23637   0.799  16.808   3.859
63893W        W23638   0.428  31.573  13.800
63894W        W23639  28.175  37.076   1.796
63895W        W23640  44.389   7.681  13.362
63896W        W23641  36.866  31.426   2.397
63897W        W23642  31.906  27.142  14.325
63898W        W23643  10.740   8.731  11.018
63899W        W23644  37.424   1.327   0.406
63900W        W23645  27.594  20.700   2.302
63901W        W23646  35.577  23.237  14.374
63902W        W23647   5.900   7.214   0.374
63903W        W23648  39.509  15.162   4.290
63904W        W23649  43.899  43.497  11.892
63905W        W23650  25.099  37.872  13.510
63906W        W23651  35.870   2.299   2.728
63907W        W23652  30.474  41.434  14.797
63908W        W23653  28.111  17.084   2.295
63909W        W23654  39.376  27.520   4.325
63910W        W23655  19.085  26.141   2.749
63911W        W23656   7.786  41.868  12.013
63912W        W23657  25.687  25.964   2.288
63913W        W23658  13.679  23.057   1.309
63914W        W23659   7.682  29.436  13.388
63915W        W23660  39.043  42.970   2.297
63916W        W23661   2.353  26.595   0.448
63917W        W23662  40.054  26.071  13.427
63918W        W23663  44.396  27.659  14.920
63919W        W23664   7.886  26.693   3.798
63920W        W23665  35.972  13.665  14.391
63921W        W23666   9.714  24.000  12.969
63922W        W23667   2.878  33.517   2.854
63923W        W23668  21.234  20.054  12.968
63924W        W23669  18.560  35.106  10.073
63925W        W23670  17.284  33.615  11.454
63926W        W23671  10.303  33.060   3.763
63927W        W23672  31.410   2.350   3.771
63928W        W23673  29.018  10.714  13.044
63929W        W23674  26.674  13.151   0.294
63930W        W23675   7.711   3.852   4.639
63931W        W23676  36.500  36.578   0.318
63932W        W23677  29.529  34.437  13.377
63933W        W23678  36.559  25.215  14.883
63934W        W23679  43.858  10.655   2.734
63935W        W23680  14.318  21.108   0.329
63936W        W23681  16.643  41.468   1.858
63937W        W23682  25.980  21.627   0.476
63938W        W23683  21.061  22.217   2.242
63939W        W23684  30.098  32.600   0.313
63940W        W23685  41.920   9.823   4.232
63941W        W23686   1.819   9.297   1.230
63942W        W23687  27.473  34.971   3.773
63943W        W23688  37.969  44.909  10.539
63944W        W23689  14.812  22.078   1.770
63945W        W23690  20.139  15.314  12.909
63946W        W23691  16.269  14.169  14.328
63947W        W23692   9.283  32.065   3.350
63948W        W23693  11.311  13.607   3.741
63949W        W23694  38.876  39.504   3.690
63950W        W23695   8.161  28.080  12.965
63951W        W23696  10.636  38.421   1.791
63952W        W23697   0.748  28.037   5.171
63953W        W23698  39.016  35.420   1.306
63954W        W23699  36.380   0.906   3.845
63955W        W23700  27.584  19.724  14.280
63956W        W23701  20.151  34.579  14.032
63957W        W23702  44.782   4.838  12.073
63958W        W23703  11.853  42.454   0.399
63959W        W23704   9.887   3.216   2.279
63960W        W23705  40.989  25.633   0.736
63961W        W23706  38.010  43.325  14.830
63962W        W23707   6.311   0.799   4.648
63963W        W23708  18.663  36.897   1.836
63964W        W23709  12.773  19.759  12.031
63965W        W23710  42.937   2.817   0.435
63966W        W23711  42.812  11.211  11.021
63967W        W23712  21.570  19.175   2.673
63968W        W23713   9.377   1.775  13.024
63969W        W23714   0.371  39.388   3.385
63970W        W23715  43.809  33.444   1.801
63971W        W23716  24.997   9.653   4.718
63972W        W23717  33.085  42.445  13.444
63973W        W23718   5.687   0.786  14.400
63974W        W23719  37.558  39.053   4.142
63975W        W23720  43.502  21.200   3.767
63976W        W23721  41.032   7.841   1.909
63977W        W23722  28.618  11.200  10.493
63978W        W23723  14.142  32.627  11.883
63979W        W23724   3.769  39.530   2.418
63980W        W23725  19.195  23.712  13.310
63981W        W23726  28.127  29.931  13.868
63982W        W23727   6.393  40.048  14.898
63983W        W23728   3.729  37.450   1.269
63984W        W23729  22.209  38.961   0.441
63985W        W23730  43.501  15.684  10.540
63986W        W23731  35.944  14.610  11.871
63987W        W23732   2.282  11.210   1.437
63988W        W23733  43.280   5.307   3.847
63989W        W23734  37.047   5.395   3.371
63990W        W23735  32.433  22.038   2.750
63991W        W23736  13.757   1.799  10.540
63992W        W23737  14.717  41.337   3.175
63993W        W23738  37.939  16.316  12.889
63994W        W23739  14.713  42.517  10.981
63995W        W23740  44.997  41.441   2.791
63996W        W23741  23.089  44.383   1.930
63997W        W23742  17.126  11.718  11.487
63998W        W23743   3.371  22.218  13.055
63999W        W23744   3.353  18.292  13.994
64000W        W23745  39.354  23.504   4.670
64001W        W23746   8.341  43.279   4.233
64002W        W23747   7.757   5.217  12.946
64003W        W23748  37.354  24.494  11.444
64004W        W23749  27.113  36.573   3.850
64005W        W23750  43.341   6.851   1.847
64006W        W23751   6.275  12.264  12.564
64007W        W23752  12.244   6.200  11.470
64008W        W23753  16.715  35.517  11.404
64009W        W23754  44.985   9.678  12.950
64010W        W23755  22.081  32.623  13.926
64011W        W23756  33.401  19.706   1.442
64012W        W23757   8.818  14.229   2.324
64013W        W23758   6.276  10.360  12.067
64014W        W23759   4.317  25.018   4.784
64015W        W23760   9.730  20.757  14.994
64016W        W23761   5.796   7.388  11.106
64017W        W23762  18.704  42.406   3.699
64018W        W23763  43.956  35.063  10.939
64019W        W23764   9.872   1.809   2.183
64020W        W23765  41.899  29.084  13.428
64021W        W23766  35.456  44.308   0.395
64022W        W23767  31.077  12.700  10.051
64023W        W23768  23.035  12.702   3.279
64024W        W23769  40.526  29.930  14.769
64025W        W23770  43.010  29.977   4.139
64026W        W23771  21.156  42.329  11.501
64027W        W23772  41.034  10.248  14.430
64028W        W23773  31.549  39.407  11.608
64029W        W23774  21.633  16.623   1.250
64030W        W23775  21.669   5.693  12.482
64031W        W23776   3.397  11.353   9.928
64032W        W23777   7.350  28.997   2.705
64033W        W23778   4.847  44.282  12.446
64034W        W23779  13.771  20.150   1.352
64035W        W23780  28.665  17.787   2.875
64036W        W23781  32.442  38.950  10.065
64037W        W23782  22.597   7.174   4.299
64038W        W23783   7.760  43.348   2.686
64039W        W23784  12.117  27.195  14.820
64040W        W23785  18.201   4.265  10.626
64041W        W23786  11.864  11.259   2.751
64042W        W23787  23.144  17.219  10.961
64043W        W23788  37.987  38.520  11.371
64044W        W23789  10.375  29.472   0.433
64045W        W23790  17.560   5.879  11.001
64046W        W23791  16.805  12.633  13.373
64047W        W23792   2.428   1.735  14.369
64048W        W23793   2.816  30.070   5.569
64049W        W23794  13.195  11.272  14.904
64050W        W23795   5.290  30.503  14.839
64051W        W23796  21.173  24.669  14.514
64052W        W23797  23.556   0.423   2.777
64053W        W23798  15.285  15.622  10.541
64054W        W23799  26.188  33.517  14.899
64055W        W23800  40.338  33.956   4.272
64056W        W23801  32.545   6.911  14.007
64057W        W23802   6.373  35.861  12.445
64058W        W23803   2.853   0.754   4.822
64059W        W23804  31.485   3.400  14.832
64060W        W23805   4.702  31.441   1.258
64061W        W23806  15.140  31.641  12.551
64062W        W23807  17.201  25.116   4.764
64063W        W23808   3.751  42.931  14.966
64064W        W23809  20.657  25.155  10.565
64065W        W23810  29.167  41.934   0.922
64066W        W23811  24.529   6.285  14.909
64067W        W23812  11.719  18.119  13.457
64068W        W23813  32.394  28.996   1.849
64069W        W23814  35.533  18.076   4.647
64070W        W23815  26.674   0.458   2.330
64071W        W23816  19.759  34.974  11.888
64072W        W23817   1.876   2.801   2.324
64073W        W23818   5.793  31.049  11.127
64074W        W23819  35.055  10.227   3.812
64075W        W23820  32.508  43.942   4.130
64076W        W23821  21.671  23.587   1.717
64077W        W23822   4.875  11.254  14.808
64078W        W23823  36.856  43.823  14.485
64079W        W23824   7.743  25.143   5.313
64080W        W23825  18.219   9.890  12.517
64081W        W23826  43.427  23.157  10.930
64082W        W23827  29.114   8.796   2.769
64083W        W23828  37.464  25.047  14.331
64084W        W23829  36.941   0.770  10.955
64085W        W23830  18.744   4.358   0.331
64086W        W23831   6.759   6.773   0.755
64087W        W23832  16.649  14.675  10.577
64088W        W23833   6.244  29.616   1.887
64089W        W23834  39.431  41.882  11.573
64090W        W23835  23.735  18.713   4.786
64091W        W23836  28.032  42.295  13.493
64092W        W23837   7.776  27.638   3.831
64093W        W23838  37.573  10.190   0.280
64094W        W23839  10.361  37.337   3.258
64095W        W23840  20.211  27.119  14.939
64096W        W23841  20.138  38.874   5.217
64097W        W23842  37.939  41.324   1.908
64098W        W23843  26.069  15.738   3.648
64099W        W23844   7.209  29.925   4.833
64100W        W23845  36.088  14.119  10.916
64101W        W23846  37.994  18.757  14.370
64102W        W23847  41.401  35.918   4.716
64103W        W23848   4.919  38.398  13.363
64104W        W23849  25.081  34.014   9.596
64105W        W23850  10.138  15.162  10.411
64106W        W23851  26.614   8.175  10.565
64107W        W23852   5.372  14.147  12.442
64108W        W23853  42.969  19.651  14.028
64109W        W23854   6.805  42.921   0.964
64110W        W23855  26.956  13.785   4.835
64111W        W23856  32.529  43.886   0.909
64112W        W23857  34.427  24.638  12.834
64113W        W23858  37.556  39.991   0.370
64114W        W23859  31.074   5.763   3.362
64115W        W23860   7.669  21.540  14.453
64116W        W23861  22.043   7.284   4.243
64117W        W23862   4.216   4.445   1.806
64118W        W23863  12.224  23.003  14.885
64119W        W23864   8.695  26.164   3.200
64120W        W23865  11.668  11.191   2.234
64121W        W23866  14.245  33.553  10.412
64122W        W23867   9.751   8.328  13.862
64123W        W23868  41.808  20.130   4.352
64124W        W23869  35.451  27.657  10.889
64125W        W23870  26.630  40.318  13.813
64126W        W23871  11.788  16.144  11.928
64127W        W23872  14.830  12.209   3.250
64128W        W23873  43.397   9.691   1.276
64129W        W23874  12.855  44.901   1.245
64130W        W23875  25.483  16.576  11.064
64131W        W23876  43.996  38.891  14.939
64132W        W23877  16.634  14.694   2.675
64133W        W23878  10.737  20.192  13.528
64134W        W23879  32.071  15.614   5.211
64135W        W23880  35.062  30.546  10.052
64136W        W23881  10.646  39.541  10.491
64137W        W23882   8.681  15.293   0.460
64138W        W23883  27.456   8.193   0.788
64139W        W23884  18.553  27.069  14.301
64140W        W23885  11.152  36.940  13.996
64141W        W23886   6.717  38.828  11.612
64142W        W23887  21.256   8.353   3.815
64143W        W23888  42.966  12.161   0.434
64144W        W23889  32.511  35.412   0.325
64145W        W23890  44.895  22.086  13.904
64146W        W23891  32.070   5.337  11.579
64147W        W23892  37.476  16.147  11.109
64148W        W23893  43.880   4.304   4.789
64149W        W23894   0.444  17.641   0.788
64150W        W23895   2.942   1.403  12.861
64151W        W23896   5.867  14.190   2.669
64152W        W23897  36.491   4.387  14.891
64153W        W23898  20.528  34.910  10.485
64154W        W23899   1.256  31.419  11.430
64155W        W23900  10.225   8.316   3.654
64156W        W23901  33.056   8.776   0.301
64157W        W23902   8.179  28.545   2.315
64158W        W23903  21.722  40.469   0.405
64159W        W23904   9.300  33.579  13.484
64160W        W23905  30.489  16.219  12.943
64161W        W23906  39.539  16.181  12.532
64162W        W23907   5.770  28.171  13.325
64163W        W23908   1.804  17.087   1.288
64164W        W23909  44.986  35.999  10.009
64165W        W23910  15.698  31.990  13.509
64166W        W23911  13.680  28.167  13.982
64167W        W23912  17.192   7.303  12.348
64168W        W23913  42.855  18.738   4.337
64169W        W23914  25.016  44.847   2.230
64170W        W23915  30.440  20.617   4.803
64171W        W23916  23.132  39.000   1.742
64172W        W23917  13.160  40.876   2.811
64173W        W23918  10.197  13.343  11.523
64174W        W23919  29.586  20.683   5.624
64175W        W23920   6.243  18.139  13.419
64176W        W23921  34.958  35.973   1.791
64177W        W23922  18.091  22.600   2.812
64178W        W23923  24.038  10.784   4.597
64179W        W23924  21.586  30.478   0.454
64180W        W23925  29.632  38.512   2.402
64181W        W23926  37.347  31.537  13.335
64182W        W23927  30.505   3.422   2.741
64183W        W23928  19.120  12.769  13.310
64184W        W23929  42.950  33.581   2.830
64185W        W23930  15.712  20.651  10.927
64186W        W23931  30.035   9.793   2.364
64187W        W23932  17.739  44.754  10.562
64188W        W23933  35.564  44.779  10.539
64189W        W23934  26.610  10.325  10.619
64190W        W23935  38.052  29.515   3.789
64191W        W23936  38.512   9.766  14.984
64192W        W23937  29.009  17.106  10.486
64193W        W23938  31.947   7.341   2.801
64194W        W23939  15.716  42.357  13.534
64195W        W23940  21.570  42.915   1.741
64196W        W23941  41.415  40.942  13.461
64197W        W23942   3.722  16.272  13.965
64198W        W23943   5.398  13.273  14.767
64199W        W23944  44.963  25.993   3.855
64200W        W23945  27.492   8.184   0.323
64201W        W23946  18.558   4.907   0.824
64202W        W23947   5.223  10.730  14.405
64203W        W23948  17.066  44.478   3.245
64204W        W23949  29.945   5.251  12.025
64205W        W23950  19.616  29.921  11.125
64206W        W23951   3.770  18.129  14.951
64207W        W23952  22.236  16.782  14.778
64208W        W23953  32.915   4.276   4.337
64209W        W23954   9.839  18.711   4.351
64210W        W23955  41.885  44.459  11.023
64211W        W23956  26.697  20.655  14.917
64212W        W23957  27.577  26.966   1.439
64213W        W23958  36.841   3.387  12.375
64214W        W23959  38.544  11.272  13.427
64215W        W23960  15.106  31.970   4.730
64216W        W23961  25.636  16.161  11.603
64217W        W23962  36.843  21.538  13.431
64218W        W23963  16.218  22.614  13.974
64219W        W23964  39.453  28.147   2.752
64220W        W23965  27.609  32.133   0.807
64221W        W23966  32.945  14.756   1.700
64222W        W23967  25.139  15.666  10.560
64223W        W23968   0.491   0.860  11.992
64224W        W23969  34.612  11.793   3.282
64225W        W23970  18.154  11.853   4.178
64226W        W23971   1.795  16.129   3.249
64227W        W23972  34.507  21.743   3.260
64228W        W23973  37.378   0.436   2.290
64229W        W23974  36.511  37.975  14.761
64230W        W23975  14.201   0.764   1.321
64231W        W23976  41.413  26.984   4.174
64232W        W23977  23.516  41.318  12.055
64233W        W23978  31.126  35.945   0.369
64234W        W23979  22.090   7.691   0.790
64235W        W23980  18.748  38.394  11.545
64236W        W23981  32.080  14.617   4.821
64237W        W23982  21.135  11.217   0.784
64238W        W23983  44.833  38.458  14.879
64239W        W23984  39.952  37.407  12.430
64240W        W23985  32.523  35.016   4.289
64241W        W23986  24.013  39.466  11.566
64242W        W23987  39.350  37.445  13.530
64243W        W23988  31.943  16.723   2.844
64244W        W23989  34.972  34.029   2.825
64245W        W23990  42.423  31.998   4.815
64246W        W23991  21.633  30.928  10.072
64247W        W23992  32.459  32.102  13.394
64248W        W23993  14.221  23.660   0.296
64249W        W23994  17.690  38.465   3.225
64250W        W23995  38.029  27.141  14.352
64251W        W23996  20.555  25.512  14.431
64252W        W23997  43.904  21.716   4.686
64253W        W23998   3.824   3.450   1.351
64254W        W23999  26.645  35.502  11.927
64255W        W24000  15.264  22.745   1.825
64256W        W24001  41.020   9.733  13.800
64257W        W24002  42.491  44.953   2.719
64258W        W24003  38.979  43.793   3.310
64259W        W24004  32.137  37.845   4.148
64260W        W24005  42.408  18.587  14.278
64261W        W24006  40.517   3.795  11.578
64262W        W24007  18.585  20.182  12.976
64263W        W24008   9.765  33.428  14.349
64264W        W24009  25.630  13.760  14.765
64265W        W24010  31.028  16.187  12.018
64266W        W24011   0.356  35.416   4.789
64267W        W24012   0.263   9.331  14.855
64268W        W24013  39.024  27.649   1.719
64269W        W24014  10.288  22.028   3.257
64270W        W24015  20.096  25.545   2.865
64271W        W24016  41.840   1.264   4.774
64272W        W24017   7.825  38.492   2.283
64273W        W24018   7.730  24.682   3.146
64274W        W24019  12.246   0.779  13.917
64275W        W24020  31.642  28.934   2.394
64276W        W24021   0.820   5.888   0.332
64277W        W24022  36.457   0.398   0.251
64278W        W24023   3.899  33.915   1.856
64279W        W24024   3.712  36.074   3.210
64280W        W24025  10.150  39.502  13.958
64281W        W24026  32.509   9.295  14.859
64282W        W24027  21.154   2.723  14.348
64283W        W24028   5.934  38.820  12.370
64284W        W24029  22.218  13.314  11.953
64285W        W24030  44.880  11.829   2.741
64286W        W24031  35.593   5.330  12.017
64287W        W24032  43.831  16.580  13.503
64288W        W24033  31.910  37.082  10.586
64289W        W24034  31.613  41.491   2.264
64290W        W24035  32.135   4.719  14.954
64291W        W24036  28.513  21.150  11.375
64292W        W24037  22.706   3.446   0.342
64293W        W24038  40.905  26.028   2.744
64294W        W24039  27.611  34.092  12.579
64295W        W24040  23.075  37.374  11.603
64296W        W24041  10.230  37.050   4.244
64297W        W24042  31.982  12.675   3.665
64298W        W24043  44.330  40.450  13.971
64299W        W24044  25.689  15.271   3.726
64300W        W24045  23.082  29.426   0.323
64301W        W24046   9.308   9.208  14.924
64302W        W24047  13.621  35.064  12.487
64303W        W24048  31.995   7.333   3.844
64304W        W24049  16.577   7.735   4.726
64305W        W24050  23.177   0.430   2.680
64306W        W24051  41.316  43.012   1.759
64307W        W24052  39.038  11.649   5.087
64308W        W24053  44.460   5.259   4.717
64309W        W24054  42.929  21.246  10.467
64310W        W24055  25.698   9.390   1.861
64311W        W24056  30.066  21.054   1.270
64312W        W24057  42.467   8.285   3.150
64313W        W24058  39.351  26.981  12.362
64314W        W24059  38.980  15.615  13.959
64315W        W24060   2.815  23.495   3.177
64316W        W24061  42.906  25.005   0.914
64317W        W24062  29.529  44.987   0.343
64318W        W24063  44.862   2.418  14.513
64319W        W24064  30.083  32.400   2.702
64320W        W24065   7.243   6.368  13.356
64321W        W24066  27.621  13.726   4.657
64322W        W24067  37.051  29.504   1.322
64323W        W24068   0.752   2.238   3.657
64324W        W24069  12.625  35.945   1.795
64325W        W24070   1.294  22.009  13.391
64326W        W24071  15.169  42.797  11.391
64327W        W24072  17.125  38.416   4.753
64328W        W24073  11.793   4.252  14.400
64329W        W24074  31.118  28.435   2.883
64330W        W24075   9.863  36.347  11.975
64331W        W24076  34.943  18.612  12.495
64332W        W24077   8.895  11.846  10.616
64333W        W24078  10.633  10.692  12.471
64334W        W24079   6.209   6.323   0.885
64335W        W24080  20.058   1.463   5.715
64336W        W24081  22.193  11.669   5.669
64337W        W24082  25.965  37.933   4.282
64338W        W24083  25.637  15.657   3.254
64339W        W24084  19.107  31.565  14.380
64340W        W24085   9.224  17.770   3.797
64341W        W24086  41.464   3.332  14.814
64342W        W24087  25.571   3.864   2.738
64343W        W24088  12.691  14.152   1.914
64344W        W24089   5.929   8.720   3.698
64345W        W24090  42.482  44.867   0.911
64346W        W24091  34.961   4.724   4.697
64347W        W24092  36.593  21.703   4.311
64348W        W24093  14.198  23.106  14.817
64349W        W24094  41.013  44.798   0.427
64350W        W24095  19.105  38.937   2.331
64351W        W24096  20.579   2.307   2.257
64352W        W24097   6.339  31.951   4.622
64353W        W24098  16.102   7.274  10.549
64354W        W24099  38.875   0.439  13.965
64355W        W24100  27.954  15.735  11.537
64356W        W24101  28.585  23.565   2.846
64357W        W24102   0.387  25.689   3.829
64358W        W24103  16.801   8.845   3.862
64359W        W24104   0.387   8.242  13.314
64360W        W24105  44.468   6.716   3.349
64361W        W24106  35.499  11.749   0.890
64362W        W24107  20.191  42.854  12.087
64363W        W24108  28.601  36.366   3.348
64364W        W24109  23.693  31.565  10.560
64365W        W24110   2.265   0.907   0.749
64366W        W24111  21.613   2.775  12.395
64367W        W24112  43.495  21.215   1.738
64368W        W24113  32.427  32.889  10.542
64369W        W24114  10.653  16.305  13.005
64370W        W24115  23.115  12.824   4.770
64371W        W24116   3.903  19.147   9.668
64372W        W24117  35.024  29.553  12.570
64373W        W24118   7.417  33.454   0.953
64374W        W24119  14.713  11.230  13.836
64375W        W24120  12.832  19.219  11.071
64376W        W24121  17.249   9.675   3.831
64377W        W24122  29.115  38.986  11.874
64378W        W24123  18.273   3.739   2.318
64379W        W24124  30.994  16.181   4.752
64380W        W24125  37.045  21.128   4.713
64381W        W24126   3.428   8.721   2.843
64382W        W24127  29.094  40.334   1.856
64383W        W24128  31.403  43.324  11.491
64384W        W24129  15.112  42.848  14.998
64385W        W24130  12.152  43.488  12.866
64386W        W24131   4.937   2.447   0.862
64387W        W24132  30.050  41.463  13.826
64388W        W24133  36.576  43.290  13.455
64389W        W24134  36.042   1.776  12.420
64390W        W24135  15.161  16.125  12.571
64391W        W24136  21.172  25.112   3.860
64392W        W24137  37.975  10.253   1.213
64393W        W24138  22.624   5.863   2.192
64394W        W24139  42.396  21.755  10.642
64395W        W24140   9.201   3.233   5.133
64396W        W24141  29.161  31.108   2.318
64397W        W24142  31.457   3.778  13.413
64398W        W24143  22.069   6.348  13.507
64399W        W24144  10.632  25.988   1.712
64400W        W24145  30.541   3.274   3.179
64401W        W24146  39.949  40.892  10.927
64402W        W24147  33.118   1.332  12.553
64403W        W24148   1.787   1.790   0.818
64404W        W24149  32.050   9.261  14.406
64405W        W24150  30.068  25.695  11.015
64406W        W24151  28.059  35.014   0.420
64407W        W24152  15.146   8.864   0.246
64408W        W24153  35.999   2.864  13.822
64409W        W24154   7.221  34.900   2.406
64410W        W24155  25.139  28.600  14.368
64411W        W24156  42.921  43.920   3.382
64412W        W24157  44.929  17.607  12.504
64413W        W24158  18.088  37.852  13.410
64414W        W24159  27.691  39.353   4.836
64415W        W24160  12.180  26.630  13.863
64416W        W24161  17.628   3.889   2.274
64417W        W24162   7.410  42.381   3.248
64418W        W24163  44.839  14.119   2.209
64419W        W24164  10.374  10.294   2.315
64420W        W24165   1.739  19.226   2.740
64421W        W24166  21.187   6.695   1.844
64422W        W24167  40.345  41.973   0.953
64423W        W24168  38.438  12.189   1.338
64424W        W24169  28.998  33.887   0.414
64425W        W24170  15.259  34.492   5.191
64426W        W24171  43.808  23.213  13.962
64427W        W24172  12.186  22.068  10.562
64428W        W24173  30.919  22.040  14.314
64429W        W24174   3.267  30.444  14.960
64430W        W24175  33.384  29.140  14.844
64431W        W24176  27.169  25.153   0.248
64432W        W24177  33.548  44.464  13.531
64433W        W24178  12.306  35.586  13.839
64434W        W24179  25.039  18.244  14.000
64435W        W24180   5.902   9.687   3.358
64436W        W24181  20.124   8.172   0.791
64437W        W24182  12.666   4.791  12.355
64438W        W24183  31.129  32.132   2.400
64439W        W24184  21.249  19.753   2.247
64440W        W24185  22.731  24.509  13.869
64441W        W24186  15.258   3.383   1.738
64442W        W24187  20.556  32.904   5.120
64443W        W24188   8.168  40.401   0.850
64444W        W24189  33.456  19.234   1.727
64445W        W24190   8.377   3.908  14.973
64446W        W24191   9.729  11.213  14.405
64447W        W24192  16.755  26.206  13.543
64448W        W24193  16.143  18.681  11.919
64449W        W24194  15.122  19.194   3.328
64450W        W24195  28.470   5.377   3.734
64451W        W24196  37.837  38.324  14.357
64452W        W24197  29.644  29.570  13.468
64453W        W24198  11.653   9.824  14.372
64454W        W24199  35.993  17.279   4.152
64455W        W24200  31.954  36.498  12.944
64456W        W24201  34.591   2.382  13.430
64457W        W24202   8.862   3.864   2.216
64458W        W24203  43.485  31.128   2.801
64459W        W24204  43.942  24.084  13.880
64460W        W24205  19.707  11.165  13.809
64461W        W24206  18.255  10.172  12.025
64462W        W24207  11.785  32.541   4.704
64463W        W24208  36.479   2.450   2.347
64464W        W24209   4.763  20.765   0.258
64465W        W24210   0.797  24.480  11.027
64466W        W24211  12.731  39.863   2.399
64467W        W24212  14.226  38.894  14.484
64468W        W24213  12.151  39.509  12.897
64469W        W24214  30.108  27.079   4.606
64470W        W24215   1.856  35.880   3.647
64471W        W24216  27.495  23.214  13.059
64472W        W24217  15.115  30.921  14.291
64473W        W24218   5.425   3.893  13.315
64474W        W24219  18.218   6.409   3.194
64475W        W24220   2.880  37.534  12.368
64476W        W24221   3.249  39.407  12.882
64477W        W24222  39.549  20.558  13.939
64478W        W24223  31.150  24.171  12.424
64479W        W24224  44.372  22.097  11.937
64480W        W24225  26.589  12.705   3.802
64481W        W24226  21.564  25.524   3.820
64482W        W24227  13.327  35.964   2.301
64483W        W24228   7.225  38.933   1.754
64484W        W24229  10.701  44.798   2.818
64485W        W24230  28.510   7.371  14.316
64486W        W24231  43.445   3.293  11.473
64487W        W24232  29.128  10.154  12.090
64488W        W24233   1.455  41.318   3.255
64489W        W24234  22.523  27.977  14.485
64490W        W24235  24.185  44.909  10.533
64491W        W24236  41.508  13.211   3.311
64492W        W24237  29.515  15.820   5.117
64493W        W24238  28.163   5.325   2.881
64494W        W24239  42.813   0.420   2.869
64495W        W24240  23.652   6.822   1.210
64496W        W24241  15.092  20.701  12.838
64497W        W24242   7.888  24.618   2.858
64498W        W24243  26.677  15.758   1.419
64499W        W24244  20.049  37.944   0.284
64500W        W24245  27.005  17.767   3.742
64501W        W24246   5.786   2.231   0.254
64502W        W24247   9.339   3.824   4.821
64503W        W24248   5.801  21.529  12.530
64504W        W24249  30.576  22.536   0.833
64505W        W24250  39.858  22.177  14.793
64506W        W24251  40.841  38.905   0.440
64507W        W24252  23.136  18.163   1.255
64508W        W24253   9.780  33.380  12.941
64509W        W24254  22.628  38.421   3.238
64510W        W24255  24.522  21.516   4.702
64511W        W24256  18.695  27.574  14.994
64512W        W24257   6.205  26.472  10.461
64513W        W24258  29.959  38.968   4.122
64514W        W24259  25.208  14.264   3.680
64515W        W24260  26.668  24.096  12.973
64516W        W24261  34.005  25.524  11.466
64517W        W24262  12.208   4.859   4.811
64518W        W24263  24.625  18.679  14.985
64519W        W24264  23.533  33.531  14.032
64520W        W24265  13.301  44.831  13.452
64521W        W24266  30.031  12.139   3.213
64522W        W24267  26.520  41.948  14.843
64523W        W24268  25.004  40.542   0.294
64524W        W24269   6.893  10.736  12.413
64525W        W24270  15.261  34.901   9.980
64526W        W24271  27.056  18.236   1.898
64527W        W24272  39.059  22.166   4.285
64528W        W24273  29.618  36.557   2.853
64529W        W24274   0.248  43.323   4.742
64530W        W24275   8.893  32.542  10.518
64531W        W24276  42.978  27.038  13.906
64532W        W24277   5.221  13.837  10.632
64533W        W24278   0.912  42.878  13.023
64534W        W24279  30.528   8.328   4.139
64535W        W24280  22.072  30.467   3.814
64536W        W24281   8.229  22.144   2.337
64537W        W24282  39.353  13.647   2.755
64538W        W24283  43.384   3.875  11.967
64539W        W24284   5.693   3.921  14.972
64540W        W24285   0.453  14.794   4.346
64541W        W24286   9.372  24.157   3.753
64542W        W24287  20.237  37.345   2.835
64543W        W24288  12.192  10.858   3.227
64544W        W24289  10.802  44.850   4.757
64545W        W24290  18.130  31.097  10.888
64546W        W24291   8.277  38.961  13.327
64547W        W24292   8.398  27.988   3.778
64548W        W24293  19.087  30.594   2.325
64549W        W24294  43.362  11.306  10.638
64550W        W24295  36.073  19.059  13.310
64551W        W24296  31.578  32.417  13.934
64552W        W24297  38.831   7.412   2.774
64553W        W24298  39.443  29.479   1.761
64554W        W24299  19.582   8.807  14.400
64555W        W24300   5.732  17.719   5.735
64556W        W24301  24.094  29.096   2.220
64557W        W24302  24.601  39.928  13.447
64558W        W24303   0.785  42.840   3.280
64559W        W24304  29.998  38.032   2.316
64560W        W24305  33.051  23.208   4.709
64561W        W24306  35.557  30.613   4.155
64562W        W24307  22.608   4.309   3.710
64563W        W24308  31.461  16.087  13.858
64564W        W24309  18.169  34.886   1.331
64565W        W24310  14.821  19.108  13.961
64566W        W24311   1.281  23.014  10.533
64567W        W24312  13.199  31.931   0.883
64568W        W24313  13.257  39.491   4.669
64569W        W24314  22.113   0.830   2.385
64570W        W24315  28.960  32.464   1.746
64571W        W24316  20.703  19.728  13.799
64572W        W24317   2.927  16.696   3.155
64573W        W24318  38.982  44.360   5.315
64574W        W24319  24.514  27.623  11.067
64575W        W24320   3.230  10.287   0.400
64576W        W24321  12.741  34.516  14.306
64577W        W24322   6.374  28.160   0.823
64578W        W24323  27.080  15.654   2.708
64579W        W24324  33.590  30.970  11.112
64580W        W24325  12.657   5.894   3.714
64581W        W24326  38.389  26.558  12.933
64582W        W24327  18.596  19.070   1.346
64583W        W24328  39.507  31.921  10.923
64584W        W24329   3.257  14.171  13.464
64585W        W24330  29.102  26.024   4.164
64586W        W24331  12.849  20.628  12.511
64587W        W24332  11.147  19.108  12.918
64588W        W24333  13.664   2.245   2.671
64589W        W24334  44.372  31.032  14.829
64590W        W24335  10.205  39.921  10.536
64591W        W24336   0.808  33.593  14.279
64592W        W24337  16.285  29.645   4.183
64593W        W24338  15.695  33.573   0.260
64594W        W24339  44.376  23.234   1.935
64595W        W24340  24.572  36.378  11.988
64596W        W24341  43.848   9.661   3.765
64597W        W24342   4.900  31.043  14.398
64598W        W24343   8.691  18.111  10.915
64599W        W24344  42.018   6.730   2.669
64600W        W24345  16.601  37.039  14.323
64601W        W24346  12.155   6.867  11.561
64602W        W24347  23.063  43.928  14.938
64603W        W24348   4.325  43.273   0.769
64604W        W24349  43.505  17.600  10.644
64605W        W24350  30.084   1.776  11.416
64606W        W24351  42.942  21.627   2.731
64607W        W24352  43.807  21.056   4.142
64608W        W24353   4.928  34.071  11.501
64609W        W24354  39.846  21.126  12.035
64610W        W24355  33.529  28.496   0.264
64611W        W24356  44.821  27.095  12.866
64612W        W24357  24.676  33.499  13.456
64613W        W24358  13.674   5.853  10.939
64614W        W24359  11.734  44.445  10.572
64615W        W24360  10.230  14.146   9.973
64616W        W24361  39.857  11.316   1.786
64617W        W24362   0.296  13.175  13.461
64618W        W24363  25.097  21.182   1.696
64619W        W24364   0.983  43.489  13.002
64620W        W24365  20.229   0.892   3.343
64621W        W24366  41.369  17.102   0.800
64622W        W24367  33.521  19.169   3.216
64623W        W24368  25.605  28.975   0.892
64624W        W24369  22.052  24.674   4.821
64625W        W24370  40.414  42.939  11.113
64626W        W24371  26.080  21.618   2.662
64627W        W24372  12.851  17.087  13.310
64628W        W24373  27.990   6.390  12.992
64629W        W24374   0.900  40.818   4.621
64630W        W24375  20.152  16.729   0.294
64631W        W24376  21.176  13.762   9.945
64632W        W24377  26.699  23.639   5.118
64633W        W24378  32.985  43.793   3.279
64634W        W24379  14.809  13.833  11.594
64635W        W24380  10.824  18.621   2.384
64636W        W24381  35.070   1.852   0.452
64637W        W24382  23.644  12.353  12.963
64638W        W24383  10.323  32.616   4.154
64639W        W24384   9.325  27.532   4.237
64640W        W24385  35.899  34.520  11.041
64641W        W24386   4.222   8.384  11.513
64642W        W24387  34.549  41.303   0.865
64643W        W24388  24.661  15.818   3.264
64644W        W24389   8.299  13.672  12.432
64645W        W24390  38.024  34.117   4.733
64646W        W24391  16.673  15.307   3.783
64647W        W24392  12.732   3.447   0.922
64648W        W24393  35.900  33.899   3.852
64649W        W24394  23.202  30.112   9.978
64650W        W24395  37.418  29.133  12.513
64651W        W24396  17.602  33.106  12.834
64652W        W24397  32.471  24.653   4.206
64653W        W24398   5.818  24.501   2.281
64654W        W24399  21.731  31.037   0.328
64655W        W24400  18.189  35.906  10.937
64656W        W24401  41.363  44.336   4.147
64657W        W24402  29.114  39.038   0.321
64658W        W24403  24.074  22.560   1.722
64659W        W24404  31.622  25.210  14.935
64660W        W24405  44.008  21.025  12.574
64661W        W24406  33.081  24.685   4.302
64662W        W24407  35.563  13.191   3.715
64663W        W24408  12.117  39.816   2.761
64664W        W24409  23.196  36.412  12.458
64665W        W24410   8.760  32.563   1.848
64666W        W24411  32.598  12.717   3.309
64667W        W24412  11.319   7.899   3.665
64668W        W24413  18.063   1.442  11.944
64669W        W24414  35.357  41.025  11.560
64670W        W24415  44.395  27.116   3.791
64671W        W24416  31.024  33.571  14.018
64672W        W24417  21.173   2.315   3.651
64673W        W24418  40.012  19.654   1.778
64674W        W24419  10.799   9.864  14.931
64675W        W24420  14.277   2.448  12.945
64676W        W24421   1.336  32.023   0.475
64677W        W24422  39.931  30.489   3.640
64678W        W24423   2.260  25.674  14.012
64679W        W24424  19.745  21.120   1.419
64680W        W24425  28.580  36.545   4.178
64681W        W24426  40.936  29.619  12.533
64682W        W24427  15.581   4.267  14.914
64683W        W24428  26.001  18.196   2.238
64684W        W24429  37.920  41.376  12.346
64685W        W24430  44.932  25.584  13.064
64686W        W24431  39.963  34.038   2.254
64687W        W24432  19.192  42.456   3.666
64688W        W24433   9.666  14.098   4.240
64689W        W24434  14.134  27.655  10.478
64690W        W24435   5.250  12.684  12.359
64691W        W24436  29.027   8.370  14.408
64692W        W24437  24.698  41.301  13.369
64693W        W24438   9.757   2.803   4.617
64694W        W24439  41.037  24.710   3.297
64695W        W24440  29.505  39.022  14.943
64696W        W24441  20.164  18.160   5.103
64697W        W24442  22.668  12.233   5.303
64698W        W24443  31.943  34.865   3.155
64699W        W24444   8.345   3.348   2.801
64700W        W24445  28.657  33.884  10.469
64701W        W24446  41.985   4.736   4.805
64702W        W24447   4.806  27.578  13.325
64703W        W24448   9.653   4.851  13.999
64704W        W24449  13.683   2.743   3.650
64705W        W24450  16.087  14.835  11.577
64706W        W24451  40.346  24.212  11.497
64707W        W24452   7.714  40.512   5.143
64708W        W24453  11.796  15.654  11.448
64709W        W24454   0.296  14.734   3.821
64710W        W24455  38.398  26.506  14.493
64711W        W24456   5.439  13.177  12.523
64712W        W24457  12.154  44.963  10.937
64713W        W24458  22.747  11.324   0.330
64714W        W24459  40.847  26.018   1.922
64715W        W24460  21.595  30.428   5.220
64716W        W24461  34.881  37.436   2.236
64717W        W24462  34.963  33.617   5.215
64718W        W24463  23.096  23.026   0.895
64719W        W24464   8.370   8.214  13.516
64720W        W24465  21.533  29.514  14.771
64721W        W24466  27.156  34.917  14.777
64722W        W24467   7.347  37.503   4.603
64723W        W24468  21.207  20.247   3.692
64724W        W24469  31.587   9.158  11.465
64725W        W24470  11.675  13.246  10.495
64726W        W24471  39.966   0.406   3.710
64727W        W24472  30.943   1.867   0.954
64728W        W24473  14.278  22.055   0.466
64729W        W24474  12.175   9.373  14.463
64730W        W24475   1.937   1.885   1.767
64731W        W24476  20.193  13.726  11.470
64732W        W24477  29.442  26.662   2.724
64733W        W24478  19.546  32.059  10.907
64734W        W24479  43.282  18.698  13.500
64735W        W24480  21.188  25.499   3.348
64736W        W24481  37.564  22.608  10.908
64737W        W24482  13.804  30.055  10.903
64738W        W24483  32.448   7.786   1.810
64739W        W24484  28.593   7.368   1.333
64740W        W24485  31.647  24.481  12.056
64741W        W24486  20.066   8.363   3.736
64742W        W24487  34.005  26.204   4.265
64743W        W24488   5.854  44.793  10.569
64744W        W24489  28.964  25.592   1.758
64745W        W24490  14.665  38.375   2.200
64746W        W24491  31.409  35.925  10.445
64747W        W24492  30.933  41.938   0.740
64748W        W24493  42.826  44.440   0.404
64749W        W24494  27.093  40.491  14.494
64750W        W24495  14.318  10.680  10.945
64751W        W24496  25.194  25.017   1.367
64752W        W24497  38.003  10.875   2.883
64753W        W24498  35.555  34.582   2.825
64754W        W24499  29.972  39.351   4.160
64755W        W24500  21.182  19.559  12.344
64756W        W24501  12.714  19.777   1.825
64757W        W24502  36.945   1.771  12.537
64758W        W24503  24.999  16.214  10.942
64759W        W24504   4.358   3.346   4.688
64760W        W24505   3.450  15.172  13.035
64761W        W24506   7.410   0.295  12.824
64762W        W24507  36.047  40.800   2.726
64763W        W24508  22.741   4.732  13.374
64764W        W24509  37.007  11.308   4.152
64765W        W24510  15.747  13.752   0.416
64766W        W24511  23.018  12.833  10.125
64767W        W24512  39.918  39.817  10.918
64768W        W24513   7.903  28.543   2.399
64769W        W24514  13.239  26.152  10.513
64770W        W24515  13.251  16.151   4.764
64771W        W24516  37.839  30.939   4.137
64772W        W24517  19.087   1.977  14.510
64773W        W24518   7.316  20.080  13.526
64774W        W24519  42.485  24.522   1.721
64775W        W24520  39.846  28.182   3.757
64776W        W24521  32.474  44.323  11.482
64777W        W24522  29.588  15.623  13.903
64778W        W24523  27.007  13.286  14.874
64779W        W24524  14.660  29.488  13.894
64780W        W24525  25.163   8.812  14.826
64781W        W24526  16.643   2.381   2.731
64782W        W24527  36.986  40.877   1.869
64783W        W24528  38.459   5.352   1.927
64784W        W24529  26.525  12.210   3.320
64785W        W24530  18.614  28.487  13.475
64786W        W24531  28.101   5.421  11.984
64787W        W24532  13.704   4.250  10.440
64788W        W24533  40.399  19.692  11.934
64789W        W24534  44.329   9.873   0.268
64790W        W24535   6.271   2.764  14.488
64791W        W24536  26.527  22.222  12.448
64792W        W24537  43.871  21.668   2.358
64793W        W24538  10.259   4.217   3.256
64794W        W24539  17.571   7.874   1.763
64795W        W24540  21.742   5.831   3.813
64796W        W24541   8.850  18.105   3.159
64797W        W24542  12.718   2.385  13.950
64798W        W24543   2.325  12.177  11.499
64799W        W24544  29.108  20.740  11.419
64800W        W24545  36.879  17.226  11.610
64801W        W24546  27.167   4.224   1.445
64802W        W24547  12.266  26.981  10.411
64803W        W24548  22.625  23.115   0.875
64804W        W24549  11.156  15.695  11.935
64805W        W24550  24.500  28.571  13.910
64806W        W24551   9.644  43.858  11.100
64807W        W24552  20.762  21.072   2.725
64808W        W24553  31.455  11.651   0.902
64809W        W24554  22.667  24.134  14.936
64810W        W24555  22.590   7.749  14.414
64811W        W24556   7.792  33.511   3.348
64812W        W24557  38.044  24.587  12.883
64813W        W24558  20.662  17.205  10.918
64814W        W24559  10.740  23.079  10.497
64815W        W24560   1.256  20.150  14.787
64816W        W24561  44.972  42.379   1.697
64817W        W24562  28.991  39.553   1.737
64818W        W24563  11.229   3.244   1.716
64819W        W24564  18.183  11.772   0.752
64820W        W24565  40.534  34.423  14.444
64821W        W24566  30.537  27.574  14.290
64822W        W24567  16.193  22.632   2.179
64823W        W24568  30.423  36.413   0.301
64824W        W24569   6.843  16.684   1.226
64825W        W24570  33.469  19.569   9.641
64826W        W24571   7.405  20.552  12.369
64827W        W24572  22.595  43.318   2.363
64828W        W24573  14.711  17.202   1.743
64829W        W24574  24.649  13.790   5.682
64830W        W24575  17.755  35.546  14.496
64831W        W24576  41.446   9.767  11.553
64832W        W24577  17.138  26.961  13.032
64833W        W24578  28.974   3.261   2.791
64834W        W24579   7.375   5.349  12.509
64835W        W24580  23.106   1.265  11.515
64836W        W24581   3.746  13.183  14.011
64837W        W24582  32.103  10.699  12.574
64838W        W24583  23.065  17.179  14.871
64839W        W24584  25.111  42.518  14.785
64840W        W24585   6.264  12.730  10.938
64841W        W24586  41.309  25.710   1.316
64842W        W24587  43.805   9.736  12.439
64843W        W24588  10.758  37.394  12.848
64844W        W24589  14.318   3.787   0.454
64845W        W24590  36.003  13.305   4.331
64846W        W24591  16.072  17.706  13.406
64847W        W24592  36.886  36.499   2.269
64848W        W24593  31.039  35.923  13.925
64849W        W24594  32.566   7.235   2.665
64850W        W24595  10.694  20.236  13.985
64851W        W24596  36.351  21.628   3.850
64852W        W24597   0.845  41.534  14.933
64853W        W24598  26.076   6.365  13.815
64854W        W24599   0.483   9.209  11.398
64855W        W24600  17.077  33.436   1.439
64856W        W24601  41.019  11.832   3.159
64857W        W24602  27.154  32.067  10.925
64858W        W24603  29.541   1.298   4.833
64859W        W24604  26.467  10.258  12.085
64860W        W24605   9.380  37.472   1.293
64861W        W24606   6.289  42.855   1.917
64862W        W24607  21.086  19.600   3.345
64863W        W24608  26.527   0.322   3.357
64864W        W24609   7.748  30.444  10.436
64865W        W24610  15.683  36.036  13.412
64866W        W24611   5.877  16.172  12.450
64867W        W24612  29.135  26.691  14.496
64868W        W24613   7.237  37.951   4.657
64869W        W24614  35.541  25.210  11.390
64870W        W24615   5.276   6.389   1.750
64871W        W24616   3.842  42.936  13.418
64872W        W24617  39.539  21.697  13.351
64873W        W24618  39.001  34.570  11.948
64874W        W24619  35.536  12.626   3.845
64875W        W24620  26.610  25.117  13.324
64876W        W24621  25.204  38.876  11.404
64877W        W24622  22.996  12.247   0.310
64878W        W24623  32.079   4.931   0.270
64879W        W24624  18.648  12.130  10.515
64880W        W24625  28.567  31.114  13.321
64881W        W24626   7.729  13.752   2.293
64882W        W24627   0.275  38.914   3.340
64883W        W24628  40.893   2.282   2.318
64884W        W24629  20.164   6.868   1.359
64885W        W24630   7.798  42.983   1.212
64886W        W24631   2.436   5.838   1.713
64887W        W24632  43.021  44.960   0.850
64888W        W24633  23.540   3.394   4.298
64889W        W24634  39.846  26.521  11.403
64890W        W24635   2.341  26.494   4.776
64891W        W24636  25.970   3.445  10.890
64892W        W24637   6.182  16.605  11.094
64893W        W24638  16.270  21.592   3.265
64894W        W24639  11.178   1.369   0.759
64895W        W24640  44.817   1.860  12.456
64896W        W24641  17.644   4.798  14.417
64897W        W24642  30.020  18.092  11.974
64898W        W24643   1.354  32.027  14.419
64899W        W24644  17.241  18.217  12.858
64900W        W24645  34.501   0.251   0.361
64901W        W24646  11.664   4.268  10.956
64902W        W24647  16.271  21.035   3.321
64903W        W24648   7.238   2.266   4.251
64904W        W24649  20.591  21.582   2.320
64905W        W24650  40.916   3.458  12.530
64906W        W24651  35.037   9.166  14.934
64907W        W24652  38.988  15.686   5.084
64908W        W24653  13.250  21.256   4.689
64909W        W24654  10.342  15.204   3.153
64910W        W24655  29.150  44.832   3.192
64911W        W24656  39.518  37.456   1.849
64912W        W24657  21.733  37.006   3.192
64913W        W24658  38.069  31.422  12.475
64914W        W24659  37.444  29.641  13.464
64915W        W24660  15.185  34.446   2.716
64916W        W24661  37.523  27.180   1.709
64917W        W24662  25.600   1.849  12.056
64918W        W24663  24.676   0.900  14.826
64919W        W24664   0.368   0.986   0.247
64920W        W24665  36.851  41.847   1.714
64921W        W24666  34.533  11.828  14.765
64922W        W24667   9.160  19.587   1.449
64923W        W24668  29.987  10.719   3.849
64924W        W24669  31.939  27.963  11.113
64925W        W24670  26.526  32.015  10.994
64926W        W24671  29.644  15.630   1.866
64927W        W24672  20.257  24.127  11.966
64928W        W24673  19.154  39.452  12.883
64929W        W24674  43.840  13.140  10.420
64930W        W24675  13.127  24.042  14.366
64931W        W24676  36.015  26.131   3.802
64932W        W24677   7.201   3.781   3.685
64933W        W24678  37.945  32.523   3.677
64934W        W24679  26.458   3.828  14.911
64935W        W24680  29.115  44.396   4.799
64936W        W24681  13.846  20.139   2.777
64937W        W24682  37.457  10.829   2.897
64938W        W24683  17.148  43.408  14.979
64939W        W24684  43.819  40.947   0.813
64940W        W24685   2.748  28.147   1.359
64941W        W24686   1.355  12.244  14.782
64942W        W24687  32.557   5.203  10.569
64943W        W24688  35.929  23.625   0.471
64944W        W24689  24.544  29.556  14.938
64945W        W24690  27.536  44.330   3.223
64946W        W24691  13.656  17.778  11.001
64947W        W24692  40.489   4.378  14.777
64948W        W24693   2.370  28.172  13.994
64949W        W24694  22.098  44.355  10.145
64950W        W24695  37.347  28.450   3.654
64951W        W24696  26.693   9.331  12.468
64952W        W24697   6.752  36.582   3.356
64953W        W24698  30.050  19.570  14.345
64954W        W24699  43.304  37.494   4.768
64955W        W24700  35.055  23.094   0.951
64956W        W24701  22.641  23.543   2.195
64957W        W24702  12.649  36.979   2.419
64958W        W24703  41.889  10.164  13.021
64959W        W24704  42.321  41.037  13.954
64960W        W24705  18.591   4.309   1.391
64961W        W24706  44.445  20.137   4.764
64962W        W24707  26.040   0.743   4.126
64963W        W24708   3.410  19.580  13.307
64964W        W24709  26.557  29.918  12.397
64965W        W24710   6.353  28.520  10.539
64966W        W24711  13.769  13.315  13.548
64967W        W24712  11.767   0.394  13.880
64968W        W24713  23.216  40.394  14.311
64969W        W24714  35.916  42.453   1.320
64970W        W24715  11.174  24.992   3.726
64971W        W24716  42.914  31.633  13.030
64972W        W24717   8.669  22.706  13.972
64973W        W24718  28.107   6.836  14.504
64974W        W24719  18.228   9.356   4.769
64975W        W24720  38.043  14.655  10.600
64976W        W24721   1.896  34.379   1.883
64977W        W24722  15.145  25.118  14.410
64978W        W24723  27.632   4.774  13.032
64979W        W24724  19.722  26.980   4.799
64980W        W24725  38.406  22.140  14.979
64981W        W24726  14.228  15.762  13.378
64982W        W24727   1.967  32.394   3.737
64983W        W24728   3.908  19.105  14.976
64984W        W24729   5.888  40.818   0.327
64985W        W24730  37.997  18.674  12.533
64986W        W24731  34.369  42.437   0.961
64987W        W24732  30.960  10.680   0.444
64988W        W24733  25.022  21.620   3.341
64989W        W24734   0.861   6.910   1.774
64990W        W24735  43.293  12.727  14.339
64991W        W24736  38.933   4.850  14.769
64992W        W24737  29.465  29.523  12.841
64993W        W24738  44.366  38.449  12.966
64994W        W24739  12.233  29.615   0.768
64995W        W24740  42.477  27.582   4.815
64996W        W24741  41.958   2.305  11.531
64997W        W24742  21.523  28.591  10.933
64998W        W24743  27.525  22.162   0.873
64999W        W24744   9.725  35.102   4.322
65000W        W24745  28.569  27.093   2.184
65001W        W24746  41.906  26.135   2.789
65002W        W24747  35.521  10.792  14.020
65003W        W24748  11.750  18.093  10.995
65004W        W24749  33.121   3.256   2.665
65005W        W24750  30.147  20.144   0.841
65006W        W24751   4.785  31.942  10.993
65007W        W24752  16.315  10.803   0.899
65008W        W24753  21.226  36.020  12.578
65009W        W24754  39.498   3.896  12.004
65010W        W24755  20.035  31.896   2.789
65011W        W24756   3.222  43.012  11.561
65012W        W24757  14.212   6.756   2.274
65013W        W24758  41.411   5.724   1.358
65014W        W24759   7.864  14.331  11.958
65015W        W24760   4.715  10.772  13.367
65016W        W24761  22.692  41.034  12.532
65017W        W24762  34.512  21.217   3.296
65018W        W24763  18.789  13.841  10.620
65019W        W24764  19.536   8.178  13.849
65020W        W24765  10.209  32.095  10.053
65021W        W24766  19.202  12.727  12.074
65022W        W24767   3.250   9.810  12.971
65023W        W24768  13.126   9.651  12.990
65024W        W24769  31.490  30.065  14.785
65025W        W24770  36.370  10.674  10.944
65026W        W24771  31.519  27.682   4.317
65027W        W24772  26.957   1.330   0.742
65028W        W24773  23.121  22.543   0.881
65029W        W24774  29.046  19.091   2.387
65030W        W24775  40.541  36.053   4.268
65031W        W24776  38.927  11.152   0.910
65032W        W24777  21.569   4.348  10.905
65033W        W24778  37.862  14.742  13.541
65034W        W24779  20.053   2.914  12.085
65035W        W24780  14.160   2.743  11.418
65036W        W24781   2.725  39.470  12.072
65037W        W24782  18.114   2.869  11.017
65038W        W24783  26.489  16.216   4.323
65039W        W24784  21.160  33.974  11.384
65040W        W24785  35.390  14.288  13.059
65041W        W24786   3.311  29.466  11.584
65042W        W24787   6.791  13.323  14.961
65043W        W24788  22.230  41.342   3.301
65044W        W24789  28.572  11.626   4.836
65045W        W24790   6.427   6.336  11.115
65046W        W24791  13.663  37.874   9.534
65047W        W24792  17.719  31.524   3.845
65048W        W24793  21.694  11.807   1.933
65049W        W24794   7.817  37.003   4.338
65050W        W24795   6.183  23.509  13.528
65051W        W24796  10.830  21.536  14.294
65052W        W24797  22.553  39.033   4.668
65053W        W24798   4.445   7.904  12.856
65054W        W24799   7.716  27.636   4.223
65055W        W24800  14.665   6.359   5.171
65056W        W24801  24.530   4.764  11.897
65057W        W24802  42.908  37.362   3.753
65058W        W24803  16.762   8.172   4.292
65059W        W24804  16.594  10.146   0.383
65060W        W24805   2.814  20.609   2.673
65061W        W24806  16.803  22.172  12.346
65062W        W24807  40.545   6.879   1.886
65063W        W24808  16.108   2.895   0.871
65064W        W24809   2.287  39.497   4.755
65065W        W24810   2.889  13.128  12.873
65066W        W24811  33.597  19.573  10.517
65067W        W24812  20.713  22.244  11.538
65068W        W24813  23.678  30.933  12.518
65069W        W24814   6.422  44.788  14.907
65070W        W24815  13.347  40.429   1.449
65071W        W24816  42.329   9.877  11.863
65072W        W24817  16.771  41.792   2.402
65073W        W24818  35.015  21.557  13.958
65074W        W24819  22.031  34.882   2.256
65075W        W24820  35.099  17.146  14.951
65076W        W24821  33.491  41.012  14.491
65077W        W24822  29.128   4.372   9.944
65078W        W24823   5.389  23.028  10.926
65079W        W24824  35.941  43.471   4.721
65080W        W24825  21.674  44.779  10.464
65081W        W24826  12.175  43.493   2.418
65082W        W24827  39.885  35.028  11.410
65083W        W24828  38.027  29.045  13.998
65084W        W24829  22.586  20.754  11.876
65085W        W24830  35.068  26.100   2.753
65086W        W24831  24.171   5.224   1.357
65087W        W24832  44.831  13.646   2.279
65088W        W24833  12.278  27.195   0.839
65089W        W24834   9.815  30.475  13.427
65090W        W24835  25.520  20.639   4.826
65091W        W24836  29.992  38.039  11.439
65092W        W24837  30.559   6.225  12.025
65093W        W24838  31.095  41.439  10.093
65094W        W24839  26.189  19.645  14.935
65095W        W24840  20.202  41.953   4.323
65096W        W24841  25.574  33.883   0.804
65097W        W24842  38.452  33.625   2.234
65098W        W24843  12.252  20.749   0.960
65099W        W24844   8.378  40.993   0.776
65100W        W24845  15.248   5.354   2.899
65101W        W24846  40.458  34.969  13.059
65102W        W24847  33.561   3.435  13.495
65103W        W24848  12.799  14.789  11.571
65104W        W24849   4.945   8.241  10.465
65105W        W24850  32.125  43.857   0.441
65106W        W24851  17.798  17.290   2.213
65107W        W24852  14.736   8.722  14.456
65108W        W24853  35.103  35.938  11.509
65109W        W24854  30.508   9.842  14.939
65110W        W24855  19.699  14.778  10.042
65111W        W24856   2.778  28.132   2.847
65112W        W24857  38.831  35.895   2.824
65113W        W24858  44.470  16.587  10.051
65114W        W24859  26.553  26.002   2.731
65115W        W24860   2.438   5.808  10.609
65116W        W24861  16.572  41.395  12.912
65117W        W24862   4.760   8.217   4.174
65118W        W24863  13.720  12.119   2.877
65119W        W24864   2.865  18.576   3.203
65120W        W24865  12.227  19.656  13.380
65121W        W24866  25.468  29.959   3.173
65122W        W24867   4.236  44.463   2.701
65123W        W24868  23.127  24.589  14.281
65124W        W24869  10.774  11.143  13.380
65125W        W24870   2.383  27.149   1.281
65126W        W24871  43.475  30.495  11.013
65127W        W24872  16.697  39.487  14.470
65128W        W24873  28.121   3.395  13.950
65129W        W24874  38.561  21.552   4.268
65130W        W24875  34.019  44.893  14.951
65131W        W24876   6.184   6.735  12.012
65132W        W24877   5.327  24.587  11.857
65133W        W24878  12.699   0.812  13.809
65134W        W24879  15.588  30.945  10.612
65135W        W24880  12.287  32.618   1.767
65136W        W24881  43.781  18.215   1.276
65137W        W24882   5.407  33.958  12.465
65138W        W24883   5.859  32.589  13.052
65139W        W24884   6.877  18.220  12.092
65140W        W24885  17.589  10.703   2.790
65141W        W24886  31.119   2.953   4.283
65142W        W24887  23.647   8.202   2.675
65143W        W24888  35.482  28.048  14.384
65144W        W24889  27.072  32.027   1.374
65145W        W24890  40.532  22.230  11.423
65146W        W24891  24.552   8.704   0.281
65147W        W24892  30.946  16.656  12.404
65148W        W24893  24.578  10.380   2.882
65149W        W24894  12.162  29.523  10.521
65150W        W24895  22.705  25.994  12.416
65151W        W24896  16.568  30.077  10.906
65152W        W24897  33.521   4.328   1.275
65153W        W24898  10.188  38.346   3.643
65154W        W24899  34.117  41.812   1.897
65155W        W24900  29.600  37.906  11.868
65156W        W24901  33.000  32.048   2.254
65157W        W24902   4.265  24.710  12.550
65158W        W24903  12.823  44.324   2.756
65159W        W24904  32.537  22.141   4.210
65160W        W24905  21.215  13.153   3.283
65161W        W24906  37.037  43.416  11.565
65162W        W24907   8.671  31.440  10.617
65163W        W24908   2.309  19.741   2.400
65164W        W24909  11.659  10.685  10.461
65165W        W24910  16.156  40.464   3.796
65166W        W24911  28.139   6.357   2.258
65167W        W24912   6.326  38.825   1.434
65168W        W24913  31.107  32.995   4.821
65169W        W24914  20.536  15.110   4.838
65170W        W24915   8.325   5.331   2.280
65171W        W24916  29.994   2.271   1.924
65172W        W24917  16.310  34.935   3.325
65173W        W24918  31.434   0.444   1.425
65174W        W24919  23.097  17.735   0.443
65175W        W24920   3.726  25.531  14.926
65176W        W24921  33.509   9.669  14.854
65177W        W24922   6.275  34.984   3.672
65178W        W24923  41.343  23.053   4.687
65179W        W24924  27.007  25.180  12.076
65180W        W24925   1.787  13.659  14.878
65181W        W24926  43.793   7.875  10.413
65182W        W24927  27.157  22.217   3.260
65183W        W24928  30.628  33.425  12.997
65184W        W24929  34.870   3.255  14.491
65185W        W24930  18.097  33.053  12.451
65186W        W24931  21.552  41.456   4.793
65187W        W24932  42.518   9.668   1.882
65188W        W24933   1.275  23.140   4.760
65189W        W24934  32.001  13.782  12.462
65190W        W24935   0.426  11.190  11.521
65191W        W24936  26.665  40.814  13.387
65192W        W24937  25.092   6.355  14.851
65193W        W24938  27.074  39.505  12.553
65194W        W24939  28.492  38.888   0.770
65195W        W24940   1.423  11.685   2.212
65196W        W24941   2.353  37.498  12.838
65197W        W24942   6.312  34.933   2.746
65198W        W24943   2.457  33.611   1.834
65199W        W24944   4.304  37.905  10.888
65200W        W24945  34.565   0.259   2.329
65201W        W24946  24.482  34.514   4.679
65202W        W24947  10.798  12.679   0.919
65203W        W24948  29.439  26.144  10.419
65204W        W24949  37.552  23.644  13.800
65205W        W24950  43.777  37.458   2.388
65206W        W24951  22.538  24.051   1.820
65207W        W24952  26.076  12.179  12.448
65208W        W24953   6.680  22.645  13.859
65209W        W24954  14.698  16.077   0.256
65210W        W24955  37.502  27.095   3.269
65211W        W24956  42.929  33.047   4.766
65212W        W24957  27.056  28.589   4.741
65213W        W24958  36.906  39.369  10.641
65214W        W24959  14.300  44.986  11.117
65215W        W24960  42.295  12.641  13.799
65216W        W24961  26.135  42.829   4.792
65217W        W24962  30.436   5.210  13.913
65218W        W24963  26.180  25.080   4.219
65219W        W24964  41.991  34.550  13.431
65220W        W24965  34.074  13.647   4.189
65221W        W24966  13.707  35.582   0.790
65222W        W24967   8.690  30.515  14.948
65223W        W24968  44.294  28.525  10.480
65224W        W24969   5.310  25.195  11.522
65225W        W24970  35.958  40.332   1.348
65226W        W24971  29.104  21.216  14.436
65227W        W24972  16.708  15.777  10.502
65228W        W24973  26.488  16.703   1.914
65229W        W24974  17.188  23.125  12.916
65230W        W24975  27.574  22.521   2.267
65231W        W24976  44.397   5.782   2.370
65232W        W24977  40.919  23.181  11.001
65233W        W24978  10.867  28.570   2.213
65234W        W24979  20.697  13.806   1.325
65235W        W24980  43.804  27.123  11.950
65236W        W24981  12.807   4.706  11.089
65237W        W24982  39.324  40.801   4.800
65238W        W24983  41.002  44.914  13.942
65239W        W24984  11.677  30.047   4.746
65240W        W24985  18.701  40.872  10.435
65241W        W24986  39.897  19.589   3.210
65242W        W24987   7.310  41.471   3.267
65243W        W24988  38.388  36.883  11.070
65244W        W24989  38.552   9.380  11.059
65245W        W24990  15.125  25.082  13.478
65246W        W24991  44.366  14.231  14.963
65247W        W24992   3.850  41.525   4.602
65248W        W24993  32.928   4.388   0.441
65249W        W24994  42.002  22.556   4.648
65250W        W24995  15.281   6.835  13.014
65251W        W24996   0.400  34.026   3.216
65252W        W24997  16.193  14.679   1.748
65253W        W24998  44.855  39.534   4.327
65254W        W24999  34.059  44.913   3.268
65255W        W25000   3.380  21.564   1.261
65256W        W25001  35.381  25.544   1.744
65257W        W25002   1.775  35.452   3.757
65258W        W25003  36.967  23.004  12.423
65259W        W25004   4.871  13.185  14.385
65260W        W25005   3.767  31.494   0.938
65261W        W25006  29.932  18.741  14.328
65262W        W25007   7.281  32.492   4.651
65263W        W25008  21.716  25.687  10.422
65264W        W25009  20.753  34.920   4.709
65265W        W25010  43.382  33.401   2.230
65266W        W25011  41.360  33.892   3.322
65267W        W25012  10.766  36.408   1.344
65268W        W25013   0.322   8.871  12.427
65269W        W25014  11.264  16.227   0.473
65270W        W25015   4.937  13.768   4.658
65271W        W25016  36.014   4.918  10.509
65272W        W25017  24.039  21.126   5.097
65273W        W25018   9.293  43.347  11.925
65274W        W25019   5.903  29.003   3.366
65275W        W25020  35.383  15.811  12.849
65276W        W25021  17.263  17.269  13.511
65277W        W25022  30.053  25.170   0.294
65278W        W25023  42.845  38.407  12.437
65279W        W25024  23.084  12.230  10.572
65280W        W25025   0.908  22.192   0.392
65281W        W25026  18.698  23.554  14.470
65282W        W25027   5.328  25.064  12.953
65283W        W25028   3.903  13.114  10.933
65284W        W25029   2.861  14.147  13.403
65285W        W25030   9.348  28.673  11.993
65286W        W25031   0.387  28.509   1.889
65287W        W25032  15.697  17.191  14.470
65288W        W25033  27.147   4.906   4.630
65289W        W25034  30.477  39.985  11.440
65290W        W25035   8.779  36.587   4.164
65291W        W25036  16.742  37.000   0.881
65292W        W25037   7.194  23.733  11.904
65293W        W25038  42.295  16.714   0.890
65294W        W25039  40.353  10.798   1.333
65295W        W25040   6.387  13.813   1.702
65296W        W25041   9.213  33.397  11.121
65297W        W25042  14.835  30.654   4.122
65298W        W25043  16.809  13.260   1.414
65299W        W25044   2.236  44.830   2.858
65300W        W25045  37.367  34.458   1.883
65301W        W25046   0.334   0.481  12.360
65302W        W25047  28.059  37.951  10.549
65303W        W25048  19.215   6.923  12.370
65304W        W25049   7.784  27.031   0.316
65305W        W25050  41.484   1.276  12.454
65306W        W25051  12.748  14.675   2.344
65307W        W25052  44.932  30.087   0.291
65308W        W25053   6.385  35.594  12.090
65309W        W25054  27.183  10.198  12.956
65310W        W25055  12.198  36.581   3.784
65311W        W25056  14.672  25.152   1.362
65312W        W25057  11.738  29.601   0.779
65313W        W25058   1.961  15.099   2.854
65314W        W25059  10.804  24.718   4.797
65315W        W25060  14.684  12.327   2.698
65316W        W25061  31.542   8.323   2.269
65317W        W25062  40.857   9.226  14.777
65318W        W25063  27.149  36.876  11.016
65319W        W25064  43.939  31.554  11.967
65320W        W25065  18.594  39.447   1.292
65321W        W25066  15.221  22.056   0.937
65322W        W25067  18.155  43.431  11.017
65323W        W25068  43.274  38.912  13.370
65324W        W25069  34.946  30.111   3.718
65325W        W25070  32.517  34.415  13.793
65326W        W25071  36.473   5.821   3.161
65327W        W25072   7.270  27.629  12.907
65328W        W25073   3.456  30.018   9.470
65329W        W25074  41.985  30.551   4.205
65330W        W25075  41.856  33.626  14.774
65331W        W25076   2.426  13.605   3.860
65332W        W25077  11.680  22.528  12.827
65333W        W25078  27.051  18.112   2.687
65334W        W25079  22.560  20.207   1.720
65335W        W25080  15.669  32.043   0.920
65336W        W25081   0.915   9.690  11.943
65337W        W25082   6.342   9.800  14.955
65338W        W25083  13.349  14.832   3.282
65339W        W25084  44.497  31.927  12.084
65340W        W25085  15.189   6.761  12.520
65341W        W25086   0.300   7.350   2.208
65342W        W25087  15.162   8.674  11.375
65343W        W25088  38.932   6.314  13.468
65344W        W25089  37.552  24.170  12.541
65345W        W25090   4.370  37.994  10.628
65346W        W25091  20.649  32.012   3.826
65347W        W25092  22.116  15.305   2.289
65348W        W25093  10.214  35.417   4.213
65349W        W25094  25.117  43.836   1.898
65350W        W25095  15.222  36.376  14.872
65351W        W25096   0.425  31.621   5.093
65352W        W25097  42.519  40.409  11.919
65353W        W25098  21.689  39.359  13.998
65354W        W25099  42.850  18.097  12.924
65355W        W25100  16.213  28.625  11.437
65356W        W25101   5.352  25.661   3.713
65357W        W25102  18.559   4.235  11.074
65358W        W25103   9.297  20.174   2.200
65359W        W25104  15.658   9.825   1.790
65360W        W25105   3.900  10.702   0.747
65361W        W25106  19.723  43.817  11.567
65362W        W25107   9.169  40.017   1.818
65363W        W25108  23.690  36.535   0.373
65364W        W25109   7.187  32.061  13.871
65365W        W25110   0.455  29.533  11.602
65366W        W25111  38.999  29.528   4.744
65367W        W25112  40.979  19.158  11.386
65368W        W25113  24.992  44.384  12.446
65369W        W25114   7.334  17.161   3.357
65370W        W25115  16.272  35.982  13.523
65371W        W25116  20.563  36.505   2.218
65372W        W25117  43.344  39.397   3.313
65373W        W25118  26.089  38.505   2.243
65374W        W25119  39.006  22.519  14.298
65375W        W25120  24.102  28.475   3.769
65376W        W25121   6.319  38.020   3.288
65377W        W25122  27.527  13.128   3.297
65378W        W25123   2.351  18.214   4.152
65379W        W25124  36.969  28.589   3.787
65380W        W25125  21.571   3.807  11.453
65381W        W25126   6.918  31.411   0.905
65382W        W25127  20.527  26.524   0.372
65383W        W25128  21.057  36.011   0.932
65384W        W25129  21.582  10.861   3.826
65385W        W25130  40.319  43.764  11.468
65386W        W25131  12.229  14.703  13.983
65387W        W25132  33.130  37.354   1.327
65388W        W25133  11.644  20.199  10.456
65389W        W25134  12.783  19.166  14.935
65390W        W25135  34.415   0.756   4.667
65391W        W25136  29.120  42.502   3.200
65392W        W25137  39.001   1.433  10.516
65393W        W25138   7.350  18.141  11.434
65394W        W25139  42.376  30.000  12.984
65395W        W25140  17.128  29.136  11.375
65396W        W25141  18.124  36.955   3.185
65397W        W25142  37.406   0.422  14.950
65398W        W25143  35.568  11.331   3.634
65399W        W25144   8.173  24.152  11.560
65400W        W25145  14.639   7.678   4.682
65401W        W25146  35.532  29.438   0.285
65402W        W25147  25.007   0.484   1.708
65403W        W25148  29.025  12.336   3.246
65404W        W25149  33.558  24.148  11.526
65405W        W25150  30.502  15.278   2.673
65406W        W25151  43.814   8.760   4.614
65407W        W25152  34.940  33.621  14.926
65408W        W25153  24.647  23.725   2.217
65409W        W25154  27.980  32.959  11.013
65410W        W25155   6.799  36.898   1.450
65411W        W25156   9.265  25.134   5.156
65412W        W25157  18.256  35.024   3.156
65413W        W25158  21.729  41.993  13.934
65414W        W25159  22.504  29.549  13.849
65415W        W25160  27.067  44.479   2.794
65416W        W25161   6.270  19.136  13.899
65417W        W25162  17.168   0.854  11.551
65418W        W25163  35.371  33.099  11.986
65419W        W25164  35.482   5.842  10.405
65420W        W25165  36.880  17.303  11.076
65421W        W25166  10.809  32.549   1.860
65422W        W25167  28.631  21.028  11.978
65423W        W25168  11.153  36.579  14.476
65424W        W25169  15.269  36.517   5.164
65425W        W25170   1.888  30.027  13.874
65426W        W25171  35.543   3.409   0.387
65427W        W25172  34.457  18.156   3.656
65428W        W25173  28.145  37.541   5.287
65429W        W25174   6.337  12.739   0.963
65430W        W25175  31.641   2.778   4.167
65431W        W25176  39.953  25.673  12.963
65432W        W25177  36.518  37.867   0.469
65433W        W25178  18.106  19.098  13.309
65434W        W25179  28.602   5.795  13.008
65435W        W25180  30.616   7.872   3.315
65436W        W25181  39.537  32.071  13.986
65437W        W25182   3.834  31.008   3.274
65438W        W25183  27.569  44.279   0.825
65439W        W25184  43.428  34.920  13.914
65440W        W25185  41.300  16.692  11.505
65441W        W25186  19.213  33.044   0.337
65442W        W25187  32.547   6.420  12.080
65443W        W25188  39.373   4.335  12.008
65444W        W25189  21.618   2.794   1.328
65445W        W25190  22.655  15.658   0.907
65446W        W25191  43.493  36.865  12.964
65447W        W25192  30.099  12.224  13.391
65448W        W25193  30.483  37.552   0.279
65449W        W25194  38.878   1.888   3.317
65450W        W25195  11.824  32.920  13.871
65451W        W25196  18.060   6.694  14.758
65452W        W25197  10.148  16.670   2.663
65453W        W25198  37.935  24.152   4.169
65454W        W25199  33.895  39.054   4.675
65455W        W25200  16.739   2.263   1.781
65456W        W25201  22.238  15.314   3.269
65457W        W25202   2.734   4.313   4.336
65458W        W25203  23.033  21.547   2.325
65459W        W25204  20.546   0.813   1.319
65460W        W25205  11.748  11.193   4.663
65461W        W25206   8.897   5.887  10.491
65462W        W25207  21.121  13.692  11.471
65463W        W25208  33.400  11.214   0.762
65464W        W25209  24.009  16.215   3.385
65465W        W25210  10.187  34.968   2.804
65466W        W25211  36.089  10.825  14.774
65467W        W25212  26.696   2.744   3.755
65468W        W25213  36.913  13.177  11.603
65469W        W25214  13.844  20.029   4.271
65470W        W25215  12.258  33.901  14.296
65471W        W25216  12.173  21.614   2.698
65472W        W25217  19.631  20.174   1.882
65473W        W25218  26.648  25.158   1.794
65474W        W25219  36.508  15.278  12.575
65475W        W25220  17.693  13.807  13.822
65476W        W25221  31.622  12.333  13.017
65477W        W25222   9.828  12.806  11.372
65478W        W25223  18.641  44.846  14.765
65479W        W25224  30.923  29.539   1.426
65480W        W25225   5.759  35.358  13.862
65481W        W25226  42.361  13.177  13.515
65482W        W25227  27.995  38.854  10.538
65483W        W25228  44.896  44.811  11.450
65484W        W25229  11.309   4.275   2.330
65485W        W25230   2.823  34.556  14.446
65486W        W25231  41.504  43.969  10.601
65487W        W25232  43.018  40.414   4.658
65488W        W25233   8.354  17.125  11.990
65489W        W25234  18.680  13.826  13.323
65490W        W25235  28.032   4.886   2.229
65491W        W25236  28.661  12.746   1.813
65492W        W25237  42.824  42.796   3.631
65493W        W25238   3.452  10.653   2.399
65494W        W25239  11.791  40.483   3.638
65495W        W25240   5.793  26.495  14.812
65496W        W25241  21.626   8.199  12.947
65497W        W25242  35.025  22.069   1.342
65498W        W25243   9.219   4.715  14.772
65499W        W25244  37.083   2.900  10.973
65500W        W25245  33.931  20.724   4.354
65501W        W25246  41.941   6.266  11.875
65502W        W25247   5.345   4.848  12.896
65503W        W25248  36.849  38.562   0.480
65504W        W25249  14.764  11.252  13.459
65505W        W25250  19.764  36.347   3.168
65506W        W25251  40.309  39.977  11.560
65507W        W25252  24.636  14.600   3.637
65508W        W25253   4.900   1.474  13.008
65509W        W25254  31.984  32.435  14.505
65510W        W25255  36.994  39.046   0.805
65511W        W25256  15.620  29.175   1.221
65512W        W25257   7.818   5.371   0.937
65513W        W25258  19.673   6.222   0.919
65514W        W25259  43.274  24.998  12.968
65515W        W25260   6.385   0.846  10.959
65516W        W25261  23.611   4.420  13.932
65517W        W25262   5.367  19.129  11.122
65518W        W25263  32.551  40.396  14.435
65519W        W25264   8.220   5.732  13.053
65520W        W25265  19.107  10.209   2.348
65521W        W25266  36.059  14.791  12.982
65522W        W25267  29.176   1.781   1.702
65523W        W25268  18.096   9.716   0.760
65524W        W25269  19.056  23.696  12.426
65525W        W25270  38.530  26.040   1.816
65526W        W25271   8.183  35.044  13.994
65527W        W25272  33.461  41.950   0.346
65528W        W25273  33.977   2.797  13.034
65529W        W25274  29.005  10.635   4.694
65530W        W25275  33.590  31.108  14.802
65531W        W25276   8.755  12.190  10.603
65532W        W25277  28.993  18.110   0.788
65533W        W25278  16.709   2.902  12.838
65534W        W25279  14.102  40.975  10.435
65535W        W25280  36.406  36.445   2.678
65536W        W25281  31.498  41.896  13.383
65537W        W25282  40.393  43.464  12.981
65538W        W25283  20.104  17.786  14.312
65539W        W25284  41.830  24.185  14.427
65540W        W25285  10.161  21.532  11.429
65541W        W25286  38.950  24.648   4.811
65542W        W25287   0.949  21.575  11.968
65543W        W25288   9.178  13.295  11.503
65544W        W25289  36.961  17.208   4.155
65545W        W25290  41.961   9.274   4.617
65546W        W25291  36.015  27.553  12.358
65547W        W25292   6.306  14.148  14.922
65548W        W25293  21.247  38.375   0.455
65549W        W25294   9.749  26.173   1.775
65550W        W25295  26.038  10.313   4.802
65551W        W25296  22.195  42.491   3.217
65552W        W25297  35.887  13.230   0.906
65553W        W25298  26.172  28.619  13.902
65554W        W25299  40.366  39.459   3.666
65555W        W25300  22.153  34.917  10.904
65556W        W25301  18.248  30.477   1.760
65557W        W25302   7.836  10.357   5.165
65558W        W25303   3.919  31.026   1.364
65559W        W25304  11.141  30.939   1.867
65560W        W25305   7.403  29.961   4.230
65561W        W25306  19.222  41.377   1.871
65562W        W25307  34.913   7.836   3.842
65563W        W25308  20.692   4.869  12.453
65564W        W25309  37.486  22.113   9.984
65565W        W25310   3.227   9.378  12.496
65566W        W25311  42.924  17.135  10.943
65567W        W25312  28.100  10.747   4.351
65568W        W25313   0.845  23.056  10.941
65569W        W25314  36.549   5.223   1.264
65570W        W25315  44.960  44.989  10.557
65571W        W25316  41.436  34.963   2.803
65572W        W25317  40.930  34.941   2.682
65573W        W25318   2.398  10.831   0.909
65574W        W25319   2.866  21.159   1.435
65575W        W25320  40.991  22.653  13.879
65576W        W25321  20.259  27.991   1.427
65577W        W25322  25.998  37.007   2.682
65578W        W25323  34.505  10.236   0.820
65579W        W25324  41.012  16.763  13.336
65580W        W25325   0.250  27.111  11.962
65581W        W25326  42.998  30.530  13.055
65582W        W25327  23.124  30.126   3.843
65583W        W25328  26.476   4.726   0.812
65584W        W25329  28.954  16.223   2.810
65585W        W25330  26.621  10.722   3.256
65586W        W25331  32.889   5.884   3.369
65587W        W25332   6.806  26.605   0.458
65588W        W25333  23.549   1.450   2.752
65589W        W25334  14.283  34.552  11.512
65590W        W25335   7.880  36.509  10.977
65591W        W25336  23.573  17.269  13.471
65592W        W25337   3.841  14.605   3.802
65593W        W25338   1.797   5.420   3.346
65594W        W25339  21.679  42.001   4.607
65595W        W25340  38.535  40.020   0.797
65596W        W25341  40.448  10.174  14.474
65597W        W25342  35.097  35.451  11.377
65598W        W25343  34.591  33.471   0.290
65599W        W25344  39.913  14.806  13.464
65600W        W25345  31.419   6.897   0.351
65601W        W25346  16.602  15.244  11.100
65602W        W25347  26.502  41.947  11.373
65603W        W25348  37.960   5.930   0.730
65604W        W25349  35.996  29.627   3.858
65605W        W25350   8.297  41.431   3.246
65606W        W25351  16.746  25.681   4.133
65607W        W25352  12.173  17.255  12.480
65608W        W25353  39.941  35.461   4.238
65609W        W25354   5.337  34.562   3.832
65610W        W25355  19.634  39.412  14.342
65611W        W25356  15.763  20.531   2.713
65612W        W25357  11.638   4.340   2.736
65613W        W25358  12.849   5.930  13.479
65614W        W25359  10.197  27.531  12.036
65615W        W25360  40.327  14.741   4.628
65616W        W25361  23.714  34.498   3.229
65617W        W25362  23.671  43.321  11.507
65618W        W25363  22.561  38.948   1.281
65619W        W25364  39.983   9.184   3.182
65620W        W25365   5.859  32.525   4.157
65621W        W25366  11.673  31.446  11.965
65622W        W25367  29.137  44.956   4.732
65623W        W25368  24.705   0.488   4.788
65624W        W25369  12.857  43.401   3.812
65625W        W25370  30.587   6.744  14.340
65626W        W25371  24.691   2.946  10.119
65627W        W25372   5.894  35.962   4.305
65628W        W25373  23.722  14.166  12.063
65629W        W25374  41.012   6.207   2.839
65630W        W25375   9.315  38.352  12.569
65631W        W25376  39.364  40.386  13.364
65632W        W25377  10.371  23.546   1.834
65633W        W25378  19.685  21.587  14.902
65634W        W25379  28.030  28.126   0.869
65635W        W25380  12.312  35.095  14.820
65636W        W25381   7.282  38.437  13.486
65637W        W25382   0.858   4.928   4.203
65638W        W25383  40.901  32.014  14.902
65639W        W25384  18.185  35.982   3.690
65640W        W25385  30.421  27.067  13.482
65641W        W25386  23.054  30.146  12.981
65642W        W25387  24.012  13.767  13.001
65643W        W25388  15.782  43.340   4.203
65644W        W25389   3.751  12.642   9.936
65645W        W25390  43.427  33.527   3.363
65646W        W25391  24.712  43.493  14.767
65647W        W25392   3.803  19.597   4.602
65648W        W25393  19.163  31.633  12.379
65649W        W25394  15.669  31.408   4.703
65650W        W25395   8.712  15.233  12.508
65651W        W25396  41.871   6.791   0.465
65652W        W25397   1.420  29.597  12.567
65653W        W25398   1.750  43.889   0.832
65654W        W25399   7.720  13.248  14.303
65655W        W25400  35.463  32.458  14.913
65656W        W25401  38.050  19.161  12.006
65657W        W25402  29.963  38.901  12.472
65658W        W25403   7.792  15.175  14.983
65659W        W25404  40.813  42.426   0.811
65660W        W25405   1.358  22.190   2.416
65661W        W25406  37.033  10.694  12.880
65662W        W25407  22.582  27.102   0.304
65663W        W25408  26.159  36.967  11.510
65664W        W25409  43.424  12.189   2.241
65665W        W25410  16.666  40.487  12.521
65666W        W25411  30.581   2.790  14.010
65667W        W25412  12.257  37.830   0.812
65668W        W25413  42.447  17.695   2.695
65669W        W25414  23.053  27.518   1.241
65670W        W25415  15.150  39.818  13.378
65671W        W25416   5.736  24.569   2.742
65672W        W25417  11.306   6.256   3.742
65673W        W25418  13.772  25.154  11.081
65674W        W25419  40.389  16.236   0.362
65675W        W25420   7.365  29.477   1.397
65676W        W25421  39.976  27.537  13.503
65677W        W25422  39.809  32.011   4.806
65678W        W25423  15.750  36.891   5.190
65679W        W25424  25.670  21.677  14.859
65680W        W25425  25.637   5.313   0.317
65681W        W25426  14.592   7.695   4.262
65682W        W25427   1.346  42.440  13.418
65683W        W25428  35.586  33.569   3.826
65684W        W25429   1.360  42.814   3.659
65685W        W25430  20.062  26.585  11.934
65686W        W25431  38.923  20.078  10.461
65687W        W25432  21.035   7.185   1.435
65688W        W25433  33.887   2.363   1.697
65689W        W25434  11.312   7.691   1.855
65690W        W25435  13.324  15.814  14.404
65691W        W25436  32.561  12.715  13.451
65692W        W25437  26.051  16.306   3.250
65693W        W25438  30.606  24.564   0.270
65694W        W25439  39.414  27.021   3.212
65695W        W25440  14.200  35.437   3.334
65696W        W25441   6.411  33.520  14.497
65697W        W25442  40.885   8.882  12.858
65698W        W25443  36.976  26.544  14.481
65699W        W25444  27.029  14.780   3.238
65700W        W25445   7.378  29.509  10.550
65701W        W25446  39.017  10.779   0.414
65702W        W25447  39.004  39.557  14.428
65703W        W25448  44.836  38.527   9.969
65704W        W25449  42.428  31.958   4.150
65705W        W25450  31.084  23.664  14.346
65706W        W25451  18.665  10.824  13.479
65707W        W25452  40.498  13.292   3.644
65708W        W25453  10.357  23.607  13.005
65709W        W25454   3.425  14.271   4.310
65710W        W25455  25.165   5.829  14.503
65711W        W25456  31.589  12.300   1.449
65712W        W25457  15.157  19.112  11.985
65713W        W25458   9.707  36.386   0.853
65714W        W25459  26.153  34.430  13.422
65715W        W25460  38.470  37.553   2.342
65716W        W25461  42.795  11.332  14.314
65717W        W25462  28.163  10.682   3.830
65718W        W25463  13.231   3.907  10.532
65719W        W25464  10.741   2.952  14.817
65720W        W25465   1.476  19.615  10.096
65721W        W25466  44.944  18.784  12.956
65722W        W25467  44.891  30.111  12.090
65723W        W25468  22.517  22.250  14.897
65724W        W25469   6.821  43.830   3.287
65725W        W25470  35.886  26.653   0.928
65726W        W25471  27.130  43.998   0.813
65727W        W25472  24.201  32.981  13.947
65728W        W25473   2.396  26.640  14.419
65729W        W25474  10.811  41.396   0.439
65730W        W25475  42.354   0.332  13.048
65731W        W25476  13.615   7.383  10.554
65732W        W25477  32.465  44.959   4.214
65733W        W25478  12.140  12.213   3.147
65734W        W25479  12.209   3.256  11.485
65735W        W25480  20.089  12.680  12.882
65736W        W25481  42.892  21.637   0.912
65737W        W25482  31.117  17.639  11.422
65738W        W25483  24.085  22.242   3.361
65739W        W25484   8.282  22.518  10.462
65740W        W25485  19.653  42.463   3.162
65741W        W25486  38.070  33.436  11.401
65742W        W25487  44.782  21.099  14.845
65743W        W25488  38.022  37.440  11.443
65744W        W25489  19.067  32.587   0.273
65745W        W25490  42.000  38.553  10.626
65746W        W25491  43.390  28.446   4.813
65747W        W25492  18.650  12.769  12.885
65748W        W25493  36.087   7.228   1.818
65749W        W25494  38.028  10.779   4.135
65750W        W25495  41.398  38.563   0.964
65751W        W25496  22.637  10.367  14.899
65752W        W25497   4.297   9.712   1.303
65753W        W25498   6.699  28.614  10.983
65754W        W25499  18.145   0.274   1.774
65755W        W25500  36.899  19.042   1.731
65756W        W25501   8.813  44.978  12.479
65757W        W25502  11.156  22.244   0.897
65758W        W25503  44.461  22.198   1.767
65759W        W25504  32.598  35.437  14.002
65760W        W25505  20.107   9.222  14.935
65761W        W25506  22.035  17.735   0.395
65762W        W25507   6.804  13.343  11.053
65763W        W25508   6.397  25.991  14.838
65764W        W25509   1.978  11.793   0.965
65765W        W25510  17.704  41.350  11.391
65766W        W25511  24.663   3.918  13.841
65767W        W25512  43.327  18.708  12.516
65768W        W25513  39.844   4.854  13.444
65769W        W25514   3.840  24.652  14.486
65770W        W25515  15.085   3.221   5.091
65771W        W25516  22.246   7.678  14.307
65772W        W25517   3.430  15.615  11.569
65773W        W25518  15.747  17.800  11.855
65774W        W25519   4.905  43.443  14.366
65775W        W25520   5.754  36.477   0.757
65776W        W25521   9.872  22.739  13.506
65777W        W25522  31.054   4.283   1.888
65778W        W25523   2.807  12.790  11.888
65779W        W25524  32.131  13.287  12.965
65780W        W25525  12.620  23.579  14.486
65781W        W25526  15.316  31.509  13.352
65782W        W25527  16.186  24.503  12.077
65783W        W25528  26.170  39.552  12.390
65784W        W25529  44.379  28.573   0.332
65785W        W25530  35.859  21.528  11.435
65786W        W25531  15.104   0.766   2.830
65787W        W25532   0.821  31.081  11.418
65788W        W25533  16.778   6.817   1.315
65789W        W25534  33.452  38.493  14.010
65790W        W25535  32.601   5.396  13.490
65791W        W25536  18.216  39.330  14.428
65792W        W25537  15.692   7.395   3.231
65793W        W25538  18.748  42.917   1.792
65794W        W25539  19.589   4.379   2.345
65795W        W25540  38.490  13.246   4.837
65796W        W25541  21.125  30.921  11.435
65797W        W25542  41.356  12.756   3.163
65798W        W25543  21.191  36.414   3.771
65799W        W25544  34.076  22.129  10.467
65800W        W25545  41.893   7.250  12.968
65801W        W25546  30.047  31.564   5.708
65802W        W25547  21.615  24.072  12.499
65803W        W25548  37.571  32.948   4.343
65804W        W25549  10.681  33.981   1.738
65805W        W25550  28.626   9.831  11.592
65806W        W25551  24.121  34.576   1.433
65807W        W25552  27.657  44.954  10.602
65808W        W25553  15.210  19.638  10.546
65809W        W25554  43.346  28.550  10.618
65810W        W25555   6.695  23.532  12.569
65811W        W25556  35.472  34.971  11.056
65812W        W25557  15.313  36.510  12.502
65813W        W25558  15.765  43.833  12.886
65814W        W25559   5.265  29.477  13.325
65815W        W25560  16.291  31.499   2.226
65816W        W25561  24.063  34.905   1.211
65817W        W25562  19.692  35.495   3.218
65818W        W25563  24.071   7.198  14.377
65819W        W25564   7.761   7.307  14.814
65820W        W25565  13.718  26.093  11.862
65821W        W25566  32.627  23.090  14.962
65822W        W25567   6.903   0.920  12.063
65823W        W25568  17.676  21.682   4.326
65824W        W25569  39.440  23.671   1.785
65825W        W25570   4.256   1.374  10.920
65826W        W25571  40.521  18.208   3.670
65827W        W25572  40.417  42.781  13.418
65828W        W25573  33.587  10.708   2.867
65829W        W25574   5.729  18.159  14.894
65830W        W25575  38.410  30.942  10.608
65831W        W25576   9.211   3.281   0.242
65832W        W25577   4.249  34.978   1.778
65833W        W25578  11.185   9.748   1.274
65834W        W25579  15.695   7.891   4.686
65835W        W25580  18.078  32.134   1.390
65836W        W25581   5.782  21.017  13.537
65837W        W25582  12.265   6.228  14.806
65838W        W25583  30.467   5.844  14.289
65839W        W25584  37.014   6.782  14.960
65840W        W25585  30.914  29.149  11.513
65841W        W25586  37.854   2.799   1.914
65842W        W25587  37.526  29.993   4.666
65843W        W25588   6.921  30.537   4.829
65844W        W25589  44.413  42.968   9.984
65845W        W25590  13.262  21.055  11.916
65846W        W25591   5.316  30.982   3.786
65847W        W25592   5.811  23.635   4.621
65848W        W25593   0.884  36.857  14.793
65849W        W25594   7.172   0.396   2.266
65850W        W25595  19.076  21.517   3.312
65851W        W25596  15.147  16.133  11.022
65852W        W25597   4.227  36.362  14.510
65853W        W25598  12.738  13.814   0.732
65854W        W25599  18.169  15.660  11.087
65855W        W25600  44.005  34.513   2.273
65856W        W25601  42.983  28.574  13.063
65857W        W25602  22.113  27.496  12.348
65858W        W25603  43.479  16.781  14.327
65859W        W25604  21.121   4.709   0.428
65860W        W25605  27.655  23.678  10.976
65861W        W25606  42.378  21.030  13.958
65862W        W25607  41.796   9.727   2.288
65863W        W25608   7.330   0.911   4.324
65864W        W25609  26.090  19.653  14.425
65865W        W25610   5.417  14.188  13.044
65866W        W25611  28.100   8.739   2.313
65867W        W25612  16.169  37.844  13.542
65868W        W25613  42.522  44.289   1.887
65869W        W25614  20.574  44.843   1.325
65870W        W25615  36.024  41.845  11.589
65871W        W25616  33.069  16.737   4.129
65872W        W25617  28.989  20.161   2.866
65873W        W25618  43.928   4.284  10.949
65874W        W25619  36.582  38.923  11.965
65875W        W25620  33.961  44.377  14.356
65876W        W25621   7.774  34.514  11.426
65877W        W25622  26.045  34.484  11.947
65878W        W25623  30.602   2.954  11.438
65879W        W25624  36.904  14.832  14.438
65880W        W25625  37.552  36.592   3.791
65881W        W25626   8.296   0.858   3.171
65882W        W25627   4.848  22.160  14.298
65883W        W25628   9.366  10.814  10.476
65884W        W25629  23.545  25.638   4.683
65885W        W25630  22.581  42.785   1.343
65886W        W25631  39.929  21.658  11.408
65887W        W25632  25.706  29.477  13.878
65888W        W25633  12.644   0.351  12.558
65889W        W25634  27.015  11.757  13.820
65890W        W25635  40.916  29.174   2.890
65891W        W25636   5.404  10.379   3.844
65892W        W25637   0.465  31.047   4.254
65893W        W25638  24.720  18.244  12.844
65894W        W25639  33.993   5.879   0.252
65895W        W25640  37.873  40.504  14.832
65896W        W25641  18.152  13.689  14.941
65897W        W25642   7.242   4.817   0.853
65898W        W25643  24.635  24.069   3.731
65899W        W25644   3.275  42.287  12.506
65900W        W25645  27.674  35.428  11.398
65901W        W25646  10.739  40.989   0.362
65902W        W25647  36.962   9.379  12.977
65903W        W25648  17.296  40.053   1.416
65904W        W25649  29.976  16.771   1.860
65905W        W25650  31.000   2.762   0.910
65906W        W25651   8.288  19.630  14.021
65907W        W25652  32.100  32.998   2.302
65908W        W25653   0.885  31.937  11.492
65909W        W25654  16.263  16.102   2.725
65910W        W25655  25.142  39.386   0.292
65911W        W25656  36.501   2.827   3.871
65912W        W25657  22.152  41.854  10.973
65913W        W25658  29.976   0.384  12.382
65914W        W25659  15.672  44.951  14.460
65915W        W25660  25.084  40.352  13.047
65916W        W25661  15.328  29.013  11.375
65917W        W25662  30.021  42.920  11.578
65918W        W25663  40.440  28.039   3.821
65919W        W25664   7.250  38.823  10.941
65920W        W25665  19.222   6.868   3.676
65921W        W25666  27.034  38.061  11.382
65922W        W25667  25.691  15.630  11.944
65923W        W25668   9.790   4.929  11.403
65924W        W25669  13.293  12.853  10.997
65925W        W25670  18.789  33.077  10.466
65926W        W25671   1.321   5.217   0.739
65927W        W25672  28.948  15.659   2.821
65928W        W25673   7.384   9.316   2.206
65929W        W25674  15.223  43.446  12.523
65930W        W25675  37.934  18.258   3.864
65931W        W25676  40.310  30.055   2.181
65932W        W25677   1.904  13.811   4.118
65933W        W25678   8.259   6.740   2.207
65934W        W25679   4.702  11.301   0.861
65935W        W25680  40.348  37.413   0.460
65936W        W25681  26.205  39.031  13.443
65937W        W25682  33.487  41.309   2.753
65938W        W25683  18.604  32.140  11.574
65939W        W25684  32.439   5.724   5.233
65940W        W25685   8.762  22.504  11.028
65941W        W25686  44.782  17.275  10.469
65942W        W25687  15.211  14.795  14.385
65943W        W25688   9.707  33.531   2.781
65944W        W25689  28.108  11.320   1.705
65945W        W25690  13.753  25.025  13.927
65946W        W25691   1.821  14.305   4.718
65947W        W25692   0.265  15.267  12.376
65948W        W25693  14.315  28.943  10.051
65949W        W25694   4.728  20.209  13.525
65950W        W25695  10.277  36.367   0.481
65951W        W25696  27.468  29.019  10.059
65952W        W25697  30.912   0.772   3.797
65953W        W25698  22.070  22.605  12.947
65954W        W25699  15.637  11.828  13.464
65955W        W25700  42.337  29.174  11.007
65956W        W25701  16.661  35.522  13.486
65957W        W25702  39.543  23.030  14.956
65958W        W25703   4.930  40.941  11.482
65959W        W25704   4.698  32.537  13.005
65960W        W25705  28.157  22.062  11.861
65961W        W25706   7.846  39.331  14.504
65962W        W25707  33.963  33.617   4.321
65963W        W25708  40.892   7.793   0.863
65964W        W25709  26.479  14.663   1.252
65965W        W25710  35.596  21.089  10.526
65966W        W25711  23.519  41.510   0.428
65967W        W25712  31.091  33.553  12.549
65968W        W25713   4.865  24.503  10.435
65969W        W25714  39.914   1.964  14.289
65970W        W25715  21.122  26.629   2.244
65971W        W25716  12.806  41.390   3.299
65972W        W25717  30.091  40.036  13.886
65973W        W25718   9.193  15.134  11.913
65974W        W25719   4.827  33.553   4.161
65975W        W25720  41.835  31.621  14.994
65976W        W25721  10.733  19.608  12.404
65977W        W25722  29.922  21.526   1.910
65978W        W25723  16.611   9.220   2.216
65979W        W25724  31.009  42.997   3.272
65980W        W25725  15.127  22.608  14.759
65981W        W25726  20.147  13.715  10.459
65982W        W25727  44.892  33.536   1.268
65983W        W25728   5.261  26.139  11.058
65984W        W25729  22.171  28.506  13.940
65985W        W25730  30.432  43.009   1.215
65986W        W25731  14.829   0.856   5.123
65987W        W25732  37.015  22.640  12.527
65988W        W25733  12.211  22.531  13.513
65989W        W25734  44.313  40.448  11.397
65990W        W25735  35.369   3.923  12.079
65991W        W25736   4.910   2.887   3.341
65992W        W25737  34.000  22.156  12.550
65993W        W25738  18.716  14.221  13.340
65994W        W25739   7.295  14.199  11.993
65995W        W25740   9.183  17.248   4.767
65996W        W25741  15.149  15.136   4.810
65997W        W25742   4.880  41.364   1.258
65998W        W25743  20.218  21.605   4.163
65999W        W25744  19.727   0.826   1.916
66000W        W25745  37.408  13.617   0.867
66001W        W25746   4.809  20.141  13.954
66002W        W25747   7.185  40.024  11.059
66003W        W25748  29.588  25.635  14.806
66004W        W25749  35.999  27.101   2.819
66005W        W25750  36.914  43.824   3.845
66006W        W25751  30.019   2.877  14.500
66007W        W25752  42.328   7.752   4.735
66008W        W25753  29.031  44.800  12.446
66009W        W25754  15.725  33.910   2.881
66010W        W25755   8.775  27.057  11.925
66011W        W25756   8.319   2.369   2.852
66012W        W25757  40.008  25.477   3.206
66013W        W25758  21.717  16.209   0.246
66014W        W25759  38.010  25.964   1.331
66015W        W25760   4.807  35.011  11.478
66016W        W25761  25.630  24.209  14.469
66017W        W25762  22.149  24.501   1.347
66018W        W25763   0.429  10.239   4.334
66019W        W25764  10.746  44.349  11.467
66020W        W25765  21.668  15.133   2.363
66021W        W25766   7.792  31.616   2.902
66022W        W25767  10.671  35.481   4.654
66023W        W25768  29.139  16.798  11.109
66024W        W25769  26.172  44.959   2.390
66025W        W25770  31.130  15.302   2.807
66026W        W25771   1.421  13.808   1.378
66027W        W25772   9.231   9.150  10.888
66028W        W25773  40.449  35.103   0.906
66029W        W25774   1.375  31.438   4.150
66030W        W25775   2.871  31.429   2.223
66031W        W25776   5.934  26.173  13.828
66032W        W25777  17.240   1.376   3.148
66033W        W25778   2.915   6.883   0.883
66034W        W25779  34.487  31.055   4.346
66035W        W25780   5.780  13.844   3.824
66036W        W25781   8.350  12.356  14.891
66037W        W25782  18.295  34.897  14.008
66038W        W25783  29.123   3.734  11.432
66039W        W25784  33.114   0.331   3.227
66040W        W25785  35.966  26.494  11.957
66041W        W25786  13.697  34.422   4.137
66042W        W25787  25.682  27.684   1.927
66043W        W25788  12.345  10.189   2.417
66044W        W25789   6.823  27.065   2.746
66045W        W25790  11.160  11.272  10.621
66046W        W25791  39.460  18.099  12.365
66047W        W25792  32.556  22.536  10.028
66048W        W25793  17.583  27.156   2.723
66049W        W25794  13.638  12.719  12.907
66050W        W25795   4.361  41.992   1.314
66051W        W25796  15.278  36.933   1.438
66052W        W25797   1.416  11.263  14.917
66053W        W25798   3.322   4.812   2.709
66054W        W25799  13.736  29.553  10.603
66055W        W25800  41.998  25.549  13.983
66056W        W25801  36.035  12.141  11.567
66057W        W25802   8.795  22.696  14.832
66058W        W25803  42.803  24.070   3.339
66059W        W25804  29.034  12.305  10.503
66060W        W25805  36.487  17.161  12.890
66061W        W25806  33.421  19.671  14.832
66062W        W25807  29.100  16.304  10.627
66063W        W25808  39.929  25.055  10.574
66064W        W25809  24.517  15.755   2.773
66065W        W25810  31.120  39.435   0.420
66066W        W25811   9.220  18.786   0.468
66067W        W25812   9.890  33.126  13.530
66068W        W25813  27.943   5.755   2.700
66069W        W25814  17.178   9.233  11.547
66070W        W25815  24.508  18.121   2.244
66071W        W25816  13.128  28.001  14.426
66072W        W25817  12.173   1.802   4.742
66073W        W25818   1.929  39.909   4.610
66074W        W25819   0.383  32.404  12.047
66075W        W25820  44.269  11.128   5.294
66076W        W25821  44.472   2.276   3.677
66077W        W25822  42.997  22.066   0.410
66078W        W25823  39.536  37.382  11.469
66079W        W25824  30.986   0.307   3.750
66080W        W25825   4.404  34.414  14.291
66081W        W25826   9.818  10.265   3.273
66082W        W25827  38.514   4.904   4.706
66083W        W25828   7.861   7.249  11.607
66084W        W25829  12.153   4.228  12.082
66085W        W25830   1.781  30.049  11.384
66086W        W25831  22.200  20.753  11.081
66087W        W25832  36.364  11.754  14.500
66088W        W25833   8.667  23.700  11.038
66089W        W25834  19.043  21.032   9.971
66090W        W25835  19.580  39.447  11.074
66091W        W25836   3.453  36.529   3.754
66092W        W25837  24.116  33.062   1.226
66093W        W25838   7.192   8.294   1.335
66094W        W25839  32.585  15.236   1.308
66095W        W25840  27.138   1.933   3.764
66096W        W25841  29.648  33.119  12.023
66097W        W25842  22.536  22.641   0.728
66098W        W25843  44.260  23.629   0.791
66099W        W25844  33.093  39.829  10.492
66100W        W25845  43.323  25.690  11.870
66101W        W25846   3.256  26.512   0.342
66102W        W25847  28.439  17.139  13.794
66103W        W25848  43.352  41.975  13.529
66104W        W25849   0.483  19.168   1.732
66105W        W25850  23.039  26.656   3.870
66106W        W25851  20.611  23.180   0.297
66107W        W25852  21.655  30.152   1.833
66108W        W25853  15.251   8.179   1.308
66109W        W25854  10.834   9.295   3.671
66110W        W25855   7.745  30.965   1.923
66111W        W25856  25.030  28.557   4.153
66112W        W25857  41.421  19.669  11.409
66113W        W25858   5.422  29.169   3.772
66114W        W25859  36.952  16.631  10.634
66115W        W25860   5.408   6.379   2.795
66116W        W25861  30.569  43.503   3.196
66117W        W25862  41.428  16.168   2.809
66118W        W25863  34.518   2.738  10.560
66119W        W25864  12.300  15.708  12.970
66120W        W25865  27.620   9.264  10.925
66121W        W25866  34.942  24.168   3.163
66122W        W25867   0.981  41.423   4.197
66123W        W25868  25.016  19.162  11.392
66124W        W25869  35.472  24.175   1.446
66125W        W25870   7.267  10.373  12.448
66126W        W25871  33.419   3.787  11.544
66127W        W25872   1.738  26.112   3.717
66128W        W25873  39.321  27.086  13.913
66129W        W25874  30.004  42.314  12.880
66130W        W25875   4.379   1.433   2.358
66131W        W25876  39.553  18.701  11.461
66132W        W25877  37.056  16.264   0.453
66133W        W25878   2.355  37.001  12.470
66134W        W25879   5.318  26.124  13.472
66135W        W25880  20.586  21.253  11.379
66136W        W25881  44.380   1.374   3.380
66137W        W25882  32.062  33.605  12.853
66138W        W25883  38.008  11.702   1.704
66139W        W25884  24.540  10.866  10.487
66140W        W25885  10.770  10.689  14.968
66141W        W25886  40.522  40.316  12.092
66142W        W25887  17.237   4.765   3.695
66143W        W25888  30.109  21.679  12.047
66144W        W25889  29.523  19.159  12.508
66145W        W25890  36.454  13.828   2.808
66146W        W25891  28.505  18.135   4.836
66147W        W25892  19.607   8.271   0.331
66148W        W25893  11.810  23.579   5.187
66149W        W25894  38.376  39.890   2.837
66150W        W25895   8.316  44.388   1.293
66151W        W25896  37.376  17.143  14.013
66152W        W25897  39.379  34.895  13.840
66153W        W25898  27.958  22.723  13.829
66154W        W25899  11.831  44.427  14.419
66155W        W25900  16.676  31.552   0.383
66156W        W25901  31.090  27.510  11.074
66157W        W25902  42.972  18.059   4.190
66158W        W25903  31.041  43.961  11.986
66159W        W25904  34.601  14.596   4.172
66160W        W25905  44.474  27.491   0.786
66161W        W25906  26.569  20.715   3.635
66162W        W25907  21.254  25.558  12.850
66163W        W25908   4.943  13.243  13.307
66164W        W25909  15.802  35.957   0.330
66165W        W25910  15.701  33.388  12.405
66166W        W25911  30.582  20.732   0.729
66167W        W25912  18.084   4.392   1.252
66168W        W25913  20.705  12.703  13.308
66169W        W25914   5.852  26.593  14.415
66170W        W25915  29.042  21.068  14.885
66171W        W25916  27.993  30.997   3.297
66172W        W25917  28.132   0.337  11.956
66173W        W25918  29.963  43.784   1.410
66174W        W25919  40.980  37.910  10.604
66175W        W25920  38.922  10.867   3.379
66176W        W25921  17.754  19.644  11.422
66177W        W25922   2.244   0.879   9.956
66178W        W25923  43.998  26.517   4.817
66179W        W25924   6.703   5.372  14.982
66180W        W25925  37.400  35.949  10.504
66181W        W25926  31.591  37.450   0.356
66182W        W25927   5.243  42.300  14.918
66183W        W25928  30.020  17.190  13.888
66184W        W25929  21.681  23.606   5.104
66185W        W25930  41.349  34.594  13.915
66186W        W25931  38.975  44.838   2.343
66187W        W25932  32.084  18.134   3.215
66188W        W25933  37.875  14.203  10.426
66189W        W25934  34.521  40.402   1.896
66190W        W25935  21.169  17.786   3.289
66191W        W25936  28.665  35.958  11.499
66192W        W25937  44.891  39.012  12.490
66193W        W25938   5.813  34.950  12.441
66194W        W25939  41.525  23.132  13.994
66195W        W25940   3.239  21.647   3.834
66196W        W25941   6.803  37.536  13.545
66197W        W25942  33.392   5.379   1.905
66198W        W25943   3.835  24.652  12.431
66199W        W25944  22.154  20.238  14.284
66200W        W25945  28.463  35.515  11.889
66201W        W25946  33.932   5.374   4.256
66202W        W25947  26.629  39.976   3.835
66203W        W25948  28.620  25.629  14.980
66204W        W25949  27.173  31.137  13.413
66205W        W25950  26.643  16.662   4.638
66206W        W25951  10.237  10.709   3.860
66207W        W25952  32.897  10.350   0.460
66208W        W25953  24.489  25.056  10.562
66209W        W25954   5.396   8.230  13.487
66210W        W25955  28.078   2.414   4.322
66211W        W25956  22.229  32.475   0.286
66212W        W25957   9.318  34.902  10.643
66213W        W25958  24.558  39.995  10.627
66214W        W25959  33.036  21.666  12.848
66215W        W25960  31.526   9.218  13.985
66216W        W25961  36.354  35.406   1.840
66217W        W25962   3.745  31.087  11.533
66218W        W25963   7.297  31.072  14.408
66219W        W25964  21.624   6.365   0.955
66220W        W25965   0.857  16.653   5.120
66221W        W25966  26.504  15.814  14.941
66222W        W25967   9.759  43.503   4.329
66223W        W25968  37.343  26.166   0.840
66224W        W25969  30.119  13.332   1.755
66225W        W25970  16.666  21.140  14.025
66226W        W25971  40.026  42.469  14.003
66227W        W25972  10.362  35.486  13.473
66228W        W25973  30.568  35.455   4.834
66229W        W25974  41.790  24.039  13.411
66230W        W25975  12.712   2.372  12.371
66231W        W25976  26.004  42.484   4.136
66232W        W25977  36.478  33.108  14.883
66233W        W25978  40.834  43.932   0.454
66234W        W25979  27.109  42.806   0.924
66235W        W25980   6.421  20.669   4.604
66236W        W25981  18.781  35.007  14.010
66237W        W25982  30.125  22.529  14.469
66238W        W25983  23.023  37.393   5.246
66239W        W25984  34.409   9.730  10.411
66240W        W25985  21.029  19.078   0.477
66241W        W25986  28.960  22.016   2.254
66242W        W25987  23.174   4.814  13.364
66243W        W25988   5.846  23.214   4.729
66244W        W25989  15.104   2.391   3.785
66245W        W25990  38.355  22.062   1.400
66246W        W25991  16.101  13.109  13.522
66247W        W25992  18.163  10.817   2.250
66248W        W25993  21.623  22.244   2.818
66249W        W25994  18.552  31.934  14.815
66250W        W25995  14.274   5.893   0.424
66251W        W25996   7.702  29.515  14.866
66252W        W25997  29.147  31.599  14.347
66253W        W25998  30.659  26.125   4.146
66254W        W25999  26.471  32.407   0.866
66255W        W26000  19.692   1.833  11.906
66256W        W26001  28.619  25.978   4.338
66257W        W26002  37.971  36.405   0.260
66258W        W26003   4.833  35.561   4.646
66259W        W26004  31.481  16.197   0.403
66260W        W26005  27.106  43.297  12.398
66261W        W26006  31.416  14.671   2.277
66262W        W26007   3.425  11.333  12.433
66263W        W26008  38.339  15.202   3.732
66264W        W26009  24.582  32.087  13.499
66265W        W26010   8.721  10.228  14.894
66266W        W26011  28.950  17.062  11.905
66267W        W26012  10.801  42.955   1.928
66268W        W26013  36.585  26.166   3.812
66269W        W26014  28.060  14.633  13.828
66270W        W26015  31.603   5.860  11.919
66271W        W26016   7.746  40.875  12.983
66272W        W26017  36.584   8.744  12.093
66273W        W26018  31.584   6.702  10.154
66274W        W26019  21.117   5.261  13.858
66275W        W26020  16.753  11.342   4.275
66276W        W26021  33.461  37.874  11.041
66277W        W26022  39.046  20.624   3.760
66278W        W26023   2.945  43.942   0.788
66279W        W26024   6.740  41.364   4.138
66280W        W26025  20.168  43.892   0.391
66281W        W26026  19.139  38.495  14.817
66282W        W26027   6.758   7.272   0.288
66283W        W26028  28.039  11.144   3.275
66284W        W26029  18.091   1.880  10.017
66285W        W26030  40.983  25.209  10.604
66286W        W26031  36.937  18.605   2.365
66287W        W26032  37.888  18.730  12.840
66288W        W26033   1.431  10.803  11.102
66289W        W26034  43.996   2.738   3.286
66290W        W26035  31.104   9.781  13.513
66291W        W26036  30.643   6.239  14.342
66292W        W26037  30.628  27.484   0.392
66293W        W26038  31.918  40.398  14.864
66294W        W26039  24.220  29.589  11.954
66295W        W26040  44.863  16.728  11.033
66296W        W26041  37.503   8.828  14.472
66297W        W26042  16.311   5.765  11.888
66298W        W26043  21.178   3.352   2.289
66299W        W26044  21.533  17.671  13.367
66300W        W26045  41.534  15.775  11.862
66301W        W26046  14.729  19.586   0.372
66302W        W26047  23.691  21.685   4.769
66303W        W26048  23.600  39.987   4.821
66304W        W26049  27.145   0.938   2.332
66305W        W26050   6.874  23.988  12.095
66306W        W26051  33.472  34.943  10.010
66307W        W26052  27.982  29.144  13.430
66308W        W26053  14.791   1.760   1.347
66309W        W26054  39.053  37.073   4.300
66310W        W26055  14.740   3.317  13.424
66311W        W26056  19.677  11.192   1.431
66312W        W26057  42.794  25.478  13.914
66313W        W26058  34.943   6.224  12.072
66314W        W26059  21.515  31.013   4.804
66315W        W26060  10.257  11.142   3.702
66316W        W26061  31.492  13.152   2.695
66317W        W26062   4.308   0.828   1.242
66318W        W26063   0.268   9.351   1.897
66319W        W26064  16.630  21.264  14.782
66320W        W26065  17.709  37.442   1.910
66321W        W26066  15.105  32.475  11.871
66322W        W26067  17.795   7.247  14.382
66323W        W26068  32.006  11.293  10.484
66324W        W26069  38.348  35.973   0.836
66325W        W26070   2.796  29.584   9.463
66326W        W26071   3.860   1.887  12.534
66327W        W26072   9.213   6.905   2.178
66328W        W26073   5.295   9.721   2.327
66329W        W26074  27.568  15.094  10.899
66330W        W26075  31.406  14.123  12.354
66331W        W26076   9.326   1.834   3.196
66332W        W26077  33.458  26.580   3.782
66333W        W26078  32.549  14.118   2.841
66334W        W26079   4.401   7.254  11.104
66335W        W26080  12.206   4.858   1.700
66336W        W26081  23.148  16.727   0.447
66337W        W26082  36.387  16.804   3.192
66338W        W26083  10.347  37.864   4.276
66339W        W26084   6.206  42.977   3.809
66340W        W26085  23.995   2.235  14.996
66341W        W26086  14.641  29.114   3.830
66342W        W26087  35.529  12.299  13.438
66343W        W26088  38.553  36.990  12.383
66344W        W26089  43.861  39.854  12.929
66345W        W26090  17.230   9.679   4.686
66346W        W26091  30.575  14.776  12.946
66347W        W26092  43.439  16.225   2.248
66348W        W26093  28.664  37.020  12.049
66349W        W26094  27.078  10.298  13.532
66350W        W26095  36.458   1.351  11.064
66351W        W26096  40.861  28.563   3.330
66352W        W26097  28.445  37.889  12.010
66353W        W26098  35.107  41.456  14.841
66354W        W26099  13.724  21.729  13.060
66355W        W26100  19.699  29.443  12.458
66356W        W26101  20.592  37.975   3.341
66357W        W26102   3.370  44.804   4.675
66358W        W26103  29.946  22.733  11.085
66359W        W26104  42.968  42.808   0.253
66360W        W26105  33.490  17.225   0.346
66361W        W26106  27.665   4.858  13.365
66362W        W26107   2.409  41.415  12.079
66363W        W26108  24.024   7.362   1.342
66364W        W26109  38.334  44.463  14.882
66365W        W26110  25.678   5.792   3.211
66366W        W26111  36.533  13.210   4.656
66367W        W26112  25.707  21.250  11.418
66368W        W26113   4.319  29.485   2.211
66369W        W26114  21.658   6.818  13.010
66370W        W26115  11.661  25.631  11.556
66371W        W26116  23.595   9.764   3.161
66372W        W26117  19.685  21.096   1.815
66373W        W26118  44.460  40.842   2.360
66374W        W26119  44.895  41.515   1.402
66375W        W26120  25.062  20.641  13.001
66376W        W26121   8.398   6.240  13.857
66377W        W26122  30.602  35.020   4.641
66378W        W26123  41.830  27.561   4.650
66379W        W26124   3.402  38.565   2.316
66380W        W26125  22.105   1.879  14.361
66381W        W26126  33.003  27.565  12.484
66382W        W26127  12.341   8.329  12.385
66383W        W26128  35.959  20.668   2.876
66384W        W26129  24.188  27.465   3.854
66385W        W26130  10.186  29.567   1.858
66386W        W26131  35.890  28.055  13.858
66387W        W26132  17.276  28.673   2.788
66388W        W26133  24.063  36.051  14.775
66389W        W26134  42.316  12.842   2.860
66390W        W26135  12.212  42.329  11.943
66391W        W26136  35.980  39.839   3.350
66392W        W26137  10.816  22.051  11.043
66393W        W26138  25.564  14.788  14.322
66394W        W26139  41.836  44.401   2.197
66395W        W26140  25.632  19.191   1.767
66396W        W26141   4.249  30.947   5.295
66397W        W26142  42.411  13.235   2.858
66398W        W26143  27.155  40.376  13.888
66399W        W26144  31.007   4.315  11.380
66400W        W26145  23.221  21.563  14.001
66401W        W26146  20.231   8.359  13.863
66402W        W26147  37.452  42.285   3.823
66403W        W26148  13.650  14.776  13.537
66404W        W26149   7.407   3.321   3.237
66405W        W26150  28.183  28.039  12.950
66406W        W26151  42.895   7.378  14.946
66407W        W26152  11.217  37.474   3.682
66408W        W26153  40.353   7.371   4.222
66409W        W26154  36.462  22.007  11.971
66410W        W26155  40.343   6.864  10.440
66411W        W26156  32.945   1.766   3.773
66412W        W26157  17.171   9.868  14.887
66413W        W26158  17.604  42.470  12.379
66414W        W26159  24.556  28.495  14.763
66415W        W26160  17.617   8.809   1.441
66416W        W26161  20.119  29.001  13.319
66417W        W26162  38.478   6.213   4.633
66418W        W26163   8.835  11.673  12.093
66419W        W26164  18.709  20.251  11.493
66420W        W26165  41.915  12.277  12.505
66421W        W26166   9.197   0.911  10.939
66422W        W26167   2.743  29.536   5.133
66423W        W26168   7.746  37.441  14.446
66424W        W26169  24.582  15.736  14.860
66425W        W26170  22.522  44.272  13.354
66426W        W26171  25.589  25.987  11.940
66427W        W26172  32.601   7.412  14.298
66428W        W26173  20.529   3.278  10.056
66429W        W26174  19.708  14.675   2.852
66430W        W26175  14.195  22.133  10.611
66431W        W26176   7.677   5.892   9.941
66432W        W26177   6.296  37.505   5.082
66433W        W26178   1.361  17.122  13.940
66434W        W26179  22.610  17.157  13.499
66435W        W26180  21.056  37.913  10.495
66436W        W26181  16.213  30.457   2.869
66437W        W26182  32.514  13.222  10.495
66438W        W26183   4.266  35.885   1.735
66439W        W26184  19.667  38.033   1.763
66440W        W26185  40.315   4.208  10.643
66441W        W26186  44.291   2.459  12.881
66442W        W26187   7.755  25.125   4.717
66443W        W26188  25.972  27.975  13.806
66444W        W26189  14.754   9.703   4.193
66445W        W26190   4.222  20.698   1.738
66446W        W26191  35.419  34.555  11.409
66447W        W26192  15.299  11.169  10.473
66448W        W26193  27.620  41.390   3.210
66449W        W26194  32.470  24.088   0.284
66450W        W26195  26.686  39.956   3.307
66451W        W26196   2.468  30.571   3.766
66452W        W26197   6.877  43.908   1.897
66453W        W26198  14.599  30.972  12.463
66454W        W26199   7.873  24.640  11.495
66455W        W26200  41.823  24.541  11.515
66456W        W26201  36.914  11.639   4.604
66457W        W26202  20.211  24.631  12.408
66458W        W26203  41.443  36.091   0.436
66459W        W26204  36.447  17.760   3.225
66460W        W26205  31.076   2.863  11.083
66461W        W26206   0.881  23.564   0.895
66462W        W26207  28.972   6.733   0.316
66463W        W26208  33.045  43.953   0.348
66464W        W26209   5.864  25.476   3.208
66465W        W26210  21.551  23.092   3.638
66466W        W26211  13.215  12.293  10.556
66467W        W26212   8.732  22.106   1.420
66468W        W26213  19.195  29.116   1.436
66469W        W26214  14.781  11.318   0.816
66470W        W26215   0.265  44.767  13.420
66471W        W26216  38.398  10.667   0.420
66472W        W26217  24.022  30.051  13.446
66473W        W26218  11.788  17.619  12.978
66474W        W26219   5.439  17.674   0.311
66475W        W26220   0.903  17.786   2.789
66476W        W26221  32.451  36.550  14.889
66477W        W26222  41.358  27.022   3.241
66478W        W26223  13.221   6.305  13.334
66479W        W26224   9.178   2.917  14.487
66480W        W26225  13.784  26.594  14.905
66481W        W26226   1.972  25.543  12.028
66482W        W26227   6.405  39.870   3.386
66483W        W26228  16.174  23.201   4.160
66484W        W26229  24.640   9.720   2.262
66485W        W26230  14.106  15.699  14.285
66486W        W26231  14.712  20.764   0.788
66487W        W26232  28.098  10.744   1.441
66488W        W26233  37.541   2.883   1.278
66489W        W26234  29.002   5.700  12.053
66490W        W26235  33.052  27.190   2.295
66491W        W26236  33.012  37.997  11.860
66492W        W26237   6.390  27.507  10.556
66493W        W26238  39.026  19.259  10.568
66494W        W26239  39.411  40.957  11.998
66495W        W26240  35.953  22.571   2.419
66496W        W26241  43.325  32.966   1.876
66497W        W26242  36.921  16.633   2.280
66498W        W26243  34.385  11.627  11.439
66499W        W26244  28.146   8.737   2.840
66500W        W26245  21.519  37.579   0.437
66501W        W26246   3.270  32.965   0.407
66502W        W26247  19.579   2.451  12.880
66503W        W26248  20.105  43.979  14.338
66504W        W26249  27.569  38.876  13.522
66505W        W26250   4.759  13.605  14.398
66506W        W26251  30.487  10.770  11.049
66507W        W26252  37.376  14.287   4.243
66508W        W26253   6.908  36.496  14.504
66509W        W26254  18.583  10.334   2.302
66510W        W26255  18.770  41.525  13.034
66511W        W26256  17.278  21.185  12.509
66512W        W26257  40.813  40.390   3.770
66513W        W26258  32.889  25.578  12.958
66514W        W26259  19.119  30.156   0.320
66515W        W26260   9.869  36.083  10.563
66516W        W26261  33.446  22.024   0.953
66517W        W26262  11.270  13.610  14.350
66518W        W26263  27.613   7.878  14.385
66519W        W26264  41.879  15.796   4.608
66520W        W26265   9.279  38.505   1.254
66521W        W26266   2.947   3.384  10.467
66522W        W26267  11.844  34.953  14.370
66523W        W26268   3.890   4.255  11.373
66524W        W26269  28.944  43.821  14.306
66525W        W26270  29.174  38.864  12.464
66526W        W26271  24.545  21.522   3.347
66527W        W26272   5.332   3.817   3.348
66528W        W26273   7.193  14.221   0.844
66529W        W26274  16.735  23.123  11.125
66530W        W26275  21.189  23.019   2.200
66531W        W26276  22.122  38.005  12.483
66532W        W26277  25.042  37.576  11.977
66533W        W26278   7.736  16.726  13.342
66534W        W26279  38.899   3.775   4.621
66535W        W26280  27.961   1.826   4.113
66536W        W26281  34.093  27.119  11.903
66537W        W26282  43.984   7.336  13.022
66538W        W26283   7.264  39.475  12.940
66539W        W26284  21.070  11.250  14.318
66540W        W26285  43.964  21.653  11.890
66541W        W26286   1.769   1.844   3.157
66542W        W26287  29.611   6.739   0.419
66543W        W26288  38.005  23.597   4.770
66544W        W26289  15.102  12.223  13.493
66545W        W26290  30.085  37.838  11.074
66546W        W26291  36.945  19.671  10.954
66547W        W26292   0.947  23.592   0.270
66548W        W26293  14.102  41.405   2.249
66549W        W26294  23.525  15.656   0.826
66550W        W26295  26.661  26.066  11.064
66551W        W26296  35.435  34.030   0.483
66552W        W26297   3.756  40.407  10.495
66553W        W26298  19.757  32.509  14.933
66554W        W26299  10.276  17.638   3.713
66555W        W26300  30.549  20.648   3.797
66556W        W26301   5.702   9.256  14.970
66557W        W26302  18.158  42.979   4.354
66558W        W26303   3.848  32.047  12.927
66559W        W26304   2.789  23.055  14.404
66560W        W26305  17.705  20.131  11.088
66561W        W26306  15.249  35.865   3.230
66562W        W26307  44.862  36.580  11.507
66563W        W26308  33.467  13.762   3.150
66564W        W26309   0.775  27.045  13.892
66565W        W26310  34.916  18.617   9.477
66566W        W26311  42.844  23.121  10.987
66567W        W26312  26.593  16.263   4.699
66568W        W26313   8.286   5.397   1.249
66569W        W26314  12.648  43.418  13.926
66570W        W26315   3.303  27.085  10.582
66571W        W26316  12.735  25.214   4.797
66572W        W26317  23.039   7.380  14.408
66573W        W26318  33.622  23.115  13.447
66574W        W26319  33.011  36.846  11.469
66575W        W26320   1.335  42.525   1.925
66576W        W26321  23.578  13.274   2.686
66577W        W26322   0.323  13.742  14.339
66578W        W26323  43.806  32.056   3.204
66579W        W26324  44.373  13.323   3.238
66580W        W26325   1.853  42.502  11.030
66581W        W26326   1.974   7.896   3.739
66582W        W26327   8.826  12.675  12.554
66583W        W26328  19.183  40.801   4.281
66584W        W26329  19.741  44.913  12.849
66585W        W26330   6.682  41.858  10.965
66586W        W26331  35.975   5.742   4.197
66587W        W26332  10.304  21.189  13.988
66588W        W26333  17.236   6.311  14.462
66589W        W26334  30.529   8.364   3.701
66590W        W26335  40.358   4.874  14.783
66591W        W26336  16.567  16.178  13.449
66592W        W26337  23.612  24.982  11.927
66593W        W26338   0.324  12.275   1.762
66594W        W26339  19.262  15.650  12.531
66595W        W26340   6.201  13.738   4.638
66596W        W26341  26.693   2.950  14.798
66597W        W26342  35.018  26.064   4.800
66598W        W26343  39.940  26.680  14.019
66599W        W26344  29.461  18.273  13.439
66600W        W26345  31.980   8.311  12.474
66601W        W26346  14.611  36.038  13.914
66602W        W26347  17.627   9.699   4.730
66603W        W26348   5.292  16.770   3.847
66604W        W26349   7.823   2.295   4.745
66605W        W26350  25.668  37.401  10.001
66606W        W26351   9.874  29.450  13.344
66607W        W26352  35.009  40.992  11.448
66608W        W26353  33.906   6.816  11.978
66609W        W26354   2.720  38.429   1.404
66610W        W26355   9.287  12.335  11.427
66611W        W26356   3.898  29.092  13.845
66612W        W26357  27.561  41.354   3.702
66613W        W26358  18.267  27.161   4.293
66614W        W26359  13.657  40.313  13.043
66615W        W26360  38.512  28.963   4.716
66616W        W26361  36.359  35.059   5.208
66617W        W26362  25.528   1.781   4.293
66618W        W26363   7.358  29.149   4.150
66619W        W26364  44.262   0.870   3.286
66620W        W26365   1.317  25.018  11.579
66621W        W26366   1.390   4.800   4.633
66622W        W26367  30.022  41.516  14.901
66623W        W26368  44.282  37.465  13.835
66624W        W26369  25.192  43.862   2.826
66625W        W26370   5.858   4.822  13.908
66626W        W26371   0.839  30.071  12.025
66627W        W26372   7.316   1.277   0.331
66628W        W26373  43.496  33.548  11.880
66629W        W26374  32.927   5.714  14.327
66630W        W26375   7.881  25.550   1.934
66631W        W26376  42.477   2.370   4.675
66632W        W26377  43.421  33.936   1.213
66633W        W26378  34.503   9.226   0.787
66634W        W26379  14.120   3.406  13.453
66635W        W26380  11.776  33.550  12.913
66636W        W26381   2.371  35.506   3.631
66637W        W26382  20.036  25.653  10.566
66638W        W26383  23.190   1.464   3.223
66639W        W26384  16.108  37.535  14.325
66640W        W26385  26.497  27.524  11.559
66641W        W26386  29.132  11.846   0.953
66642W        W26387  28.608  10.285   2.667
66643W        W26388  35.947   4.220   0.379
66644W        W26389  41.975   6.315   1.242
66645W        W26390  14.251   7.826  14.335
66646W        W26391  32.936  36.020  12.059
66647W        W26392   1.243  26.462   3.852
66648W        W26393  40.418  12.249   3.360
66649W        W26394   5.250  36.857   5.262
66650W        W26395  13.246  21.204   4.195
66651W        W26396  40.986  34.384   3.758
66652W        W26397  41.331   7.777   0.905
66653W        W26398  36.082  28.032   5.288
66654W        W26399   9.724  32.488  13.028
66655W        W26400   6.779  39.473  12.452
66656W        W26401  16.191   0.868  14.961
66657W        W26402  15.631   9.171  10.494
66658W        W26403   8.280  41.043  11.894
66659W        W26404  18.284   9.290  13.396
66660W        W26405  33.099  22.030   1.703
66661W        W26406   9.186  18.250   2.873
66662W        W26407  26.602  41.300  11.983
66663W        W26408  31.933  30.124   9.459
66664W        W26409  24.697  20.762   0.798
66665W        W26410   6.359  43.798   4.776
66666W        W26411  42.886  20.226   1.343
66667W        W26412  33.040   4.370  14.391
66668W        W26413  19.275  37.048   2.284
66669W        W26414   0.376  28.491  12.064
66670W        W26415  21.230  28.075  10.609
66671W        W26416  25.148  16.230   3.311
66672W        W26417   5.883   8.658   4.244
66673W        W26418  35.595  26.530   2.414
66674W        W26419  40.866  22.595   4.795
66675W        W26420   9.332  18.293   3.697
66676W        W26421  39.013  20.036  12.393
66677W        W26422  24.160   5.839  14.786
66678W        W26423  10.300  34.522  13.996
66679W        W26424  15.777  36.087   1.409
66680W        W26425  40.363  32.480  12.825
66681W        W26426  31.433  13.206   1.271
66682W        W26427   1.443  35.023   0.455
66683W        W26428  29.147  19.660   3.325
66684W        W26429  42.026  40.880  14.501
66685W        W26430   7.684  30.438   2.722
66686W        W26431  18.591   3.949  13.016
66687W        W26432  43.882  17.649  14.318
66688W        W26433  20.187  20.047  10.994
66689W        W26434  35.859   0.939  11.859
66690W        W26435  24.109  22.593   0.859
66691W        W26436   1.973  18.293   4.263
66692W        W26437  26.201  34.967  11.019
66693W        W26438  11.270   0.447   2.418
66694W        W26439  10.667   4.249  10.918
66695W        W26440   3.823  23.551  12.029
66696W        W26441  17.134  30.143   4.809
66697W        W26442   9.834  24.486  12.548
66698W        W26443  23.215  11.769  14.427
66699W        W26444  22.535  13.776  13.434
66700W        W26445  17.237  16.156   2.230
66701W        W26446   7.206  22.668  12.860
66702W        W26447  21.028  38.395  13.014
66703W        W26448  36.044   3.847  13.992
66704W        W26449   0.846  35.449   3.729
66705W        W26450  32.029  34.527   4.122
66706W        W26451  37.404   4.918  14.790
66707W        W26452  21.693  31.931   5.248
66708W        W26453  12.705   1.810  13.835
66709W        W26454  16.178  17.688  11.082
66710W        W26455  25.665   3.817   4.649
66711W        W26456  12.280  30.628  11.860
66712W        W26457  26.517  37.342  13.824
66713W        W26458  18.757  41.399   3.355
66714W        W26459   2.791  41.899   1.811
66715W        W26460  32.631  28.538  11.090
66716W        W26461  18.254  15.111  14.296
66717W        W26462  25.692  10.294  11.030
66718W        W26463  20.746  14.295  12.500
66719W        W26464   3.728   0.768  11.565
66720W        W26465  26.680  17.153  13.462
66721W        W26466  15.205  33.944  12.548
66722W        W26467  40.886  26.633   1.359
66723W        W26468  13.671  20.261   1.815
66724W        W26469  28.547  32.415  10.052
66725W        W26470  32.414  12.774  11.977
66726W        W26471  39.475  17.132   1.226
66727W        W26472   2.836  27.148   0.283
66728W        W26473  37.057  24.712   0.410
66729W        W26474  15.208  35.588   1.851
66730W        W26475   9.702  15.759  13.499
66731W        W26476  32.542   0.801  13.538
66732W        W26477   1.889  26.206  13.473
66733W        W26478   7.853  13.323  11.991
66734W        W26479  33.462  13.768   3.681
66735W        W26480  12.714  22.079  14.486
66736W        W26481  27.446   2.923   2.406
66737W        W26482   3.922  26.703   1.265
66738W        W26483  44.348   1.792  10.107
66739W        W26484  43.309  26.471  13.532
66740W        W26485   8.766  17.739   2.213
66741W        W26486  40.343  16.124  10.984
66742W        W26487  14.224   5.396   1.351
66743W        W26488  33.079   5.298  13.021
66744W        W26489   2.314  21.082  10.918
66745W        W26490  21.028  32.123   2.697
66746W        W26491  16.074  33.466  11.092
66747W        W26492   0.461  28.101   9.599
66748W        W26493   6.882  34.431  11.031
66749W        W26494  11.638  29.136  14.917
66750W        W26495   1.441  39.050   4.178
66751W        W26496  35.503  24.497   4.122
66752W        W26497  12.208  23.107   3.763
66753W        W26498   9.276  18.759  13.000
66754W        W26499  32.455  34.525   0.287
66755W        W26500  18.569  22.672   0.351
66756W        W26501  11.363  10.227  11.570
66757W        W26502  41.811  35.909   0.905
66758W        W26503  13.730  21.119   0.874
66759W        W26504  10.225  32.015   3.792
66760W        W26505  29.536  28.620   3.206
66761W        W26506  12.836  38.076  13.488
66762W        W26507  43.956  19.775  12.414
66763W        W26508  35.364  23.199  12.545
66764W        W26509  33.028   7.768   3.684
66765W        W26510  13.138  17.244  13.864
66766W        W26511  18.259  13.280  13.803
66767W        W26512   5.330  34.435   2.310
66768W        W26513  41.812  29.949   0.913
66769W        W26514  40.938  22.704  11.919
66770W        W26515   8.860   8.733   4.266
66771W        W26516  19.693  22.567   3.302
66772W        W26517  32.961  42.795  13.810
66773W        W26518  23.074  24.194   2.876
66774W        W26519  35.027  26.643   5.207
66775W        W26520  36.890  18.078   4.226
66776W        W26521  29.044  14.294  14.279
66777W        W26522   2.356  19.211   1.444
66778W        W26523   5.767  39.438  12.357
66779W        W26524  30.658   2.293   0.772
66780W        W26525   3.744  18.207  11.516
66781W        W26526  17.674   0.900   0.423
66782W        W26527  12.756  20.125  11.556
66783W        W26528  44.276  13.220  13.059
66784W        W26529  25.202  43.843  10.438
66785W        W26530  32.422  44.791  13.312
66786W        W26531   4.727  18.133  14.886
66787W        W26532  10.227   7.183  10.464
66788W        W26533  13.786  13.770  14.284
66789W        W26534  35.520  36.887   0.798
66790W        W26535  28.060  33.070  11.998
66791W        W26536   4.925  28.949   9.988
66792W        W26537  26.621  26.052  11.407
66793W        W26538  36.449   6.343  10.456
66794W        W26539  28.002  19.691  12.072
66795W        W26540  34.028  18.633  12.504
66796W        W26541  24.550  19.067  10.493
66797W        W26542  24.628  26.092   0.821
66798W        W26543  18.740  29.444  14.011
66799W        W26544  17.638  31.067  11.010
66800W        W26545  35.554   7.178   4.767
66801W        W26546  39.057  26.652   1.349
66802W        W26547   5.305  40.435  11.562
66803W        W26548   4.788  42.959   4.746
66804W        W26549  33.928  38.343   0.811
66805W        W26550  33.999  43.920  10.603
66806W        W26551   6.805  24.500  13.514
66807W        W26552  30.556  28.582   4.662
66808W        W26553  42.833  27.172  12.009
66809W        W26554  14.266  10.751   0.785
66810W        W26555  29.953   5.783   5.119
66811W        W26556  29.035  30.130  13.488
66812W        W26557  39.510   4.791   4.249
66813W        W26558  14.253  41.446   0.384
66814W        W26559   9.834  33.070  14.794
66815W        W26560  39.032  24.101  14.970
66816W        W26561   1.878  43.794  12.499
66817W        W26562  27.991  30.466   9.994
66818W        W26563  28.467  31.507   9.667
66819W        W26564   0.302   8.681  14.454
66820W        W26565  36.047  23.722  12.838
66821W        W26566  18.121  10.873  13.465
66822W        W26567  26.124  20.202  13.813
66823W        W26568   1.247  38.375  14.428
66824W        W26569  30.633  12.669  11.943
66825W        W26570  42.877  14.136   4.328
66826W        W26571  30.135  19.685   4.782
66827W        W26572   6.426   5.432  12.928
66828W        W26573  10.765  35.886  13.474
66829W        W26574  25.596   2.288  11.102
66830W        W26575   3.944  18.736   0.931
66831W        W26576  43.362  30.980  13.035
66832W        W26577  18.587  26.999   0.943
66833W        W26578  20.640   5.350   2.754
66834W        W26579  15.132   7.219   3.336
66835W        W26580   1.954  12.293  14.027
66836W        W26581   3.859  15.602   0.814
66837W        W26582  29.535   4.249   1.285
66838W        W26583  25.577  38.357   1.819
66839W        W26584  28.054  11.337   4.836
66840W        W26585  33.932  28.123  11.006
66841W        W26586  17.590  31.550  11.125
66842W        W26587   2.238  34.548  14.471
66843W        W26588  38.011  15.662  14.445
66844W        W26589  10.764  37.917  12.441
66845W        W26590  35.578   7.289   1.714
66846W        W26591  20.640  42.513   2.693
66847W        W26592   0.427  25.045   3.647
66848W        W26593   1.758   9.203  12.053
66849W        W26594  21.643  29.043   0.281
66850W        W26595  28.676  13.296   3.217
66851W        W26596   9.217  31.124  12.464
66852W        W26597  25.538  32.412   2.352
66853W        W26598  36.096  27.045   1.422
66854W        W26599   4.825   8.768  12.414
66855W        W26600   4.802   3.722  14.784
66856W        W26601  32.924   3.727  13.012
66857W        W26602  44.393  38.898   3.215
66858W        W26603   7.253   1.472  14.969
66859W        W26604  42.888  11.205   4.206
66860W        W26605  19.587  21.660  13.910
66861W        W26606  27.034  12.662  11.971
66862W        W26607  36.973  38.868  13.867
66863W        W26608   5.430  17.576   4.282
66864W        W26609  35.090  26.133   1.893
66865W        W26610  23.597  31.077  13.043
66866W        W26611  14.253   4.317   0.863
66867W        W26612  11.295  30.453   2.788
66868W        W26613  12.206  11.735  12.493
66869W        W26614  40.030  15.608  10.894
66870W        W26615  28.473  23.027  11.972
66871W        W26616  31.082   4.722  14.951
66872W        W26617   4.788  35.524   3.799
66873W        W26618  15.195   4.867  10.082
66874W        W26619  19.713  25.068   1.438
66875W        W26620  44.827  41.398  13.849
66876W        W26621  31.415  14.707   1.342
66877W        W26622  42.872  42.429   3.852
66878W        W26623   0.430  12.718  14.431
66879W        W26624  36.933  41.977  14.381
66880W        W26625  33.525  17.745   1.856
66881W        W26626   6.289  20.646   0.771
66882W        W26627  17.247  40.511   2.716
66883W        W26628  27.093   5.852  11.969
66884W        W26629  35.418  42.484   3.751
66885W        W26630  39.990  16.689   0.813
66886W        W26631  30.618  26.156  10.486
66887W        W26632  27.620  23.163  14.363
66888W        W26633  15.086  29.631   2.199
66889W        W26634  41.838  19.717  11.373
66890W        W26635  12.675  30.472   3.727
66891W        W26636  15.710  23.616  12.343
66892W        W26637  17.249  41.464  10.888
66893W        W26638   5.281  39.456  11.592
66894W        W26639  17.271  17.168  14.507
66895W        W26640  11.202  14.105   5.218
66896W        W26641  10.816  34.891   1.934
66897W        W26642  42.301   4.237   1.247
66898W        W26643  14.213  26.688   3.169
66899W        W26644   7.731  39.990  11.532
66900W        W26645  21.715  27.011   0.932
66901W        W26646  20.048  43.454  11.084
66902W        W26647  12.683  39.523   1.822
66903W        W26648  24.215   3.775  14.408
66904W        W26649  20.757  34.005   3.224
66905W        W26650  26.053  18.099  12.933
66906W        W26651  21.512  36.419  14.301
66907W        W26652  24.662   5.753  10.561
66908W        W26653   6.816  27.996  11.389
66909W        W26654  19.226  11.713   0.828
66910W        W26655  32.906  25.162   1.774
66911W        W26656  18.278  42.954  12.375
66912W        W26657   1.943  14.185  14.368
66913W        W26658  23.725  26.673   4.621
66914W        W26659   0.791  44.925   0.908
66915W        W26660   7.818  10.247  13.309
66916W        W26661  17.584  30.098   3.376
66917W        W26662   6.351  29.159  14.432
66918W        W26663  24.661  19.051  13.862
66919W        W26664  23.202  28.597   0.798
66920W        W26665  35.908   7.275   3.256
66921W        W26666  43.017   6.748   0.473
66922W        W26667   2.937   3.454  11.596
66923W        W26668   8.853  42.917  14.790
66924W        W26669  15.317  10.690  10.482
66925W        W26670  21.560  13.638  11.058
66926W        W26671  28.050  29.608  11.995
66927W        W26672  42.449  30.125  11.410
66928W        W26673  15.244  12.260  12.568
66929W        W26674  39.816  37.377  10.641
66930W        W26675   6.324  21.657  12.551
66931W        W26676  12.805  32.922  13.014
66932W        W26677  17.171  38.007  11.077
66933W        W26678   1.409  33.563  13.979
66934W        W26679   7.851  36.849   3.379
66935W        W26680  21.105  26.083   2.806
66936W        W26681  16.688  28.072  14.891
66937W        W26682  19.648   3.391   4.683
66938W        W26683   2.745  32.504   4.664
66939W        W26684  16.790  44.310   2.683
66940W        W26685  34.477   8.277   1.838
66941W        W26686  10.319  19.638   2.705
66942W        W26687  28.168   3.293  11.116
66943W        W26688  26.504  12.185  10.606
66944W        W26689  36.027  37.344  13.495
66945W        W26690  33.488  13.350   2.891
66946W        W26691  32.512  17.177   2.251
66947W        W26692   2.352   2.938   0.805
66948W        W26693  25.640  30.969  11.101
66949W        W26694   6.300   8.894  13.939
66950W        W26695  24.588  23.123   1.426
66951W        W26696  11.778  24.989  10.063
66952W        W26697  17.304  13.253   4.822
66953W        W26698  17.254  14.683  14.309
66954W        W26699  26.975  36.422   1.394
66955W        W26700  32.541  43.454   4.271
66956W        W26701   7.735  35.589  10.948
66957W        W26702  25.032  23.713  11.514
66958W        W26703  24.148  30.107   4.822
66959W        W26704  17.637   6.714   0.355
66960W        W26705  15.602  29.554   4.220
66961W        W26706  32.514  34.883  10.937
66962W        W26707  17.163   3.859  13.883
66963W        W26708   7.884   5.433  12.470
66964W        W26709  11.263  39.390   2.419
66965W        W26710  28.521  32.000  14.798
66966W        W26711  24.005   1.825  11.386
66967W        W26712  44.902  27.079  14.969
66968W        W26713  41.406  17.587   0.385
66969W        W26714   3.858  41.041  13.364
66970W        W26715  21.248  15.298   1.815
66971W        W26716   9.791  44.261  11.541
66972W        W26717   0.463   6.824   3.165
66973W        W26718  35.366   4.351  13.062
66974W        W26719  28.529  40.915   2.293
66975W        W26720   5.853  10.649  11.032
66976W        W26721  21.600  37.837   3.356
66977W        W26722  12.744  23.074   1.431
66978W        W26723  38.381  42.989  13.413
66979W        W26724  34.603  25.512   4.293
66980W        W26725   9.714  24.154  13.842
66981W        W26726  11.343  38.842  12.900
66982W        W26727  15.728   7.879   1.821
66983W        W26728  26.200  41.913   2.306
66984W        W26729  20.068  15.688   1.823
66985W        W26730   9.697   2.263  14.859
66986W        W26731  29.049   4.450   1.803
66987W        W26732  10.675  37.967  14.424
66988W        W26733   9.662  17.736   1.390
66989W        W26734  22.697   0.421  11.016
66990W        W26735  24.567  36.567  10.634
66991W        W26736  44.797  31.119   0.825
66992W        W26737  34.952   6.832  10.080
66993W        W26738   6.689  31.920   2.784
66994W        W26739  44.790  24.654  12.377
66995W        W26740  16.204  34.592  12.010
66996W        W26741  17.706  43.766   0.834
66997W        W26742  31.936   2.244  11.095
66998W        W26743  11.172  20.585  10.527
66999W        W26744   3.922  23.545   3.224
67000W        W26745  41.525   8.190  12.051
67001W        W26746  25.009  41.404   3.313
67002W        W26747  31.413  28.932  13.475
67003W        W26748  32.521   8.213   2.806
67004W        W26749  44.771  22.195  14.883
67005W        W26750  33.509  13.346  12.023
67006W        W26751  21.697  15.241   3.211
67007W        W26752   1.327  19.724  12.029
67008W        W26753  13.771  43.927  12.852
67009W        W26754  34.888  10.253  12.949
67010W        W26755  31.609  37.377  14.836
67011W        W26756  39.032  19.691   0.790
67012W        W26757   2.790  44.368  11.060
67013W        W26758  21.194  19.654  14.498
67014W        W26759  29.126  19.155  14.816
67015W        W26760  21.186   2.461   0.317
67016W        W26761  38.061  20.523  10.450
67017W        W26762   8.788   5.710  11.599
67018W        W26763   9.383  19.111   0.758
67019W        W26764   0.989  12.191  10.479
67020W        W26765  31.512   4.337  13.852
67021W        W26766  34.879  41.400   1.260
67022W        W26767  22.041  23.086   3.659
67023W        W26768   8.365   9.761  14.025
67024W        W26769  31.923  13.156  14.981
67025W        W26770   0.279  28.596  12.887
67026W        W26771   0.833  29.644   2.367
67027W        W26772   2.795   1.277  10.590
67028W        W26773   7.200   8.659   0.898
67029W        W26774   7.352  30.152  13.357
67030W        W26775  19.721  15.609  10.462
67031W        W26776  37.834  27.989   4.327
67032W        W26777  43.929  11.232   1.412
67033W        W26778  25.640   4.305   3.676
67034W        W26779  32.556  30.439  13.818
67035W        W26780  38.947  20.571   1.740
67036W        W26781   3.914  41.333   0.289
67037W        W26782  30.455  19.537  12.355
67038W        W26783  15.745  44.464  14.344
67039W        W26784  27.144  39.457  11.610
67040W        W26785  12.152  28.480   4.255
67041W        W26786  30.914  10.706   2.752
67042W        W26787   5.690  26.131  11.896
67043W        W26788  38.983  15.729   0.266
67044W        W26789  41.350  10.362   2.781
67045W        W26790  36.374  30.095  14.765
67046W        W26791   5.769  20.158   5.613
67047W        W26792  27.947  16.774  11.575
67048W        W26793  31.969  30.988  13.415
67049W        W26794  21.019  43.470   1.816
67050W        W26795  11.251  25.611   3.676
67051W        W26796  33.574   8.300  11.865
67052W        W26797  17.720  35.980  13.992
67053W        W26798  17.246   8.705   1.360
67054W        W26799  29.475   9.866   2.270
67055W        W26800  32.949  11.762   3.312
67056W        W26801   1.318  26.129  14.827
67057W        W26802   2.439  41.465   3.375
67058W        W26803   8.329  36.559   4.740
67059W        W26804  17.179  22.153  10.507
67060W        W26805  12.778   7.273   2.694
67061W        W26806   4.405  15.711   2.193
67062W        W26807   7.323  11.169   0.294
67063W        W26808  33.071  40.893   0.749
67064W        W26809  16.140  26.989   3.651
67065W        W26810   2.334  25.151  10.926
67066W        W26811  20.077  26.685   0.806
67067W        W26812  31.489  10.171   1.741
67068W        W26813  32.977  38.361   2.742
67069W        W26814  30.915   3.768   1.809
67070W        W26815   3.881  42.029  14.946
67071W        W26816  39.828  23.106  12.420
67072W        W26817  29.965  14.742   1.882
67073W        W26818   0.862   8.164   2.701
67074W        W26819  39.871  29.939   2.690
67075W        W26820  11.621  26.002  12.938
67076W        W26821   5.915   6.351  14.473
67077W        W26822  23.609   8.369  11.899
67078W        W26823   5.287  15.272   1.412
67079W        W26824  32.944   8.320  13.962
67080W        W26825  17.562   2.330   1.758
67081W        W26826  38.440  17.147  12.973
67082W        W26827   0.925   6.351   4.683
67083W        W26828  40.486   8.856   4.341
67084W        W26829  36.356  10.325   4.183
67085W        W26830  38.035  31.476   0.323
67086W        W26831  42.430   0.262   1.929
67087W        W26832   2.400   0.474  14.810
67088W        W26833  23.497  12.124   1.727
67089W        W26834  36.032  38.393  10.442
67090W        W26835  28.002   8.226   4.760
67091W        W26836  40.334  12.334  12.925
67092W        W26837  16.146  32.400   0.830
67093W        W26838  42.486  32.074  14.992
67094W        W26839  38.333   4.388   4.747
67095W        W26840  31.569  17.285  12.945
67096W        W26841  10.203   7.861  12.096
67097W        W26842  30.489   7.713  14.030
67098W        W26843   4.443  27.115   4.721
67099W        W26844   4.853   2.447  14.491
67100W        W26845  40.975  22.676   2.284
67101W        W26846  24.687  35.540   4.247
67102W        W26847  22.725  23.162  12.575
67103W        W26848  18.764  13.170  12.088
67104W        W26849  28.671  19.266   0.299
67105W        W26850   9.831  22.563   3.719
67106W        W26851  29.483  21.072  13.540
67107W        W26852  27.499  37.976  13.328
67108W        W26853   0.388  11.715   2.217
67109W        W26854  14.805  37.382   1.286
67110W        W26855   8.160  29.114  11.993
67111W        W26856  18.244  22.525   0.388
67112W        W26857  39.434  42.944  13.820
67113W        W26858  15.701  34.918   5.101
67114W        W26859  17.631  11.220  11.048
67115W        W26860   7.296  35.010  10.449
67116W        W26861  20.251   3.854  11.019
67117W        W26862  29.531  27.994   3.737
67118W        W26863  24.682  31.110   0.377
67119W        W26864  22.082  34.076   4.189
67120W        W26865  35.086  34.574   3.867
67121W        W26866  24.201  10.764   1.274
67122W        W26867   3.819  33.911  12.946
67123W        W26868   0.909  10.369   1.735
67124W        W26869  41.497  29.935   2.280
67125W        W26870   8.388  23.150  11.526
67126W        W26871   2.241  23.518   9.974
67127W        W26872  31.062  21.550  13.520
67128W        W26873  38.030   8.655   4.180
67129W        W26874  38.533   1.906   2.763
67130W        W26875  17.683  32.481   0.823
67131W        W26876   5.717  24.989  14.004
67132W        W26877  12.166  19.713  12.903
67133W        W26878  20.036  42.994   3.283
67134W        W26879  24.487  44.433  14.314
67135W        W26880  29.011  15.092   1.876
67136W        W26881  17.730  19.128  10.416
67137W        W26882  11.155   8.191  12.049
67138W        W26883  23.007  38.820  14.365
67139W        W26884  29.074  36.029  12.343
67140W        W26885  22.731  31.575   0.390
67141W        W26886   7.314  27.628  12.020
67142W        W26887  28.452  38.438  13.319
67143W        W26888  21.153  29.582  10.497
67144W        W26889  20.222  11.691   3.732
67145W        W26890  21.611   3.252  13.058
67146W        W26891  19.064  25.043  12.525
67147W        W26892  11.645  20.097   2.887
67148W        W26893  37.417  28.490  11.020
67149W        W26894  27.110  41.513  12.356
67150W        W26895  26.042   3.829   4.163
67151W        W26896  32.509   3.908   0.441
67152W        W26897  18.671   7.247   2.683
67153W        W26898  28.543  42.392   2.862
67154W        W26899  18.109  16.097   2.711
67155W        W26900   7.892  34.119  13.817
67156W        W26901  33.509  14.709  12.963
67157W        W26902  39.450   4.344   1.384
67158W        W26903  21.088  25.606  14.509
67159W        W26904  27.645   3.798   3.376
67160W        W26905  14.232   2.332  12.550
67161W        W26906  26.201  27.088   4.180
67162W        W26907  10.662  25.708   0.917
67163W        W26908  31.914   3.402  10.434
67164W        W26909   6.854  13.758  11.886
67165W        W26910  13.808  14.688   4.704
67166W        W26911   0.383  34.534   0.932
67167W        W26912  31.410   0.267   2.679
67168W        W26913  10.813   3.429   1.731
67169W        W26914  20.217  31.973  10.026
67170W        W26915   3.227  43.319  12.492
67171W        W26916  34.976  42.008   1.733
67172W        W26917  15.674  15.285   4.173
67173W        W26918  17.787  31.457  10.559
67174W        W26919  12.732  27.570  11.910
67175W        W26920  17.118  13.708  14.903
67176W        W26921  18.632  10.223   3.837
67177W        W26922  30.009  37.347  11.504
67178W        W26923  35.915   1.378   4.349
67179W        W26924  23.103  38.350   1.389
67180W        W26925   4.424  27.958   4.336
67181W        W26926  25.208  31.131  13.527
67182W        W26927  35.373  42.460   1.893
67183W        W26928  36.989  39.864  12.443
67184W        W26929  32.517   6.700   0.953
67185W        W26930  35.047  41.391   5.145
67186W        W26931  18.640  31.521   0.827
67187W        W26932  31.523  38.861   1.784
67188W        W26933   5.295   5.730  11.433
67189W        W26934   3.827  14.779  11.591
67190W        W26935  20.751  15.108   1.286
67191W        W26936  24.006  24.537  11.376
67192W        W26937  26.193  33.550  13.932
67193W        W26938  16.205  41.019  10.553
67194W        W26939   4.884  43.455  13.018
67195W        W26940  15.083   5.897   4.790
67196W        W26941   2.944   4.310  10.891
67197W        W26942  22.008  26.618   3.352
67198W        W26943  10.153  34.440  11.533
67199W        W26944  33.968  33.988  14.009
67200W        W26945  24.485  28.115  14.431
67201W        W26946  40.798   1.258  12.429
67202W        W26947  22.511  21.202   1.359
67203W        W26948  33.583  32.629   5.190
67204W        W26949  12.781  24.629   2.820
67205W        W26950   3.260  23.703   3.740
67206W        W26951   3.356  43.995  13.022
67207W        W26952  10.758   4.893  10.487
67208W        W26953  10.174   3.911   4.159
67209W        W26954   5.289  40.428   4.788
67210W        W26955  41.906  33.995  12.378
67211W        W26956  32.453  24.182  11.439
67212W        W26957   3.336   8.189  11.888
67213W        W26958  36.884  21.693   1.805
67214W        W26959  33.892  30.435  14.805
67215W        W26960  13.153   6.748   4.700
67216W        W26961  26.495  32.518   5.322
67217W        W26962  32.553  25.073  13.362
67218W        W26963   0.861  20.234   4.294
67219W        W26964   1.897   6.921   3.313
67220W        W26965  28.607   7.243   2.241
67221W        W26966  24.060  24.696  13.926
67222W        W26967  20.625  28.564  13.448
67223W        W26968   7.405   8.792   1.741
67224W        W26969   0.318  36.454  14.863
67225W        W26970  38.420  44.312  13.011
67226W        W26971  19.197  14.629  10.425
67227W        W26972  11.660  18.159   3.868
67228W        W26973  42.950  41.985   2.817
67229W        W26974  43.954  11.677  11.030
67230W        W26975  21.693  42.910   3.726
67231W        W26976  11.359   5.422   0.853
67232W        W26977   9.245   2.836   1.930
67233W        W26978  14.295   1.453  14.360
67234W        W26979  36.895  34.955  13.932
67235W        W26980  11.803   0.367   2.374
67236W        W26981  16.089   7.352  14.370
67237W        W26982   0.486  33.520   1.912
67238W        W26983  26.520  21.137   3.183
67239W        W26984  21.067  18.249  14.775
67240W        W26985  30.533  18.282  10.611
67241W        W26986  14.165  25.136  12.868
67242W        W26987  13.297  43.309  14.367
67243W        W26988  12.332  34.538  14.289
67244W        W26989  44.782  11.621   2.411
67245W        W26990  11.779  29.149  12.051
67246W        W26991  23.029  33.392  13.464
67247W        W26992  25.015  40.401  10.595
67248W        W26993  25.137  27.456  12.849
67249W        W26994  11.347  30.461  14.879
67250W        W26995  33.387   1.880   1.386
67251W        W26996  28.009  28.148  12.419
67252W        W26997  39.870  14.753   4.815
67253W        W26998  28.955   5.267  12.465
67254W        W26999   2.855  40.801  11.009
67255W        W27000  33.921  21.662   2.214
67256W        W27001  29.519  28.002   4.155
67257W        W27002  19.726  32.970   1.245
67258W        W27003  36.036   5.763  11.058
67259W        W27004  19.701   0.961   0.356
67260W        W27005  11.707  23.641   1.417
67261W        W27006  21.222  20.706  12.875
67262W        W27007  44.939  12.827   2.684
67263W        W27008   7.676  14.220   3.255
67264W        W27009  23.106  12.142  10.983
67265W        W27010   4.823  20.203   0.322
67266W        W27011  39.482  20.706   2.809
67267W        W27012   6.270   3.878  14.004
67268W        W27013   9.356   8.803   0.414
67269W        W27014   2.472   3.947  14.936
67270W        W27015  15.721  16.084  11.424
67271W        W27016  28.007  24.659  13.465
67272W        W27017  15.741  18.586  13.349
67273W        W27018   2.380  17.177  10.059
67274W        W27019  34.430  43.292  10.581
67275W        W27020  35.002  29.995  12.919
67276W        W27021  28.072  40.801   2.335
67277W        W27022   6.388  19.277   3.808
67278W        W27023  35.502  31.039  11.070
67279W        W27024  13.634  33.390   0.397
67280W        W27025  39.408   1.342  12.930
67281W        W27026  20.627  32.627  14.968
67282W        W27027   7.802  43.919  11.125
67283W        W27028  39.944  42.802   1.719
67284W        W27029  34.088  24.705   0.826
67285W        W27030  11.243  28.128   2.673
67286W        W27031  21.730   5.769   2.295
67287W        W27032  12.130  11.230  10.522
67288W        W27033  35.016   7.249   2.355
67289W        W27034   9.287  34.067   1.228
67290W        W27035   1.259   0.985   3.362
67291W        W27036  31.992   7.379  13.911
67292W        W27037   7.377  38.009  14.297
67293W        W27038  30.549  22.618   0.464
67294W        W27039  33.596  40.814   4.620
67295W        W27040   9.322  25.660   1.270
67296W        W27041   3.223  30.050   0.770
67297W        W27042  37.451  41.328   3.718
67298W        W27043  19.707   1.823   2.667
67299W        W27044  16.734  30.640   0.965
67300W        W27045  38.526   1.429   3.234
67301W        W27046  10.270  33.067  11.025
67302W        W27047  12.699  21.144  11.957
67303W        W27048   5.435   6.831  13.453
67304W        W27049  40.371  26.095  11.943
67305W        W27050  14.600  15.262  14.875
67306W        W27051  21.143  20.598  10.432
67307W        W27052  26.672  10.827  12.828
67308W        W27053  28.592  36.996  11.575
67309W        W27054  28.108   6.918   4.694
67310W        W27055   7.814  31.134  10.550
67311W        W27056   0.312  42.442  14.848
67312W        W27057  31.512  26.053   0.409
67313W        W27058  14.152  42.839   2.717
67314W        W27059  24.700  31.543   3.332
67315W        W27060  27.107  10.861  13.842
67316W        W27061  30.023  36.543  14.811
67317W        W27062  24.976  12.213  11.039
67318W        W27063  35.108  43.295  13.063
67319W        W27064  25.474   1.835  11.086
67320W        W27065  19.187  11.766   1.414
67321W        W27066   9.827   4.812   0.752
67322W        W27067  28.644  14.781   1.431
67323W        W27068   3.257  13.277   3.848
67324W        W27069  11.337  11.189   4.782
67325W        W27070  32.051  21.109   2.401
67326W        W27071   2.752  21.163   2.778
67327W        W27072  22.171  44.939   9.609
67328W        W27073   5.222   3.312   0.931
67329W        W27074  43.012  41.343  14.910
67330W        W27075  20.752  44.345  13.957
67331W        W27076  28.448  36.999   0.845
67332W        W27077  26.482  42.822   0.300
67333W        W27078  40.968  19.238  14.025
67334W        W27079   5.288  33.488   1.764
67335W        W27080  38.010  39.433  12.953
67336W        W27081  28.494   8.731   3.749
67337W        W27082  33.059  34.885   0.747
67338W        W27083  35.572   8.683   0.355
67339W        W27084  21.111  37.390  10.403
67340W        W27085  16.707  23.154   2.396
67341W        W27086  19.756  30.942   0.249
67342W        W27087  15.134  22.504   4.294
67343W        W27088  18.202  37.032  14.502
67344W        W27089   7.876  36.400  13.839
67345W        W27090  43.797  30.063   3.331
67346W        W27091  36.353  24.190   2.401
67347W        W27092  39.546  28.171  10.899
67348W        W27093   0.251   0.872   1.384
67349W        W27094  18.637  20.044  13.353
67350W        W27095  35.893  40.330   2.223
67351W        W27096   1.863  44.305   0.259
67352W        W27097  20.689  12.184  10.603
67353W        W27098   2.932  23.682   4.607
67354W        W27099  26.109  28.957  14.008
67355W        W27100   4.445  26.067   4.324
67356W        W27101  31.007  10.691   2.394
67357W        W27102  24.591  15.664   0.451
67358W        W27103  35.563   1.961  12.838
67359W        W27104   4.875  16.722  10.994
67360W        W27105  22.166  29.059  14.458
67361W        W27106  13.616   3.297   0.871
67362W        W27107  36.485  28.501   3.752
67363W        W27108  25.483  19.239  10.957
67364W        W27109  20.270  37.080  14.488
67365W        W27110  39.444   7.405   2.771
67366W        W27111  26.975  23.074   0.736
67367W        W27112   2.821  20.193   2.190
67368W        W27113  30.103   5.382  14.902
67369W        W27114   2.815  29.020  13.995
67370W        W27115  14.222  27.033  10.931
67371W        W27116  44.880  17.591  13.888
67372W        W27117  15.771  35.097  14.894
67373W        W27118  27.162  13.179  12.386
67374W        W27119  31.037  26.700  10.418
67375W        W27120  43.887  26.101   4.204
67376W        W27121  12.169   6.374   3.298
67377W        W27122  17.604  15.213  13.885
67378W        W27123  12.740  33.411   2.864
67379W        W27124   6.379  28.058  11.107
67380W        W27125  44.777  34.061   3.823
67381W        W27126  41.850  16.133  14.961
67382W        W27127  18.561  18.138   2.293
67383W        W27128  41.955  25.983  14.479
67384W        W27129   2.364  28.977  12.037
67385W        W27130  25.710  30.135   2.710
67386W        W27131  23.194  29.941  11.075
67387W        W27132  20.046  18.270  13.813
67388W        W27133  15.598  14.256  10.595
67389W        W27134  17.221   9.154   1.806
67390W        W27135   4.867  27.973   0.727
67391W        W27136   9.841  14.264  12.489
67392W        W27137  37.037  13.788   1.394
67393W        W27138  21.553  12.714   3.238
67394W        W27139  10.305   5.282   2.222
67395W        W27140  34.897  18.121   0.836
67396W        W27141  17.724   9.812  11.567
67397W        W27142  28.652   1.893  13.001
67398W        W27143  30.093  10.671  10.430
67399W        W27144  14.791  24.699   2.337
67400W        W27145  28.148  36.534   4.743
67401W        W27146  15.813   6.833   1.396
67402W        W27147  32.552  36.410  10.482
67403W        W27148  23.996  10.296   0.351
67404W        W27149  20.697  37.552   3.227
67405W        W27150  24.621  22.138  14.790
67406W        W27151   9.732  25.024   3.676
67407W        W27152  16.181  19.169   0.916
67408W        W27153  32.509   8.718   0.380
67409W        W27154  17.593   9.800  13.426
67410W        W27155  29.922  38.461  13.350
67411W        W27156  29.154  34.559  11.931
67412W        W27157  41.307   4.309  12.495
67413W        W27158  44.324  36.862   1.743
67414W        W27159  28.023  37.373  11.902
67415W        W27160  22.735   7.189  10.568
67416W        W27161  27.115  13.209   1.228
67417W        W27162  38.458  17.625  11.917
67418W        W27163  18.147  27.022   4.712
67419W        W27164  37.848  13.693  14.477
67420W        W27165   7.403   3.911   1.822
67421W        W27166  41.949  36.035  13.396
67422W        W27167  28.485   7.676   9.992
67423W        W27168  44.766  40.942   0.792
67424W        W27169   0.327  22.615   4.621
67425W        W27170  10.810   3.942   1.440
67426W        W27171  37.911   4.848  12.094
67427W        W27172  10.726  36.894   2.275
67428W        W27173  32.130  16.581   0.460
67429W        W27174  29.664  10.855   0.929
67430W        W27175  38.845  18.778  14.027
67431W        W27176   2.915   4.770   2.727
67432W        W27177   1.892  14.322   0.779
67433W        W27178  11.242  23.028  12.903
67434W        W27179  37.899  40.478   0.965
67435W        W27180   2.294  24.612   1.436
67436W        W27181   1.253  22.620   3.765
67437W        W27182  23.544  21.571  11.892
67438W        W27183  15.746  13.218   2.398
67439W        W27184   7.221  18.290   2.788
67440W        W27185  10.832  12.203  13.813
67441W        W27186  43.313  20.652   3.339
67442W        W27187  19.138  33.611  12.860
67443W        W27188  25.153  13.618  12.358
67444W        W27189  23.155   0.849   1.879
67445W        W27190  26.486  25.504  11.021
67446W        W27191   5.321  31.110   0.351
67447W        W27192  29.146  41.358   0.439
67448W        W27193  21.250   3.770  14.505
67449W        W27194  44.473  39.905   1.857
67450W        W27195  36.996  11.679  11.925
67451W        W27196  23.126   4.905  14.483
67452W        W27197   0.419  41.464  14.424
67453W        W27198  20.130  10.706   2.825
67454W        W27199  25.493  40.805   2.234
67455W        W27200  16.656  36.353  12.885
67456W        W27201  13.834  16.761   4.255
67457W        W27202  10.244  24.509   2.832
67458W        W27203  32.564   7.416  11.445
67459W        W27204  20.215   5.203   1.274
67460W        W27205  22.093   9.709   2.201
67461W        W27206  15.621   6.213  10.915
67462W        W27207  20.208  43.768   3.675
67463W        W27208  42.418   6.727  11.878
67464W        W27209  38.977  22.631  10.592
67465W        W27210  10.187  40.920   0.263
67466W        W27211  20.062  34.972   2.778
67467W        W27212  40.306  42.883   4.243
67468W        W27213  44.278  14.145   3.349
67469W        W27214  13.226  37.345   4.744
67470W        W27215   7.182   5.782  11.112
67471W        W27216   6.861  18.285  12.901
67472W        W27217   2.867  30.522   3.153
67473W        W27218  27.111  34.549  14.304
67474W        W27219  44.459  17.771   2.370
67475W        W27220   3.736  31.566  13.893
67476W        W27221  14.759  15.585  14.437
67477W        W27222   1.911   5.927  13.823
67478W        W27223  26.993   5.261  13.411
67479W        W27224  11.828   9.309   0.373
67480W        W27225  40.331   1.924  13.851
67481W        W27226  29.631   6.889  14.846
67482W        W27227  43.007  14.269  13.925
67483W        W27228  27.080  39.055  12.092
67484W        W27229  15.630  36.955   1.374
67485W        W27230  23.063  41.516  11.452
67486W        W27231  44.453  27.641   0.296
67487W        W27232   8.713  39.534   0.958
67488W        W27233  15.283   1.426   1.778
67489W        W27234  43.315  34.985   1.251
67490W        W27235  31.014  32.990   4.154
67491W        W27236  17.065  36.495  12.937
67492W        W27237  40.334   4.240  11.384
67493W        W27238   4.249  10.852   0.287
67494W        W27239  22.133  23.532   2.194
67495W        W27240  37.845  24.169  12.038
67496W        W27241  13.145  21.603   2.294
67497W        W27242  31.905  25.710  14.947
67498W        W27243  13.710  21.582  14.770
67499W        W27244  28.013  22.524  12.078
67500W        W27245   8.870  16.077   2.675
67501W        W27246   6.711   4.780   3.639
67502W        W27247  32.023  38.023   0.366
67503W        W27248  27.545   1.442   4.763
67504W        W27249  14.798  42.427   4.746
67505W        W27250  32.909  29.449   2.700
67506W        W27251   1.933  31.447  11.492
67507W        W27252  30.982  44.411  14.363
67508W        W27253  43.794   0.908   3.642
67509W        W27254  39.905  40.835   1.763
67510W        W27255  20.211  30.419  14.443
67511W        W27256   5.274  38.980  13.512
67512W        W27257  28.639  20.647  12.835
67513W        W27258  14.159  15.199  11.947
67514W        W27259  17.610  14.206  10.897
67515W        W27260   2.352   0.845   2.343
67516W        W27261  43.476  18.585   4.613
67517W        W27262   1.937  39.005  12.920
67518W        W27263  21.734   4.222   2.877
67519W        W27264   2.825  39.049  12.390
67520W        W27265  14.643  18.657  11.066
67521W        W27266  33.966  39.954  10.546
67522W        W27267  26.696   3.818   2.214
67523W        W27268  16.684  28.546  12.991
67524W        W27269  37.931  20.639   3.826
67525W        W27270  11.267  39.027   1.815
67526W        W27271  12.641  14.100   0.317
67527W        W27272  27.998  30.489  13.935
67528W        W27273  12.769  19.039   4.149
67529W        W27274  38.991  14.590   4.603
67530W        W27275   1.743  21.523  13.544
67531W        W27276  33.917  37.895   4.176
67532W        W27277  31.562   9.163  13.537
67533W        W27278  16.146  31.088   0.367
67534W        W27279  23.154   3.881   1.897
67535W        W27280  13.231  13.799  13.973
67536W        W27281  16.211  31.148   1.932
67537W        W27282   0.282  36.072  10.507
67538W        W27283   9.861   6.329   1.819
67539W        W27284   5.379  22.542  14.894
67540W        W27285  22.063  31.457   2.260
67541W        W27286  24.081  43.915   0.790
67542W        W27287  29.021   2.430   4.704
67543W        W27288   1.734  13.798   4.708
67544W        W27289  39.024  36.969  13.357
67545W        W27290  11.651   9.758  11.905
67546W        W27291   0.742   4.314   4.197
67547W        W27292   2.241  24.483  10.493
67548W        W27293  32.441   8.238  14.934
67549W        W27294  18.093  16.155  13.836
67550W        W27295  44.390  27.467   2.242
67551W        W27296  25.213  23.656  12.866
67552W        W27297  40.545   2.313   1.401
67553W        W27298  42.894   6.276   2.677
67554W        W27299   9.890  30.014   0.808
67555W        W27300  16.678  21.634  12.507
67556W        W27301   3.451  33.118   1.323
67557W        W27302  43.442  37.867  11.374
67558W        W27303  29.426   5.789   3.806
67559W        W27304  10.853  38.845  13.530
67560W        W27305  43.349  13.743   0.826
67561W        W27306  30.589   9.352   3.282
67562W        W27307  22.684  12.664  11.389
67563W        W27308  31.996  25.685   3.231
67564W        W27309  19.681   5.341  11.494
67565W        W27310  24.505  17.573  14.287
67566W        W27311  12.246  33.617   4.284
67567W        W27312  40.020  36.487  12.347
67568W        W27313   3.756  14.246  14.012
67569W        W27314  16.762  21.065   4.724
67570W        W27315  38.962  14.339  12.524
67571W        W27316  19.193  16.091  14.487
67572W        W27317  16.230  35.543   3.319
67573W        W27318  15.688  25.080   3.347
67574W        W27319  44.433  17.576   4.346
67575W        W27320  31.110  25.481   1.310
67576W        W27321  16.760  40.524   1.233
67577W        W27322  33.563  29.513  11.020
67578W        W27323  28.946  22.243  14.847
67579W        W27324  27.543  41.469  12.828
67580W        W27325  15.731  16.131   1.897
67581W        W27326  32.971  16.728   2.835
67582W        W27327  14.156  15.790  14.898
67583W        W27328  38.986   6.377  13.872
67584W        W27329  33.938  16.111   1.716
67585W        W27330  29.494  37.958  14.843
67586W        W27331  23.537   4.447  14.463
67587W        W27332  30.985  15.624   1.333
67588W        W27333  11.807  21.737  13.831
67589W        W27334  16.181  12.764  11.945
67590W        W27335  31.532  41.438  12.873
67591W        W27336  18.131  11.173  11.878
67592W        W27337  42.462   4.396   0.727
67593W        W27338  13.639  41.871  13.462
67594W        W27339  21.140  14.270  14.822
67595W        W27340  31.533   2.853  11.071
67596W        W27341  30.547  31.466   4.600
67597W        W27342  40.348  40.017   2.873
67598W        W27343   5.790  15.086   1.746
67599W        W27344  17.790  14.634  10.927
67600W        W27345  23.539   6.382  14.304
67601W        W27346   2.364  12.642  12.464
67602W        W27347   8.817  36.575  13.529
67603W        W27348  15.190  44.296   0.246
67604W        W27349  23.565  21.589  11.423
67605W        W27350   8.353  14.230  13.053
67606W        W27351  22.218  30.062   1.388
67607W        W27352  27.149  32.949  13.862
67608W        W27353  15.120  14.802   1.218
67609W        W27354   5.867  37.936   0.946
67610W        W27355   3.923   7.323  13.909
67611W        W27356  25.087  37.438  12.426
67612W        W27357  40.969  32.987   3.642
67613W        W27358   8.751  34.045   4.739
67614W        W27359  17.564  21.250   3.737
67615W        W27360  30.943  16.202  10.503
67616W        W27361  26.089   4.311  14.469
67617W        W27362  20.661  41.002  12.361
67618W        W27363  24.084   8.657  13.424
67619W        W27364   3.760  24.667   4.626
67620W        W27365  32.134  14.268  11.486
67621W        W27366   6.184   5.774   3.682
67622W        W27367  36.849  14.714  14.889
67623W        W27368   9.238  25.219  10.642
67624W        W27369  26.490  33.123  13.367
67625W        W27370  39.958  32.449   3.811
67626W        W27371  30.917   5.797  14.779
67627W        W27372  13.173  10.348  10.600
67628W        W27373  11.170  23.595   4.323
67629W        W27374   5.204  32.635   3.231
67630W        W27375  26.515  33.531   1.856
67631W        W27376  22.071  41.354   0.845
67632W        W27377  34.529   7.305   4.793
67633W        W27378   1.245  35.873  14.862
67634W        W27379  29.992  38.044   4.674
67635W        W27380  42.777  41.354   4.335
67636W        W27381  32.617   5.816  12.416
67637W        W27382  43.890  24.553  13.408
67638W        W27383  33.474   2.421  12.533
67639W        W27384   8.688  42.804   1.404
67640W        W27385  21.138  16.799   4.148
67641W        W27386  36.888  17.715   4.124
67642W        W27387  18.579  26.552   4.616
67643W        W27388  28.141   1.757  14.417
67644W        W27389   3.218  37.562  11.559
67645W        W27390  22.543  30.018  13.904
67646W        W27391  12.254  36.001   2.390
67647W        W27392  14.645  39.362   5.751
67648W        W27393  15.168  28.505   3.677
67649W        W27394  32.040  32.581   0.424
67650W        W27395  27.622  35.927   2.828
67651W        W27396  43.767  44.880   4.790
67652W        W27397   4.699  28.037   1.306
67653W        W27398  38.843  18.129  11.094
67654W        W27399  25.487  13.761   5.188
67655W        W27400  28.509  33.442   3.829
67656W        W27401  27.985  33.521  10.973
67657W        W27402   8.273  31.920   4.617
67658W        W27403  15.205  29.483  13.535
67659W        W27404  43.296  14.615  11.506
67660W        W27405  32.066   0.840   0.938
67661W        W27406  25.148  36.030   4.709
67662W        W27407   3.461  36.970   9.601
67663W        W27408  42.777  40.950   0.388
67664W        W27409  13.701  35.488   3.796
67665W        W27410  37.022   6.295   0.740
67666W        W27411  35.499  26.992   0.902
67667W        W27412   0.800   9.294  10.943
67668W        W27413  25.084  22.008   1.447
67669W        W27414  42.496  23.116  12.567
67670W        W27415   4.439   3.926  11.593
67671W        W27416  13.288  27.136   1.385
67672W        W27417  15.220  44.829   0.965
67673W        W27418  28.966  33.403   4.301
67674W        W27419  30.468  31.579   2.374
67675W        W27420  44.410  23.084  11.977
67676W        W27421  29.974  24.113   2.180
67677W        W27422  35.053  41.524   0.813
67678W        W27423  26.616  21.018   4.350
67679W        W27424   3.952  20.645   0.766
67680W        W27425  27.173  11.286   0.965
67681W        W27426  44.446  15.130  14.909
67682W        W27427  38.966  18.163  13.435
67683W        W27428  36.897  10.849   0.331
67684W        W27429  24.591  31.042   2.189
67685W        W27430   3.324  16.577  11.497
67686W        W27431  26.611  18.617   3.702
67687W        W27432  34.420  40.852  12.912
67688W        W27433   6.364   9.727  13.865
67689W        W27434  17.073   0.456  13.537
67690W        W27435  23.563  40.401  12.344
67691W        W27436  44.467  11.260  12.874
67692W        W27437  18.636   1.253  13.485
67693W        W27438  12.800   6.262   1.268
67694W        W27439  37.482  13.141  11.022
67695W        W27440  30.020   9.864  10.501
67696W        W27441  39.516  41.430   0.851
67697W        W27442  35.598  44.958   3.722
67698W        W27443  41.807  30.571   0.959
67699W        W27444   9.782  18.165  14.399
67700W        W27445  15.618  25.678  14.414
67701W        W27446  15.154  37.019   3.328
67702W        W27447  14.253  18.115  14.840
67703W        W27448  19.729   6.746   2.395
67704W        W27449  37.970  43.909  12.081
67705W        W27450  16.204  23.557  14.909
67706W        W27451  11.825  23.658  13.308
67707W        W27452  15.321   3.879   1.811
67708W        W27453  24.487  41.895   3.300
67709W        W27454  13.167  34.481  12.857
67710W        W27455  42.895  29.125  12.535
67711W        W27456   3.369  17.651  14.020
67712W        W27457  37.005  41.415  11.975
67713W        W27458   9.394  17.645  12.427
67714W        W27459  42.332  39.038  14.449
67715W        W27460   6.268  11.623   5.161
67716W        W27461   3.356  38.987  12.937
67717W        W27462  11.335   6.390  13.329
67718W        W27463  16.138   1.400  12.938
67719W        W27464  44.876   5.746   3.676
67720W        W27465  36.367  24.531   2.847
67721W        W27466  19.546  43.858   1.394
67722W        W27467  14.803  26.702   0.785
67723W        W27468   3.252  26.081  10.460
67724W        W27469   4.404   1.299   2.875
67725W        W27470   9.365  42.955   1.213
67726W        W27471  41.522  31.105  12.094
67727W        W27472  30.115  16.622   9.529
67728W        W27473   0.354   6.342   4.328
67729W        W27474  31.117  26.667  11.541
67730W        W27475  35.978  18.681  13.329
67731W        W27476   2.373   7.756   3.669
67732W        W27477  17.685   3.825   1.859
67733W        W27478   1.896   6.869   4.301
67734W        W27479   3.723  27.521   2.896
67735W        W27480   0.887  33.915   5.190
67736W        W27481   7.766  17.260   3.871
67737W        W27482   5.289  28.973  11.373
67738W        W27483  20.546  22.660  14.966
67739W        W27484  35.933  10.176  12.502
67740W        W27485   8.819  28.947  10.446
67741W        W27486  28.992  41.941   1.833
67742W        W27487  30.967  18.589  11.505
67743W        W27488  42.833  31.456  14.458
67744W        W27489   8.883  23.207   4.679
67745W        W27490  24.153  11.775   9.941
67746W        W27491  35.929  42.033  14.761
67747W        W27492  10.821   2.426   4.276
67748W        W27493  24.636  17.711  13.323
67749W        W27494  32.582   0.451  13.048
67750W        W27495  20.151   8.710   2.818
67751W        W27496  38.566  21.549   0.857
67752W        W27497   3.816   5.281   4.697
67753W        W27498  15.287   0.462   0.443
67754W        W27499  11.768  30.062  13.807
67755W        W27500  43.273   2.756  14.949
67756W        W27501   9.197  18.553   3.669
67757W        W27502  18.691   4.315  12.491
67758W        W27503  42.950   1.755   3.858
67759W        W27504  19.625  22.660  10.998
67760W        W27505  16.267  28.998  10.998
67761W        W27506  14.144  39.950   2.200
67762W        W27507  24.168  29.034   4.816
67763W        W27508   7.197  11.153   4.652
67764W        W27509  29.513  44.276   3.694
67765W        W27510   2.244  41.891  11.592
67766W        W27511  31.634   6.408   2.810
67767W        W27512  23.200  42.907   3.183
67768W        W27513   2.427   9.197   0.395
67769W        W27514  44.340  41.873  13.834
67770W        W27515  13.213  37.367  13.970
67771W        W27516   5.216  41.452   1.369
67772W        W27517  37.556  34.397  13.910
67773W        W27518  14.813  27.493  10.934
67774W        W27519  37.386  17.133   3.345
67775W        W27520  37.359   9.298  14.849
67776W        W27521  17.216  27.503  11.032
67777W        W27522  23.681  41.887   0.913
67778W        W27523  44.395   3.436   3.371
67779W        W27524  23.629  24.139   3.669
67780W        W27525  19.632  17.714  11.543
67781W        W27526  25.642  38.459  12.536
67782W        W27527  20.077  25.637   0.739
67783W        W27528  44.392  31.421  12.855
67784W        W27529  42.440  43.504   1.360
67785W        W27530  28.094  21.119  11.543
67786W        W27531  34.429  12.270   4.293
67787W        W27532   0.351  10.363   2.321
67788W        W27533  39.426  25.050  13.471
67789W        W27534  31.906  30.461   4.728
67790W        W27535   1.915  40.534   0.956
67791W        W27536  10.343  13.293   1.284
67792W        W27537  30.095  15.310  11.479
67793W        W27538  20.654  13.629   2.756
67794W        W27539  22.161  11.304  10.571
67795W        W27540  15.327  28.589  10.498
67796W        W27541  15.160   0.252   3.845
67797W        W27542   6.755  15.305   4.661
67798W        W27543  28.949  41.946  14.876
67799W        W27544   5.362   2.406   1.251
67800W        W27545  16.179  16.578  11.379
67801W        W27546  11.842   0.753   0.290
67802W        W27547  36.574  34.989   4.191
67803W        W27548  33.914  29.553   0.929
67804W        W27549  24.654   6.273   4.190
67805W        W27550  11.257   8.836  13.931
67806W        W27551   9.377   3.243   3.854
67807W        W27552   7.307  38.867  11.907
67808W        W27553  24.529  42.455   1.316
67809W        W27554  13.725  11.754   2.223
67810W        W27555  13.615  22.545   2.683
67811W        W27556   5.198  23.729   3.164
67812W        W27557   9.181  23.183  13.320
67813W        W27558   5.803  18.651   1.288
67814W        W27559   0.933  17.670  10.158
67815W        W27560  20.219  29.056   1.892
67816W        W27561  23.008  38.825   2.183
67817W        W27562  12.291  26.552  14.405
67818W        W27563  31.569  40.851  13.365
67819W        W27564  26.647   3.329   3.204
67820W        W27565  44.861   9.385   2.876
67821W        W27566  22.072   4.862   0.883
67822W        W27567  17.793  15.169  12.511
67823W        W27568  41.805   9.776  14.354
67824W        W27569  28.088  14.623   1.854
67825W        W27570  18.215   4.433  14.402
67826W        W27571  34.472  43.852  11.992
67827W        W27572  44.340  42.455  13.501
67828W        W27573  35.936  28.675  12.900
67829W        W27574  13.717  30.933   3.337
67830W        W27575  32.071   3.238   2.842
67831W        W27576   9.755  41.896   3.155
67832W        W27577  33.390  35.457  14.279
67833W        W27578  21.099  35.465  12.964
67834W        W27579  32.129  36.443   4.256
67835W        W27580   4.901  10.194   4.597
67836W        W27581  14.266  42.006   4.318
67837W        W27582  22.688  18.094  11.882
67838W        W27583  19.553  24.084  12.389
67839W        W27584  23.184  39.544  14.012
67840W        W27585   9.364  17.708   1.370
67841W        W27586  44.783  35.897   1.443
67842W        W27587  14.179  24.093  13.951
67843W        W27588  25.653  20.240  10.580
67844W        W27589   1.300  36.578   3.255
67845W        W27590  36.848   0.744  13.894
67846W        W27591  29.102  11.714   4.697
67847W        W27592  34.903  44.304  11.531
67848W        W27593   1.357   5.314  12.854
67849W        W27594  32.891  35.945  12.395
67850W        W27595  14.777  15.640   1.775
67851W        W27596  44.388  27.142  11.510
67852W        W27597   4.396  16.103   0.797
67853W        W27598  44.908  33.116  11.113
67854W        W27599  13.747  10.764  10.493
67855W        W27600  19.152  16.181  12.404
67856W        W27601   4.278  44.003  12.511
67857W        W27602  21.539  35.577  11.926
67858W        W27603  29.484  32.139  12.087
67859W        W27604  40.905   1.368   4.349
67860W        W27605  26.510   7.374  14.305
67861W        W27606  19.677  30.467  11.889
67862W        W27607   6.425  31.517  10.926
67863W        W27608  40.398   8.667  13.039
67864W        W27609  22.052  22.224   4.287
67865W        W27610  10.696  37.001   0.765
67866W        W27611   5.273  37.481  11.990
67867W        W27612  22.093  29.981  11.951
67868W        W27613  38.420   6.358   0.928
67869W        W27614  28.603  26.570  10.918
67870W        W27615  32.452   1.760  11.541
67871W        W27616   5.438  18.722  14.476
67872W        W27617  31.063  21.142   1.698
67873W        W27618   6.382  43.292   1.761
67874W        W27619   4.374  12.247  14.892
67875W        W27620  26.508  29.130  12.051
67876W        W27621  40.967  32.545  13.994
67877W        W27622  12.745  10.821  13.343
67878W        W27623  15.656  30.552  10.941
67879W        W27624  20.062  21.614   3.315
67880W        W27625   5.387   1.964   4.636
67881W        W27626  21.707  10.192   4.354
67882W        W27627  22.730  20.564  14.395
67883W        W27628  14.206  19.100  13.828
67884W        W27629   1.374  12.180  10.459
67885W        W27630  17.109   3.833  11.070
67886W        W27631  39.989   7.248  12.885
67887W        W27632   9.283   3.232  12.517
67888W        W27633  43.288  42.897  12.460
67889W        W27634  26.149  32.128   1.732
67890W        W27635  10.159  15.224  12.985
67891W        W27636  11.630  35.407   0.278
67892W        W27637  39.955  21.681  13.386
67893W        W27638   5.931  35.394  11.924
67894W        W27639  25.468  35.529   2.807
67895W        W27640  30.434  19.779  13.460
67896W        W27641  16.274  34.509   4.220
67897W        W27642  20.588   4.884  14.767
67898W        W27643   7.242  37.949  13.418
67899W        W27644  10.338   9.876  13.503
67900W        W27645  36.082  13.603  11.459
67901W        W27646  21.040  27.516   1.809
67902W        W27647  24.693   4.765  14.407
67903W        W27648  31.135  29.965  12.413
67904W        W27649   9.888  13.258  14.945
67905W        W27650  11.352  12.835  11.519
67906W        W27651  13.139  19.746   1.819
67907W        W27652   2.867  36.487  11.881
67908W        W27653  21.580  19.644   0.429
67909W        W27654   9.784  13.779  14.972
67910W        W27655  27.153  33.113   3.718
67911W        W27656  18.702  27.483  11.525
67912W        W27657  22.995  44.464  14.332
67913W        W27658   7.204  22.042  11.456
67914W        W27659   9.728  13.654   1.707
67915W        W27660   9.664  10.176  12.860
67916W        W27661   2.383  41.444   4.768
67917W        W27662   5.349  32.567   4.127
67918W        W27663  37.984  44.881  14.778
67919W        W27664  31.129  28.087   4.158
67920W        W27665   7.299  20.166   0.867
67921W        W27666  41.414  16.208   3.654
67922W        W27667  28.971   1.739  12.016
67923W        W27668   1.787  18.738  12.427
67924W        W27669  11.806  37.359  11.405
67925W        W27670  44.367  11.262  13.506
67926W        W27671  10.317   0.255  10.409
67927W        W27672  21.615  31.933   2.373
67928W        W27673  14.112  13.322   1.914
67929W        W27674  10.223  39.545  13.056
67930W        W27675  17.732  30.026   3.656
67931W        W27676  17.276   0.766  12.053
67932W        W27677  35.523  34.457   2.341
67933W        W27678  34.064   1.465  14.868
67934W        W27679  21.679  19.595  14.793
67935W        W27680  35.399  11.287  11.602
67936W        W27681  36.435  42.447  14.392
67937W        W27682   7.199  33.611   1.264
67938W        W27683  23.089   8.861  10.906
67939W        W27684  20.196   0.293  13.401
67940W        W27685   9.677  29.111  13.362
67941W        W27686  38.968  25.537   0.844
67942W        W27687  22.602  37.938   0.370
67943W        W27688  29.155  40.962  11.966
67944W        W27689  14.302  26.577   1.729
67945W        W27690  18.271   8.892  14.289
67946W        W27691  37.059  32.396   4.202
67947W        W27692  30.483  26.701  10.999
67948W        W27693  38.414  34.914   0.333
67949W        W27694   9.837   2.934  14.986
67950W        W27695  26.080  34.562  10.894
67951W        W27696   3.260   1.821  10.474
67952W        W27697  39.815  34.978   0.294
67953W        W27698  24.522  33.444   1.345
67954W        W27699   3.913  11.203   0.372
67955W        W27700  15.153  31.596   4.330
67956W        W27701  42.466  32.043  11.584
67957W        W27702   3.931   3.380  13.875
67958W        W27703  21.037   8.207   2.387
67959W        W27704  35.376  23.054   4.257
67960W        W27705   5.845  34.539   2.896
67961W        W27706  33.475  29.456  12.541
67962W        W27707  20.639  28.637  10.538
67963W        W27708  14.762  22.140  13.328
67964W        W27709  32.084   3.366   1.859
67965W        W27710  13.303  40.837   3.147
67966W        W27711   1.452   9.852   1.779
67967W        W27712  43.991  21.082  10.537
67968W        W27713  34.885  19.656   2.380
67969W        W27714   4.279  21.253  14.375
67970W        W27715  25.196  20.597   0.360
67971W        W27716  38.565   6.843  12.539
67972W        W27717  10.727  31.079  12.361
67973W        W27718   8.840  36.458  12.401
67974W        W27719  39.393  28.660   1.917
67975W        W27720   9.304  44.444  12.871
67976W        W27721   9.388  40.314   0.942
67977W        W27722  26.196   6.219  11.092
67978W        W27723   2.376  15.146  13.350
67979W        W27724  24.717   5.726  13.009
67980W        W27725  20.141  11.802  14.888
67981W        W27726  19.554   5.882  13.426
67982W        W27727  30.921   9.174   9.512
67983W        W27728  15.672   9.190   2.256
67984W        W27729  32.958  27.484   4.237
67985W        W27730  12.699  44.785  12.340
67986W        W27731  13.233  39.865  10.566
67987W        W27732   3.336  19.767  13.942
67988W        W27733  30.486  12.635  13.445
67989W        W27734  42.389  37.419  11.518
67990W        W27735   8.709  42.851  13.487
67991W        W27736  14.174  40.459  14.436
67992W        W27737  15.685  26.515  14.497
67993W        W27738  32.995  34.996   1.214
67994W        W27739   5.351  41.040  11.023
67995W        W27740  40.011  38.538   1.778
67996W        W27741  31.120   2.773   4.668
67997W        W27742  10.360  13.135  14.442
67998W        W27743  41.827  24.504   4.805
67999W        W27744  37.508  41.998  11.452
68000W        W27745  12.766  29.048   1.256
68001W        W27746   5.211  22.648   2.185
68002W        W27747  30.129  16.577  11.867
68003W        W27748   3.840   4.883   0.330
68004W        W27749  36.014   9.293  14.503
68005W        W27750  24.610  18.609   4.640
68006W        W27751  43.832  26.490  12.003
68007W        W27752   9.334  41.968  12.992
68008W        W27753   5.420  20.210   4.244
68009W        W27754  10.750  20.159   3.379
68010W        W27755   9.664  39.923  14.416
68011W        W27756  17.124   8.666   5.274
68012W        W27757  26.520  39.468   2.721
68013W        W27758   1.252  35.889   1.706
68014W        W27759  20.134  31.975  14.511
68015W        W27760  32.476  41.809   3.387
68016W        W27761  21.569  44.401   2.379
68017W        W27762  12.764  41.914  10.529
68018W        W27763  23.538  39.027  13.455
68019W        W27764  23.631  22.617  14.482
68020W        W27765   9.822   5.334  10.619
68021W        W27766   2.401  22.211   1.920
68022W        W27767  11.130  42.912  12.394
68023W        W27768  41.032  26.957  12.412
68024W        W27769   3.818   0.749   4.128
68025W        W27770  36.356  23.519  12.465
68026W        W27771  29.068  40.463   4.162
68027W        W27772  39.024  31.044   4.114
68028W        W27773   6.364  38.567  12.848
68029W        W27774  28.568  23.096  13.896
68030W        W27775   0.916  36.909  12.984
68031W        W27776   9.210   1.357  10.566
68032W        W27777  22.522  25.978  13.380
68033W        W27778  37.945  14.139  14.438
68034W        W27779  23.158  26.469  11.105
68035W        W27780   8.263  28.617  13.041
68036W        W27781  19.221  23.535   3.864
68037W        W27782  14.728  17.715   3.348
68038W        W27783  41.877  13.219  11.584
68039W        W27784  37.447   8.901  14.817
68040W        W27785  16.314  13.141  12.415
68041W        W27786  44.891   1.802  14.384
68042W        W27787  13.285  34.914   2.401
68043W        W27788  39.029  41.521   2.394
68044W        W27789  36.541   1.864   1.914
68045W        W27790   7.831  19.585  13.508
68046W        W27791  36.061  36.522   4.687
68047W        W27792  20.198  36.351   4.187
68048W        W27793  42.399  24.698   2.704
68049W        W27794   0.460  27.538   4.198
68050W        W27795   6.856  39.466  11.994
68051W        W27796  29.061  39.037  11.529
68052W        W27797  10.694  33.005  12.374
68053W        W27798  18.092   0.338  13.848
68054W        W27799  17.686   3.444  10.991
68055W        W27800  29.035  30.483  11.007
68056W        W27801  20.178  27.670  12.579
68057W        W27802  34.569  39.378   2.375
68058W        W27803  19.138  10.685  13.309
68059W        W27804  39.429   9.193   2.407
68060W        W27805  13.695  23.552  10.960
68061W        W27806   6.236  34.603  14.862
68062W        W27807  12.250   0.832   2.710
68063W        W27808  29.934  36.948   3.694
68064W        W27809  32.956  10.657  13.040
68065W        W27810   5.870  17.577  12.498
68066W        W27811  14.696  26.143   4.243
68067W        W27812  23.030  17.276   0.331
68068W        W27813  44.873  21.537   1.395
68069W        W27814  19.602  43.461   3.172
68070W        W27815  21.675   5.848  14.856
68071W        W27816  30.086  39.036   0.927
68072W        W27817  13.241  41.369   0.424
68073W        W27818  22.721  28.109  13.829
68074W        W27819  32.132   3.793  14.486
68075W        W27820  11.836  43.972   0.246
68076W        W27821  37.503  18.157  13.507
68077W        W27822   3.791  12.343  11.937
68078W        W27823  31.503  17.245  14.293
68079W        W27824   2.415   8.784  13.829
68080W        W27825  30.067   7.315   4.220
68081W        W27826   1.940  38.874   2.347
68082W        W27827  20.198  19.279  12.966
68083W        W27828  38.044  43.822  11.539
68084W        W27829   1.409   6.343  12.494
68085W        W27830   2.333  30.980  14.490
68086W        W27831  36.486  10.145   2.807
68087W        W27832  35.107   0.371   0.287
68088W        W27833   3.756  42.991   1.222
68089W        W27834  37.010  26.492  11.394
68090W        W27835   6.233   0.448  14.483
68091W        W27836  40.882  37.580   0.791
68092W        W27837  13.225  42.834  14.877
68093W        W27838   6.823  31.912   3.371
68094W        W27839  17.123   5.911   3.317
68095W        W27840  10.664  39.004   1.450
68096W        W27841  33.506  16.642  10.963
68097W        W27842  25.092  34.914   4.839
68098W        W27843   7.261  21.143   3.223
68099W        W27844  38.007   0.441  12.043
68100W        W27845  32.027  21.640  11.474
68101W        W27846   3.351  34.894  13.350
68102W        W27847   2.870  11.845  10.499
68103W        W27848  14.282  20.249   2.715
68104W        W27849   8.733  26.082   4.667
68105W        W27850  42.007  18.240   4.630
68106W        W27851  18.195   7.831  11.490
68107W        W27852  30.516  37.389   3.751
68108W        W27853  44.470   8.267  14.398
68109W        W27854  28.027   1.287  12.857
68110W        W27855  17.118  23.529   0.430
68111W        W27856   9.680  24.557   1.220
68112W        W27857  42.361  39.890  10.459
68113W        W27858  33.485  40.543   2.876
68114W        W27859   6.905  35.950  11.397
68115W        W27860  28.616  37.539   3.863
68116W        W27861   2.461   3.334   5.091
68117W        W27862  10.162  14.783   2.343
68118W        W27863  34.395  22.171   1.225
68119W        W27864  33.434  13.642   0.808
68120W        W27865  10.358  38.539   4.647
68121W        W27866  24.717  26.472   4.631
68122W        W27867   0.252  36.964  12.470
68123W        W27868  39.822  15.203  14.339
68124W        W27869   1.808  12.175   4.349
68125W        W27870  43.851  41.449  14.783
68126W        W27871  35.483  29.009  13.960
68127W        W27872  19.667  26.143  11.038
68128W        W27873  21.157   6.341  11.977
68129W        W27874   1.771  24.075  13.858
68130W        W27875  18.105  44.443   4.137
68131W        W27876  22.533  33.586   3.359
68132W        W27877   9.760  31.582   4.225
68133W        W27878  18.632   8.690   4.299
68134W        W27879  19.661  13.310  14.305
68135W        W27880   1.370  42.963   1.302
68136W        W27881   7.846  43.346   0.316
68137W        W27882  10.839  40.876   4.164
68138W        W27883  40.011  20.699  11.064
68139W        W27884  24.550  25.112  14.313
68140W        W27885  37.984  14.132  14.769
68141W        W27886  30.987  16.578  12.869
68142W        W27887  31.475  23.560  13.027
68143W        W27888  38.552  31.027  12.045
68144W        W27889   7.803  35.574  13.435
68145W        W27890  19.669  26.688  10.985
68146W        W27891  21.072  23.995  13.522
68147W        W27892  19.072  16.094   2.241
68148W        W27893  36.446   0.385  12.095
68149W        W27894  29.998  19.742   1.758
68150W        W27895   9.873  41.437  11.963
68151W        W27896   9.707  23.230   3.736
68152W        W27897  28.552  24.096   4.693
68153W        W27898   8.824  44.789   1.708
68154W        W27899  37.512  43.331  13.310
68155W        W27900  36.921  37.046   2.315
68156W        W27901  38.412  39.389  12.986
68157W        W27902  33.522  37.501   4.204
68158W        W27903  24.608  35.371   5.571
68159W        W27904  34.895  13.676  13.893
68160W        W27905  43.860  24.023   3.298
68161W        W27906   6.400  28.588   0.258
68162W        W27907  20.602  27.678   3.853
68163W        W27908   7.231   0.475   2.772
68164W        W27909  24.549  31.530  14.794
68165W        W27910  32.594  17.633   5.702
68166W        W27911  39.963  24.710   4.650
68167W        W27912  33.504  28.569   1.444
68168W        W27913   2.748  41.980  12.968
68169W        W27914   9.658  14.669  13.008
68170W        W27915  42.839  36.586  14.482
68171W        W27916  37.939  12.222   2.670
68172W        W27917  38.326  36.421  13.914
68173W        W27918  27.666  16.701   3.292
68174W        W27919   8.738   6.879  12.996
68175W        W27920   2.766   6.233  11.594
68176W        W27921  10.685  24.108   0.891
68177W        W27922  15.722  19.049   1.214
68178W        W27923  20.227  27.466   0.295
68179W        W27924   4.317  20.720   2.231
68180W        W27925  29.605  39.981   0.483
68181W        W27926  29.040  32.024   2.703
68182W        W27927   3.336  11.169  11.956
68183W        W27928  17.083  42.320   3.274
68184W        W27929   3.268  33.973  10.598
68185W        W27930  28.520  43.839   4.244
68186W        W27931  39.833  35.422  14.492
68187W        W27932  28.543   9.807   0.860
68188W        W27933  42.424  43.992   1.775
68189W        W27934  20.554  19.576   1.339
68190W        W27935  33.467   9.241  12.035
68191W        W27936  39.890  27.547  10.989
68192W        W27937  32.602   1.245   0.262
68193W        W27938  36.890  32.019  14.856
68194W        W27939   3.359  24.627   3.196
68195W        W27940  39.373  30.606   3.808
68196W        W27941  26.996  12.138   2.366
68197W        W27942  13.135  35.395  12.508
68198W        W27943  12.814  27.460   2.720
68199W        W27944   4.224  33.949  10.481
68200W        W27945  25.508  34.065  12.061
68201W        W27946  33.589  39.400  11.998
68202W        W27947  39.053  23.585  12.388
68203W        W27948   3.342  18.731  13.349
68204W        W27949  16.311  19.260   4.169
68205W        W27950  11.273  44.282  10.564
68206W        W27951  10.244  10.333   0.810
68207W        W27952  43.340  36.096  13.866
68208W        W27953  19.741   5.821  12.986
68209W        W27954  21.690  29.120   5.256
68210W        W27955  32.535  39.513  10.622
68211W        W27956   7.728  18.575   1.384
68212W        W27957  17.667  10.826   4.615
68213W        W27958  39.018   9.695   3.827
68214W        W27959  21.241  17.224  11.855
68215W        W27960  29.926  34.391  13.992
68216W        W27961  37.990  13.746  12.904
68217W        W27962  31.128  32.632   1.697
68218W        W27963  39.006   6.921   1.274
68219W        W27964  17.216  18.773   0.793
68220W        W27965  15.194  38.847  14.009
68221W        W27966  19.212  25.193  11.506
68222W        W27967  27.653   9.291   3.160
68223W        W27968  14.138   7.257  11.903
68224W        W27969  25.635  18.247  12.484
68225W        W27970  29.919   6.790   3.703
68226W        W27971  19.166  40.957  10.905
68227W        W27972  30.527  30.494  10.929
68228W        W27973  10.309  28.654  14.791
68229W        W27974  24.658  36.867  13.894
68230W        W27975   3.355   7.892  12.556
68231W        W27976  35.061   9.311  13.810
68232W        W27977   9.328  41.919  13.378
68233W        W27978  29.533   2.246   0.767
68234W        W27979  29.641  39.015   0.416
68235W        W27980   3.903  20.176   4.258
68236W        W27981  44.814  29.166  11.899
68237W        W27982  22.229  43.379   0.948
68238W        W27983  41.799  44.260   2.855
68239W        W27984  32.395  33.457   2.747
68240W        W27985  30.448  15.736   2.799
68241W        W27986  44.353  34.444  14.984
68242W        W27987  27.952  23.225   3.247
68243W        W27988  22.223   5.808   2.901
68244W        W27989   5.355  14.678  10.898
68245W        W27990  28.672  18.091  12.083
68246W        W27991  24.206  22.603  11.081
68247W        W27992  24.579  22.220  12.886
68248W        W27993  10.280  23.087   3.253
68249W        W27994   1.914   0.289   4.719
68250W        W27995  36.429  42.846   1.829
68251W        W27996  17.640  38.480   0.371
68252W        W27997  20.195  12.753   1.719
68253W        W27998  43.836  39.506  11.965
68254W        W27999  15.199   4.899  13.338
68255W        W28000  26.187  39.065   4.696
68256W        W28001  17.654  38.441  13.797
68257W        W28002   5.339  13.700   2.244
68258W        W28003  36.402  32.952   0.320
68259W        W28004  24.669  15.202   0.266
68260W        W28005   3.765  17.700   4.221
68261W        W28006  25.968  18.757  11.871
68262W        W28007  44.425  31.450  13.935
68263W        W28008  39.810   1.959  12.567
68264W        W28009   1.462  35.107  11.076
68265W        W28010  44.304   4.780  13.887
68266W        W28011  18.774  31.992   3.780
68267W        W28012  42.967   5.370   1.924
68268W        W28013  10.673  40.923   1.802
68269W        W28014   0.866  36.456  10.546
68270W        W28015  40.547   0.346   2.741
68271W        W28016  39.560   5.365   2.257
68272W        W28017  20.197   9.881  14.007
68273W        W28018  33.415   9.806  11.988
68274W        W28019  22.140  14.146  12.895
68275W        W28020  39.342  37.408   2.356
68276W        W28021   4.276  42.472  13.046
68277W        W28022  19.543  17.705  10.911
68278W        W28023  10.154   1.830   2.704
68279W        W28024  39.840  37.931   0.306
68280W        W28025  28.003  30.416  11.964
68281W        W28026  41.423  18.722  11.083
68282W        W28027  22.743  24.092   0.822
68283W        W28028   2.298  30.081   5.123
68284W        W28029  30.002  37.555   5.205
68285W        W28030   0.918  29.493   3.209
68286W        W28031  34.997  31.604  12.886
68287W        W28032  11.768  23.503  11.034
68288W        W28033  32.036   1.310  13.453
68289W        W28034  23.544  33.941   5.726
68290W        W28035   6.237  21.072   1.933
68291W        W28036  13.166  40.416  13.453
68292W        W28037  11.306  31.535   4.337
68293W        W28038  20.646   9.277   3.373
68294W        W28039  43.412  19.543  10.560
68295W        W28040  35.874  32.082  11.084
68296W        W28041   8.682  34.449  14.977
68297W        W28042   3.354  12.148   0.921
68298W        W28043  21.529   0.303  14.996
68299W        W28044  42.791  14.822   1.759
68300W        W28045  31.528  27.478  11.041
68301W        W28046   1.411  17.062   2.683
68302W        W28047  12.652  34.611   2.735
68303W        W28048  38.521  13.190  13.063
68304W        W28049  40.366  20.153  11.447
68305W        W28050   6.789  38.863   1.910
68306W        W28051  13.832  31.926  13.892
68307W        W28052  43.386  17.751   2.211
68308W        W28053  29.647  32.612   0.441
68309W        W28054  25.134  22.116  11.612
68310W        W28055  35.081  10.792   4.345
68311W        W28056  33.049  17.235   4.751
68312W        W28057  41.485  34.892   0.266
68313W        W28058  24.646  18.549   1.866
68314W        W28059  16.296  37.544   1.424
68315W        W28060  34.077  33.451   2.404
68316W        W28061  25.130  41.929   1.897
68317W        W28062  27.671  44.954   3.678
68318W        W28063  25.004  36.420   2.279
68319W        W28064  30.148  25.091  14.373
68320W        W28065  23.074  27.471   2.335
68321W        W28066  18.125  22.579   3.799
68322W        W28067  42.437  30.164   4.678
68323W        W28068   1.956   2.261   4.824
68324W        W28069  28.185  44.920  11.015
68325W        W28070  25.673   2.922  12.008
68326W        W28071  44.875   8.766   0.271
68327W        W28072  17.772  37.497  14.279
68328W        W28073   3.922  25.583  12.412
68329W        W28074  29.925  27.068  10.142
68330W        W28075   9.843  23.058   4.798
68331W        W28076   6.896  21.081   1.768
68332W        W28077  26.671   3.777  13.344
68333W        W28078  35.365  27.532  14.840
68334W        W28079  17.642  30.613  14.929
68335W        W28080   2.722  35.010   2.718
68336W        W28081  21.198  12.182   0.844
68337W        W28082  39.909  12.290   0.441
68338W        W28083  36.484  37.392   2.680
68339W        W28084  43.422   3.847   1.784
68340W        W28085  15.580   9.804  11.401
68341W        W28086  37.531  23.024   0.732
68342W        W28087  31.949  34.058   4.231
68343W        W28088   0.293  19.676   3.219
68344W        W28089  20.653  13.647  14.306
68345W        W28090  15.158  37.022  14.944
68346W        W28091  16.155  22.035  11.506
68347W        W28092  16.599  29.146  14.928
68348W        W28093   6.312  11.683  12.006
68349W        W28094  43.831  30.919   0.439
68350W        W28095  25.568   7.223   0.817
68351W        W28096  15.096   3.356   3.152
68352W        W28097  29.036  42.909  13.895
68353W        W28098  29.080  38.495   0.753
68354W        W28099  35.911  39.494  11.391
68355W        W28100   5.285  18.091  12.380
68356W        W28101  30.423  39.873   0.784
68357W        W28102  39.341   6.876  10.638
68358W        W28103  24.153  43.838  14.281
68359W        W28104  33.976  15.768   1.830
68360W        W28105   5.337   9.775   1.755
68361W        W28106  29.991   6.727  14.284
68362W        W28107   3.747  19.716   2.818
68363W        W28108  21.520  26.642   4.618
68364W        W28109  17.627  13.212  13.877
68365W        W28110  12.202  38.898   2.860
68366W        W28111  25.694  13.624   2.201
68367W        W28112  39.395  36.908  14.023
68368W        W28113  20.552  32.512   4.187
68369W        W28114   4.916  21.675  11.102
68370W        W28115  37.905  14.152   3.693
68371W        W28116  39.449   7.687  11.575
68372W        W28117  22.503  23.043   1.262
68373W        W28118  22.676  43.907  11.486
68374W        W28119  30.146  41.516   0.390
68375W        W28120  26.951  36.966  13.803
68376W        W28121  10.321   7.378   3.325
68377W        W28122  40.346   8.752  11.071
68378W        W28123  34.536  27.129  11.941
68379W        W28124   5.392  37.361  14.445
68380W        W28125  23.134  34.505  11.449
68381W        W28126  14.735   2.962   0.753
68382W        W28127  13.621  43.952  14.362
68383W        W28128  29.157  36.446   1.278
68384W        W28129  10.342   2.790  11.549
68385W        W28130  37.504  44.969  11.391
68386W        W28131  22.191  32.994  14.997
68387W        W28132  16.088  34.066   4.821
68388W        W28133  43.854  35.974   1.377
68389W        W28134  22.564  19.139  12.976
68390W        W28135   6.287  36.365  10.028
68391W        W28136  20.559   6.224   0.771
68392W        W28137   1.373  41.925   3.249
68393W        W28138  43.443  30.542  14.507
68394W        W28139   8.245  21.123  11.080
68395W        W28140  30.914   3.799   2.310
68396W        W28141  36.584  40.953  12.909
68397W        W28142  21.209  43.440   2.385
68398W        W28143  41.922  40.828   1.891
68399W        W28144  21.627  12.684   1.806
68400W        W28145  34.994  42.984   1.935
68401W        W28146   6.267  18.098   9.983
68402W        W28147  44.951  15.790   9.954
68403W        W28148   7.403   7.841  14.955
68404W        W28149  23.039  24.690  10.549
68405W        W28150  21.093  16.745  13.343
68406W        W28151   7.763  18.611  12.506
68407W        W28152  28.633  12.814  14.913
68408W        W28153  40.926   8.861   2.341
68409W        W28154  33.042   0.372   2.822
68410W        W28155   8.811  13.628  14.491
68411W        W28156  33.526  29.546  13.390
68412W        W28157  29.136   6.353  11.883
68413W        W28158  10.811  24.603  12.399
68414W        W28159   1.338   4.856  13.843
68415W        W28160   4.405  38.530   3.193
68416W        W28161   7.237   6.731  12.394
68417W        W28162  17.640  11.842   3.719
68418W        W28163   3.947  38.925  13.328
68419W        W28164  27.450  10.808  13.388
68420W        W28165   1.754  33.587   1.233
68421W        W28166  15.792   7.192  14.972
68422W        W28167  29.174   3.821   1.364
68423W        W28168  44.790  39.345   3.722
68424W        W28169  42.427  25.986  13.008
68425W        W28170  15.595  40.545  13.498
68426W        W28171  16.138   0.886   2.863
68427W        W28172  27.097  36.978  14.477
68428W        W28173  30.968   3.230  14.925
68429W        W28174  41.482   3.272   3.855
68430W        W28175  41.931  12.670   2.329
68431W        W28176  21.025  39.874   3.691
68432W        W28177   3.432  39.941  13.835
68433W        W28178  37.571  37.999  12.579
68434W        W28179  23.202  28.661  12.948
68435W        W28180  43.806   2.956  10.531
68436W        W28181   0.755  40.368   2.802
68437W        W28182  22.156  39.407   2.718
68438W        W28183  35.387  40.943   2.418
68439W        W28184  42.944  41.477  11.929
68440W        W28185  26.673  28.639   1.356
68441W        W28186  12.634  42.527  11.973
68442W        W28187  41.022   4.360  11.503
68443W        W28188  10.359  23.998   0.801
68444W        W28189  15.212   9.691   0.875
68445W        W28190   8.726  23.639   3.853
68446W        W28191  35.968  14.778   4.612
68447W        W28192  33.100  37.834  13.364
68448W        W28193  42.453  30.613  10.582
68449W        W28194  36.952   7.315  14.797
68450W        W28195  19.776  34.939   4.206
68451W        W28196  10.667  29.026   1.699
68452W        W28197  14.792  24.562  14.829
68453W        W28198  21.624  26.602   3.233
68454W        W28199  17.144  16.085   4.635
68455W        W28200  14.795  40.517   3.370
68456W        W28201  25.470  12.663   0.779
68457W        W28202   1.777   9.324  13.398
68458W        W28203   4.357   2.444  10.566
68459W        W28204  17.699  36.877   2.221
68460W        W28205   2.763  35.577  14.422
68461W        W28206  34.049   4.830  13.969
68462W        W28207  11.689  38.331  12.493
68463W        W28208   7.736  16.269   0.318
68464W        W28209  34.921   6.862  11.461
68465W        W28210  43.314  11.242  11.026
68466W        W28211  31.446  44.280  12.563
68467W        W28212  38.530   8.804  12.424
68468W        W28213  26.620  44.405  14.297
68469W        W28214   0.388  37.836  14.766
68470W        W28215  41.334  26.072  13.447
68471W        W28216  29.173  33.443  12.979
68472W        W28217   0.879  29.668   4.191
68473W        W28218  21.063  30.586   1.788
68474W        W28219  19.118  25.583  12.453
68475W        W28220  32.519  27.030  13.499
68476W        W28221  16.281  21.115   4.201
68477W        W28222  33.412   5.921  11.907
68478W        W28223  27.995  17.639   2.363
68479W        W28224  21.550  28.650  14.971
68480W        W28225  26.103  27.012   2.324
68481W        W28226  30.069   3.791   1.220
68482W        W28227   8.373   5.409   3.171
68483W        W28228  20.526  37.891   0.401
68484W        W28229  16.566  37.575   4.831
68485W        W28230  41.305  20.665   3.702
68486W        W28231   4.392   0.356   4.145
68487W        W28232  33.006  12.353   4.654
68488W        W28233  32.977  33.909   4.235
68489W        W28234  40.400  13.679   1.746
68490W        W28235   1.787   6.355  13.816
68491W        W28236  30.955  44.835  10.561
68492W        W28237  14.689  28.622   3.294
68493W        W28238  25.472  31.034   1.407
68494W        W28239  28.661  33.529  12.513
68495W        W28240  22.701  20.614   3.709
68496W        W28241  17.627   1.255  13.829
68497W        W28242  16.802  33.397   1.338
68498W        W28243  36.539  30.042  10.900
68499W        W28244  38.922  33.499   9.968
68500W        W28245   6.811  37.050  12.019
68501W        W28246  22.608  17.241   2.194
68502W        W28247  36.382   3.784   2.337
68503W        W28248  23.037  23.149   2.680
68504W        W28249   3.380  11.142  11.374
68505W        W28250   4.402  44.987  12.536
68506W        W28251  37.411  23.057   2.704
68507W        W28252   7.234  36.948  14.910
68508W        W28253  32.083  19.656  12.847
68509W        W28254   1.427  40.508   0.446
68510W        W28255  13.184  28.105   4.267
68511W        W28256  20.106  37.960  10.627
68512W        W28257  39.318  14.593   0.345
68513W        W28258   2.439  31.904  13.930
68514W        W28259  31.033   8.172   0.429
68515W        W28260   5.706  10.308  14.490
68516W        W28261  17.695  24.220   3.760
68517W        W28262  27.661  32.589   3.829
68518W        W28263  18.645  35.509   2.178
68519W        W28264  27.176   2.414   1.872
68520W        W28265  40.348  22.620   5.084
68521W        W28266  41.435  38.423   0.312
68522W        W28267  25.679  14.173   3.712
68523W        W28268  23.206  15.806  12.045
68524W        W28269   6.228  20.114   3.232
68525W        W28270  24.619   7.371   3.844
68526W        W28271  31.495  30.962  13.501
68527W        W28272  10.343   9.269   1.923
68528W        W28273  31.134  34.904  12.443
68529W        W28274  27.016  26.508  13.523
68530W        W28275   2.257  44.472   3.765
68531W        W28276   3.264  14.679   2.697
68532W        W28277  24.185  11.708  10.965
68533W        W28278  33.604  34.414   0.888
68534W        W28279  35.970  25.982  12.915
68535W        W28280  36.426  20.636  12.903
68536W        W28281  43.948  19.063   4.121
68537W        W28282   1.349  17.089   4.599
68538W        W28283  11.186  25.012  11.922
68539W        W28284  28.036  24.168   0.868
68540W        W28285  29.478  25.500  11.590
68541W        W28286  10.275  21.113   2.827
68542W        W28287   3.716  24.089   2.305
68543W        W28288  42.329   8.272   4.712
68544W        W28289  38.488  38.406  11.416
68545W        W28290  30.420  44.910   4.637
68546W        W28291  35.473  35.929  13.032
68547W        W28292  38.903  31.074  11.532
68548W        W28293  23.177  37.979  10.490
68549W        W28294  34.875  34.109   2.299
68550W        W28295  42.913  16.123  11.905
68551W        W28296  18.126  20.692  11.589
68552W        W28297  25.987  21.163  11.858
68553W        W28298  25.573   0.270  11.008
68554W        W28299  20.167  30.017  12.028
68555W        W28300  14.180   3.231  12.090
68556W        W28301  30.549  23.052  13.322
68557W        W28302  19.282  25.471   1.909
68558W        W28303   4.802  31.632  12.491
68559W        W28304  24.554  19.282  14.333
68560W        W28305  25.608  32.410   4.234
68561W        W28306  37.439   2.903   1.913
68562W        W28307   3.244  13.633  13.335
68563W        W28308  38.883  44.882  12.491
68564W        W28309  28.065  24.030   4.826
68565W        W28310   0.829   8.880   0.307
68566W        W28311  43.843  44.998   2.828
68567W        W28312  17.161  39.396  12.405
68568W        W28313   1.930  24.706   0.383
68569W        W28314  30.656  27.657   5.292
68570W        W28315  43.906  18.296  14.337
68571W        W28316  14.256   0.418  12.992
68572W        W28317  23.085  24.119   4.696
68573W        W28318  43.937  43.802  10.967
68574W        W28319  29.938  23.659   0.350
68575W        W28320   2.937   1.868   2.800
68576W        W28321  29.003  12.151  13.994
68577W        W28322  35.040   6.888  10.417
68578W        W28323   4.800   7.270  10.632
68579W        W28324  20.764  14.636   0.789
68580W        W28325   5.868   5.261  12.873
68581W        W28326  26.462  35.561   4.132
68582W        W28327  37.916  27.106   4.200
68583W        W28328  37.573  38.005   1.365
68584W        W28329  27.957  30.096   3.220
68585W        W28330  25.172  21.645   1.365
68586W        W28331  25.480  17.734  13.985
68587W        W28332  30.963   2.860  11.559
68588W        W28333  17.607   1.831   0.288
68589W        W28334  14.277   5.280  11.505
68590W        W28335  18.191  39.984   3.223
68591W        W28336  44.828  38.510  13.383
68592W        W28337  14.611   6.402   0.962
68593W        W28338  36.436  14.782   1.228
68594W        W28339   0.985  24.658   1.273
68595W        W28340  32.517   4.286   0.410
68596W        W28341  13.713   8.239  12.913
68597W        W28342  41.420   5.885  14.852
68598W        W28343   2.342  25.678   2.722
68599W        W28344  21.638   0.472   4.758
68600W        W28345  43.868  18.753   3.336
68601W        W28346   5.265   0.356  10.478
68602W        W28347  42.519  19.685   0.759
68603W        W28348  26.657  36.414   1.307
68604W        W28349   4.856  21.689  10.537
68605W        W28350   5.330  34.535   3.217
68606W        W28351  21.149  36.412   1.370
68607W        W28352  11.186   2.228   3.730
68608W        W28353  25.531  38.074   4.735
68609W        W28354  33.068   2.273  12.030
68610W        W28355  13.738   6.242   2.862
68611W        W28356  39.980  28.951   1.445
68612W        W28357  14.614   3.899  11.556
68613W        W28358  44.479  30.498   3.355
68614W        W28359  10.786  25.155  12.900
68615W        W28360   4.243  16.631  12.577
68616W        W28361  25.206   3.825   4.643
68617W        W28362  12.744  22.210   3.383
68618W        W28363  18.724  29.142   0.451
68619W        W28364  19.619  36.557  11.483
68620W        W28365  16.209  22.682  12.545
68621W        W28366  22.589   3.833  12.542
68622W        W28367  25.183  37.542   2.324
68623W        W28368  17.128  27.523  14.826
68624W        W28369  41.306   8.871  11.509
68625W        W28370   5.765  13.643   4.648
68626W        W28371  13.268  24.707   1.342
68627W        W28372  23.612  37.845   4.696
68628W        W28373  27.620   6.320   1.925
68629W        W28374  17.133   5.282  13.425
68630W        W28375   1.394  18.661   0.884
68631W        W28376  31.999  31.134  12.022
68632W        W28377  38.407  40.304  13.837
68633W        W28378  37.383   9.247   2.268
68634W        W28379  30.101  20.699  10.101
68635W        W28380   0.444  28.939   4.138
68636W        W28381   7.750  25.118   1.370
68637W        W28382  41.935  23.618   0.310
68638W        W28383  41.331  37.526   1.222
68639W        W28384  23.010  18.068   3.775
68640W        W28385  42.281  22.598   0.300
68641W        W28386  25.167  30.144  13.850
68642W        W28387  18.560  39.895  10.552
68643W        W28388  25.071  28.006   1.408
68644W        W28389  16.114   8.161   1.278
68645W        W28390  20.726   6.225  11.128
68646W        W28391   2.450  20.247   0.333
68647W        W28392  16.305  25.653  10.978
68648W        W28393  31.537  39.045  11.485
68649W        W28394  33.425   0.468   1.852
68650W        W28395   1.352  30.945   5.722
68651W        W28396  13.205   7.316  13.029
68652W        W28397  22.738  30.107  11.535
68653W        W28398  28.460  11.146   1.262
68654W        W28399  30.037  23.118   2.351
68655W        W28400  34.402  24.095  13.936
68656W        W28401  19.170  19.242  10.924
68657W        W28402   1.334  15.748   4.637
68658W        W28403  32.606  25.536  13.408
68659W        W28404   3.411  24.028  11.119
68660W        W28405   4.380  12.298  11.887
68661W        W28406  34.395  38.869  10.908
68662W        W28407  15.283   5.324   0.762
68663W        W28408  39.496  22.024  13.913
68664W        W28409  26.689   5.340   2.349
68665W        W28410  41.376  15.652   2.673
68666W        W28411  35.852  17.089   0.471
68667W        W28412   3.282  30.942  13.348
68668W        W28413  38.436  22.693   3.839
68669W        W28414   6.337  23.050  12.007
68670W        W28415  16.242  27.682  14.279
68671W        W28416  23.234  37.077  13.046
68672W        W28417  11.770   7.830  14.770
68673W        W28418   5.260  21.706   3.319
68674W        W28419   8.199  35.872   3.681
68675W        W28420  17.737  36.969   1.934
68676W        W28421  26.991  27.115   2.253
68677W        W28422  35.039  15.177  14.853
68678W        W28423  23.721   3.439  12.446
68679W        W28424  13.832  37.031  10.063
68680W        W28425  22.231   0.268   2.301
68681W        W28426  10.712  40.499   1.828
68682W        W28427  32.111  37.442  12.372
68683W        W28428  12.687   0.356   3.733
68684W        W28429   1.351  33.400  12.382
68685W        W28430   1.913   3.904  10.430
68686W        W28431  22.554  43.423  12.403
68687W        W28432  34.020  30.984  13.880
68688W        W28433   2.906   6.216  11.920
68689W        W28434  23.576   0.369  13.527
68690W        W28435   3.843   7.838  12.082
68691W        W28436  21.755   1.453   9.955
68692W        W28437  16.677  14.642  14.996
68693W        W28438  31.146  30.506   4.693
68694W        W28439   0.443  43.954  14.835
68695W        W28440  37.026  16.729  14.510
68696W        W28441  40.003  32.111   1.302
68697W        W28442   1.294  39.970   2.363
68698W        W28443  25.052   4.759  10.902
68699W        W28444  32.977  28.185  12.354
68700W        W28445  39.324  16.172   4.767
68701W        W28446  16.169  10.805   1.757
68702W        W28447  39.432   1.406   1.345
68703W        W28448  24.618   2.366   3.736
68704W        W28449  30.056  41.410   2.813
68705W        W28450   2.932   2.887   2.700
68706W        W28451  25.149  17.222   4.177
68707W        W28452   8.260  16.272  11.065
68708W        W28453  41.502  32.935  13.530
68709W        W28454  24.586  37.005  12.073
68710W        W28455  10.742  11.287  14.888
68711W        W28456  26.041  43.893  11.376
68712W        W28457  13.599  28.090   2.888
68713W        W28458   0.322  25.652   1.709
68714W        W28459  43.321  19.272  12.421
68715W        W28460   5.374  23.135   1.398
68716W        W28461   3.759  36.510  14.885
68717W        W28462  37.897  33.075   2.208
68718W        W28463  23.114  39.817  11.862
68719W        W28464   8.772   4.316   4.279
68720W        W28465   2.369  38.358  13.014
68721W        W28466  35.935  29.104  11.129
68722W        W28467  35.370  36.041   2.775
68723W        W28468  29.653  41.413  11.564
68724W        W28469  18.256   0.845  10.032
68725W        W28470   7.749  33.544  14.916
68726W        W28471   6.320  29.168  10.591
68727W        W28472  34.044  20.090  10.110
68728W        W28473  35.911   3.833   4.818
68729W        W28474   5.876  36.004  11.898
68730W        W28475   2.289  15.183   3.682
68731W        W28476   7.210  28.077  13.822
68732W        W28477  26.678  14.096   2.752
68733W        W28478   4.907   8.193  12.044
68734W        W28479  15.819  15.654   5.270
68735W        W28480  11.782  14.267   2.818
68736W        W28481  28.078  19.101   2.681
68737W        W28482   8.198  34.600   0.449
68738W        W28483   3.358  26.653   2.710
68739W        W28484  41.933   7.290  11.123
68740W        W28485  41.433  20.555   0.945
68741W        W28486  23.716  14.806   0.386
68742W        W28487  36.456  42.302  10.453
68743W        W28488   4.367  28.675   2.744
68744W        W28489  37.490  20.661  13.805
68745W        W28490  10.170  12.278  12.525
68746W        W28491  35.014   0.318  14.998
68747W        W28492   7.182  27.557  14.487
68748W        W28493  11.272   3.934  11.384
68749W        W28494   2.439  37.832  14.940
68750W        W28495  41.794  39.938   1.320
68751W        W28496  42.386  20.705  14.791
68752W        W28497  27.563  42.508  12.392
68753W        W28498   6.699  32.115   4.220
68754W        W28499  23.511  20.234  11.886
68755W        W28500  34.450  36.352   2.768
68756W        W28501  37.991  33.479  14.811
68757W        W28502  42.818  24.496  12.936
68758W        W28503   1.899  20.714  11.394
68759W        W28504  36.472  23.622  14.844
68760W        W28505  39.845  11.265   4.235
68761W        W28506  36.413  38.840   0.841
68762W        W28507  11.768  17.739   2.315
68763W        W28508  18.166  44.346   9.950
68764W        W28509   2.334   6.317  12.019
68765W        W28510  42.955  44.320   1.801
68766W        W28511  15.296  31.437  10.999
68767W        W28512  25.508  16.736   2.192
68768W        W28513  30.622   2.447  14.343
68769W        W28514  18.560  36.849   1.305
68770W        W28515  24.528   1.895   0.456
68771W        W28516  41.320  18.566   1.345
68772W        W28517  26.963  10.797   4.677
68773W        W28518  32.568  15.117  14.934
68774W        W28519  32.913  34.930  10.964
68775W        W28520  12.267  34.119   3.312
68776W        W28521  17.308   7.720  14.938
68777W        W28522   0.921  30.020  10.913
68778W        W28523  31.558   6.236   0.730
68779W        W28524  24.519   6.732  11.477
68780W        W28525  23.241  16.782   4.286
68781W        W28526  40.453  33.990   3.169
68782W        W28527  41.356  42.914   0.351
68783W        W28528   6.288   5.269   2.899
68784W        W28529  20.176  43.862  13.983
68785W        W28530  38.900  29.936   3.765
68786W        W28531  42.376  39.532   4.162
68787W        W28532   4.833  35.914  10.562
68788W        W28533  14.169  43.308  10.449
68789W        W28534  35.919  15.221  12.971
68790W        W28535   8.385  20.070  11.022
68791W        W28536  11.235  28.988   4.134
68792W        W28537  33.055  23.584   4.621
68793W        W28538  33.064   8.315   4.628
68794W        W28539   4.815  34.518   2.887
68795W        W28540  40.901  34.066   4.791
68796W        W28541  15.132   9.786   0.481
68797W        W28542  42.372  36.579   3.835
68798W        W28543  15.217  25.060  13.791
68799W        W28544   9.677   7.235  14.295
68800W        W28545  43.290   6.379   1.398
68801W        W28546  12.150   3.370   3.169
68802W        W28547  30.136   6.318   2.724
68803W        W28548  42.847  28.600   4.172
68804W        W28549  37.888  31.008  13.446
68805W        W28550  31.419   1.329  12.093
68806W        W28551  12.118  15.151   2.704
68807W        W28552   5.855   3.386   1.761
68808W        W28553  13.316  42.913   2.367
68809W        W28554  25.972   0.966   0.311
68810W        W28555  10.208   2.800  13.814
68811W        W28556  18.104  37.429   5.321
68812W        W28557   8.306   9.816   4.781
68813W        W28558  20.233  33.981  14.899
68814W        W28559  17.561  15.638  11.066
68815W        W28560  35.452  44.808   4.176
68816W        W28561  25.017  15.774  14.283
68817W        W28562  35.468  41.322   2.318
68818W        W28563   4.915  32.610   2.878
68819W        W28564  14.266  22.095  13.825
68820W        W28565  25.134   2.465   1.731
68821W        W28566   2.817  25.697  12.371
68822W        W28567  20.595  29.465   4.207
68823W        W28568  22.508  23.050  11.950
68824W        W28569  15.259  16.317  13.800
68825W        W28570  39.976   4.857  10.520
68826W        W28571  44.940  16.109  13.942
68827W        W28572   8.205   4.766  10.951
68828W        W28573  40.799  17.657  10.454
68829W        W28574  32.506  24.095   5.268
68830W        W28575  16.305  37.909  11.390
68831W        W28576  11.278  24.628  10.494
68832W        W28577  11.230   7.701  12.838
68833W        W28578  36.071  35.043  12.451
68834W        W28579  13.701  37.892   1.808
68835W        W28580  40.897   0.478   4.269
68836W        W28581  40.806   1.275   1.698
68837W        W28582  38.361  20.728  14.860
68838W        W28583  40.514  43.779   4.832
68839W        W28584  14.134  21.237   4.337
68840W        W28585  24.538  14.645  11.589
68841W        W28586  17.272  24.197  14.300
68842W        W28587  18.759  22.631   4.156
68843W        W28588  43.850  12.810   0.454
68844W        W28589  21.203   7.830   2.833
68845W        W28590  27.091   9.841   1.417
68846W        W28591   1.369  17.237  14.877
68847W        W28592  32.085  24.501  11.506
68848W        W28593  27.504   9.150  11.555
68849W        W28594  19.536  23.693  12.016
68850W        W28595  28.439  30.481  12.037
68851W        W28596  14.275  13.716  11.011
68852W        W28597  24.607  23.671  10.590
68853W        W28598  24.673  41.930  11.393
68854W        W28599   7.768  23.170  13.932
68855W        W28600  39.867  22.663  10.975
68856W        W28601   0.364   9.153  12.367
68857W        W28602  17.179  15.308   2.790
68858W        W28603  39.809  28.589  13.903
68859W        W28604  29.062  27.541   3.827
68860W        W28605  17.659  19.133   1.805
68861W        W28606  36.895  11.365  14.787
68862W        W28607   2.805  15.580  13.957
68863W        W28608   6.725  34.516   0.847
68864W        W28609   1.850  17.642  10.961
68865W        W28610  19.251  44.454   2.194
68866W        W28611  42.978  42.291  12.388
68867W        W28612  11.146  19.126   1.332
68868W        W28613  35.965  32.900  11.987
68869W        W28614  12.293  34.949   5.800
68870W        W28615  44.891  40.988   4.329
68871W        W28616   7.752  32.473   4.250
68872W        W28617  34.596  36.506  10.901
68873W        W28618  34.450  13.262   3.858
68874W        W28619  22.683  12.244   4.644
68875W        W28620  15.270  30.038  14.448
68876W        W28621   6.208  21.625   0.858
68877W        W28622  12.794  20.766   2.722
68878W        W28623  20.650  39.992  14.385
68879W        W28624  44.282   3.285  11.531
68880W        W28625  18.741   6.915   4.303
68881W        W28626   9.345   0.423   3.675
68882W        W28627  22.237  43.487   4.164
68883W        W28628   4.935  19.764  12.877
68884W        W28629  42.441  44.811  11.911
68885W        W28630  41.401  44.313   1.803
68886W        W28631  43.943  39.055   4.626
68887W        W28632  32.576  27.514   3.815
68888W        W28633  12.611   0.418   0.819
68889W        W28634  24.506  38.022   4.815
68890W        W28635  44.279   4.417   0.434
68891W        W28636  33.539  27.963   0.249
68892W        W28637   6.801  23.051  14.849
68893W        W28638  11.313  21.239   4.300
68894W        W28639  24.673  17.090  11.400
68895W        W28640  16.668  31.425  12.030
68896W        W28641  14.266  13.663   1.265
68897W        W28642  44.924   3.373   1.931
68898W        W28643   7.779  17.557  13.544
68899W        W28644  21.756  16.205   0.848
68900W        W28645  38.340  12.289   0.347
68901W        W28646  30.501  24.695   4.823
68902W        W28647  34.509  37.465  12.934
68903W        W28648   3.357  20.656   0.337
68904W        W28649  25.474  31.561   2.401
68905W        W28650   4.426  30.654   1.363
68906W        W28651  20.684  31.986  10.895
68907W        W28652  25.088   8.227   3.307
68908W        W28653  15.619   8.166  14.345
68909W        W28654  18.163  16.775   3.359
68910W        W28655  44.415  18.667  12.936
68911W        W28656  43.438   5.726  14.412
68912W        W28657  12.796  19.272   1.748
68913W        W28658  24.517  44.406  11.878
68914W        W28659  44.373  13.792   2.873
68915W        W28660   2.904  22.674  12.419
68916W        W28661  16.616  41.987   4.190
68917W        W28662  24.978  27.145  11.372
68918W        W28663   2.362  29.539  14.837
68919W        W28664  15.790   7.176   0.874
68920W        W28665  18.569  16.720   1.315
68921W        W28666   8.303   9.192  14.387
68922W        W28667   9.372   4.376   0.845
68923W        W28668  22.726  43.800   0.299
68924W        W28669   5.712  36.847   0.964
68925W        W28670  33.012  36.886  12.020
68926W        W28671  27.045  18.703  14.795
68927W        W28672  17.083   3.359   4.215
68928W        W28673  25.095   4.391  14.415
68929W        W28674  16.750  37.070  13.852
68930W        W28675  17.070  14.158  11.506
68931W        W28676  15.188  17.591  12.980
68932W        W28677  42.817  41.940  13.322
68933W        W28678   4.284  30.922   5.755
68934W        W28679  44.259  15.107  10.105
68935W        W28680  24.084  20.607   4.258
68936W        W28681  26.456  19.154  14.461
68937W        W28682  34.935  36.871   2.871
68938W        W28683  29.619  10.259   0.267
68939W        W28684  25.470  11.273  14.886
68940W        W28685  41.393  17.210  13.915
68941W        W28686   5.291   1.242  10.538
68942W        W28687  21.081  18.635  10.443
68943W        W28688  28.484  37.942   3.869
68944W        W28689  40.408   3.840  14.773
68945W        W28690  39.331   5.911   0.350
68946W        W28691   6.911  41.027   2.768
68947W        W28692  14.130  44.359  11.007
68948W        W28693  32.524   7.747   2.849
68949W        W28694  26.603   4.384  13.953
68950W        W28695  35.416   2.753  12.037
68951W        W28696  24.026  22.688   1.276
68952W        W28697  21.225  44.996  12.917
68953W        W28698   1.360  28.496   2.240
68954W        W28699  20.622  11.249   3.640
68955W        W28700  34.614  33.416   1.720
68956W        W28701  33.977  21.637   0.404
68957W        W28702  38.028  31.949   3.190
68958W        W28703  31.512   9.226   4.210
68959W        W28704  16.674  37.470   3.860
68960W        W28705   2.303  33.086   4.706
68961W        W28706  31.135  20.101   0.870
68962W        W28707  15.208  20.619  11.008
68963W        W28708  18.580  10.873   1.771
68964W        W28709  17.686  12.799   0.323
68965W        W28710   7.717  34.871  10.065
68966W        W28711   2.767  39.951   4.297
68967W        W28712  11.850  34.442  12.384
68968W        W28713   0.276  26.553  13.792
68969W        W28714   0.829  24.016  12.935
68970W        W28715  18.130  15.299  14.031
68971W        W28716  13.143  12.613  12.056
68972W        W28717   5.225  11.203  11.585
68973W        W28718  29.586  18.563  11.567
68974W        W28719  27.064   4.326   3.272
68975W        W28720  26.545   3.353   5.116
68976W        W28721   6.199  16.248  12.347
68977W        W28722  19.135  35.478  10.991
68978W        W28723  29.515  38.484   4.695
68979W        W28724  23.009  20.737   4.829
68980W        W28725  14.151  33.029  13.805
68981W        W28726   2.265   8.387   3.357
68982W        W28727  30.001  16.304  12.564
68983W        W28728  36.578  21.219   4.262
68984W        W28729  32.065   1.843  14.776
68985W        W28730  21.228   8.873   2.747
68986W        W28731  14.276  25.186   1.765
68987W        W28732  29.459  25.110   4.751
68988W        W28733   2.401   1.971   1.698
68989W        W28734  41.312  10.697   2.394
68990W        W28735  32.493  37.375   0.346
68991W        W28736  14.250  31.073  12.848
68992W        W28737  12.663   6.223   2.236
68993W        W28738  18.566  29.054   2.832
68994W        W28739  42.974  16.292   1.743
68995W        W28740   0.931  44.505  14.787
68996W        W28741  12.246  40.452   1.876
68997W        W28742  19.079  13.828  13.407
68998W        W28743  29.159  38.435  12.399
68999W        W28744  20.231  32.118   0.882
69000W        W28745  38.037   5.204  14.963
69001W        W28746  38.518  18.749   1.425
69002W        W28747  31.603  31.947   2.829
69003W        W28748  10.290   5.848   1.232
69004W        W28749  40.803  32.554  12.903
69005W        W28750  13.265  37.078  13.548
69006W        W28751  27.592  36.498   2.693
69007W        W28752  25.205  35.414  14.407
69008W        W28753  10.202  44.356  14.849
69009W        W28754  28.957  35.885  14.325
69010W        W28755  31.151  16.658   1.915
69011W        W28756   8.756   5.406   1.419
69012W        W28757   9.697  43.881  11.580
69013W        W28758  34.535  16.141  13.840
69014W        W28759  31.961  34.002  14.445
69015W        W28760  15.090  27.577  13.819
69016W        W28761   4.413   2.413  12.882
69017W        W28762   1.737  18.256   0.796
69018W        W28763  34.527   9.687  14.297
69019W        W28764  18.686  14.593   4.166
69020W        W28765   6.705  18.163  14.804
69021W        W28766   1.890  31.583   3.650
69022W        W28767  44.918  17.726   2.396
69023W        W28768  14.205  30.046   2.399
69024W        W28769  38.376  38.844  14.923
69025W        W28770  43.339  38.843  14.474
69026W        W28771   7.729  14.200   0.358
69027W        W28772   1.331   0.465   4.711
69028W        W28773  10.265   8.842  10.486
69029W        W28774  21.555  44.898  14.760
69030W        W28775  12.271  15.238   0.959
69031W        W28776  22.151  38.824   4.604
69032W        W28777  36.843  26.463   1.832
69033W        W28778   8.882  31.452  13.368
69034W        W28779  13.728  36.923   3.783
69035W        W28780   1.458  33.889  12.050
69036W        W28781   3.300   8.827   4.164
69037W        W28782  37.994  28.481  11.474
69038W        W28783   9.880  23.632   2.760
69039W        W28784  27.177  36.379   1.886
69040W        W28785   1.888  30.513  14.410
69041W        W28786  27.152  37.556  11.099
69042W        W28787  20.748  39.426   3.654
69043W        W28788  15.691  43.448  11.518
69044W        W28789  42.323  10.344  13.414
69045W        W28790  18.729  32.466  14.990
69046W        W28791  19.180  18.118   2.829
69047W        W28792  43.894  17.715  12.350
69048W        W28793  22.713  42.432  10.571
69049W        W28794  38.967   9.657  11.874
69050W        W28795   0.371  19.171   5.245
69051W        W28796  11.798  31.567   3.232
69052W        W28797  41.433  19.594  13.973
69053W        W28798  24.707  14.731   3.253
69054W        W28799   6.229  21.686  11.403
69055W        W28800  33.089  27.647   4.743
69056W        W28801  35.913  43.351   1.798
69057W        W28802  13.273  33.978   2.220
69058W        W28803  36.566  13.350   0.404
69059W        W28804  28.512  13.740  14.923
69060W        W28805  29.469  42.409   3.838
69061W        W28806  39.525  24.069   2.876
69062W        W28807  16.305   8.269  13.836
69063W        W28808  29.951   7.344  13.439
69064W        W28809   8.741  16.208  14.767
69065W        W28810  17.202   1.351   4.266
69066W        W28811  13.714  41.387  11.556
69067W        W28812   7.353  32.400   0.856
69068W        W28813  38.571  44.899  14.895
69069W        W28814   1.243  24.160  13.982
69070W        W28815  29.116   4.348   2.410
69071W        W28816   1.902  22.728   2.235
69072W        W28817  19.054  16.192   3.793
69073W        W28818   8.230   9.316   4.786
69074W        W28819  28.012  25.524  10.480
69075W        W28820  44.003  11.228  12.824
69076W        W28821  30.443  16.173   2.735
69077W        W28822  26.963  39.318  13.034
69078W        W28823  16.216   8.788  13.861
69079W        W28824  14.807  28.965   0.751
69080W        W28825  37.051  40.516   0.351
69081W        W28826  27.100  23.151  11.563
69082W        W28827  20.095  41.874   2.275
69083W        W28828  33.986  25.210  10.575
69084W        W28829  39.879  30.937  14.441
69085W        W28830  37.887   2.453  11.012
69086W        W28831  12.624  23.694   0.351
69087W        W28832  23.555  14.701   2.812
69088W        W28833   1.744   5.843   2.180
69089W        W28834   8.232  31.477  13.361
69090W        W28835  30.459  19.559   3.864
69091W        W28836  32.079  26.994  13.995
69092W        W28837  38.549  41.870  14.889
69093W        W28838  38.022   7.679  10.456
69094W        W28839   5.290   5.218  13.831
69095W        W28840  34.915  40.979  12.843
69096W        W28841  17.102  28.515  10.637
69097W        W28842  32.921  35.453  11.878
69098W        W28843  35.408   1.928   3.715
69099W        W28844  16.160  18.053   1.411
69100W        W28845   2.228  17.185   3.737
69101W        W28846  31.911  21.031   3.277
69102W        W28847   8.273  14.126  13.419
69103W        W28848  38.826  40.512  12.401
69104W        W28849  30.641  34.937  11.857
69105W        W28850  43.017  35.572  10.456
69106W        W28851   5.297   6.226   3.868
69107W        W28852   2.471  25.013   5.287
69108W        W28853  27.014   0.354   2.353
69109W        W28854  41.466  36.099   3.254
69110W        W28855  31.902  19.089   2.786
69111W        W28856  10.655  13.783   0.395
69112W        W28857   7.191   0.416   3.808
69113W        W28858  19.107  10.308  11.937
69114W        W28859  25.617  39.836  11.041
69115W        W28860  22.745  24.049   4.159
69116W        W28861  29.441  41.030   0.394
69117W        W28862  36.487  13.324   4.251
69118W        W28863  37.555  41.968   0.857
69119W        W28864  14.763  20.197  14.458
69120W        W28865  19.593  29.159   1.875
69121W        W28866  10.196   6.261  11.020
69122W        W28867   2.847  40.303  11.561
69123W        W28868  24.051   1.838   1.845
69124W        W28869  19.128  29.023   2.265
69125W        W28870  10.372   3.857  11.890
69126W        W28871   8.371  10.689  11.030
69127W        W28872  42.510  35.898   2.783
69128W        W28873  16.186   2.252  10.994
69129W        W28874  10.711  13.683  11.105
69130W        W28875  27.101  39.394   4.160
69131W        W28876  15.693  41.828  11.401
69132W        W28877  23.044  32.499  14.335
69133W        W28878  32.427  43.423   2.751
69134W        W28879  18.050  21.106  14.350
69135W        W28880   9.214  26.997   0.245
69136W        W28881  26.975  13.682   5.610
69137W        W28882   0.812  26.679   2.768
69138W        W28883   2.805  25.191   1.231
69139W        W28884  33.589  30.440   4.353
69140W        W28885  20.665   1.904  11.996
69141W        W28886  33.891  26.624   2.886
69142W        W28887  11.135  23.114  14.885
69143W        W28888   0.372  15.285  13.481
69144W        W28889   8.746   3.783  14.498
69145W        W28890  33.102  10.174   0.911
69146W        W28891  40.451   0.360  10.997
69147W        W28892  36.947   9.755  12.898
69148W        W28893  40.520  30.516  12.048
69149W        W28894  20.549  27.050   4.280
69150W        W28895   9.752   0.952   4.308
69151W        W28896  44.934  10.823   4.703
69152W        W28897  18.170   7.345  10.940
69153W        W28898  28.179  36.521  13.324
69154W        W28899  11.329  40.878  14.922
69155W        W28900  32.963  43.911  11.502
69156W        W28901   5.896  20.162  11.865
69157W        W28902  42.807   4.315   0.747
69158W        W28903   9.849   5.688  14.841
69159W        W28904   2.464  15.302   2.681
69160W        W28905  40.949  34.071   4.233
69161W        W28906  16.694  11.275  10.429
69162W        W28907  36.371  31.957   5.123
69163W        W28908  35.903  34.575   4.691
69164W        W28909  12.850  14.714  12.851
69165W        W28910  14.164  17.307   1.305
69166W        W28911  38.569  14.227   0.254
69167W        W28912  41.006  39.457  14.004
69168W        W28913  38.964   8.663  10.017
69169W        W28914   0.799  43.435   4.170
69170W        W28915  16.727  15.249  10.620
69171W        W28916   8.718  13.336  12.038
69172W        W28917  36.091  35.505  11.453
69173W        W28918  27.194  22.115   3.823
69174W        W28919  43.318  38.326   0.793
69175W        W28920  23.094  24.577  11.919
69176W        W28921  12.826  13.213  10.468
69177W        W28922  38.845  44.450   1.892
69178W        W28923  32.977  24.510   1.865
69179W        W28924  24.212   4.362   0.963
69180W        W28925  23.710  30.562  11.080
69181W        W28926  42.406  27.473  12.908
69182W        W28927  17.708  14.248  10.492
69183W        W28928  22.022  38.987  11.446
69184W        W28929  39.933   3.275  13.831
69185W        W28930  22.192   0.962   0.272
69186W        W28931  24.102  27.087  10.934
69187W        W28932  34.959  30.941   0.443
69188W        W28933  27.560  32.003  10.923
69189W        W28934  17.661   5.708  14.866
69190W        W28935   2.268  19.140  13.866
69191W        W28936  42.006  15.732  13.845
69192W        W28937  19.612   0.354  13.990
69193W        W28938  20.678   5.831   0.894
69194W        W28939  10.727  17.727  12.434
69195W        W28940  14.190  37.349   1.873
69196W        W28941  29.167  25.008   2.715
69197W        W28942  20.569  39.424   4.154
69198W        W28943  35.048   6.182   9.543
69199W        W28944   9.274  24.573   2.752
69200W        W28945  37.479   0.831   4.708
69201W        W28946  35.934  38.343   0.933
69202W        W28947  36.479  35.973  11.033
69203W        W28948   4.897  13.204  12.572
69204W        W28949   6.218  23.031   2.876
69205W        W28950   5.223  20.222  13.858
69206W        W28951  16.722  12.796   3.177
69207W        W28952  35.862   0.912  12.344
69208W        W28953   1.881  33.555   0.432
69209W        W28954  42.947  37.338  12.839
69210W        W28955   6.699   3.339  10.904
69211W        W28956  22.168  21.090   2.797
69212W        W28957  34.465  21.065  10.945
69213W        W28958  23.497  40.366  12.879
69214W        W28959   7.190   9.838   4.291
69215W        W28960  30.629  17.101   1.914
69216W        W28961  19.668  26.149   0.383
69217W        W28962   7.309  19.754   1.333
69218W        W28963   7.400   5.306  10.569
69219W        W28964  24.070  32.909  12.983
69220W        W28965  20.685   4.212   0.327
69221W        W28966   5.361   7.354   2.294
69222W        W28967  11.184   6.807   3.847
69223W        W28968  36.985  32.610   4.783
69224W        W28969  13.788  32.420  14.910
69225W        W28970  33.557  39.481  11.412
69226W        W28971   4.774   4.355   3.792
69227W        W28972  30.105  25.565   1.335
69228W        W28973   6.301  31.565   1.752
69229W        W28974  29.452  27.606   0.290
69230W        W28975  44.410  34.910   4.130
69231W        W28976  12.742  40.825   1.339
69232W        W28977   1.852  16.100   3.763
69233W        W28978   9.677  31.620   2.855
69234W        W28979  35.362  26.152   3.826
69235W        W28980  20.257   7.340   2.260
69236W        W28981  32.546  37.930  12.457
69237W        W28982   4.293   2.470  12.022
69238W        W28983  12.763   2.916   0.797
69239W        W28984  23.716   8.691   0.367
69240W        W28985   1.368   8.189  14.814
69241W        W28986   8.770  20.147  14.286
69242W        W28987  41.427  30.933   1.698
69243W        W28988  38.561  33.098  12.959
69244W        W28989  14.715  37.380  12.410
69245W        W28990  32.442   4.323   1.879
69246W        W28991   5.795   4.258   4.649
69247W        W28992  14.641  37.998   1.221
69248W        W28993   4.443  19.624   2.782
69249W        W28994  10.231  39.852  13.872
69250W        W28995   0.960   9.692   3.337
69251W        W28996  34.922   1.766   1.277
69252W        W28997   3.956  41.016   4.258
69253W        W28998  33.407  23.191   0.433
69254W        W28999  31.437  43.505   3.237
69255W        W29000  12.278   4.876   0.405
69256W        W29001   7.907  18.725   4.120
69257W        W29002  21.614  30.627  14.307
69258W        W29003  42.292  40.921  14.922
69259W        W29004   8.272  23.040  10.941
69260W        W29005  10.842  31.606  11.034
69261W        W29006   8.333   0.958  13.025
69262W        W29007  10.784  43.006  10.590
69263W        W29008   8.379  10.195   1.704
69264W        W29009   6.226  27.628   2.319
69265W        W29010  19.592  38.005   2.756
69266W        W29011  23.162  38.504  13.347
69267W        W29012  44.421  33.996  11.595
69268W        W29013   1.458  30.648   2.730
69269W        W29014  22.650  12.250   5.658
69270W        W29015   1.972  29.507  12.973
69271W        W29016  40.325   8.296  13.020
69272W        W29017  32.044   3.787   1.216
69273W        W29018   7.745  22.655  13.356
69274W        W29019   9.364  12.717  14.391
69275W        W29020  29.109  16.131   0.324
69276W        W29021  39.909  41.499  13.533
69277W        W29022  17.100  31.087   1.423
69278W        W29023  12.148  37.082   0.294
69279W        W29024  15.274  11.266  11.493
69280W        W29025  20.097   6.256   3.779
69281W        W29026  42.521  10.687   0.437
69282W        W29027  12.231  35.548  11.903
69283W        W29028  43.499   5.300   2.205
69284W        W29029  37.851  32.440   4.615
69285W        W29030   1.948  34.579  11.068
69286W        W29031  37.870  25.209  12.366
69287W        W29032   9.300  32.907  11.942
69288W        W29033  22.043  28.577   0.339
69289W        W29034  22.639  38.500  10.083
69290W        W29035  25.062   4.883   2.408
69291W        W29036  20.172  43.464   3.805
69292W        W29037  15.779   1.275   2.699
69293W        W29038  42.956  36.516   0.453
69294W        W29039  31.972   8.334   4.685
69295W        W29040   2.337  25.567  12.529
69296W        W29041  29.496  19.230   2.349
69297W        W29042   3.275  12.699  14.377
69298W        W29043  31.144   9.217  14.779
69299W        W29044  19.221   8.734   4.117
69300W        W29045   4.231   9.705   3.222
69301W        W29046  17.688  20.604   0.794
69302W        W29047  43.430  14.814   3.183
69303W        W29048  23.198  13.846   4.773
69304W        W29049  32.079  17.292  12.452
69305W        W29050  19.154  17.232  13.817
69306W        W29051  40.922  12.139  10.438
69307W        W29052  44.892  35.931   1.789
69308W        W29053   5.328  26.674   2.869
69309W        W29054  16.234  38.037   2.271
69310W        W29055   8.744  29.633  14.337
69311W        W29056  24.116   0.855  12.081
69312W        W29057  40.487  17.131  10.546
69313W        W29058  38.911  23.033  10.902
69314W        W29059  20.610  13.332  13.878
69315W        W29060  33.076   7.417  12.034
69316W        W29061   0.750  23.051   4.797
69317W        W29062  10.367  44.949  14.421
69318W        W29063  30.443   9.341   0.249
69319W        W29064   3.784  22.091   0.332
69320W        W29065  11.136   1.383  12.481
69321W        W29066   4.252  26.624   4.817
69322W        W29067  40.866   3.394  11.101
69323W        W29068  28.557  22.076   3.345
69324W        W29069  13.837   1.924   2.710
69325W        W29070  20.129  34.459  12.904
69326W        W29071   5.420  23.684   2.726
69327W        W29072  22.171  39.949  10.619
69328W        W29073  42.895  41.891   3.328
69329W        W29074   4.316  13.729   3.182
69330W        W29075  17.783   2.343  13.371
69331W        W29076  26.462   9.787   1.723
69332W        W29077  23.529   5.743  13.444
69333W        W29078  10.658   8.900   0.744
69334W        W29079  30.570  27.670   2.702
69335W        W29080   6.295  43.378  14.384
69336W        W29081  38.376  15.291  14.286
69337W        W29082   7.861   6.424  13.790
69338W        W29083  12.211  38.838   5.227
69339W        W29084  26.018  35.073  13.377
69340W        W29085   6.343  20.089  10.625
69341W        W29086  10.345  32.940   3.281
69342W        W29087  21.183  32.069  14.914
69343W        W29088   9.238  19.276   1.740
69344W        W29089  34.496  31.549   2.228
69345W        W29090   7.804  31.532   3.777
69346W        W29091  32.947   4.716  13.810
69347W        W29092  10.202  25.646  13.858
69348W        W29093  23.151  41.468   3.291
69349W        W29094  19.568   1.430   0.826
69350W        W29095   1.371  18.283   2.180
69351W        W29096  25.049   0.369  14.844
69352W        W29097  34.879  13.839   4.284
69353W        W29098  16.187  28.566   3.708
69354W        W29099   5.771   0.299   4.158
69355W        W29100  28.127  12.750   2.766
69356W        W29101  29.460   3.804   5.774
69357W        W29102  34.076   4.270   0.416
69358W        W29103  41.028  29.662   2.396
69359W        W29104  42.986  17.794  13.308
69360W        W29105   7.874  32.501  12.952
69361W        W29106  26.576   3.320   4.799
69362W        W29107  19.155  14.658   2.189
69363W        W29108  36.027  20.719  12.394
69364W        W29109  25.487   8.689  11.401
69365W        W29110  16.241  31.606  14.887
69366W        W29111  23.146  23.218  10.894
69367W        W29112  23.016  37.505  10.964
69368W        W29113  10.233   4.317   2.330
69369W        W29114  41.831  33.526   0.803
69370W        W29115  19.263  21.108  13.014
69371W        W29116   6.843  14.781   1.771
69372W        W29117  23.622  23.073  10.505
69373W        W29118  42.843  20.165   4.685
69374W        W29119  27.555   7.211   0.318
69375W        W29120  43.296  10.156  12.872
69376W        W29121  18.712   1.964  14.465
69377W        W29122   1.384  35.402   9.996
69378W        W29123   8.724  12.731   3.196
69379W        W29124   3.898  44.761   2.294
69380W        W29125  13.327   6.906   3.725
69381W        W29126   0.366  16.641  11.068
69382W        W29127  32.096  11.827   2.355
69383W        W29128  12.613  27.167  13.460
69384W        W29129   2.893   3.915   2.756
69385W        W29130  29.541  34.936   0.420
69386W        W29131  33.433  39.546   3.779
69387W        W29132  35.022   0.876   4.691
69388W        W29133  23.027  28.038  12.841
69389W        W29134  22.045  23.157   2.753
69390W        W29135  36.357  18.573   1.295
69391W        W29136  32.047  15.301   0.748
69392W        W29137   8.777   9.287  13.833
69393W        W29138  33.106  41.800   1.784
69394W        W29139  39.449  40.963   3.802
69395W        W29140   4.826  44.769   1.904
69396W        W29141  27.652   2.722  13.311
69397W        W29142  42.527   9.244   4.324
69398W        W29143  38.450  39.453  12.489
69399W        W29144  30.029  26.986   1.273
69400W        W29145  22.018   5.718   0.941
69401W        W29146  44.418   1.946   4.725
69402W        W29147  43.850   6.342  12.089
69403W        W29148  41.853  44.470   0.314
69404W        W29149  15.285  35.911  12.534
69405W        W29150   4.312  38.056  13.039
69406W        W29151  23.543  13.736  13.045
69407W        W29152  29.626  16.569  14.415
69408W        W29153  18.613   0.886  10.465
69409W        W29154  11.683  31.073   3.361
69410W        W29155  22.041  29.546  12.578
69411W        W29156  28.519   4.785  12.841
69412W        W29157   8.796  32.605   0.869
69413W        W29158  44.857  39.557   0.960
69414W        W29159  30.443  30.952  11.478
69415W        W29160  23.166   0.375  14.832
69416W        W29161  44.430  24.686  12.883
69417W        W29162   4.229  35.980  13.800
69418W        W29163   6.343   2.966   2.852
69419W        W29164  29.102  16.790   3.270
69420W        W29165  37.052  13.201   2.394
69421W        W29166  39.028  27.666  14.483
69422W        W29167  23.553   3.317   5.226
69423W        W29168  25.117  24.134   4.745
69424W        W29169  27.686   3.327  10.939
69425W        W29170   6.779  29.139  14.498
69426W        W29171  36.413  23.502  10.447
69427W        W29172  27.085  35.902   4.618
69428W        W29173  13.812   2.285   1.328
69429W        W29174  15.282  26.204  14.868
69430W        W29175  30.152  27.534  10.467
69431W        W29176  30.483   6.253   3.318
69432W        W29177  29.149   2.801   0.325
69433W        W29178  11.347  22.500   3.335
69434W        W29179   8.882  33.620  14.340
69435W        W29180   4.205  19.544  13.516
69436W        W29181  25.071   2.363  13.054
69437W        W29182   7.229  16.780  14.391
69438W        W29183   0.895  11.156  14.467
69439W        W29184  23.163  18.651  11.890
69440W        W29185  33.562  16.731  13.917
69441W        W29186  34.882   9.391   1.291
69442W        W29187  13.684  40.908  12.898
69443W        W29188  43.003   0.335   1.918
69444W        W29189   1.833  35.996   3.375
69445W        W29190   5.301  28.038  14.845
69446W        W29191  16.131   5.349   3.736
69447W        W29192   7.246  17.293  12.970
69448W        W29193  19.554   7.263   0.447
69449W        W29194  19.634  11.656  13.990
69450W        W29195  28.593  34.387  14.873
69451W        W29196   9.874   5.798  11.101
69452W        W29197   4.308  25.050  14.934
69453W        W29198  22.069  21.151   3.385
69454W        W29199   4.240  12.645  13.939
69455W        W29200  24.053   0.914   1.776
69456W        W29201   0.961   0.959   0.890
69457W        W29202  39.516  29.441  13.966
69458W        W29203   9.313  29.130   4.623
69459W        W29204  44.318  23.212  13.358
69460W        W29205   4.892  30.605   3.240
69461W        W29206  38.485   5.764   1.344
69462W        W29207  14.678  23.637   1.807
69463W        W29208  40.496  30.943   3.166
69464W        W29209   8.705  22.582   4.657
69465W        W29210  21.212   9.849  11.478
69466W        W29211  13.197   9.261   2.873
69467W        W29212  35.540  41.992   3.296
69468W        W29213   9.743  20.051   2.232
69469W        W29214   6.393  28.524  11.558
69470W        W29215   6.799  41.891   2.740
69471W        W29216  39.509  14.094   1.767
69472W        W29217   1.359   4.258   1.868
69473W        W29218  37.847   1.768   0.312
69474W        W29219   6.845  19.180  14.337
69475W        W29220  23.231  12.809  13.975
69476W        W29221   3.842  41.482   2.823
69477W        W29222  14.810  24.206   2.794
69478W        W29223  38.073  21.098   1.284
69479W        W29224  40.848  16.072  14.860
69480W        W29225   5.788   2.226   0.750
69481W        W29226  42.341  39.497  13.847
69482W        W29227  43.456  28.118  11.075
69483W        W29228   3.786  11.782   0.757
69484W        W29229  37.928  18.586   3.642
69485W        W29230  35.072  31.931   1.867
69486W        W29231  13.213   5.929   0.942
69487W        W29232  17.218  27.690   1.212
69488W        W29233   7.330   5.298  11.984
69489W        W29234  36.368  28.093   2.802
69490W        W29235  26.587  15.590   1.902
69491W        W29236  36.362  17.770  10.530
69492W        W29237   0.306  36.566   1.314
69493W        W29238  32.001  40.026   3.712
69494W        W29239  16.308  36.005   1.782
69495W        W29240  32.621  40.917  14.339
69496W        W29241  10.849   5.348   3.258
69497W        W29242  25.002  30.071  11.950
69498W        W29243  15.659  27.026  14.982
69499W        W29244  37.435  37.464   4.831
69500W        W29245   2.871   6.920  12.908
69501W        W29246  10.321  15.306  14.870
69502W        W29247  18.104  15.656  11.479
69503W        W29248  26.011  40.393   3.201
69504W        W29249  13.232  24.485  13.540
69505W        W29250  15.612  14.292  14.805
69506W        W29251  22.117  33.556  14.304
69507W        W29252  32.598   0.427  11.908
69508W        W29253  36.088  31.521   4.744
69509W        W29254  25.110  33.441   3.778
69510W        W29255  32.081  35.581  13.532
69511W        W29256  37.890  17.243   1.881
69512W        W29257  20.659  40.327   1.725
69513W        W29258  18.148  44.321   0.743
69514W        W29259   2.374  40.025   3.713
69515W        W29260   4.922  12.350  13.038
69516W        W29261  24.638   1.450   0.768
69517W        W29262  32.959  34.067  10.564
69518W        W29263  14.709   2.961   3.284
69519W        W29264  42.977   4.874  12.417
69520W        W29265  35.962  26.994   1.844
69521W        W29266  17.296  32.627   3.382
69522W        W29267  14.143  31.019  14.860
69523W        W29268  31.949  32.968  11.515
69524W        W29269   2.443  24.720  12.883
69525W        W29270  41.903  36.553  11.028
69526W        W29271  42.935  27.117   0.296
69527W        W29272  43.403   3.316  12.907
69528W        W29273  11.635  11.639  14.348
69529W        W29274  36.943  44.439  14.435
69530W        W29275  38.347  25.607  12.398
69531W        W29276  40.451   9.370   3.251
69532W        W29277  27.584  27.076   4.607
69533W        W29278  37.942  32.445   4.242
69534W        W29279  39.929  24.043  12.343
69535W        W29280   0.942  20.210  13.942
69536W        W29281  18.097  44.828  10.589
69537W        W29282  10.703  17.173   2.363
69538W        W29283  11.147  24.229  13.916
69539W        W29284  20.715   7.388   4.326
69540W        W29285   3.399  26.148   3.699
69541W        W29286  22.088  26.498  10.587
69542W        W29287  42.801  14.150   2.243
69543W        W29288  25.069  33.952  12.500
69544W        W29289  12.726  36.063   0.897
69545W        W29290  23.604  43.812  14.426
69546W        W29291  12.790  22.241   2.274
69547W        W29292  34.902  11.202  14.976
69548W        W29293  40.880   7.770  12.543
69549W        W29294  44.317  15.209  12.031
69550W        W29295  44.990  32.052  13.980
69551W        W29296   1.294  14.238  13.535
69552W        W29297  28.637  19.244   2.392
69553W        W29298  26.692  44.882   1.251
69554W        W29299  29.458  33.949  13.919
69555W        W29300  35.563  33.495  13.311
69556W        W29301   3.329  41.470  14.313
69557W        W29302   0.937  13.145  13.364
69558W        W29303  20.136  40.044   4.180
69559W        W29304  16.706  31.504  14.763
69560W        W29305   5.849  12.202  14.356
69561W        W29306   8.368  19.677  13.486
69562W        W29307   3.400  28.593  10.456
69563W        W29308  23.058  43.884   0.964
69564W        W29309  12.815   7.309  11.906
69565W        W29310   1.935  42.894  14.294
69566W        W29311  13.187  31.620  13.811
69567W        W29312  36.425  24.082   4.606
69568W        W29313  15.105  26.621  14.013
69569W        W29314  37.432  18.600   4.717
69570W        W29315  15.651  15.741  13.935
69571W        W29316   5.772  17.622  10.478
69572W        W29317  43.875  26.580  11.414
69573W        W29318  24.007  15.159   0.785
69574W        W29319   7.747  38.925  11.539
69575W        W29320   4.803   5.919  11.063
69576W        W29321  31.960  40.325   4.819
69577W        W29322  35.085  25.556   2.180
69578W        W29323  25.042  38.935   5.303
69579W        W29324  31.112  42.907   9.932
69580W        W29325   7.740   0.977   0.470
69581W        W29326  10.802  41.302  13.845
69582W        W29327  31.995   1.356  10.920
69583W        W29328  19.631   1.850   0.925
69584W        W29329  30.464  40.373   1.316
69585W        W29330  36.511  41.449   0.305
69586W        W29331  27.135  35.416  13.926
69587W        W29332  28.016  23.503   3.853
69588W        W29333   6.206  21.203  11.559
69589W        W29334  24.502   8.218   3.746
69590W        W29335  15.688  31.934   4.617
69591W        W29336  25.041  25.001  12.455
69592W        W29337  29.579  23.638   2.267
69593W        W29338  41.536  23.119   3.178
69594W        W29339  34.922   4.247  12.952
69595W        W29340   4.798  24.210  14.808
69596W        W29341  14.743   7.840   0.347
69597W        W29342  11.761   9.881  14.839
69598W        W29343  44.756  40.981   3.162
69599W        W29344  22.588   1.856   1.283
69600W        W29345  19.680  21.633  10.452
69601W        W29346  32.478  23.078  13.987
69602W        W29347   4.870   5.774  10.006
69603W        W29348   2.403   6.802  11.035
69604W        W29349   1.837  41.380  12.400
69605W        W29350  39.022  28.072  12.913
69606W        W29351  40.389  19.100   2.358
69607W        W29352  15.614  24.593  12.365
69608W        W29353   8.677  31.959   3.703
69609W        W29354  33.031   3.751  11.063
69610W        W29355  19.046  30.989   4.741
69611W        W29356   6.348  10.796  13.809
69612W        W29357  37.520  30.557   2.705
69613W        W29358  27.670  28.580  14.805
69614W        W29359   5.862  32.124  12.559
69615W        W29360  36.450  16.634   1.870
69616W        W29361  26.547  27.144   3.233
69617W        W29362  42.904  43.815  10.151
69618W        W29363   0.486  27.692  12.071
69619W        W29364  21.734  31.463   5.151
69620W        W29365   8.685  11.796  11.046
69621W        W29366  32.887   0.960  11.911
69622W        W29367  31.511  10.261  10.109
69623W        W29368  37.458  11.758   0.846
69624W        W29369  40.915   0.825   0.944
69625W        W29370  18.242   9.382  13.928
69626W        W29371  37.557  14.120   3.162
69627W        W29372  12.121  31.028   2.310
69628W        W29373  36.989  21.685   1.437
69629W        W29374   9.179  32.102  12.867
69630W        W29375   5.275   7.201  13.319
69631W        W29376  27.956  38.931   5.204
69632W        W29377  42.814   1.781  10.905
69633W        W29378   5.880  13.618   0.245
69634W        W29379  22.529   8.722  14.385
69635W        W29380  25.550  10.841  12.343
69636W        W29381  29.947  10.195  12.456
69637W        W29382  26.644  43.430   4.286
69638W        W29383  24.200  39.375  12.987
69639W        W29384  32.571  39.887  11.072
69640W        W29385  12.834  23.049  11.877
69641W        W29386  21.112   1.326  13.524
69642W        W29387   8.204   9.660  12.392
69643W        W29388  41.451  42.017   1.924
69644W        W29389  42.514  29.047  12.063
69645W        W29390   6.414   4.942   4.647
69646W        W29391  43.767  33.926   0.726
69647W        W29392  21.612  36.487   0.736
69648W        W29393   8.822  11.678   5.262
69649W        W29394   4.272  33.058  13.833
69650W        W29395  39.496  11.635   2.188
69651W        W29396  37.570  26.589   5.127
69652W        W29397  19.609  43.390  12.068
69653W        W29398  42.983  42.023   1.826
69654W        W29399   7.328  44.341   1.394
69655W        W29400  34.111  16.734   3.228
69656W        W29401   6.363  39.352  12.565
69657W        W29402  38.938  29.118   2.293
69658W        W29403   1.833  36.576   1.756
69659W        W29404  42.994  15.623   4.161
69660W        W29405  36.468  37.018  10.526
69661W        W29406   7.189  33.940   4.737
69662W        W29407  11.744  17.660  11.587
69663W        W29408  30.036  27.028   2.864
69664W        W29409  10.813  36.069  11.116
69665W        W29410  27.999  30.076  11.587
69666W        W29411  11.855  20.205  10.939
69667W        W29412  16.658  33.519   2.869
69668W        W29413  37.837   3.774  13.011
69669W        W29414  10.285  37.395  10.153
69670W        W29415  33.452   8.843   2.330
69671W        W29416   5.883  13.797  13.818
69672W        W29417   0.868  32.403   0.277
69673W        W29418  28.947  40.467  14.512
69674W        W29419  21.137  15.716   2.206
69675W        W29420  28.051  43.454  12.408
69676W        W29421  35.587  41.952  12.976
69677W        W29422  22.501  30.528  11.925
69678W        W29423  25.097  44.467  10.473
69679W        W29424   6.776   3.870   0.437
69680W        W29425  39.963  34.613   4.173
69681W        W29426  35.603  10.247   1.704
69682W        W29427  38.064  27.488   1.418
69683W        W29428  14.800  20.655   2.687
69684W        W29429  40.829  22.131   3.762
69685W        W29430  43.449  42.330  12.057
69686W        W29431  36.067   2.793  14.294
69687W        W29432  39.473  20.032   4.604
69688W        W29433  14.282   5.924  12.967
69689W        W29434   9.773  40.343  14.939
69690W        W29435   7.248   2.787  13.508
69691W        W29436   1.900  29.983   0.353
69692W        W29437  21.231   1.869  10.489
69693W        W29438  10.783   2.240   3.832
69694W        W29439   5.863  17.191  11.495
69695W        W29440  21.658   1.320  11.471
69696W        W29441  32.509   8.893   4.196
69697W        W29442  14.232  29.113   1.359
69698W        W29443  32.068   1.317  10.423
69699W        W29444  34.025   2.304  14.975
69700W        W29445  24.083  19.656  14.837
69701W        W29446   1.288  39.841  12.574
69702W        W29447  17.742  22.134   2.218
69703W        W29448  16.298  27.579   4.280
69704W        W29449  33.600  38.373  13.475
69705W        W29450  14.771  39.481   2.200
69706W        W29451   8.223   8.165  14.913
69707W        W29452  14.304   6.386   4.141
69708W        W29453  29.505  26.502   1.877
69709W        W29454  33.572  37.348   1.778
69710W        W29455   8.376  12.730   1.780
69711W        W29456  39.008   9.728  10.034
69712W        W29457   7.694  20.751   4.653
69713W        W29458  15.651  15.097  12.908
69714W        W29459  22.193  12.633   1.915
69715W        W29460  25.135  36.411   3.846
69716W        W29461  43.855  24.508   4.232
69717W        W29462  25.991  34.935  13.834
69718W        W29463   6.246  13.755   3.666
69719W        W29464  43.010  20.208   3.155
69720W        W29465  39.061  26.006   3.271
69721W        W29466   6.919  36.579  10.902
69722W        W29467   9.823   4.434  14.302
69723W        W29468  27.123   4.342   1.786
69724W        W29469  23.578  14.255   0.844
69725W        W29470   1.326   8.823   0.439
69726W        W29471   0.754  39.917   1.320
69727W        W29472  39.414  20.189  10.453
69728W        W29473  15.320  10.826  12.472
69729W        W29474  25.481   8.206  11.414
69730W        W29475  25.191  27.641   3.241
69731W        W29476   9.685  18.066  11.434
69732W        W29477   2.881   6.394   0.883
69733W        W29478   4.832  20.631  13.311
69734W        W29479  16.176   1.929  11.981
69735W        W29480   7.875  33.058  12.967
69736W        W29481   7.409  26.031   4.312
69737W        W29482  27.644  30.621   2.723
69738W        W29483  29.151  17.711  10.541
69739W        W29484  25.681  12.223   3.373
69740W        W29485  18.618   0.974  11.612
69741W        W29486  13.829  22.120  12.941
69742W        W29487  15.636  17.200   4.284
69743W        W29488  34.090   0.489   4.165
69744W        W29489  42.377   3.726  12.024
69745W        W29490  34.429  33.489   3.276
69746W        W29491   1.932  28.508  13.972
69747W        W29492  31.076  16.718   2.340
69748W        W29493   9.785  26.967  14.006
69749W        W29494  23.026  36.012   0.798
69750W        W29495  37.931  23.546   4.121
69751W        W29496  27.946  21.045   4.810
69752W        W29497  34.516  12.790   4.241
69753W        W29498  42.884  13.259  12.025
69754W        W29499  19.534  25.972   1.211
69755W        W29500  36.098  33.894   0.412
69756W        W29501  23.065  42.502   0.961
69757W        W29502   2.918  31.911   1.413
69758W        W29503  34.910  12.229   1.246
69759W        W29504  12.127  17.581  13.478
69760W        W29505  12.328   3.316  12.466
69761W        W29506   5.918  10.139   4.748
69762W        W29507  37.503  43.349   2.814
69763W        W29508  17.236  36.865  11.959
69764W        W29509  32.966  26.506   1.717
69765W        W29510  36.515  22.719  14.923
69766W        W29511   3.722  40.026   5.689
69767W        W29512  43.894  44.958  10.959
69768W        W29513  32.436  18.626  12.827
69769W        W29514  40.324  44.871  12.371
69770W        W29515   4.276   9.801  14.790
69771W        W29516  11.271   9.281  12.033
69772W        W29517   3.315  43.973   4.733
69773W        W29518  16.667   8.883  13.880
69774W        W29519  16.676   5.761  13.909
69775W        W29520  15.660  32.401   1.929
69776W        W29521  15.179  29.926  13.857
69777W        W29522  17.104  38.993  13.027
69778W        W29523  10.319  17.175   4.230
69779W        W29524  10.149  20.636   2.862
69780W        W29525  21.547  19.684   3.291
69781W        W29526  40.516  14.151  14.366
69782W        W29527  27.068  30.486  13.851
69783W        W29528  24.629  39.544   3.159
69784W        W29529  21.635  39.396   2.412
69785W        W29530  22.606   7.891   3.842
69786W        W29531  28.056   2.385   1.721
69787W        W29532  37.056  15.654  12.508
69788W        W29533  26.655  11.632   4.125
69789W        W29534  36.056  38.060   0.445
69790W        W29535  21.751  23.572   1.333
69791W        W29536   8.721  14.320   5.192
69792W        W29537   8.303  38.827  12.516
69793W        W29538  40.374   6.324  10.120
69794W        W29539  44.290   2.458  12.505
69795W        W29540   3.718  34.026   0.360
69796W        W29541   8.353  29.089   0.310
69797W        W29542  39.915  25.469   4.657
69798W        W29543  17.662  24.558   0.438
69799W        W29544  23.698  11.788  14.281
69800W        W29545  36.453  36.406  11.935
69801W        W29546  44.780  24.566  10.996
69802W        W29547  25.053   6.710   2.287
69803W        W29548  13.149  37.367   1.702
69804W        W29549   2.358  18.630  12.367
69805W        W29550  17.219   2.445  11.494
69806W        W29551  26.052  41.025   4.242
69807W        W29552  18.656  22.675   2.837
69808W        W29553  32.466  18.133   2.781
69809W        W29554  15.742  26.146  11.441
69810W        W29555  11.174  16.691   0.379
69811W        W29556  19.589   4.245  13.528
69812W        W29557  33.545   0.967  11.890
69813W        W29558  15.805  24.521  13.407
69814W        W29559  24.080  25.560   4.214
69815W        W29560   1.414  38.867   0.882
69816W        W29561  41.981  26.682   1.261
69817W        W29562  14.109  29.115  10.505
69818W        W29563  40.447   9.311  13.527
69819W        W29564  38.936   0.285   3.816
69820W        W29565   8.309  11.842   4.699
69821W        W29566  20.525  16.096  12.979
69822W        W29567   3.299  16.235   2.779
69823W        W29568  13.647   6.874  14.859
69824W        W29569  39.981  23.046  12.936
69825W        W29570  25.187  19.683  13.307
69826W        W29571  35.882  41.895  11.950
69827W        W29572  27.104  16.699   0.262
69828W        W29573  31.913  20.244  13.436
69829W        W29574  14.253  23.113   1.445
69830W        W29575  42.897  42.870   3.326
69831W        W29576  39.889  10.853   4.248
69832W        W29577  12.620  44.445  11.459
69833W        W29578  40.909  36.470  10.460
69834W        W29579  14.243  32.479  13.504
69835W        W29580  24.619  44.325  10.422
69836W        W29581  34.451  29.058   2.829
69837W        W29582  36.527   5.367  12.092
69838W        W29583  24.602   9.152   1.229
69839W        W29584  17.105  29.629   0.910
69840W        W29585   7.319  17.752   4.204
69841W        W29586  19.571  25.199  11.115
69842W        W29587  40.902  37.412   2.813
69843W        W29588  37.024  30.557   4.278
69844W        W29589  32.487  15.276  13.446
69845W        W29590  10.756   8.396  13.834
69846W        W29591   2.744   1.437   4.320
69847W        W29592  30.081   5.742  14.919
69848W        W29593   7.401  10.150  10.498
69849W        W29594  40.382  20.180  14.976
69850W        W29595  40.304  38.849   2.317
69851W        W29596  35.083   8.765   1.930
69852W        W29597  27.975  39.020   4.286
69853W        W29598  33.551  38.004   3.183
69854W        W29599  27.635   7.861  12.454
69855W        W29600  38.392  25.604   0.820
69856W        W29601  39.517   4.225  13.981
69857W        W29602  13.320  29.039   0.881
69858W        W29603  44.887  26.975   3.796
69859W        W29604  21.618   8.245   0.905
69860W        W29605  30.508   6.220  14.773
69861W        W29606  10.230   3.899  10.443
69862W        W29607  35.911   3.380   2.210
69863W        W29608   5.241  37.478  12.562
69864W        W29609  30.923  13.313  11.454
69865W        W29610  35.561  39.929   1.807
69866W        W29611  16.080  42.000  13.921
69867W        W29612  28.468  41.860   2.401
69868W        W29613  29.602  19.208   4.640
69869W        W29614  27.021  15.781  12.373
69870W        W29615  44.974   8.695  12.927
69871W        W29616  32.556  33.000   2.815
69872W        W29617   6.268  43.942  13.495
69873W        W29618  38.041   1.948  11.009
69874W        W29619  26.586  18.583   1.400
69875W        W29620   9.318  29.995  10.617
69876W        W29621   0.795  44.320   3.316
69877W        W29622  38.469  24.041  12.497
69878W        W29623  21.050   7.402  14.419
69879W        W29624  44.444  23.135  13.892
69880W        W29625   4.284  44.975  12.985
69881W        W29626  13.621  26.020   0.429
69882W        W29627   2.267  23.989  12.078
69883W        W29628   6.697  13.324   0.306
69884W        W29629  21.039  19.628  13.982
69885W        W29630   8.382  19.600   4.271
69886W        W29631   3.788  34.896   3.713
69887W        W29632  22.564  28.129   4.648
69888W        W29633  23.206   7.665   4.633
69889W        W29634  12.613  38.468   0.764
69890W        W29635  41.514  40.804   0.861
69891W        W29636  12.789  21.736  12.069
69892W        W29637  23.709  21.690   1.443
69893W        W29638  15.206  38.563  12.423
69894W        W29639  11.201  24.554   4.834
69895W        W29640   3.824   6.411   4.303
69896W        W29641  24.108  37.577  12.084
69897W        W29642  44.922  27.622   1.906
69898W        W29643  36.394  21.021   2.267
69899W        W29644  38.545  28.027  13.396
69900W        W29645  20.147  44.371   1.924
69901W        W29646  18.277   1.801   3.204
69902W        W29647  21.116  44.354   3.727
69903W        W29648   0.459  39.934  14.853
69904W        W29649  21.092  27.633   4.183
69905W        W29650  13.348  23.198   4.657
69906W        W29651  23.182  41.941   4.722
69907W        W29652  21.553  27.489   2.754
69908W        W29653  34.978  29.149   5.160
69909W        W29654  33.618   6.733   3.163
69910W        W29655  26.632  18.253   1.795
69911W        W29656  40.831   9.337   0.904
69912W        W29657  26.118   0.262   1.786
69913W        W29658   1.867  35.882  14.339
69914W        W29659  41.827  22.132   0.458
69915W        W29660  19.172  20.165   2.879
69916W        W29661  27.691  35.407  12.340
69917W        W29662  41.925   5.774   3.851
69918W        W29663  28.093  33.083   0.913
69919W        W29664  15.639  14.311   3.662
69920W        W29665  31.020  39.965  14.942
69921W        W29666  37.539  14.171  14.016
69922W        W29667  27.971  37.915   1.700
69923W        W29668  36.543  20.082  11.038
69924W        W29669  14.207  10.165   0.749
69925W        W29670   7.313   8.692  13.468
69926W        W29671  26.138  19.088   3.795
69927W        W29672  30.966  25.105   1.370
69928W        W29673  33.421  30.466  11.459
69929W        W29674  23.677  13.114  10.591
69930W        W29675  14.303   5.363  10.892
69931W        W29676  24.047  11.864  10.408
69932W        W29677  33.976  22.529   4.322
69933W        W29678  28.542   5.389  13.387
69934W        W29679   8.381  40.524  11.026
69935W        W29680  25.561  36.037  13.484
69936W        W29681  32.439  17.067   4.750
69937W        W29682  15.775  21.567  13.812
69938W        W29683   3.876  33.112   2.854
69939W        W29684  32.571  31.613   3.667
69940W        W29685   6.217  24.699  14.285
69941W        W29686  32.635  42.978  11.957
69942W        W29687  37.015  14.138  14.477
69943W        W29688  17.769   6.355  12.348
69944W        W29689  23.196   9.709   4.256
69945W        W29690  33.929  35.036   2.748
69946W        W29691  13.617   5.913   1.418
69947W        W29692  41.917  26.028  13.362
69948W        W29693  42.926  10.665   2.844
69949W        W29694  27.087  24.227  13.044
69950W        W29695  11.366  31.008  14.352
69951W        W29696  29.505   9.220  10.580
69952W        W29697  41.394   1.399  14.448
69953W        W29698  16.182  38.495  11.104
69954W        W29699  41.952  22.103  11.986
69955W        W29700   2.963  10.746  14.879
69956W        W29701  21.731  34.491   0.749
69957W        W29702  28.037  11.160  14.456
69958W        W29703  31.052  39.458  14.298
69959W        W29704  23.106  26.083   2.774
69960W        W29705  36.909   4.256  12.083
69961W        W29706   7.403  24.544  10.426
69962W        W29707  23.691  26.638   3.197
69963W        W29708   4.444  25.963  14.770
69964W        W29709  16.626  39.919   0.246
69965W        W29710  41.949   6.922   4.128
69966W        W29711  37.999   9.203   1.419
69967W        W29712  18.072   7.342   4.825
69968W        W29713  14.812   6.797  14.952
69969W        W29714  39.534  24.720  14.795
69970W        W29715  36.491  31.115  10.913
69971W        W29716  34.003   4.308  14.463
69972W        W29717  17.754   3.790   9.462
69973W        W29718  27.151  43.393  12.823
69974W        W29719  27.569  25.977  12.468
69975W        W29720   9.728  10.840  13.064
69976W        W29721  42.943   5.388   2.793
69977W        W29722  28.523   2.926  13.510
69978W        W29723  18.088  29.067   2.692
69979W        W29724  12.120  24.124  10.960
69980W        W29725   3.798  10.861  13.351
69981W        W29726  21.080  16.712   3.184
69982W        W29727  20.067  30.094   1.345
69983W        W29728  14.708  29.963   0.952
69984W        W29729  41.890  24.716   0.273
69985W        W29730  10.246  30.455  13.998
69986W        W29731  35.416  21.221  14.914
69987W        W29732   9.748   0.462   1.701
69988W        W29733   9.799   1.306  11.118
69989W        W29734  26.622   9.692  12.970
69990W        W29735  33.502  20.555   0.254
69991W        W29736  15.187   8.804  14.921
69992W        W29737  12.814  18.755  14.440
69993W        W29738   9.749  27.076  11.049
69994W        W29739  34.435  44.346   3.253
69995W        W29740   0.449   0.798  13.893
69996W        W29741  11.158  12.234   2.863
69997W        W29742  37.446   7.216   3.229
69998W        W29743   7.752   5.304   3.653
69999W        W29744  17.166  16.720   3.644
70000W        W29745  22.660  22.516  13.964
70001W        W29746  25.176  43.456   0.475
70002W        W29747  12.315  26.143   4.265
70003W        W29748   7.783   3.713  11.378
70004W        W29749   2.285  22.247  11.606
70005W        W29750  37.040   8.354   0.755
70006W        W29751  43.336  29.015   3.832
70007W        W29752  19.279  30.035   0.955
70008W        W29753  21.580  37.876   0.262
70009W        W29754  37.364  25.553   4.342
70010W        W29755  13.723  32.969   0.845
70011W        W29756   8.858  14.777   2.226
70012W        W29757  36.378  42.491   2.391
70013W        W29758   7.842  18.573  10.479
70014W        W29759   1.483  39.881  14.779
70015W        W29760  21.733  11.217   0.808
70016W        W29761   7.886  23.511  14.778
70017W        W29762  22.118  13.813   1.371
70018W        W29763  12.177  34.864  14.426
70019W        W29764  41.023   1.295   2.827
70020W        W29765  20.746  42.014  11.061
70021W        W29766   6.802   9.318   0.844
70022W        W29767  39.879   3.772  14.298
70023W        W29768   6.804  32.431   4.721
70024W        W29769  12.640  21.094  10.916
70025W        W29770  23.227  27.103  14.871
70026W        W29771  41.359  28.611  11.014
70027W        W29772  34.403  26.967   2.198
70028W        W29773  23.174  25.135   4.744
70029W        W29774  12.304   1.742   1.766
70030W        W29775  34.920  41.989  13.421
70031W        W29776   5.777  32.010   4.836
70032W        W29777  17.090  40.854   0.265
70033W        W29778  31.039  37.513  14.852
70034W        W29779  19.611  16.785   3.793
70035W        W29780  16.607  22.997   3.247
70036W        W29781  41.833  33.417   2.301
70037W        W29782  13.296  25.184   3.657
70038W        W29783  35.457  22.105   2.888
70039W        W29784   3.266  28.093  12.865
70040W        W29785   6.746  28.032   1.900
70041W        W29786   0.392  30.482  11.053
70042W        W29787   6.697  28.161   4.626
70043W        W29788   3.301  14.832  12.360
70044W        W29789  15.227  19.254  14.504
70045W        W29790  27.120  25.599   2.741
70046W        W29791  10.198  18.173   0.860
70047W        W29792  24.157  18.082   0.808
70048W        W29793  38.548   5.417  11.580
70049W        W29794  13.137   1.270   2.885
70050W        W29795  22.216  44.475   1.853
70051W        W29796  21.662  29.932   1.418
70052W        W29797  30.956  28.470   0.795
70053W        W29798  21.753   7.693   4.113
70054W        W29799   6.771  29.958   4.696
70055W        W29800   5.315  16.248  14.479
70056W        W29801   2.445  29.150   3.753
70057W        W29802  17.736   4.282   0.374
70058W        W29803  29.482   9.281  12.537
70059W        W29804  12.632   9.162  14.929
70060W        W29805   2.466   4.433   3.639
70061W        W29806  30.519   7.385  10.983
70062W        W29807  18.548  40.360  12.506
70063W        W29808  42.327  38.507   0.788
70064W        W29809  26.694   0.293  10.532
70065W        W29810  33.616  24.608  13.361
70066W        W29811  21.158  16.788   1.913
70067W        W29812  25.520  17.780   0.845
70068W        W29813   6.199  16.084   2.855
70069W        W29814  30.491  10.656  12.417
70070W        W29815   7.745  36.593   0.861
70071W        W29816   6.340   1.758  12.351
70072W        W29817  39.060  11.627  12.341
70073W        W29818  12.144  24.096  12.027
70074W        W29819   0.944  11.210  13.456
70075W        W29820  33.581  12.342  10.450
70076W        W29821  21.586  40.341  10.957
70077W        W29822  24.539   7.764   2.229
70078W        W29823  17.142  34.391  10.405
70079W        W29824  43.834   1.975   0.738
70080W        W29825  35.976   6.339   1.851
70081W        W29826  26.478  21.752   4.767
70082W        W29827   8.810  34.459   3.232
70083W        W29828  30.573   0.843  11.425
70084W        W29829  39.990  32.418  14.470
70085W        W29830  19.099   2.954   1.737
70086W        W29831  41.499   6.872  11.902
70087W        W29832  44.274  26.075   2.229
70088W        W29833  14.809  39.504   9.551
70089W        W29834  38.452   1.821  14.842
70090W        W29835  17.061  25.015   0.308
70091W        W29836  27.109  38.015  12.027
70092W        W29837  36.052  13.299   3.202
70093W        W29838  25.983  39.038  11.931
70094W        W29839  28.180  42.407  12.494
70095W        W29840  38.941   5.782   2.189
70096W        W29841  27.186  31.598   1.285
70097W        W29842  32.137  28.482  13.860
70098W        W29843  29.507  15.118  13.392
70099W        W29844  11.139  12.286  12.857
70100W        W29845   5.326  18.623   0.765
70101W        W29846  13.629  16.177   4.654
70102W        W29847  15.244  41.386   3.698
70103W        W29848   7.249   3.297   0.466
70104W        W29849   1.827   0.443   0.312
70105W        W29850  37.560  22.056   3.299
70106W        W29851  19.167   5.306   3.284
70107W        W29852  27.947  26.095  11.605
70108W        W29853   9.395  19.539  10.534
70109W        W29854  25.989  24.030  10.501
70110W        W29855  35.604  36.976   3.771
70111W        W29856  38.350  10.314  14.821
70112W        W29857  37.357  22.198   3.672
70113W        W29858  39.346  37.975   2.418
70114W        W29859  26.472  14.776  12.927
70115W        W29860  23.229  28.946   0.428
70116W        W29861  32.490   0.461   4.833
70117W        W29862  41.899  25.675  12.412
70118W        W29863   5.727  31.013   1.448
70119W        W29864   0.410  24.625  10.467
70120W        W29865  40.821  41.840  14.499
70121W        W29866  30.075  14.264  14.931
70122W        W29867   0.926  25.554  11.484
70123W        W29868  28.129  20.157   4.685
70124W        W29869  20.213  14.205   0.904
70125W        W29870   2.810  30.971   2.893
70126W        W29871  21.708  24.622   2.216
70127W        W29872  24.017  32.618   4.131
70128W        W29873  25.654  14.160  13.981
70129W        W29874  36.408   5.747  10.405
70130W        W29875   7.206  28.664   4.716
70131W        W29876   5.345  12.834   1.831
70132W        W29877  24.570  11.846   2.770
70133W        W29878  19.557   3.382   1.449
70134W        W29879  39.990  44.767  12.551
70135W        W29880  13.145  25.118   9.971
70136W        W29881  16.601  13.787   2.897
70137W        W29882  34.037  42.491  12.056
70138W        W29883  24.090  22.699  11.466
70139W        W29884  12.804  25.113  10.513
70140W        W29885   9.241  17.289  10.448
70141W        W29886  17.759  26.154  13.315
70142W        W29887  10.153  17.656   1.721
70143W        W29888   7.854  19.719   0.278
70144W        W29889  21.247  39.034   4.818
70145W        W29890  19.554  32.003   1.880
70146W        W29891  43.409  17.781   3.323
70147W        W29892  22.715  17.102  11.050
70148W        W29893   1.425  26.560  12.356
70149W        W29894  24.577  43.970   1.859
70150W        W29895  14.737  42.325  14.987
70151W        W29896   1.902  32.886   1.728
70152W        W29897  44.501  13.240  14.422
70153W        W29898  19.236  39.926   2.253
70154W        W29899  39.509  27.680  13.933
70155W        W29900  24.145  23.153   0.757
70156W        W29901   8.199  26.694   2.813
70157W        W29902  15.820  12.211   1.420
70158W        W29903   6.277  18.607  12.087
70159W        W29904  22.196  41.407   4.787
70160W        W29905  25.052  37.439   9.944
70161W        W29906   6.888  41.996   0.418
70162W        W29907   6.283  36.897  12.434
70163W        W29908  26.504  30.148  10.482
70164W        W29909  38.385  13.826  14.469
70165W        W29910  33.081  23.104   3.708
70166W        W29911  31.447  25.497  14.000
70167W        W29912   9.183  21.157   2.342
70168W        W29913  38.052   9.822  14.979
70169W        W29914  16.597  30.630  12.575
70170W        W29915  27.986  12.674  11.015
70171W        W29916  33.911  38.833  12.485
70172W        W29917  29.136  17.714   4.238
70173W        W29918   2.357  24.140   0.255
70174W        W29919  12.794  25.120   4.248
70175W        W29920  17.773  22.603  11.431
70176W        W29921   2.935  42.850  14.498
70177W        W29922   8.857  40.406   2.178
70178W        W29923  39.880  17.687   0.266
70179W        W29924   0.889   2.401   1.390
70180W        W29925   7.207  40.856   4.795
70181W        W29926  26.515  23.217   3.715
70182W        W29927   6.859  30.164  11.406
70183W        W29928  39.530  44.388   9.938
70184W        W29929  13.302  20.151   0.301
70185W        W29930  40.437  22.562  13.428
70186W        W29931  30.080  20.578   0.886
70187W        W29932  24.525   2.723   4.633
70188W        W29933  22.713  14.728  13.435
70189W        W29934   5.197  22.720  14.446
70190W        W29935   9.338   4.450  11.889
70191W        W29936  31.475  40.983  12.403
70192W        W29937   9.332  37.849   3.792
70193W        W29938  32.534   3.282  12.889
70194W        W29939  27.019   3.735  11.927
70195W        W29940  39.421  10.785  11.375
70196W        W29941  39.528   1.367   0.252
70197W        W29942  21.041  38.010  11.992
70198W        W29943   2.776  40.020  11.439
70199W        W29944  35.909  29.580   0.758
70200W        W29945  12.827  39.056  14.494
70201W        W29946   3.426  25.585   2.278
70202W        W29947   6.860   0.291  13.484
70203W        W29948  22.051  21.664  12.491
70204W        W29949  12.316  10.176   1.760
70205W        W29950  14.108  19.171   1.892
70206W        W29951  21.737   0.371   0.320
70207W        W29952  38.403  12.280   0.754
70208W        W29953  40.414  35.571   4.226
70209W        W29954   0.374  34.516   9.955
70210W        W29955  42.329  32.464  13.911
70211W        W29956  11.835   6.829  12.979
70212W        W29957  37.054   7.871  13.402
70213W        W29958  41.938  41.911  14.841
70214W        W29959  11.789  15.114   0.873
70215W        W29960  12.811  16.183  10.515
70216W        W29961  39.858   0.487   4.332
70217W        W29962  24.104  34.036  14.511
70218W        W29963   6.246   2.368   3.324
70219W        W29964  26.539  32.417  10.147
70220W        W29965  19.555  12.141  12.924
70221W        W29966  41.857  40.876  10.507
70222W        W29967  25.488   0.275  11.905
70223W        W29968  29.146  22.551   2.850
70224W        W29969  34.476  27.991   3.813
70225W        W29970  18.616   0.315  14.910
70226W        W29971   0.306  27.676   5.686
70227W        W29972  41.474   1.843  14.773
70228W        W29973  41.845  27.506  10.431
70229W        W29974  12.732  26.104  10.958
70230W        W29975  18.163  24.557  14.795
70231W        W29976  21.094  38.037   1.441
70232W        W29977  37.360   8.201  13.327
70233W        W29978   6.386   0.747   5.160
70234W        W29979  12.681  32.476   2.319
70235W        W29980  29.925  21.202  12.511
70236W        W29981  23.631   1.834  13.879
70237W        W29982  42.482  18.074  11.058
70238W        W29983  28.075  42.923  13.010
70239W        W29984  24.158  21.726  13.013
70240W        W29985  16.634   4.931  11.543
70241W        W29986  29.451  12.741   2.714
70242W        W29987  25.991  32.999   2.256
70243W        W29988   0.471  20.540   3.847
70244W        W29989   9.162  39.545   2.719
70245W        W29990  41.531   4.785   5.239
70246W        W29991  32.505  14.311   4.763
70247W        W29992  17.699  10.839   1.307
70248W        W29993  10.861  25.713   1.439
70249W        W29994  26.089   7.807  13.791
70250W        W29995  30.582  38.351   1.717
70251W        W29996  22.716  13.199   4.602
70252W        W29997   8.723  14.224  11.490
70253W        W29998  13.662  36.422   0.962
70254W        W29999  30.033  16.621   0.471
70255W        W30000   3.818  20.097  11.459
70256W        W30001  21.686   2.414  11.042
70257W        W30002  28.135  10.305   4.311
70258W        W30003  10.641  25.507  10.901
70259W        W30004  20.028  35.925  11.472
70260W        W30005   2.820  16.115   0.287
70261W        W30006  41.929  43.454   2.278
70262W        W30007  37.480  35.479  12.903
70263W        W30008   6.843  42.356   1.874
70264W        W30009  25.101  33.975   3.683
70265W        W30010  21.582  37.993  11.508
70266W        W30011  28.486  17.188  11.067
70267W        W30012  40.872  16.677   4.644
70268W        W30013   9.315  39.844  10.153
70269W        W30014  18.586  18.702   0.434
70270W        W30015  38.004  41.979   0.440
70271W        W30016   1.262  29.582  13.967
70272W        W30017  38.922  35.562   0.255
70273W        W30018  34.984  22.059   3.305
70274W        W30019  27.004  21.060   1.255
70275W        W30020  30.590   2.426   5.096
70276W        W30021   1.753   1.446  12.572
70277W        W30022  39.851   4.303   3.868
70278W        W30023   4.863  40.956  14.505
70279W        W30024  22.741  40.485  14.354
70280W        W30025  23.208  20.178   3.755
70281W        W30026   5.210   0.963   2.723
70282W        W30027  16.633  33.061   3.636
70283W        W30028   5.217   3.755  13.950
70284W        W30029  31.022  26.468   2.793
70285W        W30030  39.870  20.055  10.497
70286W        W30031  38.391   7.856  11.105
70287W        W30032  23.176  39.414  12.994
70288W        W30033  28.458  33.497   2.249
70289W        W30034  33.487  16.806  14.275
70290W        W30035   2.309  40.374   0.809
70291W        W30036   2.284   5.882   3.735
70292W        W30037  26.202  17.223   1.210
70293W        W30038  12.141  21.134   1.375
70294W        W30039  16.695  43.462   1.412
70295W        W30040  38.407  36.446   0.425
70296W        W30041  21.606  38.555  14.004
70297W        W30042  28.677  11.157   4.808
70298W        W30043  41.295   3.442   2.716
70299W        W30044   2.937  30.075   1.815
70300W        W30045  21.737   0.819  13.044
70301W        W30046  37.511  10.224   0.776
70302W        W30047   8.375  32.018   0.901
70303W        W30048  16.181  33.062  14.767
70304W        W30049  14.307  29.515  11.906
70305W        W30050   2.946   3.406  13.018
70306W        W30051   7.830  42.461  10.963
70307W        W30052  44.372  16.280   2.824
70308W        W30053  19.194  20.700   3.859
70309W        W30054  11.834  20.264   1.740
70310W        W30055  11.258  13.268  11.525
70311W        W30056  27.446  40.519  11.582
70312W        W30057   0.341  15.248   1.274
70313W        W30058  14.668  42.967   4.652
70314W        W30059  20.721  30.618  14.844
70315W        W30060  31.927  22.124  10.565
70316W        W30061  28.133  25.212   5.190
70317W        W30062  44.908  44.370  14.803
70318W        W30063  14.117  44.763   3.182
70319W        W30064   5.265  23.990  14.429
70320W        W30065  34.972  32.608  12.949
70321W        W30066  12.318  36.967   1.427
70322W        W30067  12.148   1.242   3.757
70323W        W30068  37.011   9.777   3.753
70324W        W30069  28.437  25.674  10.578
70325W        W30070  31.630   3.447  10.526
70326W        W30071  27.974   8.211   3.222
70327W        W30072   6.351  28.450   3.314
70328W        W30073  37.883   3.317  12.996
70329W        W30074  22.143  29.918   2.736
70330W        W30075  13.242  36.347  14.287
70331W        W30076  34.884  16.733   2.900
70332W        W30077  38.563  27.110  10.919
70333W        W30078  37.575  25.049   1.287
70334W        W30079  36.875  42.997  12.068
70335W        W30080  30.080  14.619  11.557
70336W        W30081  20.198  26.995   4.185
70337W        W30082  41.338  12.747  13.002
70338W        W30083  26.086  37.496  11.112
70339W        W30084  28.962  37.462   0.806
70340W        W30085   8.736  12.617  14.806
70341W        W30086   4.923  36.349   5.213
70342W        W30087  30.922  41.508   0.459
70343W        W30088  32.556   0.870   0.450
70344W        W30089  13.300  34.450  10.104
70345W        W30090  44.284  41.411   2.407
70346W        W30091  17.090  12.762   5.288
70347W        W30092  29.494  34.575   4.694
70348W        W30093  10.184  14.182  12.007
70349W        W30094  43.990  39.362   0.374
70350W        W30095  43.292   2.457  10.965
70351W        W30096   6.894   1.854  14.472
70352W        W30097  14.224   3.715   4.762
70353W        W30098  42.917   4.837  13.807
70354W        W30099   5.744  41.512  11.414
70355W        W30100   7.380   7.284   0.285
70356W        W30101  25.126  26.585   5.193
70357W        W30102  16.792   0.875   4.335
70358W        W30103  12.251  43.281   0.339
70359W        W30104  41.351  12.140   4.307
70360W        W30105  31.124   4.366   2.732
70361W        W30106   9.160  28.503  10.474
70362W        W30107  20.543  11.697  11.039
70363W        W30108  21.094  10.187  13.033
70364W        W30109  13.246  40.463  12.832
70365W        W30110  24.696  43.493  14.289
70366W        W30111  44.345  21.624   0.965
70367W        W30112   2.853  21.595  10.514
70368W        W30113  33.082  44.351  12.021
70369W        W30114  19.098  43.894   0.939
70370W        W30115  14.678  28.127  14.791
70371W        W30116  33.397   9.245   4.254
70372W        W30117  16.689   4.360   2.187
70373W        W30118  40.522  37.977   1.814
70374W        W30119  13.779  22.628   3.799
70375W        W30120   5.351  43.855   2.403
70376W        W30121  16.804   2.324  13.842
70377W        W30122  41.044  22.525   1.889
70378W        W30123  29.926  17.737  14.416
70379W        W30124  13.118   8.730   5.181
70380W        W30125  19.164  28.538  14.932
70381W        W30126  20.189  10.854   2.355
70382W        W30127   7.755   9.358   2.218
70383W        W30128  42.020  12.793   2.838
70384W        W30129  28.050  32.080  13.864
70385W        W30130  30.045  19.054   1.738
70386W        W30131  29.604  32.893  13.039
70387W        W30132  19.042  17.795   1.737
70388W        W30133  14.327  40.503   1.252
70389W        W30134  23.181  35.377   1.290
70390W        W30135   9.694  18.666   2.727
70391W        W30136  13.334   7.310   2.847
70392W        W30137   9.185  30.916  14.811
70393W        W30138  14.592  10.759   1.387
70394W        W30139  33.585  18.679  12.987
70395W        W30140  12.299  22.052  11.917
70396W        W30141  14.113   2.422   2.410
70397W        W30142   0.814  12.851   3.148
70398W        W30143  16.096  24.977   2.835
70399W        W30144  19.104  37.518   3.376
70400W        W30145   9.725   5.403  13.923
70401W        W30146  17.790  30.413   2.199
70402W        W30147  37.517  18.745   3.383
70403W        W30148  28.506  31.959  13.547
70404W        W30149  25.154  30.157   3.383
70405W        W30150  10.327  15.253   2.183
70406W        W30151  40.853  21.051   2.671
70407W        W30152   3.361  40.485  14.919
70408W        W30153   9.654  19.077   2.381
70409W        W30154   3.317  31.413  12.515
70410W        W30155  10.378  23.079  10.966
70411W        W30156   7.688  32.955   1.212
70412W        W30157  43.333   3.713   4.635
70413W        W30158  21.554   7.401   2.283
70414W        W30159  11.752  17.224   1.344
70415W        W30160  26.998  14.603   2.723
70416W        W30161   0.395  40.968  14.938
70417W        W30162  12.840  33.907  13.056
70418W        W30163   0.467  41.993  13.813
70419W        W30164  24.704   0.306  11.422
70420W        W30165  41.890  11.745  11.971
70421W        W30166  27.998  11.825   4.311
70422W        W30167  10.741  40.547  12.990
70423W        W30168  29.445  20.571   1.336
70424W        W30169   1.440  16.645  10.022
70425W        W30170  34.570  24.141   0.800
70426W        W30171  28.624  17.745  11.478
70427W        W30172  33.515  36.075   3.308
70428W        W30173  35.891  42.927   2.683
70429W        W30174  23.006  41.518   4.329
70430W        W30175  29.655  21.155   4.192
70431W        W30176  13.799  29.991  12.862
70432W        W30177  28.617   3.360  13.881
70433W        W30178  15.780  16.705  10.533
70434W        W30179  42.354  16.306  13.967
70435W        W30180  38.557   3.223   4.808
70436W        W30181  38.841  43.875   4.808
70437W        W30182  12.155   5.887  10.583
70438W        W30183  16.623  20.145   0.937
70439W        W30184   7.675  33.501  13.876
70440W        W30185  18.710   6.415  13.514
70441W        W30186  42.410  21.633   1.781
70442W        W30187  28.490   0.362   1.777
70443W        W30188  29.128  11.763  14.425
70444W        W30189   2.808  22.139  10.950
70445W        W30190  11.327  38.915   0.860
70446W        W30191  44.939  31.437  10.907
70447W        W30192  35.420  37.508  13.952
70448W        W30193  15.276  21.081   1.706
70449W        W30194  31.966  14.218   4.684
70450W        W30195  24.562  19.619   0.472
70451W        W30196  42.488  17.582  12.850
70452W        W30197  16.295  24.086  12.959
70453W        W30198  25.498   1.840  14.876
70454W        W30199  33.112  32.401  12.868
70455W        W30200   1.482  42.494  10.450
70456W        W30201  18.250  39.867   0.326
70457W        W30202  21.247  10.137   0.414
70458W        W30203  24.504  11.184   4.147
70459W        W30204  35.433  41.388   4.134
70460W        W30205   8.762   4.324   1.823
70461W        W30206  27.471  39.927  13.389
70462W        W30207  20.134  12.745   2.688
70463W        W30208   7.835  17.703   0.771
70464W        W30209   7.261  42.978   0.929
70465W        W30210  15.312  16.293  11.935
70466W        W30211  18.585  31.405   4.301
70467W        W30212  12.630   9.662   2.279
70468W        W30213  22.532  37.336  12.502
70469W        W30214  23.231   7.359   4.226
70470W        W30215  20.153   5.741  12.049
70471W        W30216  21.060  27.662  12.570
70472W        W30217   9.890   8.187   1.703
70473W        W30218   3.761   7.816   3.640
70474W        W30219  40.926  23.598  14.472
70475W        W30220  28.661   4.375   2.759
70476W        W30221  41.834   9.743   2.878
70477W        W30222   4.840  37.506  14.902
70478W        W30223  33.037  18.767   3.737
70479W        W30224  17.171  10.723   3.650
70480W        W30225   1.763  28.519   0.785
70481W        W30226   0.801   1.821  12.467
70482W        W30227   7.897  18.694   2.745
70483W        W30228  41.425  14.103  11.913
70484W        W30229  38.005   0.382   3.846
70485W        W30230  17.663  31.636   3.305
70486W        W30231  27.671   4.435  11.120
70487W        W30232   6.351  29.015   4.341
70488W        W30233  36.072  36.876  13.501
70489W        W30234  34.404  28.002   3.146
70490W        W30235  42.930  27.625   0.268
70491W        W30236   6.778  31.144   4.192
70492W        W30237  42.800   2.398  14.997
70493W        W30238  43.459  34.992  14.790
70494W        W30239   3.725  34.544  11.393
70495W        W30240   9.285  39.404   2.224
70496W        W30241  41.893  34.890   4.202
70497W        W30242  22.039  34.372   0.956
70498W        W30243   3.453   9.668   0.402
70499W        W30244  31.519  22.561   0.384
70500W        W30245  24.714  18.635   0.959
70501W        W30246  25.089  40.340  10.966
70502W        W30247  25.206  26.654  13.998
70503W        W30248  35.100  18.708  10.425
70504W        W30249  32.123  43.891   2.178
70505W        W30250  24.722  17.725   5.109
70506W        W30251  43.379   5.862   0.873
70507W        W30252  40.926  36.903   0.468
70508W        W30253  42.789   5.208  12.925
70509W        W30254  40.329  19.094  14.910
70510W        W30255  42.897   0.338   3.763
70511W        W30256  19.284  20.192   4.835
70512W        W30257  42.976  22.650   1.862
70513W        W30258  23.680   7.752  11.944
70514W        W30259  17.610  43.815   0.375
70515W        W30260  27.482  11.625   3.815
70516W        W30261  31.023  29.151   0.263
70517W        W30262  38.931  19.067  14.361
70518W        W30263  31.069  42.476  13.482
70519W        W30264  15.296  43.843   4.243
70520W        W30265  25.496  18.762   0.762
70521W        W30266  44.987  36.968  13.973
70522W        W30267  37.065   8.789   2.237
70523W        W30268  39.831  20.227   4.711
70524W        W30269  43.481  26.570   1.329
70525W        W30270  21.119   0.761  12.049
70526W        W30271   3.732  38.560   2.307
70527W        W30272   7.328  35.893   4.706
70528W        W30273  33.966  12.838  11.102
70529W        W30274  33.985   5.356  11.509
70530W        W30275  16.272  18.570   2.773
70531W        W30276  22.040   6.774  10.639
70532W        W30277  35.549  36.910   2.818
70533W        W30278  21.145  42.859   2.347
70534W        W30279  40.361  42.936   0.372
70535W        W30280  26.571   0.371   1.728
70536W        W30281  21.588  33.565   2.848
70537W        W30282  27.082  34.920  10.958
70538W        W30283  18.575  10.702  12.010
70539W        W30284  29.113  34.401   3.667
70540W        W30285  40.952  35.005   4.149
70541W        W30286  39.475  25.577  14.509
70542W        W30287  12.259  36.039  11.378
70543W        W30288  22.997  12.803   9.643
70544W        W30289  18.650   1.759   0.339
70545W        W30290  29.640  32.891   0.376
70546W        W30291  36.584  24.485  10.515
70547W        W30292   5.398   9.198   4.679
70548W        W30293  27.627  13.265   2.684
70549W        W30294  39.368  22.682   2.680
70550W        W30295  37.871  26.703   2.178
70551W        W30296  17.621  42.942   1.318
70552W        W30297  16.682  16.236   3.837
70553W        W30298  31.136  34.613   4.623
70554W        W30299   3.833  42.847   1.763
70555W        W30300  31.048  26.682  12.529
70556W        W30301  42.824  44.920  14.942
70557W        W30302  16.796  24.687  13.935
70558W        W30303  12.282  42.810   3.760
70559W        W30304  12.827   4.232  11.561
70560W        W30305   5.279  33.566   3.706
70561W        W30306  24.563   1.912  14.472
70562W        W30307   4.844  21.516   2.279
70563W        W30308  32.028  27.966   3.346
70564W        W30309  31.580  19.132   2.279
70565W        W30310  18.240   8.785   4.178
70566W        W30311  10.380   9.158  14.909
70567W        W30312  21.220  18.254  11.451
70568W        W30313  10.207  25.487   4.118
70569W        W30314  14.207  20.160  10.548
70570W        W30315  19.597  42.002   4.147
70571W        W30316  30.442  21.749  11.907
70572W        W30317  41.837   2.288   0.243
70573W        W30318   1.245  27.496  14.398
70574W        W30319  44.866  10.325   4.718
70575W        W30320   8.760   0.339  12.911
70576W        W30321   7.864  44.903  13.359
70577W        W30322  31.973  42.784   4.834
70578W        W30323  36.951   4.754   1.438
70579W        W30324  18.120  22.562  10.412
70580W        W30325  19.596  29.047  13.890
70581W        W30326  17.679  39.560  13.370
70582W        W30327  20.146   2.796   0.877
70583W        W30328  12.851  28.478  14.345
70584W        W30329  18.266  13.727   2.323
70585W        W30330  32.942  34.922   2.359
70586W        W30331  28.966  15.622  11.970
70587W        W30332  14.826  22.633   9.963
70588W        W30333  41.037  14.115  11.014
70589W        W30334   2.248  33.951   0.323
70590W        W30335  23.566  23.041   2.762
70591W        W30336  39.945  21.599   3.310
70592W        W30337  12.622  38.883   0.312
70593W        W30338  23.555   6.407  13.812
70594W        W30339  29.144  25.633   2.847
70595W        W30340  21.560  25.063   0.249
70596W        W30341  34.921  20.673   4.780
70597W        W30342  21.201   7.269   0.889
70598W        W30343  30.918  34.382  11.403
70599W        W30344  29.566  25.991   2.232
70600W        W30345   1.968  11.166  13.847
70601W        W30346  31.459  10.800   0.802
70602W        W30347  28.651  35.923   0.347
70603W        W30348  15.212  32.913   4.316
70604W        W30349  19.613  19.754  14.030
70605W        W30350  31.152  17.107  10.964
70606W        W30351  15.635  11.203  13.050
70607W        W30352   9.197  32.511  12.875
70608W        W30353  42.510  14.658  14.399
70609W        W30354   5.426  41.396  12.531
70610W        W30355  27.084  36.472   4.333
70611W        W30356   6.422  41.424   1.304
70612W        W30357   0.945  15.768  14.449
70613W        W30358  39.370  35.477   1.254
70614W        W30359  23.103  41.876   4.257
70615W        W30360  26.550  14.610  14.846
70616W        W30361   1.815   5.304   2.725
70617W        W30362  26.144  31.107   9.669
70618W        W30363  15.116  17.609   1.767
70619W        W30364  44.997  22.554  12.894
70620W        W30365   5.276  29.048   1.744
70621W        W30366  18.699  15.741   5.252
70622W        W30367   9.701  17.203   2.284
70623W        W30368  33.593  40.933   3.717
70624W        W30369  20.158  22.043  12.841
70625W        W30370  20.690  27.160  13.369
70626W        W30371  31.522  43.940   0.930
70627W        W30372  11.198  18.580  13.371
70628W        W30373  11.738  14.219  12.909
70629W        W30374  19.234  42.002   1.366
70630W        W30375  12.268  24.181  12.835
70631W        W30376   1.950   6.686  10.544
70632W        W30377  37.875   6.906  14.311
70633W        W30378   6.775  30.632  12.085
70634W        W30379  34.968  10.718   4.820
70635W        W30380  18.562   6.231   3.219
70636W        W30381  23.201  21.078  12.442
70637W        W30382  44.473  38.053   1.791
70638W        W30383  22.165  40.839  10.996
70639W        W30384  28.953  17.618  11.457
70640W        W30385  20.265  14.165  12.978
70641W        W30386  11.246  40.480   3.751
70642W        W30387  35.031   6.356  14.946
70643W        W30388  24.597  10.842   2.290
70644W        W30389  36.577  42.819  12.391
70645W        W30390  33.038  21.576  11.440
70646W        W30391  43.847  22.551   4.348
70647W        W30392  28.444   0.292  12.557
70648W        W30393  42.362  28.479   0.413
70649W        W30394  24.605  21.148   2.773
70650W        W30395  15.713  41.905  10.981
70651W        W30396  39.011  21.644   2.692
70652W        W30397  15.718  17.556   0.878
70653W        W30398  14.143  29.091   2.413
70654W        W30399  40.991  38.987  11.102
70655W        W30400  14.722  23.200   0.767
70656W        W30401  19.236  41.786  11.562
70657W        W30402  21.155  39.486   3.687
70658W        W30403  41.977  12.266   4.633
70659W        W30404  35.522   3.361  14.924
70660W        W30405  10.237  11.363   1.835
70661W        W30406   9.261  10.302   3.174
70662W        W30407  18.243  35.603  11.108
70663W        W30408  10.319  36.039  14.825
70664W        W30409  27.684  24.141  10.965
70665W        W30410  42.296  32.531   2.879
70666W        W30411   4.786  14.205   9.995
70667W        W30412  34.072   5.816  11.501
70668W        W30413  19.118  11.667  12.950
70669W        W30414  18.735  10.222  11.518
70670W        W30415  33.091   8.809   2.188
70671W        W30416  36.369  28.947  14.831
70672W        W30417   3.216   1.417   3.191
70673W        W30418   8.362  26.462   0.361
70674W        W30419  36.067  18.638   1.263
70675W        W30420   1.820  42.352   3.825
70676W        W30421  22.711  37.547   2.336
70677W        W30422  37.842  30.540   4.334
70678W        W30423  41.464  33.464  12.468
70679W        W30424  24.711  10.337  13.881
70680W        W30425   1.753  23.146  14.768
70681W        W30426   7.805  36.926  12.527
70682W        W30427  20.135  40.890   0.358
70683W        W30428  37.499  21.533   1.894
70684W        W30429  33.897  17.138  14.993
70685W        W30430  41.485  18.291  11.090
70686W        W30431  27.622  14.222  11.895
70687W        W30432  33.467  36.392  14.832
70688W        W30433  30.022   2.944   4.215
70689W        W30434  30.433  32.593   1.813
70690W        W30435  29.029  43.324   0.256
70691W        W30436  42.876  38.379   2.784
70692W        W30437  10.775  18.087   3.203
70693W        W30438  16.589  39.331   1.862
70694W        W30439  12.323   6.252  11.916
70695W        W30440  41.976  37.046  14.017
70696W        W30441  33.968   1.957   3.775
70697W        W30442  14.597  27.611  13.875
70698W        W30443  19.056  14.602  12.514
70699W        W30444  25.119  18.180   4.756
70700W        W30445  29.042  13.730   0.739
70701W        W30446   3.884  29.499  14.486
70702W        W30447  11.855  23.095  13.472
70703W        W30448  14.601  29.499   1.233
70704W        W30449  37.557  34.034  11.015
70705W        W30450  43.276  38.057  11.882
70706W        W30451   6.798  38.898   1.317
70707W        W30452   4.237  15.606  13.909
70708W        W30453  38.076  43.424  12.489
70709W        W30454   1.346  19.713   5.307
70710W        W30455  13.747  37.064   1.271
70711W        W30456  39.829   0.948   2.704
70712W        W30457  22.071  41.375  10.999
70713W        W30458  40.816  39.864   2.767
70714W        W30459  22.117  35.088   2.849
70715W        W30460  32.469  38.025  14.009
70716W        W30461   2.376   1.345  14.831
70717W        W30462  10.873  36.885   4.731
70718W        W30463  19.191  27.598   3.709
70719W        W30464   6.810  34.436   2.854
70720W        W30465  33.425  16.178   0.806
70721W        W30466   3.390  16.648  13.413
70722W        W30467  16.750  11.670  14.507
70723W        W30468  11.776  26.096   1.927
70724W        W30469  16.229  41.357   1.784
70725W        W30470  26.575   4.354   4.323
70726W        W30471  21.740  23.581  12.515
70727W        W30472   2.725  17.077   1.253
70728W        W30473  41.310   2.427   2.800
70729W        W30474  34.415   0.839  12.392
70730W        W30475   0.248   3.453  12.063
70731W        W30476  38.325  27.136  13.819
70732W        W30477   1.411  23.613   0.355
70733W        W30478  25.650   7.259   1.280
70734W        W30479  23.105  26.090   2.267
70735W        W30480  11.754  42.361   2.840
70736W        W30481   4.759  10.649  10.907
70737W        W30482   3.256  44.359   2.310
70738W        W30483  26.173  41.979  11.948
70739W        W30484  17.255  22.696  13.988
70740W        W30485  29.526  17.603   3.221
70741W        W30486  21.533  36.053   0.387
70742W        W30487   8.765  16.677   4.672
70743W        W30488  44.501  10.183   2.676
70744W        W30489  25.596  35.933   4.799
70745W        W30490  17.163   8.352   0.836
70746W        W30491  33.581   4.218   9.593
70747W        W30492   6.400  17.577  11.932
70748W        W30493  37.970   9.232   0.413
70749W        W30494   0.833  10.185  10.067
70750W        W30495  29.607  18.074   3.786
70751W        W30496  20.762  43.833   2.316
70752W        W30497  26.669  24.484  12.078
70753W        W30498  42.283  19.198  10.947
70754W        W30499  33.507   6.183  12.962
70755W        W30500  39.949   4.339  12.572
70756W        W30501  42.917  23.495   2.385
70757W        W30502  20.674  44.001   4.169
70758W        W30503  39.978  13.344  13.536
70759W        W30504  44.342   9.727   3.264
70760W        W30505  40.318  26.675  10.145
70761W        W30506  37.848   7.725  12.474
70762W        W30507  13.775  15.755  13.894
70763W        W30508  37.370  32.465  11.060
70764W        W30509  27.155   5.829   3.813
70765W        W30510  12.711  10.744   1.889
70766W        W30511  33.472  23.104  12.956
70767W        W30512  10.649   4.423  14.015
70768W        W30513  41.921  37.858  14.297
70769W        W30514  38.435   5.237  10.491
70770W        W30515   4.707   2.378  12.895
70771W        W30516  21.245  33.070   5.797
70772W        W30517  15.157  23.038  10.972
70773W        W30518  16.297  40.845   2.375
70774W        W30519   6.898   6.421   4.127
70775W        W30520  28.491  31.060   3.678
70776W        W30521  21.018  38.390  10.627
70777W        W30522  42.527  35.874  12.444
70778W        W30523   1.861  14.265  13.449
70779W        W30524  22.032  14.289  13.497
70780W        W30525  17.257  43.996  13.048
70781W        W30526  34.544  36.844   0.913
70782W        W30527  38.346   4.444  13.406
70783W        W30528  36.483  13.278  13.861
70784W        W30529  22.182   3.918  14.901
70785W        W30530  39.330  36.093  12.504
70786W        W30531  24.483   0.791  11.581
70787W        W30532  18.102  25.161  10.500
70788W        W30533  43.853  13.641   0.779
70789W        W30534   0.468  11.207  12.918
70790W        W30535  44.885  12.322  13.876
70791W        W30536  10.816  41.391  11.570
70792W        W30537   1.462  41.934   1.437
70793W        W30538  36.919  22.707  14.912
70794W        W30539  33.078  33.952   2.280
70795W        W30540  18.717  28.482   3.737
70796W        W30541  15.150  24.984   0.368
70797W        W30542   1.366   0.853   4.664
70798W        W30543   3.882  43.956   0.374
70799W        W30544  40.011  23.540  13.014
70800W        W30545  28.987  17.751   0.858
70801W        W30546  11.681  37.455  12.372
70802W        W30547  24.209   1.831  12.490
70803W        W30548  34.380   1.422   1.819
70804W        W30549  26.045  13.295   3.703
70805W        W30550  43.495  12.739   0.839
70806W        W30551  28.184  13.643  12.933
70807W        W30552  23.238  34.960  14.913
70808W        W30553  29.065  31.595   2.361
70809W        W30554  14.223  28.610   3.305
70810W        W30555  41.445  10.817   2.830
70811W        W30556  28.451  12.124  13.321
70812W        W30557  37.862   7.347   0.480
70813W        W30558  24.006   8.893  11.497
70814W        W30559  44.836   1.902   1.225
70815W        W30560  26.567  35.904   1.391
70816W        W30561   2.430  36.922   3.222
70817W        W30562  28.984  25.068  12.886
70818W        W30563  27.945   4.938  14.436
70819W        W30564  43.800  38.070  13.877
70820W        W30565   6.853  22.556   1.273
70821W        W30566  44.820  26.139  13.544
70822W        W30567   2.382  44.010   4.133
70823W        W30568  37.522  40.419  13.949
70824W        W30569  36.446  17.663   3.757
70825W        W30570  35.099   5.287   3.760
70826W        W30571  42.934  18.576   4.802
70827W        W30572  23.208  21.639  11.546
70828W        W30573  43.429  43.431   4.221
70829W        W30574  24.009  44.973  12.971
70830W        W30575  35.565  15.188  12.082
70831W        W30576   0.758  28.458  14.350
70832W        W30577  40.336  14.309   3.271
70833W        W30578   0.329   1.250  13.424
70834W        W30579  21.735   3.228  12.061
70835W        W30580  44.426  41.318  11.463
70836W        W30581   4.267  22.599  12.527
70837W        W30582  25.216   6.298   2.196
70838W        W30583   9.276  26.021   0.347
70839W        W30584   1.257  21.540   2.728
70840W        W30585   8.182  31.996   1.755
70841W        W30586  15.795  44.441   4.730
70842W        W30587   2.260  40.858  14.898
70843W        W30588  17.756  29.052  12.856
70844W        W30589  22.196  29.048   0.920
70845W        W30590  15.305  21.126   2.186
70846W        W30591  18.631  37.494   9.956
70847W        W30592  44.858  12.629   1.866
70848W        W30593   3.228  34.511   3.803
70849W        W30594  10.150  39.963  14.915
70850W        W30595  22.225  21.056  10.916
70851W        W30596  20.111  41.312  14.377
70852W        W30597   4.844  16.102   3.642
70853W        W30598   0.974   5.434  12.521
70854W        W30599  35.911  20.131   2.840
70855W        W30600  28.514  12.657  10.620
70856W        W30601  11.190  26.972  12.958
70857W        W30602  11.200  18.737   3.805
70858W        W30603   0.289  17.067  11.405
70859W        W30604   3.929  25.646  12.090
70860W        W30605  12.251  37.066   2.784
70861W        W30606  32.077   2.415   3.832
70862W        W30607  43.969  13.314  13.404
70863W        W30608  18.736  42.935   5.298
70864W        W30609  40.536  44.002   1.320
70865W        W30610  35.879   0.336   4.666
70866W        W30611  40.406  22.169   0.343
70867W        W30612   7.395  21.679  14.419
70868W        W30613  30.938  36.025  13.018
70869W        W30614  18.785  26.478   0.454
70870W        W30615  43.838   7.707   1.337
70871W        W30616  25.217  36.346  12.571
70872W        W30617  19.593  29.668  10.893
70873W        W30618  19.285  16.727   1.286
70874W        W30619  25.144   2.323   2.888
70875W        W30620  23.163  40.306  14.971
70876W        W30621  35.503   7.399  11.394
70877W        W30622  12.168   3.747   0.382
70878W        W30623   4.390   2.927   2.362
70879W        W30624   9.646  37.382   2.194
70880W        W30625  13.149  32.965  13.905
70881W        W30626  13.647  32.478   0.282
70882W        W30627  13.694  34.396  13.949
70883W        W30628  14.791  12.160  13.010
70884W        W30629  11.298  42.007  13.855
70885W        W30630  19.187   4.812   4.192
70886W        W30631  39.946  44.911  13.052
70887W        W30632  38.455  27.558  14.496
70888W        W30633  42.862  17.617  10.514
70889W        W30634  12.726  20.677  14.475
70890W        W30635  30.457  12.141   3.268
70891W        W30636   1.847   3.896  13.357
70892W        W30637  39.048  12.708   3.230
70893W        W30638  32.081  37.076   0.777
70894W        W30639   1.366  19.536   1.410
70895W        W30640  32.447  34.040   2.689
70896W        W30641  11.237  15.170   0.734
70897W        W30642  20.125  20.768   3.666
70898W        W30643  25.002  42.862  11.583
70899W        W30644  31.528  27.588   0.748
70900W        W30645  27.193   2.797  11.118
70901W        W30646  34.581  34.984   1.920
70902W        W30647   3.285  38.909   3.635
70903W        W30648  43.494   3.820   0.336
70904W        W30649   1.881   9.231  11.074
70905W        W30650  24.978  41.483   2.388
70906W        W30651  35.071  38.545   4.698
70907W        W30652  19.741  18.688  14.827
70908W        W30653  31.922  25.206   5.106
70909W        W30654  32.904  34.925   4.637
70910W        W30655  16.602  21.104   2.723
70911W        W30656   8.823  14.651  11.520
70912W        W30657  28.165   1.893   1.446
70913W        W30658  16.800  36.572  12.552
70914W        W30659  25.962  35.861  14.512
70915W        W30660  32.498  41.976   1.783
70916W        W30661   2.862   6.912   4.601
70917W        W30662   7.226   6.687  14.356
70918W        W30663   5.328  25.647   2.862
70919W        W30664  35.995  26.966  12.823
70920W        W30665  39.429  33.965  10.468
70921W        W30666  39.544  14.225   2.225
70922W        W30667   4.868  27.153  14.363
70923W        W30668  25.063  35.373   4.740
70924W        W30669  18.139   3.321  12.832
70925W        W30670  15.174  27.461  13.336
70926W        W30671  41.442  10.200   0.474
70927W        W30672  38.389  43.445   0.256
70928W        W30673  43.772   6.232  14.481
70929W        W30674  13.311  38.845  10.060
70930W        W30675  23.090   7.760  12.893
70931W        W30676  13.676  14.298   0.763
70932W        W30677   1.399  27.661   5.128
70933W        W30678  21.155  39.487   1.246
70934W        W30679   8.228   3.451  14.986
70935W        W30680  29.464  16.737   0.806
70936W        W30681  34.097   4.303  10.624
70937W        W30682  40.469  40.847  14.821
70938W        W30683  43.908  20.144   1.309
70939W        W30684  37.930  35.865   0.854
70940W        W30685  25.205   5.914  13.992
70941W        W30686  37.039  39.491   1.873
70942W        W30687  20.735  10.347   3.276
70943W        W30688  27.017  13.746   5.162
70944W        W30689  38.074  17.773   4.138
70945W        W30690  34.539  34.451   3.782
70946W        W30691  35.095  29.986   1.340
70947W        W30692  12.127  34.061  14.788
70948W        W30693  25.589  39.843  11.920
70949W        W30694  21.520  16.800  13.438
70950W        W30695  29.520   3.869  11.512
70951W        W30696  12.635  40.407  12.581
70952W        W30697  28.111  17.077  12.837
70953W        W30698  22.233   9.735   1.345
70954W        W30699  42.508  11.328   3.155
70955W        W30700   2.287  31.111   1.300
70956W        W30701  17.761  28.174   1.925
70957W        W30702   4.821  12.245  14.765
70958W        W30703  14.815  42.362   0.420
70959W        W30704  32.088  37.496   1.917
70960W        W30705  10.850  22.021  14.871
70961W        W30706  41.994  18.763   1.753
70962W        W30707  14.656  29.967  14.940
70963W        W30708  34.975  23.565   0.746
70964W        W30709  43.778  37.986   1.772
70965W        W30710  14.590  15.256   3.235
70966W        W30711  34.468  15.691  11.502
70967W        W30712  24.657  29.014   3.630
70968W        W30713  26.993  37.884  12.382
70969W        W30714  37.363   9.838  11.453
70970W        W30715  10.681  41.039  12.382
70971W        W30716   1.862  42.467   2.768
70972W        W30717  26.110  40.031  11.975
70973W        W30718   2.965   8.244   4.155
70974W        W30719  42.396  32.540  13.441
70975W        W30720  29.004  17.157   2.676
70976W        W30721   0.456  13.843   4.731
70977W        W30722  32.502  28.087   0.385
70978W        W30723  34.991  35.908   1.277
70979W        W30724  22.185   2.347  10.559
70980W        W30725  31.076   6.726   3.371
70981W        W30726  21.105  27.448  10.639
70982W        W30727   0.860   9.157  10.528
70983W        W30728  36.052   4.442  11.857
70984W        W30729   2.861  12.287  11.926
70985W        W30730  36.947  43.313  11.981
70986W        W30731  39.876  36.005   2.383
70987W        W30732  29.468  27.571  11.038
70988W        W30733   3.430  12.300   0.467
70989W        W30734  44.841   4.227   4.328
70990W        W30735  36.855  25.489   3.236
70991W        W30736  34.110  44.996  13.476
70992W        W30737  33.422  33.993  10.623
70993W        W30738  32.901  21.684  10.941
70994W        W30739   1.345   3.416  11.012
70995W        W30740  21.743  36.369   2.294
70996W        W30741  32.458   2.748   1.230
70997W        W30742  37.035  31.105  14.941
70998W        W30743   6.763   1.314   3.646
70999W        W30744  35.459  12.177   3.165
71000W        W30745  41.954  25.515  12.937
71001W        W30746   4.316   0.758  11.495
71002W        W30747  28.561  44.878   2.273
71003W        W30748  35.556   5.256   2.679
71004W        W30749  11.334  14.656  14.286
71005W        W30750  21.215  37.530  11.017
71006W        W30751  26.041  25.614  11.108
71007W        W30752  36.868  38.009   3.670
71008W        W30753   6.407   8.870   1.712
71009W        W30754  31.525  24.696   2.748
71010W        W30755  36.026  12.806   3.663
71011W        W30756  38.408   7.392  13.986
71012W        W30757   7.354  35.983  11.470
71013W        W30758   6.915   4.724   2.317
71014W        W30759   6.216  28.172  13.398
71015W        W30760   2.371  26.634  10.108
71016W        W30761  22.727  18.108  14.962
71017W        W30762  23.640  30.659   5.606
71018W        W30763  29.026  10.784  10.495
71019W        W30764  19.114  44.794   2.717
71020W        W30765   0.302  42.311  13.970
71021W        W30766  35.513   8.242  10.965
71022W        W30767  22.229   7.880   1.310
71023W        W30768  25.704   7.853  12.387
71024W        W30769   2.353  27.527  12.044
71025W        W30770  33.404   3.319   0.738
71026W        W30771  13.138  30.079   2.213
71027W        W30772  42.402   5.259   3.330
71028W        W30773  41.033  22.171   0.332
71029W        W30774  20.095  13.201  13.048
71030W        W30775   0.276  10.343   1.450
71031W        W30776  10.138  15.798  12.527
71032W        W30777  10.680  18.558   4.762
71033W        W30778  18.706  31.519   2.737
71034W        W30779  40.427  11.710   2.267
71035W        W30780  40.018  26.960   3.754
71036W        W30781   4.803  31.504  13.481
71037W        W30782  39.496  31.461   3.231
71038W        W30783  43.937   2.813   0.889
71039W        W30784  32.065  11.862  11.557
71040W        W30785  34.398  22.085   3.849
71041W        W30786  19.675  44.282   2.404
71042W        W30787  36.576  24.706   2.263
71043W        W30788   7.873  44.293  10.120
71044W        W30789  43.483   4.264  11.079
71045W        W30790  18.761  41.831   1.224
71046W        W30791  40.428  12.161  10.637
71047W        W30792  17.716  19.098  10.945
71048W        W30793   4.929   8.787  14.836
71049W        W30794   4.416   3.437  12.063
71050W        W30795  34.879  37.533   1.432
71051W        W30796   6.711  26.037  13.433
71052W        W30797  14.157  27.584   2.367
71053W        W30798  22.560  13.798  14.816
71054W        W30799  44.890  21.041   9.996
71055W        W30800  20.613  36.969  11.597
71056W        W30801  12.312   2.320  14.900
71057W        W30802  36.383  39.424  10.947
71058W        W30803  18.714   2.411   2.798
71059W        W30804  38.552  12.711   1.450
71060W        W30805  18.748  21.029  14.881
71061W        W30806  31.622   7.845  11.574
71062W        W30807  23.601  39.858   3.253
71063W        W30808  20.592  39.349  10.572
71064W        W30809  24.531  28.566  11.521
71065W        W30810   1.807  23.714  10.892
71066W        W30811  34.017  11.344  12.886
71067W        W30812  15.226   7.217  12.355
71068W        W30813  30.052   1.907  13.014
71069W        W30814  38.870  10.757  12.353
71070W        W30815  40.867   6.817   1.829
71071W        W30816  28.544  18.272  14.817
71072W        W30817  37.561  43.017   1.359
71073W        W30818   5.781  20.188  12.389
71074W        W30819   2.745  42.028  14.878
71075W        W30820  41.300  44.447  10.643
71076W        W30821  18.213  28.515   4.817
71077W        W30822  17.707  32.072  14.282
71078W        W30823  13.165  25.686  13.360
71079W        W30824  13.350  26.625  11.113
71080W        W30825  35.985  41.885  12.534
71081W        W30826   4.937  37.366   0.245
71082W        W30827  15.765  16.780   0.266
71083W        W30828  38.010  37.543   4.654
71084W        W30829  42.500   8.321  13.894
71085W        W30830  44.421   1.395  13.490
71086W        W30831   1.256   5.865   1.396
71087W        W30832   9.256   9.317   3.757
71088W        W30833  37.854  11.343   0.469
71089W        W30834  33.451   7.278  13.454
71090W        W30835  28.078  33.436  11.989
71091W        W30836   9.340  18.266  14.424
71092W        W30837  14.668  34.519   4.622
71093W        W30838   1.339   4.877   1.244
71094W        W30839  18.589  12.260  14.783
71095W        W30840  42.922  37.088  13.490
71096W        W30841   2.463   2.352   0.948
71097W        W30842  30.046  30.655  11.106
71098W        W30843   9.173  36.387  14.936
71099W        W30844  33.607  41.010  13.429
71100W        W30845  38.530   7.751   3.230
71101W        W30846  29.588  30.012  14.798
71102W        W30847  29.619  34.543  10.410
71103W        W30848  19.712  20.762  13.534
71104W        W30849  25.579  39.336  13.842
71105W        W30850  26.466  11.736  11.474
71106W        W30851  20.182  31.999   1.325
71107W        W30852  20.546   5.910  11.443
71108W        W30853  29.582  42.436  14.800
71109W        W30854  41.421  11.348   2.415
71110W        W30855  11.633  26.013  13.961
71111W        W30856  30.011  11.347  13.410
71112W        W30857  30.520   1.410   5.117
71113W        W30858  18.141   2.231   4.631
71114W        W30859  16.664  24.138  12.076
71115W        W30860  18.150  22.141  11.946
71116W        W30861  42.419  19.588   3.346
71117W        W30862  16.198  44.321  12.556
71118W        W30863   1.812  36.932   0.801
71119W        W30864  28.107  43.769  14.887
71120W        W30865  32.891  13.646  13.939
71121W        W30866  39.314  20.548   3.240
71122W        W30867  21.529   9.381   1.256
71123W        W30868  24.198   6.898   4.610
71124W        W30869   6.340  39.038  12.995
71125W        W30870   8.319  35.034  13.530
71126W        W30871  38.856  26.464  13.017
71127W        W30872  38.035  41.399  14.783
71128W        W30873  41.432  26.621  12.467
71129W        W30874  10.277   0.952  12.948
71130W        W30875  34.891  24.622  14.884
71131W        W30876  25.193  28.545   3.760
71132W        W30877  25.559  12.163  11.895
71133W        W30878  44.809   8.279   2.336
71134W        W30879  37.085  17.709  13.804
71135W        W30880   3.778  40.836   1.294
71136W        W30881  38.962  19.727  11.121
71137W        W30882  44.339  25.002  14.897
71138W        W30883  26.658  21.028  13.418
71139W        W30884  39.895  35.489   3.317
71140W        W30885  31.136  41.980   2.257
71141W        W30886  14.258  12.323   3.732
71142W        W30887   5.707  38.025  10.415
71143W        W30888   4.393  23.069  14.493
71144W        W30889   3.286  11.842   0.880
71145W        W30890  35.902  17.127   1.399
71146W        W30891   9.265  39.867   2.219
71147W        W30892  37.962  12.202   0.813
71148W        W30893   4.910  31.966   5.100
71149W        W30894   3.409   2.232   5.130
71150W        W30895  39.355  28.446  10.523
71151W        W30896  24.598  27.172  14.427
71152W        W30897  19.761  38.075  14.429
71153W        W30898  44.284  40.801  14.905
71154W        W30899  37.942  20.234   3.295
71155W        W30900  33.400   3.852   2.821
71156W        W30901   8.687  41.801   2.191
71157W        W30902  27.171  42.987  10.149
71158W        W30903   5.750  26.615  10.927
71159W        W30904  23.160  35.979  11.064
71160W        W30905  39.849   4.320   0.928
71161W        W30906   5.198  20.163  10.028
71162W        W30907  33.907  15.808  11.488
71163W        W30908  42.379  15.307  13.792
71164W        W30909  24.552   4.933   1.745
71165W        W30910   2.406  11.177   2.902
71166W        W30911  15.749  27.516  12.465
71167W        W30912  15.322  28.060   1.915
71168W        W30913  39.994  28.579  10.911
71169W        W30914   5.251  32.458  14.891
71170W        W30915   2.853  19.672  14.884
71171W        W30916   7.717  14.190   0.915
71172W        W30917   4.915   3.293   3.786
71173W        W30918  27.989  37.521  10.600
71174W        W30919  15.111  24.560   0.807
71175W        W30920  42.940  37.902  14.949
71176W        W30921  33.457  21.517  12.002
71177W        W30922   7.715   1.918  12.498
71178W        W30923  18.128   3.920  14.442
71179W        W30924  29.168  44.845   0.850
71180W        W30925  35.902  42.844  12.869
71181W        W30926  17.304  36.524  10.574
71182W        W30927  37.352   9.311   3.199
71183W        W30928  31.896   0.277   1.789
71184W        W30929  20.260  19.207   4.597
71185W        W30930  36.422  24.483  14.027
71186W        W30931  39.525   7.865   4.142
71187W        W30932   1.377   0.785  13.037
71188W        W30933  17.766  14.685  10.530
71189W        W30934  15.260  43.388   3.272
71190W        W30935  33.446  41.463  11.431
71191W        W30936  22.050  19.049   3.170
71192W        W30937  15.096   9.845  13.891
71193W        W30938  26.165  29.435  14.018
71194W        W30939   3.370  21.700  13.405
71195W        W30940  19.769  42.941  12.057
71196W        W30941  44.901  42.352  14.507
71197W        W30942  19.057   9.668   4.330
71198W        W30943  36.533   0.273   4.712
71199W        W30944   5.274  44.405   3.676
71200W        W30945  11.195  18.586   2.744
71201W        W30946  32.035   2.311   5.215
71202W        W30947  30.656  42.945  11.586
71203W        W30948  16.691  43.510  12.402
71204W        W30949   2.345   9.688   4.827
71205W        W30950   6.370  38.343  11.534
71206W        W30951  22.119  24.684  13.334
71207W        W30952  10.205  23.598   2.684
71208W        W30953  34.969  33.585  12.922
71209W        W30954  14.336  13.766   1.782
71210W        W30955  29.648   8.310   5.230
71211W        W30956   6.828  30.961   1.767
71212W        W30957  44.349  44.782   4.750
71213W        W30958  40.866   9.697  12.974
71214W        W30959  16.106  17.218   1.789
71215W        W30960   3.305  21.056  12.852
71216W        W30961  20.167  31.474   2.841
71217W        W30962   4.238  21.112  12.526
71218W        W30963  26.967   9.326  12.039
71219W        W30964  42.487  35.482   0.928
71220W        W30965  23.667  15.818  13.479
71221W        W30966  44.931  23.017   4.187
71222W        W30967  28.145  35.994   4.233
71223W        W30968  42.785  44.899   4.171
71224W        W30969   6.807   8.870  12.995
71225W        W30970  39.394   7.830   0.860
71226W        W30971  21.711  35.007   0.473
71227W        W30972   0.491  44.406  11.550
71228W        W30973  26.993  13.840   9.459
71229W        W30974   3.812  30.446   0.915
71230W        W30975   7.895   1.427  14.378
71231W        W30976  42.411  15.145   4.730
71232W        W30977  26.204  10.180   4.235
71233W        W30978  40.406   7.351   3.843
71234W        W30979   2.896  14.626   4.735
71235W        W30980  38.948  31.612  11.119
71236W        W30981  13.806  15.752  13.033
71237W        W30982   3.816  20.271  14.991
71238W        W30983  39.406  13.161  10.482
71239W        W30984  13.330   9.745   1.295
71240W        W30985  19.753   6.347   5.286
71241W        W30986  15.581  38.440  11.535
71242W        W30987  10.709  27.134  13.955
71243W        W30988  27.159  21.701  14.976
71244W        W30989   1.299   8.866   1.858
71245W        W30990  39.836  12.178   1.887
71246W        W30991  35.892  44.781  12.423
71247W        W30992  35.488  21.565  10.557
71248W        W30993  11.263   4.898   4.832
71249W        W30994  25.964  22.605   4.812
71250W        W30995  30.472  22.244  11.442
71251W        W30996   9.701  33.966   3.188
71252W        W30997   5.211  39.347  13.322
71253W        W30998   2.864  44.468   3.274
71254W        W30999  15.728  40.914  10.553
71255W        W31000  11.840   5.723   3.277
71256W        W31001   0.805  21.172   2.875
71257W        W31002   6.867  12.151   0.329
71258W        W31003  12.686  15.631   4.227
71259W        W31004  17.629  34.542   2.385
71260W        W31005  38.546  29.579   4.223
71261W        W31006  11.862  13.637  11.878
71262W        W31007  12.833  26.046   4.709
71263W        W31008  29.025  12.165   2.235
71264W        W31009  12.791   4.901  14.825
71265W        W31010  11.645  32.133   1.399
71266W        W31011  14.731  33.913   3.155
71267W        W31012  28.681   1.867  12.033
71268W        W31013  39.887  42.512   3.322
71269W        W31014   4.791  21.042  10.996
71270W        W31015  22.143  32.022  12.516
71271W        W31016  16.138  44.368   2.706
71272W        W31017   6.870  44.877  12.057
71273W        W31018  20.548   6.408  11.866
71274W        W31019  21.733  20.272  13.405
71275W        W31020   9.289  21.664  13.062
71276W        W31021  20.646  44.898  13.030
71277W        W31022   8.677  26.553  11.603
71278W        W31023  23.230  28.021   3.690
71279W        W31024   6.241   5.768  10.953
71280W        W31025  13.190  15.642   4.301
71281W        W31026  42.332  34.481  13.374
71282W        W31027  11.294   3.324  11.544
71283W        W31028   6.216  40.922   2.210
71284W        W31029  16.140  10.799  14.830
71285W        W31030   2.723  17.205   3.867
71286W        W31031  42.477  28.626   1.320
71287W        W31032  21.641  21.700   1.444
71288W        W31033  39.458  21.256  10.607
71289W        W31034  41.488  12.708  11.468
71290W        W31035  30.923  27.142  12.897
71291W        W31036  26.957  19.165   3.646
71292W        W31037   4.893   9.255  13.530
71293W        W31038   0.490  24.065  13.822
71294W        W31039  14.280  32.939   3.242
71295W        W31040  39.834   0.406  14.923
71296W        W31041  10.200   4.737  13.320
71297W        W31042  10.798  39.472  14.452
71298W        W31043  37.487  43.937   2.398
71299W        W31044  35.458  34.505  11.062
71300W        W31045  30.547  13.641  11.048
71301W        W31046  34.551  20.156   4.180
71302W        W31047  16.742  33.397   1.731
71303W        W31048  21.224   0.251   1.806
71304W        W31049  39.886   7.375   3.293
71305W        W31050  15.152   6.810  13.917
71306W        W31051  34.499   4.760  11.519
71307W        W31052  29.062  33.553   0.876
71308W        W31053  35.097   6.390  10.597
71309W        W31054  40.898   0.372  10.613
71310W        W31055  24.016  32.451  10.508
71311W        W31056  34.976  36.967  11.443
71312W        W31057  34.368  22.646  12.965
71313W        W31058  29.662  18.185   1.210
71314W        W31059  40.824  24.978  14.372
71315W        W31060  35.000  26.568  10.949
71316W        W31061  26.682  19.152  13.926
71317W        W31062  37.882  37.410  13.063
71318W        W31063  11.847  10.751  11.441
71319W        W31064  30.066  12.653  10.516
71320W        W31065   2.791  38.377  12.090
71321W        W31066  15.661  34.422   2.711
71322W        W31067  29.480  18.668  12.554
71323W        W31068  30.532  19.720  12.876
71324W        W31069   8.785  15.805  13.344
71325W        W31070  40.828  36.362  10.953
71326W        W31071  26.967  10.830  13.368
71327W        W31072  43.769  31.592  14.978
71328W        W31073   1.367  28.071   1.792
71329W        W31074  15.789  27.078   4.817
71330W        W31075  25.627  16.083  12.880
71331W        W31076   4.417  18.586   0.474
71332W        W31077   3.804  30.575  12.349
71333W        W31078  12.358   2.273   1.933
71334W        W31079  19.065  22.744  13.451
71335W        W31080  40.540  30.147   0.419
71336W        W31081   8.707  25.195   3.679
71337W        W31082   7.356  14.134   3.277
71338W        W31083  36.469  19.162  11.389
71339W        W31084  40.010  35.886  14.009
71340W        W31085  18.139  33.943   4.649
71341W        W31086   5.262  38.908   3.684
71342W        W31087  12.164  42.815   4.307
71343W        W31088  16.212  43.851  10.404
71344W        W31089  38.416  32.474  14.769
71345W        W31090  31.572  40.515  14.420
71346W        W31091   9.687   4.841   0.276
71347W        W31092  32.015  24.625   2.331
71348W        W31093  38.377  12.269  14.443
71349W        W31094  26.090  15.303   2.408
71350W        W31095  41.905  21.754  14.508
71351W        W31096  11.280  39.473   0.432
71352W        W31097   4.298  22.072  10.934
71353W        W31098  11.348  39.416   1.753
71354W        W31099  21.702   6.818   3.161
71355W        W31100  16.298   6.327  13.051
71356W        W31101  43.512  14.624  10.940
71357W        W31102   1.306   4.867   0.321
71358W        W31103  27.628   8.203  13.442
71359W        W31104  26.002  35.557   1.307
71360W        W31105  36.096  18.580  13.795
71361W        W31106  44.985  23.662   2.818
71362W        W31107  38.837  27.525   0.375
71363W        W31108   0.744   1.733  14.873
71364W        W31109  23.996  30.562   5.620
71365W        W31110  34.375  13.614   1.408
71366W        W31111  14.336  20.699   1.861
71367W        W31112  37.558  33.503   4.711
71368W        W31113  44.967   5.207   2.338
71369W        W31114  39.467   1.850   1.311
71370W        W31115   3.852  17.149  13.503
71371W        W31116  20.112  18.138   2.402
71372W        W31117  40.526  31.624  11.960
71373W        W31118   4.256   4.236   2.696
71374W        W31119  22.101   1.918   2.250
71375W        W31120   2.926  33.389  13.804
71376W        W31121  24.979  28.522  10.903
71377W        W31122  10.735  42.979  10.945
71378W        W31123  17.187  38.865   2.363
71379W        W31124  31.903  32.123  14.438
71380W        W31125   1.265   8.720   2.393
71381W        W31126  18.546  40.926   1.878
71382W        W31127   1.785  16.085  12.548
71383W        W31128   4.707   6.349   1.730
71384W        W31129  33.948   5.803  14.327
71385W        W31130  11.864  38.855  12.573
71386W        W31131  23.662  44.430  10.592
71387W        W31132  32.141  35.081   4.605
71388W        W31133  29.123   2.932   2.837
71389W        W31134  34.483  26.517  11.509
71390W        W31135  38.451  19.534   1.309
71391W        W31136  10.292   9.712   2.385
71392W        W31137  29.555  20.116  12.033
71393W        W31138  26.108  16.175   0.452
71394W        W31139   4.411  32.629   0.478
71395W        W31140  29.175  21.163  13.979
71396W        W31141  44.776  13.701  13.507
71397W        W31142  35.107   8.218  14.343
71398W        W31143   1.414  11.776   4.616
71399W        W31144  18.768  36.095  10.104
71400W        W31145  10.342  10.879   0.824
71401W        W31146  28.469  33.586   1.218
71402W        W31147  32.093  20.551   2.792
71403W        W31148  12.126  29.022   3.760
71404W        W31149  15.716  20.248  13.795
71405W        W31150   9.664   5.916   2.902
71406W        W31151  15.816  33.559  11.374
71407W        W31152  25.160  34.867  13.384
71408W        W31153  10.728  38.569  12.941
71409W        W31154  41.820  22.685   0.467
71410W        W31155   6.284  18.063   3.870
71411W        W31156   0.438  11.130   0.471
71412W        W31157   1.380  13.685   4.752
71413W        W31158  34.609   2.905   4.811
71414W        W31159  10.304  28.573  13.837
71415W        W31160  25.690  26.682   1.920
71416W        W31161  10.235  24.662   1.804
71417W        W31162  25.589  39.020   1.239
71418W        W31163  15.797  26.075  12.577
71419W        W31164  44.363  16.644   3.704
71420W        W31165  27.107  21.552   3.848
71421W        W31166  32.930  18.226  12.405
71422W        W31167  32.444  26.477   2.669
71423W        W31168  36.086  29.012   2.682
71424W        W31169  38.541  32.025  14.316
71425W        W31170  18.744   0.377  11.108
71426W        W31171  26.057  41.813  12.392
71427W        W31172  12.799  26.586   3.284
71428W        W31173  26.137  39.048  11.520
71429W        W31174  18.735  30.106   1.447
71430W        W31175   2.376  31.460  13.863
71431W        W31176  33.971  23.233   2.198
71432W        W31177  32.101  41.865   4.121
71433W        W31178   7.229  10.284  13.516
71434W        W31179  12.247  12.292   0.728
71435W        W31180  24.621  24.604  11.481
71436W        W31181  26.467  12.297   4.179
71437W        W31182  35.406  17.781  10.586
71438W        W31183  31.477  32.547   2.779
71439W        W31184  17.157   5.338  10.638
71440W        W31185  25.979  32.410  14.418
71441W        W31186   2.321  42.792  10.981
71442W        W31187  43.966  21.221   5.122
71443W        W31188  26.545  10.757   3.790
71444W        W31189  32.017  26.630  13.853
71445W        W31190   5.902   1.279   0.394
71446W        W31191  33.975  22.581  10.019
71447W        W31192  22.019  28.960  11.429
71448W        W31193  30.511  43.415  14.866
71449W        W31194  41.855   4.887  10.611
71450W        W31195  37.442  22.137  13.888
71451W        W31196  34.042  26.132   0.444
71452W        W31197   4.259  20.242  13.957
71453W        W31198   9.760  44.373  10.591
71454W        W31199  33.465  41.024  10.082
71455W        W31200  30.002  25.704   4.768
71456W        W31201  22.619  34.932  10.617
71457W        W31202  32.396   2.835   3.865
71458W        W31203   3.943  31.150   0.921
71459W        W31204  42.283  12.707  12.351
71460W        W31205  26.579  11.839   2.873
71461W        W31206   2.461  11.268   0.441
71462W        W31207   4.254  38.976  12.013
71463W        W31208  29.998  43.810   0.889
71464W        W31209  22.535  13.798   3.175
71465W        W31210  11.324   0.408   1.241
71466W        W31211   1.801  11.833   4.710
71467W        W31212  36.460  18.155   5.155
71468W        W31213  41.809  24.092  12.092
71469W        W31214   0.276  32.007  12.374
71470W        W31215  26.503  22.178   1.379
71471W        W31216  26.536  44.467   3.372
71472W        W31217  38.359  37.434   4.770
71473W        W31218  35.519  37.046  11.117
71474W        W31219  34.917  38.898   3.636
71475W        W31220   0.384  15.743   3.292
71476W        W31221  11.841  27.502  10.591
71477W        W31222  41.431  35.079  13.544
71478W        W31223  33.107  16.143   0.406
71479W        W31224   2.882   3.746   1.779
71480W        W31225  27.464  38.042  12.990
71481W        W31226  13.641   9.867  12.522
71482W        W31227  15.676  41.395   4.733
71483W        W31228  27.024   1.328   3.275
71484W        W31229  29.046   6.407   3.822
71485W        W31230  20.268  35.379  10.931
71486W        W31231   2.905  35.910  14.925
71487W        W31232  42.969   8.728   5.185
71488W        W31233  44.287  35.932  11.973
71489W        W31234  13.809  27.062   3.384
71490W        W31235  16.081   5.902  13.971
71491W        W31236  43.449  20.042  13.373
71492W        W31237  21.113  28.497  13.990
71493W        W31238   0.412  16.256  11.471
71494W        W31239   4.299  19.261  12.973
71495W        W31240  18.675  17.298   2.764
71496W        W31241  28.566  23.657  14.933
71497W        W31242  14.136  42.325  11.972
71498W        W31243   7.410  30.067  14.478
71499W        W31244  26.992  27.135  14.003
71500W        W31245  34.536  23.691   2.364
71501W        W31246  40.896  27.591  12.443
71502W        W31247  20.612   9.270   1.361
71503W        W31248  36.093  36.492   1.348
71504W        W31249  31.422   1.952   4.155
71505W        W31250  37.076  33.002  13.817
71506W        W31251   3.952   6.697   1.878
71507W        W31252  25.991  12.631  11.585
71508W        W31253   5.320   3.891   4.718
71509W        W31254  21.711  35.367   3.220
71510W        W31255  23.102  23.556  12.527
71511W        W31256  29.049   0.303  14.460
71512W        W31257  12.294  28.968  10.482
71513W        W31258   3.308  14.336   3.673
71514W        W31259  13.261   8.303  12.568
71515W        W31260  41.798   9.798  11.979
71516W        W31261  44.855  19.238   1.386
71517W        W31262  42.394  33.527   1.714
71518W        W31263  38.843  32.481   9.960
71519W        W31264  32.471  41.804  11.931
71520W        W31265   7.782  17.154  10.026
71521W        W31266   7.212  31.014   0.402
71522W        W31267   3.803  30.015   3.170
71523W        W31268  20.531  44.798   3.760
71524W        W31269  19.285  14.698   4.609
71525W        W31270  33.542  33.389  12.364
71526W        W31271   2.804  28.635   3.748
71527W        W31272  12.211  28.991  10.951
71528W        W31273  12.351  24.130  11.408
71529W        W31274  11.737  11.332   0.744
71530W        W31275  27.606  22.614  13.982
71531W        W31276  36.998  44.006  13.333
71532W        W31277  43.854   0.845  14.024
71533W        W31278  41.299  32.425  12.376
71534W        W31279  41.825  14.775  14.414
71535W        W31280  29.024   5.416  13.512
71536W        W31281   3.731  12.149  10.548
71537W        W31282  23.216  12.755   5.620
71538W        W31283   0.358  38.365  10.123
71539W        W31284  28.104  18.628   4.663
71540W        W31285  26.633  35.957  14.849
71541W        W31286  33.123  30.149  12.542
71542W        W31287  28.168   2.442   2.807
71543W        W31288   2.282  22.146  11.019
71544W        W31289  18.178  10.837   3.234
71545W        W31290   4.293  31.089  10.154
71546W        W31291  42.468  13.259   1.789
71547W        W31292  41.509  25.047  14.319
71548W        W31293  14.217  38.967  13.938
71549W        W31294  13.141   1.333  11.422
71550W        W31295  35.376  23.198  13.393
71551W        W31296  39.955  12.260  13.488
71552W        W31297  36.018  14.212   2.266
71553W        W31298  35.480  16.242  11.540
71554W        W31299  36.851  30.103   0.967
71555W        W31300  41.524  20.218  14.813
71556W        W31301  30.099  34.077   4.173
71557W        W31302  13.256  33.380   2.378
71558W        W31303  18.668  19.098  14.846
71559W        W31304  10.349  17.290  13.828
71560W        W31305  19.682  41.932   2.306
71561W        W31306  18.778  41.351   5.138
71562W        W31307   9.285   0.862   1.419
71563W        W31308  16.593   3.372   2.193
71564W        W31309  15.155  44.941  11.403
71565W        W31310  37.469  24.101  12.832
71566W        W31311  17.574  15.326   1.291
71567W        W31312  21.738  14.593   0.946
71568W        W31313  35.920  22.601   0.899
71569W        W31314  39.484  26.149   2.687
71570W        W31315   6.306   0.296  10.987
71571W        W31316  33.554  43.778   2.325
71572W        W31317   3.858  20.163  12.037
71573W        W31318   3.848   5.822  14.013
71574W        W31319   8.855  23.214  12.876
71575W        W31320  37.993  16.186  12.041
71576W        W31321  16.243   1.326  13.518
71577W        W31322  25.609  42.326  14.392
71578W        W31323  42.292  26.611   1.697
71579W        W31324  31.595  16.102   4.670
71580W        W31325   0.984   9.312   3.381
71581W        W31326  35.432  41.038   4.290
71582W        W31327  43.362  18.055  13.374
71583W        W31328   0.313   9.711  12.421
71584W        W31329   2.457   6.921   4.625
71585W        W31330  17.154  38.055  10.515
71586W        W31331  19.173   2.439   2.360
71587W        W31332   4.296  21.634   2.321
71588W        W31333   5.866  13.221   0.788
71589W        W31334  36.429  24.616  12.512
71590W        W31335  34.447   9.667  12.865
71591W        W31336  14.223   5.284   2.241
71592W        W31337   3.747  35.498   0.878
71593W        W31338  12.673  32.428  11.921
71594W        W31339  39.539  43.852   2.234
71595W        W31340   0.952  25.557  14.864
71596W        W31341   6.872  34.943   1.316
71597W        W31342  26.041  29.170  11.081
71598W        W31343  28.516  18.165  11.551
71599W        W31344  20.116  13.713   2.389
71600W        W31345  13.126  37.066  14.424
71601W        W31346  34.916  11.811   0.412
71602W        W31347  35.902  38.352   2.354
71603W        W31348  42.295   3.436   2.876
71604W        W31349  34.960   9.228   4.748
71605W        W31350  25.144  28.507  11.477
71606W        W31351  38.055  23.108   2.409
71607W        W31352   6.314   3.418   2.415
71608W        W31353  21.747   8.162   3.319
71609W        W31354   7.179  32.045   2.782
71610W        W31355  28.071  13.255   2.280
71611W        W31356   8.325   6.200  13.396
71612W        W31357  41.315   9.815   0.842
71613W        W31358   4.356  40.463   0.769
71614W        W31359  27.193   8.220  14.991
71615W        W31360   2.849  19.727   1.803
71616W        W31361   6.194  12.224  11.999
71617W        W31362   0.359   6.211   3.844
71618W        W31363  26.128  29.044  14.776
71619W        W31364  11.723   1.261  12.990
71620W        W31365  16.744  38.900   0.967
71621W        W31366  20.163  29.520  11.524
71622W        W31367  35.512  19.085  11.454
71623W        W31368  44.504  25.677   4.706
71624W        W31369  24.660  34.901  13.547
71625W        W31370   5.767   3.836   3.241
71626W        W31371  29.030  19.238  10.894
71627W        W31372  44.772  19.561  14.511
71628W        W31373  12.820  31.928   1.327
71629W        W31374  34.883  32.929   4.161
71630W        W31375  22.119   7.265   1.368
71631W        W31376  44.354   6.297   1.304
71632W        W31377  31.491  19.667  13.017
71633W        W31378  37.085  34.511  13.820
71634W        W31379  15.289  15.653  13.932
71635W        W31380  27.591  29.986   0.247
71636W        W31381  33.942  27.024   0.736
71637W        W31382  42.409  13.641   3.771
71638W        W31383  30.446   2.353  13.360
71639W        W31384  36.524   9.869   2.401
71640W        W31385  35.496  18.206   1.330
71641W        W31386  39.441  38.370   2.302
71642W        W31387  27.984  30.956   0.442
71643W        W31388  19.746  33.418   3.261
71644W        W31389  35.898  11.762   3.825
71645W        W31390  28.007  14.292   0.409
71646W        W31391   8.667  17.766   4.247
71647W        W31392  16.574  11.342  11.380
71648W        W31393  41.901  40.511   1.823
71649W        W31394  44.972  23.134   3.164
71650W        W31395  10.774  11.208   0.952
71651W        W31396  19.205  32.481  10.459
71652W        W31397  12.193   5.819  14.423
71653W        W31398  26.477   6.193   3.799
71654W        W31399   1.426  26.604  13.954
71655W        W31400   0.332  41.821  14.344
71656W        W31401  39.900  23.218   2.880
71657W        W31402  40.844   3.417  11.979
71658W        W31403  23.169  15.641   1.821
71659W        W31404  42.857  35.960  12.558
71660W        W31405  35.899  23.003   0.323
71661W        W31406  18.296  37.952   1.851
71662W        W31407  28.540  37.421   4.276
71663W        W31408  31.532   2.823  13.445
71664W        W31409  15.815   9.851  12.534
71665W        W31410   5.262  29.960   4.802
71666W        W31411   3.354  15.668   5.218
71667W        W31412   4.446  17.624  12.081
71668W        W31413  28.442  17.199   1.423
71669W        W31414  33.995  13.616  11.515
71670W        W31415   7.394  11.676   2.699
71671W        W31416  15.113  20.082   2.789
71672W        W31417  25.511   9.203  12.995
71673W        W31418   8.675  40.909  13.064
71674W        W31419  31.415  21.048   1.879
71675W        W31420  22.076  35.075  10.477
71676W        W31421  41.480   3.350  10.520
71677W        W31422   7.872  11.313   4.759
71678W        W31423  14.204  17.124  12.070
71679W        W31424  20.151  23.605   0.877
71680W        W31425  25.580  24.610  11.997
71681W        W31426   0.428  38.916  13.034
71682W        W31427  32.398  11.197  12.823
71683W        W31428  29.965  33.425  10.126
71684W        W31429  10.637  42.783   2.321
71685W        W31430  23.195   7.787   2.688
71686W        W31431  29.631   1.329   0.741
71687W        W31432  38.073  15.813  11.374
71688W        W31433  41.358   8.211   2.810
71689W        W31434  26.015  38.442  14.293
71690W        W31435   6.186  20.626  13.312
71691W        W31436  16.732  43.945   4.331
71692W        W31437  20.121  22.745   3.664
71693W        W31438  20.637  32.598   0.297
71694W        W31439  34.374  20.177   0.897
71695W        W31440  14.120  35.106  12.980
71696W        W31441  44.954  12.306   2.801
71697W        W31442  17.625  37.005   4.604
71698W        W31443  41.300  12.216  12.058
71699W        W31444  11.785  37.388  11.957
71700W        W31445  35.406  13.667  14.304
71701W        W31446  24.481  44.953   1.750
71702W        W31447   0.419  39.471  14.949
71703W        W31448  40.384   9.317  11.017
71704W        W31449  39.551   8.684  12.063
71705W        W31450  40.440  30.433   9.934
71706W        W31451  43.468   0.833   1.259
71707W        W31452  37.434  22.191  10.929
71708W        W31453  30.479  31.018  13.476
71709W        W31454  23.196   8.175   0.353
71710W        W31455  24.724   2.903  14.317
71711W        W31456  39.013  15.084  13.384
71712W        W31457  38.547   7.246   4.181
71713W        W31458  11.638   5.211  10.588
71714W        W31459  38.484  21.058   4.158
71715W        W31460   9.744  37.862  14.372
71716W        W31461  42.832  37.085  13.886
71717W        W31462  14.203  23.631  12.575
71718W        W31463  28.491  12.333   0.308
71719W        W31464   2.453  34.462  10.580
71720W        W31465  28.536  24.630  11.475
71721W        W31466   2.828  33.971   2.219
71722W        W31467  13.166  13.231   2.380
71723W        W31468  15.585  41.463  12.953
71724W        W31469  14.631   0.471  12.553
71725W        W31470  23.186  28.002   0.368
71726W        W31471  35.366  11.311   1.869
71727W        W31472  11.826   0.392  13.486
71728W        W31473  12.244  23.092   0.901
71729W        W31474  39.994  25.183   0.821
71730W        W31475  18.650  28.076   4.720
71731W        W31476   2.332  29.500   3.678
71732W        W31477  25.478  32.479   0.916
71733W        W31478  32.132  35.430  11.412
71734W        W31479  16.573  23.694   2.282
71735W        W31480  23.099  23.055  13.836
71736W        W31481  22.218  24.605  14.773
71737W        W31482   9.657  33.033  11.967
71738W        W31483   5.864   4.204   2.246
71739W        W31484  25.496   0.474   2.359
71740W        W31485  44.362  43.950   0.728
71741W        W31486  42.294  25.676  14.297
71742W        W31487   8.737  33.409   1.311
71743W        W31488  42.905  10.809   1.923
71744W        W31489   5.704  35.971   0.903
71745W        W31490   7.265   2.746   3.371
71746W        W31491  19.222   5.225   2.869
71747W        W31492   2.452  25.508  11.096
71748W        W31493  14.821   0.835   0.821
71749W        W31494  41.913  36.354   3.757
71750W        W31495  10.637  37.023  14.832
71751W        W31496  25.684  18.575   1.322
71752W        W31497  13.741  35.073  10.640
71753W        W31498  15.809  38.998   5.133
71754W        W31499  22.683  21.676   2.232
71755W        W31500  13.599   1.406  12.061
71756W        W31501  10.777   1.797  12.536
71757W        W31502   4.208  41.407  10.559
71758W        W31503  37.413  16.752   1.361
71759W        W31504  30.603  10.835  14.904
71760W        W31505  26.688  29.489  12.396
71761W        W31506  29.469   6.232  13.367
71762W        W31507  41.427   6.222   1.786
71763W        W31508  42.427  31.515   0.785
71764W        W31509  33.497  23.670  10.430
71765W        W31510  19.092  11.191   0.468
71766W        W31511  41.339  26.659   4.336
71767W        W31512   9.681  26.108  12.874
71768W        W31513  36.520  39.049   2.678
71769W        W31514  11.703  44.984  14.018
71770W        W31515  40.807  42.495   3.705
71771W        W31516  25.693   7.724   1.312
71772W        W31517  13.147  27.587  14.377
71773W        W31518   1.897  22.589   2.880
71774W        W31519   2.967  36.355  12.960
71775W        W31520  41.525  25.579  13.851
71776W        W31521   0.334   1.472   1.400
71777W        W31522   1.389  34.000   1.270
71778W        W31523  29.124  42.300   4.162
71779W        W31524   2.799   7.732   4.136
71780W        W31525   8.825  32.127  10.645
71781W        W31526  33.059   6.740  12.393
71782W        W31527  17.611  31.464   1.214
71783W        W31528  27.675  37.058  14.314
71784W        W31529  17.252  29.126   1.755
71785W        W31530  30.070   5.888  11.879
71786W        W31531  13.112  12.121  13.862
71787W        W31532  38.501  25.521   0.381
71788W        W31533  23.531  28.950   3.190
71789W        W31534   3.412  25.209   3.651
71790W        W31535   8.244   8.341  12.386
71791W        W31536   9.874   3.278  14.441
71792W        W31537  18.093   3.281   5.313
71793W        W31538  39.446   2.853  14.804
71794W        W31539  28.171  13.138   5.151
71795W        W31540   1.757  32.123  11.032
71796W        W31541   7.354  11.166   1.911
71797W        W31542  13.227  30.639   3.711
71798W        W31543   5.436  14.160  13.308
71799W        W31544  24.052  40.514   3.324
71800W        W31545  29.538  13.347   3.319
71801W        W31546  14.621  44.827  11.884
71802W        W31547  14.236  19.557   3.174
71803W        W31548  36.416  14.665   3.728
71804W        W31549  24.052  41.300   4.803
71805W        W31550  34.572  33.043   3.304
71806W        W31551  24.541  18.139   1.772
71807W        W31552  29.625   8.777   3.682
71808W        W31553  27.514   4.382   4.668
71809W        W31554  40.402  37.989   4.247
71810W        W31555  38.875   9.222  14.405
71811W        W31556  32.547  36.428   0.376
71812W        W31557  30.037  11.785  12.965
71813W        W31558  17.226  15.216   1.743
71814W        W31559  32.036  15.742   1.761
71815W        W31560   5.771  14.746   3.207
71816W        W31561  43.336  40.415  14.762
71817W        W31562   2.391  17.212  12.373
71818W        W31563  15.116  42.027  13.971
71819W        W31564   0.975  43.843  11.472
71820W        W31565  42.299  13.169  11.607
71821W        W31566   2.229  17.238   2.725
71822W        W31567  34.490  14.198   1.716
71823W        W31568  10.811  27.085   1.287
71824W        W31569  26.666  13.680  10.407
71825W        W31570  38.008  12.269  13.841
71826W        W31571  32.487   9.358   1.920
71827W        W31572  12.282  28.039   4.817
71828W        W31573  32.095  15.716  11.418
71829W        W31574  18.640  17.569   2.395
71830W        W31575  42.909  39.538   4.278
71831W        W31576  32.895  32.925   4.679
71832W        W31577  23.032  15.726  14.334
71833W        W31578  26.075   8.687   1.701
71834W        W31579  36.075  10.173  11.600
71835W        W31580  12.834  29.993   4.763
71836W        W31581  10.852  36.093  11.560
71837W        W31582   4.331  44.978   3.194
71838W        W31583  37.878  37.965   4.774
71839W        W31584  23.210  20.053   1.696
71840W        W31585  39.475  32.572   0.861
71841W        W31586  39.010   3.237   0.773
71842W        W31587  20.233  35.377   3.850
71843W        W31588   6.261  32.910  11.098
71844W        W31589   6.819   3.460   3.161
71845W        W31590  17.712  25.977   2.271
71846W        W31591  29.151  26.656   1.290
71847W        W31592  16.240  14.289  12.916
71848W        W31593   9.186   5.902   1.414
71849W        W31594   2.334   5.332   0.949
71850W        W31595  30.470   0.894   2.192
71851W        W31596  32.413  24.520   1.749
71852W        W31597   3.429   0.313  10.963
71853W        W31598  36.890   6.414   4.320
71854W        W31599  14.693  40.905   3.751
71855W        W31600   1.812  10.179  13.895
71856W        W31601  43.839  42.442   2.676
71857W        W31602  12.237   6.715  13.892
71858W        W31603  29.475  25.656   1.331
71859W        W31604  27.590  34.945  10.483
71860W        W31605   8.351  31.918   2.230
71861W        W31606   8.797  14.216   0.839
71862W        W31607  32.570  42.358  10.642
71863W        W31608  21.574  35.984  13.455
71864W        W31609   4.716  44.481   0.737
71865W        W31610  34.433   7.365   0.888
71866W        W31611  41.992  39.015   2.687
71867W        W31612  23.567   0.895   0.909
71868W        W31613  38.412  44.930   2.318
71869W        W31614  29.524  38.416   1.237
71870W        W31615  38.545  37.342  14.920
71871W        W31616   5.340  38.327  10.415
71872W        W31617  15.189  38.426   3.763
71873W        W31618  35.021  15.633   2.296
71874W        W31619  42.860   9.334  10.503
71875W        W31620   3.789  18.213  13.911
71876W        W31621  28.160  22.107   0.734
71877W        W31622  29.982  36.573  13.530
71878W        W31623  24.993  10.789   2.356
71879W        W31624  44.941  22.742   2.748
71880W        W31625  33.385  32.434  12.886
71881W        W31626  22.078   0.314   1.271
71882W        W31627  13.226   9.153   2.372
71883W        W31628  27.520  26.111   1.413
71884W        W31629   8.232  44.365  10.996
71885W        W31630   9.677  36.010   0.758
71886W        W31631  18.232  27.452  11.389
71887W        W31632  19.185  25.536  10.498
71888W        W31633   2.431  36.850  13.946
71889W        W31634  20.612   6.281  10.421
71890W        W31635  30.056   3.227  11.920
71891W        W31636   1.830  11.234  10.569
71892W        W31637   1.407  39.522   1.306
71893W        W31638  18.072   2.786   2.231
71894W        W31639  25.038  29.057   3.734
71895W        W31640  17.092  19.162  14.309
71896W        W31641  32.445  23.705   2.262
71897W        W31642   3.343  25.078   9.935
71898W        W31643  37.517  17.303   1.817
71899W        W31644  41.343  12.835   4.797
71900W        W31645  18.696   0.880   0.794
71901W        W31646  24.203   8.211  14.481
71902W        W31647  37.971  30.057  14.817
71903W        W31648  30.550  43.863  14.982
71904W        W31649  29.929  23.564  12.049
71905W        W31650  35.953  43.470   1.341
71906W        W31651  37.346  37.970  12.922
71907W        W31652  27.049  41.845  12.372
71908W        W31653  26.150  26.651   0.325
71909W        W31654  34.870   8.381   0.393
71910W        W31655  20.682  35.855  14.291
71911W        W31656  42.818  14.218   1.920
71912W        W31657  30.510  28.103   3.812
71913W        W31658  41.032  30.038  10.545
71914W        W31659  34.889  39.042  11.105
71915W        W31660  35.949  43.383  13.489
71916W        W31661   0.471  13.141  14.462
71917W        W31662  26.202  39.395  11.462
71918W        W31663  10.677  22.731   2.849
71919W        W31664  34.904  41.902  11.607
71920W        W31665  22.083  18.588  12.088
71921W        W31666  23.592  15.633   4.627
71922W        W31667  41.471  34.957   3.238
71923W        W31668   1.349  23.701  11.050
71924W        W31669  27.613  35.448   0.793
71925W        W31670  42.928   6.743  11.465
71926W        W31671  43.404  32.605  14.958
71927W        W31672  31.084  25.995  14.443
71928W        W31673  29.652  32.456  14.939
71929W        W31674  12.640  21.102   3.197
71930W        W31675   4.274   7.324   3.328
71931W        W31676  40.422  17.282  13.002
71932W        W31677   8.810  35.441  14.795
71933W        W31678  29.986  35.494   1.352
71934W        W31679  20.557  11.636   0.778
71935W        W31680   6.296  35.511   0.470
71936W        W31681  30.907  18.618  13.821
71937W        W31682  17.573  44.458  13.858
71938W        W31683   3.345  35.532   2.218
71939W        W31684  12.829   2.433   0.885
71940W        W31685  11.655  27.594   1.337
71941W        W31686  26.153  25.606  12.838
71942W        W31687  39.381  28.970  13.026
71943W        W31688  18.706  25.149  11.380
71944W        W31689  24.505  43.950  12.447
71945W        W31690  25.679  12.754  11.117
71946W        W31691   2.799  10.683  13.537
71947W        W31692  30.114  17.656   0.357
71948W        W31693  11.848  34.443  10.499
71949W        W31694  25.168  38.527   3.313
71950W        W31695   0.840  36.356  14.003
71951W        W31696   5.917  20.579  14.794
71952W        W31697   4.292   2.363   4.222
71953W        W31698  25.563  16.580   0.280
71954W        W31699  34.988  18.568   4.113
71955W        W31700  31.036  30.944  11.473
71956W        W31701  26.642  16.171  11.992
71957W        W31702  35.405  19.067   3.729
71958W        W31703  21.553  39.970   4.259
71959W        W31704  15.776  39.365  11.571
71960W        W31705  19.621   6.889   4.287
71961W        W31706  19.665  33.892   2.407
71962W        W31707  30.571  27.988   5.653
71963W        W31708  33.072  20.624   1.360
71964W        W31709  35.430   2.791   3.703
71965W        W31710   5.841  37.934  14.331
71966W        W31711  20.539  33.886   0.464
71967W        W31712   1.276  11.251   1.696
71968W        W31713   2.439   8.733   5.222
71969W        W31714   7.773  11.299  14.337
71970W        W31715  17.735  14.259   2.367
71971W        W31716  15.266  28.953  11.036
71972W        W31717   2.829   1.305  11.420
71973W        W31718  37.337   9.195  13.463
71974W        W31719  42.425  16.207   3.837
71975W        W31720  31.117  34.488   0.825
71976W        W31721  27.197  14.254  11.902
71977W        W31722  29.075   9.707  11.543
71978W        W31723  40.932  32.593  11.520
71979W        W31724  34.590  22.222  13.428
71980W        W31725  39.992   0.783  13.840
71981W        W31726  30.420  18.742   4.223
71982W        W31727  25.188   3.744  10.490
71983W        W31728  13.738  26.120   1.786
71984W        W31729  10.242   7.359  10.900
71985W        W31730  21.155   7.764   4.244
71986W        W31731  43.355  29.167   3.297
71987W        W31732  35.419  43.509  12.021
71988W        W31733  10.712  13.311  14.856
71989W        W31734  44.286  27.466   3.315
71990W        W31735  14.174   5.925  11.892
71991W        W31736   1.847  32.925   0.853
71992W        W31737  32.068  20.535   1.388
71993W        W31738   6.849   2.263   2.884
71994W        W31739   0.321  41.997  14.825
71995W        W31740   9.805  12.154  10.992
71996W        W31741  43.857  12.817  11.887
71997W        W31742   5.375  16.578  10.058
71998W        W31743   5.279  22.096   4.119
71999W        W31744  23.113  41.796   1.896
72000W        W31745   4.827  40.007   0.846
72001W        W31746  20.030   2.297  11.573
72002W        W31747  22.713  10.139  12.030
72003W        W31748   9.852  43.881  11.983
72004W        W31749  32.047  18.218  13.355
72005W        W31750  21.558  28.031  12.532
72006W        W31751  26.633   8.654   3.180
72007W        W31752   5.820   1.771  14.006
72008W        W31753   3.319  30.531  11.448
72009W        W31754  16.201  27.008  13.483
72010W        W31755  39.937  14.821  10.414
72011W        W31756   4.931  25.988  11.105
72012W        W31757   0.986  11.704   2.881
72013W        W31758  10.144  18.267  13.931
72014W        W31759   8.317   9.804   1.332
72015W        W31760  10.732   6.308  10.086
72016W        W31761  44.893  35.879   2.362
72017W        W31762  18.691  21.601   0.319
72018W        W31763  12.203   9.886   1.313
72019W        W31764  30.916   1.880  11.009
72020W        W31765  27.132   0.386   0.881
72021W        W31766   5.407  30.627  10.568
72022W        W31767  43.374  28.620   3.794
72023W        W31768   1.261   2.247  13.877
72024W        W31769   2.826  23.020   1.216
72025W        W31770  32.408   5.806  12.019
72026W        W31771   7.384  27.653  13.380
72027W        W31772  40.467   9.360   4.350
72028W        W31773  42.317  36.071   3.183
72029W        W31774  10.287  39.931  11.992
72030W        W31775  11.633  26.164   3.816
72031W        W31776  34.457  20.599  12.848
72032W        W31777  21.043   7.797   4.741
72033W        W31778  39.972  18.614   4.314
72034W        W31779   6.307   6.703  11.375
72035W        W31780  34.084  42.312   3.834
72036W        W31781  41.468   6.289   3.778
72037W        W31782  32.519   7.767   4.169
72038W        W31783  10.354  12.159  12.902
72039W        W31784  36.588  32.614   4.659
72040W        W31785  12.147   7.251  10.465
72041W        W31786  13.149   8.799   2.807
72042W        W31787   4.775  29.030   0.859
72043W        W31788  33.563  42.292  14.364
72044W        W31789  24.159  34.894   4.745
72045W        W31790  30.964  27.655   2.219
72046W        W31791  24.065  21.666  10.592
72047W        W31792  21.221  24.568  12.569
72048W        W31793  42.404  12.332  13.021
72049W        W31794  44.350  16.137  10.640
72050W        W31795  25.195   0.895  14.775
72051W        W31796  19.594  30.564  10.106
72052W        W31797   9.377   2.933   1.255
72053W        W31798  17.119  20.668   2.201
72054W        W31799  20.143  31.079   4.603
72055W        W31800  38.505  26.157   4.678
72056W        W31801  36.940  13.774   4.154
72057W        W31802  23.693  13.716   0.249
72058W        W31803  11.170  32.897   2.683
72059W        W31804  33.598  28.467  12.884
72060W        W31805  30.529  17.644  11.541
72061W        W31806  26.990  44.874  10.572
72062W        W31807   6.350   0.888  14.969
72063W        W31808  16.160  10.273   0.731
72064W        W31809  27.648   4.400   5.770
72065W        W31810  27.606   5.813   3.829
72066W        W31811   2.940  15.660  12.938
72067W        W31812  37.009  21.067   3.769
72068W        W31813   2.466   1.914  13.536
72069W        W31814   0.806  19.092  13.948
72070W        W31815  12.125  26.055  13.544
72071W        W31816  35.059   0.754  12.004
72072W        W31817  31.540  14.757  13.460
72073W        W31818  30.078  29.023   0.247
72074W        W31819  35.917  35.568  10.983
72075W        W31820  15.732   3.895   1.855
72076W        W31821  35.993  19.249  14.930
72077W        W31822  31.404  12.128   1.922
72078W        W31823  36.582  38.462  11.932
72079W        W31824  29.429   2.792  12.404
72080W        W31825  29.565  19.041   2.731
72081W        W31826   3.900  35.019  13.839
72082W        W31827  44.800  28.510   3.326
72083W        W31828  18.262  43.851  10.454
72084W        W31829   5.808  16.279   3.385
72085W        W31830  25.519  26.136   3.218
72086W        W31831  12.628  17.163   2.380
72087W        W31832   8.790  18.658   2.366
72088W        W31833  20.553   9.774  12.524
72089W        W31834  13.313  10.665  13.361
72090W        W31835  15.603  40.940   3.338
72091W        W31836  11.693  21.101  11.460
72092W        W31837  43.279  42.989  14.504
72093W        W31838  28.457   6.398   2.178
72094W        W31839  17.092  32.535   3.838
72095W        W31840  10.818  38.884  12.019
72096W        W31841  42.909  28.978   1.829
72097W        W31842  41.498  26.681   1.383
72098W        W31843  20.077  15.112  13.904
72099W        W31844  21.131  37.832  11.593
72100W        W31845  42.976  36.348  12.424
72101W        W31846  26.118  19.096  11.027
72102W        W31847  38.422  31.591   1.321
72103W        W31848  12.618  35.005   0.430
72104W        W31849  19.587  13.750  14.906
72105W        W31850  19.244  43.000  11.879
72106W        W31851  32.543  31.522  11.979
72107W        W31852  37.888   1.353   4.735
72108W        W31853  43.841  20.536   3.638
72109W        W31854  38.549  16.633   3.743
72110W        W31855  21.249  20.101   2.676
72111W        W31856  24.973  25.572   4.733
72112W        W31857  16.617  24.626   3.320
72113W        W31858  40.048   6.855   3.693
72114W        W31859  28.611  33.043  12.961
72115W        W31860  36.842  17.220   1.398
72116W        W31861   0.346   3.723   4.294
72117W        W31862  39.557   5.342  13.858
72118W        W31863   0.774  34.938  14.892
72119W        W31864  13.293  40.444  12.560
72120W        W31865  12.837  10.646  10.613
72121W        W31866  33.386  43.272  14.504
72122W        W31867  37.883  24.608   0.276
72123W        W31868  12.308  32.040   0.852
72124W        W31869   1.335  14.278   3.342
72125W        W31870  13.257  41.793   1.394
72126W        W31871  27.489   9.795  13.510
72127W        W31872  19.211  23.631   3.311
72128W        W31873  27.973  20.577   2.690
72129W        W31874  41.418  42.029  11.412
72130W        W31875  35.401  31.969   3.819
72131W        W31876   3.278  11.857   0.432
72132W        W31877  22.629   1.428   2.311
72133W        W31878  41.423  12.204   1.232
72134W        W31879  16.204   6.392  12.005
72135W        W31880  39.974  37.508  12.993
72136W        W31881  10.179  32.452  11.077
72137W        W31882  39.417  39.416   2.300
72138W        W31883  14.830  26.007   3.360
72139W        W31884  27.576   1.768  10.484
72140W        W31885  34.919  31.506  11.875
72141W        W31886  35.567  36.903   1.894
72142W        W31887  44.418  15.143   3.762
72143W        W31888  28.546  19.658  14.447
72144W        W31889  29.484  11.679  11.983
72145W        W31890   4.362  39.388   0.259
72146W        W31891   8.837  10.780   1.808
72147W        W31892   0.749  30.986  13.402
72148W        W31893   8.294  31.422   1.777
72149W        W31894  37.976   1.916   2.801
72150W        W31895  20.589  13.667  12.361
72151W        W31896  41.019  40.938   2.771
72152W        W31897  28.672   6.286   5.155
72153W        W31898  11.319  12.726  12.499
72154W        W31899  24.041   2.840   3.234
72155W        W31900   9.169  23.004  10.613
72156W        W31901   7.278  10.296   9.986
72157W        W31902  17.666  37.843   3.364
72158W        W31903   4.756  22.716  11.107
72159W        W31904  34.083  38.504   1.721
72160W        W31905  18.703  18.147  13.534
72161W        W31906  31.994  11.853  14.922
72162W        W31907  20.109  20.690   1.382
72163W        W31908  36.039   8.181  12.991
72164W        W31909  13.144  37.015  13.876
72165W        W31910   6.362  22.659   3.726
72166W        W31911  21.584  32.900  13.534
72167W        W31912  19.600  34.009   0.763
72168W        W31913   3.915  39.502   0.331
72169W        W31914  40.980  24.512   3.723
72170W        W31915  34.409   3.924  13.939
72171W        W31916  32.010  44.442   3.660
72172W        W31917  35.881  19.268   4.168
72173W        W31918  19.156   8.342  14.346
72174W        W31919  10.814  30.625  11.597
72175W        W31920  16.579  19.676  12.031
72176W        W31921  34.023   5.851   9.923
72177W        W31922  23.060  29.128  11.855
72178W        W31923  25.658  42.791  13.373
72179W        W31924  15.757   4.849  12.955
72180W        W31925  16.212  27.038   4.725
72181W        W31926  40.987  12.123  11.965
72182W        W31927  25.031  24.143   0.752
72183W        W31928  12.722   4.245  12.382
72184W        W31929  38.419  26.701   2.249
72185W        W31930   6.720   3.916  13.372
72186W        W31931  26.003  33.907   2.271
72187W        W31932  26.198  15.734  11.105
72188W        W31933   7.335  16.597   1.922
72189W        W31934  26.029   4.435  13.836
72190W        W31935  26.606   9.181   0.861
72191W        W31936  33.002  29.060   0.415
72192W        W31937  13.248  20.121   2.409
72193W        W31938  38.033  34.370   1.257
72194W        W31939  40.862  35.369  11.038
72195W        W31940  43.813  16.124  12.855
72196W        W31941  30.982  38.502  12.474
72197W        W31942   7.319  29.524   2.844
72198W        W31943  13.684  27.172  11.033
72199W        W31944   0.742  16.807  14.951
72200W        W31945  15.269   1.364   2.825
72201W        W31946  14.820   7.406   1.378
72202W        W31947  11.787  19.622  10.581
72203W        W31948  10.748  30.926  14.300
72204W        W31949  37.577  16.243   2.774
72205W        W31950  27.499  18.100   2.874
72206W        W31951  14.185  33.961  12.846
72207W        W31952  16.739  11.319  14.851
72208W        W31953  24.670  33.905   4.785
72209W        W31954  14.624  44.871   1.799
72210W        W31955  19.222  25.639  11.422
72211W        W31956  30.108  15.293  13.962
72212W        W31957  24.172  23.006   4.291
72213W        W31958  12.254  28.066   3.862
72214W        W31959   2.285   2.449  11.879
72215W        W31960  14.806  28.021  10.620
72216W        W31961  38.937  22.111   2.695
72217W        W31962   0.438  11.672  13.896
72218W        W31963  22.144  34.464   3.764
72219W        W31964  16.801  14.826  12.837
72220W        W31965   1.467  24.687   4.737
72221W        W31966  28.148  23.617  14.958
72222W        W31967  44.936   0.440  14.321
72223W        W31968  22.127  12.176  12.891
72224W        W31969  14.764   5.341   3.225
72225W        W31970   9.643  13.303   0.258
72226W        W31971  32.108   0.493  13.402
72227W        W31972  33.508  23.626   1.724
72228W        W31973  37.493  37.918  10.641
72229W        W31974  42.369  24.614   4.230
72230W        W31975  25.664  37.534  12.426
72231W        W31976  23.695  10.290   4.146
72232W        W31977  27.124  14.747  13.521
72233W        W31978  29.667  32.606  14.469
72234W        W31979  23.712  33.495   3.210
72235W        W31980  42.516  34.889   4.198
72236W        W31981  40.982  22.511   2.694
72237W        W31982  26.483  25.687   1.799
72238W        W31983  27.988  43.010   2.674
72239W        W31984   0.311   4.371  12.072
72240W        W31985  14.211   6.278  11.414
72241W        W31986  43.483  41.421   4.750
72242W        W31987  37.850  42.782   4.671
72243W        W31988  30.461  32.905   1.361
72244W        W31989  11.237  40.015   1.314
72245W        W31990  37.004   8.754  14.794
72246W        W31991  15.819  29.643  11.448
72247W        W31992   8.276  34.386  12.390
72248W        W31993  44.393  31.419   3.188
72249W        W31994  16.584  10.694   3.282
72250W        W31995  30.914  36.034   5.287
72251W        W31996  13.253  20.237   4.297
72252W        W31997   4.385  11.858  14.878
72253W        W31998  23.020  41.926  13.052
72254W        W31999   0.867  42.834  11.120
72255W        W32000  41.869  25.146  12.572
72256W        W32001  44.855  28.666  12.064
72257W        W32002  15.104  43.276  14.362
72258W        W32003  18.065  44.838   3.188
72259W        W32004  33.486   5.309  13.991
72260W        W32005   1.451  21.549   1.819
72261W        W32006  22.621  28.971   3.795
72262W        W32007  33.021  37.036  13.503
72263W        W32008  22.693  35.943   2.704
72264W        W32009  27.593  40.892   2.217
72265W        W32010   2.745   4.407  14.888
72266W        W32011  34.921  24.481   4.709
72267W        W32012  33.542  24.638  12.349
72268W        W32013  21.123  44.814  11.991
72269W        W32014   8.800  36.445  14.330
72270W        W32015   3.295  16.610   0.433
72271W        W32016  43.012  20.560  12.361
72272W        W32017  42.836  32.605   3.839
72273W        W32018  34.459  25.521  14.792
72274W        W32019  12.614   2.816  12.909
72275W        W32020  27.190   7.319  12.064
72276W        W32021  17.739  36.042  12.065
72277W        W32022   8.664   0.415  12.469
72278W        W32023  17.067  37.937   4.837
72279W        W32024  39.994  43.392   2.883
72280W        W32025  42.841  31.029  11.053
72281W        W32026  27.525  20.566  14.976
72282W        W32027  36.466  29.617  13.400
72283W        W32028  20.758   0.776  13.798
72284W        W32029  18.218   4.350  12.014
72285W        W32030  43.476   0.986   9.953
72286W        W32031  20.055  42.907   3.655
72287W        W32032  41.019  16.621  10.626
72288W        W32033   5.910  19.645   1.776
72289W        W32034  22.614  30.494   2.713
72290W        W32035  28.067  41.478  10.063
72291W        W32036  38.047  13.704   1.419
72292W        W32037  42.976   9.161  12.363
72293W        W32038   6.318  31.542  14.019
72294W        W32039  39.495  11.372  12.993
72295W        W32040   3.273   2.349  10.996
72296W        W32041  41.506  16.100   1.385
72297W        W32042  38.061   6.762  11.530
72298W        W32043   8.801  32.399   3.313
72299W        W32044  27.077  25.034   1.782
72300W        W32045  17.307  43.022   3.360
72301W        W32046   3.276   5.388   4.756
72302W        W32047  30.025  17.692  11.006
72303W        W32048   0.403  33.554  13.017
72304W        W32049  27.495  37.356   4.779
72305W        W32050  34.470  41.999   1.368
72306W        W32051   6.767  29.544   4.177
72307W        W32052  23.659  23.540  14.813
72308W        W32053  40.888  36.347   0.739
72309W        W32054   1.772  31.111   0.859
72310W        W32055  20.097   7.869   1.744
72311W        W32056  28.162  24.067   1.450
72312W        W32057  13.841  41.798   2.222
72313W        W32058  32.000  22.629  11.381
72314W        W32059  22.126  16.112   1.434
72315W        W32060  23.570  15.207   4.657
72316W        W32061   1.283  23.704  10.555
72317W        W32062  32.631  17.183   0.832
72318W        W32063  18.673  26.611  13.498
72319W        W32064   5.340   2.908  12.090
72320W        W32065  13.677  10.160  11.612
72321W        W32066  21.714  27.683  12.364
72322W        W32067  29.070  31.938  14.487
72323W        W32068  16.261  27.575   2.832
72324W        W32069  24.095  20.648  14.975
72325W        W32070  43.395  13.836  14.982
72326W        W32071  14.299  31.421   3.224
72327W        W32072   0.469   3.887   1.388
72328W        W32073  10.743  19.772   1.263
72329W        W32074  42.840   8.255   0.282
72330W        W32075  16.698  11.372   3.835
72331W        W32076  24.713  18.690  10.594
72332W        W32077  26.041  21.747   0.887
72333W        W32078  12.194  35.931   1.694
72334W        W32079   1.369  18.682   2.368
72335W        W32080   1.424  27.171  14.785
72336W        W32081  29.451   7.859   1.916
72337W        W32082  17.620  24.628   3.339
72338W        W32083  26.508   0.287   1.244
72339W        W32084  27.067  26.178   0.316
72340W        W32085  27.563  10.339  12.988
72341W        W32086   6.285   9.758   3.281
72342W        W32087  26.052  41.818  14.382
72343W        W32088  29.046  42.490   4.818
72344W        W32089  20.539  20.160  12.065
72345W        W32090  20.594  32.092   3.306
72346W        W32091  12.692  36.888  12.444
72347W        W32092  21.727   3.751   4.187
72348W        W32093  14.247  34.502   1.248
72349W        W32094  34.566  36.952  13.937
72350W        W32095  32.443  42.809  10.492
72351W        W32096  31.454  25.695   1.229
72352W        W32097  36.348  28.445  12.553
72353W        W32098  40.339  41.832   2.406
72354W        W32099  16.247  40.001  14.807
72355W        W32100   2.754  40.385  13.494
72356W        W32101  35.908  13.731  12.565
72357W        W32102  11.748  17.770  14.900
72358W        W32103  37.409  10.695   0.376
72359W        W32104   0.761  39.986   4.727
72360W        W32105  26.128  14.253   1.914
72361W        W32106   4.716  44.325   0.305
72362W        W32107  41.872   6.301  10.569
72363W        W32108   2.947  31.615   0.397
72364W        W32109  41.857  40.914   4.606
72365W        W32110  19.686  23.127  14.947
72366W        W32111   7.292   3.248  12.516
72367W        W32112  20.638  27.023   0.807
72368W        W32113  10.822  16.154  11.088
72369W        W32114  21.101  31.902   0.290
72370W        W32115  10.204   5.917  12.565
72371W        W32116  33.128  39.335   4.206
72372W        W32117  13.268  41.024  11.439
72373W        W32118  28.156   0.470  14.826
72374W        W32119  33.967  33.549   3.249
72375W        W32120  15.817  11.841   2.371
72376W        W32121  44.838  35.052   0.807
72377W        W32122   2.463  24.005   1.882
72378W        W32123  33.426  18.193  13.519
72379W        W32124  18.258  14.254   4.675
72380W        W32125  10.744  37.051  14.454
72381W        W32126  11.647  42.315  12.915
72382W        W32127  33.902  25.055   1.437
72383W        W32128  23.093   6.837   2.766
72384W        W32129  43.315  31.568  11.915
72385W        W32130  40.040   8.396  10.538
72386W        W32131   7.343  39.915  12.964
72387W        W32132  34.907  31.510   4.748
72388W        W32133  35.965  13.175  13.934
72389W        W32134  44.382  16.741  14.338
72390W        W32135  41.812   9.681   0.798
72391W        W32136  22.220   9.255  13.381
72392W        W32137  42.982  39.523   3.758
72393W        W32138  24.128   3.232  12.937
72394W        W32139  37.939  28.487   1.800
72395W        W32140   1.363   6.814   2.772
72396W        W32141   5.377  30.549   3.795
72397W        W32142  21.119  16.647   1.395
72398W        W32143  39.023  42.328  11.387
72399W        W32144  26.014  23.714  13.804
72400W        W32145  10.323  35.030  14.922
72401W        W32146  11.261   3.272   2.403
72402W        W32147  29.642  41.963   0.804
72403W        W32148  44.468  33.940  13.831
72404W        W32149  21.537  22.251   0.466
72405W        W32150   8.755  34.438   2.892
72406W        W32151  26.652  17.224   5.309
72407W        W32152  43.496  26.094   4.317
72408W        W32153  14.799  16.809  11.129
72409W        W32154  30.628  35.887  12.416
72410W        W32155  16.098  25.211  13.389
72411W        W32156  21.130  28.467  14.477
72412W        W32157  30.557   2.963   1.358
72413W        W32158  13.342  27.065  12.553
72414W        W32159  19.182   8.698  14.291
72415W        W32160  26.015  20.161  11.014
72416W        W32161  38.822  16.725   3.732
72417W        W32162  17.702   4.863   0.882
72418W        W32163   7.300  16.636   3.765
72419W        W32164   6.424   8.327  11.487
72420W        W32165  25.107   0.909  11.919
72421W        W32166  40.986  18.661   2.373
72422W        W32167   5.884  11.706  12.551
72423W        W32168  37.004  22.078   4.837
72424W        W32169  42.490   5.270   0.411
72425W        W32170  35.042  44.493   3.148
72426W        W32171  17.070  15.202  10.469
72427W        W32172   6.828  40.799   0.475
72428W        W32173  44.264   9.214   0.734
72429W        W32174   7.902  24.525  14.809
72430W        W32175  32.907  30.933  10.524
72431W        W32176  24.578   7.770  11.108
72432W        W32177   8.805  26.579   3.795
72433W        W32178  44.275   3.341  12.449
72434W        W32179  33.456   6.224   4.677
72435W        W32180  14.333   2.740   0.938
72436W        W32181  29.531  25.542   4.285
72437W        W32182  22.664   5.817   9.920
72438W        W32183   9.725  28.635  14.776
72439W        W32184   5.721  34.878  13.050
72440W        W32185  33.897  14.233   0.873
72441W        W32186   3.822  28.994   0.307
72442W        W32187  11.673  13.806  12.519
72443W        W32188   0.338  18.576   2.780
72444W        W32189  31.482  11.660  11.074
72445W        W32190  37.497   2.441  13.929
72446W        W32191  34.108  13.207   3.158
72447W        W32192   7.883  34.415  14.809
72448W        W32193  33.499  30.045   3.839
72449W        W32194  23.085  18.620  14.280
72450W        W32195  16.806  14.197   0.953
72451W        W32196  37.361  29.613   3.338
72452W        W32197  17.697  12.833   0.823
72453W        W32198  42.775  15.176  13.386
72454W        W32199  28.456   0.380  11.458
72455W        W32200  40.444   6.255  14.321
72456W        W32201   6.689  14.811   0.962
72457W        W32202   5.764  22.031   2.781
72458W        W32203  21.719  29.089  12.824
72459W        W32204   1.963   4.398   4.347
72460W        W32205  27.024  13.629   2.780
72461W        W32206   1.825  25.526  11.438
72462W        W32207   1.872  22.617  10.434
72463W        W32208  35.541  26.626  10.426
72464W        W32209  29.133   9.285   0.277
72465W        W32210  33.405   2.955  10.069
72466W        W32211  19.651  29.594   5.308
72467W        W32212   9.293   7.297   4.347
72468W        W32213   7.880  10.368  10.104
72469W        W32214  41.299  27.511  14.976
72470W        W32215  15.735  19.579  12.415
72471W        W32216  36.534   0.753   2.856
72472W        W32217  26.500  17.800  13.468
72473W        W32218  23.566  36.413   2.359
72474W        W32219  25.485  14.328   1.695
72475W        W32220  28.978  35.895   3.648
72476W        W32221   0.774  35.867  12.903
72477W        W32222   6.822  40.043   1.403
72478W        W32223  10.334  11.138   4.315
72479W        W32224  14.103  29.508   4.196
72480W        W32225  12.641  24.162   4.177
72481W        W32226  44.457  19.739   1.764
72482W        W32227  28.633  30.501  13.541
72483W        W32228   8.264  36.946   1.848
72484W        W32229  22.061  32.585  14.411
72485W        W32230  16.134  29.932   0.831
72486W        W32231  30.955  43.021   2.378
72487W        W32232  23.530  18.167  13.847
72488W        W32233  14.618   4.395  10.931
72489W        W32234   1.937   5.737   1.708
72490W        W32235  13.733  27.602   2.223
72491W        W32236  44.398   2.346  10.593
72492W        W32237  20.635   2.423  14.500
72493W        W32238   0.486  19.214  13.869
72494W        W32239  41.820  32.451   4.633
72495W        W32240  39.548  32.455  12.505
72496W        W32241  34.538  32.453  14.502
72497W        W32242  26.985   2.320   0.411
72498W        W32243  15.644   7.841  10.634
72499W        W32244  19.587   3.437  11.918
72500W        W32245  34.981  34.913   2.270
72501W        W32246  32.397  33.028   4.690
72502W        W32247   5.350   3.422   3.324
72503W        W32248  43.337  40.836   1.327
72504W        W32249  24.127   3.388  13.452
72505W        W32250  14.754  32.027   1.360
72506W        W32251   4.798  41.994   0.949
72507W        W32252   8.403  32.565   1.903
72508W        W32253  38.557  28.589   1.210
72509W        W32254   1.964  25.686   4.242
72510W        W32255   2.234   4.408  11.016
72511W        W32256   2.293   5.777   2.346
72512W        W32257  23.557  27.957   4.333
72513W        W32258  13.835   8.243  13.812
72514W        W32259   5.426  17.748  12.016
72515W        W32260   7.194  43.865  14.840
72516W        W32261  13.134  15.125   1.761
72517W        W32262   2.359  24.585   2.866
72518W        W32263  14.636  29.009  12.544
72519W        W32264  33.625   9.824  11.531
72520W        W32265  17.636  20.098   3.247
72521W        W32266  31.944   9.674  11.421
72522W        W32267  42.472   9.270  13.428
72523W        W32268  14.809  13.222  11.477
72524W        W32269  31.008  34.120  13.996
72525W        W32270  30.969   3.751  11.892
72526W        W32271  38.350  18.210   0.944
72527W        W32272  34.035  26.592  13.392
72528W        W32273  14.322  15.106   4.326
72529W        W32274  21.718  30.416  10.024
72530W        W32275  40.492  12.275   0.470
72531W        W32276  10.282  34.581   2.333
72532W        W32277  38.876  39.437   5.189
72533W        W32278  26.587   6.746  14.327
72534W        W32279  25.482   4.252   2.812
72535W        W32280  13.176  19.070   0.253
72536W        W32281  33.963  17.083   3.311
72537W        W32282  42.286  10.259   4.277
72538W        W32283  14.280  12.138  12.005
72539W        W32284  30.466  18.293  11.394
72540W        W32285  30.473  38.561   4.354
72541W        W32286  24.606   3.739   1.303
72542W        W32287  28.140   2.285   3.715
72543W        W32288  26.588   3.259  14.872
72544W        W32289  25.029  13.755   1.264
72545W        W32290  31.475  31.088  14.971
72546W        W32291  24.124  39.890   3.372
72547W        W32292   1.891  39.850  13.008
72548W        W32293  42.328  38.878   2.826
72549W        W32294  32.072  44.844   4.707
72550W        W32295  11.695  24.068   3.227
72551W        W32296  26.094  13.273  14.987
72552W        W32297  19.229  14.282  12.561
72553W        W32298  37.554  42.878  14.325
72554W        W32299  21.734   5.303  11.581
72555W        W32300  12.345  17.792  13.025
72556W        W32301   2.352  44.405  12.351
72557W        W32302   7.679  30.140   3.748
72558W        W32303  39.496  18.074  11.005
72559W        W32304  15.186  14.210  13.955
72560W        W32305   7.680  14.694  10.544
72561W        W32306  23.117  17.648  12.525
72562W        W32307  32.123   0.903   1.874
72563W        W32308   8.735   9.728  13.349
72564W        W32309  18.192  43.866  14.472
72565W        W32310   5.323  43.446   3.697
72566W        W32311  29.613  26.972   1.709
72567W        W32312   4.896  24.489  14.990
72568W        W32313  35.494  10.224   0.803
72569W        W32314   9.797   4.386  11.419
72570W        W32315  14.744  39.064   4.784
72571W        W32316  43.276  44.446   0.834
72572W        W32317  26.674  43.323  14.768
72573W        W32318  24.154  11.771   4.808
72574W        W32319  30.551  14.644  11.023
72575W        W32320  43.812  37.467  13.008
72576W        W32321  23.090  23.510  14.913
72577W        W32322  36.589  38.840  14.314
72578W        W32323  42.311   6.253   1.792
72579W        W32324   4.748  40.322  13.053
72580W        W32325  24.042  12.269  14.284
72581W        W32326   0.797  23.693  10.539
72582W        W32327  25.681   5.356  13.809
72583W        W32328  44.456  25.962   1.776
72584W        W32329  27.487  39.557   4.329
72585W        W32330  12.767  44.987  11.052
72586W        W32331  17.092  29.564   2.260
72587W        W32332   2.291  29.144   4.289
72588W        W32333   9.665  43.934  12.544
72589W        W32334  15.704   2.846  12.527
72590W        W32335  44.784  10.850  12.420
72591W        W32336  35.552   4.357  13.395
72592W        W32337  16.695   9.702  13.965
72593W        W32338  23.674   5.895  13.024
72594W        W32339   5.321  20.627   1.820
72595W        W32340  13.717  33.884  13.061
72596W        W32341  13.116  31.113   0.773
72597W        W32342   8.897  44.428  14.896
72598W        W32343  15.145  29.122  13.889
72599W        W32344   4.288  38.902  14.444
72600W        W32345  10.361  15.736  14.916
72601W        W32346  31.550   6.748  11.513
72602W        W32347  40.469   5.331   2.282
72603W        W32348   1.918  28.659   1.378
72604W        W32349  31.590  32.410   4.261
72605W        W32350   3.344  34.392  13.925
72606W        W32351  23.176   3.418   4.636
72607W        W32352   8.254  24.496   3.759
72608W        W32353  32.540  18.778  14.345
72609W        W32354   6.839  41.911  14.904
72610W        W32355  44.905   9.714   0.894
72611W        W32356   1.821  20.100  12.962
72612W        W32357   1.249  30.430   3.354
72613W        W32358  13.833  30.138   0.446
72614W        W32359  11.763   9.373  12.061
72615W        W32360  34.899  37.941  11.581
72616W        W32361  11.176  37.476   2.733
72617W        W32362  19.578  21.713   4.209
72618W        W32363  23.544  12.639   2.823
72619W        W32364  30.452  15.650   3.666
72620W        W32365   7.705  36.887   3.824
72621W        W32366  34.542   7.869   3.857
72622W        W32367  15.141  34.580  13.839
72623W        W32368   3.842  41.847  12.529
72624W        W32369  17.150  22.252  11.427
72625W        W32370   0.764  27.614   0.359
72626W        W32371   0.854  43.016  12.366
72627W        W32372   2.308  35.447   0.259
72628W        W32373  44.313  42.383  12.911
72629W        W32374  29.081  29.958   2.666
72630W        W32375  39.367  12.127   2.256
72631W        W32376  21.611   8.840  13.365
72632W        W32377   1.889  43.964  13.370
72633W        W32378  13.793  12.348  14.896
72634W        W32379  11.819   7.838  13.060
72635W        W32380  36.909  35.997   4.830
72636W        W32381   4.726  23.653  12.477
72637W        W32382  10.337  33.890  11.078
72638W        W32383  17.119   9.747  10.594
72639W        W32384   4.423  19.725   2.309
72640W        W32385  37.894  21.257  12.065
72641W        W32386  18.644   1.813   2.363
72642W        W32387  17.143  23.196  10.511
72643W        W32388  17.706  10.367   4.272
72644W        W32389  14.834  37.350  13.987
72645W        W32390   2.432   6.345  13.325
72646W        W32391   7.218   5.805   2.838
72647W        W32392   8.793  35.046  13.524
72648W        W32393  27.579   1.976  14.002
72649W        W32394  11.819  30.932  10.591
72650W        W32395   2.368  30.560   1.850
72651W        W32396  42.287  10.680  14.400
72652W        W32397  32.990  30.467   2.202
72653W        W32398  27.122  28.627   3.684
72654W        W32399  24.110  34.480  13.330
72655W        W32400  31.053  37.973  13.904
72656W        W32401  24.588  43.437   2.726
72657W        W32402  41.849  40.004  10.989
72658W        W32403  27.993   9.800   0.947
72659W        W32404   9.776  10.854  13.383
72660W        W32405  33.977   2.434   2.679
72661W        W32406   0.378  20.265  14.778
72662W        W32407  28.066  16.586  13.826
72663W        W32408  39.380  12.787  11.424
72664W        W32409  42.417  42.297  12.358
72665W        W32410  29.498  42.495  12.083
72666W        W32411   8.760  43.816  11.923
72667W        W32412   8.698  42.407   1.330
72668W        W32413  33.502   9.238  12.461
72669W        W32414  11.343  44.388  12.431
72670W        W32415  36.967   3.764  13.391
72671W        W32416  21.209  14.184  13.323
72672W        W32417  23.205  39.870  13.349
72673W        W32418   9.706  41.441   2.376
72674W        W32419  23.986  34.614  11.113
72675W        W32420   5.314  41.448   0.411
72676W        W32421  26.068  26.460   4.639
72677W        W32422  35.425  21.215  13.841
72678W        W32423  25.507   0.250   3.372
72679W        W32424  12.674   4.888  10.587
72680W        W32425  32.095  31.068   0.946
72681W        W32426  15.328  33.598  11.562
72682W        W32427  16.630   0.449  10.420
72683W        W32428  41.476   5.704   3.730
72684W        W32429  26.005  15.762   0.342
72685W        W32430  16.226  23.689   0.310
72686W        W32431   7.715  30.546   3.173
72687W        W32432  29.151  25.487   2.232
72688W        W32433  33.884  37.453   3.695
72689W        W32434  15.104  34.465   1.341
72690W        W32435  38.856  34.018   1.426
72691W        W32436  12.702  32.981   0.362
72692W        W32437  13.620  38.380  14.905
72693W        W32438   9.393  15.766   3.661
72694W        W32439  27.972  31.909   3.687
72695W        W32440  32.968   5.420   3.155
72696W        W32441  10.821  37.901   2.286
72697W        W32442   1.439  29.587   2.786
72698W        W32443  27.092   6.784   3.265
72699W        W32444  16.221  23.534   4.742
72700W        W32445  19.772   8.808  10.589
72701W        W32446   1.824  36.975   2.348
72702W        W32447  12.135  26.485   2.194
72703W        W32448  34.498  40.900   3.221
72704W        W32449   6.231  23.552  10.041
72705W        W32450   9.265  18.634  12.548
72706W        W32451   1.843  25.166   0.252
72707W        W32452  39.341  29.584   4.309
72708W        W32453  38.892   2.907  10.449
72709W        W32454  28.556  41.866  12.441
72710W        W32455  17.773  44.828   2.395
72711W        W32456  43.960  26.627  12.561
72712W        W32457   8.397   0.914   4.822
72713W        W32458  11.704  25.985  10.560
72714W        W32459  11.286  36.951   5.724
72715W        W32460   4.343  17.724  14.889
72716W        W32461   3.823   3.807   0.366
72717W        W32462  26.045  18.636  13.313
72718W        W32463  30.009  20.697  14.989
72719W        W32464  17.686  30.019   2.792
72720W        W32465   7.731  44.461   0.450
72721W        W32466  30.107  31.093   0.246
72722W        W32467  15.727  22.501  13.060
72723W        W32468  17.619  36.592   1.358
72724W        W32469  26.202  36.361   2.235
72725W        W32470  26.565  21.181   2.722
72726W        W32471   2.855  27.130  11.972
72727W        W32472  11.858  24.600  12.522
72728W        W32473  31.434  37.062   0.915
72729W        W32474  21.197  21.145  13.943
72730W        W32475  41.458  29.538   2.310
72731W        W32476  44.360  39.509   1.301
72732W        W32477  27.675   7.842   3.633
72733W        W32478  11.250  28.012  11.102
72734W        W32479  26.129  18.725   3.259
72735W        W32480  13.748  36.882  12.379
72736W        W32481  39.043  30.508   0.300
72737W        W32482  38.348  11.275  10.560
72738W        W32483  42.835  37.921  13.492
72739W        W32484  36.521  31.961   0.964
72740W        W32485  43.434   1.335  10.473
72741W        W32486   0.940  17.124  11.921
72742W        W32487   7.406   2.426   1.826
72743W        W32488  23.495  16.238  14.812
72744W        W32489   4.737  10.634   3.745
72745W        W32490  41.973   4.415  10.496
72746W        W32491  14.110  44.792  12.490
72747W        W32492   2.822  17.792  13.974
72748W        W32493   0.251  26.518   2.758
72749W        W32494  37.403  14.264   0.348
72750W        W32495  44.293  20.681   2.663
72751W        W32496   4.806  36.981   3.344
72752W        W32497  34.104  36.377  12.847
72753W        W32498  43.938  10.650  12.543
72754W        W32499   4.892   0.349   0.337
72755W        W32500  30.501  16.718  12.827
72756W        W32501  37.912  30.457   1.282
72757W        W32502  43.906  32.494  12.069
72758W        W32503  14.125  19.683  10.603
72759W        W32504  42.364  41.536  13.996
72760W        W32505   5.409  21.033  12.392
72761W        W32506  33.109  31.056  13.854
72762W        W32507  31.637  22.077   1.390
72763W        W32508   8.661  34.969   2.732
72764W        W32509  15.305  36.356  14.361
72765W        W32510  10.693  34.481   1.295
72766W        W32511   4.381  44.324  14.453
72767W        W32512  41.866  12.291  12.089
72768W        W32513  10.659  34.925  12.521
72769W        W32514  25.055  18.681  13.548
72770W        W32515   3.924  25.136   1.249
72771W        W32516  34.893  14.131   9.935
72772W        W32517  17.682  17.797   2.870
72773W        W32518  18.188  44.302   4.685
72774W        W32519   0.932  10.234  12.413
72775W        W32520  15.087  20.251   4.194
72776W        W32521  11.749  41.853  12.887
72777W        W32522   5.230   7.226  12.882
72778W        W32523   4.214  15.125   3.863
72779W        W32524   4.766  30.929  13.463
72780W        W32525   5.853  10.832   0.912
72781W        W32526  32.610  27.997   3.229
72782W        W32527  21.153  28.111  12.580
72783W        W32528  31.905  10.662  14.957
72784W        W32529  24.011  37.053  14.851
72785W        W32530  43.344  12.793  13.523
72786W        W32531  23.604  10.238  14.433
72787W        W32532  31.041  15.283   3.674
72788W        W32533  16.700   2.226   2.360
72789W        W32534  25.634  12.151  13.998
72790W        W32535   9.299  40.027  12.356
72791W        W32536  20.657  35.417   4.276
72792W        W32537  34.048  34.903  13.429
72793W        W32538  17.252  11.263  11.062
72794W        W32539  17.569  40.873  12.951
72795W        W32540  38.896  39.055   1.256
72796W        W32541   9.386  16.712  14.914
72797W        W32542  37.833  39.429   1.345
72798W        W32543  44.933  44.394  10.515
72799W        W32544   6.798  33.406  12.909
72800W        W32545  10.663  18.065  12.086
72801W        W32546  31.933  17.601   1.899
72802W        W32547  11.818   4.392   4.702
72803W        W32548  40.462  41.414  10.427
72804W        W32549  27.587  15.300  11.551
72805W        W32550   7.911  34.898  10.960
72806W        W32551  43.997  29.536  14.862
72807W        W32552  43.862  23.199   4.237
72808W        W32553  29.574   9.745  11.930
72809W        W32554  34.065   7.330   1.231
72810W        W32555  10.285   4.255   0.811
72811W        W32556  34.537  40.501  14.406
72812W        W32557  26.128  22.109   2.281
72813W        W32558   7.815   9.205  12.472
72814W        W32559   9.793   2.856  13.320
72815W        W32560   4.375  38.926  12.994
72816W        W32561  28.028  41.027   0.869
72817W        W32562  16.184  38.837   2.324
72818W        W32563   5.237  44.376   3.288
72819W        W32564  28.979  42.808  10.515
72820W        W32565  29.966  27.971  12.973
72821W        W32566  16.192  36.363  12.473
72822W        W32567  33.461  39.033  11.963
72823W        W32568  31.496   4.245  13.438
72824W        W32569  22.034  30.546   2.328
72825W        W32570  31.547  30.982  14.014
72826W        W32571   2.810  22.069   3.177
72827W        W32572  26.624  40.362  11.461
72828W        W32573  33.572   4.924   1.861
72829W        W32574  37.945  24.503   4.190
72830W        W32575  36.446  28.936   1.891
72831W        W32576  10.724   8.833  14.925
72832W        W32577  26.578  44.774  10.429
72833W        W32578  39.994  27.677   3.743
72834W        W32579  31.996  17.769  13.874
72835W        W32580  25.039  29.920   1.326
72836W        W32581  15.093  14.292  13.312
72837W        W32582  12.670  17.715  13.340
72838W        W32583  30.039   7.337  14.346
72839W        W32584  18.088  14.256  14.326
72840W        W32585  15.172  40.361   0.945
72841W        W32586  12.330  29.106   1.214
72842W        W32587  30.157  33.927  10.995
72843W        W32588  29.424  20.529   2.257
72844W        W32589  33.086  15.734   2.364
72845W        W32590   1.800  18.740  14.987
72846W        W32591  44.372  29.009  13.498
72847W        W32592  31.016   1.862   3.247
72848W        W32593  14.640   7.796   2.854
72849W        W32594  31.515  42.315  11.082
72850W        W32595  13.330  31.534   1.399
72851W        W32596  32.905   5.726   5.293
72852W        W32597  20.178   5.281  10.130
72853W        W32598   6.336  36.589  11.963
72854W        W32599  23.575  21.728   0.807
72855W        W32600  36.460  10.207   0.936
72856W        W32601  21.731   6.194   2.804
72857W        W32602  28.489  33.521   0.392
72858W        W32603  33.579   9.389  14.486
72859W        W32604  24.181   7.876  10.503
72860W        W32605   1.311   0.953  13.496
72861W        W32606  21.611  34.101   1.916
72862W        W32607  18.636  31.512   0.359
72863W        W32608   9.260   3.258  13.538
72864W        W32609  39.438   4.284   4.180
72865W        W32610  12.799  23.665  13.921
72866W        W32611  24.597  42.891   3.370
72867W        W32612   0.822  32.979  13.359
72868W        W32613  15.108  10.777  11.380
72869W        W32614  33.418  27.579  11.377
72870W        W32615  22.518  41.381   0.478
72871W        W32616  33.003  27.507  13.377
72872W        W32617  39.967  11.757   3.227
72873W        W32618   4.331  24.186  13.453
72874W        W32619  44.421  11.769   1.791
72875W        W32620  15.714  43.999   2.252
72876W        W32621  16.097  42.303   4.174
72877W        W32622  36.562   7.223  10.093
72878W        W32623  12.277   5.819  11.044
72879W        W32624   7.391  39.954  12.341
72880W        W32625   3.724  10.860   0.271
72881W        W32626  19.278  19.710   4.714
72882W        W32627  34.484  34.553  11.062
72883W        W32628  22.537  44.494  11.449
72884W        W32629  42.994  13.610  11.410
72885W        W32630  25.206   5.804   3.743
72886W        W32631  17.599  25.626   4.343
72887W        W32632  13.688  16.634   0.449
72888W        W32633  22.509  37.478   3.146
72889W        W32634  18.226  36.558  14.970
72890W        W32635  15.755  13.732   2.791
72891W        W32636  39.384  32.059  14.795
72892W        W32637  17.265  35.101  14.875
72893W        W32638  23.154  28.068  13.878
72894W        W32639  19.548  35.991  12.027
72895W        W32640  28.000  10.744  13.037
72896W        W32641   0.780  33.876  12.082
72897W        W32642  44.871   6.260  11.383
72898W        W32643  30.462  38.836   4.632
72899W        W32644  13.194  36.383   2.315
72900W        W32645   2.812  39.403   3.860
72901W        W32646  15.263   4.834   2.733
72902W        W32647  36.504  22.178  13.955
72903W        W32648  21.753  39.031   4.631
72904W        W32649  14.254  24.671  14.316
72905W        W32650  22.143  36.909   3.361
72906W        W32651  31.438   1.459   1.833
72907W        W32652   5.847  34.471   1.438
72908W        W32653  33.510   4.261   2.195
72909W        W32654   8.731   3.711   0.863
72910W        W32655  31.641  42.007  12.933
72911W        W32656  20.202   3.312   2.689
72912W        W32657  36.459  34.579   4.141
72913W        W32658  26.596  40.444   3.161
72914W        W32659   5.822  12.690  10.959
72915W        W32660  38.429  12.197  14.007
72916W        W32661   2.963  19.559   4.732
72917W        W32662  14.194  27.067   2.872
72918W        W32663   8.694  38.071  12.388
72919W        W32664   1.785  34.100   4.817
72920W        W32665   5.804  21.563   1.924
72921W        W32666  30.543  33.888  13.841
72922W        W32667  10.726  17.795   2.857
72923W        W32668  16.797  42.849  14.388
72924W        W32669  19.163  21.570   2.225
72925W        W32670  41.467  36.053  14.407
72926W        W32671  18.595  28.015  13.387
72927W        W32672   0.975  22.537  12.441
72928W        W32673  29.647  38.057   4.131
72929W        W32674  12.166  29.045  14.885
72930W        W32675  21.086  25.494   0.431
72931W        W32676  29.497  33.912  12.465
72932W        W32677   4.750  19.695   2.212
72933W        W32678  31.641  40.330  12.422
72934W        W32679  17.227  42.383  11.430
72935W        W32680   0.977  19.612  14.387
72936W        W32681  36.556  11.129  11.044
72937W        W32682   8.406  39.405   2.750
72938W        W32683  11.785   1.802  14.849
72939W        W32684  35.944  31.056   0.374
72940W        W32685  44.821  12.714   0.440
72941W        W32686   0.836  18.240  13.375
72942W        W32687   2.768  13.218  14.476
72943W        W32688  20.151  17.728   4.771
72944W        W32689  31.113  10.762   4.140
72945W        W32690   8.372   5.846   4.214
72946W        W32691  32.065   2.417  14.013
72947W        W32692  28.019  29.090  13.909
72948W        W32693  11.747  16.204   2.835
72949W        W32694  13.226  14.818  13.358
72950W        W32695  22.031  40.861   4.253
72951W        W32696  43.828  13.706  10.975
72952W        W32697  14.632   5.360   0.400
72953W        W32698   9.837  20.587   3.387
72954W        W32699  28.558  39.342  13.969
72955W        W32700  27.144  26.644  12.542
72956W        W32701  41.817  37.934  11.049
72957W        W32702  37.580  18.664  11.944
72958W        W32703  41.533  36.045   3.660
72959W        W32704  31.493  10.803  12.519
72960W        W32705  42.821  28.438  13.851
72961W        W32706  27.682   1.764   1.813
72962W        W32707  21.678  10.179  11.103
72963W        W32708   8.771  26.583   0.938
72964W        W32709   2.785   1.414   4.606
72965W        W32710  17.086  23.513   2.867
72966W        W32711   2.283  11.622   1.823
72967W        W32712   1.480  42.902  11.899
72968W        W32713  30.934  44.334  12.016
72969W        W32714  44.494  40.377  12.053
72970W        W32715  33.621  25.139   2.688
72971W        W32716  11.672  11.771  10.151
72972W        W32717  28.471  11.313   3.200
72973W        W32718   8.250  34.044   2.330
72974W        W32719  37.476  28.596  12.843
72975W        W32720   4.246   1.763   2.386
72976W        W32721  34.506  31.077   3.675
72977W        W32722  25.019  29.498   0.805
72978W        W32723   8.197  13.195   0.404
72979W        W32724  13.778  24.618   4.819
72980W        W32725  43.915   6.287   2.253
72981W        W32726  41.531   5.795   4.187
72982W        W32727  34.906   7.718  11.549
72983W        W32728  24.701   2.810  11.583
72984W        W32729  41.907   0.966   3.742
72985W        W32730   1.379  15.708   4.223
72986W        W32731  37.980  21.524   3.680
72987W        W32732  10.216   9.685   4.768
72988W        W32733  33.622  26.612  10.160
72989W        W32734   5.193  12.140  13.010
72990W        W32735   2.238  32.542   2.303
72991W        W32736  35.489  35.004   0.277
72992W        W32737  44.999  42.966   4.745
72993W        W32738  28.679  35.535  13.416
72994W        W32739  14.719   7.384   0.727
72995W        W32740  39.971  24.117   3.706
72996W        W32741   8.691  15.816  13.974
72997W        W32742  13.125   6.261   0.947
72998W        W32743  27.636  43.904   3.706
72999W        W32744  37.932  15.815   4.616
73000W        W32745  25.630  42.471   2.877
73001W        W32746  37.580  39.061   2.368
73002W        W32747   5.268  37.859   1.907
73003W        W32748  32.007   0.782  11.573
73004W        W32749  28.993  12.778   2.662
73005W        W32750   8.752  40.995  11.922
73006W        W32751   6.366   8.704  10.892
73007W        W32752  31.424  23.101  11.101
73008W        W32753  42.922  30.477   5.715
73009W        W32754  41.389   0.988   0.389
73010W        W32755   1.350   8.337  11.486
73011W        W32756  16.174  35.988   0.273
73012W        W32757  43.348   6.852  10.578
73013W        W32758  29.633  37.074  14.801
73014W        W32759   1.756   2.890  11.882
73015W        W32760   3.433  28.522  14.811
73016W        W32761  26.519  26.696  10.508
73017W        W32762  22.212  19.764  11.864
73018W        W32763  30.594  28.555   0.329
73019W        W32764  41.035  43.016  12.455
73020W        W32765  15.216  38.389   1.707
73021W        W32766  32.991   1.776  13.866
73022W        W32767  35.550  36.454  14.894
73023W        W32768   5.847  24.024  11.487
73024W        W32769  44.269  26.138  13.816
73025W        W32770  27.087   4.812   3.765
73026W        W32771   5.835  17.172  12.510
73027W        W32772  44.421  11.201   1.825
73028W        W32773  24.077  21.630  14.775
73029W        W32774  25.711  44.426  12.026
73030W        W32775  19.205  13.841   4.289
73031W        W32776  17.800  26.552  12.028
73032W        W32777  36.378  43.470   1.405
73033W        W32778  17.156  11.325   3.722
73034W        W32779   5.707  17.284  12.837
73035W        W32780  16.723  16.188   3.157
73036W        W32781  31.470   2.329   0.760
73037W        W32782  33.415  26.061  14.470
73038W        W32783  34.955  27.486  12.385
73039W        W32784  14.168  43.920  11.497
73040W        W32785  24.563  39.502   3.672
73041W        W32786  30.458  38.471  12.479
73042W        W32787  27.618  21.042  13.824
73043W        W32788  18.778   8.821   3.864
73044W        W32789  11.359  35.877   1.700
73045W        W32790   5.792  19.574   1.244
73046W        W32791  13.626  44.838  14.861
73047W        W32792  33.435  44.773  14.328
73048W        W32793  36.980  26.004   1.809
73049W        W32794  26.631  19.182  13.348
73050W        W32795  12.842  44.795   0.880
73051W        W32796  43.283  44.824   3.313
73052W        W32797  37.005   1.423   2.187
73053W        W32798  15.616  30.556   4.832
73054W        W32799  42.781  25.009  12.571
73055W        W32800  34.970  11.304  13.309
73056W        W32801  21.741  32.524   0.274
73057W        W32802  27.517  21.707   1.856
73058W        W32803  21.619  33.495  13.472
73059W        W32804  13.660   4.824   2.311
73060W        W32805  40.392   8.896  13.984
73061W        W32806  17.102  12.710  14.344
73062W        W32807  41.310  26.543   0.963
73063W        W32808   7.814  22.117  10.631
73064W        W32809  15.186   8.675   4.156
73065W        W32810  29.484  40.851   4.656
73066W        W32811  40.857   8.341  10.443
73067W        W32812   1.832  23.112  13.958
73068W        W32813   9.749  21.026  13.990
73069W        W32814  36.523  34.451   0.282
73070W        W32815  40.952  29.528   0.964
73071W        W32816  17.563   0.764  14.876
73072W        W32817  12.770  27.454   4.134
73073W        W32818  37.492  28.950  13.402
73074W        W32819  12.346  15.191  10.565
73075W        W32820  23.571  26.068  13.504
73076W        W32821  27.970  33.622  14.947
73077W        W32822   0.827  31.074   3.159
73078W        W32823  33.626  13.177   4.329
73079W        W32824  27.118  32.576  10.563
73080W        W32825  20.243  38.326   0.776
73081W        W32826  12.643  14.658   0.370
73082W        W32827  28.459  43.415  11.074
73083W        W32828  30.474  40.329   4.833
73084W        W32829  29.609  31.451  14.959
73085W        W32830  21.220  35.441   0.799
73086W        W32831   1.880  10.761  14.350
73087W        W32832  37.027  25.487  13.410
73088W        W32833  19.252  43.784  12.355
73089W        W32834  33.952   6.239   4.597
73090W        W32835  21.022  38.404  10.962
73091W        W32836  25.659  15.618  10.473
73092W        W32837  26.114   5.356  13.423
73093W        W32838   8.353  11.371   2.210
73094W        W32839  35.470  40.412  13.977
73095W        W32840   2.797  12.703  14.456
73096W        W32841   8.326   7.305  10.899
73097W        W32842   8.782  37.865  13.849
73098W        W32843  44.373  21.660   1.881
73099W        W32844  44.397  42.010  10.467
73100W        W32845  37.838  15.643   3.165
73101W        W32846  16.075  35.406  14.778
73102W        W32847  22.671   3.279  12.503
73103W        W32848   1.367   7.380  12.940
73104W        W32849   6.870   5.907  10.601
73105W        W32850   0.890  12.682  11.477
73106W        W32851  27.125  33.064   2.705
73107W        W32852   4.856  22.523  14.396
73108W        W32853   1.287  16.311  10.156
73109W        W32854  30.621   3.954   0.967
73110W        W32855  10.228  31.946   2.885
73111W        W32856  31.067   2.831   3.202
73112W        W32857  31.545  32.518   9.974
73113W        W32858  32.445  10.698  11.604
73114W        W32859  31.041  31.925  14.502
73115W        W32860  36.892  13.687  12.475
73116W        W32861  42.823  30.575   4.143
73117W        W32862  34.953   5.324  11.902
73118W        W32863   2.761  44.437  14.772
73119W        W32864  43.925   3.888  13.869
73120W        W32865   7.258   2.762  14.298
73121W        W32866  39.523  32.020  13.019
73122W        W32867  23.024  11.267   2.775
73123W        W32868  38.937  12.324  14.798
73124W        W32869  24.622   1.274   3.180
73125W        W32870  14.173  32.560  10.410
73126W        W32871  16.761  43.899  13.018
73127W        W32872  16.774  28.135   2.775
73128W        W32873  36.586  44.401  10.946
73129W        W32874  12.241  31.518   1.901
73130W        W32875  10.183   6.899  11.484
73131W        W32876  38.904  35.528  13.876
73132W        W32877  38.349   3.854   0.473
73133W        W32878   7.228  36.991  12.562
73134W        W32879  33.925  23.022   4.220
73135W        W32880  14.765  41.991   3.666
73136W        W32881  31.046   5.700   0.361
73137W        W32882   9.654   5.323  14.393
73138W        W32883   7.401  17.302  10.609
73139W        W32884  13.781  28.164   0.326
73140W        W32885   7.708  12.734  12.982
73141W        W32886  29.094  12.761   1.225
73142W        W32887  40.851  27.097  10.609
73143W        W32888  28.060   9.804   1.713
73144W        W32889  39.343   2.321   2.394
73145W        W32890  25.065   6.256  11.407
73146W        W32891   1.419   4.280  14.420
73147W        W32892  37.850   6.388  13.497
73148W        W32893  10.187  19.722   0.315
73149W        W32894  15.663  15.756   4.636
73150W        W32895   9.391  19.540  11.063
73151W        W32896  16.655  13.122  11.497
73152W        W32897  32.010  42.969  10.610
73153W        W32898  20.660  16.695  11.502
73154W        W32899  33.999  15.810   3.630
73155W        W32900   2.341  39.443  14.322
73156W        W32901   8.222  33.129   2.813
73157W        W32902  13.259  17.605  12.078
73158W        W32903  43.402  17.634   1.823
73159W        W32904  18.612  25.967  11.005
73160W        W32905   6.689  12.783   2.687
73161W        W32906   0.488  31.084  14.783
73162W        W32907  33.404  19.178  12.047
73163W        W32908  35.956   3.902  10.930
73164W        W32909  42.836  38.828  13.055
73165W        W32910  27.452  34.450   4.732
73166W        W32911  24.711  38.566  12.476
73167W        W32912  37.883  17.264  14.411
73168W        W32913  37.519  35.960  12.040
73169W        W32914  25.057  17.768  13.942
73170W        W32915  31.645   7.279   4.325
73171W        W32916  14.737  40.391  14.963
73172W        W32917   8.894   2.327  14.942
73173W        W32918  27.941  34.581  11.501
73174W        W32919  23.683   2.341   1.450
73175W        W32920  20.043  27.590   4.769
73176W        W32921  28.656  20.165  14.912
73177W        W32922  16.173   5.930   3.862
73178W        W32923  36.354  28.153   3.840
73179W        W32924  14.106  12.645   3.737
73180W        W32925  42.292  38.032  12.933
73181W        W32926  30.561  38.981   1.792
73182W        W32927   7.828  40.460  13.848
73183W        W32928  19.682  35.420  10.448
73184W        W32929  16.663  17.701   3.359
73185W        W32930   7.679  11.351  11.062
73186W        W32931  23.025  11.326   0.282
73187W        W32932  17.568  15.665  10.534
73188W        W32933  26.461  27.461  14.837
73189W        W32934  31.557   7.827  14.483
73190W        W32935   6.890  35.081  12.905
73191W        W32936  23.637  37.895   3.291
73192W        W32937  42.807  21.521   3.825
73193W        W32938  20.263  19.770  11.091
73194W        W32939  33.056  20.584  12.526
73195W        W32940   6.233  21.632   4.143
73196W        W32941  10.750  18.291  14.475
73197W        W32942  20.666  18.590  12.501
73198W        W32943  31.083  35.852  10.128
73199W        W32944  23.673  24.698   2.765
73200W        W32945  15.741  20.160  11.526
73201W        W32946  38.956   0.482  11.389
73202W        W32947  36.917  27.112  14.469
73203W        W32948   3.878  18.725   2.215
73204W        W32949  10.729   2.445  12.353
73205W        W32950   1.238   9.833   4.117
73206W        W32951   8.840  17.105  14.011
73207W        W32952  15.094   4.414  10.986
73208W        W32953  23.193  38.480  14.990
73209W        W32954   9.227  36.025   4.179
73210W        W32955  44.818  15.692   1.410
73211W        W32956  13.787   2.275   1.896
73212W        W32957  28.021   1.317  14.388
73213W        W32958  13.767  40.512  10.505
73214W        W32959  39.371   6.753  12.544
73215W        W32960   7.325   0.814   3.186
73216W        W32961  43.882  33.460  14.452
73217W        W32962  34.974  21.093   2.860
73218W        W32963   9.262  23.069   3.803
73219W        W32964  44.778   2.943   1.865
73220W        W32965  18.063  27.038   3.251
73221W        W32966  16.775  10.819  10.504
73222W        W32967  44.497  42.516   0.246
73223W        W32968  16.780  17.272   3.698
73224W        W32969  20.047  19.587   1.291
73225W        W32970  39.817  28.957   0.861
73226W        W32971  22.190  32.952   4.246
73227W        W32972  27.987  38.491  14.955
73228W        W32973   8.176   5.349  13.939
73229W        W32974   7.217  43.845  14.473
73230W        W32975  32.973  42.510   1.774
73231W        W32976   0.843  40.013  14.028
73232W        W32977   1.770  17.088  10.045
73233W        W32978  22.122   5.860  10.488
73234W        W32979  42.940  19.108  14.811
73235W        W32980  18.226  30.452   5.261
73236W        W32981  44.504  38.830   2.682
73237W        W32982  29.641  40.989  14.022
73238W        W32983  44.377  24.228  10.487
73239W        W32984  21.670  11.177  11.560
73240W        W32985  24.710  42.314   0.427
73241W        W32986   0.881  43.483   2.332
73242W        W32987  27.152   0.427  13.425
73243W        W32988  27.095  36.026  13.970
73244W        W32989  14.298  40.422   3.161
73245W        W32990  15.178  24.513   2.241
73246W        W32991   2.900  23.204   0.944
73247W        W32992   0.919  12.174   3.328
73248W        W32993  13.801  15.170  13.417
73249W        W32994  27.950   9.314   2.265
73250W        W32995  16.284   9.771   0.435
73251W        W32996   7.847  28.989   0.394
73252W        W32997   7.289  43.423  12.421
73253W        W32998   1.764  22.128   1.714
73254W        W32999   4.941  30.539   4.184
73255W        W33000  32.021  21.093   4.725
73256W        W33001  35.072  41.470  12.965
73257W        W33002  31.072  11.783   1.732
73258W        W33003  25.139   5.351   3.792
73259W        W33004   2.759  15.125   3.829
73260W        W33005  17.782  11.844  11.570
73261W        W33006  17.266  12.191   4.247
73262W        W33007  36.373  32.576   2.813
73263W        W33008   4.901  25.546  10.933
73264W        W33009  25.057  38.911  12.414
73265W        W33010   4.873  36.356   0.340
73266W        W33011  40.513  30.970  10.643
73267W        W33012  27.175   8.196  11.380
73268W        W33013  31.585   6.806   2.874
73269W        W33014  14.665  11.316  11.515
73270W        W33015   6.709   0.914   4.640
73271W        W33016  11.731  38.368  11.472
73272W        W33017  25.000  17.153   3.292
73273W        W33018   2.823  20.745   3.194
73274W        W33019  41.976   1.461  12.976
73275W        W33020  26.557   1.942  10.910
73276W        W33021   3.918  43.766   3.385
73277W        W33022   6.248  10.169   2.816
73278W        W33023  16.716  24.988   0.412
73279W        W33024  10.681  23.568   0.380
73280W        W33025  42.429  35.069  14.916
73281W        W33026   5.300  19.231  13.880
73282W        W33027   2.910  44.401   4.206
73283W        W33028  29.548  33.474   3.257
73284W        W33029  28.653  30.106   0.779
73285W        W33030  25.674  37.441   4.299
73286W        W33031  13.263  13.768   1.311
73287W        W33032  18.645  16.619  12.413
73288W        W33033   7.759   9.228   2.665
73289W        W33034  43.773   3.785  10.934
73290W        W33035  15.728  41.931   3.381
73291W        W33036  27.186  44.475   3.199
73292W        W33037  28.661  34.006   1.430
73293W        W33038  19.272  34.489   0.802
73294W        W33039  42.879   3.726  10.497
73295W        W33040   2.263  27.072  13.369
73296W        W33041  26.977  40.933  12.454
73297W        W33042   5.720  23.716   0.247
73298W        W33043  26.087   6.686  14.894
73299W        W33044   2.384  28.011   0.316
73300W        W33045   9.367  18.200   9.983
73301W        W33046  43.811   1.430  13.992
73302W        W33047  34.380  44.435   3.802
73303W        W33048  14.593  43.377  14.284
73304W        W33049   0.287  16.282  13.847
73305W        W33050  44.494   7.203  12.915
73306W        W33051  25.474  25.135  12.570
73307W        W33052   7.770  42.794  14.011
73308W        W33053  44.437  29.644   2.694
73309W        W33054   3.748  37.392   2.704
73310W        W33055   0.403  27.559  13.525
73311W        W33056  19.666  44.271   5.122
73312W        W33057  36.447  31.969  14.454
73313W        W33058  36.065  34.977   4.748
73314W        W33059  17.611  26.680   4.221
73315W        W33060  14.620  23.543  11.525
73316W        W33061  28.041   6.707  11.423
73317W        W33062  11.232   4.351   3.298
73318W        W33063   5.736  10.814   4.666
73319W        W33064  25.169  32.903  13.311
73320W        W33065   8.279   4.829   1.756
73321W        W33066  13.130  30.562  10.030
73322W        W33067  18.218  39.001  13.900
73323W        W33068  13.770  42.465  13.382
73324W        W33069  20.261  42.286  14.486
73325W        W33070  17.798  33.023   4.647
73326W        W33071  22.020  12.715   4.179
73327W        W33072  32.889  36.349  12.052
73328W        W33073  21.620  12.740  13.458
73329W        W33074  31.402  30.153  10.440
73330W        W33075  17.204  25.575  11.952
73331W        W33076  41.343   1.411   0.244
73332W        W33077  42.877  16.636  11.113
73333W        W33078  20.543  28.122   1.805
73334W        W33079   9.159  12.842  11.919
73335W        W33080  30.116  26.196   4.261
73336W        W33081   2.232  31.042   1.718
73337W        W33082   0.848  35.455  13.872
73338W        W33083  28.052  14.697  12.069
73339W        W33084  44.850  40.947  10.914
73340W        W33085  24.983  40.503   3.386
73341W        W33086  42.302  29.661  10.008
73342W        W33087  36.428  15.133   1.243
73343W        W33088  40.878  24.118  14.025
73344W        W33089   9.235  42.988  11.466
73345W        W33090   1.258  39.903  12.080
73346W        W33091  11.644  31.034   1.734
73347W        W33092  34.538  17.672   1.349
73348W        W33093  31.047   6.739   4.126
73349W        W33094  33.600  43.308  14.860
73350W        W33095  44.500  17.262   4.270
73351W        W33096  18.235  40.308   4.214
73352W        W33097  16.138  35.497  13.341
73353W        W33098   1.792  41.846   4.331
73354W        W33099   3.285  10.874  11.985
73355W        W33100  32.903   7.180   4.203
73356W        W33101  20.548  13.749   0.736
73357W        W33102  18.194  29.965   0.483
73358W        W33103  29.079  31.436   4.127
73359W        W33104  40.513  25.483  14.026
73360W        W33105  14.721  32.582   2.857
73361W        W33106  23.720  19.131   0.380
73362W        W33107  12.249  20.078   0.860
73363W        W33108  44.857  39.449  14.801
73364W        W33109  35.600  32.991  12.891
73365W        W33110  40.812  33.881   2.278
73366W        W33111  11.332  41.414   0.356
73367W        W33112  11.856  29.615   1.792
73368W        W33113  33.445  24.001   1.846
73369W        W33114   2.440   7.207  13.995
73370W        W33115  29.526  33.874  14.327
73371W        W33116  10.694   7.308  14.871
73372W        W33117  25.022  18.712  10.605
73373W        W33118   7.208  39.514  14.008
73374W        W33119  33.072   1.330   1.780
73375W        W33120  41.402  37.025   4.159
73376W        W33121   8.391   7.900   2.341
73377W        W33122  34.922  37.449   4.231
73378W        W33123  20.119  39.384  11.579
73379W        W33124  37.980  23.207   0.917
73380W        W33125  10.278  40.427   0.816
73381W        W33126  17.119  36.371   3.165
73382W        W33127  28.148   3.794  10.627
73383W        W33128  28.949  32.427   0.320
73384W        W33129   7.789   5.729   0.906
73385W        W33130  42.923   2.967   4.748
73386W        W33131  34.409  13.624   3.338
73387W        W33132   0.438   5.290   0.750
73388W        W33133  15.208  11.825  14.990
73389W        W33134   6.743  40.309  11.435
73390W        W33135   1.760  21.565  12.532
73391W        W33136   9.228  14.236  11.015
73392W        W33137  37.954  44.397  11.567
73393W        W33138  19.589  18.111   2.707
73394W        W33139  33.092  36.010  11.106
73395W        W33140  12.240  22.539  12.536
73396W        W33141  36.426  24.702   3.176
73397W        W33142   5.300  19.199   2.882
73398W        W33143   7.703  30.476   1.395
73399W        W33144  23.126  20.051   4.648
73400W        W33145  23.229  16.717  12.529
73401W        W33146   7.322  26.130   1.887
73402W        W33147  27.644  30.040  12.855
73403W        W33148  40.957  26.068   0.332
73404W        W33149  23.996  31.405   4.189
73405W        W33150  33.918  34.453   4.122
73406W        W33151  21.116  42.411  13.483
73407W        W33152  19.142  26.063  14.377
73408W        W33153  24.688   0.945   4.295
73409W        W33154  38.403   7.786   2.814
73410W        W33155  31.540  34.519   4.709
73411W        W33156   0.768  12.696  12.486
73412W        W33157  20.750  43.344   2.324
73413W        W33158  16.283  18.192  11.983
73414W        W33159  37.879  15.116  14.920
73415W        W33160  24.548  34.942   0.787
73416W        W33161  22.641  31.025   3.206
73417W        W33162   3.805  32.477   2.887
73418W        W33163  13.765  17.736  10.458
73419W        W33164  32.447  17.277   0.449
73420W        W33165  38.387  29.645  14.811
73421W        W33166  32.930  23.124   2.742
73422W        W33167  42.904  13.244  10.610
73423W        W33168   1.388  15.703  13.911
73424W        W33169   2.801  30.108   5.160
73425W        W33170  40.973  15.257  13.960
73426W        W33171   6.295  33.404  11.918
73427W        W33172  11.743  42.284  13.850
73428W        W33173  43.296  16.765   1.333
73429W        W33174   2.727  12.831  11.048
73430W        W33175  28.575  13.658   1.762
73431W        W33176  43.482   5.211   1.898
73432W        W33177  33.510  36.453  13.965
73433W        W33178  25.654  16.313  13.895
73434W        W33179  42.001   3.835  11.455
73435W        W33180  23.545  12.732  13.375
73436W        W33181  39.384   1.479  14.489
73437W        W33182   8.205   0.780  12.056
73438W        W33183   5.895  34.047   4.797
73439W        W33184  10.333  27.556   4.204
73440W        W33185  44.355  23.530   1.264
73441W        W33186  38.919  24.047  13.494
73442W        W33187   9.386  21.640  11.510
73443W        W33188  30.532   0.321   4.187
73444W        W33189  19.285  32.922   2.406
73445W        W33190  40.919  37.420  13.437
73446W        W33191   5.868  33.031   1.375
73447W        W33192  17.772   6.306   0.876
73448W        W33193  37.009  41.949   4.208
73449W        W33194  19.772  33.090  11.974
73450W        W33195  16.739  32.507   0.469
73451W        W33196  18.672  37.422   4.285
73452W        W33197  12.193  25.559  14.914
73453W        W33198  42.932  21.021   2.801
73454W        W33199   8.238  18.626   3.672
73455W        W33200  13.642   7.858   4.758
73456W        W33201  16.164   3.828  10.532
73457W        W33202  22.131  25.995   1.326
73458W        W33203  39.336  18.296   4.136
73459W        W33204  20.128  36.870   4.769
73460W        W33205  28.966  33.948  10.550
73461W        W33206   4.238   6.241  13.509
73462W        W33207  15.156  23.610  11.414
73463W        W33208   0.305  19.559  14.798
73464W        W33209  12.694   6.298   1.790
73465W        W33210  14.689  23.090  13.012
73466W        W33211  12.663  43.898  14.844
73467W        W33212  17.149   1.910  10.499
73468W        W33213  10.316  25.497   1.390
73469W        W33214  12.753  27.629   1.370
73470W        W33215  29.062  16.207   1.889
73471W        W33216   4.730  41.466  14.416
73472W        W33217  12.332  26.612   4.190
73473W        W33218  31.484  41.973  10.431
73474W        W33219  17.228  28.021  13.522
73475W        W33220  21.536  13.339   4.290
73476W        W33221  34.416  24.710  12.562
73477W        W33222  44.863  42.493   0.395
73478W        W33223  39.499  33.442   3.156
73479W        W33224   5.274  27.078  14.850
73480W        W33225  37.907  10.164   3.862
73481W        W33226  43.957  15.108  10.981
73482W        W33227  37.058  17.656  14.335
73483W        W33228  43.329   1.755  11.553
73484W        W33229  24.999  12.797   2.666
73485W        W33230  10.766  18.228   0.436
73486W        W33231  39.410   2.857  13.846
73487W        W33232  33.070   9.275  13.840
73488W        W33233  22.719  44.444   5.275
73489W        W33234  37.855  21.715   4.324
73490W        W33235  32.634  12.157   3.352
73491W        W33236  14.296   5.375  10.639
73492W        W33237  39.459  16.120  12.966
73493W        W33238  24.601  23.632   4.770
73494W        W33239  30.125  25.665  11.440
73495W        W33240  16.720  16.682  10.450
73496W        W33241  32.960  34.580  14.366
73497W        W33242   3.844  15.597  13.431
73498W        W33243  42.337  42.318   4.299
73499W        W33244   4.313  34.405  14.777
73500W        W33245  43.459   3.843  11.127
73501W        W33246  26.532  13.245   3.782
73502W        W33247  40.990  43.355  14.311
73503W        W33248   7.861  37.908   0.797
73504W        W33249  29.615   7.802   3.637
73505W        W33250  33.491  33.620  10.480
73506W        W33251  42.441  12.132  14.417
73507W        W33252  43.864  21.519  13.905
73508W        W33253  24.633  44.345   0.367
73509W        W33254   6.737  23.221   3.686
73510W        W33255  14.287   7.792   0.777
73511W        W33256  17.061  13.119   3.663
73512W        W33257  27.514  39.521   1.385
73513W        W33258  38.355  20.083   2.695
73514W        W33259  24.127  29.096  11.915
73515W        W33260  25.613  16.793  14.907
73516W        W33261   6.296   7.231   4.705
73517W        W33262  42.956  40.436  14.832
73518W        W33263  44.866   5.217  10.979
73519W        W33264  10.833  36.425  11.585
73520W        W33265  10.316  22.728  11.492
73521W        W33266  24.654   1.433  14.884
73522W        W33267   0.404  11.361   2.251
73523W        W33268  15.284  42.031  11.435
73524W        W33269   2.957  33.107  13.895
73525W        W33270  41.501  40.843   1.825
73526W        W33271  29.618  42.928   4.272
73527W        W33272  40.408  38.898  14.903
73528W        W33273  32.105  17.214   9.961
73529W        W33274  40.396  19.242   2.768
73530W        W33275  41.788  22.176   3.149
73531W        W33276  44.001  13.343  13.835
73532W        W33277  25.652  27.094   3.284
73533W        W33278   9.165   0.973  11.505
73534W        W33279  24.217   9.284  12.387
73535W        W33280  13.253  39.335   3.729
73536W        W33281  23.051  14.613  11.078
73537W        W33282   0.851  13.194   4.289
73538W        W33283  25.997  22.060   1.928
73539W        W33284  24.507  44.882  11.565
73540W        W33285   3.259  44.932   3.364
73541W        W33286  35.464  26.177   2.347
73542W        W33287  40.316   3.420  14.886
73543W        W33288  37.554  42.966   9.979
73544W        W33289   8.693  37.889  13.545
73545W        W33290   4.888  44.964   4.187
73546W        W33291  28.459   0.750  13.992
73547W        W33292  12.287  25.483   0.880
73548W        W33293  27.052  33.953  14.320
73549W        W33294  15.152  39.821  13.845
73550W        W33295  40.984  44.440   0.949
73551W        W33296  10.292   9.781   1.414
73552W        W33297  17.096  44.329   4.124
73553W        W33298  12.618   2.729  13.865
73554W        W33299  12.736  13.160  10.945
73555W        W33300   5.350  27.164  13.902
73556W        W33301  27.959  15.128  11.581
73557W        W33302   5.714  40.404   2.888
73558W        W33303  18.152  18.656   4.138
73559W        W33304  23.650  21.733   0.335
73560W        W33305  27.681   1.830  11.406
73561W        W33306  19.700  30.623  14.851
73562W        W33307   2.856  43.909   4.800
73563W        W33308  17.683  11.699   1.894
73564W        W33309   7.405  41.800   4.339
73565W        W33310   3.351  27.627  13.010
73566W        W33311  40.963   7.832   2.405
73567W        W33312   0.462  29.123  12.827
73568W        W33313  28.671   8.371   2.312
73569W        W33314  31.139   7.279   9.939
73570W        W33315  30.632  28.184   4.348
73571W        W33316  30.948  33.915   1.268
73572W        W33317  44.755  36.046  10.462
73573W        W33318  23.600  39.347  11.027
73574W        W33319  26.635  15.162   5.747
73575W        W33320   7.264   2.733  10.623
73576W        W33321  13.225  24.094  11.490
73577W        W33322  27.644  32.489  14.378
73578W        W33323  39.401  44.311  14.903
73579W        W33324   0.968  38.501  11.985
73580W        W33325   9.883   4.868   4.333
73581W        W33326  22.227   8.344  11.935
73582W        W33327  26.687  20.132  11.986
73583W        W33328  33.475  25.181   3.209
73584W        W33329   3.845  38.380   3.735
73585W        W33330  10.246  19.066   1.927
73586W        W33331  31.036  40.420  12.563
73587W        W33332  38.052   5.859  13.963
73588W        W33333   8.765  30.000  14.966
73589W        W33334  40.042  27.590   0.790
73590W        W33335  36.958   8.237   4.333
73591W        W33336  16.620   0.988   0.802
73592W        W33337  36.532   9.379  10.974
73593W        W33338  15.650  22.605   2.880
73594W        W33339  44.429  40.466   3.291
73595W        W33340   0.951   7.381  11.858
73596W        W33341   7.198  27.644   3.857
73597W        W33342  14.164  34.110   4.731
73598W        W33343  25.212   5.924   3.237
73599W        W33344   5.318  25.151  10.531
73600W        W33345  25.512  32.542   0.447
73601W        W33346  15.327  22.173   4.743
73602W        W33347  31.448  12.189  10.637
73603W        W33348  30.534  13.676   3.284
73604W        W33349  20.541   1.768  12.832
73605W        W33350  27.998  36.374   0.891
73606W        W33351  26.077  27.487   3.823
73607W        W33352  26.958   4.273   0.857
73608W        W33353  27.467  43.964  11.889
73609W        W33354   7.827  40.321   4.217
73610W        W33355  34.874   9.270  12.084
73611W        W33356   1.468  21.540   4.799
73612W        W33357  25.535  40.497  14.806
73613W        W33358  24.676   5.695  11.054
73614W        W33359  14.769  39.492   4.316
73615W        W33360   0.918  42.971  14.450
73616W        W33361   6.398   9.869  10.595
73617W        W33362  26.033  18.200   3.183
73618W        W33363   2.928  39.355   0.312
73619W        W33364  36.453  30.955  12.000
73620W        W33365   9.356  10.263  13.842
73621W        W33366  22.535  10.272  10.558
73622W        W33367  24.080  11.782  14.470
73623W        W33368   3.863  25.039   4.619
73624W        W33369  21.582   9.284  13.463
73625W        W33370  22.542  17.728  13.462
73626W        W33371  43.784  26.686  13.929
73627W        W33372   1.837  18.296  13.837
73628W        W33373   5.245  38.926   5.131
73629W        W33374  16.723  30.600  14.358
73630W        W33375   1.331   6.692  13.360
73631W        W33376  28.089   6.850   1.733
73632W        W33377  34.421  33.068   2.203
73633W        W33378  26.160  34.448  13.043
73634W        W33379  24.109   2.738  12.022
73635W        W33380  14.757   8.313   1.380
73636W        W33381  31.460  43.351   3.642
73637W        W33382  10.815  43.405   1.260
73638W        W33383   5.193  34.904   0.758
73639W        W33384  42.797  22.157   0.814
73640W        W33385   1.765  10.287   3.862
73641W        W33386   6.874  39.876  11.978
73642W        W33387   8.384  14.120   4.757
73643W        W33388   6.909   5.347  13.361
73644W        W33389  38.035  43.468   2.178
73645W        W33390  10.665  15.714   3.218
73646W        W33391   4.732  19.040   3.805
73647W        W33392  31.460   0.468  12.853
73648W        W33393   6.281  28.486  10.909
73649W        W33394  38.041  18.251  13.014
73650W        W33395  25.498  25.045  10.911
73651W        W33396  38.944   5.813   9.942
73652W        W33397  32.608   3.234   0.964
73653W        W33398  42.996   6.868   0.816
73654W        W33399  24.124  35.104  13.407
73655W        W33400  11.244  12.258  11.084
73656W        W33401  36.405   9.772  10.577
73657W        W33402  39.062  35.525   4.323
73658W        W33403  39.044  31.920  11.454
73659W        W33404  39.831  35.450  13.507
73660W        W33405   9.821   1.763  13.544
73661W        W33406  38.918   5.816  14.354
73662W        W33407  18.090  41.451  12.495
73663W        W33408  31.455  18.165   1.860
73664W        W33409  17.627   4.881   0.393
73665W        W33410   5.334  33.614   1.397
73666W        W33411   2.304  33.397   0.437
73667W        W33412  37.969  10.219   2.306
73668W        W33413  23.562  27.081  14.930
73669W        W33414  44.971   6.207  12.960
73670W        W33415   6.849  12.209  14.921
73671W        W33416  20.208  13.631   9.634
73672W        W33417   7.413  10.819  11.543
73673W        W33418  34.065  12.644   1.933
73674W        W33419   7.674  13.275   3.200
73675W        W33420  33.379  42.497   2.678
73676W        W33421   7.821  14.601   1.242
73677W        W33422  41.433   3.848   0.438
73678W        W33423   7.689   9.153  11.582
73679W        W33424  40.422   8.266   0.439
73680W        W33425  33.534  22.095  10.905
73681W        W33426  15.771  28.143  13.479
73682W        W33427  38.895  30.651  10.505
73683W        W33428  32.059  32.940   0.777
73684W        W33429  26.658  10.372  13.868
73685W        W33430  15.734  39.509  12.565
73686W        W33431   9.343  33.974  13.843
73687W        W33432  36.979   5.218  14.876
73688W        W33433   0.831   3.312   2.815
73689W        W33434  10.821  41.828   2.354
73690W        W33435  14.834  33.434  13.360
73691W        W33436  38.512  12.190  13.063
73692W        W33437  20.055  13.719   0.413
73693W        W33438  11.714  44.317  12.416
73694W        W33439   2.772  43.020   0.730
73695W        W33440  24.193   6.206   4.605
73696W        W33441  42.288  29.666  11.114
73697W        W33442  11.648  14.684   4.273
73698W        W33443  38.417  38.937  10.645
73699W        W33444  29.988  43.997   1.767
73700W        W33445   3.933  18.687  14.881
73701W        W33446  36.909  35.958   2.705
73702W        W33447  31.425  21.638  11.889
73703W        W33448  14.119  30.948  12.566
73704W        W33449   5.782   4.907  10.021
73705W        W33450  21.038  33.118   1.356
73706W        W33451   1.291  16.219   2.700
73707W        W33452  31.413  39.959   3.258
73708W        W33453   4.242  38.833  13.981
73709W        W33454  30.444  37.574   1.859
73710W        W33455  28.507  26.086   4.745
73711W        W33456  28.940  38.945  14.786
73712W        W33457  36.070  38.057  11.604
73713W        W33458  44.347  26.637   4.314
73714W        W33459  32.631  30.100  14.310
73715W        W33460   9.357  26.699   0.777
73716W        W33461  43.799   0.261  10.451
73717W        W33462  34.000  11.196   3.802
73718W        W33463   5.322  18.138  14.774
73719W        W33464  38.030  16.683  12.473
73720W        W33465   5.773   6.877  14.858
73721W        W33466  20.120  12.835   3.310
73722W        W33467  23.509   7.695  13.538
73723W        W33468   1.811  10.207  10.459
73724W        W33469  39.915  18.691  13.050
73725W        W33470  44.343  14.125   4.635
73726W        W33471   2.330  12.808   4.615
73727W        W33472  40.486  38.451  14.885
73728W        W33473  14.674  13.809   4.269
73729W        W33474  23.051  32.961   1.807
73730W        W33475  32.516  12.179  11.031
73731W        W33476  26.164  38.331   1.449
73732W        W33477  44.773  34.416   2.309
73733W        W33478  14.595  14.198   2.340
73734W        W33479  22.622  23.556   9.997
73735W        W33480  20.171  37.434  13.790
73736W        W33481   2.825  38.404  11.090
73737W        W33482  25.694  34.482  11.078
73738W        W33483  44.350  10.369   4.180
73739W        W33484  29.520  18.072   1.792
73740W        W33485  26.528  30.035   4.148
73741W        W33486  14.718  38.934  12.571
73742W        W33487  11.623  33.128  11.899
73743W        W33488  44.303  13.622  14.457
73744W        W33489  18.269  17.756  10.496
73745W        W33490  15.739  15.328   2.799
73746W        W33491   3.423   4.899  13.985
73747W        W33492   6.840  26.516  13.387
73748W        W33493  10.186  28.576  11.125
73749W        W33494  12.210   1.934  12.524
73750W        W33495   4.835   6.780   3.323
73751W        W33496   6.853  12.331   2.729
73752W        W33497  25.008  19.153  12.441
73753W        W33498  10.718  39.362  11.949
73754W        W33499  28.100  15.085   5.283
73755W        W33500  34.986  23.207  11.005
73756W        W33501  16.249  29.159   2.365
73757W        W33502   3.902  11.141  11.414
73758W        W33503  28.021  41.395  12.393
73759W        W33504  25.024  14.653   3.213
73760W        W33505   6.241  14.774   4.808
73761W        W33506  28.612   0.308   4.736
73762W        W33507  16.218  44.766   2.417
73763W        W33508  32.135  13.680   0.802
73764W        W33509   2.958  19.609   0.786
73765W        W33510   6.746  18.637  11.497
73766W        W33511   7.677  24.031   1.244
73767W        W33512  14.693  23.009  13.906
73768W        W33513  26.167  36.946  11.124
73769W        W33514  31.000   7.736   2.237
73770W        W33515  14.688  18.781  12.062
73771W        W33516  36.871  42.350   4.599
73772W        W33517  35.366   8.830  11.005
73773W        W33518  24.164   1.410  12.575
73774W        W33519  15.761  11.267   4.785
73775W        W33520   4.329  15.202   0.315
73776W        W33521  33.996  37.963   1.899
73777W        W33522   8.361  24.020   4.125
73778W        W33523  42.376   2.812  14.367
73779W        W33524  43.427  40.922  11.571
73780W        W33525  10.818  17.768   2.359
73781W        W33526  29.001  20.699  10.518
73782W        W33527  13.745   9.673   4.174
73783W        W33528  22.720   0.925   4.163
73784W        W33529  39.065  33.543  11.006
73785W        W33530  16.256   8.666  14.495
73786W        W33531  39.425  21.092   1.374
73787W        W33532   5.224  10.656  13.382
73788W        W33533  19.734   1.761  12.984
73789W        W33534  20.734  16.686  14.846
73790W        W33535  13.713  10.177   2.278
73791W        W33536  19.592  13.290   2.392
73792W        W33537   4.853  33.478  11.096
73793W        W33538  30.614  26.158  14.762
73794W        W33539   7.295  14.739  12.452
73795W        W33540   5.788   3.897   1.863
73796W        W33541  34.909   4.786  11.887
73797W        W33542   9.195  22.237  11.456
73798W        W33543  33.562  42.821  13.024
73799W        W33544  25.553  35.404  14.767
73800W        W33545  24.143  10.870  12.843
73801W        W33546  15.787  28.957  13.538
73802W        W33547  32.952  22.231   0.462
73803W        W33548  32.466   4.343  14.429
73804W        W33549  13.307  22.077   2.833
73805W        W33550  32.486  38.037  11.878
73806W        W33551  32.979   7.748   2.703
73807W        W33552  35.557  17.240   3.154
73808W        W33553  18.557   5.861   3.784
73809W        W33554  25.122  39.041   1.413
73810W        W33555  15.096  35.562   3.298
73811W        W33556  33.968  19.638   3.188
73812W        W33557  36.395  23.212  13.433
73813W        W33558  23.103  39.916  13.898
73814W        W33559  12.217  27.616   2.805
73815W        W33560  36.005  32.433  11.108
73816W        W33561  28.013  29.427  12.989
73817W        W33562  23.722   1.418   5.279
73818W        W33563  41.832  39.987  14.810
73819W        W33564   6.898  42.854  11.928
73820W        W33565  25.592  20.115   4.314
73821W        W33566  26.157  18.640   1.282
73822W        W33567  31.567  36.992   1.719
73823W        W33568  12.121  36.499  10.610
73824W        W33569  10.213  20.220   4.163
73825W        W33570  41.035  13.604  12.447
73826W        W33571  27.455  34.025   3.201
73827W        W33572  40.996  18.147  12.387
73828W        W33573  23.989  41.447  11.972
73829W        W33574  40.820  19.275   4.132
73830W        W33575  35.964   0.318   4.171
73831W        W33576   0.759  12.826   0.819
73832W        W33577  44.298  10.788  14.500
73833W        W33578  10.241  36.574   3.831
73834W        W33579  33.577  26.632  13.547
73835W        W33580  11.255  21.738  12.929
73836W        W33581  11.246  17.234  11.094
73837W        W33582  34.938  31.072   5.128
73838W        W33583  41.808  25.603   1.442
73839W        W33584   0.448  25.628  13.845
73840W        W33585  37.000  35.091  14.951
73841W        W33586   6.872   0.494  14.351
73842W        W33587  25.140  13.108  14.926
73843W        W33588  31.010   8.202   4.718
73844W        W33589  21.615  42.311  11.887
73845W        W33590  33.458  42.781   0.413
73846W        W33591  42.815  39.833   3.696
73847W        W33592  30.463  10.316  11.527
73848W        W33593  24.998  11.145   2.673
73849W        W33594  31.070   7.238   1.315
73850W        W33595  20.725  35.978   1.436
73851W        W33596  37.463  17.186   4.312
73852W        W33597   1.787  32.564  12.556
73853W        W33598  37.536  14.695   3.854
73854W        W33599   6.240  36.880   2.686
73855W        W33600   1.355  24.119   2.294
73856W        W33601  42.008  20.225  12.384
73857W        W33602   6.759  39.020  12.387
73858W        W33603  41.531  14.641  12.976
73859W        W33604  22.592  18.604  12.565
73860W        W33605  42.315  40.340  10.609
73861W        W33606   2.418  34.982   2.890
73862W        W33607   2.906   5.357   1.360
73863W        W33608  38.963  10.233  12.927
73864W        W33609  32.577  42.988   4.174
73865W        W33610  29.501   6.708   2.388
73866W        W33611  41.853   0.794  10.991
73867W        W33612  32.632   3.756  14.298
73868W        W33613  14.643  26.051   4.649
73869W        W33614  18.252   4.364   0.749
73870W        W33615  30.116   8.219  14.030
73871W        W33616  15.262   7.748  10.583
73872W        W33617  31.144  13.689  10.576
73873W        W33618  10.640  30.087   2.702
73874W        W33619   2.784  20.077  12.437
73875W        W33620  19.751  14.227   4.668
73876W        W33621  26.584  34.943  11.485
73877W        W33622  16.573  17.172  11.099
73878W        W33623   9.796  23.585   1.243
73879W        W33624  41.478  17.173  10.610
73880W        W33625  10.810  25.082   4.236
73881W        W33626  13.281  12.176  11.983
73882W        W33627   4.441  13.110   3.198
73883W        W33628  43.916  11.715   4.268
73884W        W33629  30.560  44.483  14.342
73885W        W33630  21.655  32.473  13.417
73886W        W33631  39.017   3.906  12.552
73887W        W33632   8.803  25.088   0.759
73888W        W33633  29.124  30.561  10.548
73889W        W33634  25.102   2.352   3.361
73890W        W33635  24.025  23.498   4.353
73891W        W33636  18.286  32.586   4.630
73892W        W33637  28.588   6.213   1.368
73893W        W33638  38.015  17.774   1.781
73894W        W33639  30.632   5.852   3.353
73895W        W33640  22.591  28.542  10.091
73896W        W33641   1.292   7.888   2.879
73897W        W33642  34.564   4.237   9.668
73898W        W33643  25.072   1.361   1.838
73899W        W33644   9.729  42.954  14.316
73900W        W33645  30.493  36.885   3.800
73901W        W33646  22.103  10.713  14.374
73902W        W33647  42.833  13.770  14.804
73903W        W33648  32.012  35.448   0.752
73904W        W33649  23.116  22.534  14.510
73905W        W33650   6.206  16.078  13.814
73906W        W33651  42.030  26.029   3.666
73907W        W33652   1.806  44.005  14.284
73908W        W33653   8.864  39.025  11.078
73909W        W33654  41.900  30.565  14.353
73910W        W33655  31.074  33.031   0.410
73911W        W33656   9.226  31.047  11.466
73912W        W33657   8.770  24.056  10.945
73913W        W33658  40.521  19.703   2.224
73914W        W33659  29.647  31.546  13.326
73915W        W33660  10.701   7.171  12.386
73916W        W33661   3.955  38.820  14.403
73917W        W33662  18.558  30.107  13.471
73918W        W33663  16.149  13.694  14.365
73919W        W33664  12.625  37.995   4.320
73920W        W33665  11.857   6.259   4.768
73921W        W33666   1.404  44.323  11.525
73922W        W33667  17.676  20.644   0.323
73923W        W33668  24.078  33.031   3.316
73924W        W33669  43.286   1.277   4.646
73925W        W33670  28.971   2.261   2.780
73926W        W33671  22.736  14.106   1.405
73927W        W33672  28.103  39.849  13.532
73928W        W33673  10.816  43.511  13.829
73929W        W33674   5.337  44.966  10.516
73930W        W33675  44.787  34.918  14.901
73931W        W33676   5.860  12.126   2.830
73932W        W33677  28.508   5.777  12.400
73933W        W33678   2.748   4.871   0.331
73934W        W33679  33.012  20.084   1.711
73935W        W33680  44.984  33.959  13.868
73936W        W33681  12.634   2.859  10.419
73937W        W33682  29.475  25.131   3.214
73938W        W33683   3.226  34.029   1.359
73939W        W33684  25.060   9.846   3.342
73940W        W33685  18.287  18.582  12.933
73941W        W33686   4.284  21.558   3.757
73942W        W33687   7.837  12.826   0.830
73943W        W33688  11.308  20.197   3.356
73944W        W33689   2.472  32.946   0.248
73945W        W33690  41.425  37.455  11.881
73946W        W33691  25.626  20.139   0.407
73947W        W33692  38.347  22.055   3.317
73948W        W33693  27.092  36.860   2.728
73949W        W33694  29.998  33.946   3.641
73950W        W33695  22.050  33.510   2.860
73951W        W33696  28.657  20.029   1.379
73952W        W33697   8.771  26.699  13.813
73953W        W33698  38.834  41.897   3.806
73954W        W33699   0.893  16.231   3.683
73955W        W33700  42.411  33.879   4.813
73956W        W33701  12.840  17.069   2.762
73957W        W33702  16.254  26.470  11.427
73958W        W33703   9.861  31.037  13.404
73959W        W33704  44.940  14.276   0.453
73960W        W33705  35.044   6.883   4.134
73961W        W33706  21.517  39.059   2.701
73962W        W33707  40.471  23.523   2.218
73963W        W33708  20.172  38.994  12.094
73964W        W33709  31.413   3.387  11.525
73965W        W33710  28.074   2.815   0.392
73966W        W33711  31.084  15.819   1.819
73967W        W33712  29.516  39.060  10.507
73968W        W33713  39.891   0.484   4.720
73969W        W33714  27.119  37.359  13.504
73970W        W33715  37.502  26.158   1.917
73971W        W33716  41.378  43.769  11.965
73972W        W33717  20.537  23.507   2.900
73973W        W33718  20.071   2.347   1.725
73974W        W33719  13.679  39.535   4.319
73975W        W33720  33.962  27.179   4.171
73976W        W33721  14.638  21.663  11.965
73977W        W33722  11.703   7.402   2.668
73978W        W33723  36.495  23.546  13.463
73979W        W33724  18.180  35.060   3.731
73980W        W33725  14.686  37.371   0.307
73981W        W33726  39.414  21.076  10.950
73982W        W33727  42.475  28.677  13.411
73983W        W33728  18.639  10.677   1.323
73984W        W33729  21.033   9.849   1.694
73985W        W33730  43.797  27.012  12.576
73986W        W33731  43.953  16.286   3.351
73987W        W33732  41.531  17.173   3.753
73988W        W33733  34.112  19.762  14.899
73989W        W33734  27.968  40.369  13.058
73990W        W33735  19.583  33.047   0.942
73991W        W33736  16.278   6.680  12.954
73992W        W33737  14.146  15.777   2.772
73993W        W33738   4.934  32.543   0.447
73994W        W33739  27.951  29.440  13.397
73995W        W33740  21.515  37.001  14.925
73996W        W33741  18.239  15.821  10.567
73997W        W33742   1.397  39.996   4.269
73998W        W33743  28.008  16.761  14.339
73999W        W33744  43.512  12.153   3.849
74000W        W33745   0.893  44.756  11.967
74001W        W33746  43.814  42.324   1.410
74002W        W33747  11.637  11.368  11.869
74003W        W33748  35.922   8.271  13.928
74004W        W33749   2.790  20.682  14.783
74005W        W33750  14.628  23.217  14.380
74006W        W33751   3.843  34.459   4.283
74007W        W33752  18.564   2.349  13.410
74008W        W33753  21.167  32.929  12.956
74009W        W33754  14.668  18.072  14.430
74010W        W33755  40.532  38.527   3.664
74011W        W33756  41.915  40.002   2.401
74012W        W33757  36.905  15.741  10.003
74013W        W33758  21.614  36.541   3.672
74014W        W33759  18.165  11.699  12.894
74015W        W33760   1.264  11.840  14.280
74016W        W33761  37.001  37.846   2.840
74017W        W33762  43.907  41.386  12.846
74018W        W33763  14.796  39.937  13.499
74019W        W33764  39.946  22.103  13.988
74020W        W33765  26.200  36.357  12.469
74021W        W33766  44.785   3.275   0.808
74022W        W33767  17.598  18.273   3.319
74023W        W33768   7.813  43.961  11.952
74024W        W33769  10.790   1.295  13.792
74025W        W33770  30.964   8.391   0.772
74026W        W33771   9.734  28.039  12.509
74027W        W33772  13.119   9.733   0.248
74028W        W33773  14.641  30.547   2.398
74029W        W33774  18.141  13.161   4.736
74030W        W33775  15.184  29.577  12.988
74031W        W33776  21.118  33.581  13.449
74032W        W33777  19.169  34.503   2.739
74033W        W33778  34.044  34.984  13.875
74034W        W33779  28.008  27.091   3.339
74035W        W33780  37.501  13.760  13.023
74036W        W33781  14.177  21.563  11.533
74037W        W33782  28.440  25.474   3.811
74038W        W33783   5.216  38.414   3.669
74039W        W33784   1.357  35.897  13.367
74040W        W33785  31.639  26.993  12.416
74041W        W33786  17.626   4.270   4.287
74042W        W33787  40.832  44.484  11.905
74043W        W33788  25.119  37.579   3.664
74044W        W33789  25.091  21.164   4.211
74045W        W33790  34.937  27.008  12.032
74046W        W33791  39.948   3.953   0.415
74047W        W33792  24.616  30.505   4.121
74048W        W33793  31.083  25.146   5.244
74049W        W33794  39.841   8.663   1.229
74050W        W33795  13.278   4.353   0.411
74051W        W33796  30.555  30.065  11.444
74052W        W33797   7.672  22.057  11.471
74053W        W33798  17.166  43.992   0.757
74054W        W33799  31.931  32.948   0.401
74055W        W33800   7.672   6.209  14.888
74056W        W33801  39.343  26.604  12.425
74057W        W33802  41.495  42.829  11.859
74058W        W33803  33.526  32.443  10.421
74059W        W33804   9.693  41.938  12.461
74060W        W33805   9.322  43.508   1.246
74061W        W33806  36.504  41.884  11.567
74062W        W33807   1.750  41.411   4.246
74063W        W33808  30.959  31.906   3.695
74064W        W33809  21.153  34.372   3.153
74065W        W33810  23.163   9.647   3.371
74066W        W33811  11.186  38.885   3.818
74067W        W33812  29.970  19.679   3.363
74068W        W33813  39.016  10.851  10.933
74069W        W33814  34.925   5.417  10.448
74070W        W33815  34.430  22.118   0.358
74071W        W33816  11.742  27.116   4.211
74072W        W33817   4.338   8.692  12.341
74073W        W33818  26.955  42.002   2.253
74074W        W33819  35.856  29.142  12.828
74075W        W33820  23.725  31.645  14.351
74076W        W33821   4.751   8.832   0.891
74077W        W33822  39.390   6.229   2.405
74078W        W33823  18.262  31.433   0.726
74079W        W33824  18.600   0.924   1.267
74080W        W33825  21.196  14.285   0.910
74081W        W33826  33.545  21.142   4.280
74082W        W33827   2.816  30.611   1.754
74083W        W33828   8.829  23.150  14.882
74084W        W33829  33.984  26.662   4.234
74085W        W33830   6.344  26.553  12.485
74086W        W33831  36.531  16.125  13.041
74087W        W33832  33.392  27.611   1.770
74088W        W33833  39.371  41.944   2.393
74089W        W33834  11.318  27.683  14.896
74090W        W33835  36.967  41.932   3.207
74091W        W33836  25.189  28.028  11.395
74092W        W33837  42.790  37.365   0.846
74093W        W33838  12.742  20.141  10.526
74094W        W33839   1.736  15.587   4.310
74095W        W33840  15.168  19.250  14.885
74096W        W33841   7.723   4.758   5.234
74097W        W33842   7.773  27.983   2.318
74098W        W33843  42.952  38.553  13.911
74099W        W33844  23.196  21.655   0.347
74100W        W33845   8.322  35.482  10.950
74101W        W33846  30.455  24.099  12.994
74102W        W33847  35.979  36.963   3.670
74103W        W33848   6.763   5.359   3.829
74104W        W33849   3.456  29.161  13.377
74105W        W33850  42.980  12.187   4.625
74106W        W33851   5.422  32.435   0.858
74107W        W33852  17.748   3.721  11.496
74108W        W33853  27.998  44.440  10.467
74109W        W33854  11.665  15.770  12.044
74110W        W33855  16.074  26.197  10.635
74111W        W33856  30.478  42.927   4.763
74112W        W33857  30.162  12.203  14.992
74113W        W33858  21.745  11.161   4.210
74114W        W33859  13.723   2.352   3.270
74115W        W33860  20.064  30.160   2.786
74116W        W33861  44.463  42.790   0.925
74117W        W33862   0.366  27.170   5.215
74118W        W33863  37.066  20.203  13.881
74119W        W33864  40.305  27.652   2.181
74120W        W33865   4.307   4.850   0.964
74121W        W33866  15.676   6.807  10.032
74122W        W33867  42.345  39.900  14.759
74123W        W33868  26.465  43.784  13.314
74124W        W33869  19.614  38.031  10.889
74125W        W33870  35.031  22.555  12.868
74126W        W33871  35.371  17.742   3.383
74127W        W33872  40.821  40.041   1.926
74128W        W33873  21.098  17.245  14.017
74129W        W33874   5.352  15.793   0.317
74130W        W33875  15.613   6.808  11.476
74131W        W33876  22.217  41.887   2.863
74132W        W33877  28.505  11.859   1.223
74133W        W33878  40.547   4.274   3.652
74134W        W33879   4.399  33.007  11.963
74135W        W33880  22.170   3.331  14.867
74136W        W33881  26.132  32.090   0.257
74137W        W33882   2.866   7.810   4.776
74138W        W33883  43.363   9.342   1.901
74139W        W33884  28.617  10.150  11.862
74140W        W33885  18.269  20.263   1.385
74141W        W33886  10.835  11.289   3.358
74142W        W33887  16.319  40.458   2.826
74143W        W33888  41.478  40.385   5.088
74144W        W33889  19.153  18.585  13.842
74145W        W33890  13.618  29.151  12.544
74146W        W33891  31.440  37.975   2.313
74147W        W33892  35.907  42.901  13.504
74148W        W33893  16.284  18.272  13.381
74149W        W33894  20.741  12.142  11.982
74150W        W33895  35.481  11.806   3.768
74151W        W33896  10.308  30.127  14.861
74152W        W33897   1.855  22.717   1.905
74153W        W33898  35.872  39.991  14.002
74154W        W33899  44.293  44.772   3.208
74155W        W33900  38.355  11.285  10.963
74156W        W33901   0.965  12.150   0.747
74157W        W33902   1.449  30.492  13.467
74158W        W33903  28.083  16.101   4.708
74159W        W33904  28.474  17.260  10.635
74160W        W33905  40.031  24.507   2.833
74161W        W33906  17.618  22.106  12.577
74162W        W33907  17.573   0.397   2.377
74163W        W33908  40.441  44.809  14.778
74164W        W33909  19.559  11.199   2.371
74165W        W33910  42.519  11.851   3.701
74166W        W33911  32.606  30.424  11.916
74167W        W33912   7.317  18.253   0.797
74168W        W33913  10.154  17.121   2.855
74169W        W33914  44.872  38.334  10.567
74170W        W33915  23.494  37.508  14.433
74171W        W33916   1.874   2.747   1.357
74172W        W33917  37.870  25.476  12.862
74173W        W33918  42.489  31.923  12.445
74174W        W33919  17.280  30.041  14.452
74175W        W33920  37.401  33.506  12.825
74176W        W33921  30.059   4.333   2.840
74177W        W33922  43.299  28.985   5.195
74178W        W33923  25.182  18.262  12.347
74179W        W33924  31.482  14.816   4.225
74180W        W33925  10.298  27.604   2.767
74181W        W33926  24.530   1.773  11.498
74182W        W33927  34.955   7.406  12.827
74183W        W33928  28.110   4.299   3.847
74184W        W33929   6.743   0.902  10.636
74185W        W33930  26.043   7.706   2.805
74186W        W33931  28.596  12.320   4.793
74187W        W33932  34.870  21.725   1.694
74188W        W33933  15.206  14.598   4.207
74189W        W33934  35.500  34.017   4.635
74190W        W33935   4.872   5.196   0.760
74191W        W33936  11.623  10.357   3.309
74192W        W33937  20.556  29.942   0.411
74193W        W33938  31.473   7.766   1.422
74194W        W33939  32.077  36.015  10.082
74195W        W33940  35.887   8.234   0.395
74196W        W33941  17.263   5.904  13.791
74197W        W33942   1.868   7.880  14.416
74198W        W33943   8.318  14.668  11.474
74199W        W33944  22.708  24.023  12.938
74200W        W33945  24.002  32.545  12.525
74201W        W33946  25.587  13.184  12.914
74202W        W33947  24.069  13.137   2.714
74203W        W33948  39.368  13.661   2.238
74204W        W33949  20.209  40.393  13.470
74205W        W33950  38.983   2.945   3.698
74206W        W33951   1.849  19.541  11.067
74207W        W33952  28.181  12.211   3.218
74208W        W33953  27.592  37.025   4.808
74209W        W33954  34.602  44.419   0.965
74210W        W33955  31.634  41.938  12.498
74211W        W33956   7.861  29.078  13.972
74212W        W33957  10.756  32.395   1.380
74213W        W33958  25.662  11.160  11.607
74214W        W33959  20.590  16.672   0.370
74215W        W33960   1.858   5.226  10.427
74216W        W33961   5.237  23.184  11.568
74217W        W33962  32.114  12.741   4.743
74218W        W33963  10.227  36.493   0.943
74219W        W33964  42.818  11.338  13.408
74220W        W33965   5.897   9.798  10.938
74221W        W33966  16.272  26.673  10.040
74222W        W33967   7.899   0.770  11.899
74223W        W33968  28.547   2.338   0.344
74224W        W33969   6.766  20.631   4.269
74225W        W33970  38.903   6.818  10.121
74226W        W33971  24.033   2.749   1.835
74227W        W33972  17.181  30.478   3.298
74228W        W33973   4.299  43.812   3.790
74229W        W33974  39.813  18.160   2.726
74230W        W33975  32.936  12.274  11.999
74231W        W33976  11.786  10.376  11.570
74232W        W33977  14.173  39.055  12.554
74233W        W33978  12.122  19.166  13.792
74234W        W33979  39.315  32.396   0.420
74235W        W33980  34.529  36.866   4.642
74236W        W33981  27.681  36.032   1.265
74237W        W33982  36.885  26.475  13.346
74238W        W33983  10.346  21.111   4.273
74239W        W33984  25.572   1.341  11.979
74240W        W33985  10.793  21.552   4.211
74241W        W33986  36.405  26.471  13.030
74242W        W33987   1.957  43.291  10.933
74243W        W33988  26.961  14.271   0.754
74244W        W33989   4.376   9.364   3.200
74245W        W33990  31.902  18.278  12.398
74246W        W33991  17.629  17.108  12.464
74247W        W33992  26.152  22.554   4.206
74248W        W33993   5.868  44.788  11.906
74249W        W33994   8.200  41.829   0.244
74250W        W33995  27.187   1.832  12.558
74251W        W33996  18.144  24.662  14.323
74252W        W33997  38.014  19.262   2.762
74253W        W33998   9.659   8.858   4.204
74254W        W33999  36.872   4.275  14.288
74255W        W34000  36.591  41.500  14.386
74256W        W34001   5.408   3.736  10.482
74257W        W34002   1.313   9.678   3.169
74258W        W34003  29.648  37.034  10.933
74259W        W34004  37.002  37.973   4.774
74260W        W34005  24.225  20.034   2.211
74261W        W34006  22.155  18.200   0.796
74262W        W34007  28.114  34.030   4.599
74263W        W34008  11.187  23.591  10.892
74264W        W34009   5.326  21.225   2.179
74265W        W34010  44.406  15.282  12.481
74266W        W34011  32.492  22.045   3.735
74267W        W34012  16.221   5.381  12.842
74268W        W34013  17.612   2.302  14.466
74269W        W34014  34.430  19.221   0.819
74270W        W34015  16.598  20.691   2.250
74271W        W34016  31.497  27.652   1.311
74272W        W34017   8.790  33.116  11.115
74273W        W34018  40.452  23.236  11.416
74274W        W34019  32.970  34.935  12.971
74275W        W34020   2.914  30.635   2.843
74276W        W34021   0.768   0.379  11.591
74277W        W34022  11.746   1.332  13.891
74278W        W34023  36.076  12.626   2.808
74279W        W34024   8.198  41.032   1.419
74280W        W34025  27.544  31.126  14.800
74281W        W34026  42.908   8.380   4.125
74282W        W34027  37.045   7.301  12.906
74283W        W34028  41.403  18.760   5.192
74284W        W34029  36.878   0.363   1.236
74285W        W34030   5.302  13.798  12.060
74286W        W34031  19.780   9.368   1.319
74287W        W34032  34.434   6.417   0.759
74288W        W34033  42.521  12.205  10.991
74289W        W34034  14.329  16.594   0.889
74290W        W34035  13.632   7.233  11.082
74291W        W34036  32.907   8.336   0.883
74292W        W34037  40.006   3.803   2.835
74293W        W34038  20.058  37.349   4.225
74294W        W34039  40.827  33.126   0.274
74295W        W34040  24.116  19.766   4.817
74296W        W34041  27.524  31.145   9.454
74297W        W34042  34.559  29.961  13.813
74298W        W34043   7.402  39.451   1.699
74299W        W34044   3.439  14.182   0.468
74300W        W34045  25.111  38.957   1.931
74301W        W34046  21.743   3.756  13.914
74302W        W34047  22.561   7.312   0.299
74303W        W34048   1.381   5.431   4.198
74304W        W34049   1.798  15.650  11.067
74305W        W34050  17.722   0.872   2.883
74306W        W34051   2.837  22.554  10.150
74307W        W34052  21.072   1.968   0.808
74308W        W34053   6.816  27.956  12.907
74309W        W34054  28.111  40.329   0.338
74310W        W34055  35.893  18.778   2.848
74311W        W34056   7.876  39.524   1.322
74312W        W34057  38.447  42.463  11.028
74313W        W34058  17.698  19.122  12.492
74314W        W34059  26.134  21.685   3.731
74315W        W34060  23.688  33.483  12.363
74316W        W34061  31.019  41.526  13.991
74317W        W34062  35.935  16.767   4.280
74318W        W34063  29.071  44.763  11.933
74319W        W34064  15.182  15.290   2.218
74320W        W34065  14.223  17.140   0.796
74321W        W34066  15.584  14.324   0.766
74322W        W34067  29.559  38.854  11.562
74323W        W34068  15.224  11.299  13.046
74324W        W34069   5.898   4.442  13.348
74325W        W34070  18.582  38.831   5.157
74326W        W34071  22.080  36.577   3.147
74327W        W34072  15.675   5.798   4.266
74328W        W34073  43.344  10.800  11.042
74329W        W34074   6.399  29.504   2.227
74330W        W34075  40.379   2.347  12.939
74331W        W34076  33.907  32.434   3.190
74332W        W34077  36.375  31.140  13.533
74333W        W34078   0.862  27.492  13.465
74334W        W34079  29.434   7.765   0.356
74335W        W34080  15.212  25.191   2.715
74336W        W34081  38.883   4.815  11.102
74337W        W34082  23.150  36.023  14.453
74338W        W34083   9.235   0.903   0.739
74339W        W34084  34.549  44.919  10.895
74340W        W34085  13.323  27.098   4.201
74341W        W34086  19.533  23.200   0.370
74342W        W34087  39.897  40.813   3.826
74343W        W34088  18.562   4.314   3.706
74344W        W34089  33.916   2.299  11.115
74345W        W34090  42.513  19.189   2.259
74346W        W34091   0.823  17.197  12.867
74347W        W34092  36.053  39.372   0.833
74348W        W34093   6.783  40.396   0.366
74349W        W34094   3.825  12.671   1.402
74350W        W34095  23.185  14.171  10.916
74351W        W34096  41.485   7.350  14.791
74352W        W34097   6.207  32.443  13.999
74353W        W34098   3.244   8.782   0.866
74354W        W34099  37.492  31.081  12.892
74355W        W34100  10.269  29.487  14.443
74356W        W34101  12.810  44.497   0.335
74357W        W34102   0.248  24.701   1.380
74358W        W34103  29.496  42.393  12.460
74359W        W34104   0.385  25.989   4.250
74360W        W34105  10.174  42.003   2.666
74361W        W34106  32.407  40.960   3.645
74362W        W34107  12.772  13.281   2.239
74363W        W34108  39.871  31.998   1.855
74364W        W34109   2.275  20.103   5.696
74365W        W34110   7.902  23.027  14.514
74366W        W34111  33.126  25.126   3.386
74367W        W34112  24.592  17.680  10.944
74368W        W34113  29.589  42.997  11.867
74369W        W34114  16.239  24.014  13.962
74370W        W34115  30.908   3.228  10.603
74371W        W34116  41.814  26.979   1.417
74372W        W34117   1.328   9.258   3.360
74373W        W34118  28.113   7.821   0.740
74374W        W34119  23.054  30.658   0.376
74375W        W34120   5.770  10.794  11.477
74376W        W34121  40.994  32.142   1.354
74377W        W34122  21.647  12.296  12.452
74378W        W34123  17.572  27.475   4.697
74379W        W34124   5.833  42.287  14.292
74380W        W34125  35.547  25.087   2.365
74381W        W34126  32.571   1.807   4.600
74382W        W34127  18.745  38.970  13.517
74383W        W34128  29.171  15.325  12.004
74384W        W34129  22.127  19.237  14.347
74385W        W34130  37.865   0.952  14.834
74386W        W34131  35.416  10.239  13.017
74387W        W34132  28.110   6.832   9.534
74388W        W34133  28.549  18.552   0.896
74389W        W34134  11.203  40.999  10.410
74390W        W34135  10.222   6.716   4.326
74391W        W34136  39.947   2.247   3.255
74392W        W34137  21.166  30.597  11.933
74393W        W34138  25.664  15.261   1.820
74394W        W34139  30.115  19.228   2.240
74395W        W34140  23.554  42.994   3.204
74396W        W34141  36.907  33.100  11.939
74397W        W34142  10.236   9.212   3.255
74398W        W34143  30.620  12.790   2.751
74399W        W34144   5.254  12.237   1.358
74400W        W34145  37.554  29.953  14.908
74401W        W34146  11.194  18.770   0.426
74402W        W34147  34.970  33.878   0.383
74403W        W34148  20.254  36.534  10.405
74404W        W34149  20.127  34.446   4.598
74405W        W34150  16.220  43.394   4.152
74406W        W34151  33.975   3.317  11.099
74407W        W34152  41.392   5.837  11.979
74408W        W34153  38.491   2.762   3.819
74409W        W34154  16.224  38.571   5.135
74410W        W34155  44.265  31.061  13.017
74411W        W34156  24.135  33.065  14.306
74412W        W34157  13.169  39.558   2.363
74413W        W34158  28.523  10.662  12.066
74414W        W34159  14.157  14.819   0.962
74415W        W34160  28.184  10.751   2.705
74416W        W34161   0.762  15.738   1.700
74417W        W34162  26.959  33.979  11.924
74418W        W34163   9.659  35.039  12.960
74419W        W34164  14.149   6.766   3.221
74420W        W34165  17.117  36.851   2.763
74421W        W34166  15.118  24.557  12.066
74422W        W34167  22.155   0.263  11.379
74423W        W34168  36.995  13.781   2.193
74424W        W34169  18.687  16.110   0.791
74425W        W34170  28.963  26.201   4.725
74426W        W34171  27.993  34.507   3.337
74427W        W34172   3.924  19.144  13.507
74428W        W34173  44.499  19.169   2.752
74429W        W34174  14.830  43.772   2.357
74430W        W34175   8.785  17.596  13.432
74431W        W34176  40.804  39.451  10.460
74432W        W34177  10.704   8.731  13.536
74433W        W34178  12.212  39.373  14.375
74434W        W34179  40.024  28.025  13.434
74435W        W34180  30.618  31.935  13.505
74436W        W34181   6.271  36.480  10.914
74437W        W34182  39.008   7.886  10.578
74438W        W34183  36.537  18.243   0.927
74439W        W34184   3.257  22.183  12.563
74440W        W34185  19.724  28.117   1.330
74441W        W34186  13.807  13.111  14.472
74442W        W34187  16.296  35.567   0.781
74443W        W34188  28.173  33.043   2.885
74444W        W34189  21.168  10.774  12.857
74445W        W34190  36.085  28.672   4.157
74446W        W34191   4.270  16.278  14.455
74447W        W34192  40.346  13.306  13.411
74448W        W34193  35.587  38.395   3.272
74449W        W34194  28.929   0.280   0.947
74450W        W34195   2.856  40.888   3.818
74451W        W34196  36.080  25.526  14.300
74452W        W34197  40.828   9.705   3.341
74453W        W34198   0.434  29.962  14.422
74454W        W34199   6.189  31.058  13.833
74455W        W34200  27.970  39.525  14.484
74456W        W34201  16.595  19.042  11.123
74457W        W34202  10.285  20.065   1.776
74458W        W34203  34.396  30.990  10.130
74459W        W34204  35.871  17.781   4.696
74460W        W34205   7.870  29.553  14.487
74461W        W34206  20.103  29.611  14.475
74462W        W34207  14.197   1.817   9.946
74463W        W34208  36.064   5.907   3.179
74464W        W34209  39.437   5.851   4.263
74465W        W34210   4.897  40.416  12.463
74466W        W34211  17.749  42.302   1.402
74467W        W34212  28.591  31.104   0.810
74468W        W34213  41.988   7.348   3.752
74469W        W34214  13.266  13.619   2.238
74470W        W34215  11.747   8.206   2.337
74471W        W34216  24.612   1.828   0.928
74472W        W34217  36.042  22.109  14.942
74473W        W34218  23.605  28.512  12.929
74474W        W34219  40.313  27.021  11.893
74475W        W34220   8.284  22.669   0.766
74476W        W34221  13.637   6.322  13.900
74477W        W34222   9.195  12.276   3.314
74478W        W34223  34.863  43.894   0.772
74479W        W34224  24.597  27.607   1.932
74480W        W34225  35.891  21.725  11.905
74481W        W34226  32.140  29.127   2.759
74482W        W34227  30.004  29.169  12.448
74483W        W34228  27.099  21.673   2.387
74484W        W34229  11.808  15.690   5.275
74485W        W34230  11.701  21.675   0.267
74486W        W34231  28.660  40.522  12.845
74487W        W34232  18.609  26.020   2.234
74488W        W34233  33.406   7.727  12.089
74489W        W34234   1.791  12.659   3.686
74490W        W34235  10.219  33.472   2.216
74491W        W34236  39.887  16.621   2.191
74492W        W34237  43.339  42.333   1.784
74493W        W34238   0.778  31.576   1.252
74494W        W34239  29.474  38.913   0.862
74495W        W34240  41.380   5.300  14.941
74496W        W34241  10.761  34.876  14.303
74497W        W34242  40.512  23.685  10.117
74498W        W34243  38.012  39.007  13.860
74499W        W34244   6.874  41.482  11.023
74500W        W34245  15.193   7.222  13.854
74501W        W34246   9.669   9.237   0.882
74502W        W34247  29.084  29.988  11.027
74503W        W34248   8.885   0.316  10.633
74504W        W34249   8.187  18.693  13.801
74505W        W34250  15.824  26.544   1.244
74506W        W34251  26.112  26.558   1.827
74507W        W34252  17.633  17.609  11.570
74508W        W34253  21.231  12.809   1.815
74509W        W34254  27.038  17.204  10.601
74510W        W34255  10.797  33.091  14.820
74511W        W34256  42.435  18.231   1.376
74512W        W34257   8.263  10.218   3.720
74513W        W34258  16.813  24.516  13.545
74514W        W34259  21.213  32.434  14.956
74515W        W34260  32.060  20.712  14.904
74516W        W34261  27.510  41.890   0.774
74517W        W34262  22.031   0.404  10.601
74518W        W34263   8.750  27.508  11.484
74519W        W34264  37.008  35.554  13.929
74520W        W34265  31.478  44.402  11.992
74521W        W34266  36.988  25.619  10.501
74522W        W34267  11.755   9.715  11.609
74523W        W34268  36.396  19.197  10.577
74524W        W34269  43.299  40.355  11.954
74525W        W34270  15.107   1.950   1.773
74526W        W34271  20.144  37.042  11.121
74527W        W34272  25.602  37.035  10.606
74528W        W34273   2.232  33.897  13.046
74529W        W34274  44.791   3.448  13.521
74530W        W34275   4.826   6.695  11.407
74531W        W34276  36.036  31.923   2.702
74532W        W34277  32.510  35.965   1.915
74533W        W34278  39.884   5.303  11.555
74534W        W34279  26.660  10.139  14.317
74535W        W34280   2.368   6.352   0.749
74536W        W34281  16.153  38.865   4.254
74537W        W34282  19.148  32.113   5.181
74538W        W34283   8.342  12.175  11.875
74539W        W34284  19.133  33.096   1.821
74540W        W34285   5.380  26.989  12.555
74541W        W34286  14.240   4.764   9.993
74542W        W34287  34.398  11.863  13.431
74543W        W34288  25.598  13.182   3.197
74544W        W34289  26.604  23.568  11.060
74545W        W34290  33.588  17.594  13.547
74546W        W34291  27.110  43.815  13.030
74547W        W34292  41.909   0.958  10.592
74548W        W34293   3.295  37.433  14.296
74549W        W34294  34.432  38.023  11.011
74550W        W34295  28.674  42.004  12.871
74551W        W34296  33.956   5.382   4.723
74552W        W34297  33.581   1.442  10.919
74553W        W34298  41.038  17.564   0.906
74554W        W34299  35.957  44.794  12.920
74555W        W34300  30.424  34.545   3.843
74556W        W34301  30.937  44.355  10.056
74557W        W34302   2.379  44.419   1.378
74558W        W34303   5.272  29.661   0.318
74559W        W34304  36.541   5.771  11.098
74560W        W34305  15.595  21.599  13.029
74561W        W34306  34.476   6.771  10.992
74562W        W34307  16.307   2.873  14.779
74563W        W34308  38.918  11.188  12.920
74564W        W34309  21.245  11.787  10.913
74565W        W34310   5.801   4.778  11.455
74566W        W34311  37.029  27.477  11.975
74567W        W34312   6.748  37.468   3.273
74568W        W34313  28.464  40.323   4.743
74569W        W34314  39.055  40.831  11.584
74570W        W34315   2.378  44.962  11.388
74571W        W34316  38.414  18.094   1.247
74572W        W34317  35.104  42.010  11.902
74573W        W34318   2.305   4.739  13.539
74574W        W34319  15.616   1.339  12.092
74575W        W34320   9.151  19.685  12.490
74576W        W34321  31.595  15.664   1.844
74577W        W34322  33.999  27.618   3.295
74578W        W34323  34.385  40.000  10.501
74579W        W34324  13.602  16.813   3.773
74580W        W34325  27.559  10.689   4.781
74581W        W34326  11.843   6.332   2.209
74582W        W34327  36.976   8.264  11.068
74583W        W34328  34.874  29.452  11.975
74584W        W34329  10.292  41.887   0.433
74585W        W34330   6.693   9.326   2.804
74586W        W34331  19.231  43.316   3.330
74587W        W34332  42.996   7.718   1.886
74588W        W34333  42.402  27.565   1.769
74589W        W34334  23.044  34.912  12.539
74590W        W34335  22.191  23.569  12.903
74591W        W34336  12.140  32.532   0.316
74592W        W34337  25.580   2.443   2.221
74593W        W34338  21.740  26.176   3.759
74594W        W34339   5.275   6.259   0.255
74595W        W34340  28.574  26.576   0.795
74596W        W34341  23.093   7.273   4.774
74597W        W34342  13.819  18.235   4.815
74598W        W34343  13.813  25.646   4.675
74599W        W34344  22.641  17.233   5.147
74600W        W34345  29.973  14.615   4.774
74601W        W34346   1.390  23.568   1.701
74602W        W34347   5.236  23.096   3.832
74603W        W34348  12.768   7.377  10.604
74604W        W34349   7.852   8.398   0.800
74605W        W34350  34.407  11.175  14.395
74606W        W34351  26.968  23.138   3.690
74607W        W34352  32.113  25.066   3.663
74608W        W34353  37.934  43.796   3.684
74609W        W34354  32.498  29.668   1.297
74610W        W34355  25.651  26.096   0.405
74611W        W34356  41.043  32.066  11.540
74612W        W34357  19.234   4.757   3.344
74613W        W34358  22.528  40.500   0.737
74614W        W34359  17.656  40.873  10.970
74615W        W34360  38.020  14.144   2.394
74616W        W34361  35.877  17.779   2.222
74617W        W34362  44.918   5.766   1.360
74618W        W34363  24.617  19.045   0.337
74619W        W34364  29.611  27.448  12.994
74620W        W34365  39.818  12.802  12.495
74621W        W34366  32.998  10.139  14.994
74622W        W34367   6.185   7.367  12.924
74623W        W34368  34.085  44.267   3.699
74624W        W34369  26.146  20.656  11.126
74625W        W34370  23.683  35.534   2.838
74626W        W34371  42.515  43.429   2.221
74627W        W34372  12.654   8.279   0.321
74628W        W34373  24.693  19.175  11.938
74629W        W34374  12.662  14.756   1.723
74630W        W34375   1.758  25.483   0.275
74631W        W34376  12.713  26.526  14.020
74632W        W34377  43.999  15.222   4.299
74633W        W34378  12.288  13.155   2.275
74634W        W34379  22.738   0.250  13.916
74635W        W34380   5.354  15.693   3.659
74636W        W34381  15.121  16.661  12.961
74637W        W34382  12.262   3.243  13.997
74638W        W34383  13.109  11.341  11.084
74639W        W34384  41.788  38.412   1.723
74640W        W34385  23.032  31.637  12.993
74641W        W34386  19.075   6.331  13.531
74642W        W34387  34.007  42.983  12.937
74643W        W34388  38.907   3.948  12.870
74644W        W34389  27.478  23.218   4.114
74645W        W34390   4.849  39.977  12.854
74646W        W34391   5.421  26.686  14.845
74647W        W34392  20.206  30.050   0.874
74648W        W34393  41.523  13.161  10.514
74649W        W34394  21.602  32.435  14.485
74650W        W34395   3.712   7.740   4.646
74651W        W34396  12.297  31.639   3.695
74652W        W34397   4.217  10.846  11.561
74653W        W34398  42.876   5.830  11.434
74654W        W34399  15.250  19.667  14.888
74655W        W34400  32.595  40.879   1.694
74656W        W34401  37.469  29.099   4.735
74657W        W34402  37.360  25.583   0.829
74658W        W34403  29.155  43.015  13.314
74659W        W34404  38.330  42.444  11.437
74660W        W34405  22.096  14.773   0.922
74661W        W34406  35.907  30.479   0.320
74662W        W34407  13.209   5.749  14.814
74663W        W34408   5.195   6.709   4.351
74664W        W34409  10.676  21.146  12.499
74665W        W34410  16.743  40.477   0.435
74666W        W34411  17.603  30.025  11.595
74667W        W34412  37.043  18.120   1.362
74668W        W34413  25.508   4.363   4.206
74669W        W34414   4.308  37.551   3.308
74670W        W34415  44.002  16.163  14.866
74671W        W34416   2.346  38.523   1.255
74672W        W34417  27.051  19.185  12.843
74673W        W34418  22.699  34.891  13.816
74674W        W34419  41.316  17.301   1.754
74675W        W34420   8.771   5.702   4.259
74676W        W34421  39.013  27.499  10.568
74677W        W34422   4.866   0.893   4.216
74678W        W34423  10.855   6.194   4.331
74679W        W34424  37.893  36.405   3.693
74680W        W34425  34.394  36.366  12.431
74681W        W34426  13.189   9.154  14.938
74682W        W34427  35.434  31.110   2.205
74683W        W34428  16.810  17.201  10.406
74684W        W34429  34.534  36.095   3.307
74685W        W34430   0.849  22.135  12.449
74686W        W34431  42.887  10.187   0.427
74687W        W34432   2.916   8.891   0.728
74688W        W34433  32.995  39.428   3.848
74689W        W34434  29.919   8.732  14.449
74690W        W34435  17.101  20.102  14.431
74691W        W34436   6.288  36.023  10.459
74692W        W34437  23.042  44.281  14.961
74693W        W34438  31.990  26.537  14.957
74694W        W34439  23.999  22.708  12.986
74695W        W34440  24.531  24.678   1.720
74696W        W34441  38.050  19.578   2.801
74697W        W34442  35.945  40.969  11.028
74698W        W34443  41.985  40.547  13.945
74699W        W34444  41.410   5.356   1.399
74700W        W34445   3.282  43.866  14.860
74701W        W34446  10.253  21.203  12.344
74702W        W34447  34.440  25.970   4.198
74703W        W34448  35.063  32.403  11.609
74704W        W34449  14.779  32.906   2.892
74705W        W34450  41.405  30.593   2.401
74706W        W34451  28.669  26.688   2.226
74707W        W34452  18.558  19.699   4.829
74708W        W34453   5.407   7.775   1.366
74709W        W34454  15.712  32.406  13.034
74710W        W34455   2.855  21.017  14.487
74711W        W34456  25.626  13.831   2.863
74712W        W34457   1.881  30.549  12.987
74713W        W34458  39.851  40.862  14.495
74714W        W34459  22.567  39.411  13.435
74715W        W34460  14.799  17.243   2.384
74716W        W34461   1.260   2.361  13.350
74717W        W34462  40.845   5.765  11.021
74718W        W34463  21.676  21.579  13.927
74719W        W34464  27.063  20.608   3.264
74720W        W34465  25.078   5.267   0.460
74721W        W34466  37.924  41.816   3.306
74722W        W34467  30.576  40.329  11.043
74723W        W34468  33.502  23.143   0.879
74724W        W34469   3.442  23.099   4.752
74725W        W34470  40.909  37.475   0.419
74726W        W34471  24.220  37.072   3.207
74727W        W34472  44.832  40.841  12.019
74728W        W34473  13.749  16.712  13.547
74729W        W34474  11.804  27.604  13.511
74730W        W34475  26.126  42.310   3.818
74731W        W34476  17.281  15.165   2.230
74732W        W34477  10.812   4.779   2.718
74733W        W34478  10.701  38.931  12.862
74734W        W34479  19.539  25.003   0.749
74735W        W34480  34.460  21.020   1.404
74736W        W34481  30.537  36.481   4.281
74737W        W34482  40.501   1.309   1.325
74738W        W34483   4.246  15.710  14.473
74739W        W34484  22.222  41.912   2.227
74740W        W34485  37.441  13.750  11.576
74741W        W34486  35.534  18.142   3.294
74742W        W34487  37.918  37.411   1.859
74743W        W34488  35.458  14.674  10.558
74744W        W34489  27.112  44.907  14.028
74745W        W34490  34.984  10.640   3.722
74746W        W34491  28.996  43.858  13.334
74747W        W34492   1.737   3.388  12.044
74748W        W34493  32.065  43.986   9.960
74749W        W34494   5.840  25.569  10.523
74750W        W34495  27.107  34.427   1.234
74751W        W34496  17.230   2.410  14.013
74752W        W34497   3.770   2.303   1.351
74753W        W34498  42.786   5.906   0.282
74754W        W34499  24.027   9.702   4.679
74755W        W34500  32.045  14.173   2.891
74756W        W34501  32.910  10.724   2.803
74757W        W34502   9.866  26.046   2.876
74758W        W34503  32.476  35.534   2.733
74759W        W34504   6.419  25.170  12.898
74760W        W34505  12.757   3.279  11.530
74761W        W34506   7.219  25.482   2.187
74762W        W34507   3.223   9.676   2.361
74763W        W34508  33.385  10.712   1.387
74764W        W34509  42.889   4.772   3.651
74765W        W34510  43.871   5.818  11.952
74766W        W34511  26.553  40.805  10.475
74767W        W34512  43.271  14.199   0.779
74768W        W34513  18.656  21.735   4.724
74769W        W34514   4.257   3.931  10.492
74770W        W34515  10.168  21.125   1.323
74771W        W34516  33.584  18.088   5.183
74772W        W34517   5.775  34.077  14.879
74773W        W34518  20.171  18.249  14.803
74774W        W34519   9.868   2.244   0.897
74775W        W34520  29.649  21.213   2.245
74776W        W34521  36.965  22.154   2.181
74777W        W34522   2.845  39.819   3.790
74778W        W34523  29.517  20.571   9.481
74779W        W34524   4.780  25.551   1.314
74780W        W34525  41.933  34.596  11.440
74781W        W34526  20.130  37.529  13.022
74782W        W34527  39.531  21.644  14.300
74783W        W34528  29.663   6.698  11.418
74784W        W34529   4.273  19.171  14.301
74785W        W34530  36.389   6.313   5.169
74786W        W34531   7.910  32.103   3.710
74787W        W34532  26.192  13.287   1.249
74788W        W34533   2.351   4.251   3.299
74789W        W34534  17.222  32.038  10.026
74790W        W34535  29.478  40.388  11.589
74791W        W34536  23.492  42.984  10.902
74792W        W34537  32.484  43.278  14.989
74793W        W34538   7.759  38.864   2.253
74794W        W34539  40.530   6.813   4.114
74795W        W34540  10.868   3.244  13.806
74796W        W34541  33.980   5.390   3.870
74797W        W34542   6.416  17.250  14.454
74798W        W34543   0.471  41.837  13.432
74799W        W34544  28.589  36.375   3.732
74800W        W34545  30.117  10.187   2.396
74801W        W34546   3.270   3.383  10.579
74802W        W34547  20.605  12.745   0.318
74803W        W34548  34.038   3.425   4.760
74804W        W34549  26.476  33.970   4.198
74805W        W34550  25.649  17.772  12.525
74806W        W34551  18.733  27.687   1.919
74807W        W34552   7.879  17.590   2.813
74808W        W34553  21.625  42.286  13.540
74809W        W34554  21.541  12.202  14.490
74810W        W34555  17.179  25.480   0.872
74811W        W34556  12.698  34.464  12.538
74812W        W34557  36.548  23.603  11.023
74813W        W34558  18.056   4.911  14.492
74814W        W34559  34.054   1.746   4.219
74815W        W34560  28.106   5.217  14.498
74816W        W34561  42.815  10.823  14.002
74817W        W34562  15.793   2.756   2.799
74818W        W34563  30.645  16.772   1.406
74819W        W34564  24.711  10.266   3.713
74820W        W34565  31.920   8.405  13.481
74821W        W34566  39.964  32.394   1.341
74822W        W34567   9.273   2.257  13.888
74823W        W34568  38.521   9.154   4.775
74824W        W34569  35.550  43.857  13.461
74825W        W34570  18.776  20.144   4.646
74826W        W34571   8.192   9.706   3.770
74827W        W34572   9.165  18.217  13.437
74828W        W34573  16.721  41.421   0.745
74829W        W34574  30.626   7.253  13.335
74830W        W34575  13.282  18.217  13.824
74831W        W34576  29.062  28.631  11.395
74832W        W34577  25.542   5.830   0.437
74833W        W34578  37.951  23.573   2.817
74834W        W34579  33.022  37.475   2.265
74835W        W34580  38.558  28.120   3.697
74836W        W34581  22.054  41.525  13.528
74837W        W34582  42.441  19.190   1.223
74838W        W34583  25.166  17.065   2.712
74839W        W34584  10.767  11.726  14.969
74840W        W34585  20.207  14.727   1.347
74841W        W34586  25.574  33.562   0.442
74842W        W34587  11.311  21.164  13.981
74843W        W34588   9.761   7.192   3.342
74844W        W34589  27.553   9.791   4.631
74845W        W34590  44.888  44.966   1.809
74846W        W34591  39.860   4.882   1.343
74847W        W34592   6.718   5.364   4.349
74848W        W34593   7.322  15.652  14.918
74849W        W34594  33.616  18.144  12.470
74850W        W34595  41.459  34.974   0.945
74851W        W34596  31.100  42.518   3.216
74852W        W34597  19.650  23.146  10.644
74853W        W34598  11.670   7.193  14.014
74854W        W34599  34.480   8.301  13.426
74855W        W34600  10.243  37.344   0.402
74856W        W34601  39.830  28.618  11.432
74857W        W34602   8.334  37.888  11.107
74858W        W34603  38.841   4.320   4.285
74859W        W34604  43.793  38.472   9.962
74860W        W34605   6.915  32.632   0.461
74861W        W34606   3.719  38.420  14.409
74862W        W34607  31.477   4.825  10.531
74863W        W34608  34.934  30.630   3.273
74864W        W34609  43.366  22.567  12.904
74865W        W34610  40.454  37.482   1.911
74866W        W34611  13.813   8.667   4.232
74867W        W34612  32.950  34.550  14.788
74868W        W34613  21.051  23.084  14.424
74869W        W34614  42.944  14.723   1.427
74870W        W34615   2.452  14.632  11.071
74871W        W34616  18.666  24.708   2.254
74872W        W34617  43.781   9.186   2.315
74873W        W34618  25.662   1.878   5.307
74874W        W34619  14.638   7.331   3.282
74875W        W34620  18.194  37.833  10.575
74876W        W34621   0.864  31.068   4.219
74877W        W34622  10.337  15.742   0.885
74878W        W34623  29.558   7.873  12.475
74879W        W34624  35.016  36.443  14.433
74880W        W34625  25.548  13.154   1.812
74881W        W34626  11.313  32.053   0.242
74882W        W34627  15.237  26.484  11.440
74883W        W34628  30.045  25.127   4.648
74884W        W34629  22.740   5.260   5.141
74885W        W34630   1.856  27.146  13.455
74886W        W34631  18.550   7.705   2.755
74887W        W34632   7.687  35.893  10.498
74888W        W34633  36.424  18.268   9.499
74889W        W34634  44.788  19.175   1.731
74890W        W34635  25.548  37.468   1.374
74891W        W34636   8.236  24.981   0.954
74892W        W34637  35.091  13.216  13.431
74893W        W34638  23.605   6.195  13.322
74894W        W34639  27.097  33.084   2.407
74895W        W34640  40.435  28.165  14.812
74896W        W34641  21.642  18.640   1.774
74897W        W34642   0.287  20.592  12.384
74898W        W34643  44.453  11.243   4.803
74899W        W34644  22.147  14.143  12.552
74900W        W34645  44.901  18.058   1.772
74901W        W34646  31.010   7.187   4.808
74902W        W34647  11.279  26.070  12.997
74903W        W34648  16.249  41.851   4.224
74904W        W34649   9.176  25.710  14.857
74905W        W34650  12.682   8.372  12.991
74906W        W34651  24.048   7.905   3.715
74907W        W34652  20.262  30.539   4.633
74908W        W34653  37.839   5.416  13.799
74909W        W34654  42.925  27.522   2.184
74910W        W34655  27.966  12.619  10.132
74911W        W34656   1.789  24.068  10.583
74912W        W34657  28.121   0.328   1.326
74913W        W34658   2.959  21.576   9.984
74914W        W34659  42.466   1.398  10.446
74915W        W34660  36.876   4.354  13.391
74916W        W34661  20.755  10.855   0.309
74917W        W34662  38.985  12.251  13.525
74918W        W34663  23.718  43.359   3.172
74919W        W34664  14.757  35.462   1.294
74920W        W34665  19.052  22.076   4.705
74921W        W34666  32.596  10.175   2.786
74922W        W34667  12.251  24.017   0.332
74923W        W34668  33.402  12.261   0.741
74924W        W34669  29.022  40.860  13.465
74925W        W34670   0.851  27.037  11.027
74926W        W34671  20.528  17.631   3.331
74927W        W34672  24.116  16.740   3.188
74928W        W34673  29.000  24.575   1.433
74929W        W34674   0.800   5.763   3.307
74930W        W34675  28.626  30.941  13.845
74931W        W34676  14.270  30.478   2.381
74932W        W34677  12.828   8.360  14.811
74933W        W34678  35.435  16.673   1.920
74934W        W34679  36.089  42.364   2.206
74935W        W34680  26.595  11.678  12.536
74936W        W34681   5.793  12.687  12.536
74937W        W34682   7.793  26.026   1.761
74938W        W34683   1.260  27.944  13.989
74939W        W34684  44.451  16.239   0.919
74940W        W34685  39.363  23.128  11.592
74941W        W34686   3.807  37.413  13.435
74942W        W34687  24.062  18.088   5.082
74943W        W34688  28.647   4.446  11.466
74944W        W34689  10.212  26.142   4.794
74945W        W34690  33.029  34.042  12.453
74946W        W34691  35.008  35.423   1.714
74947W        W34692  19.141  21.058   1.773
74948W        W34693  31.049  22.649  10.410
74949W        W34694  30.656  16.228   0.402
74950W        W34695   3.803  14.167   2.367
74951W        W34696   0.794  32.561   3.380
74952W        W34697  28.932  32.130  12.881
74953W        W34698  29.139  32.024   0.960
74954W        W34699  38.934  20.751   1.438
74955W        W34700   3.716  31.092  10.134
74956W        W34701  10.874  10.869   1.879
74957W        W34702  21.219  33.110   1.921
74958W        W34703  42.775  30.543  12.375
74959W        W34704  39.835  29.664   4.251
74960W        W34705  20.553  22.515  12.843
74961W        W34706  16.185  28.064  10.986
74962W        W34707  37.381  15.177  11.990
74963W        W34708  26.129  37.563   2.862
74964W        W34709  38.402   9.723   1.788
74965W        W34710  19.063  38.898   4.676
74966W        W34711  28.596  25.069   4.632
74967W        W34712   8.321  11.291  12.392
74968W        W34713  33.888   6.751   3.699
74969W        W34714   7.825   6.844  11.494
74970W        W34715  33.946  29.925  11.104
74971W        W34716  15.655   5.726   4.716
74972W        W34717  44.438  14.185  13.396
74973W        W34718  38.966  20.528   3.152
74974W        W34719  41.882  35.864  13.879
74975W        W34720  38.488  21.606  11.120
74976W        W34721  44.003  34.539  10.524
74977W        W34722  43.983  10.273  14.451
74978W        W34723  44.390  18.110   1.697
74979W        W34724  19.200  21.118  13.923
74980W        W34725  25.153  25.712   1.352
74981W        W34726  11.188  38.047   4.193
74982W        W34727  15.788   3.942   0.747
74983W        W34728   4.872  35.427  13.372
74984W        W34729  12.315  16.140  11.471
74985W        W34730  38.398  24.488   3.374
74986W        W34731  31.104  44.373  14.928
74987W        W34732  23.134  24.993  13.035
74988W        W34733  37.856   7.300  14.293
74989W        W34734  12.716   9.653  10.483
74990W        W34735  25.605  34.507   0.329
74991W        W34736   3.397  28.447  12.552
74992W        W34737  20.106  13.165  14.479
74993W        W34738  31.034  29.443   0.349
74994W        W34739  10.153  21.645   4.682
74995W        W34740  32.574  42.377  11.859
74996W        W34741  19.271  42.381  14.436
74997W        W34742   9.711   6.211  11.964
74998W        W34743  26.578  38.902  14.895
74999W        W34744  10.221   3.714  14.968
75000W        W34745   5.896  15.625  11.925
75001W        W34746   2.825  26.528   0.854
75002W        W34747  28.659  42.908   2.207
75003W        W34748  32.417  26.631   3.736
75004W        W34749  37.956  16.143   4.764
75005W        W34750  11.660  25.578  13.517
75006W        W34751   0.859  23.173   1.772
75007W        W34752  28.641  36.006  14.847
75008W        W34753  18.697  23.228   1.854
75009W        W34754  23.098  14.339  13.809
75010W        W34755  33.877  12.179   1.743
75011W        W34756  17.294  24.587  13.960
75012W        W34757  38.027  11.203   1.355
75013W        W34758  41.939  43.898   2.813
75014W        W34759  43.810  22.603  11.565
75015W        W34760  36.464  40.379   1.434
75016W        W34761  14.222  16.701  13.848
75017W        W34762  24.673  11.664   4.684
75018W        W34763  28.468   8.232   1.696
75019W        W34764  39.481  26.175   0.400
75020W        W34765  44.435  10.245   3.861
75021W        W34766  28.035  25.475  13.853
75022W        W34767  21.200   7.228   4.615
75023W        W34768  34.500  31.020  12.511
75024W        W34769   8.766  34.572  12.910
75025W        W34770  21.244  24.180  11.967
75026W        W34771  11.238  37.995  11.074
75027W        W34772  10.319   9.668  10.596
75028W        W34773  20.525  18.083   4.127
75029W        W34774  17.668  10.260  12.461
75030W        W34775  12.838   4.238   3.814
75031W        W34776  21.145  24.169   0.915
75032W        W34777  19.644  37.991   4.600
75033W        W34778  37.527   6.715  13.413
75034W        W34779  12.709   0.474  11.990
75035W        W34780  18.619  20.059   1.862
75036W        W34781  23.517  21.040   4.688
75037W        W34782  30.909  34.888   1.430
75038W        W34783   3.283   2.405  12.942
75039W        W34784  38.438   6.894  13.822
75040W        W34785  19.129  35.576  11.612
75041W        W34786  30.915  14.230  10.911
75042W        W34787  39.449   3.825   3.154
75043W        W34788  14.810  42.878   0.833
75044W        W34789  34.396  18.239  14.824
75045W        W34790  26.516   7.815   4.683
75046W        W34791  31.477  34.435  14.794
75047W        W34792  17.200   3.754   0.362
75048W        W34793   7.222  34.527   4.625
75049W        W34794  28.065   7.264  10.049
75050W        W34795  11.158  23.048  10.435
75051W        W34796  26.484   4.882   5.159
75052W        W34797  19.682   5.312   3.366
75053W        W34798  25.553  23.148   3.351
75054W        W34799  15.101   4.704   1.210
75055W        W34800   9.732  17.186  10.565
75056W        W34801  22.152   6.364  12.427
75057W        W34802  37.482  40.369  14.852
75058W        W34803  30.009  33.967   2.727
75059W        W34804  26.703  36.888   4.606
75060W        W34805   0.336  24.593   2.264
75061W        W34806  32.430  38.833   1.822
75062W        W34807  19.163   9.320   3.315
75063W        W34808  26.178  34.089   1.751
75064W        W34809  23.714  21.696   4.261
75065W        W34810  10.257  11.296  14.922
75066W        W34811   6.332  17.228  12.568
75067W        W34812  40.036  15.602  13.467
75068W        W34813  12.711  44.372  14.446
75069W        W34814  31.586  26.141   9.544
75070W        W34815  34.914  36.071  13.384
75071W        W34816  16.266   3.881  11.963
75072W        W34817   3.756  11.733  12.497
75073W        W34818  17.669  32.050   4.161
75074W        W34819   5.261  44.847  11.417
75075W        W34820   8.233  34.863   0.819
75076W        W34821   1.319   5.912   2.270
75077W        W34822   5.735  10.241  11.080
75078W        W34823   5.786  22.547  12.418
75079W        W34824  29.112  25.592  11.881
75080W        W34825  22.520  23.083  10.078
75081W        W34826  16.713  36.586  14.956
75082W        W34827  35.435   9.819  11.065
75083W        W34828  31.902  14.170   0.841
75084W        W34829  23.639  40.343  13.968
75085W        W34830  29.176  39.924  12.446
75086W        W34831  11.311  18.211   2.237
75087W        W34832  39.391  41.512   2.280
75088W        W34833   1.962  10.832   3.833
75089W        W34834  22.693  31.076  14.802
75090W        W34835   8.389  36.908  12.937
75091W        W34836  18.660  37.980   2.790
75092W        W34837  20.051  34.059  14.432
75093W        W34838  16.770  26.037  10.523
75094W        W34839  26.119  12.736   0.746
75095W        W34840  27.188  10.283  11.964
75096W        W34841  25.190  41.986  14.318
75097W        W34842  23.576   1.463   0.761
75098W        W34843  25.541  28.457  13.033
75099W        W34844  34.896  26.172   3.809
75100W        W34845  14.636  22.208  10.586
75101W        W34846  23.512  30.146  12.466
75102W        W34847  42.519  19.547  10.436
75103W        W34848  39.063  31.084   3.746
75104W        W34849  13.237  24.204   0.246
75105W        W34850  23.105   6.304   4.345
75106W        W34851   7.335  13.842  12.952
75107W        W34852  38.558   4.863  12.558
75108W        W34853  26.511   6.289   1.795
75109W        W34854  23.087  29.443   3.379
75110W        W34855  37.928  39.912  11.886
75111W        W34856  38.982  13.162  14.281
75112W        W34857  17.714  40.412  14.407
75113W        W34858  26.057  29.462   4.820
75114W        W34859  28.106  43.316  11.065
75115W        W34860  22.641  36.996   0.847
75116W        W34861  27.017   8.243   2.377
75117W        W34862  36.359  42.869  10.937
75118W        W34863   3.825  17.070   3.317
75119W        W34864   2.803  43.859  13.453
75120W        W34865   2.914  29.986   0.463
75121W        W34866  42.853  35.595   4.208
75122W        W34867  10.251  34.074  14.000
75123W        W34868  22.577   4.711   2.789
75124W        W34869  34.612  25.658   3.827
75125W        W34870  11.317  13.724  13.012
75126W        W34871  19.590   8.853   1.388
75127W        W34872  15.641   5.871  13.338
75128W        W34873  25.029  14.755  12.896
75129W        W34874  38.962  31.107  14.461
75130W        W34875   8.735  25.660  11.498
75131W        W34876  17.194  17.653  14.820
75132W        W34877  26.598  18.144  13.432
75133W        W34878  14.241  40.318   9.995
75134W        W34879  35.960  14.591  13.339
75135W        W34880  40.400  38.017  12.080
75136W        W34881  29.053  27.563  13.325
75137W        W34882  15.648  24.483   0.805
75138W        W34883  31.964  11.665   2.827
75139W        W34884  27.100  41.839   3.156
75140W        W34885  24.019  18.640   1.716
75141W        W34886   3.820  15.684  11.877
75142W        W34887   4.924  44.383   1.447
75143W        W34888  29.173   9.855  12.899
75144W        W34889  44.974   3.367   2.409
75145W        W34890  15.805  14.751  11.427
75146W        W34891   2.767  31.491  12.455
75147W        W34892  26.464  33.990   0.360
75148W        W34893   2.762  10.664   2.761
75149W        W34894  41.532  29.991   0.288
75150W        W34895  41.961  41.964   1.220
75151W        W34896  10.852  42.484  14.362
75152W        W34897  30.062  23.191   2.716
75153W        W34898   4.216  24.012   1.886
75154W        W34899  29.936  43.364   3.843
75155W        W34900  41.343  24.480   0.824
75156W        W34901  28.573  39.357  12.893
75157W        W34902   0.888  21.247  13.468
75158W        W34903  15.242  21.033   3.658
75159W        W34904  43.422  32.620   3.282
75160W        W34905   4.741  43.906   9.988
75161W        W34906  36.871   5.773  14.007
75162W        W34907  37.367  44.988   3.236
75163W        W34908  15.302  21.233  11.579
75164W        W34909   1.317   7.248   0.881
75165W        W34910  40.463  29.099   0.335
75166W        W34911  17.214   9.369  11.066
75167W        W34912  34.081  10.715  10.467
75168W        W34913  25.525  27.448  14.961
75169W        W34914   3.844  44.876  11.103
75170W        W34915  20.219  19.536   0.800
75171W        W34916  26.092  17.135   1.772
75172W        W34917   9.228   7.307  14.299
75173W        W34918  26.187  27.167   3.845
75174W        W34919  26.195  39.421  11.005
75175W        W34920  15.100  26.669  10.069
75176W        W34921  17.672   5.722  11.465
75177W        W34922  17.616  16.596   3.854
75178W        W34923  31.060  43.989  13.456
75179W        W34924   5.814  20.694  10.521
75180W        W34925  27.188  17.743  14.377
75181W        W34926  32.013  25.665  10.890
75182W        W34927  27.629  16.157  13.388
75183W        W34928   2.317   4.733   0.421
75184W        W34929  38.453  14.220   0.867
75185W        W34930  13.608  18.146   0.472
75186W        W34931  35.940  35.946  13.376
75187W        W34932  37.487  33.555   0.769
75188W        W34933  30.537  41.812   2.307
75189W        W34934  34.090  31.431  11.969
75190W        W34935  35.561  30.002  11.880
75191W        W34936  37.430  33.065  11.004
75192W        W34937   4.736  19.227   2.855
75193W        W34938  13.674  42.830  14.970
75194W        W34939  31.976   3.917   3.168
75195W        W34940  44.861  12.773  12.576
75196W        W34941   6.235  39.812   0.428
75197W        W34942  27.612  16.180  10.964
75198W        W34943  24.507   5.369   0.312
75199W        W34944  28.022  34.529   4.183
75200W        W34945  34.999  30.436   0.312
75201W        W34946  10.800  13.288   2.816
75202W        W34947  41.368  16.756  13.439
75203W        W34948  20.247   1.789   1.777
75204W        W34949  19.772   3.269   4.241
75205W        W34950  26.670  43.932   2.709
75206W        W34951  34.513  31.645   4.232
75207W        W34952  22.663  24.999  12.390
75208W        W34953  11.644   9.700   2.379
75209W        W34954  35.869  29.489  11.090
75210W        W34955  14.253   0.844   3.228
75211W        W34956   0.961   8.743  13.799
75212W        W34957  44.810   2.437   4.733
75213W        W34958  13.660   3.343   5.313
75214W        W34959  15.770  38.034   2.884
75215W        W34960  24.046   2.256   1.309
75216W        W34961  20.264  39.376   3.644
75217W        W34962  32.032   6.769   3.633
75218W        W34963  34.058   1.447   3.757
75219W        W34964  25.587  30.094   0.392
75220W        W34965  39.956  21.074   0.454
75221W        W34966  26.163  16.102   1.705
75222W        W34967  41.480  32.535   2.315
75223W        W34968  40.936   6.321   2.365
75224W        W34969  34.892  40.021  10.923
75225W        W34970  19.213  15.271  13.814
75226W        W34971  24.120  10.307   3.696
75227W        W34972  21.598  29.936   2.878
75228W        W34973  32.037  23.086   3.829
75229W        W34974   8.355  25.622   3.190
75230W        W34975  14.333   3.330   3.177
75231W        W34976  21.547  29.995  14.363
75232W        W34977   6.219  23.677  11.581
75233W        W34978  37.890  37.368   0.854
75234W        W34979  19.737  32.455  12.569
75235W        W34980  27.147  14.318   4.728
75236W        W34981   6.769  23.544   3.307
75237W        W34982   4.313  20.749  13.834
75238W        W34983   5.366  12.690   3.201
75239W        W34984   5.364   5.690  14.482
75240W        W34985  18.105  43.354  12.388
75241W        W34986  24.651  18.550   0.365
75242W        W34987  43.432   3.710   1.369
75243W        W34988  23.733   4.774  14.841
75244W        W34989  26.456  22.516  14.286
75245W        W34990   4.932  15.629  12.452
75246W        W34991  33.027  18.158   0.951
75247W        W34992  27.196   0.369   1.834
75248W        W34993  26.151  30.911   2.370
75249W        W34994   1.350   8.846  12.523
75250W        W34995  33.918   4.422  13.898
75251W        W34996   7.802   9.273  14.379
75252W        W34997  31.506   8.217   3.376
75253W        W34998  44.497  26.607  14.879
75254W        W34999  30.563  34.023  11.026
75255W        W35000  38.342  38.024   1.210
75256W        W35001  28.655  43.332   2.867
75257W        W35002  25.618  44.006  10.425
75258W        W35003  29.503  11.217   4.759
75259W        W35004  34.580   7.899  14.911
75260W        W35005  33.926  37.473  10.598
75261W        W35006  32.439  41.964  11.386
75262W        W35007  40.346  13.335   2.791
75263W        W35008  37.889  44.962  12.404
75264W        W35009  38.330  40.344  14.419
75265W        W35010   5.356  35.912  12.871
75266W        W35011  36.889   2.897  11.925
75267W        W35012  22.113  30.550  13.824
75268W        W35013  20.273  28.677  14.921
75269W        W35014  28.075   7.777   1.783
75270W        W35015   7.744  43.384  13.311
75271W        W35016  43.888   3.324  12.896
75272W        W35017   7.863  29.141   5.096
75273W        W35018  12.127  32.139  11.901
75274W        W35019  25.630  34.373   3.385
75275W        W35020   0.838   2.853   2.799
75276W        W35021  19.087  21.673  10.524
75277W        W35022  14.139  28.177  14.504
75278W        W35023  33.493  14.608  10.932
75279W        W35024  26.131  15.766  12.347
75280W        W35025  43.899  16.283   4.143
75281W        W35026  34.071  28.515   2.801
75282W        W35027  29.669  39.442   2.364
75283W        W35028  31.583  30.530  14.794
75284W        W35029  33.105  30.958   3.236
75285W        W35030  34.890  10.295   0.945
75286W        W35031  37.401  28.441  11.610
75287W        W35032  15.770  13.248   0.270
75288W        W35033  11.759  26.513   1.696
75289W        W35034  31.132  24.221  11.905
75290W        W35035  43.942   5.739   4.836
75291W        W35036   8.825  34.982  12.000
75292W        W35037  33.986  15.247  13.975
75293W        W35038   0.329  21.691  14.920
75294W        W35039  25.161  37.961  12.823
75295W        W35040   2.429  39.028   1.324
75296W        W35041  30.078  27.471   3.164
75297W        W35042  30.106  15.263   2.894
75298W        W35043  12.232  32.941   2.276
75299W        W35044  28.534  11.763   2.334
75300W        W35045  13.698   8.243   4.268
75301W        W35046  16.113  40.974   0.243
75302W        W35047   1.358  12.190  14.450
75303W        W35048   0.287  17.575  14.983
75304W        W35049  41.433  42.427  13.478
75305W        W35050  15.220  12.849   1.895
75306W        W35051  21.582  20.186  14.415
75307W        W35052  20.569   5.258  12.961
75308W        W35053  15.168  16.211   0.276
75309W        W35054  20.209  16.234   1.280
75310W        W35055   7.298  23.148  11.099
75311W        W35056  40.452  11.288   3.861
75312W        W35057  27.135  16.270   3.688
75313W        W35058  35.028  35.100  13.496
75314W        W35059  36.347  38.334  14.794
75315W        W35060  34.469  38.350  13.325
75316W        W35061  20.769  11.340   4.200
75317W        W35062  12.258  37.445  13.532
75318W        W35063  12.273  33.010   1.914
75319W        W35064  17.743  30.491   2.826
75320W        W35065  41.510  32.584  11.956
75321W        W35066   0.446  37.367  12.825
75322W        W35067  34.615  12.198   3.795
75323W        W35068  19.159   2.721  12.050
75324W        W35069  28.589  33.484   2.784
75325W        W35070  33.916  21.030   3.244
75326W        W35071  16.612  44.416  14.868
75327W        W35072   2.721  22.584  10.504
75328W        W35073   5.771  24.135  11.979
75329W        W35074  44.807  23.626  11.046
75330W        W35075   9.190  23.598  13.996
75331W        W35076  22.249   2.377  12.556
75332W        W35077  13.843  35.406   9.923
75333W        W35078  10.725  13.343   4.312
75334W        W35079  19.722  24.607   1.789
75335W        W35080  30.460  40.345   0.964
75336W        W35081  32.975  31.461  12.909
75337W        W35082  18.156  27.963   4.192
75338W        W35083  14.697   7.222  11.909
75339W        W35084  23.566   8.282   1.785
75340W        W35085  14.672  37.400   5.667
75341W        W35086  34.564  40.486   1.436
75342W        W35087  28.969  16.198  12.947
75343W        W35088  30.108  33.895  11.515
75344W        W35089  33.482  40.003  11.962
75345W        W35090  19.693   5.724  10.557
75346W        W35091   8.740  31.492   4.220
75347W        W35092  29.563  43.960  10.615
75348W        W35093   8.731   7.672  12.354
75349W        W35094  31.046  38.010   3.297
75350W        W35095  14.257  15.801  12.574
75351W        W35096   8.782  31.003  11.371
75352W        W35097   0.385  42.851   3.384
75353W        W35098   8.713  29.973   1.349
75354W        W35099  14.765   5.848  11.608
75355W        W35100  32.107  30.531  14.291
75356W        W35101   7.278  44.352  10.426
75357W        W35102  20.562  26.162   2.774
75358W        W35103  35.975  10.295   0.754
75359W        W35104  22.222  16.644  12.467
75360W        W35105  27.670  42.985   3.643
75361W        W35106  18.210  28.449  12.916
75362W        W35107  11.238   0.773   0.811
75363W        W35108   9.177  43.809   1.785
75364W        W35109  33.537  14.776  14.313
75365W        W35110  22.189  22.204  11.927
75366W        W35111  18.763  17.157  11.564
75367W        W35112   5.351  17.712   5.185
75368W        W35113  39.355  43.764   4.343
75369W        W35114  30.983  31.018  12.082
75370W        W35115   9.281  13.749   1.368
75371W        W35116  24.686  36.888   3.302
75372W        W35117   2.904  15.643   3.325
75373W        W35118  21.651   1.789   1.273
75374W        W35119  18.141  31.912   4.299
75375W        W35120   2.861  20.627  11.445
75376W        W35121   1.961  12.836  14.867
75377W        W35122  30.027  38.351   1.239
75378W        W35123   3.285  41.479   2.786
75379W        W35124  33.587   6.804  10.492
75380W        W35125  20.767   9.778   4.178
75381W        W35126  22.049  27.663  12.962
75382W        W35127   6.287  13.351   3.721
75383W        W35128  15.642  27.125  12.542
75384W        W35129  14.624  24.047  14.992
75385W        W35130  23.220  25.507  11.911
75386W        W35131  28.450   1.482  12.553
75387W        W35132  43.866  29.510   1.233
75388W        W35133  12.188  34.890  10.910
75389W        W35134  15.266  44.340  11.461
75390W        W35135  23.133  39.848   1.285
75391W        W35136  20.563  37.569   1.362
75392W        W35137  12.799  19.569  14.959
75393W        W35138   1.401  34.551  12.915
75394W        W35139   6.755   7.231   3.735
75395W        W35140  22.035  37.076  13.846
75396W        W35141  21.172  28.055  13.815
75397W        W35142  14.142   4.913  11.057
75398W        W35143  44.426  38.074   9.623
75399W        W35144  24.190  22.519   5.137
75400W        W35145  35.947  18.580  11.891
75401W        W35146  18.584  25.593  10.555
75402W        W35147   3.268  20.046   0.317
75403W        W35148  24.564  13.120  11.952
75404W        W35149  43.866   5.791  10.453
75405W        W35150  15.706  33.576   3.748
75406W        W35151  41.368   0.786  12.971
75407W        W35152  39.358  17.194  12.469
75408W        W35153   7.844   2.741   4.222
75409W        W35154  35.962  19.242  13.032
75410W        W35155  29.972  16.794  13.017
75411W        W35156   5.835   6.919   1.874
75412W        W35157  34.954  43.965  10.996
75413W        W35158  23.006  40.984   0.791
75414W        W35159  44.890  14.121   1.708
75415W        W35160   7.903  33.579   4.683
75416W        W35161  10.247   7.850   3.636
75417W        W35162  26.583   1.464   2.690
75418W        W35163  34.496  42.931  12.926
75419W        W35164  39.320   8.663   0.942
75420W        W35165  19.251   2.816   3.756
75421W        W35166  37.013  24.146  11.864
75422W        W35167   0.799  22.719  14.810
75423W        W35168   4.275  42.877  12.435
75424W        W35169  26.682  40.928   2.870
75425W        W35170  43.766  12.781  14.303
75426W        W35171   4.931  21.093  14.006
75427W        W35172  40.467  26.610   3.772
75428W        W35173  18.585  23.131   0.392
75429W        W35174  35.946  40.917   0.834
75430W        W35175  37.914   3.776  11.514
75431W        W35176  26.514  26.479  14.803
75432W        W35177   6.309  17.709   5.224
75433W        W35178  30.642  43.403   2.860
75434W        W35179   5.195  29.148  11.930
75435W        W35180  30.002  13.111  14.920
75436W        W35181  27.630  29.459   4.171
75437W        W35182  24.168  29.087   4.219
75438W        W35183  24.524  41.511  14.314
75439W        W35184  13.602  42.322   1.360
75440W        W35185  34.543  43.880   3.858
75441W        W35186  20.580  18.282   4.698
75442W        W35187   2.909  22.068   4.752
75443W        W35188   8.665  37.340  10.907
75444W        W35189  37.833  22.031   3.291
75445W        W35190  10.137   8.654   2.775
75446W        W35191  15.139   2.329   0.284
75447W        W35192  14.255  43.331  13.812
75448W        W35193  28.539  13.116  13.919
75449W        W35194   8.819  27.614   4.625
75450W        W35195  42.811  38.332   3.237
75451W        W35196  38.009  41.925   4.736
75452W        W35197  13.631   9.885  11.559
75453W        W35198   4.843  40.423  14.900
75454W        W35199  37.833   2.845   0.772
75455W        W35200   7.764  31.110   0.846
75456W        W35201  28.516  27.151  13.007
75457W        W35202  17.294   3.220  12.893
75458W        W35203  12.637  10.256  13.872
75459W        W35204   1.929  23.220  10.495
75460W        W35205  40.810  11.349   0.466
75461W        W35206  19.086  18.222  14.778
75462W        W35207  26.588  14.327   0.947
75463W        W35208  36.435  16.150   4.625
75464W        W35209  18.087   1.951  14.374
75465W        W35210   6.267  21.570   2.711
75466W        W35211  12.283  21.521   4.349
75467W        W35212  43.284  43.304   0.862
75468W        W35213  15.114  21.513   3.828
75469W        W35214  26.124  13.674  11.588
75470W        W35215  34.418  22.712  13.909
75471W        W35216  29.462   5.917  14.027
75472W        W35217   1.767  38.940  14.871
75473W        W35218  30.975   1.859  13.445
75474W        W35219  26.500  27.499  10.939
75475W        W35220  39.813  19.578   2.312
75476W        W35221  11.850   8.816  13.844
75477W        W35222  34.400  23.010  13.839
75478W        W35223  22.642  21.090  10.915
75479W        W35224  28.956   5.733  14.351
75480W        W35225  31.570  30.012   0.333
75481W        W35226  18.188  36.092  13.313
75482W        W35227  14.816  28.983  13.404
75483W        W35228  37.038  15.317  11.440
75484W        W35229   0.768  22.647  11.984
75485W        W35230  19.776  17.100  14.022
75486W        W35231  17.176   2.854   0.787
75487W        W35232   1.822  28.159   0.350
75488W        W35233  35.081   4.336   0.359
75489W        W35234   9.157  23.632   1.312
75490W        W35235  25.100  11.264  13.872
75491W        W35236   8.289  42.344   2.362
75492W        W35237  30.919  12.678  12.535
75493W        W35238  31.629  26.536  12.997
75494W        W35239   2.456  36.358   4.339
75495W        W35240  31.406  22.732  12.449
75496W        W35241  30.620  24.591  12.938
75497W        W35242  21.705  23.202  10.458
75498W        W35243  25.175  44.424  13.043
75499W        W35244  41.009   5.404   3.160
75500W        W35245  22.584   8.655   4.205
75501W        W35246  43.841  38.026  14.284
75502W        W35247  28.976   0.381  13.861
75503W        W35248  44.925  27.167   1.715
75504W        W35249  44.759  32.584  13.384
75505W        W35250  26.100  12.794  14.409
75506W        W35251   2.814  20.766   3.774
75507W        W35252  38.932  18.582   2.707
75508W        W35253  34.913  39.967   4.668
75509W        W35254   3.956  31.436  13.008
75510W        W35255  33.042  23.653   0.853
75511W        W35256  24.647  28.576   5.725
75512W        W35257  19.755   0.381   3.266
75513W        W35258   3.864  19.708   0.830
75514W        W35259  26.645  14.630   3.693
75515W        W35260  30.160  13.728  13.873
75516W        W35261  39.881  10.271  10.416
75517W        W35262  39.049  26.486   3.308
75518W        W35263   1.427   8.736   3.196
75519W        W35264   4.808  20.630  11.569
75520W        W35265   5.337  32.076  11.586
75521W        W35266   3.243  18.766   0.452
75522W        W35267   8.663   7.730  12.939
75523W        W35268   9.325   4.933   3.352
75524W        W35269  39.984  11.791  14.341
75525W        W35270   9.154  40.978   1.439
75526W        W35271  29.996   9.191   4.663
75527W        W35272   9.705  20.570  14.297
75528W        W35273  29.047  42.950   1.349
75529W        W35274  35.985  12.290  14.850
75530W        W35275  14.723  41.896   4.622
75531W        W35276  25.069  16.263  11.868
75532W        W35277  41.897  13.241  14.764
75533W        W35278   9.163  18.183  10.596
75534W        W35279   4.736   5.366  11.905
75535W        W35280  22.054  24.626  11.014
75536W        W35281  33.490   0.347   2.727
75537W        W35282  25.649  17.295  13.057
75538W        W35283  13.826  27.139   0.410
75539W        W35284  35.891   3.383  14.417
75540W        W35285  14.646  18.166  10.938
75541W        W35286  17.562  15.167  11.031
75542W        W35287  32.893   7.325   0.860
75543W        W35288  39.897  43.283  14.345
75544W        W35289   1.788  25.161  11.088
75545W        W35290  38.033  18.621  13.354
75546W        W35291  39.385  13.712  12.344
75547W        W35292  26.568   5.880  13.804
75548W        W35293  21.587  11.710   3.227
75549W        W35294  15.178   0.804  13.992
75550W        W35295   7.824  24.664  13.378
75551W        W35296  20.571  13.817   4.798
75552W        W35297  40.361   9.871   3.250
75553W        W35298  29.054   6.395  10.455
75554W        W35299   2.417   6.735   2.663
75555W        W35300  15.248  18.757   0.786
75556W        W35301  31.443  36.506  13.514
75557W        W35302   8.248   6.275  11.546
75558W        W35303  28.093   4.306   4.767
75559W        W35304  18.701  30.417  10.147
75560W        W35305  39.405   5.901   1.928
75561W        W35306  31.555  34.592  11.480
75562W        W35307  37.836   7.209   1.254
75563W        W35308  13.234  15.581   1.334
75564W        W35309  10.264  28.958   3.345
75565W        W35310  32.065  31.027   1.250
75566W        W35311  14.240   6.321   0.375
75567W        W35312  30.418  10.752  14.400
75568W        W35313  28.132  13.326  11.113
75569W        W35314  10.360  10.265   4.150
75570W        W35315  25.567  39.361  11.534
75571W        W35316  33.956  24.159   3.176
75572W        W35317  36.963  14.182   4.273
75573W        W35318  12.805  42.853  13.375
75574W        W35319   7.236  36.486   1.333
75575W        W35320  43.404  24.641  12.038
75576W        W35321  22.231  10.663  11.428
75577W        W35322  28.158  28.679   1.759
75578W        W35323  36.426  44.294  13.888
75579W        W35324  37.390   4.363   0.741
75580W        W35325  10.211  28.012  14.293
75581W        W35326  17.797  26.064  12.975
75582W        W35327  38.022  13.108  14.764
75583W        W35328   4.859  28.103   0.394
75584W        W35329   0.774  10.803  10.630
75585W        W35330  33.905  18.095   5.272
75586W        W35331  16.747   0.448   2.208
75587W        W35332   3.432  39.036   0.771
75588W        W35333  27.952  42.963  11.379
75589W        W35334   2.935  12.147  12.434
75590W        W35335   3.237  22.163   2.797
75591W        W35336  17.073  13.695   0.336
75592W        W35337  36.569  14.669  12.998
75593W        W35338  34.595  12.285  12.891
75594W        W35339  36.925   5.409   4.789
75595W        W35340  22.242  19.729  14.294
75596W        W35341  29.472  13.765  13.421
75597W        W35342  21.059   1.843  11.560
75598W        W35343   7.248  41.437   4.679
75599W        W35344  19.695  13.208  12.886
75600W        W35345   0.320  24.153  11.524
75601W        W35346  43.880  13.693   0.383
75602W        W35347   1.294  15.216   3.165
75603W        W35348  37.573  10.379  13.399
75604W        W35349  10.646   0.742   4.167
75605W        W35350  33.591  31.591   1.934
75606W        W35351  19.122   4.734   1.345
75607W        W35352  38.460  42.521   2.898
75608W        W35353  31.123  28.546  12.948
75609W        W35354  18.291  18.176   0.377
75610W        W35355   3.791  37.339  14.770
75611W        W35356  25.059  41.401  11.384
75612W        W35357  31.995  34.027  11.872
75613W        W35358  39.978  20.564   2.891
75614W        W35359  32.890  44.788   0.379
75615W        W35360  22.575  27.685  11.984
75616W        W35361   8.758  33.395  13.323
75617W        W35362  29.049  17.180   3.708
75618W        W35363  16.753   6.392   2.409
75619W        W35364   3.406   1.431  12.920
75620W        W35365  21.687   0.945   3.857
75621W        W35366  33.107  15.724  10.457
75622W        W35367  19.543  33.610   5.274
75623W        W35368  29.581  29.087   2.748
75624W        W35369  37.886  34.369  14.868
75625W        W35370  17.587  22.586  14.494
75626W        W35371  31.553  15.777  12.909
75627W        W35372   2.346   3.358  12.862
75628W        W35373  10.293  38.949  12.385
75629W        W35374  35.074   0.391   3.360
75630W        W35375  27.183  30.501  14.385
75631W        W35376  41.859  11.783   1.239
75632W        W35377  31.629  12.190  11.525
75633W        W35378  26.178  30.473  14.828
75634W        W35379  16.748  20.763   4.645
75635W        W35380  12.308  38.469   4.343
75636W        W35381  44.419   9.176   3.861
75637W        W35382   2.358  40.904   3.690
75638W        W35383  20.096  18.660   1.833
75639W        W35384  28.152  20.748  14.835
75640W        W35385  34.585  22.015  11.591
75641W        W35386  39.526   0.932  10.897
75642W        W35387  39.044  17.153   1.376
75643W        W35388  37.977  30.619  12.503
75644W        W35389  36.380  29.032   0.796
75645W        W35390  26.968   0.753   0.300
75646W        W35391  15.233  44.310  14.771
75647W        W35392  20.079  24.027   2.208
75648W        W35393   4.759  29.515  12.049
75649W        W35394  18.599  41.437   0.420
75650W        W35395  30.453  24.707   1.397
75651W        W35396  34.078  26.637  12.984
75652W        W35397   8.779  26.702   1.698
75653W        W35398  37.369  20.561   3.824
75654W        W35399   5.849  33.470  12.480
75655W        W35400  12.823  29.939   1.240
75656W        W35401  29.925  29.581  13.494
75657W        W35402  13.188  31.935  14.823
75658W        W35403  10.171  44.348  13.045
75659W        W35404  19.667  36.019   3.654
75660W        W35405   2.267   2.888  12.916
75661W        W35406  27.059   5.735  14.968
75662W        W35407  22.013  27.456  10.995
75663W        W35408  21.203   8.721  14.782
75664W        W35409   4.732   3.844  10.505
75665W        W35410  40.484  30.618   2.687
75666W        W35411  33.948  41.425  11.901
75667W        W35412  22.528  41.526  14.430
75668W        W35413  38.432  17.257   1.339
75669W        W35414  19.679  18.244   0.881
75670W        W35415   2.812   2.251   3.226
75671W        W35416  13.230  32.921   3.218
75672W        W35417  18.646  30.516   5.248
75673W        W35418   2.331  41.900   1.356
75674W        W35419  27.058  17.173  12.423
75675W        W35420   4.816  16.635   9.998
75676W        W35421  18.258  44.818  12.397
75677W        W35422  14.604  22.235   2.390
75678W        W35423   9.299  33.013   4.676
75679W        W35424  28.089  18.720   3.762
75680W        W35425  34.401  26.137   3.733
75681W        W35426  12.637  22.161  11.599
75682W        W35427  13.295  42.019  10.994
75683W        W35428   4.312  17.794   3.275
75684W        W35429  43.879   2.963  12.067
75685W        W35430  42.391  44.327   1.232
75686W        W35431  11.642   2.825  11.459
75687W        W35432  15.197  17.249  11.976
75688W        W35433  25.491   9.786   1.771
75689W        W35434  19.544  18.649   1.336
75690W        W35435   1.444  42.936   3.387
75691W        W35436  28.118  18.691   1.210
75692W        W35437  27.006  28.117  10.995
75693W        W35438  14.096  44.787  13.947
75694W        W35439  44.003   8.348   1.309
75695W        W35440  29.095   6.265  14.012
75696W        W35441  11.817  43.778   4.240
75697W        W35442  15.246  15.244   2.753
75698W        W35443   3.948   5.893   3.188
75699W        W35444  20.034   2.294   2.897
75700W        W35445  15.744  19.577  14.884
75701W        W35446  12.132   3.303   0.939
75702W        W35447  42.376  14.712   2.887
75703W        W35448  39.976   7.866   0.310
75704W        W35449   4.283   7.263  12.009
75705W        W35450  41.334  24.981  12.406
75706W        W35451   6.800  15.090   4.152
75707W        W35452  16.108  22.997   1.328
75708W        W35453  32.390  31.510  13.828
75709W        W35454  10.264   2.300  10.408
75710W        W35455  34.901   5.697   3.811
75711W        W35456  35.412  33.445  14.287
75712W        W35457   3.425  28.489   4.181
75713W        W35458  27.628  10.714  13.861
75714W        W35459  13.733  41.880  13.870
75715W        W35460   6.918  14.642   3.292
75716W        W35461   8.697  12.823  11.020
75717W        W35462  37.439  20.267   3.701
75718W        W35463  39.495  24.713  13.828
75719W        W35464  34.025   1.759  11.907
75720W        W35465  13.175  34.447   5.271
75721W        W35466  34.065  42.344   0.388
75722W        W35467  17.113  41.008  10.477
75723W        W35468   0.936  28.663  11.604
75724W        W35469  11.738  13.693   4.732
75725W        W35470  11.277  21.035  14.391
75726W        W35471   3.760  30.569   9.489
75727W        W35472  44.963   7.699  11.921
75728W        W35473   9.291  32.095  14.888
75729W        W35474  18.229  33.938   3.353
75730W        W35475  34.560  23.725   1.895
75731W        W35476  18.176  42.458   4.739
75732W        W35477  25.524  32.469   1.810
75733W        W35478  27.014   0.449  10.511
75734W        W35479  32.495  17.768   0.781
75735W        W35480  25.055  13.843   2.880
75736W        W35481   7.765   7.265  10.480
75737W        W35482  19.571  38.463   1.887
75738W        W35483  15.236  30.910   4.263
75739W        W35484   4.803  40.016   1.707
75740W        W35485  26.983   2.899   2.408
75741W        W35486  42.346  36.442   0.253
75742W        W35487  10.279  28.435   4.783
75743W        W35488  27.110   3.349  14.451
75744W        W35489  35.415  17.223  13.797
75745W        W35490  25.491  16.314   2.275
75746W        W35491  34.940  20.733  13.829
75747W        W35492  43.932   4.824  14.476
75748W        W35493  14.629  25.505  11.001
75749W        W35494  36.532   5.227  10.456
75750W        W35495   5.417  28.006   4.233
75751W        W35496  34.908  37.857  11.039
75752W        W35497  43.506  20.234   5.322
75753W        W35498  21.512  32.395   0.807
75754W        W35499  29.648   4.867   2.222
75755W        W35500   9.774  38.065  12.964
75756W        W35501  16.156   6.263   3.855
75757W        W35502   3.315  15.224  11.548
75758W        W35503  11.187   5.904   0.799
75759W        W35504   6.422   2.844  12.874
75760W        W35505  30.454  33.488  10.952
75761W        W35506  39.435  35.099   4.345
75762W        W35507   5.310   3.321  10.052
75763W        W35508  30.475  16.176   2.205
75764W        W35509  36.503  23.717  11.439
75765W        W35510  10.868  40.840  14.324
75766W        W35511  13.643  36.580   4.189
75767W        W35512  23.705  26.628   2.668
75768W        W35513  28.442  27.036   4.116
75769W        W35514  17.697  44.777  11.477
75770W        W35515  27.687  42.005  10.510
75771W        W35516  43.397  19.043   3.341
75772W        W35517  16.640  41.807  14.946
75773W        W35518  38.933   0.829  13.802
75774W        W35519  31.928   3.858  11.419
75775W        W35520  27.582   3.220  10.122
75776W        W35521  36.516  15.636   1.748
75777W        W35522  15.278  36.059  14.870
75778W        W35523   8.682  35.515   3.736
75779W        W35524  19.123  26.068   4.770
75780W        W35525  12.317   1.739   1.240
75781W        W35526   2.422  35.552   2.282
75782W        W35527  34.581  21.524  12.837
75783W        W35528  40.497  14.110   0.289
75784W        W35529  41.515   0.847  14.452
75785W        W35530   5.838  42.290   1.759
75786W        W35531  40.929   4.770  12.970
75787W        W35532  15.166   8.246  14.858
75788W        W35533  31.927  40.970   0.739
75789W        W35534   6.319  35.389   1.399
75790W        W35535  16.686  25.533  14.893
75791W        W35536  33.488  41.918  10.489
75792W        W35537  22.582  29.443   3.321
75793W        W35538  41.910   3.450   1.722
75794W        W35539   7.360  28.984  13.914
75795W        W35540   9.790  44.845  14.381
75796W        W35541  22.526   5.723   4.125
75797W        W35542  39.354  32.939   0.887
75798W        W35543  17.691  44.822  12.903
75799W        W35544  37.354  23.092  12.960
75800W        W35545  36.040  31.444   3.290
75801W        W35546  31.501  21.186  13.379
75802W        W35547  25.973  35.039  12.549
75803W        W35548  31.057   0.301   2.188
75804W        W35549  40.310  36.475  12.930
75805W        W35550  22.586  36.357  13.407
75806W        W35551  42.875  27.114   3.674
75807W        W35552   9.259  16.616  13.416
75808W        W35553   0.274  39.453   0.295
75809W        W35554  42.840   3.846  12.972
75810W        W35555   9.817  16.736   1.722
75811W        W35556   7.388  36.446   2.208
75812W        W35557  38.409  37.437   1.284
75813W        W35558   0.365   1.815   0.933
75814W        W35559   2.401  27.098   3.692
75815W        W35560   0.466   6.274   0.386
75816W        W35561  21.671  15.608  11.904
75817W        W35562  10.245  38.859   4.167
75818W        W35563   5.827  34.068  12.351
75819W        W35564   9.713   3.882   1.882
75820W        W35565   4.743  35.900   0.788
75821W        W35566  12.730  13.644   0.308
75822W        W35567  20.211   9.172  13.509
75823W        W35568  37.552  39.424   4.332
75824W        W35569   9.653  28.439   1.417
75825W        W35570  43.887   0.831  11.003
75826W        W35571   6.896   4.878   1.884
75827W        W35572  26.169   3.440   2.794
75828W        W35573  39.325  29.481   2.265
75829W        W35574  37.368   4.768   4.177
75830W        W35575  39.383  23.140   3.834
75831W        W35576  22.062   4.712  11.566
75832W        W35577  15.626  38.392   0.767
75833W        W35578  16.301  44.839   4.797
75834W        W35579  38.466  34.435   1.881
75835W        W35580  12.233  28.141  12.086
75836W        W35581  32.603  26.660   3.377
75837W        W35582  38.345   4.299  11.116
75838W        W35583  24.521  31.098  13.457
75839W        W35584  34.554  28.589  11.963
75840W        W35585  36.567  12.675   4.278
75841W        W35586  39.888  42.836  11.861
75842W        W35587  44.992  44.794  11.087
75843W        W35588  25.532  33.456   3.310
75844W        W35589  44.932  17.640   3.313
75845W        W35590   7.776  14.186  10.983
75846W        W35591  37.405  34.417   9.984
75847W        W35592  38.966  33.925   3.830
75848W        W35593  23.031   8.860  11.869
75849W        W35594  36.014   9.323  10.988
75850W        W35595   4.797  36.924   0.742
75851W        W35596  17.558   7.296   3.154
75852W        W35597   3.782  40.320  12.569
75853W        W35598  16.703  34.070   4.143
75854W        W35599  12.747  23.721   0.927
75855W        W35600  17.173  35.918  14.799
75856W        W35601  40.823  22.516   1.445
75857W        W35602  17.746   6.770   4.639
75858W        W35603  15.173  44.409  10.500
75859W        W35604  42.875   2.792  14.871
75860W        W35605   2.963  33.031  11.882
75861W        W35606  14.716  39.491  11.865
75862W        W35607  20.229   0.783  11.866
75863W        W35608   8.791  28.940  13.954
75864W        W35609  14.698  26.566   1.908
75865W        W35610  35.410  24.191   4.702
75866W        W35611   0.877   8.394   3.699
75867W        W35612   0.268  44.990   1.754
75868W        W35613   9.273  23.509   2.849
75869W        W35614  11.175   6.389   0.892
75870W        W35615  32.005  21.090  14.993
75871W        W35616  33.875  27.620   2.352
75872W        W35617  14.262  10.652  12.876
75873W        W35618  18.231  43.504   4.166
75874W        W35619  12.257  41.534   0.372
75875W        W35620  13.327   3.422   2.264
75876W        W35621  14.144  33.515  11.017
75877W        W35622  35.599  41.954   0.826
75878W        W35623   7.332   7.851  14.478
75879W        W35624  38.332  28.448   1.888
75880W        W35625  18.102  34.996   0.826
75881W        W35626  30.623  10.841   3.209
75882W        W35627   2.805  20.580   1.750
75883W        W35628   5.211  38.461   1.799
75884W        W35629  30.018  29.104  13.332
75885W        W35630  17.153  35.380   0.726
75886W        W35631  24.091  23.686   2.869
75887W        W35632  12.246  34.433  11.069
75888W        W35633  22.661  21.153   0.843
75889W        W35634  38.848  14.316   3.201
75890W        W35635  35.888  40.484  14.855
75891W        W35636  33.075  18.759  13.526
75892W        W35637  22.108   7.824   3.272
75893W        W35638  36.503   9.296   4.632
75894W        W35639  15.611  21.160   3.834
75895W        W35640  36.556   0.940   3.287
75896W        W35641   3.393  16.206   4.824
75897W        W35642  16.253  27.068  11.000
75898W        W35643   6.687  29.109  10.895
75899W        W35644  18.212   5.323   2.335
75900W        W35645  11.687  24.060  14.762
75901W        W35646  26.462  38.938  10.595
75902W        W35647  41.446  35.987  11.940
75903W        W35648  41.975  19.636  13.060
75904W        W35649   9.857   9.645  12.873
75905W        W35650  12.849  35.408  14.842
75906W        W35651  44.292  20.180  14.985
75907W        W35652  26.651  16.785   1.369
75908W        W35653   4.833  42.301  14.449
75909W        W35654   7.873  41.829  10.945
75910W        W35655  42.312  34.449   1.326
75911W        W35656  30.909  23.511  12.077
75912W        W35657   3.246  39.810   0.374
75913W        W35658  35.889  30.568   4.801
75914W        W35659  12.685  26.625  13.397
75915W        W35660  24.631  18.692   2.370
75916W        W35661   8.754  28.645  12.842
75917W        W35662  12.159  39.037  14.759
75918W        W35663  26.634  15.578   9.494
75919W        W35664  25.537   3.264   3.153
75920W        W35665  17.606  21.159  10.557
75921W        W35666  14.275  25.633  11.975
75922W        W35667  38.522  24.114  13.798
75923W        W35668  22.737  24.020  11.596
75924W        W35669  37.418  34.053   1.736
75925W        W35670  27.548  42.974   4.294
75926W        W35671  13.174  13.792  12.900
75927W        W35672  28.470   9.883   3.363
75928W        W35673  11.762   5.409   4.684
75929W        W35674  31.492  40.928   2.665
75930W        W35675  27.196   3.879  10.514
75931W        W35676  18.196  14.141  10.568
75932W        W35677  27.676   9.271  10.552
75933W        W35678  37.858  20.080  13.477
75934W        W35679  15.141  25.501  12.833
75935W        W35680  39.362  26.598   1.308
75936W        W35681  41.834  32.391   2.380
75937W        W35682  14.200  14.675   4.242
75938W        W35683  37.889  15.643  12.389
75939W        W35684  18.708  19.659  11.047
75940W        W35685  16.795  39.842  14.817
75941W        W35686   0.744   3.280  12.501
75942W        W35687  23.131   6.715   0.845
75943W        W35688  25.646  10.867   0.439
75944W        W35689  39.006  43.389  11.002
75945W        W35690  40.976   8.383   2.743
75946W        W35691   9.812  26.027  12.521
75947W        W35692   6.849  21.690  10.518
75948W        W35693  28.672   2.433   1.436
75949W        W35694  37.372   8.271  14.989
75950W        W35695  29.924  37.397   2.323
75951W        W35696   2.917  31.442  11.882
75952W        W35697  25.140  22.086  11.071
75953W        W35698  15.710   8.301  11.502
75954W        W35699  43.409  44.866  12.537
75955W        W35700  22.054  27.537   3.679
75956W        W35701  36.572  20.669  10.520
75957W        W35702   6.196  35.875   5.239
75958W        W35703  39.021   8.865   2.719
75959W        W35704  22.999  27.102  12.446
75960W        W35705  16.610  39.846   1.277
75961W        W35706  36.098   2.471   0.358
75962W        W35707   2.427  14.712   3.248
75963W        W35708   9.187  34.594  11.475
75964W        W35709  20.693  26.020  11.473
75965W        W35710  13.172  25.026   4.709
75966W        W35711  35.860   1.760   3.829
75967W        W35712   3.367  15.186  10.643
75968W        W35713  36.363   1.433   1.245
75969W        W35714  13.697  32.566   3.705
75970W        W35715  37.426  20.683  12.945
75971W        W35716  31.039  10.357  14.479
75972W        W35717   1.748  42.782   1.250
75973W        W35718  11.672  34.967   0.426
75974W        W35719   9.878  12.682  14.514
75975W        W35720  21.211   2.382   0.922
75976W        W35721  20.063   4.773  14.783
75977W        W35722  22.712   9.868   4.726
75978W        W35723  25.118   4.746  11.959
75979W        W35724  12.816  11.767  12.411
75980W        W35725  32.632  34.005  13.895
75981W        W35726  25.659  44.903   0.322
75982W        W35727   2.908  22.516   4.703
75983W        W35728  21.705  33.600  11.073
75984W        W35729  12.222  26.636   0.811
75985W        W35730  30.642  40.820  13.896
75986W        W35731  41.359  26.491   2.898
75987W        W35732  36.462   8.664   3.781
75988W        W35733  39.393   2.445   3.729
75989W        W35734  18.268  38.964  11.033
75990W        W35735  34.431  27.599  13.023
75991W        W35736  18.141  24.169   4.711
75992W        W35737  23.698  11.276  14.388
75993W        W35738  33.620  32.607  13.823
75994W        W35739  44.315   8.191  11.470
75995W        W35740   5.771  12.674  14.403
75996W        W35741   3.733   2.839  13.509
75997W        W35742  16.107   2.316  10.434
75998W        W35743   7.272  27.964   1.811
75999W        W35744  29.472  35.858  12.062
76000W        W35745  40.864  28.484  11.892
76001W        W35746  44.287   9.383   2.353
76002W        W35747  28.495  36.934   1.391
76003W        W35748  15.806  43.333   3.785
76004W        W35749  15.656  16.699  10.034
76005W        W35750  17.270  41.964  10.520
76006W        W35751  26.533  44.913  11.553
76007W        W35752  13.757   2.835   0.916
76008W        W35753  17.693  34.516  10.094
76009W        W35754  16.773   2.941   1.405
76010W        W35755  20.183  31.516  11.550
76011W        W35756  43.850  17.066   3.841
76012W        W35757   1.361  18.575  12.391
76013W        W35758  14.617  15.792  12.012
76014W        W35759  12.653  31.409   4.246
76015W        W35760   9.806  32.089   1.323
76016W        W35761  10.359  35.554   9.586
76017W        W35762  33.511   6.832  11.494
76018W        W35763  41.789   0.414  11.017
76019W        W35764   3.346   6.847   2.298
76020W        W35765  25.572   6.190   2.326
76021W        W35766  20.058  23.637  14.811
76022W        W35767   0.896  35.490  13.478
76023W        W35768   5.212  34.451   0.453
76024W        W35769   6.258   0.316   4.292
76025W        W35770   4.411  34.928  13.869
76026W        W35771  14.119   1.448   4.663
76027W        W35772  11.752  17.262   2.312
76028W        W35773  33.915  38.523  12.400
76029W        W35774  39.418   2.926   4.660
76030W        W35775  37.070  34.533   1.828
76031W        W35776   4.310  18.632  11.562
76032W        W35777  16.201  20.683   1.844
76033W        W35778  14.717  44.754  10.430
76034W        W35779  44.374  32.080  14.320
76035W        W35780  21.534  23.661   3.238
76036W        W35781  30.543  40.857   1.287
76037W        W35782  37.951  43.783   4.792
76038W        W35783   7.766  10.258  14.285
76039W        W35784  34.539  39.521   4.195
76040W        W35785   5.694   7.320  12.518
76041W        W35786  14.648  39.009   1.280
76042W        W35787  24.596   4.263  12.888
76043W        W35788   1.967  10.208  12.006
76044W        W35789  27.020   8.846  11.943
76045W        W35790  29.048  21.105  11.070
76046W        W35791  38.888  31.543   4.317
76047W        W35792  34.120  31.015  14.420
76048W        W35793  14.768  38.075   1.905
76049W        W35794  39.328  19.723   4.247
76050W        W35795   4.942  36.873  10.480
76051W        W35796  25.495   0.925   4.718
76052W        W35797  31.915  11.831  12.385
76053W        W35798  33.597   1.746   0.467
76054W        W35799   7.706  28.602  10.545
76055W        W35800  44.878  28.615   0.941
76056W        W35801  24.637  21.139  12.518
76057W        W35802  14.665  43.406   1.222
76058W        W35803  16.571  16.185   2.801
76059W        W35804  12.127  21.225  10.617
76060W        W35805  41.976   8.811   4.822
76061W        W35806   6.317  23.612  14.987
76062W        W35807  42.966  13.787   3.862
76063W        W35808  35.443  43.304  13.321
76064W        W35809  11.356  29.933   1.801
76065W        W35810  28.959  30.919   4.251
76066W        W35811  26.675  30.452   2.178
76067W        W35812  10.723   3.841   0.855
76068W        W35813  36.539  33.465  14.319
76069W        W35814  23.608  34.082   9.970
76070W        W35815  44.003  28.442   0.317
76071W        W35816  25.613  23.723   4.177
76072W        W35817  41.797  25.993  10.628
76073W        W35818  13.601   3.250   4.338
76074W        W35819   3.278  11.843   1.444
76075W        W35820  40.310   6.400  14.816
76076W        W35821  17.131   7.691   4.810
76077W        W35822  42.811  11.170   1.811
76078W        W35823  26.074   0.344   4.761
76079W        W35824  29.535  38.532   1.909
76080W        W35825   9.154  13.198   1.260
76081W        W35826  38.952  27.976   0.284
76082W        W35827  30.644   3.774   9.513
76083W        W35828   9.162  25.468  10.474
76084W        W35829  32.459  31.648  10.936
76085W        W35830  27.161  14.752  10.595
76086W        W35831  11.744  35.540   0.905
76087W        W35832  23.587  25.594   0.941
76088W        W35833  24.099  10.734  14.355
76089W        W35834  36.890   9.877   2.343
76090W        W35835  38.885  21.022  12.065
76091W        W35836  19.673  32.074  11.920
76092W        W35837  35.857   6.262  10.581
76093W        W35838  35.598  32.594  14.397
76094W        W35839  41.480  14.139  11.500
76095W        W35840  41.859   1.827  13.981
76096W        W35841   7.243  42.408  11.860
76097W        W35842  33.025  35.469   1.336
76098W        W35843  36.353   1.846   0.413
76099W        W35844  10.335  35.955   2.865
76100W        W35845  16.609  43.411   4.599
76101W        W35846  31.518  32.108   4.332
76102W        W35847  20.563  14.603  11.576
76103W        W35848  13.758  12.815   0.468
76104W        W35849  33.469  26.019   1.286
76105W        W35850  23.125  34.602  13.956
76106W        W35851   0.745  34.533  14.842
76107W        W35852  35.858  25.032  14.933
76108W        W35853  27.977  11.678   4.665
76109W        W35854  30.036  35.993  13.371
76110W        W35855   0.379   3.261  14.366
76111W        W35856  25.531   8.225   2.687
76112W        W35857  19.534  32.556   3.686
76113W        W35858  41.904  12.287   4.239
76114W        W35859  15.097   5.279  12.973
76115W        W35860  17.242   5.264  12.046
76116W        W35861  33.514   6.298   2.770
76117W        W35862  11.844  15.760  13.467
76118W        W35863   8.224  38.344   1.823
76119W        W35864  16.143  41.972  14.367
76120W        W35865   0.275  27.485   2.402
76121W        W35866   7.692   7.701   0.283
76122W        W35867  16.806   9.333  11.469
76123W        W35868  28.470  30.950   4.701
76124W        W35869   6.273  38.419  13.832
76125W        W35870  13.161   1.441  14.878
76126W        W35871  23.020  38.424   4.717
76127W        W35872   5.288  44.419  10.099
76128W        W35873   0.891  31.639  13.382
76129W        W35874  11.213  39.376   0.953
76130W        W35875  28.155   9.246   0.942
76131W        W35876  14.256  16.657  13.407
76132W        W35877  33.072  29.062   2.691
76133W        W35878  39.324  43.276  11.892
76134W        W35879  41.858  39.443   2.409
76135W        W35880   3.289   6.213   2.887
76136W        W35881  14.195  28.470  13.411
76137W        W35882  32.955   5.900   1.888
76138W        W35883   2.754  30.655   0.799
76139W        W35884  43.413  29.072  13.002
76140W        W35885   7.752  32.000   2.190
76141W        W35886  22.224  35.490  14.772
76142W        W35887  44.919  29.553   2.679
76143W        W35888   8.817  23.497  14.387
76144W        W35889  21.609   5.278   4.255
76145W        W35890  32.094  25.634   4.724
76146W        W35891  13.789  38.051  14.893
76147W        W35892  20.237  18.291  13.039
76148W        W35893   9.376  37.560  13.407
76149W        W35894  32.141  26.668   2.242
76150W        W35895  15.611  21.634   2.852
76151W        W35896   3.326  34.012   1.905
76152W        W35897   0.304  34.056  13.497
76153W        W35898  12.166  17.634   0.864
76154W        W35899   6.782  24.691   0.476
76155W        W35900  12.254  42.991   3.191
76156W        W35901   6.368  40.309  12.917
76157W        W35902  20.614  28.543   4.616
76158W        W35903  43.488  30.129   0.942
76159W        W35904  38.429  30.059  11.872
76160W        W35905  44.367  10.667  12.878
76161W        W35906  20.646  28.979  12.379
76162W        W35907  40.548  20.133   0.914
76163W        W35908  44.956   0.370  12.580
76164W        W35909   1.824  44.361   2.377
76165W        W35910  12.698  18.691   2.903
76166W        W35911   3.270  35.526   3.288
76167W        W35912  32.046  37.064   4.663
76168W        W35913   5.723  43.992   1.266
76169W        W35914  33.596  37.347   0.281
76170W        W35915  10.308   9.770  12.437
76171W        W35916  16.181  20.149   4.328
76172W        W35917   0.940   6.381   2.768
76173W        W35918  35.526  21.105   4.321
76174W        W35919   5.743  22.706  10.553
76175W        W35920  33.405  21.034   3.265
76176W        W35921   2.923  15.207   0.458
76177W        W35922  30.136   9.760  13.393
76178W        W35923   8.355   9.271   2.710
76179W        W35924  18.656  13.307   4.272
76180W        W35925   0.974  15.103   4.176
76181W        W35926  33.876   6.903  13.864
76182W        W35927  36.045  33.993   3.193
76183W        W35928  43.976  31.625  10.545
76184W        W35929  33.589  15.198  11.937
76185W        W35930  37.364  20.042  13.448
76186W        W35931  42.421  21.644   2.814
76187W        W35932  30.911  10.708   3.732
76188W        W35933  24.058  20.139   0.425
76189W        W35934  10.854  27.452  14.489
76190W        W35935   3.368  33.617  13.829
76191W        W35936  44.432  21.633   4.237
76192W        W35937  39.010  24.659  13.963
76193W        W35938  16.812  41.028   0.318
76194W        W35939  17.727  28.077  13.407
76195W        W35940   1.907  16.213  10.621
76196W        W35941  11.133  40.520  14.932
76197W        W35942  38.884  29.043  10.448
76198W        W35943  13.314  37.433  12.962
76199W        W35944  18.234  31.029   2.319
76200W        W35945  14.194   4.803   2.359
76201W        W35946  38.866  39.921  10.139
76202W        W35947   9.317   3.845   0.426
76203W        W35948  10.800  19.656   3.761
76204W        W35949  36.010  21.520   4.297
76205W        W35950  25.110   4.707  12.835
76206W        W35951  31.608  27.139  11.497
76207W        W35952   9.726  23.535  10.945
76208W        W35953  43.005  34.566  13.457
76209W        W35954  19.229  35.539   2.243
76210W        W35955   3.433  29.134  14.317
76211W        W35956  23.072  36.357   1.280
76212W        W35957  39.892  40.410   2.800
76213W        W35958   0.892  41.904   3.222
76214W        W35959  13.340  21.549  11.463
76215W        W35960  34.491  17.204   3.671
76216W        W35961  11.185  33.079  13.927
76217W        W35962   7.302   0.879  13.476
76218W        W35963  23.047  21.113   3.288
76219W        W35964  26.535   6.425   1.423
76220W        W35965  41.887  21.580  12.527
76221W        W35966   9.220  42.890  11.903
76222W        W35967   4.881  42.019  13.864
76223W        W35968   1.789  39.324   0.779
76224W        W35969  14.736  16.602   3.155
76225W        W35970  32.987  36.502  10.607
76226W        W35971  29.980  27.967  13.439
76227W        W35972  22.216  13.317   3.219
76228W        W35973  37.999  25.699  12.355
76229W        W35974  10.793  24.053  11.610
76230W        W35975   5.257  20.228   1.302
76231W        W35976   8.221  27.969  13.832
76232W        W35977  12.819  13.778  14.452
76233W        W35978   9.869  10.145  11.987
76234W        W35979  25.100  30.533   0.357
76235W        W35980  18.154  10.710   4.145
76236W        W35981   0.744  31.448  11.426
76237W        W35982  14.294  26.031  11.423
76238W        W35983  31.993  23.631  11.112
76239W        W35984   1.381  27.950  12.078
76240W        W35985  29.994  22.558   0.855
76241W        W35986  44.260  19.616   4.716
76242W        W35987   7.223  40.429  10.456
76243W        W35988  39.391  24.084   3.659
76244W        W35989  27.692   8.219  11.003
76245W        W35990  35.384   3.230  12.949
76246W        W35991  20.681  41.824  12.348
76247W        W35992  43.904  32.489   1.876
76248W        W35993  31.012   6.856  14.014
76249W        W35994  26.012  14.213   1.274
76250W        W35995  17.222  41.501  10.418
76251W        W35996  43.982  31.085  11.508
76252W        W35997   3.801   1.738  14.779
76253W        W35998  36.593  35.963   2.893
76254W        W35999   1.735   8.762  10.578
76255W        W36000   0.957  36.521   2.406
76256W        W36001  26.015   8.775   2.836
76257W        W36002  42.781  27.944  12.554
76258W        W36003  32.633  41.790   0.338
76259W        W36004  26.137  17.161  14.759
76260W        W36005  11.792   4.716  13.463
76261W        W36006   0.941  23.510  11.553
76262W        W36007  27.542  37.346  13.440
76263W        W36008  39.386  31.538   2.379
76264W        W36009   0.365  28.672   5.686
76265W        W36010   3.884  18.286   0.776
76266W        W36011   5.426  22.091  14.320
76267W        W36012  21.174  29.424   1.238
76268W        W36013  12.325  11.686  13.403
76269W        W36014  22.541  24.998  13.407
76270W        W36015  39.495   0.814   2.244
76271W        W36016  22.520  37.945   3.172
76272W        W36017  35.541  13.653  10.502
76273W        W36018   9.864   7.368   2.224
76274W        W36019   3.916  33.385  13.367
76275W        W36020   8.734  11.245   1.417
76276W        W36021  23.240  28.592   3.304
76277W        W36022  41.003   6.825   2.894
76278W        W36023  25.008   9.281   2.230
76279W        W36024  41.015   4.268  14.363
76280W        W36025  42.857  36.874  14.858
76281W        W36026  22.220  39.320   4.353
76282W        W36027  33.885  13.776   2.368
76283W        W36028  31.607   5.904  13.469
76284W        W36029  17.684  33.525  14.378
76285W        W36030  20.551  20.123  10.636
76286W        W36031   8.667  14.146   4.139
76287W        W36032  33.032   1.828   4.708
76288W        W36033  36.449  41.852   0.816
76289W        W36034  29.932  40.504  11.404
76290W        W36035  23.680  39.913   0.259
76291W        W36036  37.036  44.908  11.871
76292W        W36037  23.524  37.836   3.844
76293W        W36038   8.277  24.693  14.492
76294W        W36039  25.098  26.668   2.760
76295W        W36040  31.999  14.210   4.193
76296W        W36041  43.961  12.244   4.778
76297W        W36042   3.327  35.549   9.975
76298W        W36043  35.911  28.561   0.326
76299W        W36044  32.591  40.355  12.543
76300W        W36045  28.167   4.883   4.240
76301W        W36046  28.143   1.398   3.223
76302W        W36047  13.753  25.510  10.604
76303W        W36048   2.248  13.129  11.476
76304W        W36049  30.928   7.333   3.224
76305W        W36050  32.956  13.177   4.216
76306W        W36051  38.842  39.989   0.249
76307W        W36052  36.392  19.563  13.813
76308W        W36053  29.955  26.013   2.263
76309W        W36054   9.738  37.949  10.931
76310W        W36055   0.426  34.119   2.218
76311W        W36056  28.048  44.269  13.436
76312W        W36057   7.390   1.244  10.622
76313W        W36058  21.684  18.632   3.371
76314W        W36059  22.624   4.858  11.600
76315W        W36060  38.353  23.598   4.224
76316W        W36061  16.210  40.494   0.455
76317W        W36062   5.865   8.677  12.505
76318W        W36063  11.826  27.975  11.610
76319W        W36064  15.749  10.238   4.257
76320W        W36065  13.766  26.142   2.739
76321W        W36066  29.142  14.683   3.360
76322W        W36067  28.676   9.772  14.439
76323W        W36068  40.380  10.755   3.288
76324W        W36069  23.581   4.722  12.394
76325W        W36070  31.999  11.826   1.449
76326W        W36071   8.737  19.638  13.466
76327W        W36072  28.009  15.732  14.796
76328W        W36073   5.918  21.045   4.176
76329W        W36074  37.431  20.556   0.277
76330W        W36075  10.153  38.856   2.776
76331W        W36076   8.374  25.067  12.361
76332W        W36077  22.505  10.759   0.262
76333W        W36078  12.800  20.040   4.743
76334W        W36079  12.152  18.789   3.664
76335W        W36080   3.430  11.332  10.957
76336W        W36081  26.667   0.746   0.893
76337W        W36082  15.741  30.013  14.329
76338W        W36083   9.798   3.869  13.415
76339W        W36084  40.839  26.140  12.415
76340W        W36085   2.853  22.183   0.757
76341W        W36086  25.169   0.346  14.391
76342W        W36087   2.752  11.352  10.988
76343W        W36088  11.841  18.775   0.753
76344W        W36089  17.652  36.580  10.156
76345W        W36090  31.074  43.962  13.963
76346W        W36091  18.227   0.925  13.935
76347W        W36092  22.743  20.628   2.305
76348W        W36093  17.560  42.847  10.457
76349W        W36094  27.457  20.595   2.731
76350W        W36095   0.983  32.118   5.129
76351W        W36096  30.018  28.028   4.788
76352W        W36097  26.574  41.826  13.512
76353W        W36098  23.190  39.830  12.823
76354W        W36099  26.616   2.958   3.147
76355W        W36100  34.393  40.354  13.370
76356W        W36101   8.377  43.797   0.282
76357W        W36102  25.024  34.561   2.336
76358W        W36103  38.532  11.344   3.652
76359W        W36104   4.865   6.224   3.650
76360W        W36105   0.289  29.003  11.902
76361W        W36106   7.722  39.023  14.309
76362W        W36107  36.873  29.591  14.382
76363W        W36108  18.274  23.567  10.598
76364W        W36109  25.495   4.244  10.441
76365W        W36110  36.870  33.942   1.756
76366W        W36111  15.260   0.977  14.947
76367W        W36112   4.724   5.210  13.406
76368W        W36113  33.958  35.938  13.364
76369W        W36114   4.778  42.441  12.540
76370W        W36115  19.583  27.185  10.464
76371W        W36116   1.784  17.306  13.377
76372W        W36117  21.539  28.540   1.825
76373W        W36118  23.652  40.466  10.933
76374W        W36119  38.929  40.982   0.902
76375W        W36120  16.204  42.989   3.787
76376W        W36121  17.739   8.817   3.319
76377W        W36122  16.675  23.241   0.360
76378W        W36123  18.602  29.566  12.090
76379W        W36124  18.655  31.018  11.893
76380W        W36125  17.560  22.627   2.896
76381W        W36126  33.049  16.180   1.419
76382W        W36127  16.581  21.581  11.504
76383W        W36128  33.616   5.707  10.544
76384W        W36129   7.231  38.881   0.944
76385W        W36130   0.442   9.174  13.529
76386W        W36131  10.307   7.727  13.058
76387W        W36132  42.459  36.931   3.204
76388W        W36133  25.045  39.472  12.429
76389W        W36134   4.757  38.067   0.333
76390W        W36135   6.851  27.184  13.004
76391W        W36136  17.564  23.613   1.281
76392W        W36137   2.406  18.743   1.878
76393W        W36138  20.244  40.822  13.487
76394W        W36139  36.098  26.509   3.369
76395W        W36140  35.593  24.717   1.793
76396W        W36141   8.404  14.168   0.797
76397W        W36142   9.283  29.586  14.866
76398W        W36143   6.298  12.249  11.081
76399W        W36144  11.694  44.308  10.017
76400W        W36145  42.386  16.737   2.876
76401W        W36146  36.062  19.739   3.841
76402W        W36147  20.095  30.099  11.009
76403W        W36148  27.501  27.977   1.729
76404W        W36149  30.096  14.193  10.895
76405W        W36150   6.751  39.967  13.449
76406W        W36151  29.990   3.821  14.803
76407W        W36152  38.894   6.319  10.897
76408W        W36153  18.695  35.604  12.450
76409W        W36154  42.300  31.046   1.734
76410W        W36155  42.300  22.014  11.392
76411W        W36156  31.049  31.934   1.905
76412W        W36157  11.724  43.492   3.161
76413W        W36158  22.052  16.725   4.132
76414W        W36159  11.745  14.768  10.959
76415W        W36160   8.170  12.346  14.469
76416W        W36161  12.677  21.512  10.417
76417W        W36162  32.459  17.177  10.084
76418W        W36163  25.521   3.797  13.446
76419W        W36164  38.442  22.516   0.806
76420W        W36165  26.573   6.381   3.162
76421W        W36166   8.820  28.669   3.335
76422W        W36167  28.576  29.949   3.349
76423W        W36168   5.303  32.423  11.976
76424W        W36169   7.671  31.900  14.502
76425W        W36170   0.299  33.592   3.784
76426W        W36171  22.178  43.390   1.285
76427W        W36172  35.927  11.828   0.932
76428W        W36173   1.371  32.589   2.276
76429W        W36174   8.821  22.540   2.817
76430W        W36175  31.057  13.231   3.723
76431W        W36176  21.673   4.397   2.236
76432W        W36177  36.011  36.005   1.304
76433W        W36178  34.542  30.085  14.790
76434W        W36179  16.131  30.129  13.871
76435W        W36180  44.264   6.865   4.322
76436W        W36181  43.356  14.732   2.704
76437W        W36182  37.940  28.978   3.203
76438W        W36183  36.910  44.385   2.761
76439W        W36184  22.718   4.907  11.031
76440W        W36185  38.566   0.292   3.820
76441W        W36186   7.676  27.648  14.477
76442W        W36187  14.129  29.484  13.539
76443W        W36188  33.388  26.459   2.846
76444W        W36189   5.719  23.082   4.303
76445W        W36190  37.962  27.580  12.384
76446W        W36191  43.306  28.971  14.390
76447W        W36192  34.951  27.964   4.776
76448W        W36193  23.533  31.490  11.549
76449W        W36194  31.417  40.489  11.887
76450W        W36195  23.186  30.608   5.264
76451W        W36196  34.431   6.351   4.247
76452W        W36197  38.516  32.035  13.941
76453W        W36198  10.727  42.347   2.727
76454W        W36199   3.273  41.469  12.874
76455W        W36200   2.452  21.077   0.271
76456W        W36201  20.114  10.726  12.521
76457W        W36202  27.026  35.420  14.420
76458W        W36203  42.365  34.519  11.557
76459W        W36204  26.977  15.130   0.322
76460W        W36205  17.300  43.313   4.744
76461W        W36206   3.718  24.071   0.446
76462W        W36207   5.207  35.986  13.443
76463W        W36208  34.503  43.340   2.664
76464W        W36209  25.583  26.530  11.556
76465W        W36210  39.872  32.457  13.937
76466W        W36211  30.516  26.569   2.853
76467W        W36212  42.783   7.777   4.723
76468W        W36213  34.897  39.475   2.719
76469W        W36214  41.328  32.903   1.789
76470W        W36215  30.956  36.557  10.991
76471W        W36216   3.950   4.889   4.317
76472W        W36217  16.140  38.427   0.808
76473W        W36218  41.914  41.877  12.910
76474W        W36219  25.698  22.653   0.862
76475W        W36220  12.199   8.238   2.259
76476W        W36221  38.456   5.894   0.912
76477W        W36222  35.033  26.647   0.940
76478W        W36223  40.522  17.166   0.961
76479W        W36224  20.185  10.351  11.395
76480W        W36225   4.309  18.619   3.184
76481W        W36226  36.955  23.506   2.350
76482W        W36227  33.917  33.958  12.909
76483W        W36228  32.097  41.982  14.899
76484W        W36229  36.921  44.885  14.407
76485W        W36230  19.676   4.699   3.236
76486W        W36231  18.701  20.738  13.874
76487W        W36232  40.905  28.610   4.817
76488W        W36233   1.875  15.631  12.364
76489W        W36234   1.448  42.921  10.593
76490W        W36235  41.338  38.909  10.561
76491W        W36236  22.098  37.410  12.557
76492W        W36237  41.816  37.509   0.909
76493W        W36238  39.395  44.284  11.012
76494W        W36239  27.056   5.764   1.312
76495W        W36240  16.184  27.584  14.893
76496W        W36241   7.388  42.778   2.720
76497W        W36242  19.720   8.731  11.105
76498W        W36243  42.884  23.595  14.470
76499W        W36244   9.171  34.510  13.905
76500W        W36245  17.300  11.668   2.810
76501W        W36246  32.129  35.525   4.297
76502W        W36247  40.381  18.695   0.884
76503W        W36248  43.851   7.277   1.872
76504W        W36249  37.561  34.417  12.416
76505W        W36250  12.715  31.928   4.231
76506W        W36251  11.229  40.474  10.523
76507W        W36252  15.790  25.030  10.471
76508W        W36253  25.134  28.553  12.053
76509W        W36254  26.128  38.386  11.051
76510W        W36255  32.013  41.400   0.290
76511W        W36256   1.274  43.492   1.899
76512W        W36257  29.964  11.722   3.692
76513W        W36258   6.312   3.294   0.888
76514W        W36259  18.665  32.974   1.843
76515W        W36260  21.551  39.543  10.894
76516W        W36261  29.670  22.096  11.960
76517W        W36262  37.458  32.486   4.346
76518W        W36263  44.356   4.317  13.797
76519W        W36264  34.083  41.476  13.049
76520W        W36265  23.216  32.558  12.949
76521W        W36266  20.525  16.314  14.837
76522W        W36267  34.459  35.868   3.779
76523W        W36268  43.991  29.660  11.492
76524W        W36269  42.394  24.648   0.292
76525W        W36270  36.880  23.704   1.342
76526W        W36271   2.912   4.366  13.973
76527W        W36272  30.990  30.074   2.692
76528W        W36273  24.059  31.614  13.424
76529W        W36274  16.088  18.279   5.298
76530W        W36275  18.276  22.208  13.991
76531W        W36276  20.177  28.986   0.943
76532W        W36277  29.144  42.439  13.498
76533W        W36278  32.943  10.762   0.259
76534W        W36279  44.502  40.019   2.804
76535W        W36280  38.860  42.463   1.240
76536W        W36281  36.377  14.741  12.485
76537W        W36282  41.490  15.306  13.456
76538W        W36283  38.043  20.109   4.745
76539W        W36284   5.297  12.753   0.469
76540W        W36285  37.518  41.472  11.433
76541W        W36286  36.032  37.341   3.195
76542W        W36287  12.649  21.220   4.605
76543W        W36288  43.973   5.244   0.254
76544W        W36289  25.183   9.364   3.684
76545W        W36290  26.624  32.399   4.692
76546W        W36291  14.220  32.009   2.264
76547W        W36292   4.448   7.709   4.773
76548W        W36293  34.046  40.378   4.619
76549W        W36294  13.230  10.244   3.374
76550W        W36295  38.041  29.485  14.454
76551W        W36296  12.641  28.604   4.213
76552W        W36297  13.719  29.646  13.885
76553W        W36298  39.023   8.322  12.401
76554W        W36299   9.213   3.293  10.603
76555W        W36300  32.557  17.683   3.686
76556W        W36301  37.077  36.025  14.356
76557W        W36302  34.443  36.879  14.443
76558W        W36303  10.308   8.708  10.007
76559W        W36304  24.176  41.535  11.452
76560W        W36305  25.029  14.283  13.377
76561W        W36306   5.407  40.860  14.502
76562W        W36307  25.502  20.575  13.968
76563W        W36308  21.038   1.860   1.239
76564W        W36309  25.658   3.405  12.565
76565W        W36310  42.908  43.930  10.599
76566W        W36311  17.721   4.289   2.692
76567W        W36312  12.340  41.305   4.354
76568W        W36313  25.544   3.787   5.206
76569W        W36314  33.611   4.441  10.410
76570W        W36315  27.003  28.564   1.348
76571W        W36316  18.757  16.779   1.803
76572W        W36317  16.265  37.059  11.561
76573W        W36318  27.638   7.816  10.617
76574W        W36319  36.397  25.974  10.414
76575W        W36320  36.479   2.917  10.457
76576W        W36321  17.608  22.713   4.347
76577W        W36322  19.714  25.123   5.151
76578W        W36323  15.761  22.186   4.353
76579W        W36324  44.418  25.182  11.087
76580W        W36325  39.059  12.120  13.984
76581W        W36326  36.522  27.603   1.324
76582W        W36327  26.662  33.997  10.468
76583W        W36328   2.782  28.670   2.293
76584W        W36329  40.493  24.711  11.107
76585W        W36330  33.429  41.036   0.400
76586W        W36331  17.570  34.449  12.915
76587W        W36332  27.503   0.253   1.343
76588W        W36333  32.590  37.887  11.042
76589W        W36334  27.452   0.461   4.651
76590W        W36335  18.595   7.265   9.957
76591W        W36336  28.057  18.133   4.240
76592W        W36337   6.681  35.531  12.897
76593W        W36338   8.773  18.772   4.705
76594W        W36339  11.734  20.128   0.287
76595W        W36340  28.515  28.463   1.718
76596W        W36341  38.864  44.416   4.241
76597W        W36342   7.814  38.470  14.342
76598W        W36343  28.030  40.383  12.560
76599W        W36344  14.700   4.741   2.742
76600W        W36345  35.968  29.037   0.332
76601W        W36346  36.027  42.929   1.254
76602W        W36347  10.704   9.252   3.156
76603W        W36348  35.879  44.798   3.300
76604W        W36349  17.572  36.914  12.874
76605W        W36350   5.400   0.489  14.877
76606W        W36351  13.111  17.305   2.702
76607W        W36352   3.857  24.080   1.416
76608W        W36353  14.270  24.987   0.915
76609W        W36354   6.288  11.360  11.457
76610W        W36355   2.737   5.819  10.411
76611W        W36356  10.326  12.654   1.393
76612W        W36357  28.445   6.712  11.021
76613W        W36358   1.303  12.762   0.798
76614W        W36359  12.752  14.184   3.716
76615W        W36360   6.677  36.484   4.161
76616W        W36361   0.373  40.333   4.133
76617W        W36362  31.507   0.356  14.485
76618W        W36363   6.900   1.264  14.406
76619W        W36364  26.158  35.508  10.978
76620W        W36365  29.549  33.560  10.011
76621W        W36366   7.196   2.755  13.044
76622W        W36367  11.309  13.308  14.475
76623W        W36368  37.406   3.928   0.874
76624W        W36369  42.344  11.310   4.296
76625W        W36370  37.358   7.251   4.273
76626W        W36371   8.190  37.534  11.541
76627W        W36372   3.403   2.776   3.169
76628W        W36373  17.650   4.390   1.257
76629W        W36374  22.652  15.782   2.758
76630W        W36375  43.831  37.911  14.910
76631W        W36376  19.213   3.362   2.387
76632W        W36377  42.340  30.927   3.252
76633W        W36378  40.006  15.759  12.512
76634W        W36379  17.684   0.366  10.944
76635W        W36380   4.791   1.880  10.630
76636W        W36381   6.729   3.834  11.954
76637W        W36382  21.115  11.806   1.355
76638W        W36383  42.905  10.826  11.600
76639W        W36384  44.952   4.406  14.284
76640W        W36385  44.299  13.198  12.082
76641W        W36386  25.193  11.842  12.848
76642W        W36387   9.213  12.349   3.856
76643W        W36388  42.316   1.763  10.552
76644W        W36389   9.240  26.633   2.376
76645W        W36390  21.708  19.267  13.062
76646W        W36391  28.021  32.454   3.290
76647W        W36392  39.358  27.026   0.262
76648W        W36393  19.163   6.197   3.328
76649W        W36394   2.859  24.648  13.798
76650W        W36395   5.784   5.726   3.762
76651W        W36396  14.250  20.547   3.245
76652W        W36397   2.255   5.356  10.469
76653W        W36398  11.628  28.668  13.317
76654W        W36399  33.468  25.088  14.993
76655W        W36400  41.470  14.188   1.843
76656W        W36401   3.753   4.730   1.428
76657W        W36402   4.261  31.933  13.548
76658W        W36403  39.383  12.252   4.817
76659W        W36404  17.289  23.530  14.786
76660W        W36405  33.438  27.504   3.649
76661W        W36406  20.746   9.797   1.715
76662W        W36407  17.116  22.626  10.998
76663W        W36408  34.462   6.830  14.907
76664W        W36409  30.029  22.610  10.535
76665W        W36410  41.793   2.808   4.184
76666W        W36411  34.064  30.067   9.570
76667W        W36412  38.502  43.008   1.442
76668W        W36413  28.118   3.912   1.269
76669W        W36414  26.691  24.160  13.942
76670W        W36415  17.248  22.662  11.988
76671W        W36416   5.280  38.356   2.251
76672W        W36417  29.939  38.951  14.973
76673W        W36418  43.384  35.937  14.958
76674W        W36419   5.892  26.956   2.788
76675W        W36420   8.837  39.916  11.454
76676W        W36421   2.760  40.977  13.962
76677W        W36422  27.132   8.657  10.422
76678W        W36423  42.824  23.560  10.603
76679W        W36424   8.310  34.018   4.351
76680W        W36425  42.313  39.879   2.862
76681W        W36426  19.619  37.552  12.002
76682W        W36427  37.087   4.832   1.732
76683W        W36428  36.932  31.414  13.798
76684W        W36429  14.244   6.428  14.820
76685W        W36430   1.355  26.576   2.861
76686W        W36431   4.856  33.927   0.396
76687W        W36432  21.221  38.397   1.219
76688W        W36433   1.452  31.625   2.776
76689W        W36434   9.796  29.645   0.296
76690W        W36435   2.438  17.747   4.783
76691W        W36436  42.829  28.151   2.818
76692W        W36437  24.040   4.835   4.749
76693W        W36438  39.981  16.126   1.367
76694W        W36439  14.693  18.759   1.376
76695W        W36440  35.408  16.150   1.425
76696W        W36441  28.127  23.537   4.213
76697W        W36442  21.733  14.170  11.415
76698W        W36443  38.525  20.220   1.434
76699W        W36444   1.757  27.516  11.008
76700W        W36445   7.811  22.508   0.445
76701W        W36446  18.628  11.764  11.111
76702W        W36447  12.351  26.607  12.853
76703W        W36448   1.379   1.877   0.479
76704W        W36449  28.996  12.763   0.265
76705W        W36450   5.773  23.528   0.805
76706W        W36451  33.601  44.791  10.481
76707W        W36452  32.969   0.494   0.756
76708W        W36453  32.886   6.323  13.404
76709W        W36454  12.273  26.638   3.360
76710W        W36455  21.156   2.878  13.358
76711W        W36456  18.623  27.559   2.893
76712W        W36457  35.463   4.727  12.840
76713W        W36458  38.844  25.483   1.247
76714W        W36459  20.569  30.638   4.814
76715W        W36460   8.350  29.971   0.910
76716W        W36461   5.914   6.806  11.371
76717W        W36462  12.135  33.566  12.079
76718W        W36463   4.780  10.743   2.399
76719W        W36464  26.192   4.445   3.258
76720W        W36465  36.978  32.048  13.922
76721W        W36466  15.289   4.927   1.710
76722W        W36467  33.444  24.593  14.514
76723W        W36468   1.313   6.827  10.488
76724W        W36469  21.596  41.027   3.639
76725W        W36470  29.959  44.337   2.756
76726W        W36471  26.460  30.129   1.423
76727W        W36472   2.462  22.229  12.967
76728W        W36473   2.376  39.977  12.990
76729W        W36474  29.469  25.562   0.324
76730W        W36475  40.447  43.430   1.328
76731W        W36476   6.387  34.493   2.857
76732W        W36477  30.110   5.919  14.346
76733W        W36478   7.843  32.432   2.268
76734W        W36479   9.749  37.025   1.814
76735W        W36480   5.420  13.771   4.664
76736W        W36481  39.978  31.138   1.831
76737W        W36482  22.551  30.600   3.791
76738W        W36483  34.039   4.436  14.932
76739W        W36484   4.855  28.159  11.085
76740W        W36485  31.113  35.401   1.771
76741W        W36486   4.387  40.896  11.968
76742W        W36487  42.859  22.562  14.376
76743W        W36488  32.513   3.941   0.842
76744W        W36489  18.107  17.209  12.052
76745W        W36490  35.069   7.878  10.596
76746W        W36491   4.805  10.218  13.868
76747W        W36492   3.850   6.737  11.866
76748W        W36493  20.068  10.266  13.350
76749W        W36494  40.895  33.975   1.320
76750W        W36495   6.376  14.698  12.951
76751W        W36496   3.751  12.141   0.847
76752W        W36497  12.791  24.602   1.753
76753W        W36498  21.040  34.593  12.476
76754W        W36499   9.307  31.427   3.636
76755W        W36500  13.269   4.908  11.600
76756W        W36501  21.030  42.507   4.204
76757W        W36502  11.369  17.185   0.478
76758W        W36503   7.286   7.725   1.879
76759W        W36504  11.272  18.096  12.065
76760W        W36505  11.815  20.555   1.216
76761W        W36506  42.833  26.109  12.531
76762W        W36507  30.527  11.356   0.324
76763W        W36508  43.830  41.947  11.591
76764W        W36509   5.821  41.538   3.223
76765W        W36510  27.120  36.398  12.342
76766W        W36511  33.968  44.397  10.441
76767W        W36512  11.866  21.058  13.989
76768W        W36513   7.787  43.406  13.984
76769W        W36514  44.267  13.246   1.249
76770W        W36515  28.998  40.876   4.286
76771W        W36516  11.837   8.405  13.829
76772W        W36517  10.261  14.110   1.430
76773W        W36518  43.966  21.152  14.855
76774W        W36519  16.690  20.619  11.527
76775W        W36520  36.458  16.214  13.984
76776W        W36521  32.021  23.120   1.807
76777W        W36522  41.324  36.477  10.471
76778W        W36523   8.677  36.842  12.886
76779W        W36524   2.245  24.623  10.947
76780W        W36525   6.882  11.866   4.747
76781W        W36526  10.649  10.734   0.945
76782W        W36527  35.990  16.623   0.939
76783W        W36528  27.478  38.039   0.433
76784W        W36529  38.518  40.517  10.894
76785W        W36530  13.739  21.131   3.808
76786W        W36531  41.977  32.082  12.963
76787W        W36532  33.109  41.310  12.047
76788W        W36533  42.978  23.041  14.311
76789W        W36534   7.838   1.811  14.937
76790W        W36535  23.029  27.074   1.933
76791W        W36536   3.867  24.520  11.389
76792W        W36537  33.387  25.072  13.491
76793W        W36538  10.782  35.002   0.283
76794W        W36539  39.500   4.764  10.419
76795W        W36540  37.040  21.723  11.476
76796W        W36541   2.734  39.320   1.914
76797W        W36542  21.217  10.759   0.319
76798W        W36543  15.723  13.718   4.716
76799W        W36544  33.442  15.583  14.325
76800W        W36545  35.927  33.113   1.896
76801W        W36546  26.561  28.560   2.892
76802W        W36547  12.214  29.120  14.303
76803W        W36548  21.695  28.095   0.879
76804W        W36549   8.768  36.093   2.208
76805W        W36550  26.989  12.264  12.532
76806W        W36551  37.361  39.830  14.508
76807W        W36552  19.217   9.847  13.823
76808W        W36553  21.141  26.461  12.497
76809W        W36554  35.452  32.602   0.908
76810W        W36555   7.188  44.457  14.440
76811W        W36556  41.491   2.250  14.942
76812W        W36557  12.299   8.281  14.326
76813W        W36558  18.585  21.547  14.311
76814W        W36559  11.858  33.897   3.866
76815W        W36560  30.066  23.706  14.339
76816W        W36561   6.403  33.566   9.959
76817W        W36562  27.979  42.780   1.779
76818W        W36563  17.072  37.378  11.599
76819W        W36564  44.949  15.819  11.020
76820W        W36565  33.047   9.148  10.539
76821W        W36566  41.460  32.970   0.398
76822W        W36567  43.456  34.098   3.676
76823W        W36568  17.140   1.442  12.058
76824W        W36569  32.069  20.590  11.968
76825W        W36570  39.996   2.367  11.916
76826W        W36571  14.340  34.471  13.517
76827W        W36572  14.204  31.573   4.167
76828W        W36573  42.294  44.458  12.550
76829W        W36574  21.604   5.689  11.529
76830W        W36575  42.523  26.644  12.945
76831W        W36576  32.559  28.047  11.996
76832W        W36577  27.081  19.756  12.035
76833W        W36578  28.500  26.527   3.659
76834W        W36579  25.210   7.675  10.946
76835W        W36580  21.078  42.974   1.777
76836W        W36581  27.642  37.068  11.414
76837W        W36582  36.028   5.877   2.288
76838W        W36583  27.641  11.638  14.911
76839W        W36584  22.635   6.322  10.936
76840W        W36585   2.734  44.767   4.163
76841W        W36586  11.843  33.940   2.355
76842W        W36587  21.654  44.466   3.684
76843W        W36588  41.788   1.891   2.802
76844W        W36589  28.473   2.823  11.907
76845W        W36590  24.110  25.688  14.276
76846W        W36591  19.123   7.695  10.894
76847W        W36592  30.952  13.147  12.405
76848W        W36593   1.380  14.798   1.717
76849W        W36594   4.778  10.821  12.983
76850W        W36595   5.855  33.951   2.221
76851W        W36596  10.212   9.791  13.041
76852W        W36597  13.724  39.020   2.291
76853W        W36598   4.430  12.648   3.683
76854W        W36599  35.888  41.420   4.118
76855W        W36600  35.380  19.138  14.945
76856W        W36601  36.070   3.821   4.175
76857W        W36602   9.358   8.319  12.537
76858W        W36603  16.264   8.312  14.828
76859W        W36604  40.338   9.705   1.420
76860W        W36605  11.266  28.139  11.947
76861W        W36606  15.710  35.457  13.832
76862W        W36607  24.974  41.328  14.012
76863W        W36608  28.964   7.706   0.362
76864W        W36609  39.017   9.314  10.632
76865W        W36610  11.866  41.519  12.537
76866W        W36611  12.224   6.861  11.946
76867W        W36612  31.536   3.938  12.408
76868W        W36613  38.021   7.767  14.973
76869W        W36614  27.118  19.179  14.395
76870W        W36615   3.816   9.787  11.121
76871W        W36616  37.876  23.042  12.080
76872W        W36617  38.956   6.317   5.202
76873W        W36618  33.475  22.693   0.473
76874W        W36619   0.933  26.198   1.843
76875W        W36620   6.233  34.485  10.892
76876W        W36621  21.137  33.405  12.395
76877W        W36622  39.980  39.034   4.265
76878W        W36623  39.400   3.720  11.020
76879W        W36624  31.028  39.834   1.700
76880W        W36625  20.680  18.660   3.722
76881W        W36626  33.407  29.533  10.430
76882W        W36627   4.215  34.486   1.305
76883W        W36628  10.809  12.280  12.544
76884W        W36629  35.466  10.189  13.545
76885W        W36630  33.974  41.473  12.486
76886W        W36631  26.639  38.506   1.312
76887W        W36632   0.282  40.323  14.934
76888W        W36633  12.731   6.316   0.371
76889W        W36634  10.201   7.267   4.776
76890W        W36635  15.673   0.892   5.273
76891W        W36636  40.461  41.408  11.946
76892W        W36637  41.337   7.669   1.271
76893W        W36638  36.843  18.227   0.400
76894W        W36639  29.954  20.180   1.440
76895W        W36640  14.627   2.911  13.974
76896W        W36641  23.498  37.830  11.609
76897W        W36642   4.888  30.131   1.380
76898W        W36643  14.597  13.321   4.671
76899W        W36644   8.775  44.826   3.669
76900W        W36645  15.269  42.959   3.663
76901W        W36646  32.101  38.010   5.100
76902W        W36647  33.601   4.303  11.582
76903W        W36648  41.990  36.379  13.527
76904W        W36649  42.975  15.767   3.165
76905W        W36650   1.455  23.057  12.937
76906W        W36651  44.814   8.166  12.027
76907W        W36652   1.769  43.514   3.332
76908W        W36653  40.434  38.906  13.889
76909W        W36654  12.190  23.572   3.302
76910W        W36655  33.914  31.015  10.539
76911W        W36656   1.341  10.151  12.346
76912W        W36657   1.964  28.621  11.478
76913W        W36658  22.559  41.461  12.355
76914W        W36659   2.325  10.696   3.722
76915W        W36660  40.415  33.084  11.473
76916W        W36661  30.987   0.918  11.557
76917W        W36662  43.428  32.008   1.764
76918W        W36663   1.874   5.362   0.827
76919W        W36664  32.908  20.197  10.463
76920W        W36665  36.415   8.715   0.837
76921W        W36666  23.559  37.548  11.504
76922W        W36667  15.212  24.484   4.227
76923W        W36668  16.311  42.805  12.022
76924W        W36669   9.312   5.352  11.895
76925W        W36670  10.240  30.148  13.355
76926W        W36671  36.911  11.268  12.911
76927W        W36672  19.590   8.282  13.004
76928W        W36673  27.943  35.897  13.039
76929W        W36674   9.344   5.295   3.176
76930W        W36675  28.126  32.430   1.912
76931W        W36676   6.356  36.401   2.676
76932W        W36677   4.896  15.623   0.339
76933W        W36678  22.575  34.582  11.597
76934W        W36679  33.602  24.023   0.801
76935W        W36680  44.801  18.559  14.985
76936W        W36681  27.581  16.273  14.790
76937W        W36682   9.153  19.544   4.212
76938W        W36683  21.722  13.713  13.346
76939W        W36684   9.719  42.368   3.822
76940W        W36685  34.368  33.071  10.561
76941W        W36686  36.559  40.850   3.296
76942W        W36687   7.367  32.429  14.322
76943W        W36688   7.181  22.623  11.490
76944W        W36689   1.962   1.740  10.437
76945W        W36690  44.263   3.776  11.982
76946W        W36691  20.241  40.042   3.668
76947W        W36692   8.667  16.635   3.811
76948W        W36693   1.321  18.629   0.317
76949W        W36694   5.358  25.626  10.890
76950W        W36695  39.887  36.576   2.214
76951W        W36696  26.552   1.483   0.344
76952W        W36697  38.836   4.736  10.613
76953W        W36698  20.707  21.555  14.778
76954W        W36699  25.212  37.482  13.534
76955W        W36700   5.217  24.023   4.276
76956W        W36701   6.902  30.480   0.881
76957W        W36702  32.908  29.587  11.983
76958W        W36703   2.958   8.684   4.779
76959W        W36704  15.149  17.219   0.882
76960W        W36705  19.081  40.805   2.283
76961W        W36706  25.551   6.916   0.734
76962W        W36707   6.763  14.674  13.879
76963W        W36708  34.530   5.901  11.049
76964W        W36709  14.648  29.440   0.296
76965W        W36710  41.942   0.435  13.827
76966W        W36711  21.132  34.989   4.226
76967W        W36712  24.165   6.705   0.795
76968W        W36713  25.485   6.676  13.921
76969W        W36714  19.164   8.312  11.857
76970W        W36715  26.541  42.909  11.451
76971W        W36716   9.246  24.609   3.285
76972W        W36717  36.399  44.364   5.225
76973W        W36718  13.122   3.905  11.042
76974W        W36719  36.966   6.790  13.020
76975W        W36720  44.878  24.129   2.671
76976W        W36721  41.305  36.361  11.446
76977W        W36722  20.686  39.410  13.449
76978W        W36723  38.557  34.876  12.031
76979W        W36724  19.127  23.588  11.082
76980W        W36725  29.044  22.098  11.096
76981W        W36726   3.882  34.062  11.430
76982W        W36727  16.092  14.324   4.695
76983W        W36728  41.988  39.418   1.705
76984W        W36729  25.201  40.002  10.903
76985W        W36730  17.690   8.844  12.446
76986W        W36731  21.055  35.924  10.151
76987W        W36732  17.122  23.078   0.473
76988W        W36733  22.088  25.587  12.381
76989W        W36734  35.889  27.547   2.851
76990W        W36735   5.259   9.853  13.049
76991W        W36736   5.337  12.329   3.371
76992W        W36737  17.720  10.283   0.813
76993W        W36738   5.731  30.942   4.150
76994W        W36739  36.061  39.382  11.926
76995W        W36740  14.723  23.200  11.507
76996W        W36741  21.518  31.923   3.834
76997W        W36742  10.358  15.248   0.832
76998W        W36743  22.190   4.927   5.121
76999W        W36744   6.688  18.248   1.427
77000W        W36745  29.662  16.221  12.876
77001W        W36746  30.595  21.143  14.403
77002W        W36747   5.311  15.727  13.417
77003W        W36748   6.677   7.828  11.586
77004W        W36749   0.334   6.296  11.510
77005W        W36750  15.260  16.187   4.830
77006W        W36751  30.436   6.293  13.496
77007W        W36752  16.716  24.091  13.517
77008W        W36753  36.929  21.534  12.865
77009W        W36754  38.870   0.911   3.331
77010W        W36755  33.882  15.706   4.775
77011W        W36756  32.423  19.263  11.392
77012W        W36757  38.491   9.335   3.335
77013W        W36758  27.013  18.754  11.069
77014W        W36759  32.141  24.532  12.899
77015W        W36760  35.977  19.766   0.948
77016W        W36761  31.431  29.567   3.790
77017W        W36762  44.920  40.809  14.478
77018W        W36763  34.940   5.754   4.186
77019W        W36764  29.973  34.547   4.118
77020W        W36765  15.682  31.444  12.454
77021W        W36766  21.231  30.969  14.318
77022W        W36767   3.771  20.246   2.343
77023W        W36768  39.444  24.194  12.361
77024W        W36769   4.867  41.934  10.510
77025W        W36770   4.872   3.243  13.381
77026W        W36771  25.061  27.948  12.425
77027W        W36772  38.363  23.009  10.614
77028W        W36773  18.773  34.955  11.570
77029W        W36774  18.653  14.327   4.681
77030W        W36775  41.948  29.088   2.662
77031W        W36776   3.836   9.749  10.456
77032W        W36777  21.147  18.701   0.924
77033W        W36778  17.286  26.085  13.462
77034W        W36779  40.542  18.745   0.459
77035W        W36780  10.853  34.916   2.330
77036W        W36781   7.368  33.988   4.184
77037W        W36782  37.930  25.563   4.750
77038W        W36783  34.446  16.678   1.284
77039W        W36784  16.196   5.326   1.708
77040W        W36785  29.597  28.146   4.797
77041W        W36786  12.352  40.914   0.319
77042W        W36787   3.927   2.286  13.901
77043W        W36788  37.970   2.779  11.508
77044W        W36789  11.356  15.258   3.733
77045W        W36790  35.367  23.128  10.976
77046W        W36791  29.590  22.584  10.638
77047W        W36792  20.596  31.595  11.518
77048W        W36793  37.375  12.347   2.366
77049W        W36794  12.190  35.031   4.698
77050W        W36795  19.057  11.744   3.184
77051W        W36796   7.241  29.655  12.384
77052W        W36797  10.318  17.279  12.521
77053W        W36798  15.647   3.378  14.895
77054W        W36799  17.737  39.875  14.770
77055W        W36800  37.995  43.886   3.281
77056W        W36801  20.705  38.325  12.909
77057W        W36802  15.174  34.539  14.824
77058W        W36803   5.334  30.621   3.151
77059W        W36804   5.688  18.710   4.207
77060W        W36805   7.301  22.660   1.443
77061W        W36806  27.079  29.977  12.010
77062W        W36807  19.120  12.280  13.466
77063W        W36808   9.329  39.369   4.691
77064W        W36809   9.693  12.133  11.375
77065W        W36810  36.033  19.153  13.847
77066W        W36811  12.825  26.033  14.802
77067W        W36812  14.699  41.530  14.027
77068W        W36813  40.423  22.191   0.887
77069W        W36814  13.310  22.081  11.385
77070W        W36815  42.913  40.034   4.307
77071W        W36816  33.602  23.027  14.292
77072W        W36817   6.712  23.134   4.326
77073W        W36818   4.784  14.169  12.385
77074W        W36819  21.697  13.188   1.860
77075W        W36820  26.676  41.474  11.491
77076W        W36821  44.412  14.604   4.601
77077W        W36822   2.868  22.736   4.205
77078W        W36823  38.402  36.963  12.056
77079W        W36824  33.911   4.253   4.798
77080W        W36825  12.328  18.561  14.492
77081W        W36826   1.914  30.953  12.405
77082W        W36827  21.536  23.020  13.449
77083W        W36828  10.789  16.638   1.295
77084W        W36829  10.800  14.830   4.618
77085W        W36830  35.953   3.872   0.420
77086W        W36831  42.404  17.162  11.931
77087W        W36832  36.396  42.390   4.621
77088W        W36833  24.668  30.068  12.927
77089W        W36834  44.373   1.785   4.313
77090W        W36835   5.221  17.760  14.921
77091W        W36836  22.212   7.348  12.377
77092W        W36837  23.543  34.033   0.842
77093W        W36838   7.325   2.234   3.212
77094W        W36839  13.207  16.735  14.290
77095W        W36840  19.777  25.706  14.425
77096W        W36841  19.578  37.986  13.970
77097W        W36842  26.484  27.152  10.569
77098W        W36843  12.745  15.184   3.335
77099W        W36844  14.176  44.886   2.798
77100W        W36845  44.891   7.297  13.961
77101W        W36846  18.255  41.808   0.481
77102W        W36847   8.655  31.975   0.297
77103W        W36848  30.046   8.380   2.227
77104W        W36849   8.668  34.488  12.072
77105W        W36850  38.405  37.414  10.947
77106W        W36851  17.622  23.174  11.537
77107W        W36852   0.431   7.321  12.472
77108W        W36853  11.686  10.298   2.278
77109W        W36854  16.289  38.367   3.797
77110W        W36855  10.859  18.722   1.355
77111W        W36856   6.806  31.437   0.469
77112W        W36857   7.211  37.492  11.938
77113W        W36858  24.202  29.060  12.545
77114W        W36859   5.818  30.105   2.835
77115W        W36860   0.422  18.085   1.282
77116W        W36861  38.413  27.611   2.185
77117W        W36862  42.472   8.874  10.599
77118W        W36863  41.804  16.692   0.273
77119W        W36864  15.594  37.462   4.221
77120W        W36865  21.643  37.514   0.769
77121W        W36866   8.272  44.301  14.331
77122W        W36867  28.170  40.026  11.608
77123W        W36868  30.535  35.523   0.475
77124W        W36869   1.443  31.984   0.771
77125W        W36870  16.228   1.407  14.929
77126W        W36871  18.789  34.425  10.985
77127W        W36872  11.357  26.615   3.320
77128W        W36873  27.519  10.817  14.982
77129W        W36874  39.004   0.338   4.187
77130W        W36875  20.745  12.262  10.953
77131W        W36876  10.380  35.587  13.957
77132W        W36877  37.569   6.854   4.837
77133W        W36878  18.231  23.229   2.745
77134W        W36879  38.938  22.997  11.528
77135W        W36880   0.255  27.533   4.721
77136W        W36881  36.461  22.663   3.374
77137W        W36882  30.033  38.507   3.298
77138W        W36883  16.689  31.034   3.703
77139W        W36884   6.797  42.300   2.370
77140W        W36885  30.612  44.791   2.248
77141W        W36886   9.365  10.847  12.490
77142W        W36887   0.329  15.096   1.828
77143W        W36888   3.876   2.818  12.360
77144W        W36889  26.974  21.090   4.240
77145W        W36890  44.445  15.751   3.800
77146W        W36891  15.592   0.269  11.386
77147W        W36892   1.848  22.685   3.323
77148W        W36893   7.729  42.947  12.402
77149W        W36894  26.482   2.851   4.604
77150W        W36895  12.811  38.902   2.225
77151W        W36896  40.369  37.450   4.331
77152W        W36897  36.003  19.221  11.502
77153W        W36898  15.703  17.149   0.296
77154W        W36899  15.207  18.073  11.464
77155W        W36900  18.187  33.959   3.788
77156W        W36901   3.719  39.950  12.557
77157W        W36902  36.491  36.095  14.827
77158W        W36903   7.756  41.411   5.199
77159W        W36904  12.341  12.619   0.410
77160W        W36905   4.773  19.594  14.944
77161W        W36906   7.221  11.212   1.218
77162W        W36907  40.504  21.171   9.994
77163W        W36908  12.117  20.129  13.386
77164W        W36909  43.500  21.653  14.803
77165W        W36910   4.344  13.341  11.118
77166W        W36911  30.536   1.891   1.695
77167W        W36912  17.221  18.587  11.455
77168W        W36913  25.566   8.666  14.873
77169W        W36914  33.496  30.516   0.941
77170W        W36915  27.099  27.449   0.817
77171W        W36916   7.382  14.726   0.765
77172W        W36917  42.798  15.128   3.278
77173W        W36918   4.808  29.124  11.427
77174W        W36919  37.514  29.595   2.418
77175W        W36920  41.933  36.032  10.644
77176W        W36921  10.806   9.740   0.267
77177W        W36922   8.330  36.467  10.954
77178W        W36923  11.173   3.215  12.045
77179W        W36924  14.796  34.070  11.056
77180W        W36925   1.970  43.295  11.538
77181W        W36926  43.010  31.511  12.006
77182W        W36927  30.619  27.144  14.497
77183W        W36928  37.491  43.468   0.880
77184W        W36929  12.271   1.303   0.316
77185W        W36930  28.438  40.818   4.254
77186W        W36931   8.771  44.441  11.125
77187W        W36932  18.126  17.064   3.735
77188W        W36933  19.107  32.439  14.328
77189W        W36934  43.478  21.141   2.186
77190W        W36935  41.961  36.572   0.283
77191W        W36936  11.861  43.930   2.325
77192W        W36937  37.355  17.238  13.388
77193W        W36938  11.715  14.259   5.198
77194W        W36939  36.366  27.542  14.315
77195W        W36940   6.750   5.865  11.473
77196W        W36941  16.725   1.481   3.239
77197W        W36942   5.264  37.378  11.115
77198W        W36943   2.461  10.755  10.597
77199W        W36944   8.236   2.843  14.844
77200W        W36945  29.945  17.623  12.931
77201W        W36946  37.480  19.043  11.964
77202W        W36947  11.239  44.336   0.405
77203W        W36948  11.772   2.246   0.846
77204W        W36949  29.566  25.120  11.927
77205W        W36950  31.122  17.630   2.415
77206W        W36951  18.560  38.870   3.365
77207W        W36952  32.567  18.229   9.521
77208W        W36953  16.750  11.369  11.871
77209W        W36954  19.077  42.014   4.648
77210W        W36955  39.557  39.443   1.921
77211W        W36956   7.785  22.242   2.772
77212W        W36957  41.898   3.226  13.933
77213W        W36958  27.190  38.395   4.676
77214W        W36959   9.371  30.556  10.558
77215W        W36960  34.543   8.394  14.492
77216W        W36961   0.809   6.846   1.273
77217W        W36962  21.230  13.345   2.242
77218W        W36963  19.684  18.081  11.540
77219W        W36964   6.219  33.516   2.785
77220W        W36965   5.365   4.400  14.014
77221W        W36966   7.863  22.623  11.473
77222W        W36967  21.114  19.242  12.090
77223W        W36968  20.136  13.224   0.264
77224W        W36969  35.441  15.717   4.133
77225W        W36970  28.165  38.940  11.084
77226W        W36971  23.194  16.260  14.996
77227W        W36972   2.929  11.142  13.350
77228W        W36973  11.737  41.533  13.036
77229W        W36974  22.166  10.357   4.192
77230W        W36975  39.328  33.078  11.406
77231W        W36976  12.311  21.633   4.690
77232W        W36977  28.463   3.853  12.859
77233W        W36978  28.949  27.497  14.925
77234W        W36979  28.099  23.678  10.904
77235W        W36980   0.360   8.666   4.323
77236W        W36981   3.886  14.670   1.293
77237W        W36982  29.088  10.797  13.393
77238W        W36983  21.731  41.344   0.395
77239W        W36984  29.574   8.176   2.183
77240W        W36985  19.085  18.209  11.579
77241W        W36986  39.882  34.562  11.861
77242W        W36987   5.845  10.177  12.354
77243W        W36988   0.979  15.779   0.258
77244W        W36989  19.210  25.700   4.687
77245W        W36990  13.242  18.687  14.009
77246W        W36991  37.060  33.901   3.654
77247W        W36992  34.415  35.934  12.569
77248W        W36993  18.076  26.057  11.874
77249W        W36994  44.384  38.547  11.439
77250W        W36995  26.199  16.778  13.942
77251W        W36996  11.219  17.185   4.828
77252W        W36997   2.394  17.668  12.500
77253W        W36998  41.822  42.420  14.009
77254W        W36999  43.347  38.954  12.968
77255W        W37000  19.571  42.030   3.659
77256W        W37001  24.029  37.936   4.198
77257W        W37002  18.280   8.874  12.042
77258W        W37003  42.458  19.094  14.308
77259W        W37004  41.904  34.998  12.862
77260W        W37005  36.901  18.663   0.745
77261W        W37006   8.734   6.380   1.859
77262W        W37007   3.317  30.418  12.486
77263W        W37008  40.481   1.885  13.036
77264W        W37009  30.542   0.838   1.396
77265W        W37010  41.942  30.054  14.878
77266W        W37011   8.726  13.318  12.485
77267W        W37012  12.635   3.363  14.336
77268W        W37013  35.945  40.052  10.454
77269W        W37014  44.869  15.580   4.822
77270W        W37015  37.852  18.061   4.672
77271W        W37016  31.915  11.757   4.220
77272W        W37017  34.449   7.785  12.950
77273W        W37018  21.094   2.815   2.821
77274W        W37019  17.145   2.443   4.823
77275W        W37020  32.079  41.397   0.747
77276W        W37021  17.232  28.010   2.365
77277W        W37022  23.684  27.542   4.626
77278W        W37023  28.453  26.199   3.724
77279W        W37024  35.484  41.997  10.508
77280W        W37025  41.899  14.804  10.524
77281W        W37026  40.927  40.842   4.626
77282W        W37027   8.265  21.165   4.287
77283W        W37028  26.125  24.587   1.927
77284W        W37029   8.849  39.482  13.309
77285W        W37030  13.268  42.511  10.905
77286W        W37031  14.808  36.925   2.785
77287W        W37032  22.701   3.819   0.363
77288W        W37033   6.420  24.008   2.826
77289W        W37034  40.338  20.213  14.295
77290W        W37035  14.778  41.475   2.264
77291W        W37036  27.605  39.022   1.248
77292W        W37037  34.442  26.683  11.914
77293W        W37038  13.655  40.400   2.298
77294W        W37039  19.621  39.002  11.097
77295W        W37040   9.214  26.488   3.761
77296W        W37041  21.052  21.669   3.804
77297W        W37042   0.287  30.925  12.824
77298W        W37043   3.238  16.716   2.687
77299W        W37044  24.063  42.966  12.413
77300W        W37045  15.168  26.059  11.945
77301W        W37046  22.117  13.278  14.513
77302W        W37047  34.993  42.923  12.981
77303W        W37048   5.894  26.541   2.778
77304W        W37049  28.181  29.014  10.548
77305W        W37050  12.830  25.645  13.532
77306W        W37051   0.375   4.776  14.384
77307W        W37052  37.438   0.966   0.422
77308W        W37053  41.848  21.065  11.507
77309W        W37054  17.606   1.857  10.605
77310W        W37055  22.594  11.249  10.160
77311W        W37056  26.555  12.320   0.875
77312W        W37057  38.961  10.298  11.591
77313W        W37058   7.850  32.086   0.303
77314W        W37059   0.306  37.558   0.246
77315W        W37060  19.715  32.100   3.373
77316W        W37061  40.437  42.828   4.785
77317W        W37062   7.324  37.494   0.310
77318W        W37063   6.414  23.664  13.964
77319W        W37064  29.662  43.462   2.252
77320W        W37065  24.682   4.348   2.288
77321W        W37066  36.853  25.585   4.217
77322W        W37067   6.351  27.003   1.290
77323W        W37068  12.344  38.886   0.484
77324W        W37069  30.023  18.619   0.312
77325W        W37070   2.913  11.626   3.829
77326W        W37071   8.749  25.609   1.324
77327W        W37072  13.215  26.514  13.924
77328W        W37073   9.887  42.323  12.953
77329W        W37074   0.981  26.050   2.788
77330W        W37075  27.005   7.767   1.266
77331W        W37076  13.306  19.206   1.798
77332W        W37077  25.640  17.203  13.803
77333W        W37078  10.676   3.832   1.791
77334W        W37079   7.206  13.692  14.816
77335W        W37080  23.599  28.944   4.230
77336W        W37081  29.115  41.934  10.947
77337W        W37082   1.863  18.574  13.530
77338W        W37083  38.013  38.344   2.253
77339W        W37084  34.537   2.842  10.061
77340W        W37085   2.912  10.822   0.870
77341W        W37086  18.670  18.233  12.472
77342W        W37087   9.646  13.674   3.176
77343W        W37088   0.968   4.310  10.561
77344W        W37089  36.075   5.844  12.023
77345W        W37090  12.751  17.791  10.544
77346W        W37091  14.703   8.322  11.913
77347W        W37092  36.955  44.833   0.814
77348W        W37093  44.860  20.086   2.238
77349W        W37094   8.746   8.831  12.573
77350W        W37095  31.051  38.039   3.864
77351W        W37096  31.601  43.272  10.546
77352W        W37097  10.152  18.706  12.924
77353W        W37098  12.348   0.918  14.959
77354W        W37099  21.051  15.154  13.405
77355W        W37100  17.109  26.062  14.289
77356W        W37101  42.029  26.675   4.608
77357W        W37102  24.572  41.012   4.613
77358W        W37103  13.268  15.807  12.553
77359W        W37104  11.735  30.019  11.474
77360W        W37105  18.546  25.547   4.632
77361W        W37106  33.949  29.055  13.855
77362W        W37107  28.091  25.197  13.838
77363W        W37108  28.661  36.049  14.329
77364W        W37109  33.936  36.921  10.555
77365W        W37110   0.963  12.282   2.745
77366W        W37111   6.386  21.164  14.773
77367W        W37112  33.392  11.670  14.390
77368W        W37113  24.502  34.868  12.443
77369W        W37114  24.593  26.505  11.014
77370W        W37115  27.121   3.385   4.316
77371W        W37116  16.745  23.018  14.473
77372W        W37117  21.160  21.730  10.514
77373W        W37118  39.062  26.093  10.954
77374W        W37119  12.243  44.291  14.767
77375W        W37120   3.849  34.027  14.807
77376W        W37121   8.725  43.827  13.801
77377W        W37122   3.245  31.926  12.461
77378W        W37123  35.108  14.686  14.007
77379W        W37124  13.326   0.850  10.982
77380W        W37125  27.168   3.750   4.777
77381W        W37126  39.453  34.412   2.290
77382W        W37127  32.979  27.464   1.365
77383W        W37128  38.414   8.821   2.801
77384W        W37129   8.277  39.867  13.818
77385W        W37130  30.420  23.666   4.741
77386W        W37131  44.492  22.699   1.887
77387W        W37132  26.679  21.038   3.717
77388W        W37133  20.068  37.841  11.555
77389W        W37134   1.835   3.809   2.803
77390W        W37135  11.288  40.315  13.028
77391W        W37136  12.122  11.789  14.809
77392W        W37137  31.491  37.841  12.870
77393W        W37138  12.650  14.615  14.319
77394W        W37139  14.670  35.101  14.488
77395W        W37140  41.498  25.605   1.832
77396W        W37141   2.415  12.179   2.241
77397W        W37142  17.712   1.334   2.860
77398W        W37143   8.209   5.232   4.332
77399W        W37144  29.470  43.834  13.031
77400W        W37145   2.927  29.628  14.807
77401W        W37146   3.303  23.684   3.149
77402W        W37147  15.765  15.653  12.384
77403W        W37148  13.262  19.118   0.838
77404W        W37149  37.576  28.967  14.928
77405W        W37150  10.796  42.984  11.507
77406W        W37151   1.760   8.680  11.078
77407W        W37152  25.199  35.074  14.765
77408W        W37153  27.599   7.274  11.431
77409W        W37154  16.809   3.327   3.174
77410W        W37155  33.579  39.917   4.700
77411W        W37156   6.696  18.696   0.956
77412W        W37157  16.581  35.991   2.802
77413W        W37158   4.838   4.745  12.345
77414W        W37159   8.833  17.063   2.369
77415W        W37160  18.168   1.835  13.046
77416W        W37161  32.893   0.763  14.466
77417W        W37162   4.213  31.636   0.947
77418W        W37163   9.644   0.384  14.276
77419W        W37164  16.572   7.321   3.656
77420W        W37165  17.209   6.844  11.572
77421W        W37166   7.897  40.837  14.843
77422W        W37167  28.501  14.126   0.439
77423W        W37168  23.668   8.888  14.413
77424W        W37169  41.410  27.648  13.991
77425W        W37170  43.465  19.248  10.915
77426W        W37171  10.666  20.175   0.837
77427W        W37172  16.602  14.629   0.836
77428W        W37173  19.132   1.261   4.225
77429W        W37174  33.458  23.675   0.878
77430W        W37175  15.637   0.979  12.406
77431W        W37176  37.435  34.892  12.946
77432W        W37177  33.450  36.841  12.002
77433W        W37178  30.654  33.398   3.190
77434W        W37179  13.183  28.171   2.762
77435W        W37180  31.957  40.451  11.522
77436W        W37181  35.425  21.601   0.737
77437W        W37182  15.220  30.527  14.778
77438W        W37183  16.172  44.892  10.542
77439W        W37184  27.492   5.362  14.985
77440W        W37185  17.772  41.405  11.891
77441W        W37186  35.527  18.771  13.032
77442W        W37187   4.361   8.710  14.510
77443W        W37188  29.068  16.615  11.522
77444W        W37189  30.535  24.614  11.433
77445W        W37190  34.518  42.316   3.747
77446W        W37191  26.971  20.053   1.931
77447W        W37192  31.132  31.961  11.092
77448W        W37193  41.434  43.807   0.744
77449W        W37194  17.667   0.335  14.509
77450W        W37195   8.397  34.870   4.186
77451W        W37196  16.279   3.808  12.494
77452W        W37197  10.317  15.790  10.111
77453W        W37198  31.004  19.768  13.851
77454W        W37199  34.920  32.987  11.082
77455W        W37200  11.725  43.812  14.354
77456W        W37201  19.133  42.465  12.040
77457W        W37202  25.586   1.343  13.996
77458W        W37203   0.980  21.753  12.831
77459W        W37204  35.013  12.170  11.053
77460W        W37205  44.492  15.738  14.492
77461W        W37206  19.547   1.917   1.932
77462W        W37207  40.975  27.072  14.480
77463W        W37208  30.074   9.198   3.379
77464W        W37209   8.204   5.270  10.428
77465W        W37210  27.992  26.694   1.719
77466W        W37211  23.594   0.757   1.721
77467W        W37212  28.111   5.833  13.992
77468W        W37213   2.787  28.962   2.873
77469W        W37214  10.263  20.656  13.857
77470W        W37215  25.172  15.694   2.835
77471W        W37216   9.375  15.237   4.786
77472W        W37217  23.656  22.623  12.000
77473W        W37218  16.606   2.832   4.255
77474W        W37219  39.379  18.588   3.676
77475W        W37220  33.983  26.059   2.719
77476W        W37221  25.555  23.563   1.405
77477W        W37222  25.521  25.193   3.361
77478W        W37223  21.029  40.334   0.796
77479W        W37224   7.404  15.164  10.982
77480W        W37225   9.244  15.203  13.811
77481W        W37226  39.485  23.667   0.298
77482W        W37227  10.282  10.635  14.950
77483W        W37228  39.815  11.791   0.375
77484W        W37229  25.017  18.701   4.718
77485W        W37230  42.809   1.919  13.339
77486W        W37231  29.063  19.156  11.445
77487W        W37232   1.810  16.092  14.992
77488W        W37233  11.650  11.246  14.873
77489W        W37234  11.702  11.774   2.202
77490W        W37235  27.981  44.427  12.452
77491W        W37236  28.037  43.342   3.348
77492W        W37237  37.422  14.225  12.878
77493W        W37238  35.518  15.151   2.287
77494W        W37239  34.079  16.256  12.936
77495W        W37240  17.572   8.263  10.451
77496W        W37241  22.134  44.269  13.310
77497W        W37242  29.082  41.309   2.787
77498W        W37243  20.217   9.840  14.866
77499W        W37244   3.934   9.263  12.958
77500W        W37245  37.408  23.047  14.887
77501W        W37246  29.556  41.399  12.543
77502W        W37247  38.896  21.676  10.510
77503W        W37248  40.979   2.260   3.184
77504W        W37249   1.744  39.893   1.268
77505W        W37250  20.588  28.665   1.418
77506W        W37251  15.181  23.056   2.380
77507W        W37252  31.590  25.208   1.867
77508W        W37253  24.519  24.581   0.248
77509W        W37254  41.459  31.981   5.149
77510W        W37255  36.531  24.040  13.357
77511W        W37256  36.490   9.291   1.857
77512W        W37257  15.267  17.788   1.437
77513W        W37258  38.876  44.435   4.599
77514W        W37259  26.465  40.468   2.335
77515W        W37260   6.348  34.411   1.763
77516W        W37261  32.927   3.929  10.518
77517W        W37262  39.527  44.307   3.197
77518W        W37263  21.226   2.257  13.413
77519W        W37264  31.073  34.386   2.251
77520W        W37265  15.108  28.002   3.340
77521W        W37266  15.655  16.138  13.962
77522W        W37267  42.473   5.783   1.286
77523W        W37268  35.431  15.162  14.914
77524W        W37269   8.714  29.588  12.912
77525W        W37270   5.763  36.854   3.301
77526W        W37271  19.189  20.263  12.927
77527W        W37272  31.061  23.102   2.251
77528W        W37273  44.329  38.889  14.298
77529W        W37274   2.383  30.143  11.423
77530W        W37275  19.161  30.650  11.499
77531W        W37276  10.741  36.967   3.163
77532W        W37277  42.027   0.471  10.117
77533W        W37278  42.403  25.160  14.877
77534W        W37279  37.362  18.123  12.558
77535W        W37280  37.565   3.228  12.579
77536W        W37281  11.346   4.809  11.868
77537W        W37282  24.709  23.584  11.057
77538W        W37283  36.979   2.292   2.393
77539W        W37284  17.078  22.240   4.169
77540W        W37285  40.987  44.361   4.731
77541W        W37286  23.123  43.329   1.296
77542W        W37287  36.542   4.911   0.830
77543W        W37288  39.918  22.056   0.295
77544W        W37289   7.775  42.862  10.927
77545W        W37290  34.544  29.479   1.392
77546W        W37291  11.171  18.593  12.071
77547W        W37292  43.473  28.047  14.949
77548W        W37293  25.083   4.782  12.408
77549W        W37294   1.249  15.727   2.682
77550W        W37295  29.059  31.457  11.512
77551W        W37296  13.815  20.145  13.923
77552W        W37297  13.772  36.088  13.916
77553W        W37298  21.216  40.502   1.836
77554W        W37299  23.590  41.359  11.463
77555W        W37300  34.470   3.797   3.637
77556W        W37301  15.249   0.477   4.692
77557W        W37302   8.288  21.670   3.681
77558W        W37303   3.445  24.020  11.998
77559W        W37304  39.951  41.842   4.123
77560W        W37305  29.035  23.989   4.760
77561W        W37306  15.776  37.004  14.893
77562W        W37307  28.626   3.311  12.422
77563W        W37308  36.370  16.270   3.238
77564W        W37309  31.937   2.880   0.749
77565W        W37310  42.962  25.045  11.031
77566W        W37311  26.099  40.315  12.841
77567W        W37312   2.794  43.396   2.244
77568W        W37313  21.204  23.096   1.362
77569W        W37314  37.831  15.099  10.434
77570W        W37315  15.267  22.678  11.970
77571W        W37316  41.461  14.099  13.899
77572W        W37317  42.889  18.098   1.737
77573W        W37318  28.077  39.992  14.274
77574W        W37319   2.276  30.450  10.101
77575W        W37320   1.467  31.459   3.309
77576W        W37321  12.833  28.955  12.891
77577W        W37322   8.755  39.495  11.391
77578W        W37323  36.859   1.263  14.808
77579W        W37324  32.980   6.786  13.355
77580W        W37325  41.397  30.058  14.807
77581W        W37326  15.754   9.804  12.040
77582W        W37327  43.438  22.633  14.786
77583W        W37328   5.258  39.466   3.366
77584W        W37329   0.442  22.194   3.739
77585W        W37330  15.284  25.698   3.816
77586W        W37331  22.107  23.234   4.656
77587W        W37332  15.734  15.225  10.508
77588W        W37333  20.183  19.215   1.359
77589W        W37334   9.375  12.702  13.513
77590W        W37335  30.593  20.588  12.825
77591W        W37336  25.636  16.155   4.677
77592W        W37337  34.435   2.311   0.321
77593W        W37338  15.202   9.204  11.875
77594W        W37339   6.389  21.590   0.356
77595W        W37340  20.129  28.546   1.895
77596W        W37341  18.657  35.083  14.928
77597W        W37342  32.114  22.027   3.335
77598W        W37343  41.797  38.006  13.497
77599W        W37344  34.935  15.257  14.018
77600W        W37345  10.359  31.976  14.758
77601W        W37346  42.412  22.646   2.688
77602W        W37347   4.893  27.583  14.762
77603W        W37348   1.283  42.873  13.455
77604W        W37349  30.534  22.221   1.326
77605W        W37350  28.490  11.854   0.847
77606W        W37351  21.067  22.217   3.702
77607W        W37352  38.549  30.570   3.781
77608W        W37353  23.590  41.871   2.785
77609W        W37354  11.769  36.076   0.878
77610W        W37355   5.764   6.218  12.873
77611W        W37356  34.010  36.065   0.270
77612W        W37357  13.253  13.757   4.127
77613W        W37358  27.101   4.856   2.416
77614W        W37359  42.372  40.477   2.789
77615W        W37360  27.149   3.397   4.650
77616W        W37361  34.382  37.530   4.749
77617W        W37362   6.349  30.926   0.930
77618W        W37363  15.268  26.597  12.900
77619W        W37364   1.256  13.655  12.480
77620W        W37365  10.819   8.668  13.011
77621W        W37366   7.665  39.936   4.621
77622W        W37367  40.990  35.476   3.657
77623W        W37368  21.127  24.552  13.372
77624W        W37369  32.045   1.863   0.726
77625W        W37370   5.807  11.268  11.497
77626W        W37371   7.411  41.356  13.390
77627W        W37372  23.580  36.033  13.860
77628W        W37373  23.598  22.504   1.286
77629W        W37374  15.263  20.543  13.321
77630W        W37375   9.741  38.850  12.042
77631W        W37376  30.445  40.863  12.461
77632W        W37377  12.339  26.679  11.038
77633W        W37378   8.373  19.689   0.331
77634W        W37379  11.194  12.210  11.375
77635W        W37380  12.809  40.826  11.931
77636W        W37381  27.196   7.719   0.761
77637W        W37382  22.722  42.505   1.331
77638W        W37383  23.678  28.469  11.551
77639W        W37384  34.438  21.099   1.811
77640W        W37385   8.736  32.142  14.315
77641W        W37386  34.090  28.045   4.748
77642W        W37387  11.162  28.116   4.253
77643W        W37388  10.637  28.983   0.436
77644W        W37389  16.228  26.553  12.456
77645W        W37390  36.406  26.994  12.960
77646W        W37391   2.260  42.445  12.082
77647W        W37392   2.301  21.642  13.839
77648W        W37393  38.864   2.454  13.825
77649W        W37394   7.288  23.082  11.553
77650W        W37395  32.123  35.963   2.847
77651W        W37396   5.902  43.851   0.396
77652W        W37397  22.007  39.910   2.406
77653W        W37398  42.986  40.936   3.256
77654W        W37399   7.813  32.457  14.984
77655W        W37400   6.329  12.331   2.798
77656W        W37401   7.814  30.948   2.736
77657W        W37402  24.075   0.417  11.393
77658W        W37403  22.592  36.045  12.890
77659W        W37404  41.922  28.963  13.933
77660W        W37405  23.188  21.567  13.026
77661W        W37406   0.811  30.049   4.137
77662W        W37407  10.670   0.892  14.388
77663W        W37408  24.498  11.222   1.229
77664W        W37409  42.026  25.985   2.330
77665W        W37410  26.667   4.915  12.068
77666W        W37411  43.510  22.120   3.631
77667W        W37412   8.203  18.694  14.462
77668W        W37413  44.434  20.569  14.863
77669W        W37414   0.479   5.206   1.755
77670W        W37415  41.835  12.759   3.772
77671W        W37416   8.741  18.197   3.677
77672W        W37417  10.172  21.094  14.857
77673W        W37418   0.260  30.423  14.810
77674W        W37419  36.887  28.436  14.763
77675W        W37420  33.052   3.859  13.392
77676W        W37421  19.114  34.454  10.591
77677W        W37422  38.008  11.366  14.818
77678W        W37423   1.941  37.970  12.048
77679W        W37424  25.691  23.615  11.881
77680W        W37425  29.653  32.433  13.548
77681W        W37426  32.498  35.564  14.514
77682W        W37427  11.158   0.454  12.346
77683W        W37428  13.619  12.194   0.738
77684W        W37429   9.820  17.102  13.841
77685W        W37430   0.811  33.525  10.604
77686W        W37431  33.967   0.846   2.669
77687W        W37432   2.324  21.706  14.463
77688W        W37433   2.779  39.027  13.032
77689W        W37434  24.191   5.811  12.067
77690W        W37435  27.603   1.962  12.464
77691W        W37436  17.795  17.732   0.807
77692W        W37437  24.700  17.295  14.972
77693W        W37438   2.858   8.821   3.386
77694W        W37439  42.390  13.765   0.937
77695W        W37440  43.777   5.349   0.744
77696W        W37441   5.365   0.804  13.006
77697W        W37442  34.914  37.953   2.663
77698W        W37443  19.615   8.335   0.883
77699W        W37444  23.584  15.749  12.556
77700W        W37445  41.038  33.968   0.834
77701W        W37446  34.563  16.717  11.395
77702W        W37447  12.255  13.816  12.060
77703W        W37448  25.963  41.467  14.898
77704W        W37449  23.238  29.615   1.311
77705W        W37450  18.757  35.583  10.974
77706W        W37451  12.628  25.682  11.103
77707W        W37452  44.823  26.166   4.295
77708W        W37453  30.484  20.697   1.232
77709W        W37454   1.941  41.535  11.570
77710W        W37455  13.835   1.861   3.249
77711W        W37456  17.252   9.270  12.851
77712W        W37457  28.112  23.237  11.966
77713W        W37458  16.210  34.530  12.380
77714W        W37459  17.728   1.300  10.043
77715W        W37460  29.162   9.653   1.380
77716W        W37461  21.208  38.516   2.729
77717W        W37462  43.012   3.372   1.883
77718W        W37463  13.222  31.491   2.737
77719W        W37464   3.947  29.103   9.989
77720W        W37465   6.228  31.533  12.426
77721W        W37466  36.033  13.760   2.303
77722W        W37467  10.743  32.501   2.248
77723W        W37468  13.238  16.150  14.438
77724W        W37469  25.064  11.827  13.369
77725W        W37470  26.019   2.731   4.805
77726W        W37471   7.184   8.855  10.531
77727W        W37472   0.784  21.106  11.007
77728W        W37473  28.447   5.713  11.511
77729W        W37474  29.993  39.483   1.271
77730W        W37475   9.781  37.567  12.982
77731W        W37476  19.120   1.392   4.813
77732W        W37477  27.662  37.365   5.313
77733W        W37478  44.492  44.766   2.829
77734W        W37479   3.233  25.670   0.444
77735W        W37480  35.521  34.906   3.301
77736W        W37481   1.913  38.009   2.246
77737W        W37482  13.246   9.370   1.353
77738W        W37483  26.692  31.109  13.824
77739W        W37484  17.234  39.533   4.634
77740W        W37485   5.209   5.767  12.035
77741W        W37486  11.134   5.379  11.474
77742W        W37487  42.795  29.043   3.810
77743W        W37488  13.799  39.936  13.462
77744W        W37489  15.209  40.894   3.697
77745W        W37490  32.056   8.677   1.743
77746W        W37491  30.465  21.129  13.422
77747W        W37492  34.578  16.701   2.270
77748W        W37493  16.725  25.169   1.716
77749W        W37494  34.064  42.519  12.824
77750W        W37495  21.583   2.265  11.500
77751W        W37496   4.327  43.505   4.770
77752W        W37497  31.644   6.784  13.375
77753W        W37498  22.155   9.771  11.536
77754W        W37499   6.793   4.281  12.058
77755W        W37500   0.413   2.819   0.768
77756W        W37501  42.946   9.683   3.333
77757W        W37502  39.007   9.283   1.228
77758W        W37503  44.489   5.687  12.481
77759W        W37504   5.361  12.728  13.360
77760W        W37505  32.001  23.677  14.897
77761W        W37506  24.602  32.137   3.667
77762W        W37507  13.343  28.140  10.635
77763W        W37508  20.208  25.141  11.028
77764W        W37509  40.402   7.907   1.292
77765W        W37510  12.238  13.606   3.239
77766W        W37511  23.670  14.165  13.926
77767W        W37512  28.646  39.363   2.389
77768W        W37513   0.401  17.281  10.897
77769W        W37514  29.002  42.828   3.214
77770W        W37515   1.848  38.567   1.723
77771W        W37516  10.779  20.571   2.300
77772W        W37517  43.382  24.187  10.981
77773W        W37518  12.289  29.006  13.400
77774W        W37519  37.399   9.888  11.104
77775W        W37520   4.433   7.745   0.244
77776W        W37521   4.721  11.640   0.324
77777W        W37522  11.844  30.130   4.331
77778W        W37523  10.727  37.405   1.730
77779W        W37524  39.537  44.383  13.792
77780W        W37525  21.118   4.366   0.272
77781W        W37526   8.161  36.078   4.269
77782W        W37527  16.737  17.756   1.714
77783W        W37528  38.005  29.585  14.870
77784W        W37529   7.686   0.789  13.972
77785W        W37530   0.793  14.824   4.227
77786W        W37531  13.655  24.033   2.325
77787W        W37532   3.282  40.850  10.620
77788W        W37533   2.906  14.185   4.267
77789W        W37534  28.160   0.800  12.359
77790W        W37535  41.837  32.405   1.224
77791W        W37536  22.233  27.019   1.379
77792W        W37537   4.206  34.000   4.234
77793W        W37538  42.884   7.900   1.260
77794W        W37539  15.639   5.404  13.963
77795W        W37540  16.184  41.861   2.757
77796W        W37541  40.881   8.348   1.896
77797W        W37542  22.515  38.869   5.176
77798W        W37543  11.181  25.102   2.326
77799W        W37544  35.919  33.570  12.978
77800W        W37545   2.851   6.857  10.947
77801W        W37546  29.560   5.785  12.028
77802W        W37547   2.890   3.830   2.331
77803W        W37548  44.379   9.372   3.184
77804W        W37549  13.701  37.476   1.812
77805W        W37550  21.069  25.107   1.432
77806W        W37551   2.439  12.287   3.191
77807W        W37552  28.134   9.173  14.384
77808W        W37553   8.672   6.289  13.319
77809W        W37554  22.134  13.299  13.325
77810W        W37555  32.431   0.276  14.314
77811W        W37556  20.071  13.623   4.232
77812W        W37557  15.131   7.230  13.310
77813W        W37558   4.319  36.086   1.233
77814W        W37559  41.495  44.891  13.533
77815W        W37560  27.653  29.568  14.759
77816W        W37561  35.358  22.238   1.243
77817W        W37562  33.969  19.735   2.785
77818W        W37563  13.705  36.489  11.067
77819W        W37564  28.952  37.519   2.697
77820W        W37565  44.320  40.990   1.710
77821W        W37566  16.225  30.974   0.835
77822W        W37567   2.850   7.322  12.079
77823W        W37568  41.410   6.331   4.339
77824W        W37569  18.770   8.885  11.543
77825W        W37570   6.200  10.182  13.971
77826W        W37571  25.088  27.961  14.353
77827W        W37572  21.659  18.692   4.291
77828W        W37573  30.957  41.826   3.870
77829W        W37574  35.485   4.379  10.590
77830W        W37575  16.809  21.228  11.485
77831W        W37576  40.544   5.292  10.496
77832W        W37577   6.823  34.893  13.391
77833W        W37578  21.754  21.666  11.374
77834W        W37579   8.655  13.647   2.377
77835W        W37580  13.114  13.828  13.362
77836W        W37581  15.238  31.993   0.263
77837W        W37582  16.095  19.744  12.081
77838W        W37583  16.280  32.479   2.670
77839W        W37584  17.159  30.652  13.317
77840W        W37585  19.271  14.619   0.892
77841W        W37586  17.299  28.973   4.336
77842W        W37587  12.275   3.774  13.427
77843W        W37588   8.364  23.729  12.506
77844W        W37589   4.251  24.068   0.338
77845W        W37590   0.479  26.524  14.789
77846W        W37591  31.103  44.414   0.899
77847W        W37592   9.820  25.558  13.984
77848W        W37593  26.113  40.028  14.495
77849W        W37594  44.890  21.515  14.933
77850W        W37595  35.001  24.725   4.148
77851W        W37596   0.305  19.600  12.879
77852W        W37597   6.868   3.913   1.294
77853W        W37598  19.779  18.776  10.958
77854W        W37599  13.295  42.363  11.975
77855W        W37600  15.765  23.552   4.308
77856W        W37601  38.377  13.299  12.468
77857W        W37602  28.517  37.988   2.898
77858W        W37603   6.865  43.898  12.372
77859W        W37604  40.361  30.432  13.513
77860W        W37605  18.735   2.416  10.074
77861W        W37606  27.169  44.356  13.354
77862W        W37607  26.117  16.768  13.446
77863W        W37608  20.584   2.314  12.503
77864W        W37609  12.675  39.047   3.842
77865W        W37610  14.674  34.065   4.250
77866W        W37611  29.967  24.074   1.381
77867W        W37612  41.812  26.953  14.922
77868W        W37613  41.868   2.966  12.967
77869W        W37614  13.160  27.980  13.374
77870W        W37615  27.117  39.055   1.324
77871W        W37616  27.485  33.395  13.991
77872W        W37617  12.820  31.575  12.025
77873W        W37618  25.070   6.713  13.528
77874W        W37619  28.063  20.063  13.804
77875W        W37620  19.204  41.494   0.802
77876W        W37621  38.044  13.668  14.784
77877W        W37622  35.046  35.005   1.224
77878W        W37623  17.297  42.852   4.353
77879W        W37624   3.260   5.352   0.293
77880W        W37625  33.953  15.298   4.794
77881W        W37626  28.086  42.518  12.921
77882W        W37627  31.584  14.247   2.683
77883W        W37628  31.476  26.495  10.541
77884W        W37629  20.082  25.967  13.429
77885W        W37630   8.324  16.654   4.279
77886W        W37631  27.031  37.036   1.703
77887W        W37632  19.554   1.458   4.261
77888W        W37633  41.339  40.509   0.387
77889W        W37634  14.728  32.971   0.874
77890W        W37635  33.097  22.148   3.857
77891W        W37636   2.948   8.746  10.996
77892W        W37637  15.800  14.305   4.823
77893W        W37638  16.193  40.413  11.454
77894W        W37639  31.956  14.304  12.928
77895W        W37640  11.133  38.554   2.407
77896W        W37641  24.543  19.653  11.413
77897W        W37642  10.157  17.638   3.281
77898W        W37643  35.594  40.389   2.866
77899W        W37644  12.220  17.668  11.601
77900W        W37645  39.856   8.661   3.360
77901W        W37646  38.886   8.404   5.149
77902W        W37647   3.722  40.052   3.844
77903W        W37648  44.806  27.012   4.335
77904W        W37649   4.776  27.534   3.232
77905W        W37650   5.757  15.746  13.962
77906W        W37651   4.761  31.975   0.411
77907W        W37652  15.746  32.457   0.409
77908W        W37653  24.043  12.672   3.209
77909W        W37654  37.469  20.239  12.575
77910W        W37655  39.427  26.043   3.686
77911W        W37656  41.012  17.696  13.059
77912W        W37657  33.413  39.900   1.427
77913W        W37658  18.708  31.041  14.336
77914W        W37659  38.493   0.884   0.839
77915W        W37660  32.051  43.864   3.373
77916W        W37661  13.191  44.312  10.503
77917W        W37662  26.681  18.117  13.052
77918W        W37663  13.701  33.511   2.302
77919W        W37664  20.225  33.541  11.386
77920W        W37665  40.438  17.233   5.175
77921W        W37666  16.691  22.709  13.008
77922W        W37667  12.232  30.135  14.890
77923W        W37668  26.459  24.721  14.457
77924W        W37669   2.304  42.971   2.339
77925W        W37670  25.613  33.922   1.776
77926W        W37671  13.601  19.116   0.876
77927W        W37672  10.716  41.828  13.405
77928W        W37673   4.216  21.160  13.847
77929W        W37674  44.426  37.834   3.266
77930W        W37675  20.200   1.395   2.384
77931W        W37676   5.733  30.095   1.272
77932W        W37677   4.830  28.929   4.243
77933W        W37678   3.282  15.818   0.342
77934W        W37679   5.810  44.005   4.641
77935W        W37680  34.381  25.706  12.924
77936W        W37681  21.688  33.950  14.874
77937W        W37682  22.620  32.055  13.031
77938W        W37683  43.787  22.203   0.942
77939W        W37684  44.373  14.131  13.815
77940W        W37685   6.334  16.658   1.727
77941W        W37686  26.570  32.127   0.895
77942W        W37687  27.188  34.583   2.701
77943W        W37688  27.000  25.615   2.404
77944W        W37689  34.891   0.803   3.822
77945W        W37690  23.014  22.576  12.343
77946W        W37691   7.253  37.025   1.841
77947W        W37692  21.617   8.394   4.677
77948W        W37693  28.068  43.278  13.498
77949W        W37694  10.216  24.174  14.296
77950W        W37695   2.799  18.712   1.276
77951W        W37696  21.037  15.622  12.452
77952W        W37697  17.067  12.295   3.855
77953W        W37698  26.056   6.710  12.964
77954W        W37699   0.435  21.537   4.320
77955W        W37700  35.875  19.726  10.103
77956W        W37701  21.173  33.906  14.424
77957W        W37702  10.206  43.959  12.363
77958W        W37703  25.648  42.786  12.376
77959W        W37704  29.464  39.841  14.496
77960W        W37705   0.899  35.511  10.545
77961W        W37706  14.243  19.728  14.314
77962W        W37707   4.237   3.280  10.934
77963W        W37708  19.140  27.445  10.508
77964W        W37709  40.973   3.825   1.271
77965W        W37710  20.589  22.997  13.813
77966W        W37711  34.393  41.419  11.857
77967W        W37712  23.073  15.727   4.309
77968W        W37713   7.826  38.490  13.313
77969W        W37714  34.904   7.334  10.112
77970W        W37715  22.528   0.333   1.699
77971W        W37716   2.889  11.714  13.423
77972W        W37717  28.179  23.106   2.751
77973W        W37718  41.377  32.633  10.489
77974W        W37719  36.376  36.000  13.015
77975W        W37720  44.343  15.649  12.393
77976W        W37721  28.517  33.480   1.792
77977W        W37722  18.680   2.267   5.089
77978W        W37723   8.693  19.243  10.548
77979W        W37724  16.690  28.511  10.978
77980W        W37725  40.315  38.378   3.341
77981W        W37726  30.479   5.785  13.890
77982W        W37727  44.488  25.551  11.020
77983W        W37728  29.600  13.770   0.745
77984W        W37729   8.892  20.140  15.000
77985W        W37730  20.207   8.887   3.725
77986W        W37731  27.485  35.052   4.783
77987W        W37732   6.417   9.248   1.874
77988W        W37733  39.460  16.162   2.338
77989W        W37734  44.986  22.022   0.462
77990W        W37735  12.852  18.169  12.559
77991W        W37736  20.100  41.311   9.962
77992W        W37737  32.395  29.512   3.148
77993W        W37738  38.891  42.820  10.958
77994W        W37739  24.106  38.475  13.334
77995W        W37740  42.371  30.472   3.213
77996W        W37741  13.220  24.982   0.765
77997W        W37742  27.045  41.452  11.030
77998W        W37743   1.282  25.069   1.272
77999W        W37744   1.929   5.752   0.438
78000W        W37745   0.379  26.168   0.750
78001W        W37746  31.978  22.045   3.650
78002W        W37747  11.233  29.455   3.845
78003W        W37748  38.951  19.278  10.963
78004W        W37749   2.847   2.842   3.216
78005W        W37750  23.653   0.387   1.307
78006W        W37751  25.481  28.580  10.596
78007W        W37752  40.381  40.946  11.391
78008W        W37753  15.284   5.899   0.301
78009W        W37754   4.737  12.245   3.269
78010W        W37755  16.706  30.431  11.586
78011W        W37756  21.047   5.294   3.264
78012W        W37757  39.428  35.952   0.385
78013W        W37758  30.943  15.739  14.977
78014W        W37759   8.308  42.814  14.767
78015W        W37760   8.740  36.449   2.884
78016W        W37761   7.293  23.629   4.611
78017W        W37762  37.439  34.977   3.161
78018W        W37763  19.657  34.049  11.970
78019W        W37764  16.125  16.100   3.665
78020W        W37765  16.771  11.305  13.370
78021W        W37766  15.149  18.108   2.353
78022W        W37767  31.142  18.089   0.243
78023W        W37768  15.142   8.900  12.989
78024W        W37769  38.502  39.043  13.846
78025W        W37770  19.718   9.825   3.192
78026W        W37771  25.161   0.298  10.932
78027W        W37772  23.189  43.384   1.843
78028W        W37773   7.354  19.569  13.062
78029W        W37774   2.301  25.219   4.257
78030W        W37775  24.020  36.478   0.465
78031W        W37776  43.806  39.982  11.569
78032W        W37777  25.498  40.378  12.377
78033W        W37778  27.984   4.380   2.707
78034W        W37779  39.486  31.022  12.401
78035W        W37780   2.342  16.669   4.126
78036W        W37781  17.277   8.187   1.405
78037W        W37782   4.879  25.488  12.982
78038W        W37783  41.429  11.344  13.027
78039W        W37784   6.762  44.330  11.515
78040W        W37785  39.502  13.820  11.378
78041W        W37786  27.001   1.810   1.731
78042W        W37787  26.508  38.467  10.454
78043W        W37788  27.045  33.502  11.396
78044W        W37789  29.622  12.735   1.828
78045W        W37790   4.841  15.278  10.432
78046W        W37791  37.487  40.979   1.807
78047W        W37792  27.039  30.649   0.343
78048W        W37793  36.564  25.500  14.825
78049W        W37794  32.551  32.556  14.330
78050W        W37795   5.326   6.783  12.449
78051W        W37796  19.579  30.925  11.056
78052W        W37797  29.596  25.141   1.236
78053W        W37798  41.433  34.464   2.297
78054W        W37799  16.810  13.208   2.853
78055W        W37800  37.374  43.406  11.977
78056W        W37801  44.839  19.607   4.640
78057W        W37802  27.030  24.153   1.322
78058W        W37803  10.652   7.693  10.570
78059W        W37804  23.209  39.352   4.725
78060W        W37805   6.736  42.505   4.622
78061W        W37806  22.692  25.079  13.993
78062W        W37807  11.305  39.990  14.935
78063W        W37808  24.167  18.687  12.519
78064W        W37809  29.007  32.421  13.014
78065W        W37810  33.458   0.405   3.333
78066W        W37811  12.118  16.289   1.235
78067W        W37812  11.780   7.839   0.472
78068W        W37813  43.855  25.989  11.409
78069W        W37814  28.620  29.656  14.389
78070W        W37815  10.161  13.301  13.049
78071W        W37816  23.165  17.776  10.404
78072W        W37817  22.608  26.695  13.020
78073W        W37818   6.861  37.504   1.396
78074W        W37819   7.356  29.024  10.992
78075W        W37820  24.097  43.516  10.425
78076W        W37821   7.297  26.169  11.596
78077W        W37822  26.165   2.397  13.353
78078W        W37823  33.521  22.529   3.291
78079W        W37824  37.381  27.543  13.396
78080W        W37825  12.724   0.274  11.573
78081W        W37826   2.290  31.463  11.116
78082W        W37827  17.153   4.285   2.726
78083W        W37828  29.574  10.352   5.279
78084W        W37829  30.083  19.588   1.300
78085W        W37830  11.322  19.074   4.203
78086W        W37831  12.180  27.479  10.556
78087W        W37832  31.605  38.417  13.358
78088W        W37833  13.329  21.629  13.460
78089W        W37834  42.288  44.927  12.424
78090W        W37835  37.482  10.868  14.396
78091W        W37836  22.672  11.635  12.920
78092W        W37837  28.133   8.743   4.771
78093W        W37838  14.607  39.855   5.774
78094W        W37839   9.882  18.750   4.680
78095W        W37840  16.625  33.077   4.227
78096W        W37841  19.612  16.130   3.669
78097W        W37842   8.336  12.819  13.451
78098W        W37843  32.921  30.582  10.634
78099W        W37844  36.482   0.903   1.305
78100W        W37845  30.961   5.249  12.085
78101W        W37846  26.524  25.473   4.726
78102W        W37847  13.275   4.854   2.811
78103W        W37848  29.651  34.013  14.816
78104W        W37849  24.051  30.937   0.781
78105W        W37850  29.581   9.263   4.796
78106W        W37851  41.389  37.901   3.677
78107W        W37852  41.870  44.356  13.953
78108W        W37853   0.898   6.227  12.384
78109W        W37854  28.535   1.314   2.827
78110W        W37855   9.198  37.905   2.192
78111W        W37856   5.888  32.941   2.662
78112W        W37857  35.072  42.335  12.530
78113W        W37858   5.284  14.189  12.086
78114W        W37859  34.043  38.946  10.098
78115W        W37860  44.407  41.373   4.672
78116W        W37861  14.626  37.030  14.400
78117W        W37862  18.625  39.040   1.930
78118W        W37863   7.716  21.128  13.927
78119W        W37864  34.012  21.235   3.723
78120W        W37865   2.813  35.060  12.958
78121W        W37866   7.695  15.225  12.886
78122W        W37867  43.930  44.267   1.259
78123W        W37868  20.228  40.507   4.686
78124W        W37869  44.428   4.805  11.507
78125W        W37870   3.864  24.227  10.560
78126W        W37871  34.511  13.655   4.162
78127W        W37872  36.009  37.831   3.251
78128W        W37873   5.926  25.048  12.025
78129W        W37874  21.048   2.745   3.802
78130W        W37875  37.852   2.329  12.476
78131W        W37876  16.800   6.375   3.814
78132W        W37877  32.612  35.929  14.506
78133W        W37878  43.912  41.817  11.020
78134W        W37879  13.675  28.565   0.888
78135W        W37880  26.647  14.647   4.728
78136W        W37881  44.918  15.252  14.900
78137W        W37882   8.406  29.488   0.799
78138W        W37883   0.848  44.904   2.664
78139W        W37884  10.145   0.321   3.808
78140W        W37885  14.675  15.140   0.892
78141W        W37886  16.689  15.819   9.960
78142W        W37887   3.855  42.970  10.570
78143W        W37888  35.386   2.792  10.895
78144W        W37889   0.384  27.074  12.397
78145W        W37890  25.490  12.184  11.038
78146W        W37891  37.438   3.786   2.735
78147W        W37892  33.445  29.538   4.822
78148W        W37893  44.333  29.171   0.479
78149W        W37894   1.290   6.861  12.935
78150W        W37895   7.368   0.388  14.880
78151W        W37896  39.983  36.462  12.011
78152W        W37897  26.642  13.731  13.913
78153W        W37898  16.630  36.566   5.280
78154W        W37899   0.964  30.022  13.330
78155W        W37900  43.313  31.434  10.443
78156W        W37901  24.201   8.660  14.444
78157W        W37902   3.842  18.756  12.499
78158W        W37903  17.277  22.645  14.331
78159W        W37904  21.641  18.176   0.954
78160W        W37905  24.071  30.640   3.148
78161W        W37906  35.937  10.811  11.563
78162W        W37907  39.533   0.883   4.124
78163W        W37908  33.876   0.851  13.989
78164W        W37909  34.971  28.063   2.784
78165W        W37910   7.891  42.293   2.742
78166W        W37911  36.485  42.297   3.299
78167W        W37912  42.368   9.802  12.937
78168W        W37913  33.491  28.121  14.491
78169W        W37914  23.547  10.721  10.445
78170W        W37915  23.605   0.414  11.020
78171W        W37916   4.446  22.557   1.252
78172W        W37917  22.569  19.215   0.421
78173W        W37918  19.582  40.483   3.267
78174W        W37919  12.733  32.962   0.908
78175W        W37920  11.340  25.497   0.798
78176W        W37921  42.478  26.084   2.793
78177W        W37922  30.076  39.403   4.704
78178W        W37923  12.632  31.060  10.586
78179W        W37924  24.129  25.099   4.667
78180W        W37925  23.201  28.490  11.122
78181W        W37926  29.520  38.060  14.332
78182W        W37927  19.701   4.914   3.656
78183W        W37928  37.082  33.031  13.520
78184W        W37929   7.899  13.157   0.259
78185W        W37930  18.215  21.670  14.354
78186W        W37931   2.775  21.152   3.869
78187W        W37932  27.055  41.445   3.226
78188W        W37933  29.520  44.930   3.321
78189W        W37934  23.659  33.502   4.326
78190W        W37935  27.492  25.207   3.269
78191W        W37936  41.533   0.348  11.385
78192W        W37937  42.836   2.355  12.939
78193W        W37938  14.668   9.296   2.741
78194W        W37939  20.762  40.861   0.427
78195W        W37940  30.622  18.581  11.109
78196W        W37941  23.989  42.031  11.400
78197W        W37942  37.082  28.606  12.449
78198W        W37943  26.110  13.210   3.172
78199W        W37944  24.978  15.642  13.803
78200W        W37945  43.966   1.924  12.834
78201W        W37946  11.351  33.476  12.894
78202W        W37947  25.179  39.497   4.793
78203W        W37948  10.148  10.735  11.541
78204W        W37949  14.308  40.801   1.417
78205W        W37950  23.576  35.564  12.577
78206W        W37951  25.099  40.464   0.895
78207W        W37952  19.274  43.841  14.807
78208W        W37953  39.886  26.080  11.580
78209W        W37954  38.514  17.064   2.394
78210W        W37955  27.076  12.197  12.911
78211W        W37956  29.586  35.966   3.638
78212W        W37957   7.907  39.487   4.320
78213W        W37958  12.126   7.866   4.258
78214W        W37959  43.485  39.520   1.356
78215W        W37960  24.168   0.493  13.508
78216W        W37961  17.270  31.484   0.951
78217W        W37962  39.367  38.873  14.809
78218W        W37963  31.590  25.605  14.895
78219W        W37964  12.633  13.240   2.872
78220W        W37965  14.664  17.243  10.917
78221W        W37966  22.195  14.137  14.856
78222W        W37967   8.826  35.484  12.891
78223W        W37968  32.066   6.319  13.492
78224W        W37969  37.568  31.130  10.608
78225W        W37970  29.646  39.322   4.194
78226W        W37971  36.440  41.991   4.347
78227W        W37972  43.412  20.174  12.577
78228W        W37973  39.446  23.632  10.509
78229W        W37974  19.729  24.578  14.027
78230W        W37975  20.225   1.279  14.940
78231W        W37976   3.877  34.583   1.758
78232W        W37977  17.650  12.695   4.607
78233W        W37978  11.755  13.268   3.828
78234W        W37979  29.126  36.413   0.302
78235W        W37980  34.466  40.943   3.862
78236W        W37981  43.356  29.156  11.436
78237W        W37982  34.896   5.739   5.111
78238W        W37983  10.767  24.119  14.923
78239W        W37984  11.208  16.246   1.211
78240W        W37985  34.417  37.563  11.072
78241W        W37986  14.688   4.870  12.049
78242W        W37987   0.383  21.640   1.790
78243W        W37988   1.796  16.689  11.404
78244W        W37989   7.201  29.654  14.011
78245W        W37990  34.369  44.316  10.595
78246W        W37991  29.499  13.317   4.802
78247W        W37992  22.520  11.634  11.053
78248W        W37993  37.027  33.428  12.352
78249W        W37994  20.601  19.751   0.798
78250W        W37995  30.582  23.194   3.834
78251W        W37996   9.306  27.174   1.385
78252W        W37997  31.945   5.432  10.450
78253W        W37998  13.761  18.550   0.450
78254W        W37999  25.038  36.852  11.543
78255W        W38000  18.218  40.827   1.903
78256W        W38001  13.803   2.390  11.415
78257W        W38002  18.626   0.426   4.662
78258W        W38003  11.256   3.414   3.221
78259W        W38004  11.774  20.648  12.437
78260W        W38005  43.873  33.062  10.587
78261W        W38006  20.254  40.315  11.976
78262W        W38007   3.371  44.460  13.017
78263W        W38008  34.967   1.353   0.457
78264W        W38009  20.211   4.252   1.926
78265W        W38010  41.024  13.786  10.902
78266W        W38011  16.697  23.110   4.641
78267W        W38012   8.680   3.424   3.691
78268W        W38013  38.001   5.399  12.551
78269W        W38014  32.035  27.038   3.724
78270W        W38015  28.573  32.622  11.016
78271W        W38016  37.548   0.367   4.837
78272W        W38017  36.040  25.708   0.771
78273W        W38018  44.780  11.194   0.249
78274W        W38019  37.890  42.910  12.409
78275W        W38020  41.501  36.502  12.413
78276W        W38021  38.564  15.629   0.333
78277W        W38022  16.784  40.421  12.940
78278W        W38023  11.670  16.122  11.603
78279W        W38024  21.108  13.674   0.891
78280W        W38025   2.742   9.814  11.956
78281W        W38026  39.537  14.115   4.201
78282W        W38027  21.647   5.692  10.479
78283W        W38028  16.125  13.174   1.386
78284W        W38029  16.099  23.079  13.995
78285W        W38030  24.651  30.532  11.607
78286W        W38031   7.785  21.178   0.912
78287W        W38032  40.407  36.884   0.259
78288W        W38033  12.761  25.052  11.531
78289W        W38034  14.734  21.207   3.239
78290W        W38035  18.057  39.325   1.823
78291W        W38036   4.900  43.399   2.782
78292W        W38037  12.141  29.939   1.727
78293W        W38038  15.757  20.112  12.546
78294W        W38039  23.988  14.664   0.791
78295W        W38040  10.661  21.745   2.190
78296W        W38041  24.725  16.668   1.840
78297W        W38042  34.118  41.310  14.964
78298W        W38043  34.426   4.904   0.959
78299W        W38044  39.492  11.338   0.483
78300W        W38045  41.496  24.067  14.495
78301W        W38046   1.364  13.247  12.450
78302W        W38047  37.031  41.518  13.994
78303W        W38048  37.934  16.776   0.800
78304W        W38049  30.967  37.430  11.892
78305W        W38050  23.676  41.822   0.452
78306W        W38051  29.015  38.513   0.326
78307W        W38052  28.175  20.051  14.300
78308W        W38053  40.444  16.680   1.283
78309W        W38054  29.648  28.940   1.704
78310W        W38055  25.975  26.507  10.563
78311W        W38056  25.186  19.749  14.784
78312W        W38057  21.143  42.997   1.423
78313W        W38058  24.524  22.110   1.426
78314W        W38059   7.804   2.323  10.494
78315W        W38060  21.697  13.308  12.872
78316W        W38061  25.979  26.592   0.929
78317W        W38062  33.526  17.179   1.776
78318W        W38063  20.058  25.089   2.222
78319W        W38064  17.241  18.245  14.986
78320W        W38065  18.131  12.334  12.013
78321W        W38066   1.759  43.913   3.826
78322W        W38067  37.494   8.797   5.083
78323W        W38068  33.509   6.856   1.789
78324W        W38069   5.817  20.588   4.793
78325W        W38070  43.788  20.114   4.823
78326W        W38071   1.849  30.441   2.864
78327W        W38072  23.087  34.605   2.327
78328W        W38073   7.413  19.770   3.714
78329W        W38074  17.556  11.158   0.924
78330W        W38075  17.708  10.218   0.293
78331W        W38076  11.773  31.436   4.116
78332W        W38077  23.587  16.125  12.379
78333W        W38078  21.018  32.905   9.997
78334W        W38079  34.586   4.228  12.448
78335W        W38080  20.591   9.259   0.325
78336W        W38081  31.454   4.762   2.867
78337W        W38082  42.018  36.969  14.975
78338W        W38083   6.210   7.868  13.939
78339W        W38084  20.716  24.152  13.416
78340W        W38085  31.942  21.156  12.571
78341W        W38086  35.944  25.687   5.184
78342W        W38087   1.798   4.416   1.226
78343W        W38088  10.368  39.051  14.498
78344W        W38089  25.167  15.161  12.558
78345W        W38090  34.565  19.640   9.524
78346W        W38091  16.301  15.168  10.467
78347W        W38092  32.471   8.191  13.048
78348W        W38093  12.262   6.269  14.347
78349W        W38094   7.854  41.942  11.593
78350W        W38095  38.046   6.897  10.996
78351W        W38096  18.275   2.430  12.960
78352W        W38097  33.440  27.093   5.128
78353W        W38098  37.009  42.399  10.601
78354W        W38099   7.906  12.303  10.491
78355W        W38100  39.448  14.763   3.711
78356W        W38101   3.378  25.146  10.906
78357W        W38102  12.691   2.959  12.373
78358W        W38103   1.414   7.735  11.930
78359W        W38104  43.814  30.534  11.863
78360W        W38105   3.916  12.316  13.867
78361W        W38106  23.698  42.451  12.032
78362W        W38107  32.528  25.118  13.049
78363W        W38108  28.162  43.842   2.682
78364W        W38109   5.816  39.909   2.884
78365W        W38110  11.364   1.969   1.395
78366W        W38111  38.994   4.900  14.484
78367W        W38112  36.386   6.420   4.788
78368W        W38113  27.144  25.032  11.528
78369W        W38114  32.920  15.823   4.190
78370W        W38115  36.545  12.792  12.413
78371W        W38116   5.430  11.695  14.990
78372W        W38117  42.974  37.075  12.854
78373W        W38118  44.456   1.456  12.059
78374W        W38119  21.739  35.101  13.027
78375W        W38120  19.607  12.149  12.375
78376W        W38121  27.571  24.221  10.439
78377W        W38122  14.105  27.600  11.912
78378W        W38123  44.271   3.219  10.911
78379W        W38124  20.731  21.159   0.381
78380W        W38125  21.634  10.149  14.812
78381W        W38126  41.377  13.818  12.343
78382W        W38127  26.464  28.461   4.283
78383W        W38128  42.911  17.272  10.498
78384W        W38129  34.608  31.016   1.883
78385W        W38130  13.790  19.198   2.217
78386W        W38131  18.217  23.537   0.267
78387W        W38132  10.250  36.051  13.366
78388W        W38133  43.829  22.693   0.437
78389W        W38134  11.267   3.251   1.315
78390W        W38135  38.488   1.361   4.802
78391W        W38136  37.520   7.254  10.970
78392W        W38137  41.865   0.827   2.670
78393W        W38138  23.043   3.275  12.076
78394W        W38139   8.734   7.181   3.216
78395W        W38140  33.431  27.683  14.952
78396W        W38141  23.212  30.547   9.486
78397W        W38142   1.480  23.725   4.771
78398W        W38143   6.769  10.731   1.733
78399W        W38144  23.545   1.919   1.700
78400W        W38145  10.253   2.273   1.723
78401W        W38146   6.394  25.644  12.896
78402W        W38147  17.624  44.968  11.863
78403W        W38148   8.202  28.483  14.371
78404W        W38149  38.826  11.330   4.727
78405W        W38150  42.522  21.112   0.258
78406W        W38151  40.341   4.402   0.741
78407W        W38152  38.916   4.740   3.212
78408W        W38153   6.335  39.913  12.564
78409W        W38154  23.109  19.713  14.448
78410W        W38155  14.712  23.637   1.218
78411W        W38156   5.747  38.869   3.833
78412W        W38157  23.511  28.982   2.799
78413W        W38158  17.162  30.001   2.366
78414W        W38159   5.833  33.935   3.801
78415W        W38160  26.494  44.912   3.372
78416W        W38161  27.637  39.445  12.426
78417W        W38162  19.537   7.796   3.300
78418W        W38163   4.718   7.380   0.750
78419W        W38164  26.050  10.223  13.986
78420W        W38165  14.126  37.360   1.287
78421W        W38166  22.558   6.241   1.360
78422W        W38167  14.797   9.688   3.739
78423W        W38168  22.143  19.577  10.594
78424W        W38169  18.683   4.912  14.957
78425W        W38170   4.432  37.466   2.385
78426W        W38171  39.875  32.542   0.835
78427W        W38172  16.203  25.540  11.883
78428W        W38173  31.152  41.438  14.462
78429W        W38174  11.628  42.925  11.552
78430W        W38175  19.761  11.756  14.347
78431W        W38176  39.814  40.958  14.954
78432W        W38177   2.360  34.459  11.503
78433W        W38178  24.986  37.493   2.865
78434W        W38179  43.375  31.472   1.885
78435W        W38180  42.897   5.706   1.273
78436W        W38181   5.840  23.033  14.487
78437W        W38182  19.770  37.568  10.644
78438W        W38183  17.684  35.603  10.481
78439W        W38184   6.412  22.251  14.909
78440W        W38185  34.517  10.183  10.430
78441W        W38186   7.820   5.908   3.694
78442W        W38187  24.040  24.157   3.373
78443W        W38188  12.310  21.224  11.967
78444W        W38189  11.761  38.880  12.965
78445W        W38190   4.931  40.346   3.305
78446W        W38191  19.109  42.994  12.407
78447W        W38192  16.141  17.580  14.993
78448W        W38193   4.841  40.468   4.691
78449W        W38194  17.673   9.200  11.420
78450W        W38195   1.847  39.963  11.589
78451W        W38196  38.844  34.538   2.184
78452W        W38197  20.607  16.641  14.452
78453W        W38198   7.262  28.507  13.353
78454W        W38199  28.600  19.621  10.634
78455W        W38200  21.700  44.011  14.837
78456W        W38201   5.262  43.770   2.707
78457W        W38202  12.198  41.357  10.450
78458W        W38203  19.665  12.253   4.128
78459W        W38204  25.684  19.551   1.407
78460W        W38205  40.360  35.437  13.467
78461W        W38206  18.644  15.624  14.003
78462W        W38207   4.828  15.777   5.269
78463W        W38208  11.694  32.460  13.950
78464W        W38209  12.230  35.496   3.232
78465W        W38210  35.894   6.196  11.408
78466W        W38211   8.358  40.481   0.389
78467W        W38212  19.757  17.267  12.511
78468W        W38213  16.249  44.329  13.434
78469W        W38214  14.794  44.958   4.598
78470W        W38215  42.315  39.328   0.275
78471W        W38216   9.682  40.015   4.144
78472W        W38217  16.080  32.459   1.912
78473W        W38218   6.907   3.456   2.857
78474W        W38219  22.729  28.681   4.232
78475W        W38220   9.700   0.839   4.621
78476W        W38221  35.457  14.701   0.951
78477W        W38222   3.761   7.397  11.400
78478W        W38223   8.877  16.097   0.281
78479W        W38224  34.952  44.334   1.843
78480W        W38225   9.863  12.722  12.462
78481W        W38226  10.306  34.899  12.900
78482W        W38227   0.847   4.851  11.087
78483W        W38228  37.545  32.958  11.982
78484W        W38229  32.602  30.998   1.383
78485W        W38230  38.452   3.951   1.389
78486W        W38231   9.710  30.608   4.665
78487W        W38232  34.575   7.671  11.089
78488W        W38233  27.588  25.215  11.019
78489W        W38234  41.472  22.230  12.875
78490W        W38235   7.191  44.869  12.055
78491W        W38236  27.655  17.100   3.845
78492W        W38237   9.664  42.918   4.660
78493W        W38238  42.424   3.766   1.406
78494W        W38239  37.887  31.142  14.784
78495W        W38240  23.215  41.485  10.599
78496W        W38241  18.746   9.219  11.930
78497W        W38242  41.044   0.970  13.523
78498W        W38243  23.179  16.085  13.798
78499W        W38244  36.973  32.593   3.674
78500W        W38245  36.852   7.813  13.883
78501W        W38246  25.641   1.948   2.329
78502W        W38247   4.259  29.030   2.197
78503W        W38248  39.362  15.311  11.104
78504W        W38249  10.244  21.583  13.053
78505W        W38250   6.391  40.042   1.808
78506W        W38251  13.306  44.786   2.735
78507W        W38252   0.808  14.606  12.908
78508W        W38253  23.605  24.986   0.962
78509W        W38254  20.127  34.538  11.074
78510W        W38255   1.309   0.930  14.377
78511W        W38256  16.314  39.900  12.419
78512W        W38257   7.850  30.631   1.863
78513W        W38258  23.668  33.917  10.940
78514W        W38259  28.446  27.080   2.702
78515W        W38260  21.643   4.928  11.419
78516W        W38261  23.659   5.830   2.358
78517W        W38262  22.553  10.278  13.455
78518W        W38263  37.902   2.889  11.089
78519W        W38264   6.871  44.883  13.359
78520W        W38265  44.939  40.940   2.707
78521W        W38266  16.161  18.114   3.314
78522W        W38267  17.084  43.336  10.427
78523W        W38268  25.173   0.944   3.727
78524W        W38269  30.007  41.910  10.556
78525W        W38270   1.440   4.328   0.904
78526W        W38271  37.445  15.815   3.634
78527W        W38272  24.094   6.243   5.279
78528W        W38273  43.931  21.695  10.069
78529W        W38274   1.823  32.451  14.307
78530W        W38275   9.753  41.971  12.926
78531W        W38276  26.457  37.489   1.734
78532W        W38277  39.824  15.583   1.374
78533W        W38278  34.534  32.410  12.473
78534W        W38279  14.125  17.570  10.485
78535W        W38280  18.629   2.864  12.929
78536W        W38281  29.977  36.879  12.009
78537W        W38282  36.446  22.133  11.034
78538W        W38283  19.596  15.813  12.991
78539W        W38284  20.186  17.625   3.177
78540W        W38285  24.678  35.374  11.455
78541W        W38286  43.897   3.326   1.298
78542W        W38287  11.277   4.403  11.120
78543W        W38288  39.342  10.728  13.822
78544W        W38289   5.273  35.370  14.311
78545W        W38290  35.008   1.966   3.286
78546W        W38291  21.145  41.940   2.220
78547W        W38292   1.322  23.513  12.953
78548W        W38293  27.639  41.381  13.344
78549W        W38294  17.063  38.411  12.575
78550W        W38295  23.695   2.253  13.507
78551W        W38296  19.629   6.310  13.966
78552W        W38297   1.375  14.327  14.832
78553W        W38298  14.632  34.539   5.115
78554W        W38299   2.302  32.439   4.341
78555W        W38300  31.953   6.306  11.932
78556W        W38301  11.171   3.872   2.893
78557W        W38302  14.683  17.784  13.874
78558W        W38303  35.584  42.813  14.353
78559W        W38304   6.344   4.430  11.542
78560W        W38305  30.500  18.785  12.521
78561W        W38306   7.901  44.805  14.445
78562W        W38307  15.307   4.794  12.907
78563W        W38308  10.823  32.905   1.338
78564W        W38309  16.756  29.630   1.368
78565W        W38310  15.272  39.366  13.471
78566W        W38311  23.530  34.998  10.464
78567W        W38312  44.475  11.695   2.231
78568W        W38313  28.986  40.492  13.308
78569W        W38314  40.441  21.208  14.487
78570W        W38315  31.637  40.929  12.986
78571W        W38316  44.980   2.869  10.463
78572W        W38317  38.838  44.002  13.482
78573W        W38318  13.611  43.955   3.219
78574W        W38319  29.566  23.146   0.259
78575W        W38320  19.252  13.638   0.782
78576W        W38321   9.191  33.463  11.966
78577W        W38322   2.339  26.653   5.112
78578W        W38323  35.521  29.021  13.492
78579W        W38324  34.930  35.506   2.703
78580W        W38325  22.148   5.275   3.707
78581W        W38326   4.237  33.011   2.694
78582W        W38327  14.216   5.358   3.181
78583W        W38328  32.394  42.328  14.361
78584W        W38329  12.655  21.586   1.238
78585W        W38330  10.161   8.277   3.300
78586W        W38331  18.189  25.636   2.774
78587W        W38332  22.525  43.967   4.787
78588W        W38333  24.996  35.497   0.396
78589W        W38334  26.037  41.935   4.282
78590W        W38335  36.841   9.694  14.830
78591W        W38336   0.412  20.206  12.091
78592W        W38337  22.108   2.310   3.796
78593W        W38338  28.095  10.649  12.395
78594W        W38339  30.568   7.737   2.204
78595W        W38340  13.276   2.448   3.172
78596W        W38341  38.505  21.563   1.239
78597W        W38342   9.881  35.440   0.830
78598W        W38343  21.643  34.539   3.211
78599W        W38344  17.166  31.598   0.391
78600W        W38345  35.457   2.735   0.908
78601W        W38346   3.364  23.609  11.018
78602W        W38347  21.094  40.922   3.712
78603W        W38348   2.358  26.111   2.746
78604W        W38349  21.584  31.617  11.561
78605W        W38350  21.244  27.955   3.785
78606W        W38351  41.481  20.032  11.925
78607W        W38352  32.111  12.260  14.801
78608W        W38353  31.012  22.612  14.890
78609W        W38354  25.606  36.542  10.582
78610W        W38355  33.484  36.080   4.770
78611W        W38356   0.450   7.302   2.785
78612W        W38357  35.571  28.530  13.939
78613W        W38358  21.669  21.685   0.306
78614W        W38359   2.407  24.648   0.305
78615W        W38360  23.688  23.502   2.780
78616W        W38361   5.413  36.485   3.174
78617W        W38362  19.755  42.396  14.000
78618W        W38363  10.871  10.339  11.008
78619W        W38364  30.115   1.239  14.898
78620W        W38365  27.595  16.090  14.449
78621W        W38366  44.316  24.163   0.456
78622W        W38367  19.040  28.629  14.472
78623W        W38368  28.145  41.395  13.359
78624W        W38369  34.439  23.612  14.826
78625W        W38370  13.748  29.603  11.061
78626W        W38371  20.693  32.563   3.189
78627W        W38372   3.759  23.083   0.863
78628W        W38373  30.555  33.531   2.772
78629W        W38374   6.407  26.518   5.261
78630W        W38375  29.073  24.103   0.352
78631W        W38376  40.332  35.024   2.279
78632W        W38377  43.804  19.549  14.394
78633W        W38378  22.057  24.624  10.491
78634W        W38379   7.744  33.007  13.978
78635W        W38380  42.029   4.762   2.802
78636W        W38381  29.960  42.428   1.806
78637W        W38382  43.813   8.235   2.235
78638W        W38383  24.048  39.445  13.872
78639W        W38384  16.615   5.389  10.565
78640W        W38385  24.633  20.108  14.376
78641W        W38386   4.876  19.613  14.492
78642W        W38387  40.437  26.654  11.407
78643W        W38388  26.027  15.595   2.708
78644W        W38389   3.768  42.942   4.161
78645W        W38390  10.325  26.103   0.351
78646W        W38391  23.060  19.265  11.604
78647W        W38392  39.955  16.602   1.895
78648W        W38393  39.478  38.840  11.035
78649W        W38394  24.224  34.036  11.926
78650W        W38395  40.904  26.010   0.961
78651W        W38396  23.110  41.514   2.372
78652W        W38397  39.847   3.888   4.677
78653W        W38398  23.537  17.786   1.267
78654W        W38399  34.586   8.405   0.739
78655W        W38400  22.623  24.555   4.664
78656W        W38401  41.856   5.313  10.570
78657W        W38402  13.798  44.286  14.906
78658W        W38403   9.161   9.247  12.545
78659W        W38404   4.206   7.291  11.374
78660W        W38405  38.527  15.196  13.991
78661W        W38406  23.169  27.552  13.509
78662W        W38407  31.994  38.419  13.001
78663W        W38408  27.050  15.785   3.749
78664W        W38409  37.372  33.874  12.437
78665W        W38410  15.683  24.575  14.511
78666W        W38411  35.590  28.604   4.611
78667W        W38412  37.409  40.540   0.266
78668W        W38413  30.992  34.430   2.685
78669W        W38414  28.538  26.182   3.157
78670W        W38415  14.131   2.950  11.890
78671W        W38416  39.990  13.146  12.094
78672W        W38417   2.447  26.050  11.059
78673W        W38418   9.271   8.701  11.034
78674W        W38419  13.776  25.683  10.982
78675W        W38420  18.133  24.617   2.798
78676W        W38421  32.968  24.175   2.371
78677W        W38422  33.620  24.582  11.569
78678W        W38423  15.144  20.616   0.907
78679W        W38424  36.505  26.030  13.809
78680W        W38425  28.475  24.667   3.760
78681W        W38426  17.154  20.217   3.258
78682W        W38427  40.349  27.105   2.411
78683W        W38428  40.023   3.823  10.984
78684W        W38429  24.657  13.267   0.834
78685W        W38430   6.215  32.604   2.683
78686W        W38431  43.421  12.234   1.784
78687W        W38432  19.749  17.699   0.954
78688W        W38433  44.466  16.210   3.292
78689W        W38434  24.021   1.401   1.929
78690W        W38435  29.988  43.850  14.943
78691W        W38436  26.633   0.349  11.921
78692W        W38437   0.973  34.024  13.507
78693W        W38438  17.108  33.047  12.490
78694W        W38439  20.155  42.342   0.324
78695W        W38440  36.923  14.211   2.821
78696W        W38441  24.537  28.033  13.061
78697W        W38442   9.291  11.728   3.823
78698W        W38443  35.937  34.096   1.436
78699W        W38444  10.828  11.297  12.076
78700W        W38445  22.024   7.265  14.904
78701W        W38446   9.831  20.124   0.438
78702W        W38447  10.213  19.196   0.774
78703W        W38448   9.377  36.902  11.935
78704W        W38449   1.323  19.165  13.846
78705W        W38450   3.848  30.619  13.913
78706W        W38451  42.352   5.843   3.357
78707W        W38452  27.519  18.662   4.334
78708W        W38453  28.124  17.587  13.871
78709W        W38454  42.432  13.695  10.928
78710W        W38455  34.611  36.463  10.563
78711W        W38456  24.594  14.717  12.360
78712W        W38457  36.038  35.031  10.465
78713W        W38458  42.387  37.835  13.509
78714W        W38459   2.322   5.437  13.394
78715W        W38460  35.442  38.360  12.015
78716W        W38461  24.110  43.798  13.492
78717W        W38462  41.479  29.617   0.422
78718W        W38463   5.394  40.362  12.494
78719W        W38464  25.994  36.458   4.316
78720W        W38465  23.161   2.339   1.288
78721W        W38466  44.278  31.600   0.745
78722W        W38467   2.915  13.274  11.426
78723W        W38468  19.166  16.661  13.338
78724W        W38469  20.186  15.304   0.873
78725W        W38470  36.496  12.647  14.920
78726W        W38471  23.541  29.057  11.426
78727W        W38472   2.233  32.436  13.878
78728W        W38473  21.018  30.096  13.475
78729W        W38474   7.389  38.864   0.313
78730W        W38475  36.951  26.090  14.337
78731W        W38476  43.810  38.410   1.779
78732W        W38477  17.589  18.717   3.361
78733W        W38478  14.773  13.183   3.791
78734W        W38479  40.310  21.582   0.302
78735W        W38480  39.028  31.110   0.805
78736W        W38481  39.322  30.440  12.554
78737W        W38482  13.173   9.196   4.732
78738W        W38483  25.588   5.751   1.809
78739W        W38484  27.092  18.715   2.324
78740W        W38485   8.812  22.066  14.407
78741W        W38486  31.050  21.744  11.114
78742W        W38487  17.706   1.290   5.804
78743W        W38488  26.180  44.301  11.072
78744W        W38489  42.379   3.226   4.350
78745W        W38490  39.508  20.659  12.363
78746W        W38491  26.681  38.823   4.668
78747W        W38492  32.405   0.908  10.540
78748W        W38493  23.648  40.463  14.856
78749W        W38494   9.684  20.042  10.947
78750W        W38495  41.847  28.148  11.059
78751W        W38496  27.454  42.009  14.414
78752W        W38497  40.007   0.870   4.631
78753W        W38498  38.878   3.714   3.345
78754W        W38499  20.564  23.612   4.345
78755W        W38500  11.130  11.812   2.868
78756W        W38501  44.935  11.187  11.419
78757W        W38502  34.024  10.774  13.019
78758W        W38503  25.598  27.559  10.568
78759W        W38504  17.275   2.721  12.341
78760W        W38505  33.916  22.196  14.876
78761W        W38506  26.487  23.599  13.054
78762W        W38507  13.844  23.631  12.890
78763W        W38508  22.502   3.259   3.271
78764W        W38509   8.695  27.977   0.774
78765W        W38510  17.200  36.429   0.330
78766W        W38511  28.138  31.927   0.942
78767W        W38512  44.905  42.867  13.797
78768W        W38513  44.440  37.947  11.587
78769W        W38514   4.883  33.044   3.631
78770W        W38515  22.588  29.578  10.614
78771W        W38516  26.158  35.488  12.827
78772W        W38517  26.641  16.223  10.429
78773W        W38518   3.359  19.257  12.405
78774W        W38519  44.495  18.619   5.750
78775W        W38520  24.137   5.295   0.251
78776W        W38521  15.134  10.289   1.275
78777W        W38522  32.533   6.721   1.347
78778W        W38523  40.485   7.409  11.451
78779W        W38524  19.072   7.360   2.849
78780W        W38525  14.146   8.666   1.802
78781W        W38526  15.265   7.336   4.670
78782W        W38527  20.538  17.663  14.009
78783W        W38528  43.905   6.859  14.850
78784W        W38529  35.907   1.813   0.429
78785W        W38530  22.025  22.083  11.429
78786W        W38531  17.784  21.724   1.305
78787W        W38532  19.667  37.347  10.074
78788W        W38533  36.018   1.959  10.527
78789W        W38534   6.312  37.356  11.415
78790W        W38535  18.069  36.371  14.492
78791W        W38536  19.237  44.278  14.404
78792W        W38537  12.760  33.578   0.766
78793W        W38538  19.731  40.914   4.607
78794W        W38539   6.419  16.813  10.568
78795W        W38540  41.454  18.164   3.852
78796W        W38541   4.768  43.782   4.186
78797W        W38542  24.502  19.080   4.739
78798W        W38543   3.752  32.886  13.444
78799W        W38544   0.284   0.973   3.682
78800W        W38545  12.781  25.482   3.176
78801W        W38546   0.906   1.415  10.602
78802W        W38547  22.211  12.625  14.473
78803W        W38548  41.485   9.809   1.723
78804W        W38549  29.028  10.152  14.474
78805W        W38550  16.215   2.749  11.516
78806W        W38551  44.400  25.519  13.345
78807W        W38552  14.339  16.749  10.977
78808W        W38553  41.967  17.296   1.424
78809W        W38554   2.887  21.596   0.470
78810W        W38555  11.701  38.462   1.888
78811W        W38556  21.611  32.918  12.359
78812W        W38557  20.110   6.268   4.836
78813W        W38558  20.649   3.949   0.396
78814W        W38559  38.563  24.089  11.071
78815W        W38560  24.507  15.218   0.962
78816W        W38561   6.882   8.762   3.335
78817W        W38562  23.216  12.735   2.289
78818W        W38563  13.316  33.895   5.702
78819W        W38564   0.276  41.978  10.920
78820W        W38565  12.732  31.026  12.972
78821W        W38566  23.685  14.720   9.443
78822W        W38567  22.692  36.528  12.436
78823W        W38568  23.655  13.148   2.289
78824W        W38569  24.001  12.225   1.881
78825W        W38570  29.046   5.901   5.287
78826W        W38571  12.808  43.002   4.339
78827W        W38572  37.460  32.551   2.871
78828W        W38573  20.721  19.067   0.891
78829W        W38574  22.614  39.507  10.949
78830W        W38575  14.277   6.810   0.832
78831W        W38576   4.345  27.084   2.776
78832W        W38577  10.344  29.945   0.267
78833W        W38578  31.052  32.002  10.114
78834W        W38579  12.812  39.424   0.427
78835W        W38580  41.440  21.079   3.287
78836W        W38581  21.670   7.355   5.178
78837W        W38582  25.492   6.195   4.771
78838W        W38583  31.122  28.630   3.729
78839W        W38584  31.473  41.355  10.604
78840W        W38585  26.543   0.943   0.309
78841W        W38586  44.435   3.227   9.987
78842W        W38587   2.737  39.023  11.953
78843W        W38588  32.596  21.098  11.541
78844W        W38589  44.466  38.470  14.404
78845W        W38590   0.906  10.193  13.997
78846W        W38591   4.308  33.552  12.526
78847W        W38592  18.067   6.260   3.807
78848W        W38593  35.598  16.263  10.629
78849W        W38594  42.319  21.728   2.209
78850W        W38595  40.029  18.277   0.324
78851W        W38596  39.485  24.046   0.849
78852W        W38597  11.669  17.163   1.779
78853W        W38598  37.436  21.125  14.957
78854W        W38599  25.565  42.350  12.556
78855W        W38600  34.583  11.276  13.959
78856W        W38601  27.630   4.843   4.165
78857W        W38602  44.759  16.737  13.830
78858W        W38603  10.210  25.514  14.302
78859W        W38604  19.125  31.021  13.483
78860W        W38605  24.191  40.439   2.725
78861W        W38606  27.015  10.720  12.351
78862W        W38607  18.615  29.937  14.814
78863W        W38608  16.128  17.251  12.556
78864W        W38609   7.810  19.720  13.913
78865W        W38610  23.135  34.108   2.271
78866W        W38611   4.298  32.067   3.218
78867W        W38612  26.550  15.108  13.035
78868W        W38613  28.079  35.570  13.962
78869W        W38614  29.503  10.290   4.113
78870W        W38615  38.924  18.693   4.221
78871W        W38616   9.746   3.287   2.738
78872W        W38617  17.749  33.964  11.968
78873W        W38618   3.461  15.645   4.830
78874W        W38619  33.934   3.771   0.361
78875W        W38620  33.987  39.028  11.964
78876W        W38621   1.840  16.607   3.298
78877W        W38622  11.683  41.505   4.235
78878W        W38623  18.693  33.030   0.845
78879W        W38624  36.078   4.833  12.091
78880W        W38625  10.651  21.710   3.821
78881W        W38626  17.680  30.928  13.967
78882W        W38627  35.469  34.432   3.383
78883W        W38628  31.067  40.929  14.473
78884W        W38629  26.684  18.739  13.910
78885W        W38630  40.313  35.902  11.393
78886W        W38631  30.047  25.531  12.044
78887W        W38632   0.400   2.759   2.795
78888W        W38633   8.760   3.935   3.286
78889W        W38634  26.961  42.446   4.143
78890W        W38635  25.509   8.268   1.735
78891W        W38636   3.327  26.955  13.940
78892W        W38637   8.758  25.964  13.960
78893W        W38638  33.095  42.514  11.003
78894W        W38639  33.935  34.563   3.792
78895W        W38640   6.283  26.682   3.850
78896W        W38641  42.990  41.970  13.811
78897W        W38642   9.159  29.449   0.921
78898W        W38643  12.698  11.334   1.827
78899W        W38644  35.602  31.109   1.412
78900W        W38645  40.437  23.112   4.813
78901W        W38646  43.773   0.443  11.999
78902W        W38647  23.611  21.585  12.432
78903W        W38648   9.152  33.552   2.336
78904W        W38649  24.492  25.565   3.664
78905W        W38650   5.878  19.268   4.320
78906W        W38651   0.920  12.141  13.416
78907W        W38652  19.624  25.036   0.351
78908W        W38653  41.007   9.723   2.685
78909W        W38654  31.004  23.241   1.920
78910W        W38655   2.448  15.243  13.064
78911W        W38656  30.110   4.768   1.231
78912W        W38657  33.952  23.202  11.872
78913W        W38658  21.664   9.734  11.430
78914W        W38659   5.777  38.402  10.481
78915W        W38660  32.972  25.091  11.898
78916W        W38661   7.837  28.119  11.129
78917W        W38662  38.993   4.235  12.916
78918W        W38663  44.291   9.275  11.084
78919W        W38664  32.604  25.666  11.476
78920W        W38665  17.188   3.844   2.728
78921W        W38666  30.468   7.723   0.942
78922W        W38667  20.620   3.728  11.108
78923W        W38668  32.943   0.784   0.463
78924W        W38669   5.268  35.030  13.002
78925W        W38670  33.480   4.441  12.079
78926W        W38671  38.830  16.675  10.577
78927W        W38672  35.494  13.635  10.917
78928W        W38673  29.087  28.118  10.608
78929W        W38674  23.511  35.380   4.237
78930W        W38675  14.119   4.205  12.928
78931W        W38676  15.320   2.931  13.804
78932W        W38677  33.541  32.017  11.493
78933W        W38678  36.367  38.992  10.527
78934W        W38679  10.687  11.632   2.891
78935W        W38680  12.806  23.157   4.649
78936W        W38681  24.697  14.106   0.453
78937W        W38682  41.415  33.886   1.732
78938W        W38683   7.751  21.753  11.994
78939W        W38684  23.209  10.721  14.787
78940W        W38685  26.136  40.962  11.974
78941W        W38686  36.482  11.209  10.408
78942W        W38687  31.112  11.279   2.217
78943W        W38688  28.153   0.343   3.309
78944W        W38689  44.383  22.178   0.881
78945W        W38690   2.327  14.215  10.969
78946W        W38691  35.381  40.006   4.736
78947W        W38692  24.541   0.313  12.042
78948W        W38693  23.513   3.225   2.866
78949W        W38694   5.220  19.247   0.452
78950W        W38695  28.637  32.089  13.988
78951W        W38696  40.925  20.041   0.467
78952W        W38697  42.449  41.358   2.778
78953W        W38698   0.261  28.621  14.024
78954W        W38699  26.619  43.820  12.567
78955W        W38700  31.996  37.010  12.846
78956W        W38701  20.046  39.372  11.877
78957W        W38702  24.705  23.108   3.218
78958W        W38703  17.235  14.272   3.813
78959W        W38704  41.350   3.944   0.806
78960W        W38705  33.511  33.585  11.019
78961W        W38706   9.873  21.573   1.818
78962W        W38707  22.112  20.248  11.907
78963W        W38708  42.322  34.958   1.299
78964W        W38709  23.064  42.998  11.400
78965W        W38710   6.279  24.680  13.910
78966W        W38711   4.939   4.219  10.451
78967W        W38712  26.021  16.254  11.869
78968W        W38713   0.843  10.333  13.037
78969W        W38714  42.518  30.412  13.402
78970W        W38715  20.749  43.914   3.249
78971W        W38716  34.029   3.264   4.230
78972W        W38717  36.895  15.110   2.706
78973W        W38718  14.812  20.690  13.477
78974W        W38719  22.035  19.103  14.997
78975W        W38720  42.339   2.898   3.648
78976W        W38721  39.967  15.277   2.212
78977W        W38722   5.780  34.389   4.621
78978W        W38723  12.196  30.642   0.735
78979W        W38724   9.296  10.165  14.302
78980W        W38725  15.692  26.207  14.807
78981W        W38726   8.728  13.715   3.362
78982W        W38727  43.776  37.975   3.743
78983W        W38728   2.731  23.020  10.464
78984W        W38729  14.648  30.151   4.663
78985W        W38730  11.313  23.162  14.439
78986W        W38731  14.145  42.004   0.442
78987W        W38732   4.886  44.823   3.280
78988W        W38733   7.329  41.327  13.821
78989W        W38734   3.460  14.729   3.159
78990W        W38735  27.576  12.774   2.804
78991W        W38736  30.469  14.100   4.686
78992W        W38737  32.397  14.298   5.190
78993W        W38738  11.820  15.238  10.581
78994W        W38739  28.619  24.531   4.710
78995W        W38740  17.219  15.656  10.114
78996W        W38741  10.238  30.012  12.505
78997W        W38742   2.336  32.076   1.448
78998W        W38743  30.145  21.691   3.336
78999W        W38744  16.110  27.445  11.579
79000W        W38745  39.459  23.986  10.492
79001W        W38746  44.804  24.606   0.966
79002W        W38747   1.437   6.353  10.936
79003W        W38748  24.604   2.283   4.731
79004W        W38749  24.052  25.169  13.515
79005W        W38750   9.382   6.275  13.479
79006W        W38751   1.843  40.820   4.732
79007W        W38752  15.815  33.083   1.434
79008W        W38753   9.154  30.587   1.269
79009W        W38754  38.973  22.099  12.529
79010W        W38755  19.116   7.665   2.228
79011W        W38756  16.567  12.273   3.200
79012W        W38757  36.942   4.328  12.888
79013W        W38758  16.759  16.754  13.404
79014W        W38759  39.370  38.878   2.677
79015W        W38760   9.152  41.294  11.431
79016W        W38761  24.061  29.175  10.464
79017W        W38762   8.298  41.806   3.821
79018W        W38763  16.265  10.655   4.117
79019W        W38764  30.566  21.592   4.121
79020W        W38765   6.343   0.389  12.831
79021W        W38766  39.424  28.593  13.363
79022W        W38767   6.313  12.839  13.543
79023W        W38768  38.045  39.889  10.618
79024W        W38769  32.541  13.327   3.725
79025W        W38770   5.866  11.321   1.861
79026W        W38771  18.217  21.051  12.888
79027W        W38772  31.589  21.706   4.286
79028W        W38773  22.740   3.735   3.305
79029W        W38774  26.702  36.000  13.792
79030W        W38775   1.339  40.041  10.027
79031W        W38776  38.493  20.695   2.297
79032W        W38777  16.650  25.132  11.466
79033W        W38778   6.795   2.410  14.834
79034W        W38779  23.627  34.557  13.456
79035W        W38780  40.979  13.692  13.916
79036W        W38781   6.838  21.588   3.650
79037W        W38782  32.500  36.982   1.341
79038W        W38783  39.361  22.176  13.542
79039W        W38784   3.301   0.958  14.764
79040W        W38785   7.676  26.102   3.835
79041W        W38786  15.708  44.493   0.439
79042W        W38787  35.450  25.550   2.781
79043W        W38788  30.655  42.954   2.711
79044W        W38789  40.440  35.037  11.907
79045W        W38790  22.695  25.217  10.505
79046W        W38791  37.406   1.436   3.170
79047W        W38792  26.204  37.831   1.392
79048W        W38793   4.879  11.622   4.174
79049W        W38794   0.433   3.304   9.970
79050W        W38795  24.120  22.698   0.317
79051W        W38796  38.937  43.876   0.904
79052W        W38797  24.039  28.963   0.266
79053W        W38798  37.934  17.613  12.975
79054W        W38799  16.711  44.305   4.243
79055W        W38800  34.901   4.396  14.893
79056W        W38801  43.504  28.031   2.347
79057W        W38802  12.704  40.021   0.956
79058W        W38803  34.544  31.436  11.517
79059W        W38804  43.450  35.471   4.787
79060W        W38805  31.139   1.268   3.698
79061W        W38806   1.270  36.098  11.009
79062W        W38807  16.810  10.817   4.694
79063W        W38808  21.202  22.159  12.555
79064W        W38809  14.827  36.046  10.084
79065W        W38810  26.018  14.646  11.881
79066W        W38811  17.769  35.931   4.218
79067W        W38812   4.445  14.679   4.783
79068W        W38813  37.402  27.528   4.691
79069W        W38814  21.571  23.986   0.746
79070W        W38815  11.283  44.396  14.338
79071W        W38816  30.632  33.985  11.987
79072W        W38817  30.978  29.953   1.380
79073W        W38818  44.755  30.152   2.213
79074W        W38819  34.991  34.501  13.546
79075W        W38820  27.670  12.126  13.797
79076W        W38821  13.805  40.903  11.925
79077W        W38822   2.464  37.377  14.836
79078W        W38823   0.783   2.793  13.999
79079W        W38824  27.472  33.117  14.846
79080W        W38825  18.113  17.193   0.942
79081W        W38826  11.130  42.896   1.736
79082W        W38827  16.245  25.551  12.402
79083W        W38828  34.053  42.978  11.072
79084W        W38829  36.974  25.973   2.743
79085W        W38830  30.558  23.692  11.054
79086W        W38831  26.497  40.513  12.954
79087W        W38832  44.779   6.686  13.897
79088W        W38833  23.046  13.625   3.297
79089W        W38834  27.625  20.138  11.540
79090W        W38835   4.254  28.516   5.264
79091W        W38836  30.580  13.714   1.713
79092W        W38837  44.463   7.879  11.427
79093W        W38838  25.663  28.527   3.344
79094W        W38839  33.934   6.824   3.240
79095W        W38840   8.277  42.372   4.764
79096W        W38841  44.383  23.619   2.243
79097W        W38842  43.924  34.519  11.017
79098W        W38843  31.014  31.118  13.459
79099W        W38844   7.826  17.146  12.492
79100W        W38845  29.540  14.218   0.963
79101W        W38846  13.268  18.557  13.056
79102W        W38847  42.792  12.753  13.834
79103W        W38848  32.999  38.512  12.477
79104W        W38849  37.370   3.890  14.767
79105W        W38850   8.860  40.313   5.195
79106W        W38851  13.800  14.705   2.218
79107W        W38852  35.468  13.797  12.086
79108W        W38853  15.301  37.512  14.766
79109W        W38854  32.899  17.712   4.702
79110W        W38855   0.847  38.939   9.966
79111W        W38856  21.518  41.865   1.318
79112W        W38857  13.315  43.459   2.417
79113W        W38858  10.160  12.143  10.624
79114W        W38859  27.574  13.130   0.382
79115W        W38860   9.364  15.150   1.727
79116W        W38861   6.861  44.979   0.909
79117W        W38862  41.021   9.221  14.346
79118W        W38863   7.270   7.251  11.404
79119W        W38864  35.477  22.252  13.315
79120W        W38865  23.597  16.787  10.459
79121W        W38866  42.314   7.666   3.630
79122W        W38867  17.654  40.343   2.266
79123W        W38868   2.267  10.355   1.252
79124W        W38869  13.752  40.502  11.971
79125W        W38870  39.939  22.726   4.214
79126W        W38871  12.278  24.633  10.940
79127W        W38872  43.787  39.316  11.443
79128W        W38873   2.471   1.418  10.954
79129W        W38874  26.181  24.092  12.827
79130W        W38875  11.290  12.136   4.766
79131W        W38876  43.909  13.695  13.439
79132W        W38877   1.854   1.770  12.918
79133W        W38878  41.924  11.705  10.573
79134W        W38879  16.116  13.154   4.699
79135W        W38880  21.132  22.545   5.148
79136W        W38881  28.570  42.404  14.944
79137W        W38882  14.678  34.424   2.737
79138W        W38883  28.009  41.418   3.719
79139W        W38884  27.948  12.179   0.402
79140W        W38885   8.172  26.532  14.368
79141W        W38886  17.136  39.008  13.868
79142W        W38887  16.299  39.014   1.238
79143W        W38888  16.316  32.016  10.960
79144W        W38889  15.747  31.565  13.827
79145W        W38890  41.919  35.079   1.851
79146W        W38891  40.936  25.536  13.914
79147W        W38892  29.088  29.617   2.283
79148W        W38893   3.353  12.148  14.828
79149W        W38894  18.763   8.723  10.587
79150W        W38895  10.294  34.465   1.255
79151W        W38896  11.231  37.002   3.646
79152W        W38897  33.615  22.182  12.502
79153W        W38898  19.754  41.449   3.185
79154W        W38899  39.024  13.278   2.286
79155W        W38900  32.422  26.473  12.557
79156W        W38901  41.044  10.327   2.858
79157W        W38902  15.252  36.592   3.383
79158W        W38903  42.473  38.409  14.990
79159W        W38904  14.299  21.053  11.069
79160W        W38905  29.493  30.038  14.384
79161W        W38906  33.976   0.963   3.748
79162W        W38907  22.735  41.515  10.510
79163W        W38908  23.552  28.516   0.417
79164W        W38909   3.417   5.757  10.464
79165W        W38910  24.228  34.033  12.834
79166W        W38911  26.031  28.969  10.591
79167W        W38912  35.902  24.715   1.247
79168W        W38913  23.999   8.302   2.753
79169W        W38914  24.646  33.564   5.212
79170W        W38915  34.007   7.728  12.926
79171W        W38916  23.232  11.809  13.860
79172W        W38917  20.663  11.216   4.783
79173W        W38918  21.208  12.741   3.307
79174W        W38919  27.572  22.725  10.599
79175W        W38920  30.081  20.219  14.282
79176W        W38921  29.004  16.132  12.025
79177W        W38922  35.913   8.328  14.473
79178W        W38923  25.210  13.264   5.309
79179W        W38924  28.930  20.589  14.336
79180W        W38925  33.092  15.166   0.770
79181W        W38926  41.346  20.256   1.445
79182W        W38927   0.982  23.586  13.441
79183W        W38928  41.808   2.908   0.953
79184W        W38929  22.532  11.688   4.321
79185W        W38930   2.291  28.520   2.247
79186W        W38931  25.645   3.809   1.910
79187W        W38932  39.975  23.214  14.844
79188W        W38933  20.059  24.515  13.370
79189W        W38934  17.661  35.555   0.830
79190W        W38935  26.677  38.049   0.387
79191W        W38936  26.596  42.936   2.411
79192W        W38937   2.883  19.151  12.041
79193W        W38938  22.615  39.880   2.665
79194W        W38939  12.232  33.058  13.906
79195W        W38940   9.219   0.920  14.777
79196W        W38941  20.233  31.124  13.939
79197W        W38942  38.535  36.942  10.593
79198W        W38943  11.629  36.546  14.018
79199W        W38944  27.679   3.344  14.439
79200W        W38945   5.194  22.654  13.362
79201W        W38946  33.035  15.742  13.056
79202W        W38947  15.199  24.568  11.436
79203W        W38948  12.331  42.521  12.474
79204W        W38949  18.103  41.801   3.826
79205W        W38950  13.350   3.440   0.464
79206W        W38951  33.106  31.418  12.431
79207W        W38952  37.847  14.679   0.848
79208W        W38953  18.563  17.594  12.045
79209W        W38954  13.141   2.248  13.526
79210W        W38955  22.532  17.707   3.833
79211W        W38956   4.749  24.229   4.252
79212W        W38957  19.544  34.431   1.714
79213W        W38958  32.091  15.639  11.959
79214W        W38959  11.798  24.712  12.958
79215W        W38960  29.167  17.258   4.637
79216W        W38961  38.447  28.020   2.787
79217W        W38962   5.287  39.971   2.671
79218W        W38963  12.682   6.307  10.405
79219W        W38964  29.593  10.285   9.995
79220W        W38965  23.021  17.067  14.446
79221W        W38966  18.767  21.185  13.425
79222W        W38967  44.873  19.708  12.886
79223W        W38968   0.282   1.739  11.554
79224W        W38969  35.382  36.579   3.326
79225W        W38970  31.083  40.412  11.384
79226W        W38971  10.241  33.495   4.751
79227W        W38972  38.842   6.350   4.768
79228W        W38973   4.821  10.376   3.776
79229W        W38974  16.736   2.449   4.690
79230W        W38975   3.435  39.811   0.852
79231W        W38976  14.194  23.506   1.370
79232W        W38977  32.625  20.118  13.950
79233W        W38978   5.390   3.834  10.903
79234W        W38979  39.005   3.450   1.894
79235W        W38980  44.881  42.028  11.069
79236W        W38981  27.163   3.242   0.792
79237W        W38982   8.271  38.550  14.002
79238W        W38983  10.859  21.689  14.805
79239W        W38984  33.565  32.425   4.268
79240W        W38985  16.755   0.761  11.376
79241W        W38986   5.858  29.582   0.844
79242W        W38987  28.609  36.373  12.430
79243W        W38988  36.395   0.820  11.571
79244W        W38989   2.379  19.282   0.767
79245W        W38990  32.955  44.993   1.837
79246W        W38991  15.141  27.081  11.437
79247W        W38992   6.273  17.756  14.398
79248W        W38993   9.311  23.035  11.608
79249W        W38994   1.313  15.808  14.351
79250W        W38995  27.971  29.153  10.129
79251W        W38996  10.152  15.196  11.449
79252W        W38997  44.969   5.251  13.817
79253W        W38998   1.845  43.910   0.484
79254W        W38999   8.832  36.998   0.816
79255W        W39000  36.556  36.995   3.641
79256W        W39001  44.943  31.956   4.189
79257W        W39002  10.211  43.903   2.236
79258W        W39003  44.940  35.036   1.764
79259W        W39004  24.130  42.012  10.897
79260W        W39005   0.355  27.529  10.570
79261W        W39006   1.400  29.134  12.558
79262W        W39007  26.498   3.275  10.997
79263W        W39008  21.757   6.846   0.369
79264W        W39009  10.773  16.316  11.914
79265W        W39010  35.062  28.587   0.361
79266W        W39011  16.725  36.412  13.944
79267W        W39012   5.853   7.250  12.942
79268W        W39013  34.888  10.167   2.819
79269W        W39014  25.477  31.554  11.476
79270W        W39015  11.154  20.212  12.423
79271W        W39016  38.044  28.547   2.710
79272W        W39017  16.143  27.576  11.056
79273W        W39018  23.034  17.627   3.821
79274W        W39019  41.306   1.856   4.172
79275W        W39020  32.941  10.706  13.821
79276W        W39021  28.132  15.777  13.051
79277W        W39022  40.390  34.491   3.255
79278W        W39023   0.890  34.561  11.074
79279W        W39024  26.653  39.341   4.268
79280W        W39025  21.726   5.696   2.760
79281W        W39026  35.940  40.412   5.202
79282W        W39027  40.983  23.506   4.836
79283W        W39028  12.126  43.771  13.543
79284W        W39029  12.816   8.801  11.451
79285W        W39030  26.604  14.820  13.525
79286W        W39031  22.539  18.064  14.030
79287W        W39032  13.324  31.423   4.311
79288W        W39033  11.705  18.737  11.899
79289W        W39034  17.725  18.633  10.548
79290W        W39035  17.074  28.969  12.962
79291W        W39036  18.240   2.361   2.698
79292W        W39037  41.376  25.027   1.306
79293W        W39038  22.015  43.964   3.770
79294W        W39039   6.712  34.885   0.756
79295W        W39040  43.862  18.210   5.800
79296W        W39041  42.300  15.584  12.509
79297W        W39042  32.615   4.876   2.850
79298W        W39043  32.074  24.050   4.727
79299W        W39044  17.081  39.872   2.856
79300W        W39045  19.545  32.583   3.314
79301W        W39046   2.839   9.863  11.429
79302W        W39047  37.353  14.284   2.745
79303W        W39048  19.096  27.468   3.201
79304W        W39049  22.575  12.348   3.746
79305W        W39050  23.227   2.864   9.989
79306W        W39051  11.245  36.395   2.263
79307W        W39052   3.271  11.668   4.825
79308W        W39053   6.334  25.678   3.326
79309W        W39054  34.614  42.316  14.437
79310W        W39055  35.442  32.543  11.605
79311W        W39056   6.830  21.118  10.503
79312W        W39057   2.259   2.786  13.816
79313W        W39058  12.222  38.066  14.904
79314W        W39059  21.019  18.223   0.920
79315W        W39060  27.564   6.715  10.059
79316W        W39061  40.450  35.551  11.930
79317W        W39062  21.749   9.847  13.899
79318W        W39063  30.598   3.461   5.750
79319W        W39064  16.727  44.291   4.689
79320W        W39065   2.369  23.499  14.495
79321W        W39066  43.326  28.935  11.957
79322W        W39067   0.412  17.572  10.985
79323W        W39068  26.669  15.810   4.234
79324W        W39069   4.809  30.436  13.464
79325W        W39070  35.109   1.319   3.366
79326W        W39071  28.053  17.086  11.868
79327W        W39072  37.925  19.679   0.441
79328W        W39073  22.008  41.532  13.833
79329W        W39074  37.019  25.151   1.334
79330W        W39075  15.802  10.752   4.304
79331W        W39076  11.295  19.276   2.391
79332W        W39077  22.727  17.777  12.482
79333W        W39078   1.969   2.965   3.162
79334W        W39079   4.348  37.002   2.338
79335W        W39080  14.314   9.793  14.511
79336W        W39081   9.212   6.330  14.485
79337W        W39082  19.176   9.380  10.425
79338W        W39083  15.199  24.630   1.282
79339W        W39084   0.810  31.627  11.098
79340W        W39085  23.717   5.363  10.943
79341W        W39086   1.972  33.447   0.801
79342W        W39087  13.693  11.663   3.355
79343W        W39088  27.513   2.800  13.951
79344W        W39089  16.650  19.643   1.318
79345W        W39090  18.066  14.217   0.471
79346W        W39091  23.060  22.084  13.532
79347W        W39092   8.169   3.905  13.822
79348W        W39093  32.924  24.599   2.825
79349W        W39094  23.091   4.938  10.951
79350W        W39095  19.195  26.605   0.921
79351W        W39096  26.197  42.286  12.999
79352W        W39097  30.047  23.044   4.691
79353W        W39098  33.874  11.295   0.481
79354W        W39099  40.513  19.208   4.683
79355W        W39100  27.063   3.904   3.263
79356W        W39101  13.347  32.603   1.907
79357W        W39102   8.690  27.559   2.661
79358W        W39103   6.226  16.076  13.451
79359W        W39104  15.787  14.813   3.263
79360W        W39105  29.135  42.865   9.979
79361W        W39106   4.220  42.945   1.798
79362W        W39107  14.714  27.186  11.947
79363W        W39108  27.579  25.660  14.461
79364W        W39109   6.419  43.393  10.599
79365W        W39110   5.863   9.774  12.982
79366W        W39111  33.062  14.273   4.137
79367W        W39112  28.485  42.458   4.143
79368W        W39113  36.000   9.656   0.877
79369W        W39114   9.711   6.729   3.310
79370W        W39115   1.870  22.221   2.387
79371W        W39116  12.193  23.053   1.790
79372W        W39117   8.781  36.067  13.340
79373W        W39118  26.025  28.478   3.352
79374W        W39119  19.731   3.747  10.609
79375W        W39120  28.983  36.970  12.849
79376W        W39121  39.385   7.171  10.568
79377W        W39122  22.745   9.740   0.830
79378W        W39123  28.575  33.380  14.383
79379W        W39124  17.727  12.249   1.344
79380W        W39125  29.561   0.268  11.506
79381W        W39126  29.972  41.857  12.886
79382W        W39127  41.842   9.181  11.100
79383W        W39128  17.255  18.646  11.063
79384W        W39129  15.788   1.784  12.916
79385W        W39130  18.083  21.132   3.638
79386W        W39131  38.345   2.245   0.776
79387W        W39132  22.029   6.381  11.607
79388W        W39133  24.677  34.571   5.231
79389W        W39134  10.849  10.377   4.701
79390W        W39135  15.154  10.682   0.947
79391W        W39136  43.953  27.474  13.519
79392W        W39137  24.047  15.307   2.700
79393W        W39138  20.733  44.766   9.511
79394W        W39139  32.623   7.673   5.704
79395W        W39140  11.247  41.831   3.817
79396W        W39141  25.075  10.842   1.714
79397W        W39142  17.136  26.515  13.426
79398W        W39143  30.980   1.352   4.698
79399W        W39144  25.098  23.187   2.744
79400W        W39145  16.076  22.670   0.467
79401W        W39146   8.193  38.544  10.471
79402W        W39147  30.939   1.375  10.902
79403W        W39148  19.553  28.957   1.254
79404W        W39149  26.094  36.374  13.920
79405W        W39150  27.063  14.635  14.920
79406W        W39151  33.511   6.678  11.870
79407W        W39152   9.841  14.230   1.820
79408W        W39153  43.995  26.057   2.288
79409W        W39154  42.786  27.963  12.872
79410W        W39155  38.552  14.306  13.014
79411W        W39156   6.183  16.705   1.368
79412W        W39157  42.988   0.297  14.776
79413W        W39158  43.952   6.258   1.412
79414W        W39159  26.693  28.499  10.015
79415W        W39160  34.574  41.527  13.031
79416W        W39161  10.824  42.023   3.694
79417W        W39162  33.953  12.117   2.415
79418W        W39163  20.175  17.703   2.190
79419W        W39164   9.181  17.775   0.843
79420W        W39165  39.922  17.685  10.457
79421W        W39166  29.654   8.740   4.835
79422W        W39167   3.334  11.784  13.878
79423W        W39168  11.828  44.888   3.702
79424W        W39169  33.465   9.269   2.835
79425W        W39170   8.732   0.314   1.913
79426W        W39171   3.828   7.885   1.887
79427W        W39172  17.126   6.823   1.250
79428W        W39173  37.549  25.565  13.892
79429W        W39174   7.782   2.354  13.950
79430W        W39175  10.749  25.670   2.304
79431W        W39176  11.780  25.972   0.480
79432W        W39177  13.308  23.609  14.851
79433W        W39178  38.392   0.473  11.885
79434W        W39179  39.017  39.374  11.940
79435W        W39180  16.217  32.929   3.368
79436W        W39181  34.479   1.256   2.203
79437W        W39182  12.224  29.605  13.993
79438W        W39183   4.706  20.657   3.834
79439W        W39184  36.931  29.613  10.432
79440W        W39185  30.603  21.095   0.813
79441W        W39186   6.714   6.900  11.070
79442W        W39187  39.321   8.685  10.606
79443W        W39188  42.444   7.697   2.319
79444W        W39189  13.602  44.830  11.923
79445W        W39190  39.454  37.416  11.876
79446W        W39191  42.024   1.747   1.265
79447W        W39192   3.346  12.198   4.185
79448W        W39193  38.863   9.753  12.956
79449W        W39194  40.830  17.607   2.406
79450W        W39195  37.982  27.478   2.370
79451W        W39196  38.053  35.942  10.607
79452W        W39197   3.898  30.025   2.233
79453W        W39198  25.202  11.150  14.852
79454W        W39199  36.543  41.901   4.819
79455W        W39200  14.306   7.243   2.739
79456W        W39201  32.907  41.350  13.898
79457W        W39202  21.194  25.999   0.324
79458W        W39203  21.070  19.633   1.344
79459W        W39204  39.866  40.304  13.038
79460W        W39205  33.607  44.822   1.427
79461W        W39206  17.206  19.186   1.250
79462W        W39207  21.600  39.004   4.287
79463W        W39208   6.379  40.433   3.319
79464W        W39209  20.561  36.349   0.951
79465W        W39210  10.140  28.632   3.851
79466W        W39211  39.425  31.495   1.355
79467W        W39212   9.682  28.066   0.906
79468W        W39213   5.701  43.011  10.907
79469W        W39214  29.493  37.432  14.392
79470W        W39215   7.172  36.411  11.074
79471W        W39216  37.354  29.570  14.461
79472W        W39217   7.666  27.061  14.358
79473W        W39218  38.563   3.900   1.884
79474W        W39219  27.970  12.839   3.777
79475W        W39220  37.345  11.153  13.838
79476W        W39221  17.250  17.711   3.649
79477W        W39222  21.580  20.630   1.295
79478W        W39223  27.660   5.700  12.544
79479W        W39224  40.803  33.045   2.693
79480W        W39225  43.854  31.086   0.888
79481W        W39226  38.381  41.958  14.415
79482W        W39227  34.401  28.637   0.795
79483W        W39228  19.702   9.178   3.759
79484W        W39229   3.765  28.508  14.325
79485W        W39230   1.873  12.240  14.465
79486W        W39231  44.794   9.219   1.426
79487W        W39232  20.234  32.561   3.686
79488W        W39233  16.571  14.630   1.315
79489W        W39234  28.026  11.191  10.915
79490W        W39235  11.853   4.242  12.908
79491W        W39236  17.238  35.883   4.768
79492W        W39237   8.375   7.258  13.517
79493W        W39238  36.436  25.665  12.871
79494W        W39239  36.543  37.979  10.930
79495W        W39240   8.248  10.807  12.507
79496W        W39241   1.440  16.126  14.283
79497W        W39242   2.352  20.536  13.857
79498W        W39243  33.444  16.810   3.349
79499W        W39244   8.173  38.447   0.419
79500W        W39245  28.104  14.616   3.779
79501W        W39246  15.162  41.833   0.726
79502W        W39247  37.913  33.969  12.502
79503W        W39248  25.008   3.906   2.679
79504W        W39249  42.948  14.658   4.235
79505W        W39250  30.504  19.630  11.547
79506W        W39251   4.322   5.731   4.781
79507W        W39252   4.907   1.785   1.428
79508W        W39253  43.937  41.935   3.228
79509W        W39254   7.241  33.977   3.785
79510W        W39255  27.522   4.819   2.368
79511W        W39256  30.630   7.882  14.363
79512W        W39257  26.580  11.634   3.320
79513W        W39258  33.553  39.910  11.485
79514W        W39259  35.939  30.130   1.372
79515W        W39260   6.415  28.677   1.405
79516W        W39261  41.853  19.186  12.876
79517W        W39262  17.129  23.640   9.946
79518W        W39263  34.071  41.996   0.378
79519W        W39264  32.550  38.916  12.835
79520W        W39265   9.347  15.105   3.664
79521W        W39266  36.544   5.748  12.854
79522W        W39267   8.868  31.987   3.225
79523W        W39268  35.045  35.390   4.771
79524W        W39269   1.803   3.899  13.958
79525W        W39270  21.171  11.184  11.549
79526W        W39271   8.862  33.542   4.701
79527W        W39272  15.297  16.695   1.738
79528W        W39273  30.524  25.081   4.168
79529W        W39274  15.602  32.064   3.217
79530W        W39275  39.522   3.925   3.695
79531W        W39276   5.842  21.686  13.478
79532W        W39277   3.921  25.039  13.975
79533W        W39278   7.223  38.933  14.882
79534W        W39279  16.730  21.257   1.711
79535W        W39280  40.384  16.113   3.331
79536W        W39281  13.796   3.254  14.997
79537W        W39282  13.631  30.593  12.910
79538W        W39283  33.459   4.747  14.895
79539W        W39284  13.823  16.661   2.709
79540W        W39285  23.652  13.228   4.274
79541W        W39286  30.563  26.067   0.456
79542W        W39287  25.533  36.439   0.865
79543W        W39288  27.556  19.180  11.453
79544W        W39289   5.360   0.938  11.576
79545W        W39290  43.483  42.394  11.508
79546W        W39291   7.676  39.929  14.503
79547W        W39292  30.437   3.883  13.417
79548W        W39293  13.695  43.462   3.738
79549W        W39294  14.697  24.070  12.850
79550W        W39295  30.515   9.227   4.788
79551W        W39296  20.547  18.222  11.428
79552W        W39297  10.295   5.230  13.530
79553W        W39298  35.037  33.444   2.418
79554W        W39299   7.903   6.893   2.678
79555W        W39300  31.551  21.644  12.553
79556W        W39301  24.503  44.332  10.125
79557W        W39302   5.349  36.444   3.711
79558W        W39303  41.038  38.499   3.200
79559W        W39304  24.171  41.399   1.272
79560W        W39305  43.957  20.070   4.284
79561W        W39306   0.354  35.417   5.124
79562W        W39307   4.714  21.212   2.844
79563W        W39308  27.538  21.535  14.298
79564W        W39309  17.252  12.613   1.427
79565W        W39310  33.959  21.029  14.963
79566W        W39311  15.301  32.933   4.654
79567W        W39312   6.297  21.151   1.297
79568W        W39313  40.872  43.772   3.249
79569W        W39314  31.449  33.592   2.270
79570W        W39315  32.594  39.318  14.381
79571W        W39316  44.478  19.208  14.822
79572W        W39317  41.334  28.098   4.292
79573W        W39318  29.948  18.158  12.495
79574W        W39319  13.714   2.929  12.515
79575W        W39320  33.888  38.367   2.802
79576W        W39321  28.542  32.610   2.901
79577W        W39322  21.217  33.972  13.869
79578W        W39323   3.923  33.945  14.365
79579W        W39324  28.436  22.563  11.063
79580W        W39325  12.226  18.179   3.744
79581W        W39326  33.566   2.923  10.616
79582W        W39327  19.058  24.517   1.883
79583W        W39328  39.945   8.191  14.766
79584W        W39329   0.401  43.374  13.909
79585W        W39330  10.297  12.612  11.926
79586W        W39331  24.704   3.909   2.346
79587W        W39332  20.688  36.446   2.710
79588W        W39333   1.835  43.803   1.823
79589W        W39334  11.743  30.598  12.347
79590W        W39335  28.992   5.218   3.821
79591W        W39336  22.192  25.962   2.877
79592W        W39337  44.304  25.665   0.302
79593W        W39338   8.787   5.928   0.244
79594W        W39339   5.400  23.554  12.398
79595W        W39340  11.223  22.058   1.767
79596W        W39341  43.992  30.036  12.540
79597W        W39342  12.639  24.988  12.867
79598W        W39343   6.803  17.679   2.743
79599W        W39344   4.700   9.703  11.410
79600W        W39345  13.709  21.033  12.995
79601W        W39346  16.790   9.314   1.424
79602W        W39347   4.225  38.016  12.048
79603W        W39348  15.142  28.151  12.346
79604W        W39349  17.718  13.287  12.425
79605W        W39350  16.238  20.110  14.412
79606W        W39351  28.436  38.426   3.680
79607W        W39352   6.272  23.019   0.928
79608W        W39353  36.347  34.394  11.579
79609W        W39354  20.579  33.438  10.918
79610W        W39355  10.836  36.953  13.310
79611W        W39356  40.814  32.540   0.941
79612W        W39357  44.973  17.089   4.177
79613W        W39358  40.381   7.256  12.023
79614W        W39359  16.747   7.822  10.596
79615W        W39360  20.721   5.777   4.775
79616W        W39361  12.199  25.138   3.171
79617W        W39362  13.156  30.590  14.894
79618W        W39363  36.061   6.282   1.252
79619W        W39364  28.140   8.299   0.812
79620W        W39365  33.907  30.580   9.941
79621W        W39366  34.066  15.235  14.501
79622W        W39367  27.056  23.000   0.386
79623W        W39368  42.453   8.210   1.741
79624W        W39369  15.579  21.754   3.713
79625W        W39370  33.944  29.516  12.033
79626W        W39371  42.976   9.844  12.074
79627W        W39372  31.442   8.788  13.456
79628W        W39373   6.825  30.015  12.521
79629W        W39374  11.781  26.576  10.927
79630W        W39375   0.416   5.278  13.412
79631W        W39376  16.130  24.997  12.534
79632W        W39377  20.681   5.426   4.798
79633W        W39378   5.830  41.795  13.815
79634W        W39379  35.595  16.133  14.961
79635W        W39380  34.448  38.938   0.371
79636W        W39381  44.761  35.359  12.396
79637W        W39382  44.432  34.942   0.447
79638W        W39383   6.745  29.500   0.360
79639W        W39384   8.671  40.350  14.995
79640W        W39385   5.293   4.929  14.502
79641W        W39386  22.104  17.270  13.317
79642W        W39387  29.997  15.292  12.000
79643W        W39388  36.043   4.837   0.399
79644W        W39389  11.135  42.476   1.929
79645W        W39390  36.517   4.849  12.011
79646W        W39391  16.693  19.212  13.833
79647W        W39392   5.241  33.400  14.761
79648W        W39393  35.523  39.925  13.379
79649W        W39394  37.984  28.566  13.842
79650W        W39395  17.675   6.769  12.048
79651W        W39396  42.002  26.590   3.304
79652W        W39397  39.863  30.628  11.453
79653W        W39398  16.650   1.343   2.288
79654W        W39399   9.176  36.361  10.993
79655W        W39400  31.459  15.101  12.071
79656W        W39401  27.632   6.758   1.349
79657W        W39402  34.523  15.108   3.793
79658W        W39403  10.172  37.355  13.004
79659W        W39404  15.236   4.445  12.427
79660W        W39405   2.347  22.513   1.372
79661W        W39406   4.215  39.864  12.414
79662W        W39407  32.005  21.140  14.029
79663W        W39408  34.933  22.668   1.264
79664W        W39409  25.982  37.841   0.475
79665W        W39410  28.501   9.712  13.022
79666W        W39411  27.089   6.384  10.449
79667W        W39412  44.005  40.307   4.286
79668W        W39413  21.153  19.198   2.315
79669W        W39414  14.280  40.452   3.864
79670W        W39415  36.524   2.393   2.789
79671W        W39416  29.488  31.146   1.292
79672W        W39417  39.045  30.015   4.637
79673W        W39418  43.290  25.608   0.269
79674W        W39419  35.403  12.737   0.334
79675W        W39420  24.047  20.067   4.763
79676W        W39421   6.330  16.719  13.391
79677W        W39422  26.094   3.760   3.689
79678W        W39423   7.799   3.428  14.942
79679W        W39424   4.261  44.294  14.954
79680W        W39425  33.585  18.192  13.802
79681W        W39426   5.204  18.139   1.216
79682W        W39427  33.587  29.603  14.419
79683W        W39428  28.504  41.811   3.298
79684W        W39429  25.145   4.444   3.344
79685W        W39430  39.368   7.855  14.362
79686W        W39431  11.343  31.037  12.437
79687W        W39432  25.059  32.513  14.870
79688W        W39433  31.441  26.156  13.974
79689W        W39434  32.962  24.575   0.955
79690W        W39435  13.790  32.453   0.786
79691W        W39436  31.110  11.135   1.806
79692W        W39437  11.683  16.700  11.940
79693W        W39438  11.828  22.734  11.911
79694W        W39439   9.239  36.566   2.793
79695W        W39440  23.201  29.986   2.870
79696W        W39441  30.917  39.838  14.276
79697W        W39442   8.379  27.621  10.989
79698W        W39443  29.162  38.901   2.853
79699W        W39444  25.563  23.057  12.008
79700W        W39445  37.467  37.835  12.012
79701W        W39446  31.436  13.295   1.880
79702W        W39447  18.135   9.267   4.336
79703W        W39448   8.167  11.834  11.871
79704W        W39449  15.755  44.426  13.467
79705W        W39450   9.288  28.092  11.491
79706W        W39451   5.903  28.558  14.012
79707W        W39452   1.370  32.403  13.940
79708W        W39453   8.327  43.956  13.858
79709W        W39454  29.649  39.970   4.795
79710W        W39455   2.944   4.415  10.489
79711W        W39456  11.362  31.515   2.231
79712W        W39457   6.918  12.678  12.886
79713W        W39458  39.492  13.670   3.218
79714W        W39459  37.427  17.572   3.778
79715W        W39460  37.491  20.230   2.818
79716W        W39461  18.595  31.064  11.124
79717W        W39462  24.488  30.079   0.964
79718W        W39463  19.671  41.443   2.309
79719W        W39464  36.081  20.699  12.066
79720W        W39465  34.513  17.201   1.857
79721W        W39466   4.860  20.273   2.314
79722W        W39467  24.200   3.332  14.910
79723W        W39468  21.659  18.180   4.291
79724W        W39469  43.491  42.857   4.614
79725W        W39470   6.370  34.533  13.320
79726W        W39471   6.850  30.533   0.293
79727W        W39472  31.412  34.500  13.025
79728W        W39473   5.207   2.290   3.850
79729W        W39474  21.059   0.338  13.500
79730W        W39475  42.886   7.282  13.795
79731W        W39476  13.688  25.027   2.263
79732W        W39477  23.037  39.012   0.861
79733W        W39478   2.879   1.807   1.404
79734W        W39479  14.801   9.257  14.773
79735W        W39480  22.734  44.493   2.793
79736W        W39481  10.342   0.285   4.769
79737W        W39482  43.490   0.905  12.452
79738W        W39483  28.622  15.629  10.928
79739W        W39484  43.947   9.341   3.307
79740W        W39485  27.043  24.177  11.393
79741W        W39486  23.029  18.659  11.440
79742W        W39487  13.682   3.763   0.829
79743W        W39488   4.364  37.946   2.191
79744W        W39489  16.619  25.545  14.422
79745W        W39490  38.933  27.195  13.830
79746W        W39491  38.897  39.447   1.313
79747W        W39492  43.441  37.057  14.341
79748W        W39493  10.360   2.238   2.748
79749W        W39494  23.200  11.663  11.449
79750W        W39495  21.191  28.677  12.838
79751W        W39496  20.715  25.975   4.660
79752W        W39497  25.477  16.193   0.865
79753W        W39498  10.166   7.343   3.701
79754W        W39499  25.522  28.050   0.369
79755W        W39500  14.207  29.942  12.043
79756W        W39501  34.579  41.027  12.372
79757W        W39502  42.490   4.706  12.515
79758W        W39503  36.394  20.089   0.962
79759W        W39504  38.847  24.569   0.751
79760W        W39505  29.506  27.631   3.807
79761W        W39506  39.907  14.182   1.784
79762W        W39507   9.321  35.928   2.739
79763W        W39508  14.761   6.790  11.030
79764W        W39509   9.726  13.744   3.733
79765W        W39510  28.100   7.331  13.009
79766W        W39511  17.235   0.956   0.753
79767W        W39512  11.254   7.776  10.491
79768W        W39513  33.047   0.842  11.553
79769W        W39514  20.683  43.959  13.463
79770W        W39515  28.623  33.621  11.917
79771W        W39516   2.777   8.294   1.715
79772W        W39517   1.769  40.018  13.433
79773W        W39518   6.278   4.907   0.335
79774W        W39519  17.192  35.423  12.068
79775W        W39520  32.021  17.102  13.042
79776W        W39521  16.749  20.163   1.384
79777W        W39522  17.167  19.058   3.361
79778W        W39523   1.818  34.465   3.172
79779W        W39524  29.516  43.001   5.218
79780W        W39525  42.839  25.170   0.390
79781W        W39526  43.919  22.605   3.230
79782W        W39527  13.621  24.542  13.547
79783W        W39528   1.870  21.656   0.370
79784W        W39529  26.479  36.038  11.392
79785W        W39530  44.405  36.917   5.740
79786W        W39531  20.692  14.221  13.349
79787W        W39532  28.976  19.693   4.175
79788W        W39533  42.306  14.642  11.582
79789W        W39534  19.164  26.046  11.449
79790W        W39535  40.422  40.893  13.998
79791W        W39536  11.185  13.760  11.070
79792W        W39537  27.189  25.181  13.912
79793W        W39538  13.629  19.587   4.680
79794W        W39539   9.183  10.742   0.774
79795W        W39540  43.864  16.673  14.933
79796W        W39541   1.437   0.384  12.038
79797W        W39542  35.400   2.864  10.510
79798W        W39543  21.165  41.985   3.148
79799W        W39544  26.663  41.886   1.438
79800W        W39545  28.614  22.642   3.266
79801W        W39546  21.047  12.738  11.974
79802W        W39547  29.622  43.450   4.626
79803W        W39548  10.156  25.065   1.277
79804W        W39549   0.374  34.398  11.945
79805W        W39550  29.554  35.500  12.901
79806W        W39551   2.854  25.507   1.916
79807W        W39552  44.926  38.549   3.245
79808W        W39553  27.598  25.996   3.710
79809W        W39554  28.022  20.567  13.968
79810W        W39555   7.322  29.598   2.314
79811W        W39556  20.695   7.881   1.442
79812W        W39557   9.177  37.871   0.771
79813W        W39558  15.163  42.292   4.158
79814W        W39559  39.985  19.709   2.777
79815W        W39560  19.149  26.082  14.820
79816W        W39561   4.907  14.620   3.730
79817W        W39562  28.943   1.456   0.835
79818W        W39563   6.693  27.628   3.775
79819W        W39564  13.599  40.917   3.349
79820W        W39565  18.148  14.770  11.925
79821W        W39566  44.763   7.235   1.872
79822W        W39567  27.599   8.335   4.331
79823W        W39568   1.286  33.050   0.908
79824W        W39569  21.145   2.841   1.721
79825W        W39570  40.508  38.920  10.949
79826W        W39571  35.895  43.952   0.867
79827W        W39572  27.058  41.337   1.372
79828W        W39573  13.237  26.603   1.791
79829W        W39574  22.204  12.319   3.814
79830W        W39575  41.799  21.618  12.853
79831W        W39576  17.178  11.848   1.935
79832W        W39577  40.481  28.991   3.377
79833W        W39578  26.986  16.239  13.423
79834W        W39579  38.849  20.646  11.602
79835W        W39580   0.861   8.393   1.888
79836W        W39581   9.286  27.146  14.937
79837W        W39582  29.453   2.294   1.218
79838W        W39583   2.920   0.790   0.867
79839W        W39584  41.513  29.425  12.363
79840W        W39585  43.276  23.613   4.664
79841W        W39586  14.773  21.045  13.994
79842W        W39587  12.254  18.145  14.007
79843W        W39588   8.868  24.198  14.312
79844W        W39589  22.563  36.449   4.598
79845W        W39590  33.106  12.802   0.932
79846W        W39591  22.010  28.154   3.708
79847W        W39592  35.462  30.010  14.360
79848W        W39593   1.469  43.798   2.314
79849W        W39594  34.902  15.817  11.461
79850W        W39595  43.962  25.123   1.255
79851W        W39596   8.193  43.805   4.335
79852W        W39597   7.819  15.171  11.564
79853W        W39598  35.582  40.404  11.877
79854W        W39599  40.309  24.987   4.116
79855W        W39600  36.920  36.886  13.437
79856W        W39601   1.475  15.612   0.444
79857W        W39602  43.982  43.304   2.313
79858W        W39603  26.030  15.087   1.870
79859W        W39604  32.407  14.608  13.548
79860W        W39605   7.409  42.829  11.432
79861W        W39606  11.310  26.691   3.790
79862W        W39607   1.389  35.593   5.215
79863W        W39608  34.019  41.987  13.435
79864W        W39609  11.310  16.206  13.529
79865W        W39610  38.935  31.490   1.293
79866W        W39611  17.695  24.697   0.727
79867W        W39612   4.904  34.907  14.483
79868W        W39613  31.994   8.763   1.265
79869W        W39614  37.925  36.588  12.088
79870W        W39615  11.672  43.793   1.233
79871W        W39616   1.972  36.888   2.751
79872W        W39617  16.730  31.499   1.289
79873W        W39618  18.687  40.321   0.364
79874W        W39619   2.251  40.997  13.974
79875W        W39620   2.344  41.840   0.731
79876W        W39621  26.543  23.550  11.936
79877W        W39622  25.190   5.269  10.912
79878W        W39623   3.761  24.714   3.265
79879W        W39624  13.200  36.919   1.756
79880W        W39625  20.077  26.024  11.917
79881W        W39626  22.018   6.810  10.925
79882W        W39627   5.732  27.577  10.894
79883W        W39628  10.770  27.973   2.388
79884W        W39629  19.060   1.464   1.862
79885W        W39630   4.444   2.847  11.076
79886W        W39631  24.152  12.341   0.959
79887W        W39632   5.311  35.604   0.966
79888W        W39633  22.534  14.237   2.708
79889W        W39634  23.535  17.713   2.696
79890W        W39635  36.519   3.262  12.042
79891W        W39636   8.678  41.995   1.234
79892W        W39637  20.660  30.508   4.275
79893W        W39638  28.502   6.285  11.076
79894W        W39639  17.591  31.480  11.425
79895W        W39640   5.743  16.112  12.964
79896W        W39641   6.330   7.360  12.353
79897W        W39642  41.998  19.543   5.294
79898W        W39643  34.478   8.706  14.492
79899W        W39644  41.856  41.943   0.340
79900W        W39645   1.450   2.744  10.548
79901W        W39646  44.969  16.239  14.295
79902W        W39647  44.833  40.537  12.517
79903W        W39648  41.978   8.764  10.918
79904W        W39649  39.949   1.358   3.196
79905W        W39650   0.814  40.393   3.146
79906W        W39651  21.543   3.371  11.450
79907W        W39652  27.181  33.512   0.748
79908W        W39653  18.107  22.202  14.803
79909W        W39654  39.970  19.176   0.739
79910W        W39655  31.484   4.929   4.719
79911W        W39656   3.321  22.140  11.016
79912W        W39657  16.211  29.462   2.400
79913W        W39658  13.239  24.020   4.176
79914W        W39659  43.842  43.273  14.338
79915W        W39660  39.557  41.813  13.794
79916W        W39661   2.271  12.201   4.129
79917W        W39662  33.528  13.262   3.335
79918W        W39663   8.353  22.668   1.311
79919W        W39664  17.734   9.328   2.300
79920W        W39665   9.322  34.557  10.129
79921W        W39666   4.896  43.399  14.888
79922W        W39667  36.040  41.932   1.835
79923W        W39668  28.613  31.581   2.241
79924W        W39669  38.877  42.835   0.343
79925W        W39670  37.390  25.597  14.317
79926W        W39671  37.580  11.249   4.784
79927W        W39672  38.533   8.749   3.200
79928W        W39673   3.934  23.992  12.836
79929W        W39674  14.107  43.291   0.784
79930W        W39675  16.709  22.656  10.477
79931W        W39676  14.301  17.658  14.934
79932W        W39677  12.307  44.301  13.868
79933W        W39678  39.386  11.150  10.974
79934W        W39679  39.472  22.206  14.806
79935W        W39680  34.463  14.643  14.375
79936W        W39681  20.196  35.875  12.455
79937W        W39682  18.134  14.305   1.876
79938W        W39683   4.795   8.675  11.906
79939W        W39684  27.072  10.153  10.593
79940W        W39685  22.663   6.188   3.643
79941W        W39686  33.895  10.281   0.902
79942W        W39687  29.538  34.488  11.372
79943W        W39688  24.535   7.768   4.202
79944W        W39689  31.556  27.517  14.463
79945W        W39690  34.959  44.997  12.896
79946W        W39691  10.262  22.574   3.764
79947W        W39692   7.751  14.773  13.814
79948W        W39693  21.171   5.274  14.850
79949W        W39694  17.645   5.708   0.308
79950W        W39695  40.019  15.103  12.903
79951W        W39696   1.806  10.688  12.573
79952W        W39697   1.278  33.999   3.344
79953W        W39698  31.950  16.110  14.383
79954W        W39699   4.388  38.465  13.964
79955W        W39700  24.080   5.208  14.371
79956W        W39701   0.745   8.188  10.518
79957W        W39702  17.766  30.479   0.447
79958W        W39703  17.782  26.562  12.982
79959W        W39704  44.435   2.927   4.229
79960W        W39705  44.401  42.392   4.128
79961W        W39706   8.788  12.820  11.870
79962W        W39707  35.928  25.693  14.834
79963W        W39708  23.695  23.654  12.488
79964W        W39709   2.464  36.486  11.546
79965W        W39710   9.711  40.828  11.513
79966W        W39711  12.736  34.099   4.795
79967W        W39712   7.779  37.834  12.904
79968W        W39713  43.458  20.237  13.969
79969W        W39714  32.970   7.822  12.492
79970W        W39715  21.161  24.999   4.210
79971W        W39716  32.502  30.472   2.273
79972W        W39717  36.462  41.885   2.810
79973W        W39718  31.509  40.052  14.502
79974W        W39719  38.828   5.703   2.842
79975W        W39720  44.842  44.769   2.237
79976W        W39721  15.303  17.734  10.511
79977W        W39722   6.738  42.511  12.558
79978W        W39723  43.343  21.254   9.980
79979W        W39724   8.262  22.547   3.707
79980W        W39725   5.808  14.755   4.216
79981W        W39726  41.428  28.180   2.663
79982W        W39727  42.865   9.319  12.947
79983W        W39728  14.176   5.810   4.125
79984W        W39729  38.009  29.166  10.575
79985W        W39730   4.238   5.388  13.996
79986W        W39731  29.950  32.530  14.832
79987W        W39732  21.653  13.799  12.344
79988W        W39733  32.885  10.650   3.349
79989W        W39734  39.968  22.188  11.875
79990W        W39735   2.328  42.357  13.938
79991W        W39736  36.527  32.097   3.751
79992W        W39737  14.139  43.960  10.912
79993W        W39738  39.466  26.961   0.830
79994W        W39739  27.085  39.328  11.994
79995W        W39740   2.310  43.870   4.640
79996W        W39741  21.021  23.545  13.023
79997W        W39742  32.019  41.924  11.401
79998W        W39743  40.328  17.172   1.785
79999W        W39744  25.207  14.819   1.226
80000W        W39745   7.842   9.842   4.640
80001W        W39746   2.387  41.900  13.825
80002W        W39747  19.155  39.556   3.335
80003W        W39748  25.600   4.255   1.343
80004W        W39749  33.459  22.535  12.452
80005W        W39750  17.695  33.434  10.602
80006W        W39751  17.721   2.893  11.541
80007W        W39752  25.673  15.721   0.254
80008W        W39753  16.601  22.207   3.179
80009W        W39754  28.158  19.622   4.122
80010W        W39755  26.665  42.869   3.229
80011W        W39756   9.235  13.278   0.919
80012W        W39757  43.315  40.536   4.207
80013W        W39758  39.881   2.836   4.180
80014W        W39759  36.571  12.215  13.794
80015W        W39760   4.433  20.201  11.382
80016W        W39761  32.475  14.792  12.477
80017W        W39762  18.685  33.590   3.292
80018W        W39763  31.531  40.825  10.895
80019W        W39764  33.498  40.837  11.590
80020W        W39765  37.896  13.711  12.417
80021W        W39766   9.732  37.071   4.126
80022W        W39767  20.212   6.848  14.844
80023W        W39768  35.562  28.466   3.718
80024W        W39769  23.682  10.138   2.322
80025W        W39770  37.843  27.465  13.837
80026W        W39771  16.194   9.706  14.858
80027W        W39772  28.531   9.390   3.219
80028W        W39773  40.925  27.472   4.706
80029W        W39774  37.909  16.165  11.398
80030W        W39775   7.229  11.335  13.352
80031W        W39776  13.146   9.815  13.795
80032W        W39777  14.814  26.622   3.786
80033W        W39778   8.164  17.622  13.055
80034W        W39779  33.443  35.939  10.927
80035W        W39780  35.872  43.834   1.450
80036W        W39781  38.933  18.624  11.378
80037W        W39782  15.740  28.568  11.863
80038W        W39783  24.037  12.697   2.903
80039W        W39784  15.726  27.532   4.829
80040W        W39785  20.680   0.471  10.112
80041W        W39786  34.086  14.223  11.535
80042W        W39787   8.372  39.065   4.213
80043W        W39788  38.450  30.923   3.267
80044W        W39789  13.141  11.314   1.868
80045W        W39790  41.037  44.787  14.470
80046W        W39791  21.121  30.152  11.536
80047W        W39792  43.912  32.987   4.140
80048W        W39793  34.974  37.570  10.156
80049W        W39794  31.950  38.465   3.329
80050W        W39795   9.840   7.403   1.700
80051W        W39796  14.631  39.842   0.339
80052W        W39797  27.040  32.918  13.536
80053W        W39798  11.769  22.238   2.189
80054W        W39799  24.586  40.872  14.489
80055W        W39800  16.259  42.420  10.585
80056W        W39801  39.896  24.209   2.323
80057W        W39802  32.576  27.685   1.431
80058W        W39803   6.394  11.753   2.704
80059W        W39804   4.297  42.316   1.306
80060W        W39805   1.972  13.749   3.784
80061W        W39806   1.970  26.166  12.897
80062W        W39807  16.600  41.399  13.410
80063W        W39808  43.384   3.437   0.406
80064W        W39809  15.580  10.191   3.680
80065W        W39810  30.499   3.305  13.009
80066W        W39811  28.019  17.708   4.341
80067W        W39812  41.925  29.002  14.349
80068W        W39813  42.029  15.708  11.955
80069W        W39814  30.114  42.511  10.892
80070W        W39815  13.664  11.235  13.409
80071W        W39816  31.622  12.824   4.787
80072W        W39817  28.448  43.416  13.513
80073W        W39818  14.234  22.701   1.284
80074W        W39819  38.958  16.637   4.234
80075W        W39820  18.153  30.106  12.357
80076W        W39821   1.942  41.940  12.960
80077W        W39822  35.909  43.326   4.213
80078W        W39823  11.800  10.659  11.889
80079W        W39824  19.561   7.263  13.931
80080W        W39825  32.122  38.996   2.192
80081W        W39826  12.186  37.485   0.406
80082W        W39827  27.586  36.864   2.728
80083W        W39828   1.750  23.549   1.795
80084W        W39829  28.003  14.650  12.490
80085W        W39830  18.250  39.319  11.583
80086W        W39831  29.497  25.526   1.797
80087W        W39832  43.869  19.613  10.020
80088W        W39833  31.096   9.312   5.566
80089W        W39834  25.184  30.528   0.785
80090W        W39835  15.605  13.180   2.897
80091W        W39836  30.435   2.732   3.242
80092W        W39837  36.362   7.867   4.280
80093W        W39838  37.336  21.247   2.226
80094W        W39839  19.191  19.100   3.312
80095W        W39840  30.034  15.244  10.615
80096W        W39841  11.672  33.612  13.401
80097W        W39842  43.498  37.567  13.513
80098W        W39843  38.032   3.780  11.096
80099W        W39844   7.240  33.100   3.775
80100W        W39845  22.192  44.799   5.134
80101W        W39846  32.103  34.098   4.830
80102W        W39847   8.372  31.097  14.311
80103W        W39848  20.639  41.002  14.905
80104W        W39849  29.446   5.327  12.341
80105W        W39850   9.254   1.765   4.349
80106W        W39851  35.945   3.344  14.856
80107W        W39852   6.915  37.561  12.938
80108W        W39853  18.656  23.632   2.768
80109W        W39854  29.008   5.746  12.473
80110W        W39855  36.482  41.472   1.799
80111W        W39856  36.369  17.073  14.390
80112W        W39857  20.100  15.307  14.355
80113W        W39858  38.533  35.574   3.239
80114W        W39859  19.687  23.202  12.920
80115W        W39860  11.850  19.098  14.482
80116W        W39861   8.169  27.648   0.896
80117W        W39862  19.232  40.960  10.643
80118W        W39863  37.959  14.254  13.509
80119W        W39864  18.225  18.668   2.747
80120W        W39865   8.318   0.266   4.135
80121W        W39866  35.920  35.400  12.061
80122W        W39867   7.320  18.238  10.919
80123W        W39868   5.701   6.207  11.860
80124W        W39869  40.033  30.062  12.540
80125W        W39870  38.360   2.725   3.204
80126W        W39871  24.194  32.008  11.028
80127W        W39872  25.076   9.649  13.045
80128W        W39873  18.197   5.432   3.853
80129W        W39874  27.173   5.896   2.863
80130W        W39875  42.385  27.966  10.955
80131W        W39876  29.617  35.986  13.308
80132W        W39877  40.493  28.616  11.979
80133W        W39878   2.455   4.407  11.462
80134W        W39879  14.669  18.225   2.748
80135W        W39880  12.224  25.028  13.420
80136W        W39881   8.171   8.797  10.493
80137W        W39882  34.061  24.526   1.440
80138W        W39883  34.481  43.945  14.416
80139W        W39884  17.173  22.556   1.256
80140W        W39885   5.703  11.293  10.579
80141W        W39886  34.484  14.678  12.834
80142W        W39887  15.709   9.256   4.170
80143W        W39888  34.931  17.093  13.429
80144W        W39889  14.221  30.529   0.320
80145W        W39890  44.878   9.336   1.852
80146W        W39891   3.383  42.451   3.748
80147W        W39892  11.267  18.754   2.280
80148W        W39893  43.022  13.617   4.775
80149W        W39894   0.314  29.941  14.028
80150W        W39895  36.004  25.188   1.787
80151W        W39896  26.017  24.171   0.387
80152W        W39897  44.899  15.126  12.085
80153W        W39898  29.950  17.744   0.930
80154W        W39899  39.059  35.545  12.434
80155W        W39900  27.036   2.943   3.853
80156W        W39901  14.785  16.128   3.358
80157W        W39902   5.748   5.797   2.702
80158W        W39903   7.290  15.239  13.975
80159W        W39904  21.018  37.860  14.837
80160W        W39905   4.833  30.041  14.412
80161W        W39906  14.096  36.409   4.604
80162W        W39907  20.736  40.355  14.461
80163W        W39908   4.339   6.899  10.914
80164W        W39909  21.631   1.323   0.940
80165W        W39910   3.731  14.296   3.183
80166W        W39911   0.743   0.400  14.402
80167W        W39912  29.156   8.229  13.039
80168W        W39913   4.882   3.921   0.479
80169W        W39914  12.308   8.813   5.211
80170W        W39915  18.561  38.372  12.838
80171W        W39916  38.445  43.427  11.886
80172W        W39917  20.068  22.674  14.418
80173W        W39918  35.499   8.658   4.807
80174W        W39919  38.509  25.011  11.950
80175W        W39920  18.278   6.748   2.713
80176W        W39921   8.811  43.497   2.377
80177W        W39922  32.571  29.045   0.413
80178W        W39923  15.640  30.465   0.940
80179W        W39924   9.765  31.454  13.814
80180W        W39925   3.939  21.729  14.952
80181W        W39926   8.374  39.385   4.786
80182W        W39927  31.505  14.690   4.618
80183W        W39928  41.366  21.677  13.026
80184W        W39929   7.728  42.903  12.007
80185W        W39930  30.951  40.909  11.119
80186W        W39931   1.377  33.918   2.828
80187W        W39932   9.233  35.441   0.959
80188W        W39933  11.127   2.311  13.935
80189W        W39934  14.301  43.365   5.293
80190W        W39935  13.128   0.752  13.432
80191W        W39936  11.632  31.112   9.961
80192W        W39937  16.231  38.467  10.039
80193W        W39938   5.724   5.291  13.400
80194W        W39939  37.495  18.139  13.002
80195W        W39940   8.804  24.706   2.203
80196W        W39941  31.617   9.362   1.256
80197W        W39942  31.061  42.836   5.292
80198W        W39943  16.253  16.242   4.792
80199W        W39944   1.305  14.239   4.167
80200W        W39945  22.747  26.103  10.552
80201W        W39946  20.099  20.129   1.768
80202W        W39947  44.390  15.645  13.316
80203W        W39948   9.395  28.098  10.441
80204W        W39949  40.466   3.240  14.407
80205W        W39950  34.604  13.658  13.039
80206W        W39951   4.323  24.498  11.573
80207W        W39952  44.884  26.959   2.792
80208W        W39953  19.577  15.085   1.379
80209W        W39954   4.404  41.509   0.835
80210W        W39955  36.958  33.398  14.973
80211W        W39956  20.629  23.008   0.921
80212W        W39957  42.354   7.910  11.603
80213W        W39958  15.725   6.893   4.629
80214W        W39959  21.074  23.693  10.589
80215W        W39960  17.149  21.536   2.241
80216W        W39961   8.294   6.877  10.964
80217W        W39962  15.599  19.696  13.018
80218W        W39963  15.593  24.190   0.836
80219W        W39964  42.007  43.021   1.928
80220W        W39965  12.813  16.087   0.749
80221W        W39966  32.466  17.236  11.494
80222W        W39967   8.833  33.003   4.178
80223W        W39968  15.202  31.063   0.902
80224W        W39969  37.461  41.953   1.347
80225W        W39970  41.439  35.427   3.169
80226W        W39971  24.200  26.168  12.407
80227W        W39972  15.793  11.703  12.045
80228W        W39973   0.473  37.543   1.790
80229W        W39974  36.909  23.693  10.923
80230W        W39975  26.549  19.098  10.934
80231W        W39976  12.153  27.967   4.126
80232W        W39977  21.653  29.613   3.216
80233W        W39978   6.183  36.937  10.476
80234W        W39979  28.005   2.777  11.588
80235W        W39980  43.956  11.324   1.785
80236W        W39981  31.549  42.284   4.150
80237W        W39982  26.013  30.101   0.939
80238W        W39983  39.053  13.652   0.803
80239W        W39984  44.418  44.400  10.943
80240W        W39985  14.787  13.197  12.953
80241W        W39986   2.940  42.783   3.331
80242W        W39987  20.752  28.014   0.331
80243W        W39988  35.460   8.756  10.463
80244W        W39989  38.864  42.953   3.826
80245W        W39990  10.721  30.635  13.462
80246W        W39991  23.621  38.540   1.889
80247W        W39992  24.567  15.693  12.019
80248W        W39993  43.512   7.410   2.364
80249W        W39994  37.565  20.558  10.907
80250W        W39995  12.322  26.515   2.824
80251W        W39996  39.330  28.981  13.910
80252W        W39997  15.144  30.548   0.774
80253W        W39998   3.905   8.244   1.742
80254W        W39999  30.130  20.609  10.899
80255W        W40000  23.033  26.063  14.880
80256W        W40001   2.910  28.044  12.482
80257W        W40002  17.709  28.139   4.292
80258W        W40003  11.730  31.567  10.084
80259W        W40004  39.900   5.403   0.465
80260W        W40005  24.627  23.127   2.236
80261W        W40006  37.358   3.387  14.473
80262W        W40007   8.873  17.774  12.983
80263W        W40008  23.074  15.777   4.673
80264W        W40009  29.991   6.412   1.393
80265W        W40010  13.129  10.836   4.815
80266W        W40011  29.049  43.399  13.802
80267W        W40012  17.673  18.725   4.761
80268W        W40013  35.438  14.107  13.956
80269W        W40014  14.223   2.293  11.004
80270W        W40015  32.551  33.588  11.858
80271W        W40016   0.398  41.512  12.367
80272W        W40017  25.696  12.757  10.488
80273W        W40018  42.477   6.271   2.282
80274W        W40019  17.710  16.106  13.336
80275W        W40020   6.731   0.478   3.808
80276W        W40021  35.418   4.206  11.444
80277W        W40022  21.568  25.485  12.892
80278W        W40023  24.144  42.483   1.897
80279W        W40024  19.560  32.931   2.664
80280W        W40025  19.216  26.145   1.438
80281W        W40026   8.314  39.933   0.390
80282W        W40027  16.221  37.887   4.313
80283W        W40028  10.839  30.649   4.219
80284W        W40029   2.445  25.622  10.578
80285W        W40030  23.538  10.786   2.367
80286W        W40031  24.526  18.618  10.993
80287W        W40032  26.550  25.659  14.291
80288W        W40033  16.094   2.255   3.640
80289W        W40034  29.982  11.825  11.430
80290W        W40035  31.082   1.455   1.293
80291W        W40036  14.739  14.779  12.015
80292W        W40037  23.686  40.965   0.456
80293W        W40038  41.462  32.450  10.978
80294W        W40039  16.197  39.031  12.043
80295W        W40040  21.541   8.338   2.854
80296W        W40041  44.872  32.119  11.497
80297W        W40042   9.326   5.323  12.398
80298W        W40043  41.847  10.227   2.855
80299W        W40044  29.464  10.245  11.379
80300W        W40045  20.581  24.619   2.822
80301W        W40046   8.185  27.471  13.427
80302W        W40047  37.408  31.606  10.472
80303W        W40048  27.034  19.217   1.446
80304W        W40049  12.174  21.643   1.741
80305W        W40050  38.360  27.977  12.558
80306W        W40051  33.061  31.143  14.295
80307W        W40052  35.472  33.465  13.002
80308W        W40053  42.430  13.116   2.262
80309W        W40054   4.225  27.557   0.842
80310W        W40055  14.708  32.619  11.982
80311W        W40056  31.018  30.031   9.927
80312W        W40057  16.609   0.396   4.647
80313W        W40058   2.424   4.739  13.062
80314W        W40059  38.503  36.978  14.997
80315W        W40060  32.032   0.371   3.669
80316W        W40061  27.968  23.137  11.383
80317W        W40062  18.286  42.902   0.243
80318W        W40063  16.673   3.918  13.414
80319W        W40064  15.260  20.698  10.518
80320W        W40065  32.595  36.064   5.251
80321W        W40066  42.843  18.645   0.952
80322W        W40067  16.704  16.573   0.267
80323W        W40068  17.721  32.469   4.804
80324W        W40069  42.468  15.800   0.819
80325W        W40070  38.921   7.723  14.971
80326W        W40071  37.338  11.232   2.331
80327W        W40072  14.312   0.276  11.459
80328W        W40073   6.908  31.533  11.533
80329W        W40074  41.939  19.121  12.500
80330W        W40075   4.928  21.033  14.960
80331W        W40076  41.906  18.719  12.848
80332W        W40077  13.312  29.088   5.111
80333W        W40078  41.445  32.578  12.993
80334W        W40079  11.206  12.145  12.499
80335W        W40080  27.967  32.986   3.643
80336W        W40081  14.202   9.826  10.982
80337W        W40082  26.536  28.507   0.927
80338W        W40083   1.421  26.966   2.262
80339W        W40084  19.201  20.135  11.889
80340W        W40085  25.693  42.859   2.392
80341W        W40086   4.334  15.661   0.870
80342W        W40087  24.124  41.929  14.952
80343W        W40088  30.436  26.688   1.856
80344W        W40089  30.453  34.063   4.304
80345W        W40090  37.987  17.204  12.966
80346W        W40091  19.214  25.016  13.350
80347W        W40092  36.581   9.733   3.856
80348W        W40093  22.083  18.702   2.830
80349W        W40094  35.040  20.084  13.979
80350W        W40095   0.429  26.198   2.871
80351W        W40096   4.363  15.648   3.825
80352W        W40097   5.255  24.073  13.932
80353W        W40098   3.231   0.791   2.736
80354W        W40099   3.800  19.632  12.564
80355W        W40100  42.470  31.989   5.270
80356W        W40101  28.148  21.077  12.908
80357W        W40102  17.777   6.808  14.869
80358W        W40103  27.565  25.684   4.836
80359W        W40104  28.533  31.585   3.759
80360W        W40105  40.388  41.866  10.459
80361W        W40106   2.471   2.918  11.402
80362W        W40107  12.270  12.313   4.640
80363W        W40108  19.216  15.310   1.852
80364W        W40109   4.234  42.915   1.417
80365W        W40110   2.754  42.309  11.594
80366W        W40111  14.127  44.321  14.797
80367W        W40112  30.571  25.063   3.380
80368W        W40113  13.776   2.812   1.752
80369W        W40114  43.999  40.797   4.677
80370W        W40115   1.384   4.370   2.819
80371W        W40116  42.896  26.055   0.482
80372W        W40117  37.885   7.697   1.363
80373W        W40118   5.305  21.161   1.320
80374W        W40119  42.870  28.954   2.182
80375W        W40120  37.000  34.093  10.483
80376W        W40121  30.540  30.595   9.965
80377W        W40122  13.694   5.303   3.789
80378W        W40123  18.552  12.805  12.422
80379W        W40124   8.796  42.932  12.884
80380W        W40125   7.780  14.165   4.289
80381W        W40126   0.344   8.727   0.331
80382W        W40127  31.972  43.406  13.346
80383W        W40128  20.756   9.888  12.053
80384W        W40129  29.983  28.441  13.011
80385W        W40130  41.993  11.743   4.692
80386W        W40131  35.544  29.123  14.301
80387W        W40132  19.662  31.140   4.187
80388W        W40133  16.775  27.999   4.186
80389W        W40134   7.394  42.895   4.699
80390W        W40135  18.554   2.755  14.864
80391W        W40136   5.843   9.296  11.494
80392W        W40137   1.426  25.514   2.883
80393W        W40138   3.930  29.054  10.406
80394W        W40139  34.069  43.485   1.906
80395W        W40140  32.016  31.054   3.195
80396W        W40141   1.967   6.223   1.827
80397W        W40142  42.870  38.917  14.379
80398W        W40143  20.583  26.551  10.420
80399W        W40144  13.742  14.741   1.420
80400W        W40145  25.622  37.050   4.125
80401W        W40146   1.931  23.605   0.851
80402W        W40147  39.979  15.278  10.909
80403W        W40148   0.467  11.716  12.494
80404W        W40149  20.147  32.114  10.411
80405W        W40150   8.342  43.852   1.288
80406W        W40151  31.063  33.891  11.594
80407W        W40152   5.841   8.672   1.250
80408W        W40153  37.576  42.978   2.351
80409W        W40154  15.760   7.229  10.611
80410W        W40155  32.981   9.673  11.404
80411W        W40156  15.719  20.628  12.474
80412W        W40157  10.721  10.370  13.939
80413W        W40158  31.090  29.492   2.743
80414W        W40159  31.919  28.544   9.457
80415W        W40160  30.006  31.965   2.194
80416W        W40161   0.339  21.718  14.285
80417W        W40162  15.596  28.180  12.447
80418W        W40163  11.274  32.581  13.313
80419W        W40164   2.865  37.963   3.833
80420W        W40165  15.604  34.872   0.823
80421W        W40166  33.473  38.003  12.051
80422W        W40167   8.220   2.754   1.832
80423W        W40168  44.292  37.522   2.379
80424W        W40169  15.624  10.774   1.851
80425W        W40170   4.786  28.170  14.852
80426W        W40171  24.595  23.204  13.433
80427W        W40172   4.310  19.204  13.854
80428W        W40173   5.198  36.878   5.674
80429W        W40174  40.051  38.936   1.336
80430W        W40175   2.938  44.326  13.874
80431W        W40176  39.376  29.499   4.660
80432W        W40177  29.097   2.287  13.363
80433W        W40178   4.209  25.493   3.846
80434W        W40179  28.183  41.512   0.291
80435W        W40180   6.731  43.491   4.322
80436W        W40181   9.228   4.341   3.821
80437W        W40182   2.818   7.250   3.817
80438W        W40183   0.431  41.356  10.050
80439W        W40184  41.347  34.426   1.734
80440W        W40185  43.839   9.193   4.636
80441W        W40186  18.062  25.099  13.530
80442W        W40187  23.493  12.697   4.608
80443W        W40188  30.976  21.243  14.390
80444W        W40189  25.145  42.289  14.432
80445W        W40190  22.198  10.743  12.517
80446W        W40191   5.754  11.195   3.209
80447W        W40192   8.217  37.012   0.377
80448W        W40193  34.865  12.184   4.743
80449W        W40194  27.010  42.305  14.333
80450W        W40195  26.183  36.465   1.320
80451W        W40196  37.370  43.787   1.257
80452W        W40197   9.651  14.338   0.761
80453W        W40198  11.200  39.394  13.871
80454W        W40199   8.236  36.994  10.443
80455W        W40200  26.637   5.842  11.924
80456W        W40201  33.492  37.848  13.917
80457W        W40202  23.593  37.938   4.167
80458W        W40203  21.102  41.399   3.381
80459W        W40204  29.477   6.314   1.296
80460W        W40205  18.209   9.207   2.260
80461W        W40206  13.328  23.229  12.538
80462W        W40207  33.572  33.982   1.358
80463W        W40208   5.355  11.662  13.859
80464W        W40209  39.492   0.931  12.362
80465W        W40210  11.714  17.267  11.900
80466W        W40211  38.890  36.054  14.325
80467W        W40212   2.430  10.666  10.913
80468W        W40213  31.034  10.703  14.373
80469W        W40214  11.697  19.731   0.856
80470W        W40215  10.832  33.516   3.712
80471W        W40216  40.316  29.618  13.045
80472W        W40217  15.762  14.168   3.316
80473W        W40218  23.604  22.215  12.434
80474W        W40219  34.053  21.530   9.509
80475W        W40220   8.871   7.682  10.499
80476W        W40221  30.953  23.138  14.964
80477W        W40222   1.903  18.113   1.238
80478W        W40223   4.763   2.249   4.201
80479W        W40224   0.471   0.312  10.979
80480W        W40225  30.139  26.138  13.972
80481W        W40226  27.942  44.785   3.752
80482W        W40227  15.149  11.226   4.220
80483W        W40228  16.637  25.476   1.241
80484W        W40229  27.690  38.019   1.703
80485W        W40230  16.668  29.493   0.791
80486W        W40231  17.250   3.355  14.833
80487W        W40232  33.523  23.072   4.225
80488W        W40233  23.531  31.589  13.878
80489W        W40234  22.616  35.410   0.308
80490W        W40235  11.151  27.638  12.056
80491W        W40236  27.637  11.159   0.728
80492W        W40237  13.695  28.481   3.844
80493W        W40238  34.399   2.813   3.169
80494W        W40239  25.968  26.104   1.258
80495W        W40240  16.700  32.467  12.020
80496W        W40241  43.269   7.288  11.389
80497W        W40242  19.124  19.682  12.475
80498W        W40243  37.969  42.920   0.803
80499W        W40244   4.336  22.727   2.702
80500W        W40245  39.452   4.340   3.319
80501W        W40246   0.454  29.059  12.560
80502W        W40247   6.761  30.962  12.835
80503W        W40248  36.917   9.253   2.774
80504W        W40249   5.216   3.421  10.545
80505W        W40250   6.243  39.893  13.011
80506W        W40251  12.204  39.822  14.959
80507W        W40252  15.754  27.152   3.712
80508W        W40253  20.528  24.679   4.311
80509W        W40254  23.024  11.290  11.475
80510W        W40255  16.256   8.167   2.760
80511W        W40256  25.539  37.870  11.919
80512W        W40257  31.501   3.369   1.770
80513W        W40258  36.901  31.440  14.410
80514W        W40259  32.140  41.299  13.806
80515W        W40260  15.652  22.170  10.453
80516W        W40261  21.059  11.289  13.431
80517W        W40262   3.744  12.810  14.423
80518W        W40263   3.306   2.790   0.782
80519W        W40264  43.475  33.505   1.445
80520W        W40265  27.446   5.746  14.303
80521W        W40266  23.677  29.937  11.036
80522W        W40267   4.937  26.651   0.242
80523W        W40268   2.948  36.975  11.423
80524W        W40269  31.054  15.213   4.136
80525W        W40270  27.653  11.747   3.176
80526W        W40271  17.214  34.075  14.433
80527W        W40272  36.978  15.627   0.828
80528W        W40273  44.474  39.058  10.925
80529W        W40274  21.623  19.147   4.717
80530W        W40275  39.908  24.172   4.157
80531W        W40276  38.900  36.353   2.387
80532W        W40277   6.913   5.292   0.930
80533W        W40278  26.476   5.901   1.304
80534W        W40279  29.023   1.396   1.712
80535W        W40280   9.683  35.397  13.411
80536W        W40281  34.503   3.220   3.310
80537W        W40282   4.768  32.951   0.434
80538W        W40283  29.516  23.046   3.373
80539W        W40284  38.368  36.496  14.370
80540W        W40285  21.149   7.248  13.006
80541W        W40286  23.074  34.980   3.635
80542W        W40287  12.727  19.685  12.355
80543W        W40288  39.480  39.950  13.819
80544W        W40289  19.049   3.833  12.342
80545W        W40290  43.784  36.964   5.675
80546W        W40291  28.040  12.813  11.931
80547W        W40292  35.503  31.607  14.817
80548W        W40293  20.709  17.106   1.731
80549W        W40294  21.253  17.099  14.482
80550W        W40295  27.053  23.672   3.652
80551W        W40296   8.780  21.207   2.344
80552W        W40297  42.024  11.781  14.809
80553W        W40298  14.200  30.564   3.715
80554W        W40299   9.333  19.071  11.989
80555W        W40300  38.428  43.361  14.418
80556W        W40301  27.061  38.059   1.750
80557W        W40302  25.966   4.258  13.356
80558W        W40303  18.747  10.253   3.286
80559W        W40304  32.495  22.629  11.440
80560W        W40305  24.065  33.951   4.189
80561W        W40306  15.729  44.401   3.284
80562W        W40307  10.855  31.595  13.318
80563W        W40308  24.141  40.843  13.458
80564W        W40309  33.413  24.514   2.211
80565W        W40310  21.679  30.089  11.049
80566W        W40311  23.584  42.413  14.462
80567W        W40312  28.106  27.482  11.422
80568W        W40313  27.667  33.119  10.453
80569W        W40314  29.651   7.366   2.891
80570W        W40315  29.517  11.361  14.442
80571W        W40316  16.649  36.364  10.456
80572W        W40317  44.422  33.054  12.545
80573W        W40318  21.600  43.803  14.295
80574W        W40319   7.735  17.248   2.744
80575W        W40320  37.448  14.260  12.571
80576W        W40321  28.524  10.288  10.085
80577W        W40322  12.160  17.228   3.163
80578W        W40323  37.345  15.650   1.324
80579W        W40324   9.177  28.547   3.282
80580W        W40325  35.422  26.087  11.562
80581W        W40326   4.438  16.592  13.355
80582W        W40327  36.042  34.581   0.914
80583W        W40328  10.242  36.952   5.628
80584W        W40329   1.321  44.753   3.650
80585W        W40330  44.010  21.079  11.081
80586W        W40331  24.137   0.924  10.593
80587W        W40332  42.331  23.693  11.097
80588W        W40333  33.495  27.497   4.657
80589W        W40334  11.726  38.841  13.339
80590W        W40335  39.022  43.415   4.165
80591W        W40336  14.252  12.705  14.941
80592W        W40337  41.931  27.674  14.775
80593W        W40338  41.470   3.864  11.953
80594W        W40339   7.857   6.818   0.850
80595W        W40340  11.731   1.899  12.340
80596W        W40341  31.447  18.773   1.871
80597W        W40342  15.581  25.191   1.387
80598W        W40343   6.261  31.407  11.550
80599W        W40344  13.737  35.412  14.347
80600W        W40345  37.048  21.171  10.463
80601W        W40346  11.308  44.484   2.389
80602W        W40347   0.794  37.936  10.943
80603W        W40348   0.367  25.632  10.612
80604W        W40349  21.716   2.856   9.958
80605W        W40350  14.120   1.750   2.387
80606W        W40351  35.516  42.904  13.802
80607W        W40352   4.274  25.686   2.304
80608W        W40353   7.408  14.150   2.357
80609W        W40354  17.612   7.799   0.357
80610W        W40355  42.469   6.810   1.424
80611W        W40356  28.468  43.433  14.368
80612W        W40357  26.962  21.161   2.305
80613W        W40358  34.984  43.860   3.718
80614W        W40359  30.438   6.712   1.877
80615W        W40360  31.648   7.686  10.588
80616W        W40361  11.367  19.661  11.915
80617W        W40362  19.237   5.301   1.407
80618W        W40363   0.447  23.614  12.973
80619W        W40364   1.733  24.671   4.116
80620W        W40365  14.763   5.895   1.441
80621W        W40366  31.047  20.253  14.985
80622W        W40367  19.129  36.031   2.242
80623W        W40368   8.770  22.148   0.311
80624W        W40369  42.494  16.705  11.987
80625W        W40370  30.142  15.705   0.814
80626W        W40371  10.306  11.844  12.380
80627W        W40372   4.710  40.432  10.102
80628W        W40373  20.198  37.493   1.718
80629W        W40374  20.054  13.809   1.342
80630W        W40375  36.414  17.666  11.443
80631W        W40376  34.481  27.167  12.474
80632W        W40377  44.449  25.160   0.246
80633W        W40378   6.335  31.488   2.701
80634W        W40379  29.169   8.673   2.201
80635W        W40380  19.585  35.499  13.352
80636W        W40381  39.323  41.449   4.221
80637W        W40382  32.562  16.284  12.490
80638W        W40383  42.323   1.880   1.252
80639W        W40384   4.724  44.364   3.748
80640W        W40385  32.932  12.134   0.390
80641W        W40386  30.497  27.643  11.054
80642W        W40387   4.383  27.103   0.274
80643W        W40388  42.389  35.408   4.333
80644W        W40389  30.100  44.336  13.884
80645W        W40390  29.126  13.262  13.474
80646W        W40391  16.186  36.095   0.749
80647W        W40392  41.959  44.814   1.790
80648W        W40393   2.451  15.821   0.773
80649W        W40394  27.667  33.521   3.850
80650W        W40395   4.807   0.780  12.346
80651W        W40396  23.653  23.166  11.441
80652W        W40397  28.484  27.687  12.990
80653W        W40398  12.614   3.789   2.285
80654W        W40399  13.342   7.894  14.384
80655W        W40400  18.069  19.534   1.291
80656W        W40401  11.788  29.646  11.023
80657W        W40402  25.700  26.121  13.429
80658W        W40403  23.707  42.023  14.780
80659W        W40404  15.628   7.781  12.972
80660W        W40405  38.370  14.702  13.956
80661W        W40406   5.776  40.846  13.402
80662W        W40407  13.207  32.456  11.086
80663W        W40408  33.560  13.658   4.804
80664W        W40409  22.175  15.242   1.376
80665W        W40410  10.749  29.976   0.417
80666W        W40411   1.249  27.652  11.483
80667W        W40412  21.665  17.619   1.694
80668W        W40413   8.276  10.249  12.565
80669W        W40414   1.950  24.148   3.865
80670W        W40415  40.978   0.971   0.473
80671W        W40416   7.242  32.952   1.248
80672W        W40417  31.933  38.559   0.742
80673W        W40418   6.329   7.901   2.738
80674W        W40419  24.637  15.322  14.941
80675W        W40420  38.999   7.792  13.502
80676W        W40421  13.111  13.604  12.557
80677W        W40422  31.047   8.754   1.711
80678W        W40423  17.261  26.604  14.891
80679W        W40424  39.849   8.216  12.014
80680W        W40425  30.638   1.950  12.838
80681W        W40426  40.983  17.576   3.770
80682W        W40427  39.398   9.378   0.385
80683W        W40428  29.964   9.339   2.209
80684W        W40429  10.759  24.575  10.441
80685W        W40430  29.436  24.193   4.280
80686W        W40431  18.085  29.160  11.871
80687W        W40432  22.501  26.480   4.612
80688W        W40433  19.690  18.162   3.786
80689W        W40434  33.466  38.900   2.760
80690W        W40435  34.054  41.344   1.291
80691W        W40436  21.553  39.535   1.351
80692W        W40437   5.926  24.048  14.452
80693W        W40438   9.296  14.225  14.974
80694W        W40439   3.358  28.614   2.205
80695W        W40440  16.255  16.663  12.410
80696W        W40441  13.628  26.036  12.924
80697W        W40442  27.106  19.585  13.911
80698W        W40443  23.142   1.461  10.114
80699W        W40444  13.607  35.398  11.531
80700W        W40445  44.989  17.268  13.004
80701W        W40446  17.114   5.382   0.306
80702W        W40447  32.440   8.346  14.417
80703W        W40448  30.136  27.167   1.850
80704W        W40449  36.472  38.514   0.888
80705W        W40450  39.064  36.970  10.460
80706W        W40451   4.387  10.330  11.605
80707W        W40452  41.940  33.091   2.779
80708W        W40453  25.198  43.494   2.411
80709W        W40454  31.603  10.660  13.804
80710W        W40455  13.608  20.091   3.778
80711W        W40456  22.047   1.773  13.357
80712W        W40457   0.330  11.791   3.787
80713W        W40458  42.958  40.407  13.064
80714W        W40459  37.428   8.830   1.713
80715W        W40460  12.286  38.461  12.507
80716W        W40461  22.092  39.484  13.423
80717W        W40462  17.252  30.552  11.092
80718W        W40463   6.738  40.394   1.263
80719W        W40464  17.152  16.260  13.930
80720W        W40465  30.932  28.556   0.483
80721W        W40466  19.666  19.678   1.797
80722W        W40467  25.542  28.633   3.737
80723W        W40468  24.511   2.876  12.081
80724W        W40469   9.227   8.850  10.430
80725W        W40470   7.390  32.485   1.291
80726W        W40471  37.884  35.451   3.828
80727W        W40472  26.075  10.336   3.800
80728W        W40473  34.953   8.820   1.293
80729W        W40474  41.307  41.998   0.370
80730W        W40475   4.751   4.858  13.453
80731W        W40476   6.842   3.429  13.830
80732W        W40477  36.483   1.959  14.488
80733W        W40478   1.455  35.867  14.338
80734W        W40479  37.026  11.867  14.439
80735W        W40480  28.112  17.180  11.079
80736W        W40481  39.886  31.560  13.948
80737W        W40482  30.152  10.852   3.356
80738W        W40483  15.242  37.937  11.514
80739W        W40484   1.950  15.728  13.972
80740W        W40485  25.485   7.841   0.257
80741W        W40486   9.323  30.632   3.190
80742W        W40487  10.706  26.953   0.791
80743W        W40488  32.961   3.438   3.759
80744W        W40489  17.278  17.559   1.911
80745W        W40490   5.294  39.874  14.338
80746W        W40491  27.128  36.526  10.540
80747W        W40492  23.156  27.518  11.918
80748W        W40493  40.536  22.617  12.936
80749W        W40494  29.471  43.871   4.708
80750W        W40495  36.593  39.406  13.368
80751W        W40496  26.490  20.679   3.304
80752W        W40497   9.799  24.040   0.726
80753W        W40498  27.982  14.821  11.374
80754W        W40499  36.380  26.668   3.185
80755W        W40500  35.561  28.668  11.544
80756W        W40501   6.910  25.611  13.886
80757W        W40502  44.305  25.125  10.159
80758W        W40503  31.995   4.717  14.451
80759W        W40504   7.845  24.014  10.558
80760W        W40505   3.728  31.404  11.527
80761W        W40506  13.238   3.245   1.428
80762W        W40507   6.283  30.057  13.397
80763W        W40508  39.549  41.435  10.587
80764W        W40509  44.433  20.731   1.923
80765W        W40510  30.112  14.120   2.269
80766W        W40511  40.413  20.176   0.368
80767W        W40512  11.840  19.537  14.912
80768W        W40513  37.427  38.500  13.931
80769W        W40514  21.715  22.571  14.431
80770W        W40515  36.961   8.885  11.017
80771W        W40516  13.651  13.649  10.919
80772W        W40517   6.824  43.832  11.403
80773W        W40518  25.680  13.278   2.180
80774W        W40519  30.971   1.279  13.454
80775W        W40520  10.157  14.242   0.325
80776W        W40521   8.654  16.700   1.922
80777W        W40522  36.089  33.446   3.257
80778W        W40523  26.689   7.194   2.822
80779W        W40524   5.331  25.095   2.865
80780W        W40525   7.185  13.341  13.406
80781W        W40526  29.656  22.676   2.316
80782W        W40527  27.019  35.518  14.963
80783W        W40528  23.534  32.922   1.850
80784W        W40529  37.559  20.755   9.982
80785W        W40530  12.714   7.869  11.021
80786W        W40531  25.574  21.081   3.260
80787W        W40532  10.323  23.559   0.398
80788W        W40533   0.474  13.742   1.248
80789W        W40534  36.557   3.799   1.278
80790W        W40535  20.601  24.206  12.395
80791W        W40536  26.476  26.026  12.829
80792W        W40537  25.024  33.098  14.354
80793W        W40538  15.774  26.071   3.854
80794W        W40539   0.342  19.651  14.501
80795W        W40540  15.707  16.076   3.679
80796W        W40541  26.967   9.732  12.509
80797W        W40542  23.108   6.800  11.514
80798W        W40543  16.141   6.212   2.760
80799W        W40544  31.448  29.668  13.370
80800W        W40545   0.330  31.479  10.115
80801W        W40546  32.113  30.144  14.789
80802W        W40547  36.869   7.253  10.578
80803W        W40548   7.759  37.548   2.696
80804W        W40549  10.808  30.054   1.919
80805W        W40550  37.850  34.048  11.879
80806W        W40551  31.644  40.501   4.811
80807W        W40552  10.664  25.515   0.454
80808W        W40553  33.922  16.091   3.150
80809W        W40554  21.552  24.717   3.369
80810W        W40555  41.963   8.699  12.511
80811W        W40556   9.845  20.641  10.931
80812W        W40557   8.755  32.597  14.419
80813W        W40558   1.833  41.006  13.358
80814W        W40559  29.090   0.361   2.677
80815W        W40560  29.946  27.189   0.463
80816W        W40561  38.404  32.142   0.890
80817W        W40562  21.708   1.782  10.603
80818W        W40563  33.541  34.042   2.218
80819W        W40564  27.179  16.269   9.510
80820W        W40565  42.432  15.151  11.411
80821W        W40566  39.855  35.885  12.528
80822W        W40567  25.589  16.604   1.419
80823W        W40568  10.365  28.183  12.540
80824W        W40569   7.803   4.417  11.994
80825W        W40570  35.538   0.417  10.993
80826W        W40571  10.669   0.832  10.624
80827W        W40572  42.859  14.660   3.256
80828W        W40573   2.895  37.841  12.023
80829W        W40574   6.332   0.779   1.236
80830W        W40575  26.467  35.075  10.414
80831W        W40576   9.341  26.140  12.904
80832W        W40577  21.192  11.341  14.812
80833W        W40578  22.517  37.416   4.831
80834W        W40579  41.883  40.895   3.155
80835W        W40580  40.039   5.812  11.028
80836W        W40581  25.600  32.906   3.642
80837W        W40582   4.787   2.795   1.929
80838W        W40583  11.159   5.817  14.879
80839W        W40584  25.522  28.929   4.287
80840W        W40585  27.579  14.278   4.183
80841W        W40586  26.180  20.040  14.477
80842W        W40587   6.182   9.196  14.435
80843W        W40588  23.996   8.792   1.433
80844W        W40589   4.899  23.534  10.414
80845W        W40590  20.186  34.864   9.921
80846W        W40591  23.062   4.738   3.188
80847W        W40592   9.334  35.524  12.842
80848W        W40593  41.835   4.845   0.838
80849W        W40594  27.649  14.232  11.561
80850W        W40595  20.613  18.598   2.674
80851W        W40596   5.808   9.703   3.703
80852W        W40597  41.833  19.220   0.350
80853W        W40598  18.636  13.256  14.895
80854W        W40599  17.064   9.252   2.347
80855W        W40600  13.733  44.840  13.908
80856W        W40601  26.472   0.302   4.660
80857W        W40602  11.136  13.130   0.732
80858W        W40603  38.059   2.804   2.794
80859W        W40604  18.257   6.293  10.486
80860W        W40605  14.602   6.224   4.346
80861W        W40606  24.497  19.713   2.327
80862W        W40607  39.549   2.430  10.614
80863W        W40608   5.917  17.178   4.201
80864W        W40609  40.864  31.442   1.934
80865W        W40610   3.834  19.216   5.124
80866W        W40611  39.863  24.541  12.886
80867W        W40612  17.582   7.723  12.971
80868W        W40613   7.870  37.860  11.051
80869W        W40614  26.631  35.031   2.357
80870W        W40615  10.271  17.216  10.946
80871W        W40616  27.041  26.496  14.912
80872W        W40617  11.834  26.657   3.163
80873W        W40618  39.825  20.533  14.776
80874W        W40619  10.183  13.705  14.425
80875W        W40620  27.587  13.262  14.815
80876W        W40621  21.710  11.266  14.287
80877W        W40622   1.320   1.314  14.007
80878W        W40623  24.502   5.312  14.963
80879W        W40624   8.368  44.499   2.819
80880W        W40625  39.451   7.752   3.382
80881W        W40626  18.162  34.388  11.433
80882W        W40627  34.877  35.471  14.845
80883W        W40628  25.657  28.947   0.322
80884W        W40629  16.147  41.965   0.753
80885W        W40630  12.741   6.835   4.681
80886W        W40631  32.544  43.950  14.320
80887W        W40632  36.578  28.076  14.491
80888W        W40633  23.537  34.996   4.663
80889W        W40634  36.092  26.546  13.930
80890W        W40635  14.150   4.746   1.230
80891W        W40636  37.051  16.249   2.219
80892W        W40637  18.200   9.849   0.438
80893W        W40638  27.544   1.296  10.408
80894W        W40639  42.358   0.265   2.746
80895W        W40640  14.693  15.291  12.080
80896W        W40641  25.007  31.924   2.836
80897W        W40642  11.816  23.691  11.396
80898W        W40643  36.961  11.626   3.280
80899W        W40644  22.082  36.876   0.428
80900W        W40645   7.401  29.070   3.837
80901W        W40646  42.443  19.220  13.961
80902W        W40647  28.021   9.213   3.723
80903W        W40648  34.893  14.234  12.497
80904W        W40649  29.160   7.373  11.547
80905W        W40650  34.026  39.427  13.806
80906W        W40651  14.780   6.711   2.182
80907W        W40652   4.217  36.925  12.084
80908W        W40653  24.483   0.324   0.348
80909W        W40654  27.495   6.810   9.662
80910W        W40655   4.324  40.384   1.880
80911W        W40656  11.193  27.947  14.453
80912W        W40657  43.990  29.669   0.751
80913W        W40658  10.733  15.236  11.057
80914W        W40659  34.539  36.942  11.963
80915W        W40660  39.480   8.878  14.950
80916W        W40661   1.309   3.244  10.029
80917W        W40662  11.713  44.406  10.965
80918W        W40663  34.923   0.351  10.519
80919W        W40664  34.957  24.165  14.495
80920W        W40665  39.386  42.030   4.793
80921W        W40666  13.608  15.195  14.976
80922W        W40667  23.575  39.857  10.586
80923W        W40668  26.520   9.261   1.437
80924W        W40669  38.436  18.606  14.291
80925W        W40670   3.893  13.651   3.864
80926W        W40671  32.020  41.010  13.502
80927W        W40672   5.335   7.760   2.237
80928W        W40673  33.435   4.895  13.958
80929W        W40674  29.969  22.171   3.351
80930W        W40675  15.628   3.422   4.799
80931W        W40676   1.440  36.454   1.256
80932W        W40677  31.598  28.579  12.037
80933W        W40678  12.844   6.681  13.831
80934W        W40679  28.647   5.350   4.641
80935W        W40680  30.656  42.862  11.108
80936W        W40681  19.665  25.130   4.696
80937W        W40682  34.047  12.803   4.785
80938W        W40683  19.772  11.345   4.657
80939W        W40684  16.707  36.973   2.241
80940W        W40685  10.343  12.802  14.315
80941W        W40686   0.250  34.955   3.810
80942W        W40687  19.268   3.712  11.010
80943W        W40688  39.867  44.827  10.595
80944W        W40689  22.137  44.010  12.039
80945W        W40690  30.993  14.831  12.386
80946W        W40691  35.976  13.255   2.278
80947W        W40692  38.566  26.559   4.260
80948W        W40693  16.305  23.110   1.779
80949W        W40694   4.816  13.761   1.402
80950W        W40695  29.483  33.622  12.838
80951W        W40696  40.942  20.690  10.969
80952W        W40697   1.382  21.100   0.829
80953W        W40698   3.728   8.307   2.243
80954W        W40699  33.994  36.953   3.705
80955W        W40700   4.391  24.108  12.357
80956W        W40701   9.245  43.902   2.854
80957W        W40702   6.855   8.187  11.603
80958W        W40703  19.571  23.149  10.960
80959W        W40704  31.064  17.656   0.758
80960W        W40705   8.313  35.400  13.529
80961W        W40706  16.143  14.145   1.747
80962W        W40707  42.821  39.318  13.317
80963W        W40708  27.648  12.628   3.271
80964W        W40709  41.366  27.494   4.729
80965W        W40710  22.114   7.698  11.540
80966W        W40711   6.787  31.646  11.958
80967W        W40712  35.905  26.146   2.316
80968W        W40713  30.077   9.783   1.729
80969W        W40714   8.677  37.407   4.837
80970W        W40715  28.972  15.821   1.290
80971W        W40716  11.127  29.962   4.774
80972W        W40717  39.421  38.514   4.329
80973W        W40718  15.175  44.788  11.857
80974W        W40719  31.602  26.176  12.519
80975W        W40720  15.819   9.208   0.903
80976W        W40721  30.096  19.085  14.900
80977W        W40722  16.181  44.855   3.827
80978W        W40723  15.700  36.539   4.274
80979W        W40724  27.949  27.572  12.892
80980W        W40725  19.249  30.007  11.591
80981W        W40726  19.170   8.321  14.030
80982W        W40727  13.728  31.036  14.286
80983W        W40728  39.460  30.089   2.705
80984W        W40729  38.873  17.718  10.596
80985W        W40730  23.104  42.361   0.391
80986W        W40731  11.237  37.457  14.905
80987W        W40732  31.968  25.123  13.500
80988W        W40733  17.627  36.525  13.359
80989W        W40734   7.813   6.316   2.403
80990W        W40735  44.755  35.546  12.885
80991W        W40736  10.765   4.826  12.875
80992W        W40737  33.888   7.902   2.376
80993W        W40738  28.595  41.464  12.979
80994W        W40739  44.263  37.840  13.346
80995W        W40740  31.006  16.674   0.264
80996W        W40741  26.081  22.509  14.499
80997W        W40742  36.096  40.330  13.483
80998W        W40743  25.172  44.832  12.563
80999W        W40744   1.894  10.186  14.857
81000W        W40745  40.006  41.010   2.347
81001W        W40746  24.060  34.402   0.780
81002W        W40747   3.730   8.182  12.048
81003W        W40748  36.092  20.097   1.870
81004W        W40749   7.389   4.847   2.410
81005W        W40750  20.563  35.571  14.487
81006W        W40751  10.382  19.724   1.711
81007W        W40752  20.645  14.146  14.784
81008W        W40753  36.369  27.943  13.014
81009W        W40754  39.020  13.671  11.007
81010W        W40755  13.653  24.692   2.742
81011W        W40756  24.150  11.227   4.261
81012W        W40757  44.886  18.260  14.823
81013W        W40758   1.448  18.627  14.765
81014W        W40759  20.680  43.867  10.618
81015W        W40760  21.214  21.099  14.431
81016W        W40761  44.753  22.584  11.511
81017W        W40762  26.187  25.177  14.830
81018W        W40763  23.663  36.057   4.162
81019W        W40764  27.641  43.328   2.230
81020W        W40765  41.856  42.861   4.152
81021W        W40766  43.945  30.923  12.550
81022W        W40767  19.040  31.015  12.878
81023W        W40768  38.404  22.221  12.964
81024W        W40769   4.754   6.349   0.434
81025W        W40770   7.769  14.104  13.926
81026W        W40771   1.368  34.989   1.724
81027W        W40772  40.541   1.959  14.310
81028W        W40773  30.956  38.044  10.482
81029W        W40774   0.434   3.927  11.006
81030W        W40775   2.360  23.194   2.394
81031W        W40776   3.274  31.104   3.241
81032W        W40777  28.554  30.581   2.744
81033W        W40778  38.363  27.626   0.403
81034W        W40779  27.140  36.551   2.300
81035W        W40780   5.239  17.234   0.464
81036W        W40781  33.075  29.989  13.544
81037W        W40782   4.364  31.515  14.468
81038W        W40783   6.873  26.000   2.354
81039W        W40784  40.980  27.524   3.341
81040W        W40785  32.428  39.457  14.970
81041W        W40786  32.142  19.570   3.324
81042W        W40787  14.305  20.224   4.652
81043W        W40788  31.969  22.050  11.508
81044W        W40789  36.568  15.799  13.847
81045W        W40790  29.125   3.237  13.003
81046W        W40791  31.542  37.520   3.279
81047W        W40792   8.806  11.749  13.029
81048W        W40793  17.599  28.446  14.020
81049W        W40794  10.858  24.098   2.356
81050W        W40795  10.361  30.600  11.988
81051W        W40796  11.318   2.330  11.612
81052W        W40797   1.442   0.796   4.136
81053W        W40798  36.394  20.056   2.692
81054W        W40799  17.741   3.860   0.388
81055W        W40800  44.844  40.460  14.774
81056W        W40801  19.260  43.387  11.067
81057W        W40802   6.278  44.010  10.481
81058W        W40803  17.729   0.319   1.267
81059W        W40804   8.771   4.426  10.991
81060W        W40805  15.237   6.699   1.702
81061W        W40806  41.525   8.304  13.515
81062W        W40807   1.262  32.522   3.677
81063W        W40808  37.082   7.283  13.897
81064W        W40809  41.479  21.588   0.947
81065W        W40810  24.000   8.292  10.495
81066W        W40811   6.917  13.228  12.894
81067W        W40812  23.584   2.882   3.150
81068W        W40813  25.485  29.058  13.036
81069W        W40814  22.204  34.962   0.387
81070W        W40815  42.900  20.575   4.272
81071W        W40816  26.647  19.282   3.744
81072W        W40817  21.135  29.156  13.866
81073W        W40818  43.865  43.967  13.339
81074W        W40819   7.293  36.892   0.304
81075W        W40820  20.523   2.859  12.392
81076W        W40821   7.732   8.352  12.999
81077W        W40822  18.555  44.394   0.419
81078W        W40823  41.457  26.974  14.363
81079W        W40824  24.709  15.629   1.226
81080W        W40825  37.432  43.512  14.452
81081W        W40826  10.730  25.155  11.103
81082W        W40827   2.869  25.568   2.371
81083W        W40828  17.072  14.164  13.882
81084W        W40829  14.655  31.142  11.577
81085W        W40830   4.309  28.032   3.749
81086W        W40831  19.605  18.124  14.469
81087W        W40832  24.076  37.017   0.265
81088W        W40833   9.802  24.133   4.311
81089W        W40834   5.430  25.078   0.917
81090W        W40835  13.206  12.689  10.031
81091W        W40836  23.114   5.797   2.210
81092W        W40837  22.050   6.730   0.346
81093W        W40838  22.047  40.356   2.897
81094W        W40839  35.974  21.688  12.578
81095W        W40840   5.791  28.621  14.480
81096W        W40841  18.592   0.844  12.501
81097W        W40842  33.904  32.920  11.452
81098W        W40843  12.249  24.556  10.624
81099W        W40844  25.520   6.253  10.066
81100W        W40845  12.165  36.067  12.919
81101W        W40846  42.448  33.079   4.350
81102W        W40847   0.780  34.424   1.875
81103W        W40848  25.057  10.794  12.402
81104W        W40849  18.694  40.440  13.912
81105W        W40850  44.853  38.375  14.340
81106W        W40851  34.890   7.852  13.851
81107W        W40852  30.931  24.176   3.673
81108W        W40853  44.817  39.930   1.307
81109W        W40854  22.124  39.050  12.062
81110W        W40855  35.370  28.579  10.488
81111W        W40856  14.198   6.329  14.283
81112W        W40857  12.228   0.281   2.896
81113W        W40858   8.352  32.937   4.609
81114W        W40859   3.935  20.155   4.832
81115W        W40860  19.237   2.336  12.577
81116W        W40861   2.244  20.262  11.479
81117W        W40862  27.581  20.656  14.004
81118W        W40863  20.661  18.193   1.872
81119W        W40864  33.090  14.131  10.406
81120W        W40865  25.574  42.991  11.024
81121W        W40866   2.450   6.773  14.018
81122W        W40867  14.667  24.206   4.742
81123W        W40868   3.412  26.086  14.378
81124W        W40869  10.194  41.478   4.155
81125W        W40870  38.908   0.469   2.271
81126W        W40871  20.107   9.753   2.785
81127W        W40872  19.573  21.620   3.366
81128W        W40873  26.605  34.908   0.771
81129W        W40874  31.074  36.008  14.774
81130W        W40875  38.928  21.260   0.814
81131W        W40876  32.135  22.193   9.994
81132W        W40877  28.533  25.002  12.998
81133W        W40878   8.189  33.918   3.146
81134W        W40879  13.726  17.629   0.855
81135W        W40880   8.325  23.187   1.220
81136W        W40881  12.715  28.467  11.583
81137W        W40882  31.577  33.390  13.322
81138W        W40883   2.419   9.168   1.750
81139W        W40884   6.252  11.763   4.157
81140W        W40885  28.086  44.325  11.957
81141W        W40886  14.748  19.141  11.435
81142W        W40887  11.174  21.022  13.403
81143W        W40888  37.971  43.496  14.392
81144W        W40889   4.217  25.646  10.459
81145W        W40890  27.188   8.329  13.920
81146W        W40891  24.518  42.923   1.823
81147W        W40892   9.672  15.261  11.079
81148W        W40893  20.217  14.782  11.410
81149W        W40894   0.948  39.432  10.479
81150W        W40895  25.084  10.307   1.812
81151W        W40896  40.332   0.329  11.375
81152W        W40897   7.779  16.579  10.940
81153W        W40898  33.379  25.103   2.260
81154W        W40899  18.645  44.853   3.790
81155W        W40900   7.173  22.016   2.865
81156W        W40901  23.218  16.626  13.951
81157W        W40902  23.065  26.659  12.994
81158W        W40903  29.152  17.675   0.436
81159W        W40904  16.210  41.942  10.515
81160W        W40905  11.235   0.378   3.840
81161W        W40906  23.705  40.371  12.087
81162W        W40907  20.681  35.439   2.810
81163W        W40908   7.750   6.797  13.023
81164W        W40909   2.384  28.489   1.836
81165W        W40910   3.872  35.892  13.465
81166W        W40911  31.608  32.558   0.884
81167W        W40912  24.029   7.689  14.954
81168W        W40913  26.991  19.607  11.048
81169W        W40914   9.888  18.208  11.034
81170W        W40915  42.966  36.919  11.374
81171W        W40916  25.986  15.292   5.147
81172W        W40917  37.467  16.803   4.682
81173W        W40918  20.527   7.866  11.508
81174W        W40919  43.381  42.846   1.358
81175W        W40920   2.271  23.234   3.160
81176W        W40921  18.086  32.599  13.895
81177W        W40922  20.612  43.393  12.877
81178W        W40923  32.977  31.983  10.056
81179W        W40924  20.121   7.317  14.325
81180W        W40925   3.716  38.846  12.375
81181W        W40926  37.971  14.204   4.217
81182W        W40927  43.297  25.973  14.347
81183W        W40928  15.722  35.383  12.918
81184W        W40929   8.765  19.121  14.987
81185W        W40930  44.330  42.338  14.516
81186W        W40931  11.245  33.954   4.185
81187W        W40932   4.347  12.643  13.527
81188W        W40933  19.777  18.248  13.454
81189W        W40934  17.749  27.019   3.217
81190W        W40935  24.506  25.529  12.892
81191W        W40936  38.461  33.500   1.306
81192W        W40937  44.891  26.127   1.231
81193W        W40938  21.031  21.156   3.280
81194W        W40939  19.546  38.949   2.760
81195W        W40940   5.806  44.907  14.836
81196W        W40941   5.330  10.257  11.589
81197W        W40942  23.551  31.956   4.311
81198W        W40943  39.473   9.721  14.864
81199W        W40944  42.854  18.776   0.350
81200W        W40945  41.928   9.386   1.865
81201W        W40946   0.288  28.492  12.348
81202W        W40947  40.025  27.672  11.857
81203W        W40948   5.197  16.723  11.936
81204W        W40949   7.171  23.607   3.253
81205W        W40950  39.817  23.006  11.470
81206W        W40951  17.585  20.692   2.790
81207W        W40952   0.369  43.334   0.746
81208W        W40953  27.107   2.746   0.897
81209W        W40954  43.270  32.887   3.241
81210W        W40955   9.294  43.391   4.687
81211W        W40956   1.476  23.091  11.381
81212W        W40957   0.799  18.699   0.292
81213W        W40958  28.963  44.825  14.319
81214W        W40959  41.789   1.453   3.315
81215W        W40960  37.530   5.748   3.260
81216W        W40961  10.765  23.159   3.318
81217W        W40962  35.064   1.462  14.368
81218W        W40963  36.974   8.815  14.485
81219W        W40964  32.631  20.703  12.539
81220W        W40965  34.606  28.144  13.827
81221W        W40966   6.425  28.442  13.936
81222W        W40967   2.403  40.441   2.370
81223W        W40968  31.904  42.973   1.213
81224W        W40969  29.449   7.303   2.273
81225W        W40970  29.442  23.574   1.322
81226W        W40971  30.115  31.566  10.957
81227W        W40972  22.097  11.649  13.513
81228W        W40973  27.615  36.470  14.281
81229W        W40974  20.163  20.737  13.338
81230W        W40975  38.409  28.954   3.763
81231W        W40976  44.299  25.077  13.927
81232W        W40977  28.585  42.361   0.381
81233W        W40978   4.829  15.626  10.909
81234W        W40979  12.297  18.577   3.371
81235W        W40980  37.024  36.953   0.834
81236W        W40981   9.217   2.813   2.742
81237W        W40982  34.417  21.748   9.673
81238W        W40983  34.591  42.474   4.259
81239W        W40984   4.791  35.535   2.226
81240W        W40985  28.009  19.585   9.928
81241W        W40986  42.421  38.911   3.676
81242W        W40987  32.013  41.979  11.117
81243W        W40988  41.019  42.469   3.321
81244W        W40989  22.168  37.491  12.886
81245W        W40990   1.943  24.568  14.278
81246W        W40991   2.250  18.704   4.630
81247W        W40992  24.493   5.884  12.393
81248W        W40993   0.393  14.267  11.385
81249W        W40994  25.061  17.678   4.749
81250W        W40995  28.083   7.825  12.888
81251W        W40996  26.485  42.779   5.239
81252W        W40997  25.551  35.574   3.237
81253W        W40998  24.692  12.221   2.194
81254W        W40999  34.378   1.483   4.599
81255W        W41000  41.031  31.464  14.948
81256W        W41001  20.583  28.575  14.811
81257W        W41002   7.206  36.385   4.232
81258W        W41003   4.290  42.435  13.517
81259W        W41004  34.566  29.576   3.822
81260W        W41005  22.537  44.791   3.200
81261W        W41006  38.448  20.596   4.315
81262W        W41007   7.225  18.769   4.745
81263W        W41008  31.408  23.155   3.773
81264W        W41009  11.781  21.088   1.333
81265W        W41010   3.804  15.322  14.282
81266W        W41011   4.920  12.203  14.353
81267W        W41012  15.626  34.955   9.452
81268W        W41013   4.757   9.242   1.741
81269W        W41014  21.110  44.822  13.320
81270W        W41015  19.542  26.545   2.179
81271W        W41016  27.017  36.518  11.472
81272W        W41017  15.310   3.219  13.919
81273W        W41018  36.053   6.201  11.973
81274W        W41019  27.010  13.276   2.844
81275W        W41020   7.177  42.383   2.789
81276W        W41021  21.114  36.873   3.181
81277W        W41022  42.024   5.728  12.390
81278W        W41023  10.868  32.029  13.840
81279W        W41024   3.252  15.677   0.857
81280W        W41025  43.496  30.011  14.425
81281W        W41026   0.263  23.998  13.344
81282W        W41027  17.694  10.708  13.006
81283W        W41028  42.355   4.883  13.327
81284W        W41029  31.981  23.062   0.730
81285W        W41030  17.674  43.976   1.417
81286W        W41031   9.322  36.418  14.464
81287W        W41032  20.692  19.251  14.775
81288W        W41033   0.414  15.666  14.402
81289W        W41034  16.079  33.535   3.180
81290W        W41035   6.869  31.593  14.951
81291W        W41036  15.636  38.908  14.767
81292W        W41037   9.814  39.353   1.913
81293W        W41038   2.347   7.737   2.739
81294W        W41039  10.639  17.121   4.134
81295W        W41040  39.940  37.979  11.098
81296W        W41041  44.415  34.955  14.927
81297W        W41042  14.794  17.137   4.801
81298W        W41043  44.321  38.901  14.987
81299W        W41044  28.113  44.324  11.528
81300W        W41045  17.074   8.190   1.833
81301W        W41046  32.443  42.943  13.951
81302W        W41047   6.317  29.592   3.263
81303W        W41048   0.251   4.775   2.798
81304W        W41049  18.754  34.868   4.200
81305W        W41050  11.680  38.478   3.255
81306W        W41051   2.872  35.959   0.371
81307W        W41052  19.579  31.035  11.533
81308W        W41053   3.829  29.037   1.852
81309W        W41054  38.865   1.881   1.395
81310W        W41055  34.904   2.371   1.723
81311W        W41056  16.265   4.335   4.607
81312W        W41057   6.352   2.364  13.316
81313W        W41058  17.259  38.926   4.157
81314W        W41059   2.379  26.563  14.932
81315W        W41060  25.041   5.752  11.587
81316W        W41061   2.820  27.969   0.342
81317W        W41062  23.733  18.545  14.457
81318W        W41063   7.794   6.238  12.515
81319W        W41064  16.224  32.450   3.723
81320W        W41065  24.707   1.863   2.878
81321W        W41066  35.435  35.553  12.452
81322W        W41067  42.823  13.273   2.696
81323W        W41068  11.653  43.271  13.883
81324W        W41069  33.529  39.056  10.040
81325W        W41070  35.861  15.183  10.958
81326W        W41071  39.555  23.546  13.518
81327W        W41072  17.685  29.503  12.360
81328W        W41073  28.617  26.081   2.290
81329W        W41074  44.824   7.242  10.549
81330W        W41075   9.761  43.860   3.256
81331W        W41076  43.982  38.023  12.944
81332W        W41077  21.647   0.455  13.031
81333W        W41078  42.846  30.944  10.550
81334W        W41079  27.653  41.920  10.919
81335W        W41080   4.325  26.094  12.408
81336W        W41081  28.075  44.336   4.286
81337W        W41082   9.746   2.797   4.177
81338W        W41083   4.927  40.896   0.400
81339W        W41084  43.012   0.967   1.304
81340W        W41085  26.588   2.815  10.633
81341W        W41086   4.731  18.740  11.958
81342W        W41087  20.749  44.975  11.110
81343W        W41088  44.761  19.765   5.191
81344W        W41089  30.498  38.022  11.398
81345W        W41090  24.662  36.057   5.783
81346W        W41091   3.375  37.852   3.192
81347W        W41092  34.007  21.642  13.456
81348W        W41093  39.990  34.055  12.080
81349W        W41094  12.118  12.612   1.828
81350W        W41095  17.132  13.306  10.414
81351W        W41096  18.170  40.988   0.251
81352W        W41097  44.438  12.329  10.509
81353W        W41098  15.662  37.554  13.011
81354W        W41099  30.081  42.967   0.248
81355W        W41100  16.276  14.199  10.543
81356W        W41101  18.222  11.254   3.371
81357W        W41102  31.897  44.443   0.788
81358W        W41103   0.479  35.467   9.436
81359W        W41104  32.409  29.631  14.938
81360W        W41105  21.206  22.700  14.918
81361W        W41106  15.204  24.569   0.416
81362W        W41107  15.821  30.957   2.404
81363W        W41108   6.734  36.535  12.052
81364W        W41109  10.242  15.715   3.271
81365W        W41110  31.954  41.357  14.496
81366W        W41111  21.646  43.842  11.977
81367W        W41112  35.567  14.217  10.637
81368W        W41113  10.830  41.824  13.029
81369W        W41114   7.406  32.970  14.931
81370W        W41115   5.372  43.830  13.024
81371W        W41116  15.681  40.412  11.446
81372W        W41117  19.678  26.076  14.833
81373W        W41118  20.535  37.425   0.277
81374W        W41119  38.916  11.770   2.816
81375W        W41120  31.985   5.733  11.957
81376W        W41121   4.830   6.747  10.914
81377W        W41122   9.856  35.445   2.269
81378W        W41123   1.421  12.340   4.651
81379W        W41124  30.582  31.005  12.048
81380W        W41125  31.055  11.340  10.124
81381W        W41126  29.628  34.383  11.927
81382W        W41127  36.005  18.283  12.832
81383W        W41128  42.500   0.940  13.446
81384W        W41129  20.558  11.236   0.799
81385W        W41130  38.560  34.012  10.546
81386W        W41131  17.291  31.071   2.221
81387W        W41132  31.012  22.165  13.794
81388W        W41133  43.917  10.863  14.440
81389W        W41134  35.882  31.016  13.322
81390W        W41135  32.101  17.619   3.668
81391W        W41136  33.513  13.689  14.809
81392W        W41137  31.149  19.742  14.963
81393W        W41138  33.909  32.527   0.288
81394W        W41139  40.797  39.832   4.652
81395W        W41140  23.167  39.997   0.963
81396W        W41141  36.092  14.334   1.912
81397W        W41142  25.618  30.459   1.734
81398W        W41143  16.647  15.123  12.875
81399W        W41144  14.118  16.567  12.910
81400W        W41145  27.651   4.701  14.425
81401W        W41146  25.142  25.082   3.818
81402W        W41147   7.271   1.464  11.976
81403W        W41148   3.370  29.980  10.157
81404W        W41149   6.751   0.825   1.845
81405W        W41150  23.000  28.071   1.778
81406W        W41151  34.485  27.004  14.000
81407W        W41152  32.458   0.290  12.455
81408W        W41153  41.976  28.127   3.742
81409W        W41154  43.891  20.769   2.415
81410W        W41155   9.860  24.203   2.257
81411W        W41156  23.594  23.985  14.853
81412W        W41157  41.888  31.945  12.010
81413W        W41158  27.145  20.763  13.906
81414W        W41159  12.316  40.364   2.740
81415W        W41160  27.003  37.457   5.198
81416W        W41161  15.200   2.227   0.766
81417W        W41162  29.093   8.340   1.813
81418W        W41163  17.238  35.011  11.884
81419W        W41164  20.131  35.995   3.316
81420W        W41165  24.675  31.516  12.940
81421W        W41166  25.113  38.351  13.328
81422W        W41167  11.324   4.915  12.432
81423W        W41168  12.787  20.091  14.348
81424W        W41169   8.225   8.336   3.253
81425W        W41170   1.920  16.793  10.102
81426W        W41171  44.945  42.016  14.952
81427W        W41172   6.266  42.370  10.438
81428W        W41173   6.300  21.185   4.654
81429W        W41174  15.123  11.834  12.999
81430W        W41175  16.270  41.788   0.474
81431W        W41176   4.741   2.822  11.612
81432W        W41177   8.895  35.890   1.917
81433W        W41178  40.019  35.443   3.850
81434W        W41179  16.779  29.576  11.535
81435W        W41180  16.312  43.488   3.685
81436W        W41181  13.776  42.855   4.790
81437W        W41182  43.978  36.953   3.745
81438W        W41183  31.479   5.405  13.317
81439W        W41184  12.292  27.036  14.407
81440W        W41185  12.170  18.194  10.434
81441W        W41186  13.838  26.489   4.617
81442W        W41187  16.236  11.265   1.230
81443W        W41188  43.398  35.038  11.039
81444W        W41189  33.108   0.359  13.958
81445W        W41190  25.664  38.372  11.122
81446W        W41191  28.047  17.589   0.924
81447W        W41192  22.591   0.950  10.141
81448W        W41193  44.440  27.184  10.444
81449W        W41194  22.174  32.493  11.565
81450W        W41195   7.736   7.896   4.228
81451W        W41196  13.780  18.161  11.858
81452W        W41197  11.729  21.243  12.888
81453W        W41198  44.404  23.039   4.176
81454W        W41199   9.318  18.115  11.006
81455W        W41200  25.520  40.487   0.937
81456W        W41201  14.672  39.410  14.900
81457W        W41202  10.878  33.430  10.913
81458W        W41203   8.278   8.692   2.730
81459W        W41204  42.335  21.107  14.851
81460W        W41205   3.728  12.149   3.674
81461W        W41206  41.032  24.141   0.313
81462W        W41207  23.187  30.529   3.204
81463W        W41208  25.486  33.494  12.963
81464W        W41209  16.234   3.288  14.416
81465W        W41210  40.493  30.085  13.878
81466W        W41211  14.134  43.931  12.949
81467W        W41212  20.162  17.163  13.912
81468W        W41213  15.177  28.455   4.210
81469W        W41214   1.263  24.128   0.454
81470W        W41215  40.831  34.422  13.036
81471W        W41216   0.809  20.233   1.220
81472W        W41217  22.526   4.413  12.503
81473W        W41218   7.347  40.469   0.759
81474W        W41219  29.579  29.465  14.371
81475W        W41220   3.878  21.262  14.288
81476W        W41221  12.692   8.737   2.223
81477W        W41222   2.257  32.505  14.914
81478W        W41223  23.500  32.114  13.876
81479W        W41224  30.102  13.149  13.013
81480W        W41225   8.344  14.820   0.814
81481W        W41226  11.297  31.594  12.887
81482W        W41227   0.966  30.646  13.933
81483W        W41228  24.035   2.807   9.996
81484W        W41229   5.879  12.705   2.877
81485W        W41230  13.296   6.683   2.734
81486W        W41231  36.435  19.701  11.912
81487W        W41232   6.242  34.040   3.771
81488W        W41233  19.210  17.759   4.815
81489W        W41234  16.701  37.871   0.893
81490W        W41235  16.309  31.913  11.942
81491W        W41236  31.917  24.549  14.400
81492W        W41237   4.244  30.118  11.541
81493W        W41238  22.528  21.648  12.405
81494W        W41239  13.763  33.008  13.328
81495W        W41240   0.852  13.716   2.861
81496W        W41241   1.734   4.722   4.240
81497W        W41242  40.510   4.421  14.333
81498W        W41243  34.560  25.683  11.476
81499W        W41244  12.679  11.710   0.823
81500W        W41245  41.958  23.176  11.123
81501W        W41246   1.379   4.904  13.059
81502W        W41247  19.185  13.337  10.931
81503W        W41248  12.719  20.559   0.454
81504W        W41249  18.261  12.309   0.842
81505W        W41250  23.184   4.319   2.262
81506W        W41251   3.910  21.710   2.719
81507W        W41252  43.771   7.732   2.417
81508W        W41253  33.919  30.573   0.795
81509W        W41254  21.092   1.300  13.958
81510W        W41255   2.429   8.662   4.288
81511W        W41256   9.310  39.369   4.222
81512W        W41257  17.732  44.318  11.926
81513W        W41258  19.570  44.365  11.939
81514W        W41259  26.626  27.116   1.756
81515W        W41260  33.552  41.820   1.296
81516W        W41261   9.652   6.685   3.756
81517W        W41262  40.447  23.225   4.241
81518W        W41263   4.777   6.282   5.237
81519W        W41264  26.989  25.974  14.005
81520W        W41265  15.754  39.424   4.344
81521W        W41266  12.160  12.668  14.358
81522W        W41267  41.997   7.893   0.887
81523W        W41268   3.400  38.027  12.890
81524W        W41269  34.906   7.678   0.822
81525W        W41270   6.763  15.730  12.057
81526W        W41271  33.576  38.373  14.469
81527W        W41272  12.802  37.068   2.815
81528W        W41273  41.928  31.040   2.246
81529W        W41274  21.615   4.777   0.831
81530W        W41275   6.203  42.799  14.398
81531W        W41276  33.909  16.274  10.441
81532W        W41277  36.565   2.407  11.578
81533W        W41278  33.051  14.205   1.261
81534W        W41279  11.234   2.729  13.975
81535W        W41280  26.033  35.433   0.315
81536W        W41281   4.444  16.768  10.957
81537W        W41282  19.051  10.844   4.656
81538W        W41283   9.659   7.896  11.474
81539W        W41284  19.759  22.151  13.428
81540W        W41285  21.550  44.898  10.904
81541W        W41286   1.925   9.790   0.332
81542W        W41287  12.301  10.190  11.559
81543W        W41288  37.567  42.324   3.333
81544W        W41289  25.156   7.894  13.795
81545W        W41290  38.075  26.703  12.396
81546W        W41291  43.339  12.747   3.308
81547W        W41292  37.925  27.462   1.714
81548W        W41293  13.152  28.667  14.324
81549W        W41294   4.282  26.625  13.816
81550W        W41295  25.632  23.180   1.385
81551W        W41296  23.574  44.789   2.752
81552W        W41297  10.844  28.142   3.749
81553W        W41298  37.849  37.458  13.829
81554W        W41299   7.830   8.783   0.403
81555W        W41300  16.200   3.420   2.183
81556W        W41301  11.836  44.810  10.918
81557W        W41302   2.429  31.538   3.272
81558W        W41303  18.254  17.671   4.193
81559W        W41304   5.754  37.489   1.749
81560W        W41305   4.268  16.310  13.875
81561W        W41306  36.475  34.987   1.255
81562W        W41307  12.724  31.090  11.492
81563W        W41308  22.548  40.498   4.808
81564W        W41309  26.541  11.825  13.835
81565W        W41310  40.414  21.085  11.380
81566W        W41311   9.266  32.489  13.493
81567W        W41312  23.662  38.555   0.890
81568W        W41313  39.407  37.898   3.322
81569W        W41314  43.423  41.294  10.584
81570W        W41315   5.905  10.686  14.924
81571W        W41316  27.096  43.875   4.293
81572W        W41317  31.152  36.366   4.734
81573W        W41318  22.249  14.679   2.737
81574W        W41319  14.676  13.662  14.477
81575W        W41320  19.593  39.936  11.469
81576W        W41321  12.824  36.061   0.468
81577W        W41322  41.500  22.033   3.679
81578W        W41323  29.527  34.436  12.512
81579W        W41324   6.307  39.825   2.210
81580W        W41325  36.575   1.911   4.680
81581W        W41326   6.777  30.595   2.282
81582W        W41327  28.163  44.380  11.117
81583W        W41328  29.121  25.559  10.905
81584W        W41329   1.944  23.583  14.362
81585W        W41330  27.966  27.966  14.417
81586W        W41331  27.473  42.517  11.053
81587W        W41332  13.662  22.629  11.423
81588W        W41333  42.018   8.803  13.004
81589W        W41334  44.291  35.955   0.253
81590W        W41335  27.973  20.127  10.444
81591W        W41336  18.629  29.998  12.844
81592W        W41337  37.382   7.797   2.785
81593W        W41338  25.550  40.011  13.539
81594W        W41339  32.906  20.540  13.351
81595W        W41340  24.598  26.618  13.966
81596W        W41341  38.468  13.159   2.681
81597W        W41342  18.141  27.485  12.426
81598W        W41343  41.986  15.658   2.715
81599W        W41344  33.574   1.423  11.611
81600W        W41345  26.572  17.753   3.833
81601W        W41346  37.479  16.163  12.531
81602W        W41347  37.844  28.062  12.904
81603W        W41348  43.369  36.566  13.354
81604W        W41349  11.802  14.194   4.699
81605W        W41350  20.199   9.257   2.301
81606W        W41351  31.063   6.239  11.428
81607W        W41352  26.972  22.123  14.440
81608W        W41353  11.211  39.332   4.797
81609W        W41354   8.255  37.416  10.544
81610W        W41355  32.022  12.787  11.490
81611W        W41356   9.301  40.938  12.379
81612W        W41357   3.271  25.073   0.835
81613W        W41358  16.113  18.579  11.563
81614W        W41359  42.428   5.703  13.346
81615W        W41360  16.191  33.539  14.962
81616W        W41361  16.688  36.471   9.934
81617W        W41362  32.597  38.906  11.376
81618W        W41363  29.637   8.399  14.401
81619W        W41364  22.534  44.990  14.308
81620W        W41365  18.549  42.399  12.055
81621W        W41366  44.864  32.130   1.421
81622W        W41367  11.339  10.647  13.976
81623W        W41368  18.711  32.551  10.918
81624W        W41369  30.568  36.379  13.544
81625W        W41370  35.107   3.266   0.759
81626W        W41371  13.615  11.141   1.775
81627W        W41372  44.812   2.353   3.798
81628W        W41373  36.391  43.297   3.215
81629W        W41374  41.497  28.573  13.957
81630W        W41375  44.760  24.225  11.595
81631W        W41376   0.768  13.681   4.309
81632W        W41377   7.235  37.547   1.825
81633W        W41378  31.061   6.790  10.579
81634W        W41379  30.468  20.139   1.828
81635W        W41380   0.855  36.936  14.479
81636W        W41381  33.433  19.103  13.851
81637W        W41382  38.353  41.832   2.301
81638W        W41383  21.259  12.298  12.342
81639W        W41384  43.897  18.094   2.320
81640W        W41385  13.345   1.241   3.813
81641W        W41386  18.754  41.014   3.321
81642W        W41387  41.960   0.893   3.193
81643W        W41388  12.243  43.852  14.944
81644W        W41389  34.866   1.809   4.191
81645W        W41390   2.279  17.691   5.089
81646W        W41391  20.097  13.746  10.064
81647W        W41392  25.100   3.340   5.297
81648W        W41393  11.835  16.691  10.407
81649W        W41394  36.934  12.826   2.277
81650W        W41395  32.016  40.033   3.230
81651W        W41396  14.278  15.774  14.022
81652W        W41397  39.852  32.113   3.863
81653W        W41398  43.311   3.710  12.484
81654W        W41399   2.245  20.671  12.006
81655W        W41400  13.700  11.182   3.697
81656W        W41401  26.098  17.229  13.321
81657W        W41402  20.734  44.274  10.518
81658W        W41403  19.769  13.123  10.984
81659W        W41404  31.989  29.544  11.536
81660W        W41405  33.392  35.428   2.899
81661W        W41406   2.827  25.558  13.341
81662W        W41407  34.594   6.888  10.614
81663W        W41408  11.169   3.307  13.939
81664W        W41409   7.720  29.091  12.057
81665W        W41410  32.491  19.699  11.441
81666W        W41411  27.687  40.461  13.367
81667W        W41412  23.168  31.472  11.892
81668W        W41413  20.762  27.049  10.551
81669W        W41414  17.251  19.232   0.762
81670W        W41415  20.168  22.177  10.419
81671W        W41416  23.196   1.242  12.890
81672W        W41417  38.938  31.559  10.025
81673W        W41418  18.671  38.388   2.811
81674W        W41419   5.737  19.602   0.822
81675W        W41420   0.865  28.056  11.567
81676W        W41421  36.038   5.203  12.389
81677W        W41422  25.676  17.068   2.888
81678W        W41423  42.504   2.434  12.395
81679W        W41424  38.478  16.779   4.155
81680W        W41425  25.003  27.024  13.319
81681W        W41426  26.538   9.753  11.957
81682W        W41427  35.919   1.307   3.290
81683W        W41428  31.033  12.336   0.274
81684W        W41429  31.913  27.065   3.193
81685W        W41430  29.623  16.652  10.635
81686W        W41431  33.470  41.325   0.472
81687W        W41432  33.119  28.437   0.939
81688W        W41433  20.731  31.080   0.481
81689W        W41434   9.778  33.536   4.659
81690W        W41435  23.216  36.514  13.880
81691W        W41436  39.398  18.136   1.877
81692W        W41437   3.941  19.741   1.242
81693W        W41438  44.367  20.108  11.541
81694W        W41439  37.507  20.661   1.264
81695W        W41440  43.858  14.312  11.407
81696W        W41441  35.907  15.165  12.419
81697W        W41442   3.282  44.801  10.626
81698W        W41443  17.564  17.694   1.274
81699W        W41444  31.403  38.996   0.864
81700W        W41445   5.772  29.113   0.846
81701W        W41446   4.918  40.970  12.878
81702W        W41447  21.618  19.618  11.963
81703W        W41448  12.285  40.416  12.933
81704W        W41449   8.205  43.429  11.118
81705W        W41450  44.841   2.801  13.399
81706W        W41451  41.513  19.723  13.404
81707W        W41452  21.696   2.865   0.352
81708W        W41453   6.406  27.607  14.438
81709W        W41454  32.394   6.338  14.940
81710W        W41455  43.884   2.725  13.441
81711W        W41456   2.443  25.084   1.820
81712W        W41457   8.809  26.700  14.407
81713W        W41458  17.798   0.810  12.360
81714W        W41459   2.742  40.404   2.758
81715W        W41460   5.803   5.284  12.573
81716W        W41461  40.475  18.570  12.524
81717W        W41462  31.458  20.625  10.552
81718W        W41463  20.538  29.457   4.690
81719W        W41464   7.264  36.379   2.884
81720W        W41465  28.148  14.811   1.408
81721W        W41466  11.627  12.844  13.032
81722W        W41467   0.916  37.840   0.804
81723W        W41468  39.046  12.841   2.227
81724W        W41469  25.055  32.057  14.473
81725W        W41470  44.474  17.593  10.581
81726W        W41471  42.911  43.510   4.288
81727W        W41472  26.185   5.254   1.926
81728W        W41473  41.006  13.694   1.892
81729W        W41474   7.350  42.019   0.371
81730W        W41475  44.009  14.676   0.744
81731W        W41476   6.776  10.217   0.860
81732W        W41477  21.533   5.889   0.409
81733W        W41478   1.321  43.963   0.357
81734W        W41479  24.032  33.412   4.669
81735W        W41480  24.610  19.696  11.857
81736W        W41481   5.806  40.833   1.813
81737W        W41482  19.694   1.893  12.464
81738W        W41483   4.871  10.709  11.611
81739W        W41484  35.943  16.262  10.462
81740W        W41485   2.965  24.085  12.974
81741W        W41486  23.213  23.018  12.404
81742W        W41487  18.786  13.649   1.924
81743W        W41488   0.251  42.804  10.931
81744W        W41489  35.598   2.292  11.464
81745W        W41490  25.509   4.232  13.957
81746W        W41491  26.025  15.762  12.887
81747W        W41492  19.556  40.387  14.919
81748W        W41493  41.311  12.785  13.498
81749W        W41494  32.138   8.234   3.152
81750W        W41495   4.353  24.514  10.923
81751W        W41496  27.974  29.951   4.344
81752W        W41497  17.072   8.700  12.868
81753W        W41498  17.090  40.513  11.471
81754W        W41499   3.227  10.152  10.446
81755W        W41500  11.246  26.046  11.935
81756W        W41501  11.714  29.992   2.247
81757W        W41502  37.007  44.891   3.815
81758W        W41503  36.352   7.738   0.763
81759W        W41504  23.007  15.612   3.750
81760W        W41505  15.725   1.370   1.882
81761W        W41506  34.005  23.544  12.023
81762W        W41507   8.850  42.321   4.271
81763W        W41508   2.232  22.223  10.589
81764W        W41509  36.844  30.995  13.480
81765W        W41510  16.665  27.111   2.805
81766W        W41511  28.608  37.382  13.822
81767W        W41512  28.485  10.353   3.690
81768W        W41513  30.914  28.962   1.850
81769W        W41514  14.717  25.165  12.892
81770W        W41515  27.467  36.387  11.857
81771W        W41516  43.838  16.226   1.923
81772W        W41517  14.172  22.084   2.779
81773W        W41518  23.594  44.793   4.167
81774W        W41519  38.008  20.164  10.464
81775W        W41520  39.369  34.960   1.278
81776W        W41521  13.753  40.503   3.814
81777W        W41522  22.246   5.826  11.569
81778W        W41523   1.393   1.973   1.761
81779W        W41524  16.206  12.649  14.345
81780W        W41525  22.564  15.249   3.266
81781W        W41526  33.541  33.015   1.353
81782W        W41527   0.360  23.122  12.408
81783W        W41528  35.019   9.652  11.950
81784W        W41529  41.402   7.351   2.258
81785W        W41530   2.937  16.723  14.775
81786W        W41531  34.473   8.266  12.984
81787W        W41532  22.647  24.147  13.312
81788W        W41533   7.839  25.514  13.545
81789W        W41534  22.640   0.259   2.185
81790W        W41535   0.282   1.786   4.148
81791W        W41536  35.939  42.513   0.850
81792W        W41537  24.192  19.600   2.211
81793W        W41538  30.060   6.792   1.894
81794W        W41539  37.923  29.956  12.877
81795W        W41540   3.376  25.663   3.682
81796W        W41541  13.305  42.368  12.974
81797W        W41542  26.692  29.637   0.279
81798W        W41543   9.681  12.785   1.381
81799W        W41544   9.375   3.907  12.089
81800W        W41545  21.037  43.401   2.776
81801W        W41546  33.525   2.434  11.964
81802W        W41547   1.252   8.671   3.782
81803W        W41548  12.639  40.023   2.869
81804W        W41549   8.733   8.739  13.015
81805W        W41550  12.118  43.789   4.159
81806W        W41551  18.252  23.111  10.416
81807W        W41552  18.110  41.333   0.744
81808W        W41553  20.707  10.291  13.384
81809W        W41554  44.939  40.523   3.685
81810W        W41555   6.301   6.737   3.718
81811W        W41556  29.017  16.705   0.839
81812W        W41557   6.197  29.052  11.018
81813W        W41558  30.041  10.332  13.874
81814W        W41559   6.923   5.873   2.387
81815W        W41560   9.349   0.363  13.014
81816W        W41561  21.125  42.495  13.858
81817W        W41562  10.651   9.192   0.323
81818W        W41563  17.094  25.699   4.204
81819W        W41564  38.874  27.635  12.339
81820W        W41565  42.361   7.255   2.774
81821W        W41566  20.137   6.875   3.215
81822W        W41567  22.235  43.011  10.463
81823W        W41568  14.663  18.083  12.558
81824W        W41569  10.158  17.590  13.045
81825W        W41570  38.428  43.840   1.236
81826W        W41571  13.646  35.941   2.368
81827W        W41572   8.790  10.774  10.947
81828W        W41573  36.412  36.971  14.433
81829W        W41574   5.309  17.160   1.822
81830W        W41575   0.462   5.878  12.465
81831W        W41576  42.890  42.312  11.002
81832W        W41577  17.072  22.632   2.289
81833W        W41578  43.489  38.409  14.911
81834W        W41579   3.723   0.286  12.986
81835W        W41580   9.846   6.732   1.795
81836W        W41581  24.042  18.152  13.369
81837W        W41582   8.803  13.325  13.535
81838W        W41583  42.927  29.034  14.939
81839W        W41584   0.283  14.143  10.411
81840W        W41585  22.608   4.268   4.193
81841W        W41586  30.483  28.186   1.894
81842W        W41587  33.486  10.796  10.996
81843W        W41588   3.884  42.304   2.359
81844W        W41589   0.950  41.791   1.265
81845W        W41590   3.933   8.272   0.436
81846W        W41591  23.045  12.136  14.870
81847W        W41592  20.224  40.545   2.275
81848W        W41593  39.006  16.134   2.280
81849W        W41594  13.620  35.078  14.482
81850W        W41595  12.646  12.679  14.282
81851W        W41596  27.195   4.856  14.399
81852W        W41597  22.649  14.195  13.848
81853W        W41598  14.730  19.775   0.732
81854W        W41599  38.038  27.101   2.274
81855W        W41600  36.993  32.117  12.431
81856W        W41601  31.616   8.786  14.411
81857W        W41602  29.966  13.804  11.927
81858W        W41603  12.725  12.309  11.485
81859W        W41604   4.846  31.000  13.830
81860W        W41605  14.263  36.444   0.745
81861W        W41606   5.802  17.663   9.466
81862W        W41607  17.092  15.582   0.276
81863W        W41608  34.009  42.370   0.853
81864W        W41609   4.891  12.314  12.083
81865W        W41610   6.788   6.232  14.945
81866W        W41611  39.828  42.814   4.140
81867W        W41612  35.520   0.347  10.628
81868W        W41613  43.504   1.872  10.487
81869W        W41614   7.730   3.813  14.371
81870W        W41615  10.366  43.915  13.890
81871W        W41616  31.550   4.862  11.549
81872W        W41617  16.101  27.572  12.421
81873W        W41618   8.362  16.173  12.368
81874W        W41619  18.186  40.504  14.780
81875W        W41620  30.003  12.717   2.319
81876W        W41621   5.377  20.650  10.933
81877W        W41622  32.947  11.182  11.508
81878W        W41623  18.753  24.027   3.381
81879W        W41624   8.755  39.986  14.424
81880W        W41625  20.587  23.101  12.036
81881W        W41626  23.663  25.194  13.866
81882W        W41627  25.589  30.035   0.834
81883W        W41628  42.950   6.193  12.094
81884W        W41629   7.825  29.061  12.402
81885W        W41630  12.690  43.285   2.370
81886W        W41631  36.573  41.926  14.318
81887W        W41632  27.122  34.930  12.034
81888W        W41633  32.009  21.640  14.461
81889W        W41634  31.965   3.292  12.074
81890W        W41635  21.545  13.280  11.065
81891W        W41636  42.022  30.066  12.349
81892W        W41637  17.181  11.639  13.464
81893W        W41638  17.575  37.864   0.439
81894W        W41639  33.588  15.151   2.871
81895W        W41640  44.423  31.973   2.234
81896W        W41641  35.022  39.827  12.053
81897W        W41642  14.266  40.514   2.275
81898W        W41643  25.111  32.409  14.002
81899W        W41644  32.418   9.184   1.233
81900W        W41645   7.381  44.332   4.688
81901W        W41646  26.654  37.451  10.498
81902W        W41647  37.840  28.086  11.492
81903W        W41648  22.570  40.979  11.037
81904W        W41649  43.914   4.808   1.710
81905W        W41650  28.490  18.108  14.296
81906W        W41651  31.422  27.051   3.698
81907W        W41652  19.043  42.940   1.246
81908W        W41653  38.384  37.361   4.141
81909W        W41654  20.271  10.290   1.304
81910W        W41655   7.184   2.783   4.751
81911W        W41656  16.687  42.827   1.778
81912W        W41657  23.631  20.166   0.800
81913W        W41658  32.512  25.140   2.760
81914W        W41659   3.761   0.977   2.195
81915W        W41660   1.835  20.065   3.381
81916W        W41661  15.807  30.001   0.877
81917W        W41662  20.705  25.131  13.470
81918W        W41663   7.747   0.301   1.268
81919W        W41664   6.213  38.421   3.227
81920W        W41665  33.538  37.032  13.825
81921W        W41666  39.323   6.351  13.463
81922W        W41667  29.545  13.726  14.469
81923W        W41668  23.725   5.859  14.413
81924W        W41669  21.732  30.116  11.493
81925W        W41670  14.232  17.146  11.384
81926W        W41671  33.888  36.966   0.296
81927W        W41672  23.517  23.028  14.914
81928W        W41673   5.335  38.979  14.777
81929W        W41674  28.625  31.963   0.963
81930W        W41675  43.956  40.410  14.856
81931W        W41676  29.003  37.925   0.481
81932W        W41677  10.670  17.304  11.116
81933W        W41678  42.820   6.719   3.728
81934W        W41679  12.244  28.097   1.219
81935W        W41680  40.460  40.485  10.640
81936W        W41681  43.488  37.385   3.658
81937W        W41682  21.566  43.310  14.992
81938W        W41683  10.798  27.112   2.869
81939W        W41684  28.993  23.071  11.453
81940W        W41685  23.036   5.354  14.804
81941W        W41686   6.923  40.479  13.408
81942W        W41687  36.916   0.260   3.362
81943W        W41688  10.847  35.528   1.796
81944W        W41689  44.292  30.945  12.341
81945W        W41690  13.106  26.504   4.700
81946W        W41691  36.552   3.918  13.547
81947W        W41692  30.994  24.027   3.173
81948W        W41693  10.732   9.868   1.785
81949W        W41694  22.554  10.249   2.245
81950W        W41695  28.580  37.425   1.410
81951W        W41696  12.230   9.287   1.365
81952W        W41697  21.576   6.711  13.500
81953W        W41698   1.841  27.036  14.313
81954W        W41699   7.905  44.906   1.334
81955W        W41700  14.809  43.816  11.100
81956W        W41701  38.557   9.205  12.339
81957W        W41702  35.867   1.482   1.335
81958W        W41703   4.436  22.079   2.670
81959W        W41704  38.543  40.967  13.490
81960W        W41705   0.901  32.621  13.862
81961W        W41706   3.825  42.907  14.360
81962W        W41707  14.679   4.246   2.724
81963W        W41708  14.187  30.918  10.543
81964W        W41709  29.431  27.085   4.695
81965W        W41710   8.360   2.800   2.251
81966W        W41711   9.390   0.894  13.401
81967W        W41712  18.201  33.918  12.942
81968W        W41713  27.591   6.363  12.837
81969W        W41714   5.888   5.747  11.034
81970W        W41715  41.489   2.471  12.018
81971W        W41716   7.395  22.218  12.966
81972W        W41717  15.258  24.024   1.805
81973W        W41718  40.855   4.283  12.827
81974W        W41719  27.956  27.629   4.195
81975W        W41720  17.801   7.738   0.744
81976W        W41721  41.789  32.401  12.551
81977W        W41722  38.870  32.020   1.451
81978W        W41723   2.324  33.071  13.844
81979W        W41724  36.985  36.063  11.494
81980W        W41725  27.951  37.017  13.913
81981W        W41726   2.365  11.826  13.017
81982W        W41727  13.643  20.544   3.273
81983W        W41728  42.422  15.642   3.223
81984W        W41729  35.101  18.550   1.324
81985W        W41730  17.077  39.873   2.361
81986W        W41731   1.284  35.529  11.049
81987W        W41732  13.350  40.323   1.782
81988W        W41733  39.368  44.443  12.982
81989W        W41734  29.127  22.600  14.279
81990W        W41735  23.590   0.831  11.915
81991W        W41736  12.292  33.899  12.462
81992W        W41737  39.007   0.749  14.893
81993W        W41738  24.690   2.740  14.874
81994W        W41739  13.845  17.238   1.413
81995W        W41740   7.908   3.383  14.367
81996W        W41741  35.456  35.464  13.914
81997W        W41742   3.409  19.078  11.526
81998W        W41743  37.851  28.651   1.229
81999W        W41744   0.372  19.754   3.745
82000W        W41745   0.804  28.102   9.549
82001W        W41746   8.830  23.011   4.129
82002W        W41747   2.946  11.141  12.016
82003W        W41748  43.973  17.198   1.280
82004W        W41749   7.295  26.063   2.357
82005W        W41750  14.680  13.685  10.415
82006W        W41751  44.939  38.912  13.015
82007W        W41752  21.091  13.634  11.066
82008W        W41753  41.031  14.826  12.972
82009W        W41754   5.907   1.346   3.814
82010W        W41755  21.535  26.208   2.742
82011W        W41756   0.772  32.903   3.731
82012W        W41757   3.221  35.538   0.347
82013W        W41758  35.483   7.755  12.902
82014W        W41759  38.832  15.745  12.365
82015W        W41760   8.173  16.774  11.417
82016W        W41761   1.745  42.847  13.312
82017W        W41762  14.673  34.109  12.487
82018W        W41763  32.582  22.051  12.877
82019W        W41764  35.011  11.756  10.957
82020W        W41765  11.212  42.832  14.966
82021W        W41766  43.300  19.768   0.752
82022W        W41767  38.858  35.535   1.772
82023W        W41768  29.643  43.327   0.315
82024W        W41769   4.370  13.771   1.857
82025W        W41770  14.158  40.833   4.261
82026W        W41771  10.361  38.855   0.833
82027W        W41772   1.821  20.146   2.378
82028W        W41773  35.014  12.642   3.863
82029W        W41774  25.691  11.629   4.124
82030W        W41775  24.478  27.458   3.763
82031W        W41776  44.889   5.773   2.222
82032W        W41777  23.008  39.434  14.833
82033W        W41778   7.307  37.499  12.900
82034W        W41779  18.640  33.501   5.220
82035W        W41780  22.091  24.568  13.861
82036W        W41781   0.336  35.102  10.588
82037W        W41782  18.614   1.919  10.898
82038W        W41783  21.563   8.362  14.923
82039W        W41784  42.945   6.220   0.772
82040W        W41785  34.102  44.917   1.404
82041W        W41786  25.581  38.479  10.564
82042W        W41787  17.748  26.554  12.544
82043W        W41788  42.013  38.046   3.751
82044W        W41789  13.184   3.882   3.776
82045W        W41790  22.173   4.397  12.911
82046W        W41791  14.278  20.244   0.252
82047W        W41792  10.697   2.354   1.711
82048W        W41793   8.860  37.552  11.931
82049W        W41794   5.822  29.481  10.972
82050W        W41795   3.457  35.023  10.527
82051W        W41796  34.891  18.721  13.832
82052W        W41797   5.422   0.311  13.826
82053W        W41798  15.607  34.454  11.056
82054W        W41799  14.758  20.539  11.455
82055W        W41800   4.817   9.788   1.872
82056W        W41801  32.130   8.380   2.839
82057W        W41802  28.470   2.835  11.030
82058W        W41803   1.384  13.259   3.660
82059W        W41804   3.454  31.641   0.816
82060W        W41805  37.477  41.803  11.096
82061W        W41806   8.239  36.408  11.876
82062W        W41807   5.783   3.216  11.976
82063W        W41808  39.403  41.899   0.765
82064W        W41809  31.497   6.406   0.417
82065W        W41810   6.361   0.427   4.640
82066W        W41811  27.665  14.105   3.221
82067W        W41812  40.394  12.709  10.625
82068W        W41813  11.731  31.051   1.402
82069W        W41814   6.830  15.587  11.539
82070W        W41815  34.899  26.096   2.301
82071W        W41816  38.897  15.109   3.704
82072W        W41817  29.488   0.812  13.487
82073W        W41818  25.622  22.034  11.430
82074W        W41819  30.510  32.117   2.324
82075W        W41820  32.463  18.714   3.646
82076W        W41821   4.802  27.683   1.895
82077W        W41822  11.224  23.088   4.671
82078W        W41823   1.247  28.599  11.430
82079W        W41824  28.992  19.243   3.661
82080W        W41825   1.978   7.275  14.914
82081W        W41826  17.687  16.671  13.541
82082W        W41827  21.532   9.221   3.829
82083W        W41828  35.972  27.992   3.227
82084W        W41829  35.405  40.832   3.270
82085W        W41830   4.400  37.564   5.246
82086W        W41831  36.883  31.957   4.251
82087W        W41832  39.331  39.941   2.244
82088W        W41833  39.898  25.215  14.442
82089W        W41834  32.584  17.294  12.899
82090W        W41835  42.855  32.013  11.517
82091W        W41836  32.915  35.443   4.688
82092W        W41837   5.840  31.413   3.781
82093W        W41838   2.884  27.664  11.095
82094W        W41839  34.901  12.720  12.358
82095W        W41840   5.794  33.112   0.847
82096W        W41841  16.087   9.856   2.348
82097W        W41842  32.595  22.112  11.062
82098W        W41843  33.426  20.528  11.975
82099W        W41844  28.065   9.372   3.277
82100W        W41845  28.477  15.802   4.602
82101W        W41846  38.074  39.905   2.816
82102W        W41847  21.122  13.659   1.917
82103W        W41848  17.667  40.972  10.630
82104W        W41849  23.632   3.837   3.805
82105W        W41850   8.395  14.632   1.710
82106W        W41851   3.831  44.297  12.081
82107W        W41852  39.001  23.733  10.532
82108W        W41853   4.235  28.073   0.464
82109W        W41854  42.810   9.851  13.907
82110W        W41855  12.762  19.131  11.912
82111W        W41856  19.284  31.146   2.821
82112W        W41857  19.572  29.145   3.758
82113W        W41858   9.676  37.461  14.886
82114W        W41859  13.678  26.064  13.487
82115W        W41860  27.533   8.831   2.296
82116W        W41861  27.498  42.919   0.819
82117W        W41862  25.032  14.212  11.547
82118W        W41863  21.144  25.507  11.533
82119W        W41864  22.568  37.494  12.092
82120W        W41865   0.334  40.315   0.295
82121W        W41866  14.146  42.974  11.094
82122W        W41867  36.049  18.163  13.439
82123W        W41868  35.416   6.761  13.838
82124W        W41869  27.146  15.275  13.447
82125W        W41870  19.126   9.783   1.402
82126W        W41871  11.269  37.506  12.967
82127W        W41872   4.735  40.915   3.270
82128W        W41873  33.963  30.643   2.403
82129W        W41874  32.600  33.920   4.651
82130W        W41875   8.889  11.143  14.799
82131W        W41876  21.219  29.030   3.772
82132W        W41877  38.998   8.826   3.839
82133W        W41878  19.273  38.477  10.894
82134W        W41879  39.476  26.050   4.258
82135W        W41880  27.091  29.159  11.394
82136W        W41881  18.124  34.074   0.433
82137W        W41882  24.991  22.598  12.349
82138W        W41883   3.843  19.545  14.312
82139W        W41884  10.377  42.972  12.347
82140W        W41885  39.906   1.967   0.774
82141W        W41886  44.763  40.897   4.833
82142W        W41887  36.063  14.642  10.434
82143W        W41888   9.745  25.694  10.600
82144W        W41889  44.392  38.559   2.326
82145W        W41890  30.587   3.745   4.630
82146W        W41891  21.169   7.668  11.505
82147W        W41892   7.910  29.081   3.344
82148W        W41893   2.781  14.323  11.470
82149W        W41894   9.659  38.343  10.449
82150W        W41895   4.224  31.115  13.835
82151W        W41896  32.508   5.258  12.063
82152W        W41897  25.517  16.670   5.091
82153W        W41898  37.833  33.992  14.376
82154W        W41899  26.494  34.572  10.408
82155W        W41900   6.233  41.446   2.335
82156W        W41901  18.636   2.468  12.988
82157W        W41902  37.457  23.197   0.417
82158W        W41903  20.727  13.106   0.855
82159W        W41904   4.354   1.741  11.401
82160W        W41905  17.607  37.506  13.487
82161W        W41906  10.787   8.337  12.535
82162W        W41907  37.526  40.918   2.197
82163W        W41908  35.454   9.731  12.544
82164W        W41909  38.832  37.920  14.001
82165W        W41910  29.924  25.990  12.409
82166W        W41911  27.504  44.898   0.941
82167W        W41912   3.830  13.130  12.457
82168W        W41913  11.245   4.275  13.858
82169W        W41914  12.273  32.005  13.924
82170W        W41915  13.341  22.522  11.110
82171W        W41916   6.387  18.181  10.937
82172W        W41917  31.445  43.835  13.981
82173W        W41918  36.412  15.579   4.283
82174W        W41919   8.330   2.424  14.890
82175W        W41920  17.156  42.909  11.969
82176W        W41921  41.952  44.754   0.841
82177W        W41922  31.113  23.091  13.044
82178W        W41923  24.138   1.331  13.928
82179W        W41924  37.401  15.329  11.057
82180W        W41925  33.032  29.570  12.922
82181W        W41926  21.609   6.688   3.821
82182W        W41927  21.605  44.786  11.941
82183W        W41928  41.336  21.683   0.474
82184W        W41929  10.218   4.861   3.181
82185W        W41930   2.371  10.358  10.902
82186W        W41931   5.688  38.480  14.901
82187W        W41932  27.090  15.737   9.544
82188W        W41933  28.457  22.738   4.161
82189W        W41934  13.781   6.313  14.780
82190W        W41935   6.409  29.609  11.100
82191W        W41936   8.771  39.038  13.320
82192W        W41937   9.814  31.406   3.631
82193W        W41938  40.308  41.453   2.831
82194W        W41939  13.170   4.255  14.823
82195W        W41940  21.201  30.072  12.884
82196W        W41941   7.302  21.021   0.849
82197W        W41942  16.162   8.337  12.961
82198W        W41943  42.328   8.782  12.515
82199W        W41944  22.127  11.154   3.339
82200W        W41945  13.134   6.339  13.001
82201W        W41946   8.290   8.307  10.974
82202W        W41947  20.073  38.411   2.258
82203W        W41948  30.585  34.963   3.169
82204W        W41949   1.734   3.752  12.488
82205W        W41950  43.771   1.269   2.882
82206W        W41951  24.492   1.473   1.740
82207W        W41952  42.807  26.528   0.775
82208W        W41953  16.602  10.688   1.270
82209W        W41954   4.277   9.206  10.911
82210W        W41955   8.394  29.506   4.733
82211W        W41956  43.844  33.886   3.722
82212W        W41957  23.106  11.173   3.160
82213W        W41958  35.478   3.334   3.864
82214W        W41959  19.772  31.577   2.217
82215W        W41960  17.633  13.739   0.804
82216W        W41961   2.455  23.185  13.360
82217W        W41962   5.898  42.967   2.357
82218W        W41963  38.530  34.492   3.826
82219W        W41964  35.416  39.915  12.920
82220W        W41965  21.642   4.251  13.424
82221W        W41966   0.851  30.151   3.308
82222W        W41967   0.356   2.396  14.032
82223W        W41968  35.028   8.368  14.769
82224W        W41969   0.836  30.600   1.765
82225W        W41970  31.459  31.088   0.280
82226W        W41971   3.217  15.169  14.370
82227W        W41972  16.623  11.325  11.051
82228W        W41973  23.731   8.193   2.326
82229W        W41974  26.041   8.224   1.709
82230W        W41975  28.026  24.188   1.701
82231W        W41976  33.042  26.006   4.174
82232W        W41977  27.970   8.199  11.418
82233W        W41978  17.674   7.286  11.009
82234W        W41979  35.915  14.661   1.319
82235W        W41980  21.624   5.720  13.514
82236W        W41981  43.861  34.968   0.303
82237W        W41982  42.028  31.146   3.194
82238W        W41983   8.258  34.954  12.392
82239W        W41984  40.939  28.438  10.562
82240W        W41985  26.467  34.532   3.386
82241W        W41986  16.075   2.829   3.636
82242W        W41987   6.316  19.707  11.605
82243W        W41988  24.230  14.654   1.373
82244W        W41989  43.515  42.427  13.834
82245W        W41990   2.251  43.437  12.056
82246W        W41991  28.164   6.197  14.356
82247W        W41992   4.422  22.703   4.697
82248W        W41993   6.226  30.425   5.145
82249W        W41994  44.394   6.393   5.202
82250W        W41995  16.247  11.622   0.406
82251W        W41996  28.579  34.440  13.853
82252W        W41997  28.070  40.014  11.087
82253W        W41998   5.354   6.361  12.574
82254W        W41999  35.041  17.077   1.850
82255W        W42000  22.641  25.983  11.967
82256W        W42001   4.728   1.401   0.256
82257W        W42002  11.326  11.272  13.365
82258W        W42003  43.873  14.148  12.913
82259W        W42004   6.830   2.802  13.990
82260W        W42005  22.098  28.531  13.388
82261W        W42006  38.509  33.565  12.457
82262W        W42007  33.436  14.781  12.019
82263W        W42008  26.702  20.075   2.742
82264W        W42009  44.785  33.565  12.829
82265W        W42010  22.504  21.756   2.718
82266W        W42011   3.307   0.266  13.466
82267W        W42012  35.473  29.035   1.258
82268W        W42013  30.439  18.626  13.950
82269W        W42014  18.644  19.770   3.749
82270W        W42015  34.479   2.417   0.792
82271W        W42016  41.333   9.882  12.981
82272W        W42017   0.907  24.542   1.740
82273W        W42018  39.426   0.904   0.249
82274W        W42019  37.553  27.144  10.415
82275W        W42020  14.213  19.096  14.961
82276W        W42021  21.599  15.132   2.745
82277W        W42022  18.158  37.569  12.546
82278W        W42023  36.075  26.095   1.398
82279W        W42024  26.596  16.764  13.315
82280W        W42025  40.959   0.802   3.857
82281W        W42026   3.871  28.488   9.947
82282W        W42027  34.889  44.504   4.213
82283W        W42028   2.900  12.256   3.295
82284W        W42029  39.824  41.332   0.943
82285W        W42030  44.360  31.432   3.669
82286W        W42031  34.452   5.692   3.341
82287W        W42032   3.770  11.168  12.382
82288W        W42033  27.971  28.065   4.128
82289W        W42034  26.042  11.635   4.237
82290W        W42035  38.011  39.867  11.549
82291W        W42036   0.392  14.825  10.444
82292W        W42037  38.015   8.781   0.845
82293W        W42038  27.474  17.738  11.116
82294W        W42039  29.638  38.384  11.100
82295W        W42040  40.453  19.693  11.077
82296W        W42041  26.682  24.707  12.527
82297W        W42042  13.142   3.425   3.702
82298W        W42043  36.456   4.832   3.839
82299W        W42044   8.859   5.425  14.288
82300W        W42045  13.129  38.395  11.601
82301W        W42046  39.316   4.240   3.683
82302W        W42047  33.417  16.754  10.147
82303W        W42048   5.784  12.221   4.604
82304W        W42049  25.567  44.857   3.293
82305W        W42050   8.192  21.245  10.543
82306W        W42051   6.706  18.200  13.377
82307W        W42052  28.546  23.492   2.263
82308W        W42053  23.664   7.837   3.826
82309W        W42054   0.349  24.499   3.260
82310W        W42055  40.805  37.055  10.965
82311W        W42056   9.697  13.256  10.608
82312W        W42057  39.508  14.120   4.809
82313W        W42058  41.029   7.705  12.936
82314W        W42059  43.390  21.055  12.462
82315W        W42060  25.576  28.664   2.752
82316W        W42061  18.244   0.290   0.879
82317W        W42062  15.686  34.053   0.820
82318W        W42063   8.406  26.007   2.703
82319W        W42064  38.834   4.217   2.351
82320W        W42065  44.269  29.657   1.869
82321W        W42066  10.801  11.631   1.836
82322W        W42067  30.971  10.675  14.022
82323W        W42068  13.284   5.924  13.979
82324W        W42069   5.709  33.975   0.243
82325W        W42070   5.751  37.450  12.529
82326W        W42071  12.834  17.775   3.311
82327W        W42072  36.525  42.807   1.271
82328W        W42073  22.194   3.359   2.759
82329W        W42074  39.527  22.699  12.020
82330W        W42075  18.676  12.710   2.387
82331W        W42076  18.650  12.642   4.815
82332W        W42077   9.263  34.451  14.772
82333W        W42078  11.296  19.092   3.212
82334W        W42079  11.293  22.153  11.530
82335W        W42080  30.078   7.245   3.187
82336W        W42081  24.991  40.041   1.344
82337W        W42082  19.668  41.894  11.003
82338W        W42083   4.732  38.901  13.500
82339W        W42084  36.026  24.035   0.752
82340W        W42085  30.918   4.802  10.978
82341W        W42086  26.603  32.013   4.346
82342W        W42087  29.513   8.300  13.837
82343W        W42088   2.315   8.206  12.838
82344W        W42089  35.378  24.204  13.503
82345W        W42090  15.747  10.843  13.998
82346W        W42091  29.106   3.734  14.389
82347W        W42092  34.944  25.637  10.930
82348W        W42093  44.940  29.556   0.244
82349W        W42094  39.463   2.241  13.354
82350W        W42095  43.516  37.387  11.885
82351W        W42096  19.680  20.562  12.921
82352W        W42097   6.871  24.025   3.637
82353W        W42098   5.303  22.099  13.392
82354W        W42099  40.321  18.606   3.865
82355W        W42100  29.633  26.616  13.361
82356W        W42101   5.384  29.511   1.821
82357W        W42102  27.675   4.895   5.183
82358W        W42103  40.891  19.594   3.238
82359W        W42104  44.348  10.320   9.931
82360W        W42105  43.871   7.874   0.965
82361W        W42106  24.052  22.212  10.536
82362W        W42107   2.899   8.364  13.837
82363W        W42108  15.585  37.975  10.932
82364W        W42109  13.699   2.758  13.330
82365W        W42110   8.887  20.256  12.342
82366W        W42111  16.172  34.884  11.050
82367W        W42112   3.298   8.204   3.155
82368W        W42113  34.872  43.365   3.363
82369W        W42114  21.533  40.535   2.856
82370W        W42115  11.175  33.996  13.367
82371W        W42116  11.708  22.142   4.645
82372W        W42117  33.979  27.456  11.027
82373W        W42118   7.792  13.651  13.446
82374W        W42119  37.057  24.710  12.913
82375W        W42120   5.225  37.998  14.793
82376W        W42121  18.597  29.937   3.375
82377W        W42122  10.237  23.216  10.616
82378W        W42123  43.998  30.164   0.274
82379W        W42124  11.798  25.069   3.759
82380W        W42125  41.988  28.505   0.859
82381W        W42126  17.703  27.004   4.739
82382W        W42127  13.169   4.283  13.478
82383W        W42128  20.766  43.309   2.697
82384W        W42129  35.096   0.886  14.876
82385W        W42130  10.225  24.567   2.290
82386W        W42131  28.458  16.284  14.979
82387W        W42132  32.495  30.963   1.837
82388W        W42133  33.543  23.705   3.650
82389W        W42134  27.973  38.345  12.528
82390W        W42135  23.661  32.964  11.431
82391W        W42136  34.431  23.691   4.787
82392W        W42137  37.042  26.158   0.354
82393W        W42138  44.308  27.019  12.977
82394W        W42139  12.260  43.879  13.808
82395W        W42140  12.780  15.131  11.008
82396W        W42141  14.253  34.976   2.880
82397W        W42142  32.420  36.435  11.458
82398W        W42143  40.341  42.327   2.401
82399W        W42144   4.791   8.358   2.836
82400W        W42145  18.706  29.461  13.324
82401W        W42146  20.159  14.696  13.037
82402W        W42147   6.834  39.811  14.024
82403W        W42148  26.030  27.526   1.812
82404W        W42149  17.198   2.436   2.397
82405W        W42150  22.126  35.545  13.049
82406W        W42151  33.983  25.012   0.350
82407W        W42152   6.845  32.517  11.076
82408W        W42153  39.824  18.103  13.057
82409W        W42154  16.597   5.875   0.263
82410W        W42155  30.970  30.621   2.351
82411W        W42156   4.719  12.831   4.626
82412W        W42157  28.595  31.477  14.957
82413W        W42158  12.257   4.280  12.363
82414W        W42159  26.171   8.710  10.081
82415W        W42160  32.538  43.420  10.596
82416W        W42161  40.885  38.932  12.345
82417W        W42162  27.616  30.531  12.858
82418W        W42163  38.914  25.118  11.043
82419W        W42164  11.266   4.795   4.261
82420W        W42165   5.840  22.027  14.421
82421W        W42166  28.561  29.162   3.238
82422W        W42167  27.149  44.347  11.881
82423W        W42168  44.363  37.517  11.904
82424W        W42169   2.722  31.143  12.364
82425W        W42170   6.397   6.228  13.440
82426W        W42171  20.187   6.910   1.775
82427W        W42172  30.421  43.848  12.420
82428W        W42173  12.794  33.536  13.874
82429W        W42174   1.349  20.594   0.427
82430W        W42175  20.164  32.920  12.368
82431W        W42176   6.839   1.241  11.409
82432W        W42177  23.601  43.886   3.702
82433W        W42178  34.028   4.767   3.718
82434W        W42179  38.980  40.855   3.345
82435W        W42180  22.234  10.141  10.418
82436W        W42181   9.227  33.925  11.576
82437W        W42182  29.523  14.814   2.815
82438W        W42183  16.084  40.361  12.022
82439W        W42184  20.530  31.064   5.739
82440W        W42185   7.308  37.466  10.626
82441W        W42186  12.682  32.894  10.963
82442W        W42187  18.066  27.592   3.855
82443W        W42188  18.666  28.434   1.870
82444W        W42189  43.373  36.995   9.644
82445W        W42190  30.930  13.344   2.280
82446W        W42191  10.686  27.993  13.309
82447W        W42192  15.098  31.003  12.912
82448W        W42193   0.776  28.161   2.728
82449W        W42194   3.922  30.472  10.084
82450W        W42195   1.789   7.271   2.374
82451W        W42196  27.515  36.029   3.156
82452W        W42197   4.298  38.421   0.750
82453W        W42198   5.903  42.408   3.637
82454W        W42199  34.588  36.942   3.820
82455W        W42200  17.106  23.592  11.428
82456W        W42201  42.796  30.535   2.193
82457W        W42202   3.739  19.092   2.801
82458W        W42203  24.037  40.929   4.799
82459W        W42204  44.346  22.204   3.730
82460W        W42205  13.180  16.224  14.762
82461W        W42206  30.487  27.043   1.420
82462W        W42207  31.612  18.724  13.433
82463W        W42208  16.144  23.696  14.424
82464W        W42209  14.174   7.198   2.211
82465W        W42210  17.258   4.937  12.441
82466W        W42211  25.541  39.484   0.737
82467W        W42212  38.949  17.129  13.793
82468W        W42213  28.176  21.055  13.841
82469W        W42214  35.904   7.179   2.802
82470W        W42215  38.524  42.519   3.662
82471W        W42216  29.608  44.947   0.747
82472W        W42217   1.788  42.365   0.788
82473W        W42218   2.879  29.091   2.209
82474W        W42219  32.081   9.343  10.078
82475W        W42220  27.589  35.971  12.439
82476W        W42221  30.931  42.850   0.334
82477W        W42222  36.909  35.040   2.287
82478W        W42223  18.139  15.764   2.357
82479W        W42224  16.195  29.614  12.451
82480W        W42225  15.257   9.258  13.026
82481W        W42226  26.047  28.996   2.207
82482W        W42227  29.036  13.242  13.904
82483W        W42228  20.639  26.613   4.731
82484W        W42229  34.560  29.077  11.975
82485W        W42230  23.541  25.546  12.382
82486W        W42231   4.815  25.537  10.537
82487W        W42232   5.710   3.726  10.621
82488W        W42233  35.926  28.117  14.774
82489W        W42234  14.232  33.563   5.105
82490W        W42235   2.395  25.092  10.528
82491W        W42236   8.290   6.843  13.470
82492W        W42237  11.298  14.191   3.301
82493W        W42238  19.233   9.323  14.888
82494W        W42239  43.452  17.605  14.867
82495W        W42240   0.869  10.781   2.220
82496W        W42241  11.248  28.957   4.712
82497W        W42242  32.929  17.585  13.446
82498W        W42243   1.374  38.371   5.160
82499W        W42244  18.202  33.532   3.633
82500W        W42245  41.843  31.574  14.306
82501W        W42246  32.910  31.599  14.975
82502W        W42247   8.736  33.902   3.168
82503W        W42248  36.864  24.600   2.188
82504W        W42249   9.855  17.729   1.736
82505W        W42250  13.204  11.134   3.690
82506W        W42251   3.781  42.326   3.751
82507W        W42252  34.977  33.547   3.169
82508W        W42253  15.264   4.252   0.830
82509W        W42254  24.175  36.443  13.410
82510W        W42255   2.243  41.418  12.887
82511W        W42256  28.680  32.046  14.508
82512W        W42257  39.422  22.535  13.961
82513W        W42258  28.467  35.416  11.002
82514W        W42259   1.309  14.738  14.777
82515W        W42260  22.525  28.137  11.590
82516W        W42261  34.492  41.505  12.542
82517W        W42262   9.274  11.746  14.477
82518W        W42263  22.553  27.083  11.090
82519W        W42264   4.930  21.141   0.826
82520W        W42265   0.967  13.815   3.682
82521W        W42266   5.703  27.445  12.874
82522W        W42267  41.904  25.524  13.309
82523W        W42268  10.654  15.286  12.417
82524W        W42269   5.195  31.053   3.191
82525W        W42270   2.245  32.608  12.412
82526W        W42271  36.934  35.442  14.855
82527W        W42272   0.808  26.970   4.259
82528W        W42273  37.575  30.507  10.524
82529W        W42274  18.094  16.153   4.125
82530W        W42275  11.221   6.810   0.963
82531W        W42276  36.410  40.526  13.419
82532W        W42277  27.954   2.226   0.403
82533W        W42278  35.468   2.808   1.442
82534W        W42279  37.991  18.197   1.327
82535W        W42280  12.614   9.815   4.686
82536W        W42281  17.221  10.367  10.123
82537W        W42282  37.435   6.376   1.301
82538W        W42283  39.382   3.816   0.298
82539W        W42284  38.005  37.376  14.382
82540W        W42285   1.844   0.875   0.319
82541W        W42286  40.798   2.293  14.933
82542W        W42287  12.620  16.250   2.328
82543W        W42288   7.736  15.796   5.115
82544W        W42289  10.289  10.795   4.813
82545W        W42290  19.064  31.004  14.484
82546W        W42291   3.278  38.328   0.762
82547W        W42292  30.944  34.484   4.136
82548W        W42293   0.296  38.829  11.121
82549W        W42294  42.325  18.263  14.384
82550W        W42295   4.849   6.893  14.762
82551W        W42296  12.290   8.273   0.365
82552W        W42297  34.049  14.235   5.239
82553W        W42298   3.418   2.881   0.423
82554W        W42299  28.549  23.161  12.404
82555W        W42300  19.564  27.490   3.163
82556W        W42301  43.295  26.091   4.639
82557W        W42302  10.341  34.615  10.898
82558W        W42303  23.582  14.764  10.022
82559W        W42304  39.537  38.838   1.312
82560W        W42305  44.848  40.967   5.280
82561W        W42306  22.136   1.910  14.938
82562W        W42307  26.048   7.800  11.417
82563W        W42308  34.887  19.566  12.974
82564W        W42309  39.871  38.419   3.670
82565W        W42310  26.195   3.222  11.557
82566W        W42311  41.809  26.556  12.846
82567W        W42312   7.369  23.624  14.391
82568W        W42313  42.473  31.576   4.597
82569W        W42314  19.277  17.232   4.821
82570W        W42315   1.746   7.268  12.906
82571W        W42316  33.385  26.509  10.414
82572W        W42317  34.410  13.744  11.082
82573W        W42318  30.115  39.060   2.864
82574W        W42319  40.409   0.874   2.246
82575W        W42320  16.761  38.338  12.961
82576W        W42321  26.680  32.443  12.970
82577W        W42322   7.270  25.995  11.970
82578W        W42323  15.652  22.068   1.897
82579W        W42324   6.825  24.480  11.963
82580W        W42325  28.993   7.230  14.448
82581W        W42326  23.502  39.329  13.933
82582W        W42327  14.309  37.868  12.047
82583W        W42328   2.881   4.926  11.923
82584W        W42329  37.477  23.026   3.857
82585W        W42330   4.380  28.166   2.780
82586W        W42331  31.995  12.251  13.500
82587W        W42332   7.324  30.522   2.793
82588W        W42333  20.196  44.931   3.735
82589W        W42334   3.445  34.117   4.684
82590W        W42335  31.078  20.140  10.541
82591W        W42336   3.731   1.837  11.037
82592W        W42337  44.440  30.533  14.973
82593W        W42338  29.114   5.731   1.385
82594W        W42339  10.810  25.015   0.469
82595W        W42340  10.320  23.075   1.439
82596W        W42341  27.161   1.260  10.537
82597W        W42342  18.619  39.029  11.099
82598W        W42343   2.354  16.655   3.848
82599W        W42344   5.411  15.702  12.931
82600W        W42345  14.679  12.136  11.948
82601W        W42346  29.067  19.639   3.652
82602W        W42347  18.771   6.831  11.083
82603W        W42348  31.592  24.542   2.246
82604W        W42349  40.014  26.530   2.854
82605W        W42350  12.683  24.102   2.761
82606W        W42351  31.961   5.225  13.542
82607W        W42352  28.554  34.985   4.247
82608W        W42353  37.495  26.480  13.005
82609W        W42354  38.472  31.427  12.369
82610W        W42355   3.851  21.670  12.086
82611W        W42356   7.409   6.316  11.443
82612W        W42357  28.593  42.297   4.649
82613W        W42358  29.042  14.810  14.791
82614W        W42359  33.574  38.907  12.829
82615W        W42360  35.007  26.679   0.445
82616W        W42361   2.904   6.307  10.459
82617W        W42362  28.500  29.978  13.476
82618W        W42363  42.998  35.857   4.157
82619W        W42364  27.524  42.387  11.473
82620W        W42365  36.484  27.626  11.982
82621W        W42366  17.797  17.711   4.249
82622W        W42367  37.438  38.418  11.459
82623W        W42368  25.097  32.960  14.891
82624W        W42369  44.267  13.776  14.838
82625W        W42370  28.091   8.699  10.629
82626W        W42371  31.959  25.602  13.860
82627W        W42372  31.569   6.289   5.717
82628W        W42373  35.942  35.466  13.916
82629W        W42374  22.674  30.068   0.304
82630W        W42375  10.254  43.291  10.913
82631W        W42376  36.844  12.302  13.904
82632W        W42377  15.687  18.118   0.829
82633W        W42378  21.168  37.419  11.406
82634W        W42379  31.974  40.544   1.336
82635W        W42380  12.279  34.423   2.407
82636W        W42381  28.122   7.277   1.448
82637W        W42382  31.429  33.413   2.721
82638W        W42383   6.904  41.399   0.350
82639W        W42384  19.770  15.134  14.494
82640W        W42385   2.330  25.516   2.263
82641W        W42386   6.824  16.682  12.363
82642W        W42387  14.202  29.088   0.833
82643W        W42388   4.741  18.296   4.607
82644W        W42389   3.822  35.918   1.361
82645W        W42390  32.584  33.437  13.484
82646W        W42391  43.514  32.058  14.808
82647W        W42392   5.323   2.457  11.406
82648W        W42393   2.957   0.291  14.887
82649W        W42394  31.469  12.723   4.354
82650W        W42395   1.822  13.747   3.253
82651W        W42396   2.733  44.994  13.820
82652W        W42397   8.742  18.108   0.406
82653W        W42398  19.229   3.370  12.529
82654W        W42399  21.714   9.884  12.440
82655W        W42400   3.759  13.157   1.779
82656W        W42401   5.878  35.526   4.812
82657W        W42402  18.734  37.944  11.884
82658W        W42403  43.000  29.137  10.467
82659W        W42404  39.515  17.177   3.245
82660W        W42405  11.284  32.978  13.003
82661W        W42406  18.259  16.182   1.413
82662W        W42407  44.768   4.713   2.754
82663W        W42408  20.088  29.159   3.222
82664W        W42409  12.823  20.232   3.754
82665W        W42410  26.487  18.702   4.772
82666W        W42411  26.699   5.786   4.599
82667W        W42412  18.140  18.690   3.828
82668W        W42413  11.159  35.399   3.707
82669W        W42414   6.755  10.693   3.210
82670W        W42415  15.311  10.195  14.435
82671W        W42416  44.463  12.117  11.528
82672W        W42417  26.599  41.305  10.453
82673W        W42418  42.467  30.083   3.764
82674W        W42419  42.482  29.637  13.795
82675W        W42420  16.145  27.626  13.016
82676W        W42421   4.258   8.277   0.902
82677W        W42422  38.925   7.819   2.770
82678W        W42423  13.678  18.188  11.409
82679W        W42424  26.000  26.641  12.971
82680W        W42425  12.162  40.877   0.749
82681W        W42426  25.484   7.242   3.287
82682W        W42427  10.339  25.182  11.383
82683W        W42428  33.477   4.752   2.683
82684W        W42429  13.817  32.973  12.506
82685W        W42430  34.907  30.548   2.749
82686W        W42431  42.016   7.293   4.336
82687W        W42432   2.929  32.094   0.452
82688W        W42433  42.335  28.933  11.462
82689W        W42434   0.250   1.911   4.599
82690W        W42435  14.328  30.576   2.836
82691W        W42436  12.686  29.667   0.248
82692W        W42437  13.276  36.590  13.512
82693W        W42438  35.450   9.155  13.379
82694W        W42439   8.834   1.889   3.149
82695W        W42440  16.098   8.286  10.905
82696W        W42441  40.888  35.078  13.365
82697W        W42442  22.174  23.051  13.798
82698W        W42443  16.237  17.736  12.367
82699W        W42444  29.581  38.821   3.253
82700W        W42445   5.435  40.446  10.951
82701W        W42446  43.356  43.401  13.515
82702W        W42447   1.821  31.621  12.571
82703W        W42448  42.838  40.039   1.256
82704W        W42449  23.214  39.857   3.263
82705W        W42450  37.026  38.908   3.212
82706W        W42451  32.117   5.258   1.762
82707W        W42452  43.847  14.309  10.912
82708W        W42453  13.633  35.573  10.968
82709W        W42454  32.053  38.333  14.860
82710W        W42455  36.964  34.071  14.758
82711W        W42456  17.090  39.489   2.203
82712W        W42457  42.934  43.341  11.896
82713W        W42458  32.588  41.904   2.272
82714W        W42459   4.938  23.519   3.637
82715W        W42460  26.142  22.547  11.542
82716W        W42461  20.221   9.183   3.373
82717W        W42462  44.994   6.873  13.371
82718W        W42463  31.978   6.837  12.437
82719W        W42464  12.278  42.904  11.571
82720W        W42465   6.706   2.954  14.945
82721W        W42466   4.737  13.149   3.805
82722W        W42467  33.549  16.252   1.884
82723W        W42468  21.093  29.623   0.410
82724W        W42469  36.071  41.362  12.483
82725W        W42470  20.723  19.214   3.870
82726W        W42471  38.895   3.721  10.422
82727W        W42472   6.685  30.469  13.949
82728W        W42473   6.337  10.797  12.897
82729W        W42474  25.631  44.788  10.439
82730W        W42475  27.547  27.639  11.517
82731W        W42476  16.810   9.668  12.015
82732W        W42477  17.778   9.663  10.516
82733W        W42478   6.232  22.602   0.938
82734W        W42479  40.908  39.421   2.787
82735W        W42480  19.560  12.808   1.329
82736W        W42481  35.917  35.954   3.324
82737W        W42482  10.828  18.571  13.933
82738W        W42483  40.939  25.663  11.084
82739W        W42484   0.768   0.451  12.384
82740W        W42485  21.573  35.852  13.000
82741W        W42486  44.325   0.484  11.443
82742W        W42487  30.108  14.605   0.827
82743W        W42488  42.341  43.331  14.429
82744W        W42489   4.835  17.179   1.922
82745W        W42490  39.365  24.165  13.883
82746W        W42491  38.978  25.638  10.557
82747W        W42492  26.145  42.445  13.394
82748W        W42493  40.878  37.936  14.414
82749W        W42494  34.571  42.284   2.237
82750W        W42495   7.254  42.425  14.281
82751W        W42496  32.490  27.992  13.037
82752W        W42497  19.534  39.496   1.427
82753W        W42498  38.491  31.969  10.006
82754W        W42499  29.089  32.506  11.038
82755W        W42500  38.497   9.239  13.347
82756W        W42501  21.519  36.510   1.362
82757W        W42502   1.437  38.556  12.060
82758W        W42503  14.107  28.072  10.623
82759W        W42504   5.407  10.771  12.382
82760W        W42505  19.132  42.309  11.454
82761W        W42506  17.276  36.451  14.785
82762W        W42507   9.835   3.885   4.332
82763W        W42508   6.216  36.545  10.539
82764W        W42509  41.807  35.561  10.889
82765W        W42510  33.554  37.444  11.490
82766W        W42511  31.407  35.521   2.745
82767W        W42512   5.870  29.117  14.449
82768W        W42513  35.417  25.179   4.189
82769W        W42514  31.610   6.299  11.081
82770W        W42515  34.425  18.251  12.357
82771W        W42516  13.615  31.021   3.671
82772W        W42517   6.318  38.530  14.934
82773W        W42518  41.322   7.804  12.547
82774W        W42519   2.786   9.199   2.686
82775W        W42520   1.404  40.001   3.733
82776W        W42521  29.499  26.499  10.494
82777W        W42522  23.996  17.593  11.607
82778W        W42523   0.891  34.992  14.310
82779W        W42524  32.133   5.784  14.386
82780W        W42525  35.548  12.328  13.791
82781W        W42526  29.983  15.808   2.663
82782W        W42527  28.131  36.578   0.425
82783W        W42528  32.455  36.958  11.041
82784W        W42529  19.274  34.101   0.368
82785W        W42530  30.430  32.503  14.898
82786W        W42531  16.090  23.694  13.948
82787W        W42532  11.798  19.174   4.604
82788W        W42533   2.352  22.031   4.277
82789W        W42534  26.090  44.309  12.833
82790W        W42535  20.537  25.586  14.907
82791W        W42536  29.988   8.336   4.201
82792W        W42537  34.608  39.355   0.752
82793W        W42538  38.846  16.672  11.453
82794W        W42539   9.834  24.563   2.239
82795W        W42540  14.116  14.110  14.843
82796W        W42541   6.704  13.154   3.737
82797W        W42542  19.569  44.294   4.325
82798W        W42543  33.441   8.795  13.367
82799W        W42544  17.207   3.883  10.602
82800W        W42545  18.063  27.995  14.997
82801W        W42546  32.073  17.286   4.687
82802W        W42547  24.166   7.412   0.784
82803W        W42548   2.377  18.676  13.428
82804W        W42549   6.808   0.379   1.246
82805W        W42550  15.720  25.124   9.987
82806W        W42551  15.680   5.355   4.720
82807W        W42552   1.346  33.011   2.216
82808W        W42553  26.163  36.427   3.769
82809W        W42554  10.157  44.802  13.032
82810W        W42555  41.442   6.905  12.990
82811W        W42556  38.455  22.621   3.259
82812W        W42557  19.181  16.279  12.000
82813W        W42558  11.654   8.711  11.115
82814W        W42559  14.113  29.634   3.168
82815W        W42560  22.601  27.173   1.739
82816W        W42561  26.964  40.413  12.987
82817W        W42562  17.272  21.219  10.425
82818W        W42563   5.315  22.717   3.375
82819W        W42564  13.818  29.525  12.037
82820W        W42565  11.740  32.078  13.477
82821W        W42566  11.129   4.908   1.730
82822W        W42567  11.694  32.549  10.445
82823W        W42568  15.267  39.867   4.714
82824W        W42569  21.650   4.893   5.290
82825W        W42570  41.900   8.838  13.881
82826W        W42571  19.778  37.519  14.320
82827W        W42572  26.959  22.745  11.471
82828W        W42573  24.979  11.861  12.524
82829W        W42574   5.430  16.674  10.944
82830W        W42575  41.026   4.864  12.077
82831W        W42576  43.925   3.231   4.231
82832W        W42577  43.881  17.254   4.800
82833W        W42578  10.757  26.474   3.366
82834W        W42579   9.793  37.904   3.756
82835W        W42580  12.849  39.819   3.148
82836W        W42581  24.695  37.385  12.080
82837W        W42582   7.324  31.109   3.310
82838W        W42583  40.816  37.532   4.642
82839W        W42584   3.910  35.957  12.945
82840W        W42585  30.578  21.619   1.860
82841W        W42586  39.996   3.833  12.081
82842W        W42587  22.597  36.445  14.404
82843W        W42588  21.179  21.595   1.748
82844W        W42589  18.741  16.122  10.527
82845W        W42590  20.728  22.015  11.868
82846W        W42591  32.461  25.508   0.396
82847W        W42592  35.907  25.125   0.911
82848W        W42593   2.455  28.076   1.316
82849W        W42594   7.706  39.368  14.021
82850W        W42595   1.896  31.584  11.929
82851W        W42596  26.015   4.293   1.213
82852W        W42597  14.228   6.727   0.348
82853W        W42598   2.279  30.626   1.380
82854W        W42599  41.440   4.868  12.555
82855W        W42600  11.846  18.246   0.271
82856W        W42601  30.968   5.221  14.876
82857W        W42602  33.415  10.153   1.712
82858W        W42603  26.957  14.252   2.722
82859W        W42604   5.756  34.891   2.842
82860W        W42605  36.021  24.017   4.155
82861W        W42606   3.844  22.008  12.941
82862W        W42607  11.276  17.649  14.793
82863W        W42608  17.696  31.971  11.903
82864W        W42609  44.924  19.055   3.824
82865W        W42610  26.096  23.033  12.451
82866W        W42611  18.265  41.021  12.058
82867W        W42612  24.511  43.990   0.306
82868W        W42613  38.482  10.318  11.001
82869W        W42614  20.035  33.576  13.498
82870W        W42615  30.067   8.894   0.836
82871W        W42616  14.597  39.933  11.481
82872W        W42617  34.386  26.688   3.851
82873W        W42618   1.960  27.989  12.958
82874W        W42619  26.039   7.191  12.993
82875W        W42620   4.721  38.942   1.863
82876W        W42621  37.974  44.795   4.261
82877W        W42622  31.013   0.868  14.807
82878W        W42623  12.651  14.290   1.323
82879W        W42624   6.286  33.934  10.066
82880W        W42625  15.275  39.489   0.833
82881W        W42626   6.193   4.351  11.985
82882W        W42627  24.559  41.838   2.822
82883W        W42628  42.345  24.144   2.407
82884W        W42629  15.148  43.770   3.261
82885W        W42630   9.261  17.304  12.896
82886W        W42631  38.407  30.454  14.799
82887W        W42632  22.634  13.176  10.100
82888W        W42633  28.939  23.642   3.706
82889W        W42634  35.008   8.178  12.999
82890W        W42635  38.063  33.564  10.928
82891W        W42636  22.562  17.643   0.397
82892W        W42637  34.007   1.897   3.155
82893W        W42638  28.543  23.994  11.483
82894W        W42639   0.321   5.895  14.367
82895W        W42640  27.190  31.545  10.598
82896W        W42641  39.407  19.546   3.197
82897W        W42642  26.188  43.282  11.491
82898W        W42643  41.819  33.101   4.731
82899W        W42644  18.739  14.182  11.423
82900W        W42645  29.645   9.692   1.798
82901W        W42646  31.576  38.832   3.848
82902W        W42647  22.664  19.124   9.995
82903W        W42648   2.347  14.183   2.318
82904W        W42649   5.757  33.458   4.754
82905W        W42650  31.624  32.559   2.417
82906W        W42651  17.267  34.505  14.787
82907W        W42652  22.602  44.942   2.798
82908W        W42653  42.965  26.699  10.085
82909W        W42654  33.938  29.005   2.325
82910W        W42655  34.411  18.075  10.146
82911W        W42656  27.643   9.720  11.601
82912W        W42657  11.141  42.977   0.891
82913W        W42658  23.203  32.122   1.894
82914W        W42659  41.942   5.409   3.695
82915W        W42660   8.240  14.761   2.237
82916W        W42661  33.917  44.470  11.895
82917W        W42662  11.800   3.806   2.285
82918W        W42663  19.637   9.390  14.487
82919W        W42664  33.611  31.567   4.664
82920W        W42665   6.795  38.926   3.673
82921W        W42666  42.841  16.661  13.999
82922W        W42667  40.387  24.102  13.358
82923W        W42668  23.736  27.569   0.458
82924W        W42669   6.862  15.278   2.396
82925W        W42670  29.033  26.606   0.957
82926W        W42671   7.370  23.698  13.846
82927W        W42672  17.589  11.646  14.469
82928W        W42673  24.615   9.364   2.767
82929W        W42674  41.860  13.296  12.552
82930W        W42675  34.017  24.496  10.476
82931W        W42676  11.840  12.621  13.875
82932W        W42677  19.558  26.651  13.449
82933W        W42678   1.851   3.807  10.909
82934W        W42679  24.546  13.243  11.119
82935W        W42680  44.777  12.781  10.936
82936W        W42681  37.052   4.345   3.234
82937W        W42682   3.257  42.822   0.259
82938W        W42683  25.697  17.609  11.984
82939W        W42684   1.388  14.137   1.448
82940W        W42685  30.458  16.285  10.971
82941W        W42686  35.430   3.798  11.006
82942W        W42687  40.443  34.595  12.825
82943W        W42688  26.556   7.701   2.758
82944W        W42689  17.194  36.357  12.084
82945W        W42690  32.072  22.627   4.820
82946W        W42691  21.616  36.556  10.579
82947W        W42692   2.361  22.162  14.322
82948W        W42693  41.517  20.240   4.664
82949W        W42694  37.483   1.899  12.997
82950W        W42695  40.946  41.922  10.569
82951W        W42696  28.997  35.472   4.248
82952W        W42697  30.589   3.268  14.890
82953W        W42698  43.289  23.574   3.168
82954W        W42699  33.413  24.693   0.901
82955W        W42700  42.014   7.724  10.958
82956W        W42701  22.594  39.973  12.033
82957W        W42702   0.398   9.283  13.923
82958W        W42703  11.776  22.541   3.220
82959W        W42704  24.198  19.144   3.656
82960W        W42705  44.009  34.402  11.975
82961W        W42706  21.597  37.069   0.346
82962W        W42707  10.152  26.488   4.193
82963W        W42708  41.350  27.588   0.771
82964W        W42709  26.987   5.876   0.744
82965W        W42710   4.271  34.509   4.271
82966W        W42711  19.566  36.480   2.678
82967W        W42712  36.453  24.675   0.265
82968W        W42713   5.324  35.564  12.959
82969W        W42714  37.067   2.278  11.021
82970W        W42715  26.466  10.245  13.373
82971W        W42716  24.505  16.128  11.536
82972W        W42717  31.015  25.124  12.055
82973W        W42718  11.332  25.134   1.755
82974W        W42719  41.508   2.326   3.756
82975W        W42720  26.578  10.869  14.773
82976W        W42721  37.348   5.856   3.805
82977W        W42722   4.352  22.627  14.499
82978W        W42723  14.634  13.839  13.866
82979W        W42724   2.401   8.304  12.495
82980W        W42725  24.490  22.691  12.012
82981W        W42726  25.179  14.141   1.274
82982W        W42727  23.131  26.673   2.355
82983W        W42728  29.499  30.586   5.259
82984W        W42729   3.281  10.315   3.703
82985W        W42730  34.896  39.489  11.528
82986W        W42731   1.478   7.746  10.995
82987W        W42732  17.614   2.384   2.739
82988W        W42733  43.787  35.945   3.147
82989W        W42734  19.544   5.929  11.869
82990W        W42735  35.067  24.554  11.472
82991W        W42736   6.698  22.036  11.912
82992W        W42737  43.408   6.763   0.964
82993W        W42738  20.059  16.577   2.335
82994W        W42739   9.247  19.581   3.156
82995W        W42740  15.651  42.380   4.348
82996W        W42741  44.348  13.243   2.179
82997W        W42742  32.499  36.542  12.522
82998W        W42743  11.278  17.772   0.324
82999W        W42744  26.141  32.021   3.695
83000W        W42745  16.675  42.516   4.292
83001W        W42746  34.979  44.798   0.302
83002W        W42747  21.661   2.265   0.270
83003W        W42748  43.380  31.003  11.563
83004W        W42749  35.011  41.388   4.289
83005W        W42750  29.586  38.031   0.371
83006W        W42751  10.280  40.328  11.108
83007W        W42752   8.839  43.426  13.357
83008W        W42753  34.901  29.085  14.797
83009W        W42754  42.937   7.210   2.331
83010W        W42755  31.939  34.915   2.284
83011W        W42756  43.388  24.721   0.436
83012W        W42757  24.152  18.225   3.700
83013W        W42758  33.621  42.014   2.192
83014W        W42759  25.048  28.938   0.409
83015W        W42760  20.272   2.445  12.554
83016W        W42761   8.670   5.269  13.817
83017W        W42762   1.732  23.154  11.468
83018W        W42763  43.986   6.427   0.746
83019W        W42764  43.343  17.671   0.748
83020W        W42765  30.148   3.746   4.118
83021W        W42766  29.060  34.940   4.611
83022W        W42767  42.967  11.164   0.864
83023W        W42768  11.629  35.023   9.574
83024W        W42769  17.572  42.800   2.373
83025W        W42770  38.970  24.192  14.480
83026W        W42771   6.693  40.917  11.510
83027W        W42772   1.854   3.910   0.869
83028W        W42773  21.668  14.724  13.064
83029W        W42774  42.421   7.715   0.774
83030W        W42775  17.093   0.418   4.212
83031W        W42776  15.152  22.161   4.227
83032W        W42777  24.979  24.695  12.985
83033W        W42778   4.933  36.452   1.783
83034W        W42779  13.234  10.159  12.939
83035W        W42780  33.090  12.289   3.326
83036W        W42781  17.621  29.008  13.510
83037W        W42782  15.622  21.213   4.171
83038W        W42783  11.274  40.835   4.638
83039W        W42784   3.397  18.252   0.295
83040W        W42785  25.967   6.303  14.931
83041W        W42786  33.948  18.273   4.758
83042W        W42787  40.529   5.898   1.256
83043W        W42788  31.591  17.149  13.540
83044W        W42789   4.345  33.483  12.839
83045W        W42790   0.474  38.035   2.224
83046W        W42791   1.918  30.945  13.320
83047W        W42792  11.853  16.175   0.342
83048W        W42793  25.623  32.595   4.641
83049W        W42794  21.211  15.657  11.453
83050W        W42795  35.578  30.111   4.153
83051W        W42796  37.855  17.079   4.629
83052W        W42797  40.307  44.499   2.851
83053W        W42798  35.483   2.439   1.400
83054W        W42799  34.960  37.576   4.718
83055W        W42800  25.042  24.149  13.361
83056W        W42801  19.239  24.200   0.360
83057W        W42802   1.837  20.530  13.948
83058W        W42803  38.853  40.449  11.068
83059W        W42804  27.561  19.542   4.194
83060W        W42805   8.710  22.141  11.858
83061W        W42806   3.296  33.921  12.448
83062W        W42807  12.731  38.394   0.296
83063W        W42808  14.609  12.345   4.707
83064W        W42809  12.301  29.585   0.288
83065W        W42810  22.556  22.622   0.351
83066W        W42811  39.066  37.403   3.203
83067W        W42812  33.558  36.933   4.702
83068W        W42813   8.727  28.932   4.277
83069W        W42814  25.534  41.444   3.832
83070W        W42815  26.461  39.315  10.490
83071W        W42816   0.863  16.673   0.319
83072W        W42817  41.795  16.160  12.576
83073W        W42818  11.213  44.758   4.623
83074W        W42819  21.663  44.497   0.895
83075W        W42820  31.006  14.133   0.966
83076W        W42821   6.798  18.761  10.912
83077W        W42822   5.208  37.835  11.571
83078W        W42823  32.128  33.429   5.318
83079W        W42824   2.226  24.570  11.383
83080W        W42825  26.053  30.110   2.838
83081W        W42826   7.339  17.272   2.296
83082W        W42827   7.191  18.221  14.478
83083W        W42828  44.958  32.957   3.687
83084W        W42829  40.445  40.839  13.337
83085W        W42830  20.760   7.245   2.699
83086W        W42831  10.327  44.392  11.411
83087W        W42832   4.244  32.439  12.881
83088W        W42833  14.333  21.548  13.845
83089W        W42834  17.196  13.637  11.064
83090W        W42835   7.224   3.715   0.424
83091W        W42836  29.997  37.868   3.260
83092W        W42837  19.591  44.900  11.931
83093W        W42838  21.074  30.527   2.879
83094W        W42839  22.522  37.902  11.109
83095W        W42840  23.655  44.921  10.928
83096W        W42841  25.977  29.084   5.242
83097W        W42842   5.892   8.846  14.995
83098W        W42843  19.689  38.496  14.901
83099W        W42844  39.899  22.579   1.284
83100W        W42845  42.462  21.090   1.240
83101W        W42846  36.872   9.696   4.727
83102W        W42847  40.349  23.065   3.231
83103W        W42848  33.084   8.245  12.448
83104W        W42849  18.639  14.822   0.368
83105W        W42850   6.417   7.368   3.310
83106W        W42851  18.681  32.559  14.456
83107W        W42852   2.295  38.954   2.203
83108W        W42853  34.865  19.249   0.877
83109W        W42854  34.570  25.026   2.419
83110W        W42855  32.922  26.955  14.965
83111W        W42856  41.860  26.472   2.214
83112W        W42857   1.856   9.311  12.425
83113W        W42858  39.406  35.372   4.700
83114W        W42859   5.433   8.405   2.378
83115W        W42860  14.821  11.187   0.397
83116W        W42861  10.777  23.531  14.946
83117W        W42862  25.601  32.438  13.346
83118W        W42863  18.095  13.717   1.724
83119W        W42864  37.399  38.980   0.316
83120W        W42865  32.947  32.440  11.076
83121W        W42866  36.916  43.364   3.154
83122W        W42867  43.386  34.532  11.035
83123W        W42868   8.384  30.150  11.431
83124W        W42869  25.658  15.296  11.935
83125W        W42870  35.990   6.302   3.210
83126W        W42871  24.551  42.799   1.351
83127W        W42872   5.233  28.158  14.384
83128W        W42873  32.396  26.590  11.008
83129W        W42874  12.157  15.281  13.367
83130W        W42875  41.507  16.262   1.783
83131W        W42876  17.199  40.948  11.906
83132W        W42877  17.072  30.072  13.889
83133W        W42878  35.453   1.823   1.222
83134W        W42879  15.657  30.129  13.933
83135W        W42880   2.360  30.487  12.550
83136W        W42881  14.648  44.265   0.408
83137W        W42882  28.440  41.907   1.728
83138W        W42883  41.989  25.476   0.257
83139W        W42884  35.433   5.275   4.648
83140W        W42885   2.817  31.024  12.008
83141W        W42886  43.981  39.440   2.767
83142W        W42887  22.215   5.701   4.214
83143W        W42888  26.125   5.859  11.568
83144W        W42889  16.612  44.346  10.080
83145W        W42890  24.593  10.774   2.749
83146W        W42891  23.095  18.585   0.279
83147W        W42892  27.193  16.207  14.407
83148W        W42893  27.501  32.394   0.823
83149W        W42894  42.472  31.940   1.869
83150W        W42895  13.631  34.378  14.917
83151W        W42896   5.902   7.369  14.923
83152W        W42897  21.094  27.456  10.934
83153W        W42898  10.204   1.894  13.803
83154W        W42899   0.373  31.437   3.710
83155W        W42900  11.813  28.594  12.385
83156W        W42901  32.413  11.330  11.937
83157W        W42902  24.667  18.711   3.308
83158W        W42903  42.506  44.491   0.299
83159W        W42904  39.049  42.999  12.383
83160W        W42905  41.358  32.009   4.177
83161W        W42906  44.417   5.898  10.035
83162W        W42907  36.042  14.661  10.957
83163W        W42908  17.202  33.462  13.014
83164W        W42909  14.213  17.069  14.800
83165W        W42910  14.650  33.439  13.052
83166W        W42911  30.944  16.748  11.490
83167W        W42912  35.406  23.546   3.787
83168W        W42913   1.787   8.815   4.178
83169W        W42914  12.672  12.800  13.003
83170W        W42915  15.639  40.391   5.286
83171W        W42916  33.394   1.402   1.694
83172W        W42917   7.320   6.393   2.200
83173W        W42918   3.375  22.625  11.929
83174W        W42919  13.645  37.577   1.410
83175W        W42920  35.888  40.014  11.124
83176W        W42921   5.779   6.225   4.132
83177W        W42922   5.330  17.676   5.582
83178W        W42923  23.547  37.571  11.120
83179W        W42924  41.958  16.141   4.717
83180W        W42925  42.831  25.043  13.933
83181W        W42926  12.153  31.939  14.512
83182W        W42927   5.208  21.075  10.433
83183W        W42928  41.847  15.604   1.726
83184W        W42929   3.376  27.492   1.259
83185W        W42930  15.637  39.952  13.016
83186W        W42931  28.083  10.289   3.350
83187W        W42932  25.112  27.971   2.819
83188W        W42933  27.039  25.589  14.364
83189W        W42934  39.929  25.105   3.659
83190W        W42935   0.275  39.957   0.252
83191W        W42936  10.383  42.281  11.023
83192W        W42937  36.535  17.105   0.293
83193W        W42938  18.295  36.462   0.316
83194W        W42939  35.038  31.013  11.871
83195W        W42940  41.331  31.110  14.798
83196W        W42941   6.891  23.219   1.395
83197W        W42942  41.915  42.323   2.709
83198W        W42943  35.559   3.837   0.758
83199W        W42944  28.628  27.624   3.379
83200W        W42945  14.263   8.317   2.811
83201W        W42946  13.348  40.422   4.261
83202W        W42947  44.943   7.260  12.945
83203W        W42948  25.710   7.902  13.489
83204W        W42949  38.465   0.273   2.293
83205W        W42950  40.030   2.432   3.737
83206W        W42951  27.027  18.214  12.954
83207W        W42952  39.456  22.054  10.631
83208W        W42953  10.792  12.754   0.376
83209W        W42954  14.107   2.772  12.449
83210W        W42955  15.711  17.306   3.313
83211W        W42956  35.023  34.927   1.742
83212W        W42957   1.747  18.789   3.719
83213W        W42958  40.944  23.084   3.184
83214W        W42959  39.837  32.466  13.393
83215W        W42960  26.100  20.747   0.870
83216W        W42961  16.304  17.255  11.489
83217W        W42962  17.796   3.371   4.289
83218W        W42963  11.251  12.272   4.200
83219W        W42964   1.380   8.852   4.283
83220W        W42965  24.571   3.770  10.500
83221W        W42966  27.589  15.231  13.053
83222W        W42967  35.082  40.515   5.235
83223W        W42968  23.219  44.883  12.016
83224W        W42969  41.480  22.702  12.364
83225W        W42970  16.317   1.930  13.871
83226W        W42971  40.503  31.423  13.372
83227W        W42972   4.306   1.830   4.245
83228W        W42973  41.480   2.744  14.447
83229W        W42974  19.238  38.013   2.698
83230W        W42975  25.584  42.807   3.208
83231W        W42976  36.402  14.098   5.257
83232W        W42977  21.748  22.520   2.234
83233W        W42978   3.805  38.327  12.950
83234W        W42979   3.452  28.506   1.415
83235W        W42980  37.453  37.478   1.447
83236W        W42981  17.154  11.761  11.018
83237W        W42982  42.309  30.162  14.450
83238W        W42983  28.607   9.191   2.839
83239W        W42984   0.773  27.607  13.028
83240W        W42985   8.343  15.194  11.484
83241W        W42986  14.641   7.759  13.883
83242W        W42987  29.155  20.647   0.841
83243W        W42988   3.746  35.358  12.896
83244W        W42989  20.631  35.412   3.804
83245W        W42990   4.208   9.726   0.299
83246W        W42991   6.205  13.839  13.019
83247W        W42992  30.533  11.231  12.956
83248W        W42993  35.059  15.614  14.312
83249W        W42994  28.074  40.534   2.707
83250W        W42995  35.388   6.742   1.313
83251W        W42996  41.327  41.343   4.826
83252W        W42997  29.141  11.700   3.198
83253W        W42998   8.165  22.222   2.812
83254W        W42999   2.348  28.531  11.986
83255W        W43000  24.026  32.071   2.772
83256W        W43001   6.880  39.475  11.076
83257W        W43002  35.859  28.105   2.796
83258W        W43003  21.547  22.111   4.744
83259W        W43004   1.256   7.723   0.477
83260W        W43005  37.050  14.625   1.738
83261W        W43006  37.570  27.162   0.384
83262W        W43007  18.745   9.223   1.909
83263W        W43008   9.297  12.132   1.404
83264W        W43009  24.516  36.384   0.316
83265W        W43010  30.584  36.540  11.082
83266W        W43011  35.423  26.688  12.848
83267W        W43012  28.038  27.044  13.890
83268W        W43013  28.585   4.374  11.914
83269W        W43014  30.541  39.867   0.315
83270W        W43015  27.629  15.176  13.914
83271W        W43016  18.235  33.904  10.990
83272W        W43017  44.756  37.058   0.943
83273W        W43018  15.121  37.956  14.371
83274W        W43019  19.649   9.356  12.058
83275W        W43020   3.770  24.722  14.826
83276W        W43021  44.382  42.508  10.512
83277W        W43022  36.589  36.973   2.781
83278W        W43023  12.781  34.949  14.408
83279W        W43024  31.126  24.609   4.252
83280W        W43025  21.669   0.396   5.179
83281W        W43026   9.675   6.259   0.881
83282W        W43027  21.545  17.697  13.833
83283W        W43028  22.581  13.242  14.449
83284W        W43029   7.685   1.869   2.695
83285W        W43030   9.834  30.488   2.874
83286W        W43031  24.224  21.032  13.981
83287W        W43032  13.798  11.194   2.248
83288W        W43033  19.731   5.901  11.426
83289W        W43034   5.912  22.621   0.798
83290W        W43035  25.563   5.277  12.981
83291W        W43036  12.723   1.960   3.630
83292W        W43037   8.231  22.047   3.719
83293W        W43038  15.671  28.114  13.910
83294W        W43039  17.161  18.295  11.602
83295W        W43040  35.996  32.468  11.915
83296W        W43041  20.076   0.261   1.217
83297W        W43042  33.066  19.199   0.334
83298W        W43043   8.738   8.885   0.818
83299W        W43044  12.763  37.038   4.305
83300W        W43045  24.052  25.667   3.775
83301W        W43046  34.609  39.497  11.112
83302W        W43047   5.876   2.804   1.798
83303W        W43048  18.153  27.121  11.608
83304W        W43049  31.990  39.991  13.803
83305W        W43050   7.327   4.396  13.849
83306W        W43051  15.191  36.953  12.402
83307W        W43052  43.304  29.123  10.618
83308W        W43053   1.822  17.160  14.335
83309W        W43054  22.122  40.369  10.893
83310W        W43055  41.328  30.033  13.895
83311W        W43056   0.907  11.308   4.729
83312W        W43057  33.046  33.023  13.491
83313W        W43058   9.343  38.442  11.000
83314W        W43059  36.403   2.733  12.846
83315W        W43060  20.259  10.214   1.809
83316W        W43061  25.590  37.984   2.305
83317W        W43062  38.878  38.937  12.352
83318W        W43063  20.110  20.135   1.233
83319W        W43064   9.349   2.250   1.414
83320W        W43065  40.897   3.344  13.314
83321W        W43066  29.533  33.117   1.931
83322W        W43067   7.393  38.550   0.370
83323W        W43068   1.884  18.730   1.351
83324W        W43069   4.256  16.317   0.318
83325W        W43070  25.603  38.843   3.176
83326W        W43071  39.001  12.619   0.774
83327W        W43072  37.912  13.116   1.782
83328W        W43073   9.663   8.315  11.026
83329W        W43074  34.563  43.301  13.918
83330W        W43075  36.051  39.841   4.697
83331W        W43076   5.693  24.570   0.281
83332W        W43077  25.685  30.082  12.438
83333W        W43078  17.663  44.403   1.387
83334W        W43079  22.022  23.715   0.441
83335W        W43080  10.717  26.546   0.912
83336W        W43081  22.663  37.439  13.330
83337W        W43082  15.631  27.970   4.658
83338W        W43083  15.301  43.297  13.045
83339W        W43084  44.459   3.410   1.332
83340W        W43085   9.662  19.754   3.252
83341W        W43086  31.088  19.586   1.371
83342W        W43087  20.736  39.336  13.850
83343W        W43088  19.088  23.532  11.450
83344W        W43089  29.481  33.104   4.337
83345W        W43090  32.939  25.586   2.227
83346W        W43091  16.165  18.668   1.908
83347W        W43092  43.005  32.006   1.243
83348W        W43093  24.221  23.995   1.927
83349W        W43094  13.249  36.517  12.414
83350W        W43095  22.594  37.003  11.936
83351W        W43096  39.918   0.415   1.880
83352W        W43097   1.782  41.404  10.588
83353W        W43098  43.863  20.761   2.901
83354W        W43099  37.383   7.730   5.184
83355W        W43100  32.981  17.560  14.301
83356W        W43101  35.531  42.437  13.844
83357W        W43102  24.626  19.085  13.442
83358W        W43103  21.608  17.618  10.464
83359W        W43104  35.409   7.358   0.871
83360W        W43105  41.001   5.690  10.578
83361W        W43106  34.872  25.710  11.927
83362W        W43107  25.164  25.530  13.468
83363W        W43108  29.583  32.101   0.952
83364W        W43109  23.713   3.376   4.733
83365W        W43110  11.652  31.647   0.279
83366W        W43111   2.833  10.144   2.339
83367W        W43112  34.402   9.813  11.128
83368W        W43113  23.539  12.812   3.378
83369W        W43114  11.761   5.735  11.980
83370W        W43115  24.173  12.772  12.351
83371W        W43116  43.368  18.097  11.956
83372W        W43117  14.698  33.018   3.745
83373W        W43118  34.953   5.437   4.201
83374W        W43119  39.930  10.325  14.023
83375W        W43120  33.039  33.525  14.321
83376W        W43121   9.693  38.974  14.509
83377W        W43122  33.512  29.437   3.355
83378W        W43123  23.710  23.567  14.348
83379W        W43124  14.832   7.678  10.934
83380W        W43125  43.426  37.470   1.921
83381W        W43126   3.726  38.507  14.777
83382W        W43127  35.911   7.733   0.824
83383W        W43128  42.527   6.710  13.986
83384W        W43129   7.890  10.702  13.837
83385W        W43130  10.153  40.949  11.037
83386W        W43131  30.505   4.377   2.298
83387W        W43132  43.818  27.045  14.302
83388W        W43133   0.277   4.936   3.224
83389W        W43134  42.998  24.535  11.548
83390W        W43135  25.036  38.413   3.760
83391W        W43136  39.440  36.425  13.975
83392W        W43137   7.374  23.133   4.327
83393W        W43138  44.363  14.130   0.965
83394W        W43139  11.246   5.301   0.451
83395W        W43140  41.836  23.016   3.682
83396W        W43141  16.153  18.082   4.215
83397W        W43142  18.218   0.965   4.309
83398W        W43143  37.064  27.542  10.555
83399W        W43144  42.282  15.817  13.354
83400W        W43145  36.434  19.679   3.781
83401W        W43146  34.955  19.100   1.226
83402W        W43147  16.604   0.834  10.566
83403W        W43148  20.552  24.567   0.339
83404W        W43149  14.147   0.294  10.993
83405W        W43150  41.002  29.152   3.283
83406W        W43151  42.377  17.760  12.432
83407W        W43152  43.921  27.994  13.889
83408W        W43153  39.962  13.108  10.595
83409W        W43154   2.961   0.444   1.738
83410W        W43155   0.984   6.418  14.942
83411W        W43156  15.109  42.416  14.345
83412W        W43157  40.430   5.407   4.345
83413W        W43158  22.684  13.345   9.455
83414W        W43159  31.612  17.647   5.257
83415W        W43160   4.880  11.667   5.082
83416W        W43161  17.628  39.475  11.469
83417W        W43162  15.296  44.885  10.933
83418W        W43163   5.243   6.696   3.864
83419W        W43164   6.379   6.229   3.298
83420W        W43165   5.902   3.457  11.543
83421W        W43166  24.071  23.619   2.331
83422W        W43167  39.399  34.496  10.511
83423W        W43168   0.960  24.495   0.341
83424W        W43169  17.615  17.584   1.737
83425W        W43170  29.464   8.877   2.753
83426W        W43171  14.119   0.966   1.881
83427W        W43172   0.343  10.778  12.921
83428W        W43173  38.534  44.384  11.561
83429W        W43174  33.066  17.661   4.197
83430W        W43175  15.090  27.025  13.048
83431W        W43176  32.089  19.149  14.502
83432W        W43177  23.652  39.044  14.952
83433W        W43178  13.348  20.615   1.435
83434W        W43179   0.456   3.222  12.567
83435W        W43180   4.221  32.114  10.558
83436W        W43181  21.258  24.714  11.991
83437W        W43182  36.382   9.158  13.500
83438W        W43183  19.240   0.394   4.223
83439W        W43184  23.122  16.202  12.558
83440W        W43185  12.716  33.950  13.397
83441W        W43186  10.196   3.787   0.310
83442W        W43187   5.837  30.014  12.352
83443W        W43188  15.329  42.883   0.783
83444W        W43189  17.250   5.357  11.095
83445W        W43190   4.783  38.027  11.999
83446W        W43191   5.326  26.968   0.951
83447W        W43192  42.291  30.487  12.478
83448W        W43193   0.907  24.992  11.506
83449W        W43194  12.698  44.991  13.930
83450W        W43195  39.392  33.936  13.462
83451W        W43196  12.273   8.855   0.813
83452W        W43197  38.016  30.138  13.462
83453W        W43198  37.056  44.489  14.006
83454W        W43199  10.723  24.133   2.799
83455W        W43200  10.229  22.644   4.636
83456W        W43201   0.458  43.890  12.413
83457W        W43202  16.649  11.742   3.232
83458W        W43203   9.827  32.965   3.236
83459W        W43204  36.454  30.913   3.806
83460W        W43205  28.591  40.002   1.224
83461W        W43206  13.787  36.581  11.605
83462W        W43207  11.656  34.388   4.736
83463W        W43208   3.848  12.333  14.827
83464W        W43209  37.920  17.603  14.764
83465W        W43210  37.415  19.170   2.687
83466W        W43211  39.030  25.708   1.707
83467W        W43212  17.560  41.960  14.391
83468W        W43213  38.902  40.357  12.095
83469W        W43214  44.396  40.852   0.394
83470W        W43215  27.956  41.364   2.362
83471W        W43216  15.216   2.775   0.733
83472W        W43217   3.402  38.331  13.436
83473W        W43218  20.110  19.613   2.186
83474W        W43219  11.206  26.552  13.309
83475W        W43220  13.327  35.412   1.215
83476W        W43221   3.329  31.625  11.388
83477W        W43222  25.587  34.970   4.685
83478W        W43223   6.700  38.366  10.939
83479W        W43224  19.178  43.816  13.386
83480W        W43225  19.706   3.909   3.219
83481W        W43226  40.989  10.377   4.169
83482W        W43227  12.208   0.358   2.350
83483W        W43228  20.177  16.583  11.112
83484W        W43229   5.786   8.719   2.897
83485W        W43230  30.589  28.115   1.338
83486W        W43231  31.507  21.194  14.467
83487W        W43232   4.375  43.284  13.026
83488W        W43233  27.090  40.995   3.201
83489W        W43234  39.897  38.393   4.629
83490W        W43235  31.485  44.331   2.823
83491W        W43236  11.628  34.572   3.219
83492W        W43237  29.521   3.854  12.083
83493W        W43238   5.810  18.754  10.984
83494W        W43239   5.402  34.615  11.945
83495W        W43240  27.120  29.547   4.717
83496W        W43241   3.775   5.365  13.868
83497W        W43242   8.732  30.081   2.809
83498W        W43243  20.046  19.162  14.785
83499W        W43244  24.171  22.211  13.466
83500W        W43245  36.975  37.379  12.984
83501W        W43246  33.968  14.113  11.018
83502W        W43247  43.492   4.861  14.396
83503W        W43248  37.436  36.001  13.531
83504W        W43249  43.943  12.190   1.363
83505W        W43250  14.256  43.410  11.452
83506W        W43251  22.542   8.828  13.810
83507W        W43252  37.543  39.810  14.793
83508W        W43253  26.646  36.957  12.486
83509W        W43254  28.121   7.683   4.727
83510W        W43255  24.503   4.842   0.773
83511W        W43256  32.006  31.485   1.811
83512W        W43257  11.825  23.241   2.844
83513W        W43258   0.385  43.941  14.348
83514W        W43259   2.925   0.930   1.239
83515W        W43260   7.239   9.171   3.223
83516W        W43261  35.450  34.051   1.267
83517W        W43262  13.252  21.604   3.257
83518W        W43263  10.839  11.683   1.363
83519W        W43264   3.943  30.151   1.310
83520W        W43265  26.585   8.296  12.842
83521W        W43266  19.601  26.153   4.354
83522W        W43267  41.337   8.340   3.749
83523W        W43268  15.666  39.361  14.479
83524W        W43269  23.210   7.289  13.540
83525W        W43270  39.979  20.267   0.879
83526W        W43271   3.850  23.202   1.906
83527W        W43272  20.620  10.706  14.307
83528W        W43273  26.006   4.765  13.984
83529W        W43274  32.442  29.037  14.787
83530W        W43275   0.848  10.365   3.719
83531W        W43276   7.304  10.661   3.848
83532W        W43277  39.404  16.156  14.462
83533W        W43278  16.130  34.081  13.919
83534W        W43279  28.579  34.033  14.845
83535W        W43280  26.051  34.871   1.222
83536W        W43281  27.164  16.093   4.826
83537W        W43282   8.194  12.634   1.301
83538W        W43283  33.549  15.108   1.219
83539W        W43284   9.237  25.032  13.477
83540W        W43285   5.434  38.521   2.715
83541W        W43286   6.307   7.348  13.351
83542W        W43287   1.238  23.073   9.474
83543W        W43288  12.234  42.997   1.849
83544W        W43289  14.190  31.606  12.832
83545W        W43290  34.921  35.506   2.275
83546W        W43291   5.876  35.501  14.935
83547W        W43292  17.626  29.101  12.089
83548W        W43293  19.204  18.775  14.438
83549W        W43294   3.249  24.171  13.385
83550W        W43295  30.433  12.731   0.947
83551W        W43296  13.776   9.817   0.796
83552W        W43297  27.647  27.677   2.836
83553W        W43298  13.694   1.851  13.501
83554W        W43299  24.010  41.530   4.254
83555W        W43300  39.827  43.002   2.208
83556W        W43301  23.658  35.425  13.832
83557W        W43302   3.864   0.435   4.712
83558W        W43303   3.823  20.148   0.439
83559W        W43304   4.835   7.403   3.149
83560W        W43305  28.006  40.805   3.247
83561W        W43306   6.690  35.366  13.864
83562W        W43307   5.234  19.126  12.382
83563W        W43308  44.394  26.652  10.502
83564W        W43309   2.949  16.580  12.891
83565W        W43310  37.991  41.804   1.402
83566W        W43311  19.709  24.495   0.341
83567W        W43312   6.690  38.432   2.410
83568W        W43313  23.060  11.132  10.967
83569W        W43314  37.428   4.703   1.923
83570W        W43315   4.257  30.427   2.364
83571W        W43316   7.718  12.208  14.457
83572W        W43317  27.140  41.413   3.694
83573W        W43318  13.312  25.702   4.697
83574W        W43319  36.454  13.753  12.473
83575W        W43320  20.204   0.813  14.887
83576W        W43321  22.154  22.700   1.930
83577W        W43322   7.850  10.255   2.181
83578W        W43323  31.124  19.200  13.387
83579W        W43324  33.996  29.638   3.357
83580W        W43325   0.431  26.701  11.431
83581W        W43326  39.829  14.150  12.011
83582W        W43327  39.342   2.416  13.994
83583W        W43328  29.971  28.639   1.832
83584W        W43329  19.243  12.820   2.334
83585W        W43330  12.321   1.880   2.757
83586W        W43331  35.426   0.451   4.351
83587W        W43332  20.618  42.948   1.384
83588W        W43333  40.314  30.536   1.259
83589W        W43334  20.170  36.943  14.968
83590W        W43335   8.818  14.323   4.810
83591W        W43336  27.054  11.758   2.803
83592W        W43337  21.710  31.612   0.772
83593W        W43338   8.742  37.458   2.774
83594W        W43339  31.944  21.642   4.333
83595W        W43340   8.703  14.279   3.219
83596W        W43341   4.212  15.788  12.080
83597W        W43342  12.124  30.112   0.452
83598W        W43343  31.463  19.694  14.770
83599W        W43344  43.444  11.835   3.354
83600W        W43345   0.860  43.975   4.350
83601W        W43346  31.623  29.156  12.558
83602W        W43347   2.743  14.239   0.819
83603W        W43348  29.057  31.411  14.763
83604W        W43349  30.008  15.654   9.926
83605W        W43350  22.687  22.175  10.514
83606W        W43351  10.241  31.526   4.639
83607W        W43352  36.349  25.694  11.906
83608W        W43353  24.722  12.838   1.227
83609W        W43354  21.163  15.676   0.371
83610W        W43355  36.941  20.269  11.572
83611W        W43356  37.045  20.248   4.824
83612W        W43357  19.218  18.716  10.525
83613W        W43358  31.522  26.490   0.910
83614W        W43359   6.340  42.301  12.878
83615W        W43360  25.074  18.612   1.360
83616W        W43361  27.452   0.325  11.923
83617W        W43362  19.721  14.133   2.354
83618W        W43363   4.755   4.813  10.507
83619W        W43364  18.272   5.324  14.802
83620W        W43365  37.410  34.369   3.339
83621W        W43366   6.820  37.523   4.214
83622W        W43367  35.852  24.212   0.431
83623W        W43368  43.840   1.905  12.090
83624W        W43369  24.054  21.164  12.826
83625W        W43370  25.704  30.111  14.011
83626W        W43371  38.899  29.648  11.389
83627W        W43372   7.310   5.854   1.385
83628W        W43373  15.661   8.364   2.276
83629W        W43374  26.158  39.964  10.488
83630W        W43375  15.234  22.147  10.976
83631W        W43376  10.320  16.306  14.426
83632W        W43377   9.240  16.715  11.939
83633W        W43378  24.672  17.108  10.938
83634W        W43379  21.544  40.456   4.822
83635W        W43380  33.990  34.392   1.321
83636W        W43381  35.588  44.282  13.005
83637W        W43382  18.201  43.882   4.598
83638W        W43383  13.322  35.555  11.440
83639W        W43384  14.772  41.519   2.884
83640W        W43385  35.995  17.150   2.819
83641W        W43386  32.093  44.953  11.068
83642W        W43387  31.127  35.874   1.414
83643W        W43388  28.085  34.603  10.102
83644W        W43389  32.528  40.336   3.287
83645W        W43390  28.022  21.090  14.917
83646W        W43391  15.285  29.664   1.861
83647W        W43392  35.571  15.277   1.258
83648W        W43393  38.369  22.156  10.905
83649W        W43394  40.914  24.519   4.819
83650W        W43395  10.749   1.790  13.499
83651W        W43396  31.089  29.013  14.821
83652W        W43397   2.842  23.146  11.563
83653W        W43398   6.370  43.491   0.384
83654W        W43399   0.353  22.553  14.920
83655W        W43400  29.533  43.292  14.414
83656W        W43401  29.939  16.665   2.845
83657W        W43402  42.016  41.428   4.286
83658W        W43403  17.172  24.636  10.599
83659W        W43404   1.265  42.349  14.415
83660W        W43405  17.261  10.244  13.959
83661W        W43406  30.137  27.573  10.158
83662W        W43407  30.590  44.863   0.752
83663W        W43408  28.529  24.083   0.440
83664W        W43409  11.865   0.433   3.851
83665W        W43410  27.160  29.425   1.275
83666W        W43411  32.945  41.984  10.504
83667W        W43412  42.333  11.690   4.266
83668W        W43413  41.904  24.543  13.494
83669W        W43414  34.574  34.877  10.619
83670W        W43415  23.204  18.128  12.928
83671W        W43416  30.517  34.393  11.450
83672W        W43417   8.272  38.336  11.562
83673W        W43418   7.778  43.284  14.913
83674W        W43419  35.949  27.689  11.893
83675W        W43420  17.198  43.925  14.292
83676W        W43421  30.610  25.491  11.474
83677W        W43422  15.614  30.505  13.798
83678W        W43423  11.865  13.639   3.313
83679W        W43424   6.700  42.298   4.299
83680W        W43425   8.821  37.494   0.728
83681W        W43426  27.997  28.158   1.311
83682W        W43427  44.450  18.233  14.946
83683W        W43428  38.884  19.158  14.955
83684W        W43429   5.709  29.969  12.824
83685W        W43430  16.743  41.945   1.419
83686W        W43431  37.439  33.442  12.527
83687W        W43432  10.199  42.939   4.786
83688W        W43433  18.548  20.601  10.417
83689W        W43434  24.687  40.044   4.227
83690W        W43435  39.458  44.435   2.412
83691W        W43436   8.192  19.257   2.869
83692W        W43437  35.464  26.059   1.844
83693W        W43438  42.295  10.699  12.492
83694W        W43439  21.181   1.393   1.418
83695W        W43440  16.144  34.571   1.293
83696W        W43441   8.881  18.110   4.161
83697W        W43442  30.523  21.595  14.885
83698W        W43443   3.451  18.567   0.786
83699W        W43444   6.880  13.792  12.548
83700W        W43445  25.467  42.779  14.437
83701W        W43446   3.713  23.607   1.779
83702W        W43447  29.431   0.264   2.239
83703W        W43448   1.935  17.280   2.357
83704W        W43449   6.260  14.599   1.783
83705W        W43450   8.405  28.602   0.334
83706W        W43451   2.907  40.464   1.336
83707W        W43452   9.885  38.499   3.291
83708W        W43453   7.893   2.395   2.401
83709W        W43454  20.605  14.281   0.742
83710W        W43455   2.800   0.816  14.419
83711W        W43456  10.787  11.212   4.638
83712W        W43457  32.123  42.483   3.284
83713W        W43458  44.333  11.778  11.602
83714W        W43459  26.701  30.595  10.631
83715W        W43460  12.787   7.766   1.380
83716W        W43461  41.298   3.908  13.933
83717W        W43462  32.932   9.734   4.214
83718W        W43463  18.166  36.585   4.248
83719W        W43464   6.752   8.711  13.949
83720W        W43465  20.208  35.092  14.813
83721W        W43466   7.212  17.642  14.438
83722W        W43467   3.936   2.387   3.745
83723W        W43468   0.285  42.840   4.793
83724W        W43469  27.550  42.994  13.430
83725W        W43470  27.500  36.957  11.035
83726W        W43471   2.825  24.984   0.954
83727W        W43472  10.856   4.768  11.025
83728W        W43473   0.290   8.878  10.587
83729W        W43474   1.836  22.634  10.929
83730W        W43475   5.879  15.770   4.729
83731W        W43476  26.498  44.451   0.778
83732W        W43477  44.261   8.858   0.373
83733W        W43478  35.479  29.530  12.406
83734W        W43479   4.863   2.320   0.248
83735W        W43480  28.085  31.592  13.905
83736W        W43481  13.731  15.677  14.282
83737W        W43482  31.548   9.820   2.662
83738W        W43483  31.569  23.595   0.317
83739W        W43484  22.543  31.102  13.447
83740W        W43485  42.333  29.928   4.354
83741W        W43486  30.618  39.372  13.355
83742W        W43487   2.752  17.775  13.371
83743W        W43488  24.711  36.006  12.952
83744W        W43489  26.667  19.128  11.448
83745W        W43490  41.851  17.205   1.816
83746W        W43491  44.370  12.179   4.798
83747W        W43492  20.098  43.420  10.423
83748W        W43493  19.579   1.467   1.258
83749W        W43494  13.279  30.652  10.999
83750W        W43495   5.214  43.977   4.740
83751W        W43496  19.672  18.687   3.687
83752W        W43497  15.727  16.165  13.406
83753W        W43498  28.106  42.939  13.370
83754W        W43499   7.286  16.733   1.325
83755W        W43500  43.993  13.279   3.308
83756W        W43501  40.960  34.469  11.580
83757W        W43502   8.836  23.077  13.943
83758W        W43503  18.235   6.342  12.393
83759W        W43504  28.612   8.387   0.475
83760W        W43505  32.975  38.473  10.906
83761W        W43506  29.618   1.885   1.791
83762W        W43507  19.157  11.718   1.696
83763W        W43508  21.674  13.191  13.851
83764W        W43509  14.137  31.079   5.139
83765W        W43510   3.907  28.611  12.042
83766W        W43511  31.463  20.682   1.232
83767W        W43512  37.843  40.438  11.888
83768W        W43513  11.201  36.086  14.335
83769W        W43514  16.107  26.093   3.758
83770W        W43515  40.891  15.183   1.436
83771W        W43516  21.200  36.916   1.376
83772W        W43517   2.897  12.285   2.891
83773W        W43518  36.593   6.393   0.441
83774W        W43519  41.394  39.952  14.447
83775W        W43520  40.902  16.638  12.960
83776W        W43521  35.382   4.776  14.370
83777W        W43522   3.220  23.996   0.400
83778W        W43523  39.328  12.785   4.624
83779W        W43524  25.074  32.995   3.156
83780W        W43525  28.528  36.082   3.232
83781W        W43526  26.548  20.691   1.920
83782W        W43527  44.923  43.500  11.985
83783W        W43528   3.941  32.909   4.158
83784W        W43529  30.490  37.339  13.990
83785W        W43530  13.227  13.650  14.325
83786W        W43531  19.058  36.863  14.355
83787W        W43532  12.857  32.407   4.141
83788W        W43533  21.526  31.113  14.957
83789W        W43534  18.606   8.204   1.697
83790W        W43535  13.107  22.579  11.440
83791W        W43536  19.615  32.106   0.873
83792W        W43537  19.117   8.704  11.946
83793W        W43538  42.414  18.133   2.318
83794W        W43539   0.859   0.811  11.896
83795W        W43540  42.898  42.476   3.277
83796W        W43541  26.484   2.415   4.349
83797W        W43542  15.150   7.824  12.405
83798W        W43543  16.309  16.185  14.511
83799W        W43544  33.943  35.880  13.058
83800W        W43545  11.150  17.190  13.507
83801W        W43546   5.903  21.585  10.486
83802W        W43547   9.765  38.438   2.232
83803W        W43548  14.682  37.047   3.342
83804W        W43549  30.427  39.022   2.875
83805W        W43550   4.877  27.686   3.807
83806W        W43551  35.057  15.776   1.335
83807W        W43552  12.679  16.308  14.433
83808W        W43553  33.022   4.271   9.581
83809W        W43554   0.387  10.273  10.604
83810W        W43555  44.876  36.499  12.081
83811W        W43556  42.794  24.059  12.457
83812W        W43557  23.511  41.862  14.027
83813W        W43558  22.092  20.242   4.342
83814W        W43559  44.855  10.856   0.302
83815W        W43560  18.152  35.405  11.994
83816W        W43561  24.983   9.704   1.745
83817W        W43562  18.290  31.499  14.401
83818W        W43563   6.759  41.293   2.380
83819W        W43564  13.756  36.570   5.200
83820W        W43565  15.654  16.678  13.846
83821W        W43566  16.592   9.649  13.458
83822W        W43567  26.555  21.153  11.022
83823W        W43568  15.636  14.724  14.442
83824W        W43569  42.510  37.363  12.966
83825W        W43570  17.216   8.867  10.128
83826W        W43571  32.063  31.045   2.688
83827W        W43572  35.863  19.764   4.232
83828W        W43573  16.219  32.890   1.344
83829W        W43574  25.710  38.980  13.520
83830W        W43575  16.281  37.491  10.539
83831W        W43576  42.878  21.174  12.085
83832W        W43577  12.286   1.406   3.243
83833W        W43578  19.048  41.488   4.649
83834W        W43579   7.852  13.105   2.188
83835W        W43580  19.691  13.801   1.213
83836W        W43581  24.627   8.278  13.436
83837W        W43582  32.062   5.338   0.353
83838W        W43583  29.506   7.292  13.941
83839W        W43584  44.503  28.990   3.264
83840W        W43585   0.399  13.743   4.216
83841W        W43586  21.236  13.232   3.720
83842W        W43587   5.233  10.654   3.670
83843W        W43588  16.253   5.808  11.464
83844W        W43589   8.392  27.461  10.643
83845W        W43590   2.451  22.565  12.575
83846W        W43591  29.927  17.697   2.311
83847W        W43592  16.635   6.242  12.373
83848W        W43593  39.971  11.200  11.098
83849W        W43594   6.233   1.781  10.906
83850W        W43595  23.162  14.615   1.735
83851W        W43596  44.272   9.840  14.935
83852W        W43597  20.092  39.420  10.536
83853W        W43598  17.705  35.033  12.342
83854W        W43599  37.879   7.262   3.315
83855W        W43600  26.150  23.141  13.363
83856W        W43601  38.075  19.588  14.814
83857W        W43602  17.610  18.217  11.897
83858W        W43603  33.093  11.800   3.782
83859W        W43604   8.719  39.879  10.524
83860W        W43605  44.964  27.641   4.209
83861W        W43606  42.325  14.154  13.896
83862W        W43607  19.759  41.816   0.848
83863W        W43608  15.308  35.559  12.906
83864W        W43609  35.573  13.187  14.390
83865W        W43610  34.459  32.983   0.254
83866W        W43611  44.003  38.479   3.860
83867W        W43612   8.777   2.889  10.580
83868W        W43613   6.198  16.238  10.954
83869W        W43614  19.600   4.888  12.958
83870W        W43615   6.416  43.863  11.418
83871W        W43616  19.080  27.071   2.897
83872W        W43617  34.915  22.676   5.176
83873W        W43618  27.465   2.337   4.183
83874W        W43619  44.853   8.782  11.517
83875W        W43620   6.803   2.806  10.547
83876W        W43621  32.601  32.481  14.797
83877W        W43622   8.755  32.392   1.430
83878W        W43623  10.741  14.600   1.698
83879W        W43624  29.541  34.426   2.208
83880W        W43625  43.957   5.308   4.727
83881W        W43626   0.273  44.323  13.529
83882W        W43627  44.995  15.216  11.525
83883W        W43628  12.712  36.420  13.855
83884W        W43629  34.892   7.200  14.803
83885W        W43630  24.153  14.786   1.721
83886W        W43631  17.732  43.984   2.815
83887W        W43632  39.032   8.193   0.481
83888W        W43633  30.471  15.784  10.417
83889W        W43634  36.941  36.465  13.331
83890W        W43635   9.860   6.693  11.951
83891W        W43636  28.145   6.755  10.438
83892W        W43637   7.291  29.471  14.869
83893W        W43638  12.268  31.904   3.263
83894W        W43639  31.907  10.877   2.882
83895W        W43640   7.704   1.778  11.532
83896W        W43641   6.299  22.028   0.864
83897W        W43642  39.914  17.280   2.277
83898W        W43643  30.113  18.555  11.883
83899W        W43644   1.333  28.630  12.897
83900W        W43645   3.832  36.477   3.660
83901W        W43646  30.638   1.399  11.466
83902W        W43647  38.938  40.960  12.943
83903W        W43648   6.206  13.135  14.421
83904W        W43649  28.550  44.009   3.666
83905W        W43650  11.852  19.593  12.426
83906W        W43651   3.893  23.101   4.218
83907W        W43652  27.056  24.586   2.405
83908W        W43653  12.294  11.269   4.710
83909W        W43654  39.947  19.102   4.714
83910W        W43655   5.377  38.882  12.940
83911W        W43656  38.349  18.178  14.281
83912W        W43657  35.396  44.942  13.433
83913W        W43658  24.154  10.784   1.780
83914W        W43659  37.967  20.697  14.410
83915W        W43660  20.192  31.643  12.492
83916W        W43661   9.254  20.648  13.929
83917W        W43662  24.035  41.477   0.775
83918W        W43663  28.607  23.542   0.412
83919W        W43664  42.320  39.447  11.374
83920W        W43665  22.739  18.162   2.226
83921W        W43666  44.344  22.659  13.931
83922W        W43667  34.483  42.407  10.469
83923W        W43668  26.043  31.608  11.513
83924W        W43669  43.343  39.917   0.908
83925W        W43670  32.973  31.992   1.293
83926W        W43671  42.282  16.281   0.863
83927W        W43672  44.909  21.640   9.924
83928W        W43673  19.113  24.682  13.911
83929W        W43674   1.922  40.988  14.964
83930W        W43675  27.581  24.026   4.204
83931W        W43676  38.822   6.890  13.847
83932W        W43677  29.976  29.534  11.880
83933W        W43678   8.391  15.086   0.469
83934W        W43679  17.240  38.967  11.527
83935W        W43680   5.911  18.246   2.293
83936W        W43681  19.209  23.056   3.370
83937W        W43682  32.034  16.159   1.746
83938W        W43683  15.651  38.556   1.890
83939W        W43684  23.179  36.992   0.914
83940W        W43685  42.349  12.802   4.135
83941W        W43686  42.317  26.177  14.025
83942W        W43687  10.874  15.823   0.841
83943W        W43688  18.165  38.535  11.473
83944W        W43689  27.142  35.080   2.850
83945W        W43690  29.541  22.060   4.175
83946W        W43691  28.459  36.434  13.488
83947W        W43692  32.133   9.287   2.346
83948W        W43693  26.667  27.613   4.354
83949W        W43694  14.233  20.187   5.286
83950W        W43695  23.602  41.314  11.009
83951W        W43696  18.295  21.678   1.431
83952W        W43697   8.200  23.681  11.044
83953W        W43698  36.577  31.446   3.291
83954W        W43699   1.849  25.110  12.450
83955W        W43700   5.366  27.965  11.868
83956W        W43701  36.349  34.917   0.395
83957W        W43702  44.447   6.701   1.721
83958W        W43703  40.949   2.963   2.292
83959W        W43704  28.073  40.410   4.821
83960W        W43705  16.265   7.224   3.691
83961W        W43706  30.470  32.925  10.910
83962W        W43707  40.960  30.607  12.936
83963W        W43708  23.694  41.855   4.173
83964W        W43709  34.031  21.520  11.921
83965W        W43710  37.552  31.621   4.236
83966W        W43711  12.767   0.968   4.618
83967W        W43712  28.648  33.530   4.235
83968W        W43713   3.330  15.784  13.531
83969W        W43714  13.319  34.416  12.581
83970W        W43715  18.096  10.633  10.482
83971W        W43716  28.152   6.864   5.653
83972W        W43717   8.663   6.813   2.744
83973W        W43718  33.911  42.388   2.748
83974W        W43719   9.789  44.403   3.295
83975W        W43720  28.028  10.383  14.894
83976W        W43721   4.428  10.205  13.469
83977W        W43722  14.775  15.647   2.311
83978W        W43723   7.904  15.675  13.346
83979W        W43724  24.597  24.173  12.095
83980W        W43725  10.875  28.520   3.723
83981W        W43726  21.047  42.888  14.945
83982W        W43727   0.487  33.002  12.987
83983W        W43728  27.605  12.651  13.491
83984W        W43729  14.720  41.384  12.400
83985W        W43730   7.215  25.024   4.659
83986W        W43731  16.146  25.590   4.624
83987W        W43732  30.002  30.551  12.407
83988W        W43733  29.555  40.904   1.807
83989W        W43734  14.145  34.112  11.093
83990W        W43735  10.297  18.755   1.272
83991W        W43736  44.309  38.938   2.336
83992W        W43737  38.974  44.442   1.415
83993W        W43738  35.025  21.021   0.346
83994W        W43739   4.251   7.224   4.295
83995W        W43740  10.861   3.249   0.911
83996W        W43741   5.732   3.411   2.765
83997W        W43742  24.132   7.411   4.320
83998W        W43743  16.317   5.336   2.780
83999W        W43744  35.879   0.323  11.111
84000W        W43745  44.418  33.024   4.614
84001W        W43746  21.543   0.933   2.803
84002W        W43747  30.507  26.993   2.834
84003W        W43748  19.270  23.617   1.929
84004W        W43749  31.473   7.174  13.985
84005W        W43750  15.123   5.742   1.715
84006W        W43751  26.969   4.405  14.935
84007W        W43752  29.455   1.838  10.150
84008W        W43753  34.381  29.087   0.325
84009W        W43754  16.152  30.162  14.907
84010W        W43755  37.886  22.511   3.204
84011W        W43756  38.567  44.352  13.929
84012W        W43757  11.237  14.674  13.976
84013W        W43758  22.136   7.804   0.467
84014W        W43759  35.937   4.718   4.125
84015W        W43760  22.107  24.220  11.901
84016W        W43761  39.453  28.460  12.566
84017W        W43762  36.504   4.923   0.308
84018W        W43763  36.351   5.707   0.381
84019W        W43764  38.003  29.054  11.908
84020W        W43765  34.098   5.797  13.943
84021W        W43766  15.689  44.923   3.664
84022W        W43767  12.706  39.504   3.848
84023W        W43768   4.286  14.613  10.452
84024W        W43769  22.239  18.284   1.734
84025W        W43770  17.196  20.654  12.055
84026W        W43771  26.002  35.956   0.252
84027W        W43772  28.448   3.955   2.667
84028W        W43773   3.285  39.870  14.773
84029W        W43774  32.076  34.868  12.578
84030W        W43775  19.583  24.007  14.439
84031W        W43776   0.749  14.728   1.377
84032W        W43777   0.476  34.561  13.034
84033W        W43778  26.505  16.243  12.564
84034W        W43779  20.188  41.039   0.886
84035W        W43780   2.762   7.671   3.697
84036W        W43781  14.733  17.651   1.726
84037W        W43782   6.770  24.542  10.547
84038W        W43783  22.666  11.185   0.938
84039W        W43784  19.282  11.177   3.199
84040W        W43785  12.679  26.531   3.758
84041W        W43786   6.853  44.443   1.812
84042W        W43787  28.981  18.139   0.344
84043W        W43788  26.593  18.182   0.315
84044W        W43789  39.394   3.393   4.321
84045W        W43790  37.855  38.497  13.428
84046W        W43791  40.982   5.720  14.946
84047W        W43792  27.463   3.819  13.313
84048W        W43793   8.791   3.405  11.495
84049W        W43794   6.248  42.013  12.564
84050W        W43795  36.589  34.545  11.886
84051W        W43796  35.045   8.819   3.302
84052W        W43797  18.096   0.253   3.342
84053W        W43798  41.390  20.051  13.941
84054W        W43799  12.658  18.700  14.896
84055W        W43800   8.870  41.417  11.600
84056W        W43801   7.669  28.946  11.455
84057W        W43802  21.192   8.397  11.973
84058W        W43803   6.810  38.413   3.635
84059W        W43804  39.987  30.070   1.225
84060W        W43805  38.878   2.819   1.877
84061W        W43806  10.775  44.316  13.873
84062W        W43807  37.890  42.928   4.247
84063W        W43808  22.061  13.222   1.367
84064W        W43809  34.009   0.328  11.040
84065W        W43810  11.259   0.281   3.255
84066W        W43811  17.704  34.004   1.697
84067W        W43812   3.944  43.846   3.805
84068W        W43813   7.768  38.845  13.413
84069W        W43814   9.234  39.542  13.888
84070W        W43815  31.134  17.176  13.897
84071W        W43816  37.918   1.908  11.396
84072W        W43817  14.313  25.090  11.095
84073W        W43818  20.076  42.906   0.381
84074W        W43819   4.820  17.798   1.373
84075W        W43820  37.490  26.646  11.073
84076W        W43821  22.732   4.926   4.659
84077W        W43822   7.233  20.605   0.341
84078W        W43823  18.707   5.917   4.159
84079W        W43824  18.211   6.386   1.408
84080W        W43825  10.869  29.173   1.262
84081W        W43826  22.246  17.678   0.730
84082W        W43827  40.797  17.278  14.332
84083W        W43828  13.614  37.368   5.596
84084W        W43829   6.208   7.814   1.793
84085W        W43830  41.981  27.028  10.915
84086W        W43831  38.486  15.714  12.986
84087W        W43832  30.911  27.188   4.189
84088W        W43833   3.354  29.035   2.860
84089W        W43834  16.078  41.383  11.952
84090W        W43835   5.248   2.823  13.820
84091W        W43836  14.762  43.781   3.814
84092W        W43837  17.772  21.253  10.986
84093W        W43838  28.595  31.546   4.637
84094W        W43839  32.985  15.603  12.050
84095W        W43840  16.593  38.328  14.277
84096W        W43841  23.531   1.409   3.369
84097W        W43842   8.794  25.663  13.793
84098W        W43843  29.481   9.703   4.134
84099W        W43844  11.851  34.579   3.716
84100W        W43845  33.451  17.734   2.687
84101W        W43846  13.116  21.089  12.463
84102W        W43847  15.734  34.062  13.428
84103W        W43848  32.904  12.767  10.496
84104W        W43849  21.081  30.523  12.867
84105W        W43850  28.643  32.393   3.720
84106W        W43851  40.839  41.421   3.701
84107W        W43852  15.585  43.384  13.797
84108W        W43853  15.234   1.842   0.826
84109W        W43854  36.898  11.698  14.022
84110W        W43855  27.663  31.959  14.846
84111W        W43856  20.578  40.840  10.963
84112W        W43857  37.026  12.803   1.930
84113W        W43858  42.350  26.679  13.870
84114W        W43859   9.807  28.033   2.853
84115W        W43860   7.311  21.710   3.269
84116W        W43861  18.597  12.350   0.913
84117W        W43862  38.493   9.203   0.731
84118W        W43863  35.400   2.307   1.715
84119W        W43864  12.777  33.047   1.783
84120W        W43865   5.898   0.829  14.913
84121W        W43866   9.358  29.927   2.295
84122W        W43867  37.031  43.771   4.231
84123W        W43868   9.878   4.344  12.922
84124W        W43869   0.889   7.717  11.438
84125W        W43870   5.842  37.971  14.003
84126W        W43871   2.450  14.784   1.875
84127W        W43872  44.825  32.600   3.743
84128W        W43873  37.520  20.731   2.874
84129W        W43874   7.320  40.482   1.274
84130W        W43875  44.806  31.614   1.266
84131W        W43876  24.125  44.923   1.398
84132W        W43877  13.220   6.840   1.908
84133W        W43878  24.634  39.029   3.294
84134W        W43879  29.061  18.551   0.948
84135W        W43880  42.999  39.520   2.370
84136W        W43881  23.615  13.611  11.901
84137W        W43882  41.401   6.297  11.004
84138W        W43883  44.003  40.389   2.734
84139W        W43884  42.903  18.214   0.274
84140W        W43885  40.012   5.928   2.744
84141W        W43886   2.772   3.855  14.017
84142W        W43887  33.065   9.235  12.467
84143W        W43888  34.870  36.554  13.053
84144W        W43889  37.024  26.111   4.211
84145W        W43890  42.470  11.219  14.870
84146W        W43891  18.751  39.431   4.352
84147W        W43892  23.092  17.239   0.844
84148W        W43893   4.852  43.281   4.148
84149W        W43894  36.898  30.053  12.092
84150W        W43895  30.452   6.368   1.904
84151W        W43896  36.013   5.281  14.295
84152W        W43897  23.094  39.413  11.439
84153W        W43898   8.719  37.414  12.865
84154W        W43899   7.680  26.565  11.868
84155W        W43900  17.711   2.832  13.515
84156W        W43901  13.181  39.957   0.921
84157W        W43902   2.947  38.840   3.301
84158W        W43903  20.222   8.837  14.347
84159W        W43904  17.284  16.813   4.771
84160W        W43905  21.183  13.126   4.143
84161W        W43906  17.283   5.208   3.706
84162W        W43907  43.924  15.786   2.710
84163W        W43908  39.063  36.423  12.048
84164W        W43909  41.011  43.856  13.800
84165W        W43910   0.932  24.003   4.325
84166W        W43911  22.678   0.283  10.499
84167W        W43912  18.677  14.259   1.256
84168W        W43913  31.110  14.764   4.167
84169W        W43914  15.227  27.613   3.327
84170W        W43915  23.093  36.048  14.957
84171W        W43916   8.175  14.126  11.541
84172W        W43917   5.727  16.154   2.858
84173W        W43918  17.095  20.199   0.824
84174W        W43919  31.610  19.130   0.269
84175W        W43920  15.583  41.502  11.074
84176W        W43921  33.912   4.417   1.326
84177W        W43922  44.814  25.477  14.022
84178W        W43923  24.015  17.781   0.362
84179W        W43924  37.482  17.218  10.995
84180W        W43925  30.644  21.733  12.368
84181W        W43926  19.776  18.554  13.397
84182W        W43927  15.217   7.315   1.400
84183W        W43928  22.149  10.635   3.693
84184W        W43929   8.301   5.934   1.406
84185W        W43930  17.776   4.422   3.747
84186W        W43931  28.029  37.487   3.345
84187W        W43932  27.947  22.662  10.955
84188W        W43933   3.758  43.315   1.433
84189W        W43934  17.285  40.000  12.922
84190W        W43935   6.291   5.420   4.806
84191W        W43936  22.216  40.330   4.178
84192W        W43937  17.143  10.337   2.750
84193W        W43938  33.540  28.115  12.369
84194W        W43939   5.425  12.190  11.079
84195W        W43940  33.401   6.226   0.831
84196W        W43941  26.669   6.818  12.933
84197W        W43942  21.623  22.064  12.015
84198W        W43943   5.274  10.691  10.417
84199W        W43944  35.910  15.633   0.293
84200W        W43945  29.511  37.519  12.571
84201W        W43946   9.374   0.424   2.396
84202W        W43947   1.358  23.730   0.879
84203W        W43948  39.553  44.955   1.300
84204W        W43949  18.143   1.376   0.760
84205W        W43950  12.616   6.733   1.441
84206W        W43951  30.533  19.759  12.047
84207W        W43952  35.937  27.565  13.492
84208W        W43953  39.402  29.592  13.462
84209W        W43954  17.607  36.908  10.945
84210W        W43955  33.562  10.322   2.191
84211W        W43956  29.123  30.042  14.805
84212W        W43957   9.826   2.895   1.913
84213W        W43958   6.682  23.000  10.432
84214W        W43959  29.117   7.259  13.864
84215W        W43960  22.637  36.561   0.348
84216W        W43961  38.416  30.997  12.988
84217W        W43962  18.647  11.247   4.128
84218W        W43963  15.110  26.682   2.235
84219W        W43964  34.614  18.777   4.790
84220W        W43965  36.891  25.589  14.821
84221W        W43966  43.974  14.124   1.429
84222W        W43967  19.702  30.016   3.231
84223W        W43968  10.807  24.659  11.882
84224W        W43969  19.276  41.435  11.585
84225W        W43970  23.543  29.436   3.674
84226W        W43971  22.132  28.988  10.900
84227W        W43972  33.981  12.703  11.511
84228W        W43973  42.814  18.669   2.294
84229W        W43974  18.776  37.843   1.700
84230W        W43975  37.972  42.875  12.025
84231W        W43976   8.254  29.631  13.999
84232W        W43977   6.291  44.300  12.914
84233W        W43978  25.069  15.695   1.276
84234W        W43979   6.677  43.008   2.261
84235W        W43980  32.593  30.583   2.731
84236W        W43981   1.311  20.568  11.925
84237W        W43982   8.807  44.268   2.685
84238W        W43983   4.230  21.576  12.377
84239W        W43984   2.381  35.035  13.421
84240W        W43985  26.164   0.348   1.231
84241W        W43986  31.009  31.639   1.809
84242W        W43987  13.845   3.325   0.313
84243W        W43988  11.127  43.399  12.888
84244W        W43989   6.821  15.259   0.774
84245W        W43990  23.713   6.348   2.413
84246W        W43991  39.029  13.663   3.870
84247W        W43992  43.475   2.808  13.867
84248W        W43993   5.700  24.078  10.994
84249W        W43994  12.202   4.716  13.368
84250W        W43995  22.732  28.584   1.853
84251W        W43996  34.067  39.552   2.271
84252W        W43997  31.137   1.762   4.809
84253W        W43998  16.646  28.056   1.305
84254W        W43999   0.442  32.498   1.729
84255W        W44000  36.901  36.077  14.912
84256W        W44001  17.209  42.444  10.516
84257W        W44002  42.510  32.542   2.326
84258W        W44003  33.398  13.144   1.382
84259W        W44004  32.403  38.496   0.960
84260W        W44005   2.871  43.816   3.793
84261W        W44006  12.828  34.391   2.401
84262W        W44007  14.619   4.330   1.895
84263W        W44008  41.390  41.449  10.934
84264W        W44009  30.160  23.516  11.051
84265W        W44010   2.893  10.173  14.824
84266W        W44011   7.376   8.179  11.072
84267W        W44012  37.948  14.589   3.195
84268W        W44013  26.173  34.871   0.793
84269W        W44014   0.289  39.976   2.415
84270W        W44015  31.496  23.234   3.279
84271W        W44016  24.027   2.425   1.802
84272W        W44017  12.228  10.240  10.605
84273W        W44018   0.789  33.447   4.182
84274W        W44019  34.582  20.561   2.757
84275W        W44020  15.197   1.811   4.187
84276W        W44021  27.528   5.257   2.801
84277W        W44022  33.483  22.626   2.309
84278W        W44023  27.006  13.790  12.094
84279W        W44024  24.495  17.795   4.123
84280W        W44025  15.139   4.790  10.515
84281W        W44026  12.120  34.384   5.125
84282W        W44027  28.114  34.092   0.888
84283W        W44028   1.291  20.265  14.294
84284W        W44029  11.367  32.591   0.844
84285W        W44030  10.195  42.010  10.552
84286W        W44031  36.473  39.923   0.390
84287W        W44032  26.700  36.856  10.430
84288W        W44033  21.625  10.350  14.335
84289W        W44034   0.308  37.403   3.246
84290W        W44035  30.436   9.648   4.353
84291W        W44036  13.147  17.284  12.560
84292W        W44037  11.368  44.799   1.426
84293W        W44038  24.582  34.034  14.395
84294W        W44039  40.476  43.325  11.867
84295W        W44040  34.892  19.771  12.514
84296W        W44041   4.938  36.084  11.046
84297W        W44042   4.737  21.731  12.903
84298W        W44043  18.152   0.747  10.446
84299W        W44044  42.818  12.810  10.595
84300W        W44045  31.626   4.712  13.928
84301W        W44046  28.934  28.137  12.066
84302W        W44047  23.198  39.981   4.294
84303W        W44048  24.591  30.590   5.212
84304W        W44049  10.766  32.482  11.581
84305W        W44050  43.845  12.243   0.431
84306W        W44051  41.036  33.913   3.700
84307W        W44052  40.964   3.899   3.376
84308W        W44053  37.079  13.745   3.723
84309W        W44054   0.412  28.041   1.346
84310W        W44055  29.135  31.442   1.873
84311W        W44056  39.045  20.560  11.082
84312W        W44057   9.374  19.123   2.399
84313W        W44058  34.400   4.350   4.288
84314W        W44059  24.171  26.692  10.459
84315W        W44060  17.779  25.977   3.865
84316W        W44061  42.913  22.102  11.088
84317W        W44062  22.070  44.306  14.317
84318W        W44063  22.604  25.680   0.474
84319W        W44064   8.772  41.340   2.769
84320W        W44065   5.220  28.117   2.357
84321W        W44066  32.996  20.638   4.736
84322W        W44067   0.300   1.367   0.393
84323W        W44068  33.066  10.669  14.814
84324W        W44069  12.713  34.472  12.922
84325W        W44070  37.944  15.298   2.340
84326W        W44071  16.713   6.855   0.481
84327W        W44072   3.816  23.607   4.694
84328W        W44073  32.119  13.604   4.686
84329W        W44074   8.824  10.707   0.272
84330W        W44075  21.027  20.140  11.069
84331W        W44076   5.231  15.792  10.466
84332W        W44077   0.769  36.569  13.381
84333W        W44078  23.693  21.650  10.541
84334W        W44079  28.129  13.144   3.278
84335W        W44080   9.372   6.715   4.154
84336W        W44081  29.114   6.218  11.516
84337W        W44082  37.905  37.995   1.417
84338W        W44083  22.215  15.605   0.397
84339W        W44084  18.658  10.307  10.052
84340W        W44085  11.174  34.570   2.217
84341W        W44086  13.833  41.914   3.227
84342W        W44087   3.448  37.486  10.104
84343W        W44088  23.160  17.770   4.258
84344W        W44089   9.776   8.736   0.447
84345W        W44090  41.878  21.150   0.740
84346W        W44091   8.374  17.780  13.507
84347W        W44092  25.488  27.498  11.465
84348W        W44093  20.156   2.815   4.712
84349W        W44094  38.950  20.590  14.900
84350W        W44095  12.831   7.900  12.370
84351W        W44096  19.169   6.268   1.780
84352W        W44097  34.612  13.273   4.815
84353W        W44098  35.577  37.494   2.762
84354W        W44099  18.102  32.558   1.271
84355W        W44100  34.092  26.031  12.412
84356W        W44101  27.583  22.609  14.771
84357W        W44102  37.976  17.589  11.027
84358W        W44103   0.294  32.012  13.952
84359W        W44104  43.362  27.130   0.266
84360W        W44105  16.130  19.258   2.386
84361W        W44106   4.814  22.509   2.321
84362W        W44107  19.623  29.622  14.945
84363W        W44108  38.849  38.004   3.766
84364W        W44109  31.022   1.936  10.603
84365W        W44110  23.094  20.259  13.405
84366W        W44111  31.563  18.066  12.866
84367W        W44112  32.468   0.768  12.069
84368W        W44113  17.303  29.460  12.485
84369W        W44114  16.292  25.983   0.806
84370W        W44115  32.418  26.131  13.455
84371W        W44116   8.320  20.114   0.411
84372W        W44117  18.091  39.815  14.802
84373W        W44118  11.802  21.158  10.642
84374W        W44119  25.021  18.233   1.775
84375W        W44120   2.339  23.721  12.900
84376W        W44121  32.019  13.788   1.424
84377W        W44122  13.323   2.417   0.796
84378W        W44123  34.509  41.807  14.330
84379W        W44124  20.523   1.872   2.763
84380W        W44125   1.782  15.206  14.885
84381W        W44126  21.598  43.931  13.850
84382W        W44127  33.406  23.591   4.309
84383W        W44128   7.224   5.800   3.850
84384W        W44129  23.157   9.157  13.824
84385W        W44130  21.097  30.619  12.462
84386W        W44131  13.665  36.937   4.355
84387W        W44132   8.704  36.923   1.368
84388W        W44133  11.138  24.136   3.637
84389W        W44134  43.456   6.236  11.374
84390W        W44135  21.548  31.102   3.817
84391W        W44136   7.770  44.377  13.384
84392W        W44137  17.130  16.081  12.974
84393W        W44138  15.703   1.458  12.887
84394W        W44139  19.114  42.907  11.435
84395W        W44140   3.332  17.084   4.696
84396W        W44141  18.713   7.865  11.895
84397W        W44142  33.914  43.775  12.569
84398W        W44143   9.266   0.409   0.465
84399W        W44144  42.858  20.597   1.796
84400W        W44145  20.043  32.495   0.362
84401W        W44146  28.152   1.868  12.413
84402W        W44147  18.237   0.949   0.846
84403W        W44148  19.656   0.792   4.218
84404W        W44149   0.418  30.525   2.765
84405W        W44150  26.639  44.398  13.032
84406W        W44151   0.281  27.063   2.190
84407W        W44152  36.938  10.869  11.593
84408W        W44153   4.726  13.762   2.882
84409W        W44154  26.498  18.131   4.677
84410W        W44155  44.856  10.158  11.106
84411W        W44156  31.047  17.691   3.287
84412W        W44157   3.356  27.630  14.792
84413W        W44158  25.612  10.732   3.797
84414W        W44159  21.540  41.337  12.426
84415W        W44160  32.043  22.019  13.835
84416W        W44161  33.436  23.157   1.698
84417W        W44162  20.208  34.022  11.067
84418W        W44163  12.754  32.020   5.318
84419W        W44164   1.931  35.539  10.999
84420W        W44165  30.119  13.820   0.844
84421W        W44166  41.974  44.941  11.074
84422W        W44167  43.348   0.423  14.349
84423W        W44168   1.427  32.128  14.862
84424W        W44169   0.825  20.699   1.375
84425W        W44170  24.545   6.898   1.743
84426W        W44171   3.873  43.506  12.076
84427W        W44172   0.963  40.903   0.797
84428W        W44173  31.620  22.729  11.595
84429W        W44174  44.816   8.264   1.354
84430W        W44175  37.374  39.836  10.551
84431W        W44176  30.156  42.488  11.979
84432W        W44177   0.933   9.254   0.343
84433W        W44178  34.401   4.702   4.115
84434W        W44179  15.808  32.536  11.964
84435W        W44180  28.064  19.177  11.104
84436W        W44181  17.208  32.589  12.038
84437W        W44182  25.010  43.303  11.915
84438W        W44183  43.813  29.076   4.255
84439W        W44184  33.583  40.496   1.772
84440W        W44185  37.433  24.611   0.880
84441W        W44186  40.326  31.987   3.833
84442W        W44187  43.820  39.450   4.611
84443W        W44188  40.993  22.615   0.936
84444W        W44189  30.008  34.000   3.168
84445W        W44190   9.693  11.142   1.743
84446W        W44191  11.753   8.726   9.985
84447W        W44192  21.111  28.088   4.190
84448W        W44193  21.098   8.683  10.479
84449W        W44194  37.536  43.505   5.222
84450W        W44195   6.410  40.496  13.474
84451W        W44196   0.773  23.673   3.278
84452W        W44197  33.435  43.365  10.909
84453W        W44198  44.323  18.757   4.260
84454W        W44199  12.685  21.728   3.166
84455W        W44200  19.771  15.813  13.360
84456W        W44201  16.597  27.485  11.612
84457W        W44202  12.267   4.265   0.788
84458W        W44203   2.386  24.582   3.300
84459W        W44204  14.811  11.631  11.416
84460W        W44205  12.281  40.528  10.419
84461W        W44206   9.314  24.987  11.596
84462W        W44207  33.529  34.425   9.979
84463W        W44208  15.615  13.277   3.663
84464W        W44209  20.733  20.595   2.778
84465W        W44210  19.086   6.795   1.791
84466W        W44211   2.730  40.919   1.739
84467W        W44212  33.027  39.344  14.851
84468W        W44213  37.839   0.767  13.871
84469W        W44214  39.497  26.145   3.238
84470W        W44215   1.426  14.736   1.301
84471W        W44216  17.240  29.974  12.902
84472W        W44217  21.557  32.523   3.347
84473W        W44218  20.249  15.251   1.878
84474W        W44219   5.744  25.679   0.269
84475W        W44220  39.411  34.058   3.351
84476W        W44221  11.214  32.068   1.444
84477W        W44222  28.022  39.395  10.443
84478W        W44223  26.675   9.852   4.289
84479W        W44224  15.202  27.947   0.467
84480W        W44225  34.565   6.856   4.599
84481W        W44226  33.113  30.578  14.354
84482W        W44227   1.779   6.242   2.389
84483W        W44228  18.638  24.194  13.935
84484W        W44229   1.253  22.552   4.676
84485W        W44230  44.955  32.450  11.871
84486W        W44231   5.423   7.802  14.428
84487W        W44232  30.487  17.557   4.703
84488W        W44233  44.404  14.288   2.306
84489W        W44234  44.394   3.454   3.704
84490W        W44235  13.824  12.219   0.296
84491W        W44236  27.517  33.129  11.569
84492W        W44237   3.267  21.661  11.070
84493W        W44238   8.324  32.460   3.803
84494W        W44239  34.001  35.034   4.603
84495W        W44240  43.835  41.945   1.391
84496W        W44241  11.795  12.210   2.296
84497W        W44242  17.203  27.056  11.010
84498W        W44243  30.977  25.657  13.797
84499W        W44244  15.232  13.242   2.836
84500W        W44245  25.665  39.863   4.221
84501W        W44246  26.650  30.568   4.277
84502W        W44247   6.881  29.498  13.858
84503W        W44248  11.675   2.764   4.723
84504W        W44249  26.154  15.315  10.471
84505W        W44250  25.196  40.467   1.843
84506W        W44251  10.692  40.440  11.863
84507W        W44252   7.673  32.402   0.818
84508W        W44253  28.930  18.549   3.808
84509W        W44254  42.857   9.721   0.307
84510W        W44255  35.577  41.354   4.718
84511W        W44256  34.042  31.506   2.890
84512W        W44257   9.204  11.218  11.862
84513W        W44258  34.954  28.468  10.573
84514W        W44259   5.768   3.396   2.360
84515W        W44260  37.581   3.782   4.297
84516W        W44261  11.351  42.998   4.614
84517W        W44262  32.558  33.882   3.321
84518W        W44263  20.108  41.797   1.724
84519W        W44264  34.525  36.422   3.199
84520W        W44265  17.798  25.687   4.597
84521W        W44266  12.638  23.520   2.197
84522W        W44267  37.498   9.373   0.838
84523W        W44268   7.254  25.522   5.308
84524W        W44269  41.485  17.168   2.297
84525W        W44270  25.970  32.539   5.228
84526W        W44271  20.188   9.648  14.511
84527W        W44272  25.673  39.454   1.405
84528W        W44273  30.632   9.738  10.909
84529W        W44274  33.387  44.463  13.832
84530W        W44275  23.086  26.694   1.783
84531W        W44276  44.942  43.909  14.468
84532W        W44277  30.123  36.466  11.960
84533W        W44278  21.225  40.463  13.962
84534W        W44279  37.957  23.144   0.340
84535W        W44280   4.363  17.253   4.780
84536W        W44281  36.918  41.419   1.781
84537W        W44282  16.702  13.239   4.201
84538W        W44283  20.236  29.607   0.783
84539W        W44284  22.061  27.517   1.252
84540W        W44285   5.910   4.398  10.563
84541W        W44286  26.149  14.774  14.774
84542W        W44287   4.725   6.703   4.311
84543W        W44288  43.964  32.957   0.367
84544W        W44289  42.980  19.109   0.429
84545W        W44290  21.710   6.842   4.633
84546W        W44291  22.723   9.736   4.152
84547W        W44292   9.807  12.299   3.824
84548W        W44293  42.812  33.077  13.963
84549W        W44294  32.439  36.393   1.355
84550W        W44295  40.925  41.456   2.353
84551W        W44296  39.025  14.292  13.815
84552W        W44297  34.995   2.859   2.379
84553W        W44298  39.953  17.174  10.922
84554W        W44299  40.054  29.499   4.742
84555W        W44300  34.596   9.231   3.866
84556W        W44301  39.356  37.451   0.814
84557W        W44302  35.604  11.142  14.336
84558W        W44303  12.191  25.201  11.084
84559W        W44304  23.554  42.518   1.759
84560W        W44305  19.232  43.374   0.484
84561W        W44306  40.837  18.234   4.264
84562W        W44307  16.307  11.813  11.570
84563W        W44308   4.893  21.097  11.898
84564W        W44309  18.222   7.805   4.122
84565W        W44310  18.661  28.037   2.758
84566W        W44311  10.305  22.099   4.205
84567W        W44312   7.743  26.058  13.976
84568W        W44313  17.169  26.546   5.227
84569W        W44314  36.988  35.047  10.459
84570W        W44315  36.546  15.317   0.960
84571W        W44316  43.464  34.031   4.628
84572W        W44317   9.202  14.657  12.469
84573W        W44318  11.129  25.495   2.216
84574W        W44319  26.566  30.607  13.020
84575W        W44320   4.785  22.240   1.392
84576W        W44321   0.898  11.313  12.513
84577W        W44322  28.999  32.548  12.518
84578W        W44323  20.069  38.923  13.815
84579W        W44324  42.833  13.670   0.257
84580W        W44325  12.632  14.171  14.390
84581W        W44326  32.051  42.388  10.427
84582W        W44327  22.557  22.076   2.675
84583W        W44328  12.670  32.472  10.580
84584W        W44329  25.093   3.289  14.297
84585W        W44330  13.824  36.940  11.526
84586W        W44331  19.171  37.450  11.505
84587W        W44332  17.158   1.795  11.017
84588W        W44333  12.778  19.686   3.786
84589W        W44334   5.285   6.682   0.931
84590W        W44335   2.860  26.059   1.722
84591W        W44336  23.211   7.703   0.850
84592W        W44337  43.895  13.604   2.858
84593W        W44338  29.543  12.777   3.213
84594W        W44339  36.558  10.277  11.531
84595W        W44340  27.597  37.902  10.438
84596W        W44341  23.623   0.376  11.427
84597W        W44342  15.226  41.336   4.784
84598W        W44343   2.802   8.675   2.809
84599W        W44344  24.675  37.892  10.569
84600W        W44345  35.952  39.382   4.210
84601W        W44346  29.514  32.956  12.477
84602W        W44347  17.632  44.872  14.024
84603W        W44348   7.372  18.095  12.879
84604W        W44349  20.588  25.685  13.800
84605W        W44350  26.583  16.220   1.358
84606W        W44351  37.461   6.225  10.899
84607W        W44352  41.962   4.841   2.334
84608W        W44353  44.312  41.918   3.866
84609W        W44354  19.616  38.442  11.043
84610W        W44355   1.437  31.100  11.898
84611W        W44356   4.894  35.595  11.528
84612W        W44357   6.830  37.409   2.289
84613W        W44358  35.011  28.487  11.421
84614W        W44359  37.882  24.042   1.867
84615W        W44360  27.648  26.685  12.028
84616W        W44361  19.090   0.773  13.406
84617W        W44362   6.741  28.079  14.969
84618W        W44363  22.162  42.800   4.702
84619W        W44364  38.418   6.748   0.965
84620W        W44365  39.413  39.370  11.533
84621W        W44366  36.493  12.708  14.501
84622W        W44367  19.618  13.716  11.492
84623W        W44368  19.727   8.311   3.830
84624W        W44369  16.255   9.818  13.417
84625W        W44370  30.995  40.531  12.063
84626W        W44371  13.599  21.152   4.229
84627W        W44372  21.201  26.570   0.838
84628W        W44373   3.219  38.477  12.445
84629W        W44374  16.657  38.907  10.624
84630W        W44375  42.922  36.530   4.259
84631W        W44376  22.154  43.500  11.974
84632W        W44377   0.260  28.624   4.659
84633W        W44378  34.046  20.206  13.425
84634W        W44379  23.238  39.509  10.912
84635W        W44380  15.634  25.052  13.897
84636W        W44381  24.615  35.583   2.224
84637W        W44382  24.076  28.587   4.646
84638W        W44383  21.026   8.234  13.811
84639W        W44384  37.062  20.054   1.808
84640W        W44385  33.563  40.385   1.296
84641W        W44386   0.831  38.847  11.524
84642W        W44387  37.018  17.713  12.389
84643W        W44388  14.183  18.179  13.973
84644W        W44389  44.493   8.828  12.088
84645W        W44390  37.976  17.140   3.232
84646W        W44391  25.155   8.851   3.795
84647W        W44392   8.797   7.863   1.784
84648W        W44393   3.255   7.275   2.381
84649W        W44394  13.283  31.428  11.912
84650W        W44395  40.439  22.239   3.857
84651W        W44396  16.082  29.653   0.780
84652W        W44397   9.171   9.723   0.432
84653W        W44398  29.064   7.908  12.390
84654W        W44399  40.425  39.986   0.773
84655W        W44400  38.923  32.396   0.775
84656W        W44401   4.760   1.838   3.370
84657W        W44402   6.852  42.995  12.409
84658W        W44403  16.262   0.751  14.467
84659W        W44404   2.773  33.902  14.424
84660W        W44405  22.126  26.997  13.884
84661W        W44406  10.227  33.012  11.433
84662W        W44407   3.785  18.568   1.890
84663W        W44408   6.403  15.272  10.589
84664W        W44409  23.108  15.689   0.280
84665W        W44410  30.974  41.367  10.557
84666W        W44411   9.331  23.071   0.272
84667W        W44412  21.076  28.148   2.666
84668W        W44413  39.853   6.379  11.958
84669W        W44414  11.357  23.173  12.465
84670W        W44415  21.098  32.462   2.813
84671W        W44416   0.258  15.215  10.897
84672W        W44417   8.881  23.237  14.399
84673W        W44418  40.322  13.638   2.277
84674W        W44419   5.930   0.943   0.752
84675W        W44420  26.183   1.410  14.340
84676W        W44421   1.852  42.837   3.850
84677W        W44422  22.221  37.579   4.160
84678W        W44423  39.471  29.643  13.030
84679W        W44424  37.879   2.308  10.592
84680W        W44425   9.307  23.555   1.695
84681W        W44426  36.492  14.263  10.612
84682W        W44427  31.420   7.897  12.513
84683W        W44428  25.046  10.307  13.872
84684W        W44429  37.937  21.236  12.880
84685W        W44430   3.762   9.858   3.702
84686W        W44431   5.299  43.007   3.256
84687W        W44432  30.638   3.308   1.847
84688W        W44433  12.182  38.469  12.846
84689W        W44434  34.455  19.705   0.443
84690W        W44435  14.318  41.320   3.788
84691W        W44436  33.092  43.001   1.701
84692W        W44437  40.545  16.809  13.487
84693W        W44438   4.313  33.480  14.996
84694W        W44439  32.901  38.028  13.999
84695W        W44440  14.181  18.575  13.392
84696W        W44441   5.784  44.324   0.245
84697W        W44442   0.359  33.951  13.820
84698W        W44443  16.119  13.106  10.953
84699W        W44444   7.271  18.666  11.583
84700W        W44445  14.140  33.089   4.125
84701W        W44446  12.613  38.393  12.935
84702W        W44447  29.120  26.073  14.873
84703W        W44448  10.252  39.873   3.236
84704W        W44449  38.829  32.412  14.403
84705W        W44450  11.809  32.463  13.040
84706W        W44451  15.776   8.735   4.258
84707W        W44452  43.838  16.602   9.940
84708W        W44453  25.553  44.803   2.808
84709W        W44454  41.839  37.502  11.076
84710W        W44455  22.539  42.888   4.261
84711W        W44456  16.631   4.349  14.876
84712W        W44457   1.478  17.275   0.321
84713W        W44458   1.865   6.755  13.970
84714W        W44459  17.159  43.449   2.394
84715W        W44460  32.974  11.652  11.050
84716W        W44461  23.085  21.735   4.823
84717W        W44462  25.076   7.319  12.844
84718W        W44463  14.599   3.241  14.853
84719W        W44464  27.568  19.657   3.325
84720W        W44465   0.949  43.378  14.959
84721W        W44466   0.479  34.080   4.137
84722W        W44467   9.689  18.210  14.963
84723W        W44468  28.642  38.964  11.017
84724W        W44469  40.917   6.217  13.805
84725W        W44470  30.968  42.437  12.426
84726W        W44471  11.867   4.377  12.575
84727W        W44472  41.022  21.666  13.800
84728W        W44473  21.027   7.777   0.957
84729W        W44474   3.243  44.774  11.526
84730W        W44475   5.204  37.046   4.721
84731W        W44476   1.306  37.343  14.311
84732W        W44477   8.843  27.608  12.963
84733W        W44478  30.609  40.941  13.403
84734W        W44479  31.444  27.592   3.659
84735W        W44480   1.278  10.712   2.864
84736W        W44481  30.615  15.129  10.581
84737W        W44482  36.016  11.193   2.408
84738W        W44483  14.685  42.396   3.813
84739W        W44484  32.412  30.620  13.347
84740W        W44485  42.346  22.550  13.046
84741W        W44486  44.993  40.493  10.126
84742W        W44487  38.407  25.596   3.147
84743W        W44488  37.871  44.505   1.450
84744W        W44489   2.735  20.137  14.397
84745W        W44490   3.286  37.460   1.777
84746W        W44491   9.266   4.427   1.260
84747W        W44492  30.132  13.763  14.351
84748W        W44493  14.151  20.591  12.984
84749W        W44494  30.544  44.841  13.829
84750W        W44495  36.543  21.167   0.474
84751W        W44496  11.663  23.986   1.300
84752W        W44497  38.366  11.685  13.881
84753W        W44498  19.063  43.791  11.070
84754W        W44499  32.079  32.510   3.775
84755W        W44500   5.341   6.208   4.327
84756W        W44501  24.080  16.103  14.453
84757W        W44502  14.715  27.123   1.390
84758W        W44503  17.583  14.190   4.173
84759W        W44504   6.705   7.397  13.338
84760W        W44505  20.185  25.056  14.892
84761W        W44506  37.842  14.339  11.539
84762W        W44507  32.040  35.900  14.929
84763W        W44508  26.630  37.838  14.342
84764W        W44509  11.738   4.744  10.447
84765W        W44510  17.247  34.996   0.728
84766W        W44511  22.224   4.436  11.101
84767W        W44512  13.779  18.122  12.925
84768W        W44513  23.228   9.846   2.883
84769W        W44514  34.887   0.350  13.021
84770W        W44515   8.162  17.603   0.958
84771W        W44516  17.648  40.386  14.946
84772W        W44517   5.303  28.130   1.703
84773W        W44518  20.047   6.381  14.472
84774W        W44519   9.211  25.097  12.460
84775W        W44520  43.301  12.129   4.814
84776W        W44521  28.976  29.952  10.113
84777W        W44522   3.381  18.546   1.832
84778W        W44523   0.965   8.382  12.524
84779W        W44524   9.818  27.139   4.628
84780W        W44525  39.459  31.088   0.300
84781W        W44526   2.243  33.887  14.451
84782W        W44527  18.262  10.273  10.475
84783W        W44528  30.560  28.977   2.663
84784W        W44529  42.305  35.360   4.786
84785W        W44530  41.857  25.133  11.922
84786W        W44531  28.512   9.795   1.766
84787W        W44532   0.468  12.332  12.032
84788W        W44533  15.175  29.930  11.574
84789W        W44534   0.843  19.759   0.825
84790W        W44535  30.533   6.680  11.415
84791W        W44536  22.698  30.996  12.341
84792W        W44537  39.913  27.162  12.502
84793W        W44538  11.857  17.673  13.799
84794W        W44539  44.964  18.094  14.418
84795W        W44540  42.495   6.263   4.276
84796W        W44541  38.057  22.074   2.847
84797W        W44542  10.189  24.542  14.029
84798W        W44543  35.435  30.956  10.539
84799W        W44544  19.040   6.798   0.400
84800W        W44545  30.947  23.648  12.841
84801W        W44546   7.707  20.039   2.182
84802W        W44547  38.965  37.543   0.457
84803W        W44548  19.103  17.181   3.203
84804W        W44549  32.450  18.162   0.468
84805W        W44550  20.534  29.979  12.969
84806W        W44551  12.650  22.656  12.542
84807W        W44552   6.841  42.405  12.913
84808W        W44553  17.201  20.669   1.712
84809W        W44554   2.893  18.142  12.405
84810W        W44555   9.738   5.223   1.723
84811W        W44556   0.443   1.411  12.935
84812W        W44557  28.180  23.536  11.405
84813W        W44558  39.475  14.333  13.309
84814W        W44559  43.365   7.269  12.392
84815W        W44560   6.784  16.625   0.917
84816W        W44561  27.512  17.141  12.411
84817W        W44562  24.569  34.933   1.339
84818W        W44563   2.799  25.475  11.003
84819W        W44564  17.243  25.521   0.407
84820W        W44565  19.175  31.523  10.410
84821W        W44566   4.803  19.749   1.722
84822W        W44567  18.597   0.447   1.805
84823W        W44568  18.210   6.341  13.338
84824W        W44569  29.476  22.051   2.792
84825W        W44570   3.439   5.382  14.966
84826W        W44571  12.782  39.375   3.282
84827W        W44572  26.539  25.605   5.104
84828W        W44573  41.408  27.133  10.588
84829W        W44574  37.830  12.153   4.139
84830W        W44575  20.532  39.971   4.680
84831W        W44576   9.718  43.956  14.941
84832W        W44577  33.459  15.618   0.403
84833W        W44578  43.323   9.720  10.566
84834W        W44579  28.082   5.221   1.741
84835W        W44580   1.450   0.424  13.444
84836W        W44581  37.348  15.625  13.430
84837W        W44582   1.479  30.651   1.797
84838W        W44583  11.219  29.118  11.024
84839W        W44584  29.505  28.473  14.826
84840W        W44585  10.351  24.549  11.398
84841W        W44586  10.148   5.776  11.901
84842W        W44587  32.588  11.828  10.055
84843W        W44588  16.598  39.462   4.621
84844W        W44589  24.076   6.902  12.482
84845W        W44590   3.837   8.194   0.843
84846W        W44591  18.093  41.002  13.972
84847W        W44592  40.492  33.606   4.818
84848W        W44593  44.774  33.910  11.985
84849W        W44594  18.224  23.516  12.460
84850W        W44595  19.687  18.631  13.814
84851W        W44596  21.052  37.393   9.993
84852W        W44597  24.190  32.090  13.955
84853W        W44598   0.354   4.368   1.451
84854W        W44599  25.518  42.966  10.534
84855W        W44600  23.021  37.446  14.845
84856W        W44601  35.077   5.827  12.391
84857W        W44602   4.893  34.467   1.404
84858W        W44603  36.055  38.973   1.320
84859W        W44604  13.235  44.422   5.186
84860W        W44605  23.700  16.621   1.790
84861W        W44606  41.941  23.234   0.438
84862W        W44607  35.997  36.976  14.026
84863W        W44608  38.845  32.595  13.330
84864W        W44609  40.343  18.225  13.806
84865W        W44610  21.023  34.375   1.299
84866W        W44611   3.939  44.438   0.417
84867W        W44612  35.448  37.359  14.865
84868W        W44613  19.096  43.813   4.135
84869W        W44614  26.974  28.179   2.878
84870W        W44615  23.226  44.836  11.025
84871W        W44616  42.512  44.872   1.794
84872W        W44617  18.083  33.523  12.023
84873W        W44618   3.374  25.120   2.714
84874W        W44619  10.671  21.097   1.372
84875W        W44620  11.782  22.061  14.836
84876W        W44621   9.199  32.479   4.816
84877W        W44622  31.018  32.629   1.358
84878W        W44623  12.731   2.399   0.473
84879W        W44624   7.405  12.618   1.415
84880W        W44625  34.569  12.761   1.742
84881W        W44626  11.781  29.457  14.985
84882W        W44627  40.052  15.630   1.897
84883W        W44628  20.693  30.056   4.178
84884W        W44629  15.190  41.854   1.886
84885W        W44630  34.540  36.472  13.399
84886W        W44631  30.163   0.800  10.504
84887W        W44632  30.471  26.125   0.833
84888W        W44633  27.584  21.176  13.321
84889W        W44634  26.678  38.989   1.259
84890W        W44635  25.145   5.698  13.362
84891W        W44636   8.885   9.697   0.296
84892W        W44637  27.952  10.234   2.214
84893W        W44638  21.712  41.320   0.793
84894W        W44639  31.438   3.375  12.440
84895W        W44640  14.146  26.193   1.761
84896W        W44641  19.053   2.435  13.992
84897W        W44642  14.704   9.710  12.365
84898W        W44643  28.020  10.666   1.801
84899W        W44644  22.590  23.714   4.135
84900W        W44645   3.883  38.532   3.266
84901W        W44646   7.788   8.738  14.014
84902W        W44647  19.602  41.387   2.849
84903W        W44648   4.312  35.376   4.278
84904W        W44649  40.984  43.002  11.014
84905W        W44650  28.108  42.467  10.472
84906W        W44651  18.119   4.444   9.981
84907W        W44652  17.605   4.353  11.095
84908W        W44653  36.892  38.558   1.791
84909W        W44654  21.673  34.045  12.905
84910W        W44655   5.338  27.069  12.984
84911W        W44656   2.294  34.939  12.574
84912W        W44657  20.081  29.667  13.929
84913W        W44658  26.108   8.852  12.847
84914W        W44659  29.103  39.843   4.347
84915W        W44660  36.055  15.194   1.849
84916W        W44661  30.446  35.402   4.272
84917W        W44662  22.532  43.490   3.186
84918W        W44663  30.921  30.615   2.788
84919W        W44664  23.149   7.340   0.851
84920W        W44665  31.940   3.343   2.240
84921W        W44666  17.610  34.092  13.941
84922W        W44667  22.574   9.817  14.433
84923W        W44668  20.253  17.660  12.497
84924W        W44669  15.128  25.170   2.342
84925W        W44670  39.554  12.631  14.389
84926W        W44671   4.855  29.043  13.954
84927W        W44672  31.493   9.843  11.870
84928W        W44673  30.569   8.166  14.292
84929W        W44674  28.458  20.088   0.356
84930W        W44675  21.173  18.631  14.001
84931W        W44676  17.086  33.039   4.185
84932W        W44677  10.298  40.885   2.751
84933W        W44678  41.517  35.554  13.335
84934W        W44679  11.832  21.558   1.785
84935W        W44680  38.047  33.904  13.954
84936W        W44681   6.395  31.422  10.527
84937W        W44682   9.763  27.612  11.582
84938W        W44683  31.427   4.270   1.350
84939W        W44684  23.140   0.358  14.002
84940W        W44685  18.125   5.353  10.522
84941W        W44686  10.299  13.341  11.981
84942W        W44687   4.378  29.582   0.348
84943W        W44688  13.798  32.887   3.732
84944W        W44689  42.423  43.993  14.350
84945W        W44690  10.769  11.863  13.863
84946W        W44691  17.734  19.162  11.488
84947W        W44692  28.178  21.566   4.786
84948W        W44693  21.573  21.173   3.854
84949W        W44694  30.504  39.358   2.713
84950W        W44695  34.944  22.172  14.777
84951W        W44696  38.892   7.171  12.077
84952W        W44697  26.983  39.464  14.924
84953W        W44698  36.861  31.117   1.417
84954W        W44699   1.804  29.535   2.386
84955W        W44700   8.803  33.410  14.849
84956W        W44701  42.793  29.102  14.436
84957W        W44702  34.085  13.348   1.920
84958W        W44703  16.694   1.888  14.472
84959W        W44704  37.944   2.963  13.415
84960W        W44705  23.062  23.526  13.371
84961W        W44706  25.006  37.004  14.308
84962W        W44707  32.634  13.312  14.904
84963W        W44708  20.546   6.366   1.225
84964W        W44709  33.914  27.161  12.990
84965W        W44710  11.161  24.978   0.920
84966W        W44711  10.717  38.841  13.820
84967W        W44712  39.046  30.932  12.426
84968W        W44713  36.509  43.487  12.919
84969W        W44714  28.979  13.731  12.890
84970W        W44715  36.372  10.715   4.336
84971W        W44716   2.828  16.203   1.340
84972W        W44717  37.387  22.621   3.807
84973W        W44718  40.976  38.401  11.570
84974W        W44719  17.276  11.735  10.543
84975W        W44720  30.487   0.268  11.454
84976W        W44721  33.546  30.428   1.922
84977W        W44722  15.622  29.023  14.348
84978W        W44723  23.676  10.782   1.848
84979W        W44724   2.929  25.616  11.464
84980W        W44725  26.571  31.585  14.492
84981W        W44726  22.623  30.609   4.256
84982W        W44727   2.836  39.471  11.501
84983W        W44728   5.793  43.327  14.919
84984W        W44729  17.715  23.529  12.347
84985W        W44730  22.173  23.043  11.559
84986W        W44731  41.884   0.365   2.684
84987W        W44732  23.119  37.982   1.426
84988W        W44733  44.439  34.592  10.596
84989W        W44734  15.718   6.336  12.508
84990W        W44735   4.423   6.213  14.969
84991W        W44736  16.139  10.789  13.994
84992W        W44737  22.504  39.925  14.282
84993W        W44738  31.513  17.725   3.160
84994W        W44739  24.976  15.711  11.868
84995W        W44740  21.723   6.758   1.821
84996W        W44741  37.950  41.813   2.782
84997W        W44742   4.239   3.772  13.046
84998W        W44743  43.979  36.564   3.800
84999W        W44744  15.147  20.221  11.050
85000W        W44745  21.020   6.243  10.588
85001W        W44746  32.099  11.276   4.689
85002W        W44747  19.223  19.192  10.594
85003W        W44748  22.246  20.612  11.459
85004W        W44749  33.083  28.070   4.636
85005W        W44750  43.339   3.221   4.600
85006W        W44751   0.260  25.194  11.920
85007W        W44752  23.074  25.531   1.897
85008W        W44753   2.289   0.756  13.525
85009W        W44754  31.000  25.177   4.281
85010W        W44755   5.341  36.474  12.868
85011W        W44756   6.902  37.945   2.700
85012W        W44757  39.010  36.075  10.620
85013W        W44758  38.361   7.408   4.617
85014W        W44759  19.640  38.552  12.080
85015W        W44760  10.742  35.527  10.532
85016W        W44761  19.125  35.554   1.880
85017W        W44762  19.756   6.377   4.258
85018W        W44763  25.016  19.708  14.417
85019W        W44764  11.772  25.514  11.103
85020W        W44765   5.918  16.741   2.692
85021W        W44766  31.112  43.995   0.775
85022W        W44767  39.998  39.999   4.805
85023W        W44768  37.480   2.465   4.230
85024W        W44769  30.568  37.950   5.210
85025W        W44770  12.347  41.871  13.339
85026W        W44771  40.862  15.780   3.231
85027W        W44772  28.661  19.663   3.760
85028W        W44773  34.023  37.953   0.841
85029W        W44774   8.299  27.600   4.684
85030W        W44775   0.281  28.435  10.543
85031W        W44776  27.117  32.420   4.331
85032W        W44777  16.614  39.040   1.448
85033W        W44778  36.997  32.540  14.284
85034W        W44779  35.497   8.260  10.472
85035W        W44780   6.268   9.300   4.739
85036W        W44781   1.837  24.648  12.832
85037W        W44782  10.200  26.029  10.612
85038W        W44783  30.915  19.761  14.352
85039W        W44784  16.151   1.468   4.317
85040W        W44785  25.686   1.813   1.805
85041W        W44786   3.369  36.847   0.787
85042W        W44787  26.991  42.776  13.869
85043W        W44788  38.876   1.860  11.954
85044W        W44789  19.561   8.761   4.218
85045W        W44790  44.977   9.162   3.173
85046W        W44791  29.441  31.068  14.326
85047W        W44792  14.158   1.257   0.770
85048W        W44793  30.943  38.387   4.837
85049W        W44794  22.085  37.549   4.783
85050W        W44795  20.090  24.987  12.067
85051W        W44796   7.321   8.269  11.898
85052W        W44797   8.702   0.796   2.802
85053W        W44798  25.706   7.717  14.335
85054W        W44799  11.333  16.137   4.672
85055W        W44800  11.788   6.301   1.377
85056W        W44801  37.357  30.559   1.397
85057W        W44802   5.374  27.588   3.751
85058W        W44803  28.623  25.047   1.850
85059W        W44804  14.826  33.393  11.400
85060W        W44805  25.624  33.430   3.806
85061W        W44806  40.351  40.359  14.933
85062W        W44807  33.598  10.349  14.936
85063W        W44808   6.792  43.825   4.803
85064W        W44809  40.910   7.905  14.340
85065W        W44810  35.512  39.544   4.813
85066W        W44811  18.655  20.544  10.944
85067W        W44812  32.633  37.003  10.539
85068W        W44813  10.795  30.474   1.370
85069W        W44814  10.721  19.701   2.186
85070W        W44815   5.849  22.745  13.797
85071W        W44816  16.762   0.268   1.306
85072W        W44817   1.790   5.841  14.846
85073W        W44818  42.920  41.536  13.859
85074W        W44819  32.016  38.944  11.501
85075W        W44820  23.223  43.020   2.694
85076W        W44821  27.976   6.403  13.837
85077W        W44822  24.138  32.140   3.674
85078W        W44823  30.101  31.515  12.931
85079W        W44824  10.197  44.897  11.923
85080W        W44825  17.182   9.369  14.490
85081W        W44826  17.776   8.269   4.206
85082W        W44827  24.174  27.072  13.804
85083W        W44828   4.307   1.949  10.450
85084W        W44829  29.131  19.734   2.216
85085W        W44830  12.220  26.138  12.834
85086W        W44831  10.854   8.291  10.605
85087W        W44832  42.845  44.837  13.797
85088W        W44833   4.390  44.800  13.482
85089W        W44834  40.469  39.928  13.465
85090W        W44835  41.830   9.846  12.998
85091W        W44836   5.795  39.865  10.634
85092W        W44837  19.047  27.479   1.913
85093W        W44838  14.140  39.928  11.932
85094W        W44839  38.934   4.247   1.243
85095W        W44840  23.057  10.235  12.392
85096W        W44841  20.209  41.339   2.309
85097W        W44842  43.344   0.831   2.829
85098W        W44843  24.535  43.330   0.374
85099W        W44844   2.941   3.772  14.397
85100W        W44845   9.808  19.092   2.769
85101W        W44846  30.951  16.222  14.335
85102W        W44847  14.196   4.243  11.582
85103W        W44848   5.195  22.120   3.362
85104W        W44849  17.187  25.644   2.693
85105W        W44850  13.686  18.658   1.371
85106W        W44851  28.565  27.612   1.321
85107W        W44852  12.628   3.869   3.296
85108W        W44853  22.204   2.809   2.698
85109W        W44854   8.336  28.601   2.844
85110W        W44855  40.884   4.374  12.527
85111W        W44856   4.813  39.930   1.223
85112W        W44857  13.170   7.795  13.853
85113W        W44858  14.224   7.901   1.796
85114W        W44859  18.757  20.604  13.447
85115W        W44860  19.048  29.071  11.980
85116W        W44861  34.403  36.088  10.479
85117W        W44862  17.158  36.417   9.469
85118W        W44863  17.108  14.694  11.023
85119W        W44864  34.450  42.920  14.844
85120W        W44865  34.610  20.175   2.261
85121W        W44866  31.417   5.710  12.553
85122W        W44867  44.263  32.626   4.280
85123W        W44868   3.379  26.184   2.356
85124W        W44869  24.660  44.417   0.732
85125W        W44870  24.056  41.515  13.948
85126W        W44871  25.157  20.523  11.473
85127W        W44872  40.003  43.294   4.816
85128W        W44873  15.652  40.334   4.800
85129W        W44874  34.369  28.485  12.905
85130W        W44875  11.209  40.994  13.997
85131W        W44876  40.044  13.662  13.489
85132W        W44877  18.098  24.638  13.471
85133W        W44878  32.620  38.974  12.460
85134W        W44879  32.991  38.028   1.349
85135W        W44880   4.868  20.202  12.829
85136W        W44881  37.899  23.206  13.848
85137W        W44882  10.704  10.823  13.019
85138W        W44883  41.322  30.034   3.686
85139W        W44884   8.737  21.567   2.799
85140W        W44885  40.967  18.667  11.984
85141W        W44886  15.653  14.782  12.450
85142W        W44887  13.223  38.344  12.547
85143W        W44888  18.706  25.640  13.462
85144W        W44889  13.733   1.268  11.507
85145W        W44890   4.892  36.378   1.405
85146W        W44891  27.639  33.891  14.429
85147W        W44892  32.445   7.252  10.632
85148W        W44893   7.292  38.403   1.920
85149W        W44894  11.725  33.080  10.583
85150W        W44895  21.027  41.465   0.410
85151W        W44896   2.281   5.892  13.456
85152W        W44897   0.479   6.221   2.716
85153W        W44898  16.241  17.658  11.590
85154W        W44899   8.259   5.924  13.798
85155W        W44900  29.656   8.663   4.118
85156W        W44901   4.765   7.315   1.755
85157W        W44902   3.783  43.382  13.341
85158W        W44903  12.699  39.318  11.095
85159W        W44904  40.452  17.646  11.534
85160W        W44905  13.727  28.622   0.368
85161W        W44906  40.865  37.915  13.919
85162W        W44907  29.972  13.609   3.667
85163W        W44908  21.125  28.631  12.456
85164W        W44909  15.648  24.227   2.684
85165W        W44910  43.308  28.485  12.878
85166W        W44911   0.865   1.271  13.013
85167W        W44912  20.680   6.914  13.536
85168W        W44913  17.244  35.897  12.020
85169W        W44914  14.193  25.047  14.381
85170W        W44915   1.462  30.088   0.738
85171W        W44916  13.773  43.394  13.038
85172W        W44917  33.916  38.435   0.367
85173W        W44918  28.040  44.839  12.969
85174W        W44919  41.804   3.867   0.778
85175W        W44920   0.957  14.098  12.549
85176W        W44921  30.418  19.607   2.347
85177W        W44922  41.856  14.306   3.825
85178W        W44923   7.850  25.132   9.931
85179W        W44924  15.303   8.269   4.677
85180W        W44925   5.834  14.815  10.583
85181W        W44926  21.260  29.512   3.286
85182W        W44927  26.472   0.342  13.545
85183W        W44928  34.987   0.926   1.263
85184W        W44929  28.118  15.112   3.803
85185W        W44930   7.770  40.488  10.598
85186W        W44931  31.092   0.473  12.066
85187W        W44932   9.827  27.491   1.341
85188W        W44933  13.212  39.024  13.484
85189W        W44934   1.341  44.918   2.182
85190W        W44935  15.712  43.284   1.421
85191W        W44936  14.830  36.564   3.326
85192W        W44937  41.872  36.903  12.925
85193W        W44938  10.291   0.323  11.046
85194W        W44939  37.893  12.260   1.381
85195W        W44940  40.315  24.485   0.296
85196W        W44941  34.887  22.188   4.350
85197W        W44942  30.043  20.046   3.291
85198W        W44943  27.609   7.738   3.213
85199W        W44944  13.332  34.074   9.967
85200W        W44945   0.947  38.845  12.919
85201W        W44946  19.543  35.096  13.808
85202W        W44947  26.540  20.613   2.237
85203W        W44948  27.680   5.337  12.910
85204W        W44949   7.346  22.097  14.965
85205W        W44950  27.995  40.486   5.301
85206W        W44951  39.919  27.464  13.021
85207W        W44952  15.230  15.710   1.275
85208W        W44953  32.600  13.800   1.733
85209W        W44954   7.179  40.367  11.432
85210W        W44955  43.958  40.864  14.387
85211W        W44956  13.777  44.330   1.803
85212W        W44957  35.392  28.619   3.380
85213W        W44958  37.369  26.689  12.576
85214W        W44959   1.394  30.627   5.693
85215W        W44960  38.007  31.063  12.389
85216W        W44961  13.651   9.190  12.077
85217W        W44962  40.039   9.290   0.382
85218W        W44963  42.815   2.832   2.896
85219W        W44964  35.434  23.711  14.799
85220W        W44965  36.015  38.890  12.433
85221W        W44966  42.003  35.466   2.335
85222W        W44967  39.929  33.490   3.669
85223W        W44968   1.456  12.162  10.897
85224W        W44969  16.258   7.747   0.953
85225W        W44970  26.523   2.749  11.382
85226W        W44971  32.972  24.062  13.415
85227W        W44972   8.216  29.510   2.804
85228W        W44973   0.870  21.723   1.733
85229W        W44974  28.052  29.098   5.673
85230W        W44975  28.470  10.284  10.461
85231W        W44976  38.907  41.314   3.157
85232W        W44977  19.116  37.371   3.635
85233W        W44978  43.469  26.497  12.998
85234W        W44979   2.946  42.984   1.874
85235W        W44980  19.113  44.008  10.405
85236W        W44981  17.776  27.572   0.768
85237W        W44982  31.546  44.490   2.177
85238W        W44983  13.120  42.393  13.921
85239W        W44984   6.733   8.832   0.297
85240W        W44985  28.523   9.800   4.182
85241W        W44986  32.460   8.823   4.714
85242W        W44987  13.216   5.274  14.500
85243W        W44988  20.078  11.337  12.901
85244W        W44989  38.950   1.870  13.929
85245W        W44990  23.135  10.647  12.048
85246W        W44991  34.021  38.474  12.006
85247W        W44992  17.099  14.304  14.464
85248W        W44993  28.056  14.201   3.721
85249W        W44994   8.713  17.182  11.073
85250W        W44995  29.938  40.869  13.815
85251W        W44996  42.429  27.453   1.433
85252W        W44997  31.913  23.060   3.187
85253W        W44998  42.427  40.804   4.269
85254W        W44999  40.051  12.623  14.758
85255W        W45000  35.918  35.569   2.804
85256W        W45001   8.737  31.469  12.048
85257W        W45002  11.135  29.070   0.877
85258W        W45003   9.290   7.241  14.994
85259W        W45004   2.765  18.703   0.386
85260W        W45005   6.217  13.160   0.312
85261W        W45006  29.538  24.579   3.147
85262W        W45007   2.829  21.735  10.981
85263W        W45008  31.042  14.232  14.882
85264W        W45009  35.573   4.878   4.736
85265W        W45010  11.217  17.273  10.578
85266W        W45011  34.013  32.992  14.498
85267W        W45012  19.204  18.744   0.447
85268W        W45013   9.220  41.806  11.890
85269W        W45014  22.022  34.388  13.989
85270W        W45015  36.887  29.575  13.519
85271W        W45016  32.140  11.636   3.731
85272W        W45017  29.048  11.329   3.368
85273W        W45018  21.746  29.167   3.692
85274W        W45019   1.801   1.348  10.998
85275W        W45020  18.558  21.227  12.980
85276W        W45021  43.938  27.481   4.346
85277W        W45022   2.954  38.920   4.187
85278W        W45023  31.621  23.228   4.184
85279W        W45024  37.386  20.177   2.246
85280W        W45025  42.925   8.239   1.400
85281W        W45026  40.372  33.458  14.401
85282W        W45027  39.558  23.112   1.435
85283W        W45028  42.492   6.241  13.439
85284W        W45029  21.148   3.827   2.401
85285W        W45030  20.625  13.307   1.781
85286W        W45031  30.081   9.363  14.366
85287W        W45032  17.669   6.329  11.870
85288W        W45033   3.405   7.711   0.856
85289W        W45034  13.757   6.844   4.607
85290W        W45035  41.489   3.292   3.283
85291W        W45036  29.547  37.072  13.547
85292W        W45037   2.418  26.151   3.301
85293W        W45038   7.353  25.588  12.538
85294W        W45039   9.774  35.866   1.715
85295W        W45040  22.033   4.359   3.631
85296W        W45041  27.505  29.017   4.141
85297W        W45042  40.407  42.003  13.345
85298W        W45043  15.726  36.965  12.406
85299W        W45044  23.237   4.252   3.679
85300W        W45045   5.739  13.729  14.917
85301W        W45046  18.134  37.947  11.522
85302W        W45047  37.084   7.846   2.824
85303W        W45048   6.412   1.482   2.180
85304W        W45049   1.373  20.687   2.708
85305W        W45050  43.777  26.033  12.572
85306W        W45051   8.369  43.370  12.054
85307W        W45052  18.719  34.490  11.975
85308W        W45053  26.122  30.512  11.397
85309W        W45054   6.199  36.906  11.930
85310W        W45055  33.427   1.265  11.868
85311W        W45056   9.679  34.922  10.633
85312W        W45057   2.820  21.145  10.621
85313W        W45058  30.130   6.353  12.578
85314W        W45059  11.243  10.294  14.475
85315W        W45060   8.170  12.665  14.771
85316W        W45061  41.482  40.517  10.520
85317W        W45062  12.137  20.106  12.435
85318W        W45063  25.689   9.645   4.315
85319W        W45064   6.804  16.250   0.386
85320W        W45065  21.063   2.270  12.871
85321W        W45066  14.140  43.014  12.349
85322W        W45067  33.527   5.770  13.018
85323W        W45068  43.508   7.712  12.355
85324W        W45069  14.749   5.381  13.407
85325W        W45070  15.089  36.430  13.948
85326W        W45071  14.153  20.270  12.949
85327W        W45072  44.400  16.775   2.409
85328W        W45073   3.339   9.348  14.881
85329W        W45074   3.370  11.631  11.517
85330W        W45075  37.533   9.813  12.487
85331W        W45076  24.037  26.584  12.876
85332W        W45077  28.472  34.472  10.989
85333W        W45078  24.141  35.603  12.580
85334W        W45079  21.061  13.817  13.504
85335W        W45080  23.156  24.121  10.465
85336W        W45081  32.006  31.078   4.711
85337W        W45082   7.829  10.278  12.433
85338W        W45083  44.290  30.559  12.083
85339W        W45084  35.953  24.147   1.275
85340W        W45085   8.791  42.782   3.272
85341W        W45086  11.190  21.665  10.921
85342W        W45087  16.757  16.803   1.929
85343W        W45088  32.572  39.881   1.332
85344W        W45089  37.881  21.139   4.284
85345W        W45090  35.420  40.891   2.669
85346W        W45091  33.614   4.860  12.461
85347W        W45092   8.891  19.101  14.324
85348W        W45093  12.118  14.799   2.748
85349W        W45094  31.107  25.093   2.880
85350W        W45095  16.202  31.099   1.279
85351W        W45096   3.379  34.041  12.942
85352W        W45097  27.062   6.289   2.792
85353W        W45098  31.922   7.380   4.198
85354W        W45099  13.817  14.623   1.849
85355W        W45100  36.842   8.829   3.287
85356W        W45101  22.016  28.179  14.324
85357W        W45102  20.645  22.182  14.878
85358W        W45103   1.470   1.327  10.636
85359W        W45104  44.925  21.534   3.351
85360W        W45105  12.269   2.289   4.335
85361W        W45106  43.374   2.887  10.437
85362W        W45107  23.679  30.912  14.842
85363W        W45108  40.317   8.694  10.412
85364W        W45109  37.338  31.601  14.867
85365W        W45110  28.536   2.805  12.488
85366W        W45111  38.070  21.577  14.391
85367W        W45112   9.794  11.720   4.125
85368W        W45113  16.160  22.535  11.948
85369W        W45114  11.811   0.450   9.987
85370W        W45115   5.391   9.747  10.450
85371W        W45116  32.573  39.456  11.987
85372W        W45117   2.942  38.514  13.034
85373W        W45118  19.745   4.247  11.435
85374W        W45119  28.946  43.290  13.508
85375W        W45120  33.559  20.632   1.367
85376W        W45121  13.676  41.871   4.838
85377W        W45122  16.218  36.937   2.307
85378W        W45123  37.525   9.307  10.985
85379W        W45124  21.702  23.665   4.264
85380W        W45125  23.562  15.614   4.282
85381W        W45126  18.098  23.084   3.228
85382W        W45127  19.552  37.974  11.418
85383W        W45128  16.575   8.860   3.177
85384W        W45129  21.592  30.593  13.455
85385W        W45130  15.175  16.126   1.284
85386W        W45131  38.519   8.200  10.953
85387W        W45132  11.673  29.425  14.416
85388W        W45133  16.753  36.571   5.622
85389W        W45134  28.086   4.425  11.041
85390W        W45135  39.052   0.980   2.795
85391W        W45136  37.050  25.125   1.886
85392W        W45137  33.614  43.872  13.056
85393W        W45138   3.368  31.977  14.302
85394W        W45139  31.568  35.063  11.411
85395W        W45140  40.334   2.806   1.259
85396W        W45141  32.925  22.693   2.752
85397W        W45142  39.811  13.106   3.335
85398W        W45143  17.606  40.398  10.570
85399W        W45144  16.589  26.680  11.876
85400W        W45145   3.382   0.915  11.548
85401W        W45146  33.949  42.831  14.494
85402W        W45147   5.223  29.169   0.452
85403W        W45148   6.681  31.463  12.469
85404W        W45149  10.235   7.907   4.335
85405W        W45150  37.963  28.174  13.409
85406W        W45151  18.267  17.752  13.925
85407W        W45152   5.761  43.415   2.848
85408W        W45153  25.535  29.440   3.799
85409W        W45154   5.818  28.663  13.336
85410W        W45155  10.853  27.639   0.760
85411W        W45156  10.656  23.097   4.784
85412W        W45157  22.063  14.233   0.368
85413W        W45158  29.655  10.735   1.807
85414W        W45159  38.904  44.824   0.418
85415W        W45160  36.505  15.248   3.322
85416W        W45161  14.608  13.212  14.934
85417W        W45162   3.812  28.143  11.531
85418W        W45163   9.671  14.237  11.585
85419W        W45164   7.793   4.840  14.003
85420W        W45165   8.348  25.494  13.063
85421W        W45166  26.683  12.168   1.703
85422W        W45167  34.120  33.961  14.934
85423W        W45168  13.331  11.859   0.799
85424W        W45169   4.383   6.315   0.907
85425W        W45170  22.685  15.175   2.336
85426W        W45171  33.481   7.826  12.346
85427W        W45172  25.470  17.113  10.029
85428W        W45173   2.819  22.527  11.012
85429W        W45174  17.745  35.496  13.465
85430W        W45175  41.937   4.909  11.512
85431W        W45176  37.035   9.854  10.925
85432W        W45177  35.032  33.987  11.461
85433W        W45178  25.079  19.114  12.084
85434W        W45179  11.632  42.813   3.765
85435W        W45180  40.341  20.648  14.852
85436W        W45181  31.561  27.598   4.827
85437W        W45182  43.462  42.476   0.399
85438W        W45183  41.814  42.959  12.392
85439W        W45184  19.612  44.304   1.849
85440W        W45185   2.924  32.560   3.232
85441W        W45186  29.497  42.837   3.262
85442W        W45187  26.639  36.941   3.860
85443W        W45188  39.545  30.633   2.755
85444W        W45189  19.653  24.023   1.726
85445W        W45190  30.446  10.722  11.965
85446W        W45191  27.605   4.427  11.886
85447W        W45192  16.640  26.593   3.679
85448W        W45193  43.466  33.955   2.662
85449W        W45194  20.723  14.316  13.890
85450W        W45195  20.161  11.716  12.942
85451W        W45196  31.071  40.360   1.774
85452W        W45197  10.681  17.751  10.521
85453W        W45198  21.192  31.482   5.305
85454W        W45199  37.463  36.366  13.000
85455W        W45200   7.200  18.546   2.853
85456W        W45201  12.644  39.923  14.994
85457W        W45202  44.892  11.834  14.510
85458W        W45203   0.806  19.155  13.350
85459W        W45204  40.937   3.930  10.548
85460W        W45205  41.417  12.277   0.752
85461W        W45206  12.328   7.868  13.878
85462W        W45207  28.565  15.652   3.688
85463W        W45208   6.785  19.602   1.286
85464W        W45209  28.179  37.338   1.222
85465W        W45210  22.603  19.536  11.016
85466W        W45211  14.246  14.220   4.130
85467W        W45212  11.747  16.289  10.594
85468W        W45213  21.719   4.890  12.391
85469W        W45214  35.460  41.827  13.866
85470W        W45215  24.635  16.608   2.734
85471W        W45216  26.138  21.142   3.687
85472W        W45217  18.149  40.418  13.493
85473W        W45218  22.715  16.591  13.313
85474W        W45219  42.330  16.806   3.833
85475W        W45220  26.545  15.164   2.815
85476W        W45221   5.347  16.738  14.291
85477W        W45222  18.177  44.412  11.056
85478W        W45223  35.006   1.405   2.678
85479W        W45224  17.668   9.186  12.968
85480W        W45225  12.680  26.595   4.663
85481W        W45226  14.115  26.600   4.654
85482W        W45227  44.898  16.169   1.291
85483W        W45228  11.649   8.874   1.327
85484W        W45229  24.218  39.391   3.638
85485W        W45230  40.909  41.980   2.839
85486W        W45231  16.622   9.678  12.542
85487W        W45232  36.386  35.429   4.146
85488W        W45233  41.427  14.289   3.869
85489W        W45234  20.701  30.642  13.972
85490W        W45235   6.322  41.406   3.703
85491W        W45236  38.073  44.006  14.787
85492W        W45237   6.731   7.270   3.344
85493W        W45238  19.267   9.312   2.384
85494W        W45239  17.153  24.703  11.029
85495W        W45240  24.181  19.265   0.297
85496W        W45241  43.786  31.460  11.577
85497W        W45242  29.987   1.957   3.153
85498W        W45243  33.431   8.301  14.798
85499W        W45244  39.035  35.049  14.350
85500W        W45245  25.594  30.922   0.460
85501W        W45246  34.477  11.277   0.897
85502W        W45247  36.935  25.682  12.090
85503W        W45248  30.961  40.411  14.012
85504W        W45249  39.988  15.153   1.721
85505W        W45250   5.301  37.575  13.986
85506W        W45251  44.371  31.543   4.257
85507W        W45252  21.075  34.572  13.902
85508W        W45253  23.637  44.853  12.995
85509W        W45254  12.256  14.147  11.054
85510W        W45255  36.524  41.359  11.442
85511W        W45256  13.117  14.302   4.728
85512W        W45257  21.041  36.510   0.830
85513W        W45258  37.552   6.341   3.279
85514W        W45259   3.234  38.011  14.777
85515W        W45260  41.314   3.737   2.748
85516W        W45261  16.195  30.570   0.795
85517W        W45262  11.776  39.461   2.263
85518W        W45263   3.222  26.969   2.362
85519W        W45264   1.281  12.705  12.088
85520W        W45265  21.516  41.898   2.807
85521W        W45266  31.529  38.385   0.902
85522W        W45267  29.457  12.774   4.657
85523W        W45268  10.172   3.268   4.751
85524W        W45269   7.249  28.019  11.977
85525W        W45270  21.224  40.404   3.859
85526W        W45271   1.731  10.288   1.828
85527W        W45272   1.415   5.227   2.273
85528W        W45273  21.661  17.761   2.367
85529W        W45274   1.866  16.645   0.944
85530W        W45275  23.040  18.732   1.850
85531W        W45276  20.668  39.328   2.373
85532W        W45277  33.529  15.663  14.806
85533W        W45278  26.479  35.089   4.687
85534W        W45279  15.773  16.740   2.283
85535W        W45280  37.859  13.783  12.003
85536W        W45281  22.595  40.869   2.312
85537W        W45282   0.888  33.607  13.493
85538W        W45283  20.748  30.639   2.268
85539W        W45284  16.129  42.888  13.853
85540W        W45285  24.493  21.685  12.455
85541W        W45286   2.946  39.031  14.450
85542W        W45287   4.441   8.372   0.272
85543W        W45288  35.046  34.423  11.035
85544W        W45289  17.781  42.328  13.891
85545W        W45290  16.135  35.508   3.799
85546W        W45291  35.007  11.297  11.032
85547W        W45292   5.385  41.413  11.014
85548W        W45293  29.540   6.218   3.249
85549W        W45294  17.775  42.913  14.861
85550W        W45295   5.867   6.783   4.318
85551W        W45296  34.587  27.608   4.673
85552W        W45297  30.531  40.455  13.901
85553W        W45298  11.767  27.451  14.489
85554W        W45299   7.877  37.474   0.878
85555W        W45300  42.860  40.430  11.935
85556W        W45301  31.966  24.028   4.121
85557W        W45302  31.989  14.681  14.834
85558W        W45303   9.783  22.248  11.509
85559W        W45304  29.639  18.749   5.628
85560W        W45305  26.123  23.543   2.873
85561W        W45306  24.006   7.898  14.318
85562W        W45307  41.012  26.530  14.879
85563W        W45308  34.463  29.521  14.970
85564W        W45309   8.356  13.822   3.798
85565W        W45310  32.892  15.315  12.558
85566W        W45311  35.067  24.645  13.534
85567W        W45312  36.987   5.867  12.427
85568W        W45313  25.595  25.713   4.329
85569W        W45314  30.914  39.453  11.876
85570W        W45315   2.437  39.951  14.306
85571W        W45316  16.137   5.872  12.456
85572W        W45317   2.914  22.123  11.872
85573W        W45318  24.675  28.962   2.213
85574W        W45319  14.101  11.206  14.013
85575W        W45320  12.696  24.136  10.518
85576W        W45321  27.948   8.855   3.342
85577W        W45322  34.904  42.933   2.209
85578W        W45323   4.448  21.682  14.894
85579W        W45324   6.290  24.003   0.909
85580W        W45325   9.645  13.330  11.596
85581W        W45326  28.504   6.287   3.788
85582W        W45327   4.806  21.734   1.778
85583W        W45328  22.213  39.418   3.181
85584W        W45329   8.165  14.696  14.354
85585W        W45330   5.408   2.891   4.832
85586W        W45331  36.881   6.727  11.955
85587W        W45332  17.558  41.316   0.812
85588W        W45333  19.680  17.556  12.985
85589W        W45334  32.562  16.212   1.255
85590W        W45335  26.552  32.997  14.407
85591W        W45336  30.558  22.145  12.379
85592W        W45337  36.553   9.234   0.276
85593W        W45338  30.926  25.123   0.416
85594W        W45339  25.120  12.142   2.345
85595W        W45340  38.414  14.717   1.388
85596W        W45341  27.952  36.445  10.948
85597W        W45342   8.334  26.463  12.381
85598W        W45343  30.627  20.209  12.357
85599W        W45344   5.736  13.276  13.445
85600W        W45345  23.060  14.139  14.837
85601W        W45346  23.200  34.378   1.260
85602W        W45347   6.915  24.101   4.807
85603W        W45348   7.853  23.035   4.169
85604W        W45349  17.559   5.898   2.325
85605W        W45350  28.970  27.154  11.888
85606W        W45351   0.920   0.448  13.366
85607W        W45352   6.904   1.384  11.124
85608W        W45353  27.118   2.735  14.910
85609W        W45354  31.929  23.057   4.835
85610W        W45355  42.319  12.839   0.905
85611W        W45356  30.574  27.196   4.241
85612W        W45357  38.543  18.163   3.363
85613W        W45358  27.065  14.227  13.868
85614W        W45359   7.199  34.111  12.505
85615W        W45360  40.893  13.641  14.508
85616W        W45361  36.972  31.598  11.903
85617W        W45362  36.052  12.142   3.341
85618W        W45363   2.797  28.570   4.275
85619W        W45364  27.181  30.927   3.718
85620W        W45365  35.474  11.689  10.485
85621W        W45366  24.010  23.565   4.744
85622W        W45367  13.179   5.705  10.528
85623W        W45368  19.621  26.003  10.616
85624W        W45369   7.814  39.894   0.853
85625W        W45370   3.841  24.567  13.830
85626W        W45371   6.756  19.143   2.415
85627W        W45372  13.800  29.550   4.817
85628W        W45373  15.641  28.656   1.877
85629W        W45374  33.433  28.126  10.545
85630W        W45375  25.971  30.418   3.865
85631W        W45376  43.450  11.838   2.873
85632W        W45377  25.993  25.051   1.885
85633W        W45378   6.235   1.870   2.290
85634W        W45379   8.696  15.708  11.086
85635W        W45380  44.894  42.917  12.969
85636W        W45381   3.757  24.526   1.215
85637W        W45382  10.174  28.013   4.786
85638W        W45383  28.969   2.252   3.243
85639W        W45384  42.282  42.845   4.717
85640W        W45385   0.363  41.835   4.157
85641W        W45386   5.737  26.994   0.286
85642W        W45387   6.379  40.879   0.937
85643W        W45388   4.840  18.713  12.465
85644W        W45389   2.740  42.318  12.867
85645W        W45390   9.659   0.455  11.594
85646W        W45391  44.860  41.797  11.502
85647W        W45392   8.698  31.605  14.853
85648W        W45393  13.792  44.404   1.444
85649W        W45394  36.073  41.898  14.002
85650W        W45395   9.220  17.192  14.890
85651W        W45396  17.248   6.189  14.975
85652W        W45397  35.965  37.404  11.950
85653W        W45398  19.268   2.943   2.190
85654W        W45399  26.181  22.016  12.457
85655W        W45400  30.118  38.841   2.255
85656W        W45401  10.146  32.397   1.733
85657W        W45402  17.271  33.405   2.701
85658W        W45403   8.394  19.261   1.897
85659W        W45404   7.741  39.042  14.943
85660W        W45405  36.456  16.316   1.434
85661W        W45406   6.695  15.792   0.894
85662W        W45407  28.974  36.928  11.517
85663W        W45408  35.413  43.917   0.821
85664W        W45409  11.295  30.614   1.418
85665W        W45410  10.138  41.506   4.661
85666W        W45411   6.850  43.879  11.055
85667W        W45412  40.433  28.504   0.473
85668W        W45413  41.379  11.673   3.664
85669W        W45414   8.773  40.505   1.727
85670W        W45415  26.020  44.949  12.869
85671W        W45416  42.882  38.874  11.100
85672W        W45417   7.400  19.197   1.333
85673W        W45418  10.224  33.403   3.682
85674W        W45419  15.134   3.824   2.856
85675W        W45420   4.727  37.988  10.958
85676W        W45421  13.259   3.317   2.778
85677W        W45422   3.374  41.866   5.250
85678W        W45423  16.143  20.274  11.886
85679W        W45424  42.463  11.822  14.968
85680W        W45425  38.933   1.739  12.857
85681W        W45426  38.364   3.262   1.757
85682W        W45427  19.279  39.470  10.578
85683W        W45428  40.943  29.049  12.381
85684W        W45429   7.721  11.241  13.973
85685W        W45430  31.640  28.599   3.309
85686W        W45431  43.477  29.489   2.201
85687W        W45432  21.635  28.155  12.060
85688W        W45433  21.541  14.713  11.382
85689W        W45434  25.679  22.107  10.461
85690W        W45435  37.455   6.816  12.906
85691W        W45436  36.026  22.552  10.575
85692W        W45437  17.287  25.493   3.811
85693W        W45438  27.691  32.527  13.797
85694W        W45439  13.180   2.433   4.309
85695W        W45440  27.590  25.512   0.958
85696W        W45441  32.104  12.815   2.678
85697W        W45442  24.099  18.141  12.549
85698W        W45443  10.279  27.959   1.913
85699W        W45444   3.392  27.540  11.395
85700W        W45445   7.801   2.256  12.549
85701W        W45446  23.170  11.827   0.859
85702W        W45447  15.303  40.846   0.422
85703W        W45448   4.897  33.045  12.046
85704W        W45449  29.937  11.334   3.332
85705W        W45450  13.309  18.061   2.348
85706W        W45451  11.285  34.905   0.268
85707W        W45452  10.261   0.754  14.420
85708W        W45453  19.564  40.385   2.847
85709W        W45454   1.879  36.418   0.797
85710W        W45455  32.055  17.786   0.935
85711W        W45456  40.320  12.320   2.698
85712W        W45457   5.201  12.855   4.131
85713W        W45458  25.486  40.009  12.348
85714W        W45459  18.745  31.414  10.499
85715W        W45460  15.194  38.566  14.501
85716W        W45461  29.985  23.182   0.765
85717W        W45462  37.070   4.390  13.856
85718W        W45463  16.125  13.145   0.263
85719W        W45464  30.435  17.197   2.706
85720W        W45465   3.952  36.068   2.250
85721W        W45466  14.236  25.989  12.023
85722W        W45467  42.454  19.088   4.203
85723W        W45468  40.345  17.800  11.923
85724W        W45469  24.003  39.870   2.401
85725W        W45470  25.649  22.235   3.341
85726W        W45471  14.679  39.829   4.265
85727W        W45472  40.499  36.082   1.835
85728W        W45473  41.462  31.071   4.209
85729W        W45474  38.837   4.278  10.450
85730W        W45475  12.700  24.115   3.364
85731W        W45476  41.497  26.469  10.483
85732W        W45477  26.645  16.639  13.823
85733W        W45478   6.330   4.834  10.159
85734W        W45479  14.788   9.737  14.434
85735W        W45480  34.380  38.377   4.603
85736W        W45481  19.244   4.726  14.777
85737W        W45482  25.079   5.266   2.287
85738W        W45483  31.602  39.534  11.127
85739W        W45484  15.808  25.055   0.245
85740W        W45485  44.381  31.579   2.267
85741W        W45486   1.857   1.348   4.197
85742W        W45487  27.450   8.285  11.905
85743W        W45488  26.965  18.255  14.912
85744W        W45489   5.270  35.603   4.678
85745W        W45490  26.000  18.738   2.257
85746W        W45491  17.642   0.251   2.869
85747W        W45492  34.599   3.755  11.580
85748W        W45493  12.823  38.974  13.880
85749W        W45494   6.296  10.332  13.525
85750W        W45495  32.048  40.385   1.798
85751W        W45496  40.936  43.372   4.724
85752W        W45497  10.182  41.872  12.915
85753W        W45498  22.551  24.557   2.387
85754W        W45499   9.736  40.892  13.457
85755W        W45500  25.495  23.603   0.368
85756W        W45501  29.074  15.132   2.671
85757W        W45502  34.403  35.586   2.399
85758W        W45503  15.252  36.089   1.305
85759W        W45504  17.649  16.182   0.892
85760W        W45505  40.302  28.643  14.834
85761W        W45506  11.702  10.184  12.860
85762W        W45507  34.401  30.053  12.573
85763W        W45508   4.738  17.590   2.710
85764W        W45509   3.771  43.988  11.966
85765W        W45510  26.639  23.169  13.026
85766W        W45511   6.853  39.473   0.339
85767W        W45512  30.430  43.486  12.982
85768W        W45513  39.921  30.122   1.930
85769W        W45514   6.370  35.877   1.341
85770W        W45515   4.867  11.165   4.729
85771W        W45516  24.626  21.628  14.886
85772W        W45517  26.154   9.245  14.978
85773W        W45518  33.070  35.886   1.394
85774W        W45519   4.885   2.857   2.228
85775W        W45520  23.722  22.205   4.718
85776W        W45521   6.835  38.403   0.770
85777W        W45522   9.649  44.891   2.188
85778W        W45523  19.216  23.617   0.371
85779W        W45524   9.334  10.174  11.112
85780W        W45525   6.881  35.535  13.480
85781W        W45526   1.463  10.282   1.764
85782W        W45527  39.059   4.713   4.144
85783W        W45528  27.548  23.159   4.707
85784W        W45529  42.387  33.973   1.755
85785W        W45530  34.587  19.240  11.483
85786W        W45531  30.117   2.912  14.856
85787W        W45532  35.912  16.769   1.918
85788W        W45533  36.387  29.116  13.923
85789W        W45534  31.109   4.419  14.980
85790W        W45535  31.614  21.512  13.792
85791W        W45536  34.939  32.119   2.759
85792W        W45537   9.711  19.245  10.475
85793W        W45538  15.272  27.506   2.743
85794W        W45539  40.469   7.754   2.689
85795W        W45540  22.526  16.286  11.503
85796W        W45541  43.801   5.857  13.363
85797W        W45542  24.193  15.786   2.185
85798W        W45543  43.323  22.097   1.786
85799W        W45544  39.854  16.276   2.679
85800W        W45545  38.972  43.942   5.240
85801W        W45546  16.772  32.086   4.672
85802W        W45547  29.030   0.439  11.913
85803W        W45548  31.060  11.828  13.971
85804W        W45549  14.178  28.628   1.277
85805W        W45550  26.538  39.436  12.460
85806W        W45551  29.107  12.762   4.167
85807W        W45552   7.811  41.441   4.309
85808W        W45553  18.296  41.980  13.902
85809W        W45554  32.613  24.480   4.773
85810W        W45555  23.659  38.529  10.519
85811W        W45556   6.748  10.743   2.677
85812W        W45557   2.293  30.651  10.437
85813W        W45558  20.042  20.762   0.448
85814W        W45559  28.981   9.170  12.093
85815W        W45560  12.339  31.006  11.554
85816W        W45561  26.684  15.199   4.270
85817W        W45562   0.413  38.412   0.359
85818W        W45563  29.096   2.940   1.395
85819W        W45564  36.898  23.166   1.739
85820W        W45565  27.110  21.083  11.455
85821W        W45566  19.225  22.564   2.695
85822W        W45567  23.051  17.096  13.487
85823W        W45568  43.004  21.207   0.258
85824W        W45569  24.514  41.883  13.902
85825W        W45570  23.698  11.834  11.119
85826W        W45571  42.796  37.538   4.303
85827W        W45572  26.663  33.473   3.256
85828W        W45573  15.706  28.484  10.415
85829W        W45574  14.683  20.607   3.306
85830W        W45575  33.964  15.734  10.967
85831W        W45576  32.621  27.050  11.002
85832W        W45577  31.905  36.018  10.623
85833W        W45578  40.438  14.263   5.149
85834W        W45579  13.287  21.723   0.898
85835W        W45580   5.433  34.600  10.626
85836W        W45581  26.480  21.616  13.395
85837W        W45582   4.932  39.811   3.376
85838W        W45583  22.672  28.155   9.976
85839W        W45584  11.215  43.465  13.508
85840W        W45585  28.056  20.733  14.345
85841W        W45586   5.379  38.053   3.234
85842W        W45587  30.458  33.590  14.012
85843W        W45588   8.874  16.773   2.183
85844W        W45589  34.120  15.249  12.956
85845W        W45590   2.456  25.033   3.724
85846W        W45591  18.217  20.142  11.589
85847W        W45592  32.133  39.348   0.731
85848W        W45593  38.438  39.359  11.405
85849W        W45594  14.317  10.645   2.298
85850W        W45595  36.075  20.243   1.360
85851W        W45596  44.426   7.679   2.249
85852W        W45597  29.969   2.392  12.889
85853W        W45598   4.352   1.448  13.492
85854W        W45599  21.520  11.632  14.459
85855W        W45600  37.943  11.817   2.335
85856W        W45601  33.095  39.874  11.408
85857W        W45602  25.526  27.198   0.323
85858W        W45603  12.184  24.546   2.786
85859W        W45604  28.097  27.689  14.888
85860W        W45605  12.293   5.223  14.476
85861W        W45606  37.506  19.712  11.589
85862W        W45607  20.591  31.090  13.455
85863W        W45608  39.327  19.643  11.421
85864W        W45609  32.395  43.877   2.663
85865W        W45610  39.497   0.347   1.912
85866W        W45611  20.191  36.433  14.819
85867W        W45612  37.013  28.171   2.324
85868W        W45613  36.516  42.348   1.822
85869W        W45614   7.301  12.676   1.728
85870W        W45615   8.719  36.349   4.630
85871W        W45616  37.850   2.886  14.417
85872W        W45617  22.016  10.785  13.049
85873W        W45618  42.815  35.070   4.712
85874W        W45619  41.486  29.530   3.664
85875W        W45620  43.311  10.831  13.890
85876W        W45621   9.853  38.820  14.997
85877W        W45622  29.944  14.330  14.357
85878W        W45623  14.122  19.217   3.743
85879W        W45624  39.813  39.528  11.086
85880W        W45625  44.924  37.971  13.010
85881W        W45626   7.328  41.438   2.299
85882W        W45627  39.501  42.282  11.436
85883W        W45628  22.181  33.071   3.667
85884W        W45629  11.201   7.850  13.312
85885W        W45630  20.525  25.979   2.291
85886W        W45631  25.121  12.287   0.399
85887W        W45632  28.083  13.145  11.516
85888W        W45633  24.480  39.391   0.835
85889W        W45634  18.219   3.353   0.753
85890W        W45635  12.705  26.652  14.446
85891W        W45636   3.864  15.816  12.549
85892W        W45637   0.372  21.103  11.415
85893W        W45638  36.535  12.762  13.450
85894W        W45639   2.425  19.542   5.127
85895W        W45640  20.141  15.587   3.370
85896W        W45641   2.770  26.642  14.985
85897W        W45642  34.469  18.145  13.542
85898W        W45643  27.465  29.010  11.462
85899W        W45644  15.710  31.564   0.772
85900W        W45645   1.413  28.032   3.639
85901W        W45646  39.404   0.890   1.712
85902W        W45647  17.255   8.169  11.451
85903W        W45648   3.431   3.449  10.123
85904W        W45649  32.055  42.498   1.435
85905W        W45650  25.647   7.718  13.037
85906W        W45651  26.521  43.849  14.878
85907W        W45652  40.941  31.018  11.541
85908W        W45653  29.153  22.694  14.866
85909W        W45654  15.601  22.739  13.389
85910W        W45655   4.285  18.246   2.674
85911W        W45656  33.100   3.770  13.803
85912W        W45657   5.367   1.777  14.386
85913W        W45658  43.404  13.346  10.448
85914W        W45659  39.536  18.624  14.454
85915W        W45660   2.747  12.156  10.515
85916W        W45661   7.281  17.306   0.428
85917W        W45662  19.238   1.424   0.873
85918W        W45663  23.230  25.091  11.937
85919W        W45664  29.661  44.294  10.641
85920W        W45665   6.860   5.230   0.280
85921W        W45666  37.861  16.798  14.491
85922W        W45667   5.706  39.963   4.193
85923W        W45668  25.555  15.723   1.844
85924W        W45669  41.479  17.117   4.257
85925W        W45670  16.645  40.839   0.878
85926W        W45671  30.582  25.174   1.901
85927W        W45672   2.405  10.191  13.374
85928W        W45673   6.346   6.320  12.521
85929W        W45674  17.255  37.015  13.389
85930W        W45675   5.716   1.246   0.965
85931W        W45676  36.973  34.610  10.639
85932W        W45677   7.806  21.630   2.209
85933W        W45678  34.046  28.118  11.959
85934W        W45679  31.493  15.248   1.443
85935W        W45680  23.029   0.839   2.282
85936W        W45681   0.913  15.301   0.460
85937W        W45682  43.488   8.361   1.740
85938W        W45683  27.528  28.003  14.990
85939W        W45684  42.484  39.362   0.930
85940W        W45685  17.662  36.863  13.499
85941W        W45686  27.687  32.046  11.875
85942W        W45687  38.069   4.374   2.873
85943W        W45688   3.783   6.866  10.618
85944W        W45689  21.135  38.554   3.819
85945W        W45690   9.348   2.805  11.961
85946W        W45691   3.363  28.132  13.369
85947W        W45692  10.846  13.231   1.758
85948W        W45693  33.396  14.832   2.326
85949W        W45694  41.942  42.950  14.452
85950W        W45695  38.832  20.157   3.314
85951W        W45696  21.152  11.699  12.944
85952W        W45697  36.375   1.273  14.874
85953W        W45698  39.538  13.250   1.761
85954W        W45699  22.164  37.513  10.952
85955W        W45700  35.572  23.722   0.353
85956W        W45701   6.314  37.372   0.394
85957W        W45702  33.938  21.138  12.510
85958W        W45703  21.555  15.312  11.405
85959W        W45704  21.193   6.284   4.207
85960W        W45705  11.326  18.283   2.865
85961W        W45706  39.993  19.718  10.620
85962W        W45707  43.915  18.118   9.963
85963W        W45708   1.244   4.914  13.351
85964W        W45709  35.045  16.658  12.394
85965W        W45710  18.080  19.594  10.509
85966W        W45711  24.049  26.110   3.203
85967W        W45712  27.518   9.785   4.352
85968W        W45713   0.752  16.075   4.695
85969W        W45714  22.181  12.190   1.924
85970W        W45715  34.521  30.939  13.409
85971W        W45716  12.633  25.141   0.252
85972W        W45717   1.741  37.854  11.588
85973W        W45718   4.929  31.946  14.333
85974W        W45719   4.302  16.305  10.951
85975W        W45720   9.267  44.274  11.093
85976W        W45721  21.115   3.258  13.042
85977W        W45722  37.054  13.775   1.866
85978W        W45723  44.330   9.830  10.488
85979W        W45724  26.075  11.694  13.358
85980W        W45725  31.086  10.812  12.929
85981W        W45726  27.952  38.941   1.449
85982W        W45727   2.766  31.602  10.512
85983W        W45728  40.920  14.257   1.372
85984W        W45729   4.710  25.606   2.292
85985W        W45730  24.007  20.580   0.860
85986W        W45731  26.982   7.734   3.674
85987W        W45732  23.191  36.491   9.585
85988W        W45733  39.430  31.996   1.935
85989W        W45734  32.917  44.920   4.168
85990W        W45735   5.870   8.338   0.283
85991W        W45736  25.075   7.322  14.851
85992W        W45737  40.371  41.824   2.846
85993W        W45738  44.472  38.390  14.979
85994W        W45739  21.153  29.496  11.121
85995W        W45740  12.671   8.894  14.824
85996W        W45741  35.432  32.893  14.875
85997W        W45742  42.476  30.046   2.831
85998W        W45743  12.769  36.460  12.577
85999W        W45744  23.562  30.115  12.827
86000W        W45745  27.107  36.026  13.356
86001W        W45746  13.714  37.451   4.273
86002W        W45747   0.841   1.817   0.730
86003W        W45748  16.578  32.053  11.870
86004W        W45749  31.934  35.971   4.796
86005W        W45750   6.203  24.056  11.998
86006W        W45751   7.882  10.796  12.878
86007W        W45752  34.507  30.975  14.311
86008W        W45753   7.884   8.769  11.374
86009W        W45754  24.225  37.348  14.340
86010W        W45755  37.581  42.936   3.670
86011W        W45756   9.187  34.038  14.867
86012W        W45757  31.436  14.653  13.793
86013W        W45758  25.677  29.037   2.179
86014W        W45759   4.214   9.733  13.405
86015W        W45760  41.351  18.132  14.854
86016W        W45761  34.051  14.321  12.998
86017W        W45762   4.786  28.066   2.689
86018W        W45763   2.235  12.198  13.933
86019W        W45764  10.145  40.448  13.903
86020W        W45765  33.504  11.341  11.916
86021W        W45766  15.650  21.215   0.356
86022W        W45767   3.815  23.235   0.257
86023W        W45768  25.067  38.046  11.575
86024W        W45769   6.850  16.072   3.814
86025W        W45770  13.680  28.509  11.457
86026W        W45771  42.836  44.505  10.939
86027W        W45772  14.318  11.364   3.851
86028W        W45773   6.363  39.932  11.598
86029W        W45774  25.548  10.834   0.880
86030W        W45775  16.074  37.554   3.341
86031W        W45776  44.332  15.089   4.164
86032W        W45777  27.158   8.243   2.670
86033W        W45778  10.734  33.921  14.354
86034W        W45779  42.891   1.250   3.822
86035W        W45780  10.146  30.560  11.072
86036W        W45781  26.194  39.819  11.537
86037W        W45782  41.896  29.425  12.970
86038W        W45783  17.254   7.696   2.866
86039W        W45784  42.783  10.242   5.232
86040W        W45785  32.568   8.315  10.005
86041W        W45786  18.700  31.484   3.772
86042W        W45787  42.510  30.970  13.847
86043W        W45788  30.479  37.885  13.020
86044W        W45789  11.346  19.665  10.599
86045W        W45790  26.460  26.608  14.503
86046W        W45791  16.734  39.846  12.939
86047W        W45792  32.475  12.672  10.928
86048W        W45793  12.360  11.267   2.179
86049W        W45794  25.511   5.902   0.791
86050W        W45795   3.219  10.267   3.213
86051W        W45796  19.098  24.519   0.949
86052W        W45797  15.650   2.825  11.008
86053W        W45798  11.823  39.405  13.395
86054W        W45799  35.970   8.229   4.684
86055W        W45800   5.821  33.026   4.615
86056W        W45801  22.215  20.107   1.262
86057W        W45802  42.510   9.216  10.520
86058W        W45803  33.622  13.809   1.257
86059W        W45804  22.202  11.277   2.802
86060W        W45805   6.891  13.325  12.496
86061W        W45806  27.504  22.557  13.515
86062W        W45807  14.260  38.829   0.361
86063W        W45808  33.453   3.913   4.309
86064W        W45809  10.289  19.761  14.385
86065W        W45810  28.506   9.249  14.808
86066W        W45811  44.885  40.842   5.609
86067W        W45812  17.758  41.983  11.491
86068W        W45813  17.079  11.241  10.421
86069W        W45814  16.313   4.216  13.022
86070W        W45815   0.953  10.225  11.987
86071W        W45816   9.352   5.286   2.295
86072W        W45817  25.175  20.099   4.826
86073W        W45818  42.334   6.240   3.645
86074W        W45819  13.682  37.892  13.843
86075W        W45820  17.258  25.090   1.433
86076W        W45821  42.019  22.069  13.830
86077W        W45822  14.712  27.111   4.339
86078W        W45823  12.646  19.245  12.539
86079W        W45824  33.962  37.567   2.798
86080W        W45825  23.123   2.781   2.358
86081W        W45826   9.690   1.757  14.918
86082W        W45827   4.763  38.472  14.847
86083W        W45828  12.143   5.751  12.351
86084W        W45829  20.075  32.497  14.884
86085W        W45830  16.611   1.300   4.177
86086W        W45831   2.364  43.929   3.337
86087W        W45832  23.534  22.692   3.806
86088W        W45833  33.488  11.146   1.871
86089W        W45834  32.572  43.511   1.324
86090W        W45835  30.017   7.243   3.827
86091W        W45836  17.201   5.387   9.973
86092W        W45837  24.974  26.127  13.309
86093W        W45838  27.634  43.801   0.739
86094W        W45839  10.847   9.169   1.372
86095W        W45840   7.820  18.123  11.414
86096W        W45841   9.359  18.709   2.731
86097W        W45842  28.490  20.667  10.406
86098W        W45843  10.832  44.340   1.870
86099W        W45844  24.092   4.894  10.053
86100W        W45845  34.391  22.743  14.934
86101W        W45846  28.610  12.137  10.450
86102W        W45847  37.564  14.789   2.367
86103W        W45848  44.755  13.200   1.413
86104W        W45849  19.604  21.587   2.757
86105W        W45850  39.818  38.428   2.246
86106W        W45851  12.660  26.627  11.113
86107W        W45852  19.103  25.012  12.824
86108W        W45853  43.813  29.974  14.861
86109W        W45854  11.851  33.969  13.310
86110W        W45855  44.394  35.440  13.480
86111W        W45856  37.957  10.733  10.487
86112W        W45857  14.125  39.352   3.769
86113W        W45858  17.211  28.563  11.887
86114W        W45859   6.816  21.584  14.318
86115W        W45860  20.054  21.040  13.959
86116W        W45861   2.889   1.248   1.887
86117W        W45862  33.915  11.685  13.873
86118W        W45863  40.840  25.126   4.233
86119W        W45864  18.184  38.564   2.715
86120W        W45865  11.192  43.847  14.957
86121W        W45866  36.094  22.136   1.390
86122W        W45867  40.952   2.278  11.950
86123W        W45868   5.422   8.817   0.319
86124W        W45869   3.755   5.262   3.797
86125W        W45870  22.105  20.140  12.436
86126W        W45871  44.394   3.739  14.341
86127W        W45872   3.368  44.797   2.688
86128W        W45873  18.624   9.377   1.227
86129W        W45874  36.440  36.350  13.036
86130W        W45875  28.972  41.502  11.913
86131W        W45876  22.728  19.643  14.388
86132W        W45877  42.467  41.960  14.399
86133W        W45878  31.029  33.034   0.841
86134W        W45879  10.146   9.239   1.238
86135W        W45880   4.886  28.477  14.456
86136W        W45881   7.804  33.017   1.879
86137W        W45882   1.316  35.962   4.156
86138W        W45883   2.942  37.551  13.901
86139W        W45884   5.316  14.800   4.734
86140W        W45885  11.350  22.059   2.230
86141W        W45886  33.578  13.340   0.421
86142W        W45887  35.861  14.207  12.462
86143W        W45888  27.095  33.971   4.173
86144W        W45889  29.659  44.404   4.291
86145W        W45890  18.703   1.433  10.971
86146W        W45891  13.251  42.917   0.246
86147W        W45892  32.077  23.181  12.571
86148W        W45893  18.093  31.149  11.970
86149W        W45894   9.787   6.843   2.727
86150W        W45895  23.141  35.867  13.895
86151W        W45896   2.900  33.994  14.031
86152W        W45897  25.669  40.821   0.471
86153W        W45898   6.897   6.200   3.172
86154W        W45899   4.218  38.459   2.204
86155W        W45900  15.183  29.931  10.575
86156W        W45901  15.084  38.884  11.882
86157W        W45902  23.201  29.044   4.657
86158W        W45903   1.270  16.619  13.311
86159W        W45904  41.020  40.811   0.408
86160W        W45905  35.094  11.128   1.241
86161W        W45906  14.658  31.568   2.865
86162W        W45907   4.431  40.009  11.592
86163W        W45908  25.488  43.300   2.301
86164W        W45909  23.212  33.086   4.637
86165W        W45910  29.139  25.072   0.463
86166W        W45911  11.289  24.511  13.445
86167W        W45912  37.386  40.970   0.400
86168W        W45913  21.718  44.342   1.878
86169W        W45914  24.572   9.260  14.880
86170W        W45915   1.911  29.609   3.343
86171W        W45916  35.925   6.850   2.845
86172W        W45917  34.958   9.715   4.346
86173W        W45918   1.862  16.169  11.866
86174W        W45919  12.267  11.808   0.955
86175W        W45920   9.345  34.462  12.091
86176W        W45921  20.236  42.965  13.059
86177W        W45922  31.896   3.784   2.344
86178W        W45923  36.430  19.755   5.214
86179W        W45924  19.079  41.876  13.342
86180W        W45925   6.340  30.024  12.493
86181W        W45926  24.132  24.619  14.384
86182W        W45927  37.350  32.129  12.390
86183W        W45928  19.731   9.745  14.989
86184W        W45929  24.606   4.280   4.235
86185W        W45930  14.712  38.070   9.965
86186W        W45931   2.271   2.470  13.511
86187W        W45932  32.098  29.545  13.327
86188W        W45933  30.475  26.588   4.666
86189W        W45934  30.490   3.239   2.283
86190W        W45935  42.815  24.577  13.307
86191W        W45936  20.682   1.459  13.451
86192W        W45937  23.998  24.640   2.792
86193W        W45938  35.366   7.417   0.295
86194W        W45939  18.579  21.080   3.793
86195W        W45940  31.134  15.191  10.542
86196W        W45941  33.436  19.280  13.339
86197W        W45942  18.601  32.629   1.441
86198W        W45943  14.281  43.872   3.869
86199W        W45944   4.276  19.698  14.403
86200W        W45945   8.342  44.445   0.762
86201W        W45946  20.673  16.116   0.960
86202W        W45947  21.621   3.856  12.566
86203W        W45948  40.880  23.126  13.972
86204W        W45949  41.912   4.240   0.932
86205W        W45950  29.073  34.442   0.296
86206W        W45951   5.750  22.734  14.859
86207W        W45952   8.876   9.385  11.929
86208W        W45953  27.544  23.729  13.404
86209W        W45954   4.830  17.616  10.552
86210W        W45955   0.410  11.653  11.531
86211W        W45956  11.719  29.162   0.369
86212W        W45957  15.812  30.587  11.413
86213W        W45958   0.373  39.019  12.454
86214W        W45959  44.359  19.210  13.454
86215W        W45960   0.319  35.479   2.869
86216W        W45961  39.872  44.471  11.046
86217W        W45962   5.218  23.520  13.940
86218W        W45963  19.150  37.005   2.869
86219W        W45964  19.666  44.952   2.302
86220W        W45965  34.525  11.335  14.773
86221W        W45966   1.368   9.864   1.364
86222W        W45967   4.701  35.094   1.323
86223W        W45968  27.048  44.367   2.197
86224W        W45969  16.725   9.835  14.852
86225W        W45970  20.523  30.101   2.783
86226W        W45971   7.203  26.560  13.455
86227W        W45972  43.014  20.039   4.279
86228W        W45973  32.905  44.955  13.857
86229W        W45974  19.654  15.672   3.329
86230W        W45975  39.932  33.499   0.797
86231W        W45976   3.736  11.810  10.138
86232W        W45977  28.475  11.705   3.302
86233W        W45978  19.755  13.800  12.874
86234W        W45979  42.852  21.174  13.911
86235W        W45980  41.831  21.206  10.918
86236W        W45981  38.397  35.072   0.829
86237W        W45982  18.201  43.489  11.581
86238W        W45983   1.457   1.393  14.777
86239W        W45984  11.363  12.689  13.802
86240W        W45985  44.913   2.277  13.015
86241W        W45986  36.509  27.984   2.215
86242W        W45987  31.982  13.607  14.310
86243W        W45988  13.170  26.485  11.494
86244W        W45989  16.802  38.545   0.345
86245W        W45990  23.676   2.397   3.330
86246W        W45991   3.285  14.097  11.508
86247W        W45992  27.446  28.154  10.559
86248W        W45993  21.227  28.607  10.940
86249W        W45994   2.287  29.953   2.197
86250W        W45995  41.381  43.336   2.873
86251W        W45996  12.618  29.168  11.970
86252W        W45997  11.792  37.021  13.385
86253W        W45998   5.293  10.276   1.379
86254W        W45999  40.466  22.667  14.275
86255W        W46000  17.612  26.132   4.748
86256W        W46001  20.169  24.609   0.356
86257W        W46002   4.726  16.639   4.607
86258W        W46003  31.456  31.935   9.948
86259W        W46004  25.603  37.976   2.805
86260W        W46005  29.042  11.797   2.412
86261W        W46006  19.721  10.834  11.584
86262W        W46007  33.465   2.739  11.530
86263W        W46008  18.178  28.985   4.664
86264W        W46009  13.129  10.647  11.406
86265W        W46010  10.242  21.207   3.803
86266W        W46011  28.096   7.842  10.495
86267W        W46012  36.974   8.243   2.201
86268W        W46013  40.035  14.757  13.018
86269W        W46014  40.978  35.983   2.369
86270W        W46015  41.481  21.604  11.005
86271W        W46016  17.653  28.461   4.213
86272W        W46017  18.757  18.550  12.057
86273W        W46018  22.247   2.409   1.752
86274W        W46019  23.594  25.470  13.797
86275W        W46020   0.988  28.071  12.541
86276W        W46021  18.105  25.489   3.653
86277W        W46022  38.374   7.371  11.056
86278W        W46023  12.199   8.699  12.973
86279W        W46024  24.554  28.542   4.204
86280W        W46025  44.939  29.523  13.541
86281W        W46026   9.818   2.786  10.418
86282W        W46027  32.991  23.541  14.473
86283W        W46028  16.126  13.657   3.385
86284W        W46029  33.437  41.522  12.408
86285W        W46030  16.302  20.228   1.213
86286W        W46031  20.117  25.497  13.392
86287W        W46032   3.946  34.485  12.857
86288W        W46033  37.446  40.952  12.396
86289W        W46034  42.344   9.243   0.836
86290W        W46035  25.975  42.923   1.309
86291W        W46036   5.772   8.780  14.288
86292W        W46037  21.247   4.785  11.379
86293W        W46038  11.221  38.888   2.810
86294W        W46039  37.486  24.482   2.308
86295W        W46040   7.728  34.100  13.377
86296W        W46041  18.104   5.316  12.515
86297W        W46042  21.519  18.194   0.414
86298W        W46043  16.218   3.802   0.882
86299W        W46044  29.570  44.944  11.022
86300W        W46045  13.290  19.543  12.388
86301W        W46046   7.877  44.270   5.271
86302W        W46047   7.826   2.799  14.811
86303W        W46048  12.622  40.856  11.063
86304W        W46049  25.656  33.484   1.855
86305W        W46050   2.738  34.477   0.772
86306W        W46051  43.976   7.340  14.026
86307W        W46052  32.586  35.958   4.210
86308W        W46053   0.979  32.012   0.283
86309W        W46054  10.866  26.951  10.439
86310W        W46055   8.195  26.573  12.992
86311W        W46056  31.511  27.538   0.252
86312W        W46057   3.359  30.538  10.540
86313W        W46058  26.595  37.018   0.803
86314W        W46059  39.554   4.732   0.781
86315W        W46060  10.696  21.194   4.602
86316W        W46061   5.281  27.047   0.449
86317W        W46062  21.591  27.958  14.448
86318W        W46063  22.129  33.484  11.066
86319W        W46064  38.962  28.946  13.329
86320W        W46065  15.796  25.105   0.776
86321W        W46066  33.493   0.339  10.636
86322W        W46067  39.926  35.069  13.915
86323W        W46068  35.409  18.587  11.491
86324W        W46069  11.752  32.097   0.742
86325W        W46070  20.549  19.702   0.479
86326W        W46071  44.294  36.494  13.548
86327W        W46072  26.632  39.808   2.743
86328W        W46073   5.201   6.812  11.917
86329W        W46074   7.197  26.638   4.253
86330W        W46075  17.782  39.352   2.406
86331W        W46076   5.318  33.596  14.308
86332W        W46077   5.199  39.523   0.737
86333W        W46078  34.969   8.659   4.280
86334W        W46079  25.000  22.678   1.909
86335W        W46080  30.457  39.931   4.765
86336W        W46081  39.864   0.431   0.408
86337W        W46082   7.784  12.813   4.338
86338W        W46083  42.947  37.339  14.886
86339W        W46084  29.929  44.979   1.377
86340W        W46085  24.526   9.283   3.315
86341W        W46086  17.303   8.260  13.329
86342W        W46087  21.584  23.673   2.772
86343W        W46088   4.821  41.890  14.845
86344W        W46089  26.021  26.164   1.845
86345W        W46090  23.550  39.946   2.805
86346W        W46091  38.448  19.648  11.091
86347W        W46092   9.316  38.950  10.623
86348W        W46093  25.470  40.019   3.795
86349W        W46094  27.482  20.572  13.435
86350W        W46095   6.310   6.329   2.239
86351W        W46096  41.819  43.494  11.949
86352W        W46097  14.143   8.735   4.670
86353W        W46098  18.601  40.959  12.989
86354W        W46099  41.935  39.854   2.901
86355W        W46100  17.072  26.618  12.574
86356W        W46101  17.627  41.341  14.018
86357W        W46102  34.404   2.764  13.049
86358W        W46103  24.004  18.194   1.336
86359W        W46104   9.353   9.183   1.340
86360W        W46105  22.205  25.108  14.277
86361W        W46106  35.015  23.509   2.889
86362W        W46107  27.504  38.936   0.319
86363W        W46108   3.340  35.934  11.506
86364W        W46109  18.711   2.798   2.402
86365W        W46110   0.403   0.909  13.030
86366W        W46111  33.909  44.902   0.400
86367W        W46112  29.546   7.673  12.916
86368W        W46113  26.608  40.393   0.816
86369W        W46114  43.886  30.633   3.293
86370W        W46115  32.108  31.942  13.909
86371W        W46116  14.290  26.954   3.687
86372W        W46117   6.795  32.051   5.274
86373W        W46118  30.164  33.456   2.317
86374W        W46119  22.665  32.073  11.434
86375W        W46120  15.638  28.984   3.756
86376W        W46121   9.296  21.649   3.801
86377W        W46122  19.592  12.742   3.755
86378W        W46123  13.205  28.549   3.330
86379W        W46124  28.456   9.177   1.343
86380W        W46125   8.724  24.206   0.779
86381W        W46126  12.734  22.641   1.790
86382W        W46127  27.560  16.306   1.229
86383W        W46128  42.805  41.375  10.466
86384W        W46129  21.022  31.595   9.620
86385W        W46130  38.030   3.251   2.830
86386W        W46131  28.504  43.499  14.779
86387W        W46132  43.347  13.715  11.433
86388W        W46133  18.572   2.831  13.471
86389W        W46134  23.012  12.355  13.947
86390W        W46135   8.197  41.902  13.030
86391W        W46136  36.402   9.866   0.347
86392W        W46137  13.748  15.125  14.000
86393W        W46138  35.363  19.195  11.020
86394W        W46139  40.980  42.800   1.362
86395W        W46140  29.945  41.998   2.306
86396W        W46141  44.841  24.089  12.569
86397W        W46142   6.885   7.904   4.312
86398W        W46143  44.792  24.586   3.796
86399W        W46144  35.057   2.865   3.783
86400W        W46145  14.700  32.392   3.845
86401W        W46146  21.188  31.461   0.826
86402W        W46147  12.802  43.283  12.900
86403W        W46148  41.498  38.067  11.898
86404W        W46149  37.041   1.240   1.285
86405W        W46150  12.331  38.874  12.006
86406W        W46151  38.948  15.603   3.685
86407W        W46152  26.154  27.152  11.903
86408W        W46153   9.247  11.754   2.247
86409W        W46154  42.386  14.802   4.637
86410W        W46155  28.158  31.015   1.872
86411W        W46156   4.412  27.033   2.332
86412W        W46157  13.655  29.046  14.410
86413W        W46158  19.197  12.156   0.438
86414W        W46159   4.830  41.950   1.347
86415W        W46160  44.910  39.334  12.865
86416W        W46161   5.746  10.365   2.303
86417W        W46162  15.783   5.258  12.558
86418W        W46163  24.105   8.788   4.266
86419W        W46164  14.106  39.909  13.980
86420W        W46165  31.132  27.660   1.714
86421W        W46166  43.934   6.420  10.504
86422W        W46167  22.096  37.435  10.539
86423W        W46168  34.396   7.754   4.671
86424W        W46169  32.563  36.000  12.926
86425W        W46170  16.121  27.553   1.910
86426W        W46171  34.057   1.272  10.641
86427W        W46172   5.777  14.137   1.420
86428W        W46173  24.564   7.367  12.397
86429W        W46174   9.864  40.998   4.135
86430W        W46175  10.312  31.531  13.870
86431W        W46176  32.009  27.659  12.084
86432W        W46177  23.724  19.173   4.705
86433W        W46178  36.011  13.670  11.888
86434W        W46179  22.643  20.203   2.379
86435W        W46180  35.951  44.949  10.989
86436W        W46181  19.726  36.019  13.456
86437W        W46182   6.742  18.671  13.023
86438W        W46183  44.964  34.959  12.482
86439W        W46184  41.889  14.111   2.413
86440W        W46185  40.305  40.020   4.198
86441W        W46186  14.651  15.674  13.334
86442W        W46187  10.879  29.081   3.160
86443W        W46188  10.352  34.096   3.297
86444W        W46189  25.664  40.937  10.520
86445W        W46190  36.388  37.855  12.341
86446W        W46191  31.007  38.462  13.390
86447W        W46192  29.470   0.429   4.666
86448W        W46193  23.515  13.226  10.087
86449W        W46194  29.449  33.883  11.129
86450W        W46195   9.771  18.163  11.903
86451W        W46196  10.650   3.277   2.764
86452W        W46197  15.620  32.929  13.508
86453W        W46198  42.780  12.639  12.366
86454W        W46199  25.094  13.819   0.478
86455W        W46200  30.535  39.957  10.422
86456W        W46201  24.162   8.356   0.948
86457W        W46202  16.731  17.565  10.538
86458W        W46203  23.525  24.068  13.334
86459W        W46204   6.290  22.129  13.862
86460W        W46205  43.781  29.580  11.981
86461W        W46206  29.168  38.368   1.928
86462W        W46207  17.268   3.325  11.868
86463W        W46208  18.269  23.161   1.704
86464W        W46209  28.952  18.731   4.314
86465W        W46210  16.800   5.210  14.007
86466W        W46211  33.569  44.800   1.776
86467W        W46212   7.838  44.491  11.510
86468W        W46213  11.842   4.904  13.866
86469W        W46214   3.891  40.456  14.313
86470W        W46215  24.137   0.744   0.786
86471W        W46216  14.250   5.245  14.801
86472W        W46217  39.944  15.214   0.775
86473W        W46218   9.861  25.507  14.440
86474W        W46219  12.647   2.293  12.061
86475W        W46220  44.795  13.273   4.326
86476W        W46221   9.826  28.489  12.438
86477W        W46222   2.847  34.048   1.223
86478W        W46223  10.757  32.053  12.029
86479W        W46224   5.709  29.491  10.438
86480W        W46225  33.576  44.329  11.471
86481W        W46226   4.702  29.046  14.312
86482W        W46227  27.983  22.082  14.857
86483W        W46228  27.074  38.494   4.213
86484W        W46229  35.400  23.170   2.782
86485W        W46230  41.387   6.209  13.455
86486W        W46231  14.237  12.620   1.232
86487W        W46232  39.493   4.254  14.966
86488W        W46233  15.678  15.612   1.823
86489W        W46234  43.403  30.067  12.374
86490W        W46235  43.274  10.234  12.477
86491W        W46236   1.398   9.689  10.931
86492W        W46237  32.569  29.982   4.134
86493W        W46238  20.028   9.309   4.751
86494W        W46239  35.370   9.202  14.876
86495W        W46240  28.514  44.884  13.480
86496W        W46241  39.481  34.948   3.721
86497W        W46242   2.821  44.785   1.914
86498W        W46243  44.934  24.607   1.697
86499W        W46244  26.676  12.702  14.875
86500W        W46245  40.841   9.831   3.838
86501W        W46246  38.410   7.708   4.600
86502W        W46247  14.769  13.118   3.335
86503W        W46248  12.280  12.274  11.979
86504W        W46249  34.056  38.019   2.196
86505W        W46250   0.926   8.702  14.330
86506W        W46251  33.949  30.163   4.166
86507W        W46252  13.202   3.955   4.834
86508W        W46253   3.391  36.943  12.531
86509W        W46254  28.442   0.937  10.404
86510W        W46255  44.304  15.277   0.476
86511W        W46256   7.803  21.028   4.259
86512W        W46257  37.952  13.627   4.804
86513W        W46258  26.547   7.667  12.955
86514W        W46259  27.540   4.789  13.816
86515W        W46260  26.564  26.462   4.659
86516W        W46261  24.530  16.306   0.440
86517W        W46262  36.488  34.865  12.389
86518W        W46263  22.708   5.790  12.053
86519W        W46264  34.914  26.663  13.010
86520W        W46265  24.621  20.248  10.424
86521W        W46266  27.095  38.065   4.155
86522W        W46267  32.512  17.240  10.512
86523W        W46268  22.026   4.936  14.866
86524W        W46269   8.837  12.698  10.017
86525W        W46270  43.367  11.770  14.516
86526W        W46271  25.143  39.058   3.718
86527W        W46272  24.056  24.086   2.837
86528W        W46273  12.345  19.107   1.872
86529W        W46274   1.735   8.282   3.275
86530W        W46275   6.722  43.957  13.399
86531W        W46276  33.913  33.526   3.818
86532W        W46277  25.041  36.364   3.248
86533W        W46278  31.481  27.551  14.945
86534W        W46279  30.061   1.756   0.967
86535W        W46280  11.248  13.248   0.370
86536W        W46281  24.197  17.646  10.100
86537W        W46282  22.114   6.313  14.492
86538W        W46283  24.993  17.281  14.917
86539W        W46284   1.973   1.765   2.708
86540W        W46285  23.532   2.384   2.331
86541W        W46286  29.474  17.267   2.834
86542W        W46287  40.865  31.588   4.146
86543W        W46288  33.497  14.278  10.599
86544W        W46289  10.336  31.613   0.933
86545W        W46290  19.131  30.976  11.120
86546W        W46291  38.053  29.423  12.543
86547W        W46292  43.766  44.428  13.351
86548W        W46293   7.331   0.414   0.292
86549W        W46294  10.838  22.061   1.433
86550W        W46295  40.332  22.207   2.395
86551W        W46296  39.040  14.155  12.846
86552W        W46297  13.232  40.379   4.655
86553W        W46298   6.271   4.227  12.938
86554W        W46299   8.675   9.210  11.580
86555W        W46300  24.129  32.078  12.523
86556W        W46301  22.107   4.912  10.995
86557W        W46302  32.891   0.459  11.969
86558W        W46303   2.275  34.589   1.275
86559W        W46304  19.254  33.940  12.532
86560W        W46305  43.280  27.072  12.905
86561W        W46306  21.663  19.747   4.283
86562W        W46307   2.816   5.782  11.915
86563W        W46308  40.454   6.793   2.324
86564W        W46309   5.850  14.830   2.775
86565W        W46310  12.116  44.331  11.513
86566W        W46311  28.139  15.282  11.862
86567W        W46312  44.392  34.574  13.837
86568W        W46313  22.237   4.426   0.309
86569W        W46314  41.805  17.245   2.708
86570W        W46315  33.550   9.873   2.702
86571W        W46316   0.326  10.651  14.450
86572W        W46317  31.118   3.921   5.294
86573W        W46318  27.980  33.973   3.211
86574W        W46319  24.486  24.063  12.446
86575W        W46320  41.938  27.532  11.919
86576W        W46321  16.115  42.516  10.941
86577W        W46322  20.180   7.848   0.404
86578W        W46323  21.085  39.330  11.001
86579W        W46324  43.933  36.991  14.930
86580W        W46325  33.098  24.111   0.860
86581W        W46326  11.779  42.807   1.246
86582W        W46327  36.588  44.964   4.631
86583W        W46328  41.922  14.744  13.960
86584W        W46329   6.842  24.144   4.289
86585W        W46330  27.454  21.095   3.809
86586W        W46331  25.059  25.683   0.905
86587W        W46332  20.180  17.746   0.318
86588W        W46333  24.151  29.601  11.535
86589W        W46334  29.969   3.298   0.467
86590W        W46335  20.242  30.058  12.370
86591W        W46336  11.707  26.621   2.829
86592W        W46337  36.422   0.953  13.972
86593W        W46338  42.983  41.016  11.989
86594W        W46339  32.406   1.917   3.828
86595W        W46340   9.688   6.409   3.732
86596W        W46341   3.715  18.071   2.739
86597W        W46342  44.771  34.463  11.933
86598W        W46343  17.759   2.930   0.301
86599W        W46344  35.424  27.946   1.802
86600W        W46345  41.961  30.435  10.908
86601W        W46346  42.778  28.446  12.377
86602W        W46347  10.284   6.272  12.920
86603W        W46348  20.639  32.109   0.298
86604W        W46349  28.664  24.101  10.441
86605W        W46350  44.284  24.705   1.860
86606W        W46351   6.879  30.116   0.383
86607W        W46352  40.821  20.269  10.439
86608W        W46353  27.043  19.551  10.064
86609W        W46354  38.061   6.727  13.058
86610W        W46355  16.220  35.991   3.741
86611W        W46356  28.965   8.690  10.925
86612W        W46357  32.537  39.526  13.949
86613W        W46358  39.046  27.959   3.229
86614W        W46359   9.371  42.520  13.865
86615W        W46360  39.394  29.471  10.924
86616W        W46361   7.820   1.375   1.423
86617W        W46362  14.631  32.534  14.999
86618W        W46363  17.290   5.382   1.930
86619W        W46364  41.014  43.500   1.742
86620W        W46365  44.797  43.919  11.010
86621W        W46366  39.496   2.370  12.830
86622W        W46367  16.163  30.994  11.906
86623W        W46368  21.694   9.724  12.045
86624W        W46369  19.661  42.803  14.966
86625W        W46370   1.857  21.523   0.867
86626W        W46371   7.253   3.364  13.361
86627W        W46372  23.040   4.206  13.949
86628W        W46373  14.611  25.218  11.488
86629W        W46374  43.397  23.713   2.296
86630W        W46375  23.185  23.993   3.859
86631W        W46376  10.829  23.518   2.759
86632W        W46377  34.048  22.602  12.023
86633W        W46378  43.503  10.794   0.473
86634W        W46379  21.704   8.355  11.930
86635W        W46380  32.125  36.078   1.853
86636W        W46381   6.212  28.527   4.690
86637W        W46382  28.600  32.887  11.860
86638W        W46383  27.638  26.485   3.806
86639W        W46384   3.325   3.264  13.850
86640W        W46385  33.121  39.989  11.055
86641W        W46386  41.005   7.866  13.960
86642W        W46387  27.677  41.901  12.051
86643W        W46388  16.590  40.426   2.222
86644W        W46389  23.518  39.343   0.312
86645W        W46390  18.630  23.515  11.894
86646W        W46391   6.803  43.369  11.876
86647W        W46392  32.084  41.032  14.453
86648W        W46393  40.431  16.733  12.935
86649W        W46394  37.897   7.797   2.754
86650W        W46395  30.143  27.123  14.973
86651W        W46396  33.991  41.416   3.711
86652W        W46397  16.298  35.018   2.396
86653W        W46398   2.729   0.898  10.945
86654W        W46399  15.103  13.639  13.882
86655W        W46400  11.639  11.263   3.751
86656W        W46401  15.276  17.127  11.608
86657W        W46402  19.069  36.880  12.873
86658W        W46403  27.087   8.734   2.413
86659W        W46404  25.983  32.605   3.804
86660W        W46405  32.972  31.452   2.745
86661W        W46406  39.904  25.579  14.415
86662W        W46407  26.149   6.284   2.354
86663W        W46408  39.030  16.215   0.315
86664W        W46409  19.151  28.174  14.339
86665W        W46410  38.478  16.697   0.341
86666W        W46411  29.429  14.320  11.501
86667W        W46412  41.013  25.141   0.744
86668W        W46413  33.005  10.711   4.172
86669W        W46414  40.954  34.406  10.479
86670W        W46415  15.728  17.066  12.356
86671W        W46416  15.652  29.459  12.462
86672W        W46417  29.115  41.820  11.958
86673W        W46418  13.758  39.331   3.148
86674W        W46419  31.530  11.292   4.757
86675W        W46420  31.461   6.336   2.392
86676W        W46421   9.791  33.625  10.993
86677W        W46422  29.505  34.538   3.317
86678W        W46423  10.762  34.106   2.320
86679W        W46424  43.885  38.339  14.865
86680W        W46425  41.302  34.002   3.838
86681W        W46426  32.114  30.449  12.498
86682W        W46427   7.814  38.440  11.446
86683W        W46428   9.258  32.058   2.361
86684W        W46429   9.733   0.353   4.147
86685W        W46430   3.249  29.627  13.404
86686W        W46431  18.589  26.083   3.254
86687W        W46432  44.889  34.006   0.437
86688W        W46433  16.160  36.586   2.735
86689W        W46434  44.400  19.086   3.157
86690W        W46435  38.996  12.212   4.758
86691W        W46436  22.539  16.759  11.385
86692W        W46437  14.297   5.897  13.900
86693W        W46438  36.525  15.726  14.357
86694W        W46439  38.899  28.616   2.879
86695W        W46440  20.769  21.115   1.770
86696W        W46441  35.899  30.654  12.903
86697W        W46442  36.906  19.745   4.639
86698W        W46443  31.919   1.457   3.176
86699W        W46444  43.976  13.639  10.444
86700W        W46445   4.410  26.614   2.369
86701W        W46446  14.326   2.929  14.319
86702W        W46447  41.430  25.166   3.325
86703W        W46448  37.508  24.989  13.348
86704W        W46449  28.653  22.596   1.699
86705W        W46450   8.690   9.680  12.839
86706W        W46451  11.808   2.967   3.831
86707W        W46452  16.126  12.831  13.911
86708W        W46453  37.506  42.306  13.464
86709W        W46454  24.490  37.409   2.251
86710W        W46455  39.822   1.738  13.450
86711W        W46456  32.560  13.235   0.249
86712W        W46457  43.958  27.508   1.797
86713W        W46458   2.825  38.369   3.704
86714W        W46459   8.201  26.695  10.923
86715W        W46460  19.703  44.293  12.938
86716W        W46461  39.349  44.313   4.696
86717W        W46462  43.352  33.953   0.337
86718W        W46463  36.986  10.656   1.263
86719W        W46464  34.504  37.467  12.014
86720W        W46465  14.776   9.731   0.282
86721W        W46466  43.961  44.469  13.060
86722W        W46467  23.703  23.180   3.672
86723W        W46468  31.481   4.728  12.410
86724W        W46469   5.357  13.207   2.836
86725W        W46470  30.546  43.908   3.168
86726W        W46471  26.139  33.614  12.095
86727W        W46472   5.829  19.188   2.772
86728W        W46473  28.160   5.325  10.890
86729W        W46474  42.803  34.983   2.410
86730W        W46475  39.984  14.274   2.314
86731W        W46476  43.794  42.966  11.108
86732W        W46477  31.413  12.179   4.674
86733W        W46478  40.444  20.591   4.348
86734W        W46479   0.249  30.421   0.316
86735W        W46480  20.757  35.062  11.940
86736W        W46481  40.894   0.896   1.904
86737W        W46482  34.417   8.896  13.399
86738W        W46483   2.737  12.323   4.153
86739W        W46484   8.277  13.657   1.280
86740W        W46485  11.341  31.086  12.867
86741W        W46486   3.934  20.129   0.860
86742W        W46487  23.664  29.565   5.177
86743W        W46488   4.859  30.511  13.893
86744W        W46489  18.250  16.718  11.402
86745W        W46490  20.690  33.465  13.405
86746W        W46491  44.424   0.820  11.926
86747W        W46492   9.734  25.624   2.377
86748W        W46493   3.397  38.055   2.275
86749W        W46494  26.174  29.030  13.410
86750W        W46495   3.449   3.826  11.571
86751W        W46496   6.189  41.298   0.920
86752W        W46497   3.796  14.716   1.729
86753W        W46498  29.037   7.308   4.349
86754W        W46499  26.611  26.553   0.250
86755W        W46500  12.786  26.654  12.948
86756W        W46501  18.257  30.527  12.513
86757W        W46502  26.676  31.126   4.300
86758W        W46503  15.737  39.945   0.900
86759W        W46504  33.494  43.875  11.938
86760W        W46505  40.366   8.795   2.264
86761W        W46506  38.859  14.235   0.922
86762W        W46507  30.635  21.745   2.196
86763W        W46508  32.612  12.323   1.811
86764W        W46509  21.716   8.391   1.270
86765W        W46510  31.410  41.815   0.885
86766W        W46511  43.818  22.130   4.215
86767W        W46512  39.026  34.949  12.070
86768W        W46513  19.706  35.441  12.865
86769W        W46514  22.135   3.720  13.423
86770W        W46515  34.485  33.514  12.401
86771W        W46516  21.051  43.331   3.849
86772W        W46517  23.692  19.109   1.422
86773W        W46518  42.939  32.475  14.381
86774W        W46519   2.307   3.372  10.125
86775W        W46520   6.762  33.069  13.343
86776W        W46521   2.359  18.268   1.321
86777W        W46522  30.963  15.663  11.930
86778W        W46523  37.856  21.591   2.209
86779W        W46524   0.269  26.127   1.895
86780W        W46525   3.809   9.341   1.917
86781W        W46526  34.015   5.718   1.744
86782W        W46527  28.666  42.378  11.054
86783W        W46528  15.323  14.612  10.963
86784W        W46529   7.219  28.088  11.070
86785W        W46530  23.551  31.094   3.277
86786W        W46531  35.503  29.012   0.904
86787W        W46532   3.920  25.102   5.170
86788W        W46533  20.198  29.596   1.311
86789W        W46534  39.440  35.018  13.016
86790W        W46535   7.759  44.867  12.884
86791W        W46536  15.621  27.971   2.823
86792W        W46537   8.249  24.011   3.799
86793W        W46538  12.790  18.132  11.455
86794W        W46539  37.011  26.560   9.975
86795W        W46540  16.231   9.148   2.307
86796W        W46541  20.056  18.569   0.393
86797W        W46542  16.232  23.653  12.881
86798W        W46543  17.293  24.139   3.168
86799W        W46544   6.704  16.271  11.951
86800W        W46545  25.650  20.095  13.402
86801W        W46546  35.381   6.678   3.297
86802W        W46547  13.737   0.267   4.285
86803W        W46548   8.287  20.764  11.019
86804W        W46549  28.024  30.106  14.764
86805W        W46550  10.161  34.472   4.355
86806W        W46551   1.293  23.199   5.718
86807W        W46552  37.400  23.589  10.979
86808W        W46553   6.366   9.358   4.116
86809W        W46554  15.678  14.613   0.461
86810W        W46555   5.842  21.102   2.179
86811W        W46556  13.308   5.757   1.817
86812W        W46557  31.953  41.496   2.769
86813W        W46558   4.879  15.772  12.975
86814W        W46559  22.138  35.928  12.920
86815W        W46560  37.568  28.578  13.508
86816W        W46561  23.534  29.646   1.732
86817W        W46562   1.831  17.751   0.277
86818W        W46563  14.226   5.202   4.753
86819W        W46564  35.884  44.266  12.881
86820W        W46565  29.077  13.747  14.429
86821W        W46566  10.363  27.116  14.779
86822W        W46567  39.429  41.974   2.824
86823W        W46568  35.897  36.841   2.210
86824W        W46569  23.729  32.418   2.898
86825W        W46570  27.178  43.489  13.935
86826W        W46571   9.720   4.367  14.773
86827W        W46572  12.344  12.195  13.799
86828W        W46573  34.527   6.322   5.300
86829W        W46574   8.830  39.021  14.990
86830W        W46575  43.948  15.205   3.639
86831W        W46576  31.436  25.963  10.157
86832W        W46577  30.552   3.264   0.843
86833W        W46578  43.857  34.523   1.879
86834W        W46579   3.900  17.274  14.871
86835W        W46580   1.352  26.959  13.833
86836W        W46581  36.951  34.991   2.700
86837W        W46582  17.570   9.749  14.927
86838W        W46583  36.348  37.030   2.212
86839W        W46584  31.620  13.821   3.266
86840W        W46585  23.065  13.208   0.363
86841W        W46586  29.138  24.684  10.959
86842W        W46587  10.368  18.738   2.319
86843W        W46588  24.172  31.041  14.904
86844W        W46589  43.273   2.264   3.251
86845W        W46590  14.203  17.188   1.749
86846W        W46591  35.432  22.594   1.892
86847W        W46592   4.394   2.416  12.506
86848W        W46593   7.791  28.647  10.983
86849W        W46594  31.432  15.602   4.208
86850W        W46595  35.101  21.695  11.002
86851W        W46596  20.234   9.261  12.446
86852W        W46597  35.374  34.097  12.537
86853W        W46598  34.409  29.103   1.338
86854W        W46599  44.352  17.260  12.525
86855W        W46600  10.274  20.662   1.400
86856W        W46601  36.417  31.085   4.137
86857W        W46602  41.493   7.324  13.403
86858W        W46603  13.143  42.498   1.780
86859W        W46604   1.261  42.017  12.934
86860W        W46605  32.630   9.369   3.677
86861W        W46606  29.613  37.483  13.901
86862W        W46607  39.398  15.205  14.463
86863W        W46608  31.490  10.218   0.854
86864W        W46609  24.491  26.002   2.209
86865W        W46610  36.557  39.560   4.330
86866W        W46611  35.372  31.023   2.796
86867W        W46612  26.134   2.365   1.925
86868W        W46613   9.258  20.030  12.897
86869W        W46614  14.632  22.236   3.383
86870W        W46615   0.340  27.050   3.336
86871W        W46616  44.833   9.212  11.106
86872W        W46617  24.036  16.238   5.759
86873W        W46618   2.748  36.964  13.860
86874W        W46619  32.960  26.168   3.169
86875W        W46620  30.048  27.018  13.332
86876W        W46621  40.302  24.072   3.821
86877W        W46622   9.388  26.096   4.732
86878W        W46623  14.601  26.195   1.815
86879W        W46624  32.547  42.447  12.843
86880W        W46625  36.013  11.719   4.836
86881W        W46626  39.824  44.295  13.401
86882W        W46627  24.173  19.220  14.773
86883W        W46628   9.235   7.849   1.829
86884W        W46629  44.437   9.393  10.434
86885W        W46630   0.821  24.193   5.253
86886W        W46631  13.603  21.239   1.706
86887W        W46632  33.554  25.583  10.086
86888W        W46633  43.979   6.285   3.233
86889W        W46634  22.615  22.655   3.376
86890W        W46635  26.163  11.865   0.881
86891W        W46636  31.424  30.969   1.901
86892W        W46637   6.736   0.838  14.461
86893W        W46638  16.661  20.625   3.759
86894W        W46639  14.709  37.338  11.467
86895W        W46640  15.692  30.505   1.837
86896W        W46641   0.925  15.278   3.244
86897W        W46642  24.496   9.852   3.856
86898W        W46643  16.207   2.300  11.505
86899W        W46644  27.997  35.578   2.817
86900W        W46645   0.373  25.644  14.926
86901W        W46646  36.059   2.734   3.667
86902W        W46647  29.152  28.562   3.782
86903W        W46648   2.411   9.340  12.359
86904W        W46649  41.430  43.484  10.451
86905W        W46650  31.075   4.400  12.423
86906W        W46651   0.921   2.810  10.908
86907W        W46652  34.096  24.489  14.433
86908W        W46653  29.566  35.597  10.551
86909W        W46654  28.181  37.555  10.961
86910W        W46655  31.463  43.380   0.258
86911W        W46656  36.050  16.594  13.952
86912W        W46657   5.282  28.092  13.510
86913W        W46658   1.421  23.569  14.762
86914W        W46659   2.870  17.180  11.417
86915W        W46660  12.679  39.484   2.246
86916W        W46661  18.226   9.203   3.663
86917W        W46662  28.469  15.597   1.239
86918W        W46663  23.110   3.887  13.937
86919W        W46664  32.968  16.640   0.421
86920W        W46665  10.140  20.159   0.742
86921W        W46666  34.598  30.129   3.716
86922W        W46667  25.499   5.756  10.589
86923W        W46668   6.884  26.076  14.357
86924W        W46669  10.775  30.092  11.553
86925W        W46670  23.524   0.751  12.438
86926W        W46671  17.132  41.425  11.588
86927W        W46672  33.527  35.099  12.079
86928W        W46673  40.506  41.303   0.308
86929W        W46674  34.437  40.415   4.153
86930W        W46675  28.489  39.932   4.139
86931W        W46676  22.603  23.589  11.124
86932W        W46677  32.561  44.851   3.655
86933W        W46678  36.501   1.776  11.536
86934W        W46679  35.561   6.423  13.486
86935W        W46680   0.745  43.942   3.841
86936W        W46681  33.533  28.636  12.568
86937W        W46682  11.686  38.499  13.837
86938W        W46683   0.957  31.060   2.699
86939W        W46684  42.489  26.085   3.302
86940W        W46685  23.524  44.775  12.436
86941W        W46686  21.117  13.751   4.280
86942W        W46687  36.528  32.073  10.489
86943W        W46688   8.814  43.446  13.936
86944W        W46689  38.001  36.449   2.869
86945W        W46690   5.859  18.057  11.372
86946W        W46691   8.696   4.879  11.523
86947W        W46692  33.571  30.999   4.649
86948W        W46693  27.187  31.916  11.504
86949W        W46694  22.542  44.009  12.058
86950W        W46695  37.399  25.625   2.360
86951W        W46696  41.799  35.376  11.515
86952W        W46697   3.830   3.869   1.219
86953W        W46698  19.211  33.928   0.949
86954W        W46699   2.761  25.065  11.074
86955W        W46700  15.194  22.078   1.757
86956W        W46701  37.071  21.620  12.511
86957W        W46702  11.656  40.957  13.926
86958W        W46703  36.846  28.653   2.266
86959W        W46704   1.376  27.962  11.602
86960W        W46705  17.642  15.655  12.881
86961W        W46706  27.597  39.449   2.332
86962W        W46707  19.191  26.526  12.889
86963W        W46708  40.468  43.810  12.425
86964W        W46709  36.377  30.971  10.473
86965W        W46710  18.270   3.739  12.461
86966W        W46711  19.139  33.540  13.476
86967W        W46712   5.320  37.398   1.363
86968W        W46713   9.310  33.579  14.361
86969W        W46714  14.736  13.753   3.241
86970W        W46715   1.275  10.383   2.197
86971W        W46716  28.044   6.294   5.084
86972W        W46717  22.540  20.262  10.562
86973W        W46718  16.102  35.056  12.956
86974W        W46719   3.895  15.704  14.417
86975W        W46720  15.225  33.059   1.816
86976W        W46721   8.212  24.146   1.747
86977W        W46722  36.964  14.815   4.605
86978W        W46723  19.256  15.659   0.945
86979W        W46724   8.313  22.179   1.831
86980W        W46725  19.271   4.719  12.355
86981W        W46726  26.628  16.167   5.592
86982W        W46727  28.117  32.617  13.509
86983W        W46728  12.731  29.123   4.697
86984W        W46729  31.592  12.856  14.869
86985W        W46730  29.113   8.877  14.771
86986W        W46731  39.496  41.528  12.382
86987W        W46732   7.784  31.058  12.879
86988W        W46733  14.163  34.076   5.085
86989W        W46734  32.938  35.054   0.269
86990W        W46735  40.991  11.658   2.668
86991W        W46736   8.751  14.299   1.309
86992W        W46737  21.561  16.581  11.598
86993W        W46738   6.800  16.162  14.824
86994W        W46739  33.380  40.341  12.413
86995W        W46740   3.880  10.773   4.822
86996W        W46741  15.135  29.489  14.286
86997W        W46742  22.240  42.778  14.429
86998W        W46743  38.475  13.334   2.242
86999W        W46744   3.930  15.259   0.361
87000W        W46745  36.950  17.690   1.723
87001W        W46746  36.530   0.980  10.044
87002W        W46747   9.782  18.773  10.516
87003W        W46748  21.018   3.834  10.620
87004W        W46749  18.566   6.391  11.399
87005W        W46750  28.997  24.722  11.885
87006W        W46751   2.355  12.179  12.414
87007W        W46752  29.038  27.462   0.335
87008W        W46753  36.075  39.877  13.376
87009W        W46754  23.508  19.723   3.805
87010W        W46755   9.329   7.325  12.396
87011W        W46756  12.192   8.363   3.209
87012W        W46757   9.175  29.506   4.198
87013W        W46758   3.874   6.842   1.274
87014W        W46759  16.690  16.666  14.919
87015W        W46760  43.450   1.967  13.996
87016W        W46761  17.070  23.032   0.792
87017W        W46762  40.954  19.644  12.923
87018W        W46763  12.184  34.985  13.912
87019W        W46764  42.985  18.586  10.627
87020W        W46765  30.495  14.676   0.473
87021W        W46766  13.735  31.518  14.830
87022W        W46767   0.323   3.419  11.598
87023W        W46768  18.183  25.610  13.383
87024W        W46769  14.225  25.074   4.305
87025W        W46770   0.259  28.018   4.688
87026W        W46771  36.881  32.936   2.203
87027W        W46772   2.743  10.726  12.991
87028W        W46773  39.018  26.141  10.541
87029W        W46774  20.656  30.616   0.463
87030W        W46775  20.596  14.713  12.965
87031W        W46776  36.572  33.102  12.050
87032W        W46777  26.018  39.810  13.395
87033W        W46778   2.267  14.126  13.938
87034W        W46779   4.874   5.886   3.658
87035W        W46780  11.295  14.816   1.760
87036W        W46781   3.754   5.753  13.013
87037W        W46782  20.724  23.207   2.399
87038W        W46783  37.367  22.092   0.333
87039W        W46784  28.167  10.226   2.815
87040W        W46785  26.139  11.841  14.447
87041W        W46786   5.363   2.873  11.479
87042W        W46787  11.246  42.477  13.005
87043W        W46788  38.963  44.461   2.346
87044W        W46789  34.968  20.739  10.428
87045W        W46790  38.450  32.529   4.305
87046W        W46791   3.228  25.550  10.621
87047W        W46792  16.268  16.719  12.850
87048W        W46793  10.258  16.730   0.311
87049W        W46794   8.166  44.807   3.280
87050W        W46795   5.899  19.614   4.274
87051W        W46796  33.100  19.634  14.312
87052W        W46797  28.140  20.555   0.876
87053W        W46798  11.284   0.782   3.713
87054W        W46799  43.829  43.886   4.115
87055W        W46800  33.886   3.898   4.342
87056W        W46801   7.878  33.583   4.136
87057W        W46802   1.937  22.650   0.935
87058W        W46803  39.373  28.107  11.895
87059W        W46804  12.776   4.838  10.089
87060W        W46805  18.577  42.852  12.005
87061W        W46806   8.233  18.161  14.319
87062W        W46807  24.031  23.080  14.800
87063W        W46808  24.091   4.330  14.364
87064W        W46809  32.900  17.142  13.440
87065W        W46810   0.858   0.480  14.808
87066W        W46811   5.891  25.178  12.427
87067W        W46812  27.612  12.189  10.983
87068W        W46813   4.327   3.345   0.746
87069W        W46814  17.139  20.188   4.181
87070W        W46815   9.261  34.095  10.451
87071W        W46816   6.296  20.599   2.685
87072W        W46817  28.930  12.294  13.524
87073W        W46818   5.349  17.605  10.477
87074W        W46819  12.278  28.011  13.329
87075W        W46820  18.592  27.950   0.729
87076W        W46821  13.752   3.837   0.381
87077W        W46822  42.935  13.132   1.330
87078W        W46823  42.435  19.750   2.866
87079W        W46824  35.093  38.954   0.788
87080W        W46825  20.769   8.329   1.879
87081W        W46826  28.670  38.841   4.221
87082W        W46827  22.185  19.726   4.305
87083W        W46828  10.784  21.531  13.322
87084W        W46829  21.515  41.424  10.446
87085W        W46830  17.758   6.877   3.199
87086W        W46831  28.076  18.732  13.372
87087W        W46832   3.436  33.483   1.327
87088W        W46833  25.517  38.075  12.997
87089W        W46834   6.901  27.954  11.900
87090W        W46835   9.229  30.459   1.728
87091W        W46836   4.317  39.319   2.731
87092W        W46837  30.162   3.780  10.111
87093W        W46838  43.986  33.449   0.929
87094W        W46839  25.200  17.589  11.055
87095W        W46840  29.103  32.999  14.943
87096W        W46841  17.129  34.403   1.762
87097W        W46842   7.784  28.644   4.772
87098W        W46843   0.330  42.957   2.766
87099W        W46844  13.114  11.775  13.402
87100W        W46845  23.529  38.917   0.307
87101W        W46846  43.495  20.232   3.379
87102W        W46847   0.776  44.879   1.395
87103W        W46848  16.731  27.602  12.870
87104W        W46849   2.843  30.058  14.439
87105W        W46850  10.700  14.266   3.851
87106W        W46851  24.062  26.540   1.826
87107W        W46852  13.290  38.905  12.424
87108W        W46853  10.676  15.637  14.374
87109W        W46854  42.783  28.608   0.910
87110W        W46855  33.606  27.997  14.023
87111W        W46856  16.610  39.367  14.023
87112W        W46857  24.996   5.278  13.871
87113W        W46858  33.915  34.487   2.888
87114W        W46859   5.844  43.983  13.433
87115W        W46860   0.340  32.889   0.788
87116W        W46861  14.324  15.132   0.746
87117W        W46862  19.192  11.297  11.420
87118W        W46863  20.137  38.518  12.067
87119W        W46864  18.697   7.903   4.344
87120W        W46865   8.397  26.080   1.841
87121W        W46866  25.095  12.750   0.386
87122W        W46867  13.716   1.877   0.903
87123W        W46868  27.080  13.142  13.906
87124W        W46869  36.893  15.793   1.782
87125W        W46870  23.549  26.501  12.469
87126W        W46871  14.247  15.273  11.437
87127W        W46872   5.895   6.843   3.221
87128W        W46873   3.762   3.920  14.453
87129W        W46874   0.795  27.692  11.428
87130W        W46875   9.203  25.633   3.254
87131W        W46876  41.402  43.921  14.906
87132W        W46877  27.487   9.182  12.463
87133W        W46878   6.828  39.429   3.361
87134W        W46879  38.844  39.517   3.273
87135W        W46880  13.181   1.318   0.364
87136W        W46881  14.200  40.810  11.390
87137W        W46882   8.883  20.565   1.855
87138W        W46883   7.343  11.830   1.861
87139W        W46884  24.219  40.042   0.894
87140W        W46885  25.218  31.551   2.404
87141W        W46886  25.528  31.057   2.849
87142W        W46887   1.810   2.420  14.279
87143W        W46888  15.272  29.587   0.798
87144W        W46889  39.428  16.596   0.335
87145W        W46890   6.865  15.268  14.788
87146W        W46891  10.667  29.572  10.535
87147W        W46892  26.489  20.602  11.005
87148W        W46893   1.874   9.695  13.437
87149W        W46894  19.753   9.652  11.116
87150W        W46895  15.693   1.927  14.818
87151W        W46896  19.054  38.834   2.667
87152W        W46897  15.772   9.815  14.980
87153W        W46898  43.375   8.674  10.458
87154W        W46899  36.081  20.769  13.432
87155W        W46900  13.825   1.282  13.533
87156W        W46901  35.040   5.876   3.322
87157W        W46902  27.587  37.447   0.343
87158W        W46903  20.184  41.017  11.068
87159W        W46904  12.333  19.044   4.215
87160W        W46905   0.369  42.029  10.113
87161W        W46906   5.271  33.580  10.544
87162W        W46907   8.848  22.115   0.901
87163W        W46908  20.733  11.806  11.945
87164W        W46909  30.027  13.257   3.663
87165W        W46910  35.966  29.515   2.411
87166W        W46911   0.302   3.317  10.960
87167W        W46912  19.087   8.889   0.964
87168W        W46913  23.705  10.294   1.929
87169W        W46914  43.510  38.896  11.974
87170W        W46915  39.883  33.621  13.999
87171W        W46916  12.262  44.859   2.401
87172W        W46917  12.228  14.743   0.478
87173W        W46918  18.785  26.493  14.954
87174W        W46919  39.472  24.679  10.476
87175W        W46920   3.428  38.853   4.716
87176W        W46921  17.130   2.805  14.471
87177W        W46922  28.029   6.300  14.935
87178W        W46923  18.117   3.797   0.376
87179W        W46924  38.529   2.368  12.346
87180W        W46925  30.620  19.142  11.999
87181W        W46926   2.249   7.835  14.341
87182W        W46927  25.098   1.331   2.344
87183W        W46928  40.445  30.421  14.313
87184W        W46929  20.042  26.538  12.344
87185W        W46930  43.327  31.524  13.865
87186W        W46931  25.012  42.352   1.830
87187W        W46932   5.818  36.441  13.886
87188W        W46933  26.589  40.465   3.756
87189W        W46934   4.343  43.960  13.854
87190W        W46935  26.524  33.049  11.929
87191W        W46936   1.948  44.936  14.759
87192W        W46937  24.654   4.402   1.744
87193W        W46938  35.573  15.183  11.455
87194W        W46939  19.579   3.430   2.336
87195W        W46940  36.547  15.123  14.430
87196W        W46941  25.085  25.071  14.808
87197W        W46942  44.495   9.308  12.977
87198W        W46943  38.851  11.649   0.327
87199W        W46944  23.034  13.284   5.607
87200W        W46945  38.339  25.161  11.030
87201W        W46946  25.579  34.554  13.044
87202W        W46947  19.569  28.943  12.900
87203W        W46948  10.275  21.673   3.736
87204W        W46949  16.591  25.647  13.368
87205W        W46950  18.191   5.306   1.251
87206W        W46951  10.232  28.527   2.853
87207W        W46952  44.440  15.709  12.918
87208W        W46953  40.393  13.216  10.499
87209W        W46954  30.637   8.838   0.327
87210W        W46955  32.916  13.265  12.498
87211W        W46956  17.151  10.145  14.370
87212W        W46957   8.818  16.300  10.629
87213W        W46958  34.867  30.036   0.329
87214W        W46959  16.710  38.464  14.786
87215W        W46960   7.825  26.483  14.032
87216W        W46961   7.860  39.984   3.177
87217W        W46962  43.360  22.692  13.425
87218W        W46963  41.356  32.045  12.983
87219W        W46964  36.523   9.239  14.495
87220W        W46965  41.527  42.831  12.841
87221W        W46966   8.239  34.932  10.552
87222W        W46967  36.016   6.823  14.020
87223W        W46968  30.537   9.767  10.490
87224W        W46969  18.289  10.249  12.922
87225W        W46970  23.115  39.932  14.821
87226W        W46971  37.413  20.738  12.577
87227W        W46972  23.013  38.852   2.788
87228W        W46973  35.920  27.116  14.406
87229W        W46974  41.317  24.549  11.054
87230W        W46975   9.682   4.407   3.637
87231W        W46976  20.171  14.708   4.702
87232W        W46977   0.422  27.595   2.819
87233W        W46978  11.767  29.608   4.677
87234W        W46979  22.511  12.203  14.386
87235W        W46980   0.340  36.539  12.897
87236W        W46981  27.093  44.465   0.397
87237W        W46982  20.545  12.313   3.268
87238W        W46983  23.699  32.967  10.893
87239W        W46984  36.514   6.716  13.452
87240W        W46985  37.347   5.846   2.179
87241W        W46986   5.871   4.911  12.069
87242W        W46987  27.093  12.118   4.209
87243W        W46988  25.533  20.210  12.912
87244W        W46989  15.754  12.346  11.419
87245W        W46990  15.687  23.701   4.687
87246W        W46991  26.019  32.904  14.381
87247W        W46992   5.398  33.099  13.060
87248W        W46993  27.155  30.939   9.604
87249W        W46994  25.155   3.715   5.205
87250W        W46995  39.908  27.122   1.876
87251W        W46996  34.554  30.431   1.708
87252W        W46997  36.899  41.486   2.220
87253W        W46998  17.680  29.000   2.341
87254W        W46999   8.339  23.047   0.248
87255W        W47000  16.604   0.764  11.982
87256W        W47001  33.033  41.964  14.984
87257W        W47002   0.304  18.567   2.319
87258W        W47003  20.180  24.521   3.806
87259W        W47004   5.736  22.656   4.757
87260W        W47005  38.980   5.863  10.585
87261W        W47006  19.569  37.408   2.416
87262W        W47007  34.510  13.319  10.633
87263W        W47008  33.422  20.138  13.903
87264W        W47009  18.216  36.025  11.575
87265W        W47010  23.570  29.176  13.513
87266W        W47011  15.807  40.828   2.210
87267W        W47012  31.547  17.595  14.357
87268W        W47013   7.240   9.298   1.293
87269W        W47014  23.588  13.755   3.381
87270W        W47015  13.244  30.967  13.462
87271W        W47016  39.396  18.117   4.793
87272W        W47017   0.257  42.937   0.733
87273W        W47018  20.622  17.734   1.694
87274W        W47019  22.523  39.812   3.704
87275W        W47020  26.525  36.010   4.604
87276W        W47021  42.380   8.331   3.632
87277W        W47022  23.526  29.077  11.027
87278W        W47023   0.443  34.107   4.726
87279W        W47024  34.101  10.382   3.639
87280W        W47025   8.899  27.643  14.397
87281W        W47026  34.981  41.934  14.431
87282W        W47027  17.616  15.207   3.245
87283W        W47028  30.148  34.098  13.821
87284W        W47029  25.041  28.461   1.233
87285W        W47030   4.386  36.932  14.881
87286W        W47031  40.889  35.015  14.876
87287W        W47032  22.567  24.098  10.460
87288W        W47033  29.018  26.571   1.843
87289W        W47034  10.792  27.149   0.472
87290W        W47035  43.826  28.954   2.902
87291W        W47036   7.335   3.367   1.384
87292W        W47037  42.841  16.303   4.620
87293W        W47038  20.759  31.536   2.830
87294W        W47039  14.264  28.530  11.480
87295W        W47040   0.389  19.150   9.453
87296W        W47041  36.951   0.307   4.709
87297W        W47042  14.778   1.933  11.582
87298W        W47043  23.082  35.599  10.939
87299W        W47044  19.619  44.283  14.479
87300W        W47045  37.378  21.570   2.833
87301W        W47046   4.907  37.534  10.511
87302W        W47047  27.557  28.474   2.673
87303W        W47048  44.779  19.619   2.341
87304W        W47049  39.528  40.045  12.078
87305W        W47050  10.260  22.186  13.534
87306W        W47051  28.180   0.452   0.794
87307W        W47052  32.967  43.399  10.438
87308W        W47053  18.178  44.809  14.846
87309W        W47054  29.035  11.332  14.854
87310W        W47055  30.909  36.413   1.234
87311W        W47056  17.250  38.996   5.096
87312W        W47057  36.360   1.961  14.901
87313W        W47058  40.855   5.358   2.371
87314W        W47059  42.777  30.084  10.999
87315W        W47060   3.358   6.404  14.395
87316W        W47061  17.796  23.725   2.862
87317W        W47062  19.079  10.275   4.309
87318W        W47063  28.961  12.819  14.470
87319W        W47064  43.305  38.033   2.831
87320W        W47065  25.161  21.612  13.892
87321W        W47066  41.495  21.658   1.356
87322W        W47067  21.568  20.598  14.278
87323W        W47068  25.120  17.685   0.373
87324W        W47069  23.594  31.089  10.557
87325W        W47070  38.408  38.511   0.344
87326W        W47071  33.927  29.571  13.982
87327W        W47072   2.808   4.763  10.497
87328W        W47073  36.402  10.706  12.086
87329W        W47074  25.073   2.284  13.450
87330W        W47075  38.336   6.318   1.787
87331W        W47076  27.458  20.120   2.262
87332W        W47077  42.330   5.342   4.251
87333W        W47078  42.365  36.090   3.744
87334W        W47079  38.847  24.093  13.957
87335W        W47080  23.103  44.307  14.005
87336W        W47081  13.224  25.142  11.514
87337W        W47082   3.776  12.841  11.464
87338W        W47083  32.567  17.676  11.581
87339W        W47084  22.710  23.077   4.619
87340W        W47085  29.930  11.341  14.855
87341W        W47086   3.223   0.454  12.998
87342W        W47087  13.279  30.416   0.318
87343W        W47088  17.141  21.128  13.419
87344W        W47089  27.517  33.066  12.837
87345W        W47090  26.055  37.419   2.405
87346W        W47091   4.311  29.493  14.999
87347W        W47092  39.991  17.217   4.811
87348W        W47093  26.012  39.411  14.799
87349W        W47094  16.629  17.216  13.896
87350W        W47095  18.627  25.096   4.630
87351W        W47096   7.670  22.104  14.355
87352W        W47097  30.911  29.527  10.895
87353W        W47098  36.953  19.243   0.938
87354W        W47099  24.550  12.651  12.455
87355W        W47100  12.685   2.438   1.765
87356W        W47101  19.556  36.417  14.297
87357W        W47102  10.766  17.705  14.377
87358W        W47103  40.812  12.126  13.851
87359W        W47104  27.086  14.325  14.500
87360W        W47105  11.131  16.639  12.073
87361W        W47106  42.518   2.318   3.349
87362W        W47107  37.431  26.194  12.540
87363W        W47108   4.907  40.825  11.944
87364W        W47109  14.734  10.221  11.984
87365W        W47110  43.427   9.233  14.949
87366W        W47111  16.761  35.480  12.889
87367W        W47112  35.523  15.207  13.309
87368W        W47113   3.219  10.828   0.931
87369W        W47114  23.489  39.859  13.501
87370W        W47115   3.750  39.952   1.357
87371W        W47116  11.276  33.495   2.691
87372W        W47117  14.261  22.169   1.912
87373W        W47118  37.427  31.646   0.376
87374W        W47119  15.123  34.083   0.316
87375W        W47120   5.837  11.345   0.465
87376W        W47121  26.573  14.723  10.932
87377W        W47122  28.155  16.714  14.792
87378W        W47123  33.079  20.094  11.043
87379W        W47124  43.406  25.565   2.900
87380W        W47125  42.339  27.191  12.869
87381W        W47126  30.064  23.080  12.832
87382W        W47127  30.105  33.426  14.430
87383W        W47128  34.592   2.394   4.328
87384W        W47129  39.947  17.693   3.833
87385W        W47130  12.640  23.505   1.814
87386W        W47131   3.791  26.657  10.531
87387W        W47132  24.536  28.089   3.761
87388W        W47133  28.442  20.558   1.245
87389W        W47134  25.622   7.896  12.031
87390W        W47135  30.519  34.890   0.427
87391W        W47136   7.264  36.042   3.381
87392W        W47137   8.320  35.925  14.326
87393W        W47138  18.690  32.538  10.443
87394W        W47139  16.202  39.017  10.431
87395W        W47140  44.897  36.557   2.221
87396W        W47141   6.786  12.332   4.167
87397W        W47142  30.919   7.417   4.273
87398W        W47143   6.823  23.057   2.711
87399W        W47144  42.301  38.861  13.011
87400W        W47145  40.897  18.635   1.320
87401W        W47146  36.474  10.158  14.446
87402W        W47147   0.365  20.143   0.762
87403W        W47148  17.151  32.481   2.271
87404W        W47149   6.846  11.324   1.913
87405W        W47150  16.592   6.224   0.427
87406W        W47151  13.286  42.006  12.912
87407W        W47152   7.241   3.949  10.491
87408W        W47153  18.206  39.032  10.641
87409W        W47154  35.560  17.247   1.387
87410W        W47155  22.063  32.557  14.892
87411W        W47156  14.098  37.380  13.841
87412W        W47157  30.934  31.608   1.379
87413W        W47158  33.039   1.363   4.292
87414W        W47159  16.195  16.627   3.222
87415W        W47160  40.309   2.311  12.416
87416W        W47161  41.335  42.911  11.518
87417W        W47162   2.864  35.416   1.251
87418W        W47163  13.283  28.180   5.142
87419W        W47164  12.214  27.012  12.971
87420W        W47165   5.435  43.287  10.475
87421W        W47166  11.632  24.124   2.817
87422W        W47167  18.594  37.965   1.261
87423W        W47168  20.266  23.007   4.251
87424W        W47169  18.284  32.397  14.906
87425W        W47170  15.620  38.872  12.954
87426W        W47171  34.973  28.477  13.883
87427W        W47172  41.515  12.342  12.367
87428W        W47173  42.311  33.999  12.864
87429W        W47174  27.508   4.298   3.635
87430W        W47175  15.690  37.060   2.330
87431W        W47176  31.131  34.958   5.128
87432W        W47177  26.013   6.798   1.748
87433W        W47178  16.091  39.870   1.418
87434W        W47179  33.992   4.716  11.508
87435W        W47180   2.439  16.721  14.286
87436W        W47181  14.771  20.235  11.542
87437W        W47182  39.844  36.903  13.061
87438W        W47183  20.594  32.888  12.861
87439W        W47184  20.667  26.596   0.882
87440W        W47185  13.614  44.314   0.366
87441W        W47186  43.312   9.186  10.518
87442W        W47187  12.826  11.360  11.085
87443W        W47188  39.042  16.173  11.459
87444W        W47189  29.577   0.492   0.908
87445W        W47190  20.039  14.697   2.407
87446W        W47191  32.946   9.714  14.507
87447W        W47192  14.835  14.812  12.404
87448W        W47193   9.322  32.397  11.981
87449W        W47194  27.561  33.887  10.899
87450W        W47195  21.168  12.209  13.990
87451W        W47196  15.326   1.950  12.863
87452W        W47197   0.286  25.999  11.406
87453W        W47198   8.866  29.041  11.034
87454W        W47199  24.023  32.629  10.921
87455W        W47200  37.403  13.175  12.872
87456W        W47201  42.437   2.254   1.334
87457W        W47202  43.969   9.671   0.385
87458W        W47203  15.120   0.753  12.523
87459W        W47204  14.683  28.495   4.297
87460W        W47205  39.447  39.870   1.379
87461W        W47206  36.576  40.548   0.412
87462W        W47207  39.046  28.489   1.934
87463W        W47208  30.454   3.371   4.669
87464W        W47209  26.696  12.677   1.318
87465W        W47210  37.853  14.607  11.029
87466W        W47211   8.274  17.245   3.668
87467W        W47212  37.928  12.632   2.302
87468W        W47213  36.098   4.706  14.359
87469W        W47214  40.977  27.941   0.889
87470W        W47215   0.336   2.466   3.178
87471W        W47216  29.647  23.215  13.457
87472W        W47217  23.107  43.965  13.967
87473W        W47218  32.399  37.452  13.822
87474W        W47219   4.918  37.391   2.866
87475W        W47220   9.664  34.387  10.570
87476W        W47221   6.215  21.025   2.731
87477W        W47222  19.209   8.684  10.982
87478W        W47223   9.785  31.514  12.955
87479W        W47224  11.770  24.653  11.910
87480W        W47225  35.931   2.781   4.124
87481W        W47226   8.660  24.702   3.715
87482W        W47227  25.640  30.636   4.717
87483W        W47228  25.095   4.719  14.821
87484W        W47229   8.292   2.892  13.514
87485W        W47230  41.514  14.330  14.887
87486W        W47231  28.608  42.951   2.880
87487W        W47232  26.542   1.413   1.752
87488W        W47233  27.678  25.646  10.631
87489W        W47234  29.157  19.236  12.844
87490W        W47235  24.610   0.802  12.851
87491W        W47236  41.477  41.903  14.901
87492W        W47237   6.218  11.286  12.929
87493W        W47238  21.633  25.977   3.159
87494W        W47239   3.782  34.952   4.234
87495W        W47240   7.278  37.386  13.511
87496W        W47241   9.264  42.887  14.459
87497W        W47242  18.241   1.369   2.775
87498W        W47243  44.983  15.325   3.349
87499W        W47244  19.165  31.422   4.754
87500W        W47245  22.546  42.381   0.843
87501W        W47246  12.339  24.097   1.886
87502W        W47247  25.126   3.904   4.172
87503W        W47248  37.556  13.105  11.913
87504W        W47249  42.297  23.609   3.216
87505W        W47250   9.377  13.115  10.939
87506W        W47251  39.965   5.366   1.698
87507W        W47252  39.317  24.034  11.062
87508W        W47253  20.081  30.970   0.922
87509W        W47254  34.051   3.858   0.858
87510W        W47255  22.129  43.411   4.814
87511W        W47256  12.198  10.686   1.427
87512W        W47257   2.375  22.695  11.528
87513W        W47258  36.562  13.619   0.830
87514W        W47259  27.004  37.506  13.847
87515W        W47260   1.381  20.132  12.094
87516W        W47261  41.840  10.189  11.427
87517W        W47262   5.865  31.143   0.891
87518W        W47263  35.512   3.331   4.282
87519W        W47264   5.205  44.910   2.178
87520W        W47265  24.985   6.897  10.985
87521W        W47266  35.434  38.991  12.535
87522W        W47267  18.186  12.817   3.148
87523W        W47268  19.111  41.011   3.376
87524W        W47269  29.011   3.749  12.063
87525W        W47270   6.255  36.440   2.302
87526W        W47271  21.722  39.475  14.362
87527W        W47272  29.133   4.854  14.865
87528W        W47273  42.880  40.860   1.396
87529W        W47274   3.878   2.936   1.838
87530W        W47275  31.608  22.669   0.806
87531W        W47276   3.833  25.964   4.253
87532W        W47277   6.358  26.567   3.337
87533W        W47278   0.750  26.544   1.855
87534W        W47279   5.258  34.382  12.513
87535W        W47280   7.884  20.105  13.439
87536W        W47281  39.049  25.132   0.919
87537W        W47282  40.880  19.744  11.533
87538W        W47283   9.698  30.627  10.503
87539W        W47284   0.958  40.864   3.778
87540W        W47285  29.598  42.507  11.550
87541W        W47286  24.672   5.867  13.311
87542W        W47287   8.171  23.121  14.419
87543W        W47288  32.896   4.219   1.216
87544W        W47289   7.369   8.262  13.906
87545W        W47290   5.787   1.297   1.764
87546W        W47291  13.141  17.071  11.488
87547W        W47292  17.115  43.336   0.751
87548W        W47293   7.892   5.789  12.516
87549W        W47294  33.493  22.632  13.006
87550W        W47295  31.556  41.928  13.805
87551W        W47296  30.600   0.980  14.848
87552W        W47297  13.633  16.642   4.801
87553W        W47298  12.659   4.742  11.423
87554W        W47299  26.011  19.544  13.489
87555W        W47300  26.605   4.889   2.231
87556W        W47301  16.569  35.988  12.052
87557W        W47302   5.852  14.199   4.285
87558W        W47303  18.600   9.813   0.766
87559W        W47304  13.214  27.446  10.527
87560W        W47305  38.030  32.554   2.872
87561W        W47306  30.097  32.998  14.484
87562W        W47307  10.159  43.297  14.889
87563W        W47308   9.808  14.199   3.845
87564W        W47309  12.131  22.718   0.743
87565W        W47310  23.677  18.199  12.469
87566W        W47311  44.986  23.587   3.845
87567W        W47312   3.409  24.630  14.023
87568W        W47313  20.678   8.216   2.832
87569W        W47314  33.127  37.419   2.693
87570W        W47315   6.895  37.491  10.450
87571W        W47316  32.974   4.813  13.388
87572W        W47317  13.164   0.903  14.296
87573W        W47318  21.116   8.188  10.474
87574W        W47319   7.334  33.993  14.923
87575W        W47320  24.208  33.490  13.386
87576W        W47321   3.342  35.892   4.334
87577W        W47322  39.465  24.222   2.338
87578W        W47323  23.623  11.249   5.194
87579W        W47324   1.317  24.703  14.956
87580W        W47325  28.958   9.247  14.385
87581W        W47326  32.581  25.495   3.783
87582W        W47327  21.674  37.342  11.873
87583W        W47328  14.328  36.052  13.307
87584W        W47329  28.529  39.359  14.829
87585W        W47330  20.563   8.321   3.250
87586W        W47331  17.673  23.180  13.904
87587W        W47332   3.315  42.825   4.128
87588W        W47333  43.884  44.904  12.924
87589W        W47334  22.238  30.644   3.330
87590W        W47335  22.704  43.456   0.892
87591W        W47336   0.948  40.877   1.434
87592W        W47337  15.274  36.036  14.504
87593W        W47338   0.434  31.992  14.509
87594W        W47339  23.227  22.239   3.336
87595W        W47340   7.828   7.723  10.637
87596W        W47341   9.643   1.381   0.354
87597W        W47342  19.045  32.391  13.475
87598W        W47343  44.005  32.931  12.829
87599W        W47344  21.687   8.813   1.870
87600W        W47345   0.409   7.788  11.375
87601W        W47346  32.393   4.857  13.911
87602W        W47347  23.204  26.964   0.841
87603W        W47348   9.236  23.588   5.134
87604W        W47349   9.860  43.946  10.540
87605W        W47350  35.495  18.707   3.217
87606W        W47351  10.202  35.373   5.261
87607W        W47352   7.883   1.745   1.223
87608W        W47353  29.648  26.998  11.545
87609W        W47354  29.515  37.974   0.873
87610W        W47355  43.366  23.688  11.918
87611W        W47356  21.253   1.957  13.537
87612W        W47357  30.003  28.611   2.294
87613W        W47358  14.303  21.182   2.761
87614W        W47359  14.699   3.837  14.980
87615W        W47360  41.839   2.923  12.420
87616W        W47361  23.637   8.344  11.563
87617W        W47362  13.721  35.568   3.175
87618W        W47363  12.154  33.036   0.965
87619W        W47364  20.050   4.371  13.486
87620W        W47365  26.130   9.748   2.284
87621W        W47366   3.381  35.959   0.391
87622W        W47367  30.430  11.310  11.468
87623W        W47368  32.476  16.280   1.758
87624W        W47369   4.830  27.071  13.423
87625W        W47370   0.920  10.686  11.936
87626W        W47371  30.518  35.916  13.997
87627W        W47372  37.883  42.928   2.226
87628W        W47373  20.552  44.947   4.640
87629W        W47374   1.870   5.392  11.943
87630W        W47375  27.096  39.002   0.366
87631W        W47376  19.735  37.859   0.782
87632W        W47377   2.338  11.722   1.330
87633W        W47378  37.409   3.223  14.829
87634W        W47379  27.995  30.598  14.410
87635W        W47380   0.828  22.628   0.754
87636W        W47381  10.170  38.893  12.978
87637W        W47382  40.412  33.436  12.057
87638W        W47383  40.526  20.536   0.363
87639W        W47384   3.236  20.556   2.332
87640W        W47385  18.735  35.893   3.150
87641W        W47386  38.887  27.142   1.807
87642W        W47387   4.304  17.702  10.968
87643W        W47388   1.962  12.748   0.313
87644W        W47389  19.073  25.149   2.807
87645W        W47390  16.585  37.426   2.732
87646W        W47391  23.024  34.398   0.920
87647W        W47392  43.910  11.827  14.441
87648W        W47393  33.065  32.525  14.022
87649W        W47394   0.909  23.584   2.886
87650W        W47395  43.991  35.457  14.950
87651W        W47396  42.879  42.846  14.394
87652W        W47397  42.310  29.023  10.462
87653W        W47398   9.315  20.254   2.754
87654W        W47399  16.233  15.583   0.342
87655W        W47400  29.652  13.349   1.798
87656W        W47401  25.628  42.422  12.994
87657W        W47402  22.133  33.951   2.381
87658W        W47403  15.103  32.976   3.278
87659W        W47404  19.537  38.835  13.909
87660W        W47405   1.280   6.684  14.002
87661W        W47406  18.247  11.333  13.847
87662W        W47407  10.146  13.156   3.214
87663W        W47408  19.700  19.205  13.794
87664W        W47409   9.749  37.909  12.032
87665W        W47410  15.814   1.937   4.119
87666W        W47411  22.654  41.490   4.310
87667W        W47412  23.663  39.972   0.793
87668W        W47413  35.945  32.929   2.747
87669W        W47414  18.716   1.252  11.935
87670W        W47415  30.080  24.112  13.895
87671W        W47416  24.157  14.709  14.888
87672W        W47417  37.539  12.178  14.405
87673W        W47418  44.941  30.929   4.262
87674W        W47419   9.812  31.624  12.505
87675W        W47420  11.631  29.445  13.795
87676W        W47421  12.815  37.498   3.846
87677W        W47422  29.554  13.694   3.192
87678W        W47423  35.577  40.433  10.420
87679W        W47424  21.170  39.860  10.622
87680W        W47425  40.852  34.944   3.831
87681W        W47426   4.335   1.288  14.406
87682W        W47427  32.082  29.609  14.982
87683W        W47428  23.518  29.960   2.195
87684W        W47429  25.031  14.160  13.979
87685W        W47430  19.102  31.120   0.455
87686W        W47431  44.388  19.703  13.405
87687W        W47432   8.726  39.457   3.822
87688W        W47433  42.973   6.911  13.362
87689W        W47434  18.147  39.064   0.263
87690W        W47435  26.636   3.330   1.772
87691W        W47436  30.012   8.378  11.455
87692W        W47437  21.239   1.285  12.492
87693W        W47438  34.997   8.724  11.879
87694W        W47439   7.385  10.862  11.098
87695W        W47440  28.464  11.219  11.965
87696W        W47441   9.817  17.674  11.026
87697W        W47442  37.010  27.026  13.408
87698W        W47443   3.952  39.984   1.702
87699W        W47444  33.083  35.083  10.405
87700W        W47445  19.632  16.080  13.479
87701W        W47446   1.974  44.926   3.707
87702W        W47447  40.401  19.124  11.435
87703W        W47448  23.043  20.251  11.009
87704W        W47449   6.844   6.349  12.910
87705W        W47450  18.070  12.275   2.189
87706W        W47451  27.466  22.523   2.788
87707W        W47452  16.569  22.653  11.597
87708W        W47453  31.416  19.654   2.311
87709W        W47454  29.572   0.432   3.163
87710W        W47455  35.597  34.613  13.320
87711W        W47456  38.916  10.314  10.118
87712W        W47457  34.988  18.777   0.774
87713W        W47458  33.897  13.667   1.277
87714W        W47459  17.576   6.835  10.556
87715W        W47460  13.658  10.273   3.219
87716W        W47461   3.785  31.416  14.976
87717W        W47462   6.703   8.181   3.840
87718W        W47463  30.500  15.138   0.421
87719W        W47464  42.356  36.394  10.432
87720W        W47465  35.402  26.649   0.765
87721W        W47466  22.533   2.906  10.135
87722W        W47467  13.799  12.634   1.319
87723W        W47468  15.643  41.858   0.758
87724W        W47469  35.598   8.732  12.973
87725W        W47470   8.316   0.928   4.182
87726W        W47471  34.557  22.588  11.880
87727W        W47472  36.052   6.318   0.816
87728W        W47473  24.538   6.428  13.859
87729W        W47474   7.701   4.918   2.376
87730W        W47475  36.076  19.117   1.265
87731W        W47476   2.887  35.464  13.324
87732W        W47477  43.270  17.152  12.876
87733W        W47478  16.741  27.630  10.631
87734W        W47479  31.034  22.213   2.861
87735W        W47480   6.337  30.096   4.660
87736W        W47481  36.054   8.866   4.733
87737W        W47482  31.465  37.876  12.579
87738W        W47483  30.633   6.337   1.305
87739W        W47484   1.477   6.679  12.077
87740W        W47485  19.637   9.662  12.992
87741W        W47486  23.538  19.173  13.335
87742W        W47487  12.741  11.727  11.373
87743W        W47488  19.260   7.807  11.404
87744W        W47489  25.600  44.494   3.675
87745W        W47490  32.966  21.164   2.231
87746W        W47491  17.280  28.538   9.982
87747W        W47492  41.986  16.659  13.927
87748W        W47493   6.324   8.244  14.782
87749W        W47494  32.003  18.741  12.340
87750W        W47495  35.086   2.356  14.885
87751W        W47496  26.181  24.688   4.272
87752W        W47497  18.636  30.115  11.972
87753W        W47498  27.068  33.013   9.658
87754W        W47499   4.222  10.215  14.366
87755W        W47500  15.642   8.404  12.885
87756W        W47501   4.284   6.812  12.091
87757W        W47502  35.398  44.003   0.291
87758W        W47503  23.103   5.752  12.391
87759W        W47504   3.742  23.621  13.020
87760W        W47505  33.484  34.044  14.320
87761W        W47506  12.250  21.658   0.376
87762W        W47507  24.653  22.028   1.893
87763W        W47508  11.262   3.900  12.881
87764W        W47509  20.113  18.687   2.679
87765W        W47510   6.349  35.534  10.909
87766W        W47511  29.974  38.898   0.259
87767W        W47512  17.746  41.847  13.542
87768W        W47513  26.699  34.063  13.534
87769W        W47514  16.121  18.239   4.752
87770W        W47515   9.768   7.873  13.363
87771W        W47516  27.594   7.327  14.509
87772W        W47517  28.646   7.680  11.515
87773W        W47518  40.887  37.495   1.308
87774W        W47519  18.210  35.042  12.864
87775W        W47520   7.267  11.148  11.937
87776W        W47521  23.520  24.135   3.239
87777W        W47522  40.944  29.125   3.695
87778W        W47523  20.067  22.704  13.003
87779W        W47524  11.221   3.297   4.242
87780W        W47525  28.986  13.204  12.500
87781W        W47526  33.060  10.364   2.795
87782W        W47527  16.303   5.744   0.433
87783W        W47528   6.811   2.867  12.059
87784W        W47529  24.689  18.090  11.404
87785W        W47530  12.295   8.391   4.621
87786W        W47531  43.411  10.785  13.493
87787W        W47532  33.445  14.250   2.244
87788W        W47533  20.756  15.136   3.217
87789W        W47534  24.538  42.428   1.739
87790W        W47535  11.176   4.244   3.804
87791W        W47536  24.577   0.440  13.421
87792W        W47537   1.298  32.914  10.914
87793W        W47538  13.109   0.466   4.117
87794W        W47539  24.132   0.319  10.948
87795W        W47540  26.037   5.283   2.382
87796W        W47541  30.968  19.726   2.226
87797W        W47542  22.097  14.751  11.506
87798W        W47543  15.181  21.086   4.829
87799W        W47544  15.127  31.134  14.925
87800W        W47545  10.310  20.085   2.881
87801W        W47546   9.255  41.824  14.942
87802W        W47547   4.350  28.481  11.437
87803W        W47548  39.954  19.223  14.904
87804W        W47549  29.939  23.536  14.893
87805W        W47550  21.219   1.387  11.091
87806W        W47551  43.469  43.968   2.676
87807W        W47552  28.155  40.910  12.509
87808W        W47553   5.797   2.428   4.740
87809W        W47554  19.171  21.255   0.463
87810W        W47555  13.234  18.569  13.345
87811W        W47556   5.326  18.079   2.784
87812W        W47557  10.363  37.391  13.462
87813W        W47558  32.121  12.296   2.261
87814W        W47559  42.945   1.467  11.881
87815W        W47560  39.401   5.228  14.461
87816W        W47561  27.090  23.170   1.385
87817W        W47562  17.141  24.661   3.255
87818W        W47563  16.098  35.865   2.873
87819W        W47564  40.313  28.159  11.467
87820W        W47565  15.221  37.360  11.415
87821W        W47566  27.126  23.987   1.725
87822W        W47567  27.096  18.212   4.804
87823W        W47568   2.269  42.789   1.367
87824W        W47569  38.973  31.959  10.129
87825W        W47570  30.654  39.904   2.663
87826W        W47571  10.303  44.975   2.689
87827W        W47572  31.555  28.540  13.508
87828W        W47573  32.098  12.808  10.463
87829W        W47574  27.011  41.449   4.834
87830W        W47575  11.277  29.589   4.622
87831W        W47576   1.784  13.339  12.453
87832W        W47577  44.334   9.177  13.977
87833W        W47578  17.711   4.248  14.288
87834W        W47579  18.659  18.662   2.846
87835W        W47580   1.790   9.179   5.145
87836W        W47581   4.880  32.017   1.831
87837W        W47582   0.383  10.748  13.488
87838W        W47583  44.978   0.976   0.900
87839W        W47584  18.678  39.921  11.413
87840W        W47585  15.102  33.599  11.003
87841W        W47586  34.430  15.126  13.996
87842W        W47587  25.963  41.884   2.820
87843W        W47588  19.613   8.355  14.402
87844W        W47589  38.461  21.218  10.415
87845W        W47590  27.046  22.671  14.948
87846W        W47591  12.665  39.424   0.818
87847W        W47592  43.504  44.470  14.286
87848W        W47593  11.193  21.560   1.420
87849W        W47594   8.268  26.976   2.331
87850W        W47595  28.518   0.268   3.153
87851W        W47596  28.580  33.925  12.914
87852W        W47597   2.789  27.448   2.408
87853W        W47598  37.085  39.415   2.808
87854W        W47599  30.432   9.251  10.065
87855W        W47600  34.478  28.981  12.404
87856W        W47601  17.283  38.030  13.032
87857W        W47602  11.347  13.644   2.680
87858W        W47603  40.543  10.218  12.913
87859W        W47604  11.639  41.970   2.898
87860W        W47605   8.243   8.165  12.984
87861W        W47606   2.754  28.526   1.898
87862W        W47607  13.277  13.236   4.245
87863W        W47608  16.613  28.537  13.862
87864W        W47609  16.798  35.478  12.408
87865W        W47610  14.137  16.210  10.544
87866W        W47611   3.795   9.645   2.293
87867W        W47612  34.064   4.830   3.160
87868W        W47613  33.921  23.035  10.921
87869W        W47614  31.072  25.487  14.818
87870W        W47615  27.042  14.682   4.835
87871W        W47616  22.162  20.614  10.422
87872W        W47617  26.989  36.072  11.993
87873W        W47618  24.658  22.104  12.535
87874W        W47619  14.162  42.346  10.982
87875W        W47620  23.144  11.133   1.449
87876W        W47621  44.871  40.349   1.837
87877W        W47622  23.069  25.576  10.482
87878W        W47623  38.976  33.382  12.834
87879W        W47624  23.240  36.379   3.763
87880W        W47625   1.271  17.772  12.092
87881W        W47626  29.455   9.350   4.153
87882W        W47627  19.069  16.793  11.571
87883W        W47628  39.994  44.276   2.667
87884W        W47629   9.246  17.560   2.724
87885W        W47630  44.410  11.152   3.165
87886W        W47631  41.474  26.622   4.828
87887W        W47632  34.533  25.670  14.387
87888W        W47633  38.929  30.604  14.955
87889W        W47634  41.868  43.328   3.314
87890W        W47635  13.738  22.072  14.934
87891W        W47636   7.784   8.173   3.387
87892W        W47637  35.960  26.187   4.235
87893W        W47638  38.867   7.191  13.881
87894W        W47639  21.257  21.095   2.874
87895W        W47640   8.826  36.982   2.805
87896W        W47641   3.805  33.523   0.359
87897W        W47642  11.626  15.698  10.406
87898W        W47643  33.454  16.709  10.643
87899W        W47644   4.773   5.733   1.697
87900W        W47645  18.148  14.180  11.990
87901W        W47646   5.320  25.983  11.964
87902W        W47647  31.558  38.504   3.345
87903W        W47648  29.153  12.680  13.396
87904W        W47649   5.884  26.045  12.415
87905W        W47650  14.283  43.461  14.835
87906W        W47651  14.685   4.713   4.782
87907W        W47652  21.118  20.692   0.267
87908W        W47653  18.674  24.984  10.115
87909W        W47654  20.569  10.661  13.526
87910W        W47655  41.799  31.519   2.834
87911W        W47656  19.132  16.078  12.886
87912W        W47657  11.226   5.854   3.673
87913W        W47658   8.844  35.984  11.534
87914W        W47659  41.343   4.880   0.922
87915W        W47660  34.535   0.773   1.751
87916W        W47661  30.946   9.707   1.864
87917W        W47662  19.124  25.092  10.990
87918W        W47663  38.551  43.909   3.785
87919W        W47664  29.663  24.501   1.290
87920W        W47665  18.615  38.373   4.651
87921W        W47666  25.017  33.609   2.706
87922W        W47667  21.025  42.399  12.460
87923W        W47668   5.374  35.017  10.438
87924W        W47669  10.303  22.247   2.828
87925W        W47670   9.219  21.220   5.321
87926W        W47671   3.869  26.067   0.244
87927W        W47672  14.764  30.459   2.826
87928W        W47673  10.867  37.557   4.186
87929W        W47674   1.427  28.449   1.397
87930W        W47675   1.306   0.316   2.871
87931W        W47676   4.261  35.065  11.973
87932W        W47677  10.716  34.482   3.828
87933W        W47678  14.103  36.454   2.876
87934W        W47679  16.313  40.435   2.352
87935W        W47680  43.493  34.466   1.879
87936W        W47681  29.428  22.204  12.436
87937W        W47682  30.576  24.516   2.274
87938W        W47683  38.046  27.074   2.763
87939W        W47684  15.136  12.698  13.363
87940W        W47685  34.460  44.284   4.789
87941W        W47686  35.483  35.866  13.980
87942W        W47687  35.405  21.670   2.285
87943W        W47688  15.798   1.381   1.371
87944W        W47689  26.609  31.515   1.733
87945W        W47690  19.040  36.003  13.917
87946W        W47691  34.922  13.718   3.826
87947W        W47692  16.184  42.890  13.402
87948W        W47693  21.681   1.929   2.770
87949W        W47694  35.461  39.531   2.688
87950W        W47695  40.811  29.543  10.462
87951W        W47696  15.821   0.296  13.538
87952W        W47697  19.699   6.413  14.804
87953W        W47698  32.475  42.866  11.607
87954W        W47699  17.292  19.678   3.728
87955W        W47700  13.698  44.970  11.597
87956W        W47701  27.593  20.678   3.781
87957W        W47702  23.561  35.478   0.831
87958W        W47703  19.627  28.562   1.314
87959W        W47704  39.398  26.072   2.406
87960W        W47705   4.449   4.752   4.682
87961W        W47706  24.090  16.660  10.928
87962W        W47707  39.502   7.366   1.698
87963W        W47708  39.049  22.172  12.913
87964W        W47709   3.953  37.886   3.786
87965W        W47710  22.698  22.617   4.778
87966W        W47711  36.378  21.647  10.133
87967W        W47712  38.837  11.863   4.314
87968W        W47713  30.008   1.826   2.850
87969W        W47714  44.455   0.271  13.920
87970W        W47715  44.288  15.704  12.054
87971W        W47716  36.011  25.501   2.881
87972W        W47717  11.843  41.452   3.236
87973W        W47718  38.494  32.636  13.381
87974W        W47719   1.777   8.246  11.391
87975W        W47720  31.113  15.178  11.020
87976W        W47721  14.666   3.445  10.993
87977W        W47722  32.605  38.011   2.243
87978W        W47723  15.630  39.837   4.296
87979W        W47724  43.286  44.500   4.216
87980W        W47725  39.876  28.435   3.175
87981W        W47726  13.319  14.326   1.292
87982W        W47727  38.978  28.449   3.363
87983W        W47728  22.139  29.635  11.007
87984W        W47729  30.084  33.041   5.616
87985W        W47730  16.613  44.972  14.475
87986W        W47731  29.946  36.027  13.924
87987W        W47732  23.005  37.856   3.303
87988W        W47733  10.237   1.862  11.421
87989W        W47734   2.852  25.037   4.827
87990W        W47735  20.115  24.010   3.195
87991W        W47736  37.539   6.371  14.806
87992W        W47737  28.082  39.333   5.280
87993W        W47738  22.129  34.464   2.899
87994W        W47739  44.355  44.991   3.845
87995W        W47740   6.859  40.901   3.346
87996W        W47741  22.537  29.458  14.963
87997W        W47742   1.868  33.874  11.865
87998W        W47743   0.415   8.676   1.833
87999W        W47744  28.140  26.978  11.030
88000W        W47745  36.869   7.751   4.756
88001W        W47746  10.698   1.288  12.451
88002W        W47747   1.436  30.594  14.307
88003W        W47748   6.426  26.010   1.357
88004W        W47749  27.509  21.755  14.933
88005W        W47750   1.435  43.413   2.282
88006W        W47751   9.668  42.977  14.831
88007W        W47752  18.632  13.315   1.893
88008W        W47753   4.846  20.595  10.432
88009W        W47754  13.105  14.598  12.571
88010W        W47755  42.378  15.087   1.786
88011W        W47756  14.320   8.401  14.898
88012W        W47757   8.723  44.956   4.660
88013W        W47758  33.457   5.338  13.394
88014W        W47759  20.749  13.675  11.449
88015W        W47760  39.988  10.186  12.033
88016W        W47761   5.201  27.575  12.466
88017W        W47762  37.015  11.748  11.081
88018W        W47763   2.896  43.295  11.429
88019W        W47764  23.538  20.208   2.894
88020W        W47765  15.605  23.987   1.747
88021W        W47766  24.198  11.859  12.929
88022W        W47767  36.541  28.041   1.786
88023W        W47768  11.369   4.280   4.228
88024W        W47769  35.593   4.362  13.852
88025W        W47770  19.645  42.456   4.808
88026W        W47771  27.022  12.282   3.658
88027W        W47772   6.915   3.819   1.868
88028W        W47773  24.128  22.092   4.739
88029W        W47774  36.592   5.293  10.916
88030W        W47775  31.029  37.343   4.634
88031W        W47776  10.196  18.778   0.436
88032W        W47777   6.230  40.418  10.563
88033W        W47778   5.280   5.364  12.868
88034W        W47779  35.591  15.624   1.777
88035W        W47780  24.689   6.216  10.582
88036W        W47781  21.226  11.245   2.851
88037W        W47782  20.641  35.077  10.063
88038W        W47783  16.706  19.603   3.752
88039W        W47784  21.669  13.244   0.269
88040W        W47785  40.518  33.945  12.961
88041W        W47786  37.078  26.028  12.011
88042W        W47787  31.575  34.924   2.380
88043W        W47788   1.451  34.570  12.477
88044W        W47789  22.221  22.127  10.631
88045W        W47790  27.040  42.022  10.896
88046W        W47791  21.187   8.801   4.159
88047W        W47792  15.670  41.008  11.439
88048W        W47793  41.415  30.073  11.400
88049W        W47794   7.745  26.596   2.800
88050W        W47795   9.316  26.549  12.499
88051W        W47796  37.921   7.349   2.342
88052W        W47797  21.513  22.220  11.041
88053W        W47798  26.146  42.917   0.912
88054W        W47799  37.035   1.344  11.581
88055W        W47800  26.957  39.922  14.405
88056W        W47801  33.105  11.266  14.352
88057W        W47802  44.325  34.068  12.418
88058W        W47803  18.066   4.838   3.165
88059W        W47804  44.812  42.314   3.704
88060W        W47805  44.919  25.074  11.910
88061W        W47806  13.203  39.024  11.489
88062W        W47807  18.167  43.823  11.057
88063W        W47808  36.930  11.170   0.456
88064W        W47809  33.895  41.358   0.934
88065W        W47810  30.456   0.934  10.890
88066W        W47811   7.178  43.454   1.773
88067W        W47812  41.797  12.664  11.591
88068W        W47813  13.601  25.045   4.148
88069W        W47814   5.765  28.144  13.796
88070W        W47815  44.340   2.317  11.550
88071W        W47816  24.973   2.878   2.887
88072W        W47817  44.332  17.212   0.301
88073W        W47818   1.285   9.222   4.722
88074W        W47819  32.575   3.280   1.261
88075W        W47820  36.491  10.198  11.922
88076W        W47821   2.791  35.102   4.221
88077W        W47822  36.014  44.491   0.924
88078W        W47823   7.193  38.497   3.709
88079W        W47824   9.151  20.125   1.222
88080W        W47825  30.436  40.316   4.246
88081W        W47826  19.040  35.600  12.013
88082W        W47827  37.436  29.018  12.898
88083W        W47828  18.242   8.834   1.799
88084W        W47829  30.083  36.464   0.778
88085W        W47830   2.723  26.633  13.465
88086W        W47831  31.941   9.840   2.187
88087W        W47832   0.274  13.221  12.358
88088W        W47833  23.213  24.634   0.889
88089W        W47834  14.589  37.862   5.569
88090W        W47835  12.685  13.691  13.019
88091W        W47836  14.820  44.994  14.833
88092W        W47837  34.073  23.492   4.741
88093W        W47838  10.144  30.963  12.422
88094W        W47839  18.616  34.040  11.948
88095W        W47840  12.824  15.085  13.825
88096W        W47841  31.513  31.542   0.785
88097W        W47842  38.464  30.113  10.964
88098W        W47843   7.290  41.523  11.034
88099W        W47844   4.244  13.125   3.855
88100W        W47845  37.389  43.901   4.224
88101W        W47846  18.546  15.130   3.736
88102W        W47847  42.924  17.570   1.238
88103W        W47848   2.416  17.570  14.449
88104W        W47849   9.701   3.936  13.805
88105W        W47850  14.834  10.653  13.345
88106W        W47851  27.140  21.231   3.332
88107W        W47852  37.871  39.884   0.755
88108W        W47853  41.033  36.913  10.514
88109W        W47854  19.090  31.938   0.291
88110W        W47855   9.290  41.919  12.514
88111W        W47856  23.637  18.122   3.756
88112W        W47857  41.014   8.169   3.367
88113W        W47858  29.551  14.178  12.495
88114W        W47859  13.158   3.249   4.218
88115W        W47860  26.096  36.535  12.918
88116W        W47861  23.601  19.059  13.930
88117W        W47862  20.562  21.600   0.296
88118W        W47863  26.066   5.731   4.160
88119W        W47864  24.014   8.286   2.316
88120W        W47865  43.302  41.417   3.270
88121W        W47866   6.289  18.225   4.152
88122W        W47867  18.215  26.636  13.948
88123W        W47868  26.117  34.554  13.953
88124W        W47869  27.091  42.439   3.243
88125W        W47870  33.900   2.914  10.499
88126W        W47871  26.017   3.927   3.214
88127W        W47872  36.968  23.701  13.388
88128W        W47873  10.149  12.618  11.586
88129W        W47874  14.194  43.773   2.899
88130W        W47875  43.284  32.480  13.051
88131W        W47876  42.964  37.522  11.071
88132W        W47877  40.805  16.189  10.537
88133W        W47878  42.886  43.362   4.658
88134W        W47879  35.097  28.475   3.740
88135W        W47880  30.929  10.777  10.917
88136W        W47881  15.278   5.780  13.900
88137W        W47882  17.716  26.990  13.367
88138W        W47883  28.079  30.010  10.642
88139W        W47884  39.488  19.640   5.140
88140W        W47885   6.849  10.144   1.765
88141W        W47886  22.559   6.792  11.070
88142W        W47887   9.154  16.650   2.672
88143W        W47888   7.225  40.914  13.364
88144W        W47889  32.593  41.459  11.430
88145W        W47890  32.996  24.204   4.678
88146W        W47891  13.261  21.141  14.477
88147W        W47892  42.018  28.663   2.803
88148W        W47893   6.395   9.205   2.360
88149W        W47894  13.197  12.146   4.315
88150W        W47895  44.313  42.441  11.550
88151W        W47896  25.681  20.257   2.871
88152W        W47897  34.882   3.294  12.967
88153W        W47898  18.549  39.911   0.382
88154W        W47899  24.089  17.790   3.767
88155W        W47900  35.502  13.641  11.514
88156W        W47901  38.422   3.316  13.919
88157W        W47902  25.642  18.641  11.958
88158W        W47903  22.537  33.407   2.694
88159W        W47904  22.731  39.818   0.835
88160W        W47905  31.940  20.040   2.734
88161W        W47906  11.672  30.622   1.793
88162W        W47907  23.082  42.834   1.340
88163W        W47908   7.398  17.246  12.067
88164W        W47909  10.818  34.570   0.454
88165W        W47910  28.113  14.787  13.545
88166W        W47911  11.270   4.252   4.719
88167W        W47912  25.104  25.040  12.858
88168W        W47913   0.949   4.419   1.844
88169W        W47914  15.669   9.890   2.779
88170W        W47915   5.321  25.523   3.261
88171W        W47916  25.120  32.484  11.905
88172W        W47917   3.384  26.114  12.035
88173W        W47918  10.166  26.496   3.849
88174W        W47919   0.304  28.549   1.450
88175W        W47920  34.591  38.546   0.906
88176W        W47921  35.583  11.223   0.327
88177W        W47922  20.546  23.672   2.255
88178W        W47923  34.420  39.976  13.810
88179W        W47924  30.025   1.331  10.553
88180W        W47925  28.042  38.930  13.817
88181W        W47926  12.690  33.574   3.854
88182W        W47927  34.916  34.118  13.406
88183W        W47928  36.041  23.661  11.101
88184W        W47929  17.154  17.204   5.196
88185W        W47930   2.355   5.833  11.932
88186W        W47931   7.388  27.493   4.787
88187W        W47932   7.388  28.950   3.267
88188W        W47933   6.252  23.597  10.635
88189W        W47934  34.489  19.052  13.907
88190W        W47935   6.828  32.118  10.933
88191W        W47936  18.266  25.213   2.394
88192W        W47937  24.138  21.530   4.838
88193W        W47938  24.504  28.161  11.562
88194W        W47939  44.383  32.095  12.377
88195W        W47940  17.062   9.241  14.901
88196W        W47941  15.265   9.733  11.086
88197W        W47942  41.899  13.650  10.976
88198W        W47943   7.874  11.636  13.442
88199W        W47944  34.896  35.075   3.722
88200W        W47945   8.371  16.258  13.378
88201W        W47946  40.942  18.577  14.357
88202W        W47947  35.993  18.189   1.907
88203W        W47948  22.638  36.935  14.999
88204W        W47949  24.221  29.658  12.902
88205W        W47950   7.884  39.978  13.442
88206W        W47951  24.010  10.698  11.932
88207W        W47952   7.186  39.549  13.460
88208W        W47953  19.272  22.168   0.291
88209W        W47954   6.762  44.979  10.411
88210W        W47955   7.716   5.858   4.828
88211W        W47956   2.269  35.372  13.949
88212W        W47957  28.664  28.182   4.721
88213W        W47958  33.032  42.373   3.709
88214W        W47959  41.016   7.221  11.127
88215W        W47960   5.903   2.283  14.313
88216W        W47961   2.904   4.339   1.361
88217W        W47962   8.248  26.141  10.500
88218W        W47963  32.997   7.850   1.304
88219W        W47964  32.081  39.542   1.350
88220W        W47965   6.827  10.655   0.778
88221W        W47966  24.168  30.940  11.923
88222W        W47967  13.296  43.832  11.599
88223W        W47968  40.837   6.236   0.835
88224W        W47969  24.622  44.007   2.758
88225W        W47970  14.276  39.829  12.950
88226W        W47971   9.659   9.278   4.730
88227W        W47972  33.597  21.700   3.378
88228W        W47973   6.871  12.205   3.759
88229W        W47974   3.440  24.626   0.851
88230W        W47975   6.427   7.895   0.912
88231W        W47976  42.885  26.586   1.774
88232W        W47977  34.068  41.789  12.865
88233W        W47978  19.180  15.124   0.822
88234W        W47979  16.759  37.462   0.965
88235W        W47980  39.840  22.502   0.772
88236W        W47981  27.045  29.158   3.740
88237W        W47982   1.813  13.253   2.413
88238W        W47983  19.693  15.694  10.909
88239W        W47984   8.370  40.527  11.978
88240W        W47985   6.350  11.229   0.286
88241W        W47986  10.300   3.328  12.482
88242W        W47987   6.698   0.363   1.752
88243W        W47988  31.506   1.416  14.300
88244W        W47989   9.781  18.281   2.331
88245W        W47990   3.224  34.887   2.895
88246W        W47991  27.469   3.241   4.277
88247W        W47992  11.865  38.495   5.129
88248W        W47993   9.738  16.187  12.854
88249W        W47994  21.698  14.174   0.925
88250W        W47995  35.926  22.176   3.691
88251W        W47996  27.608  31.525   9.465
88252W        W47997  34.010  36.936  14.317
88253W        W47998   6.914  12.675   3.808
88254W        W47999  31.969   7.211  11.599
88255W        W48000  16.145   7.697  13.487
88256W        W48001   2.294  41.510   5.287
88257W        W48002  32.978  34.915   1.777
88258W        W48003  35.074  10.858   3.273
88259W        W48004  37.011   9.295  11.935
88260W        W48005  19.555  19.687   4.307
88261W        W48006  16.189  20.073  14.007
88262W        W48007  25.654  41.987   1.795
88263W        W48008  20.126  21.241   3.869
88264W        W48009  44.891   1.915   3.768
88265W        W48010   4.304  34.525   3.215
88266W        W48011  18.608  32.488   0.816
88267W        W48012   0.292  29.594  12.835
88268W        W48013  37.451   9.830   4.721
88269W        W48014  13.790  32.063   9.976
88270W        W48015  34.447  35.877  14.342
88271W        W48016   2.797   1.750  12.483
88272W        W48017  19.249  18.652  11.551
88273W        W48018  35.559   1.958  14.789
88274W        W48019  41.911  20.639   2.775
88275W        W48020  38.389  40.443  11.895
88276W        W48021   7.306  38.336  12.481
88277W        W48022  37.488  34.501  14.852
88278W        W48023  22.172  39.426  11.577
88279W        W48024  30.587  41.511   4.182
88280W        W48025  14.224  19.693   4.192
88281W        W48026   3.375   6.341  13.827
88282W        W48027  13.776  10.834  14.776
88283W        W48028  38.378  44.973   1.302
88284W        W48029   8.773  21.737  13.811
88285W        W48030  21.748  36.422  14.892
88286W        W48031  24.197  33.503   5.777
88287W        W48032  33.131   9.369   3.823
88288W        W48033   3.765  19.550   3.663
88289W        W48034   8.809   9.363   2.891
88290W        W48035  13.164  32.470   2.250
88291W        W48036  42.445   9.246  11.459
88292W        W48037   8.826  25.543   1.712
88293W        W48038  25.997  19.620   1.344
88294W        W48039  24.658  28.593   3.688
88295W        W48040  36.434  15.597  12.403
88296W        W48041  32.093  21.080   4.249
88297W        W48042  26.531  29.101   3.685
88298W        W48043  17.214  34.027  12.000
88299W        W48044  19.546  42.815  10.947
88300W        W48045   1.283  11.353  11.432
88301W        W48046   8.265  33.096  12.387
88302W        W48047   9.312   2.398   1.921
88303W        W48048  14.316  32.962   2.877
88304W        W48049  24.089  15.247  13.496
88305W        W48050  31.648   1.332  10.975
88306W        W48051   6.354  44.462   2.186
88307W        W48052   9.386  15.745  11.090
88308W        W48053  34.380  25.032  12.919
88309W        W48054  31.590  42.937  12.857
88310W        W48055  34.448  32.061  12.527
88311W        W48056  41.463   7.326   1.393
88312W        W48057  21.185   1.363   0.849
88313W        W48058  40.022  22.039   1.931
88314W        W48059   8.876  32.043  13.892
88315W        W48060  44.755  35.042   3.661
88316W        W48061   9.722  27.451   0.921
88317W        W48062  38.500  30.163  14.377
88318W        W48063  10.269   8.762   4.232
88319W        W48064  25.109  38.490   4.752
88320W        W48065   1.775  41.891   1.752
88321W        W48066  25.528  13.844   5.802
88322W        W48067  36.410   7.676  12.885
88323W        W48068  12.264  41.502   0.868
88324W        W48069  17.600   3.228   4.645
88325W        W48070   4.765  20.750   4.332
88326W        W48071  21.229  35.061   0.939
88327W        W48072  30.659  39.018   2.376
88328W        W48073  42.934  29.031  13.424
88329W        W48074  24.191  40.868   0.763
88330W        W48075  17.794   3.346   0.778
88331W        W48076  36.519  27.086   4.243
88332W        W48077  22.711  34.864   5.206
88333W        W48078  44.770  17.720   1.308
88334W        W48079  21.239  41.898   0.940
88335W        W48080  30.030  31.495  14.029
88336W        W48081  34.995  13.301  14.778
88337W        W48082  32.056  16.245  14.941
88338W        W48083  18.646  40.863   2.828
88339W        W48084   4.335  26.664   2.745
88340W        W48085   7.313  21.677  11.023
88341W        W48086   8.724   0.926  13.942
88342W        W48087  39.360  21.262   4.604
88343W        W48088  16.245  16.595   1.346
88344W        W48089   8.383  25.631  11.918
88345W        W48090  32.532  23.572  12.927
88346W        W48091  16.740  40.353  13.462
88347W        W48092  43.354  31.127   2.351
88348W        W48093   9.764  13.295   1.866
88349W        W48094   3.853   0.323   4.290
88350W        W48095  14.327  33.946   0.867
88351W        W48096  44.428  40.801   9.966
88352W        W48097  11.626  30.997  14.379
88353W        W48098  27.495   7.273   2.376
88354W        W48099  22.503  10.730   3.765
88355W        W48100   7.190  35.900   1.886
88356W        W48101  32.619   0.954   2.405
88357W        W48102   7.862  21.227   1.884
88358W        W48103  43.888  11.842   1.766
88359W        W48104  13.146  15.157   1.441
88360W        W48105  28.937  28.132   1.257
88361W        W48106   8.388   7.397   3.681
88362W        W48107  31.996  36.977  14.476
88363W        W48108   5.393   7.202   5.088
88364W        W48109  34.458   1.352   0.901
88365W        W48110  41.451   0.408   3.688
88366W        W48111  24.016   1.910  12.969
88367W        W48112   9.740   9.868  11.448
88368W        W48113   6.827  26.034   0.394
88369W        W48114  28.678  38.343   2.846
88370W        W48115  30.445  11.862   2.672
88371W        W48116  11.796  28.056  11.995
88372W        W48117  10.253  32.485  12.069
88373W        W48118  14.218   4.336   2.179
88374W        W48119  35.015  36.901   0.291
88375W        W48120  12.693  24.590  12.434
88376W        W48121   2.437  22.059  11.941
88377W        W48122  31.417  18.787   3.209
88378W        W48123  22.231  44.400   4.758
88379W        W48124  24.594  38.439   1.245
88380W        W48125  42.938  31.969  12.083
88381W        W48126  28.151  16.189  11.924
88382W        W48127  19.271  16.572  13.043
88383W        W48128  42.826   7.818   2.747
88384W        W48129  28.082  39.321   4.658
88385W        W48130  26.993  28.651   9.546
88386W        W48131  28.665  19.575  13.406
88387W        W48132   7.221  43.982   4.271
88388W        W48133  36.087  34.420  12.571
88389W        W48134  18.767   7.233  14.832
88390W        W48135  14.716  44.906   0.962
88391W        W48136  17.256  28.503  11.501
88392W        W48137  35.972  43.839  12.436
88393W        W48138  38.568  15.781   0.899
88394W        W48139  15.638  13.126  14.338
88395W        W48140  21.208   8.248   0.726
88396W        W48141  31.909  30.957   0.363
88397W        W48142  44.924  33.440  10.089
88398W        W48143  14.255  41.940  14.381
88399W        W48144  26.959  14.258   4.272
88400W        W48145  38.544   4.788   0.377
88401W        W48146  29.536   7.247   3.651
88402W        W48147  33.048  17.714  12.918
88403W        W48148   9.783   8.787   3.352
88404W        W48149  21.038  28.001   4.713
88405W        W48150  42.355  23.625  12.374
88406W        W48151  37.349  23.126  14.398
88407W        W48152   7.704  19.719   3.315
88408W        W48153  14.101   0.826  14.984
88409W        W48154  27.996   9.207  12.376
88410W        W48155   0.857  17.780  14.369
88411W        W48156  35.373   2.774  13.456
88412W        W48157   1.480  28.969  13.846
88413W        W48158  24.056  24.580   2.308
88414W        W48159   3.905  43.775  12.366
88415W        W48160  39.408  37.463   5.255
88416W        W48161  26.960  17.718  14.816
88417W        W48162  10.691  33.620  12.978
88418W        W48163  18.115  29.569  13.419
88419W        W48164  28.464  30.457   0.260
88420W        W48165  20.183  41.791  14.825
88421W        W48166  19.545  43.828   3.663
88422W        W48167   9.286  10.227  11.954
88423W        W48168  13.826  37.511  13.843
88424W        W48169   3.779  20.230   1.808
88425W        W48170  21.705  23.597  13.388
88426W        W48171  34.067   0.477  13.884
88427W        W48172  37.000  31.987  11.074
88428W        W48173  20.181  26.092  13.809
88429W        W48174  14.238   2.955   1.425
88430W        W48175  31.914  44.874   2.202
88431W        W48176  13.122  33.416  14.466
88432W        W48177  28.038  23.012   4.336
88433W        W48178  21.703   3.334   2.185
88434W        W48179  12.156   7.341   0.751
88435W        W48180  14.728  39.883  11.955
88436W        W48181  27.502  22.744   3.823
88437W        W48182  43.801  28.627  14.000
88438W        W48183  37.383  24.677   3.689
88439W        W48184   2.260   3.800   4.230
88440W        W48185  21.526  28.015  10.046
88441W        W48186  27.602  36.929  12.015
88442W        W48187  13.787  20.708  14.838
88443W        W48188  37.863  39.375   3.163
88444W        W48189  29.104  23.596  13.924
88445W        W48190  27.557   0.462   1.916
88446W        W48191  40.905  16.613  10.987
88447W        W48192  15.093  21.737   1.327
88448W        W48193  27.008  11.358  10.569
88449W        W48194  25.145  22.515  12.912
88450W        W48195   4.931  26.124  12.474
88451W        W48196  32.395  25.164   0.372
88452W        W48197  26.060  21.186  12.384
88453W        W48198  19.057   3.326  10.948
88454W        W48199   3.910  20.588   0.371
88455W        W48200  22.581  18.691  14.342
88456W        W48201  23.532  31.462   2.220
88457W        W48202   5.352  11.734  13.418
88458W        W48203  40.327  40.462   5.102
88459W        W48204  40.042  27.041   4.163
88460W        W48205   4.401  26.980  12.881
88461W        W48206  37.357  28.640   0.263
88462W        W48207  14.324  26.104  12.429
88463W        W48208  22.573  20.101  13.850
88464W        W48209  16.184   6.351   2.355
88465W        W48210  20.171  13.215   1.372
88466W        W48211  10.361  10.677  12.357
88467W        W48212  40.863  14.590  13.546
88468W        W48213  10.176  37.046  14.285
88469W        W48214  19.554  19.151   4.751
88470W        W48215  23.586  32.522  12.013
88471W        W48216   7.666  13.232  12.432
88472W        W48217  34.555  41.325   4.280
88473W        W48218  41.905  10.299  10.427
88474W        W48219   9.339  42.776  12.916
88475W        W48220  33.606   8.895   4.671
88476W        W48221  20.130  35.531   3.329
88477W        W48222  25.592  38.971   3.789
88478W        W48223  42.975  43.784  11.388
88479W        W48224  24.599  36.523   3.824
88480W        W48225  18.602  29.654   2.862
88481W        W48226  25.695  43.346   0.897
88482W        W48227  38.996   5.698   3.721
88483W        W48228  41.378  20.545   1.380
88484W        W48229   0.448  17.605  14.004
88485W        W48230  30.138  12.227  13.945
88486W        W48231  11.262  14.752   2.326
88487W        W48232  13.164  30.148   3.187
88488W        W48233  22.193  35.529   2.228
88489W        W48234   3.334  33.395   3.777
88490W        W48235  38.927   0.986  13.476
88491W        W48236  20.142  23.689  13.018
88492W        W48237  12.616  11.133   2.807
88493W        W48238  26.982   6.843  14.430
88494W        W48239  43.485  14.134   0.302
88495W        W48240  28.490  10.717  12.524
88496W        W48241  32.115  24.192   2.822
88497W        W48242  30.139  17.189   3.769
88498W        W48243  10.174  34.006   4.307
88499W        W48244  42.004  42.843   3.778
88500W        W48245   8.827  14.254   2.849
88501W        W48246   1.480   1.775   3.322
88502W        W48247  19.586  28.523  12.096
88503W        W48248  11.829   5.712  13.024
88504W        W48249   4.941  21.595  14.288
88505W        W48250   4.393  35.952  11.450
88506W        W48251  20.622  24.142  14.889
88507W        W48252  35.105  35.980   2.715
88508W        W48253  29.108  35.372   3.642
88509W        W48254  39.850  29.634  11.490
88510W        W48255   3.283  41.486   0.802
88511W        W48256  18.145  22.065   4.309
88512W        W48257  17.746  32.954   0.871
88513W        W48258  15.704  18.050   0.458
88514W        W48259  12.838  16.143  14.896
88515W        W48260  17.114  12.266   1.242
88516W        W48261  10.854  13.348  13.956
88517W        W48262  12.150  40.797   1.361
88518W        W48263  31.599   5.919   2.414
88519W        W48264  43.417  37.424  12.823
88520W        W48265   3.811   2.801   0.958
88521W        W48266  25.672  19.214  11.485
88522W        W48267  38.517  39.921   0.337
88523W        W48268  11.153   5.218  12.356
88524W        W48269  41.421  14.661  10.590
88525W        W48270  29.573   3.437   3.802
88526W        W48271  25.525  31.577  14.834
88527W        W48272  31.011  37.844   0.267
88528W        W48273   8.900  20.192   1.776
88529W        W48274  34.977  17.061  10.631
88530W        W48275   3.736  12.315   1.325
88531W        W48276  28.985   2.376  14.765
88532W        W48277  23.227  37.904  11.613
88533W        W48278   8.316  14.621  12.865
88534W        W48279  22.247   9.200   2.865
88535W        W48280   8.733  20.208   5.275
88536W        W48281  41.515  44.495  11.044
88537W        W48282  14.727  26.164  11.992
88538W        W48283   9.853  40.974   2.795
88539W        W48284  23.610  39.462   0.861
88540W        W48285  37.912  33.918  11.573
88541W        W48286  28.009  42.021   3.863
88542W        W48287  33.961  29.920   2.891
88543W        W48288  43.363  26.205  12.534
88544W        W48289  15.727  24.564  13.970
88545W        W48290  39.899  12.762   4.331
88546W        W48291  44.918  29.645  14.020
88547W        W48292  29.075  11.659   1.722
88548W        W48293  20.258  25.554  11.949
88549W        W48294  39.979  16.188  14.295
88550W        W48295   9.718  13.155  13.475
88551W        W48296  14.328   4.260   1.851
88552W        W48297   5.690  23.065  10.507
88553W        W48298   5.232   1.827   2.781
88554W        W48299  17.201  32.955  13.007
88555W        W48300  44.960  29.031  12.580
88556W        W48301   6.427   8.723  11.553
88557W        W48302  12.359   1.956   2.221
88558W        W48303   9.787  23.002  11.055
88559W        W48304  18.624  29.134   0.950
88560W        W48305   8.744  13.349   2.788
88561W        W48306  39.494  40.001   4.317
88562W        W48307   8.850  23.623  12.060
88563W        W48308   4.429  14.718   1.244
88564W        W48309  33.380  41.511  13.973
88565W        W48310  41.867   5.741  14.802
88566W        W48311   2.743   1.383  14.386
88567W        W48312  32.122  12.734  10.151
88568W        W48313   9.373  18.134  12.552
88569W        W48314  31.418  19.131  14.893
88570W        W48315  40.444   2.413  11.596
88571W        W48316  43.765   6.254  12.513
88572W        W48317  34.436   1.889  12.935
88573W        W48318  33.572  31.084  14.330
88574W        W48319  17.085  21.171   2.183
88575W        W48320   5.203  39.456   3.763
88576W        W48321  32.540  20.099  10.642
88577W        W48322   0.860   1.480  13.858
88578W        W48323  23.662  33.007   2.228
88579W        W48324  39.469  37.059   1.767
88580W        W48325  43.413  39.839  11.962
88581W        W48326  35.959  24.587   3.276
88582W        W48327  44.435  42.018   3.373
88583W        W48328  34.050  14.735  13.506
88584W        W48329  43.422  11.702   1.817
88585W        W48330  37.076  43.848   3.277
88586W        W48331  19.239  15.708   1.867
88587W        W48332  29.423  23.613   4.656
88588W        W48333  41.006   1.290   0.344
88589W        W48334  40.424  13.798  10.483
88590W        W48335  11.360   1.849   0.282
88591W        W48336  21.573  29.440   4.296
88592W        W48337  20.587   5.285  13.486
88593W        W48338  22.090  24.495   1.897
88594W        W48339   1.874  42.493   4.768
88595W        W48340  25.506  39.467  13.468
88596W        W48341  28.644  15.249   4.771
88597W        W48342   8.842  38.899   1.254
88598W        W48343  23.147  22.136  14.800
88599W        W48344  24.690  14.304  12.425
88600W        W48345   3.828  22.024   4.200
88601W        W48346  15.665  33.033  11.032
88602W        W48347  38.422  36.578  11.468
88603W        W48348  19.218  28.031   2.281
88604W        W48349   0.427   3.308  13.040
88605W        W48350   8.844  27.042   4.763
88606W        W48351  20.754  12.711   1.320
88607W        W48352  29.019  11.309   1.823
88608W        W48353  22.599  38.823   0.804
88609W        W48354   9.797  10.238   2.253
88610W        W48355  27.002  21.576  14.420
88611W        W48356  19.216   0.333  10.571
88612W        W48357  25.020   0.437  11.497
88613W        W48358  17.251   7.842   2.327
88614W        W48359  44.459  38.423  12.455
88615W        W48360   2.318  31.941   2.353
88616W        W48361  16.807  34.048   0.290
88617W        W48362  28.515  14.588   2.894
88618W        W48363  37.075  15.775   4.711
88619W        W48364  44.775  42.385  11.096
88620W        W48365  37.503   3.787   1.912
88621W        W48366  32.096  34.029   2.357
88622W        W48367   3.336  27.634   3.242
88623W        W48368   2.814  38.430   4.180
88624W        W48369  43.020  14.773   5.292
88625W        W48370  26.621   5.841   3.795
88626W        W48371  34.560  26.003  12.980
88627W        W48372  33.964  19.100  14.019
88628W        W48373  14.208  16.296  14.396
88629W        W48374  22.624  31.143  12.973
88630W        W48375  37.852   3.919   4.138
88631W        W48376  11.171  32.918   0.811
88632W        W48377   2.792  24.648   4.716
88633W        W48378  20.568  30.914   9.986
88634W        W48379  32.914  18.579   1.807
88635W        W48380  26.644  10.732  13.460
88636W        W48381  19.747  12.205  14.458
88637W        W48382  39.945  42.337   2.322
88638W        W48383  12.174   3.290  14.976
88639W        W48384   6.246  34.002  12.915
88640W        W48385   6.336  30.054   4.209
88641W        W48386  21.593  34.993   3.153
88642W        W48387  22.584   2.310  10.899
88643W        W48388  10.194  40.500  10.590
88644W        W48389  42.024  11.701  13.958
88645W        W48390   5.433  25.585  10.500
88646W        W48391   9.808  28.656  14.370
88647W        W48392  11.244  29.986  13.936
88648W        W48393  36.976  37.923   1.316
88649W        W48394  26.988   6.722   1.312
88650W        W48395  14.745  30.030  14.476
88651W        W48396  33.573  15.114   3.238
88652W        W48397   2.339  34.605   3.261
88653W        W48398  13.646  32.525   4.329
88654W        W48399  38.021  16.083   0.458
88655W        W48400  15.187   2.325  11.902
88656W        W48401  34.018  34.932  11.925
88657W        W48402  22.598  23.715   4.602
88658W        W48403  34.931  20.134   1.738
88659W        W48404   1.773  38.411  13.061
88660W        W48405  33.575  42.802  13.474
88661W        W48406  41.883  44.460  12.836
88662W        W48407  18.241  27.549  14.875
88663W        W48408  12.782   6.840  12.438
88664W        W48409  32.515  12.777   5.147
88665W        W48410   9.793  37.849   0.805
88666W        W48411  30.068  39.972   3.374
88667W        W48412  12.849   7.370   3.837
88668W        W48413  15.244  17.237   3.363
88669W        W48414  24.994  22.690   0.769
88670W        W48415  23.568  39.360   2.353
88671W        W48416  40.842   0.821   2.891
88672W        W48417   9.190  30.479   0.372
88673W        W48418  11.712   2.399  12.948
88674W        W48419  41.481  15.778  13.796
88675W        W48420   7.792   1.963  14.323
88676W        W48421  32.579  15.690   2.260
88677W        W48422  10.142   7.898  13.970
88678W        W48423  24.560  28.638   4.793
88679W        W48424  22.051  40.991   3.807
88680W        W48425  17.630   5.798   3.164
88681W        W48426  26.652  29.637   2.369
88682W        W48427  14.720  13.748   2.193
88683W        W48428   2.752   5.879  11.593
88684W        W48429  30.978   5.768   3.665
88685W        W48430  30.947  22.649   0.932
88686W        W48431   0.362   4.208  12.342
88687W        W48432  41.315  19.147  12.383
88688W        W48433  12.854   1.317   4.325
88689W        W48434  33.100   7.292  14.782
88690W        W48435   9.701  21.660  12.500
88691W        W48436   2.779  32.509  11.589
88692W        W48437  26.956  13.644   0.441
88693W        W48438  17.155  37.479   2.386
88694W        W48439  27.969  39.954   0.401
88695W        W48440  28.106   0.490  12.377
88696W        W48441   1.463  14.628   3.237
88697W        W48442   9.871  44.368   1.258
88698W        W48443  37.894  31.497  11.550
88699W        W48444  25.191  14.130   1.897
88700W        W48445   5.857  28.666   2.742
88701W        W48446   3.360   4.782   0.266
88702W        W48447  37.031   3.264  10.964
88703W        W48448  23.041  10.335  13.445
88704W        W48449  32.923  29.078   1.422
88705W        W48450  43.773  15.635  11.481
88706W        W48451   1.284  41.992   2.787
88707W        W48452  37.831  12.362  12.844
88708W        W48453  18.753  36.424   1.251
88709W        W48454  13.245  14.673  14.889
88710W        W48455  19.177  11.665   4.698
88711W        W48456  22.524  42.393  13.004
88712W        W48457   2.925  31.128   4.817
88713W        W48458  23.220  29.951  11.392
88714W        W48459  18.559   5.915   3.383
88715W        W48460  31.555  17.740  12.551
88716W        W48461  12.205  41.854  12.497
88717W        W48462  30.936  33.614   4.167
88718W        W48463  42.433  27.968   3.359
88719W        W48464  13.128  41.454   5.186
88720W        W48465  10.688   0.938   2.414
88721W        W48466  39.485   8.831  13.873
88722W        W48467  10.831   0.340  11.890
88723W        W48468   0.918  10.183  13.325
88724W        W48469   5.348  10.754  11.868
88725W        W48470   6.850  12.262  13.805
88726W        W48471  24.526  11.647   3.742
88727W        W48472  31.414  37.335  12.363
88728W        W48473  23.497  42.520   1.412
88729W        W48474  14.173  11.739  14.837
88730W        W48475  24.009  40.544   0.425
88731W        W48476  16.311  28.545   4.232
88732W        W48477  14.323  39.462  10.955
88733W        W48478  25.046  24.530   2.310
88734W        W48479   9.827  24.114   3.385
88735W        W48480  35.871  27.587  11.080
88736W        W48481  30.147  19.215  10.406
88737W        W48482  14.207  37.393  12.013
88738W        W48483   8.793   3.322   5.187
88739W        W48484  35.023   7.836  12.071
88740W        W48485  30.153   9.243  13.324
88741W        W48486  17.575  35.975  10.104
88742W        W48487  20.264  20.654  14.428
88743W        W48488  10.818   5.429   4.827
88744W        W48489  25.084  42.427  13.327
88745W        W48490  16.733  20.077   1.862
88746W        W48491  15.728  19.169  10.465
88747W        W48492   6.836  36.954  11.040
88748W        W48493   8.815  15.804  12.894
88749W        W48494  17.748   0.475   0.876
88750W        W48495  39.354  12.753   3.685
88751W        W48496  20.634  20.233  12.457
88752W        W48497  36.423   2.294  14.381
88753W        W48498  12.116  26.048  13.946
88754W        W48499  36.490  17.680   4.677
88755W        W48500   1.389  38.473   5.757
88756W        W48501  16.132   2.894  11.948
88757W        W48502  44.003  37.354   3.334
88758W        W48503  17.279  41.451   4.146
88759W        W48504  36.076  31.632  14.342
88760W        W48505  35.561  39.046  10.638
88761W        W48506  17.096  28.149   3.776
88762W        W48507  17.300  42.341  14.301
88763W        W48508  41.509   5.275  11.040
88764W        W48509  32.128  41.390   2.409
88765W        W48510  35.581  26.628  11.599
88766W        W48511  11.866  15.231   2.703
88767W        W48512   5.815  10.235   4.147
88768W        W48513  35.604  33.472  12.003
88769W        W48514  35.505  30.469  11.383
88770W        W48515  13.680  35.550   2.687
88771W        W48516  18.212  31.008   3.772
88772W        W48517  40.865   7.839   2.798
88773W        W48518   5.739  22.507  11.091
88774W        W48519  10.664   9.885   3.350
88775W        W48520   4.411  25.162   4.309
88776W        W48521   1.421  44.303  10.555
88777W        W48522  33.499  23.106   2.267
88778W        W48523  29.446  23.178  14.383
88779W        W48524  37.052  18.200  13.029
88780W        W48525   4.343  31.631   3.650
88781W        W48526  35.012  43.984  10.440
88782W        W48527  17.652  22.996  14.474
88783W        W48528  17.134  33.893   1.290
88784W        W48529  10.152  14.221  11.505
88785W        W48530  44.933  43.776   1.398
88786W        W48531  40.541   6.413   4.612
88787W        W48532  43.901  36.493   2.861
88788W        W48533  20.169  39.327   2.690
88789W        W48534  33.970  30.597  12.991
88790W        W48535  37.359  16.298   3.838
88791W        W48536  22.221  43.973   2.786
88792W        W48537   2.917  17.177  12.542
88793W        W48538   3.781  28.461  13.865
88794W        W48539  22.053  22.025   2.221
88795W        W48540   5.900   3.411  10.905
88796W        W48541   6.777  11.300  11.503
88797W        W48542  16.183  33.934   2.699
88798W        W48543  32.981   1.911   3.250
88799W        W48544  31.624  22.739  14.917
88800W        W48545   3.347  41.966  10.484
88801W        W48546   9.814   4.771  10.931
88802W        W48547  34.509  11.224  13.360
88803W        W48548  16.242  43.864   2.216
88804W        W48549  42.324  41.298  12.566
88805W        W48550  14.317   4.812  13.048
88806W        W48551  44.757  38.045   5.274
88807W        W48552  25.177  23.594   2.388
88808W        W48553  17.653  22.128  11.392
88809W        W48554  10.167  14.737  11.433
88810W        W48555  19.212  39.868   0.921
88811W        W48556  44.498  25.049  11.371
88812W        W48557  15.186  41.905   4.311
88813W        W48558  39.981   0.306  12.527
88814W        W48559  11.353  16.698  14.509
88815W        W48560   8.269   6.772  12.480
88816W        W48561  42.818   1.395  12.845
88817W        W48562  41.352  39.335  14.762
88818W        W48563   0.309   7.227   4.738
88819W        W48564   1.922  12.143   3.669
88820W        W48565  39.411  35.373   3.832
88821W        W48566  24.994  40.539  13.453
88822W        W48567  22.022  33.065  11.875
88823W        W48568  34.882  40.529  14.490
88824W        W48569  24.191  42.382  12.449
88825W        W48570  20.548  37.492   1.765
88826W        W48571  28.099  26.069   3.719
88827W        W48572  17.151   7.359  11.043
88828W        W48573  39.054  28.488   0.482
88829W        W48574  11.773  16.181   3.157
88830W        W48575  24.499  41.439  11.403
88831W        W48576  43.767  37.389  14.410
88832W        W48577  36.904  10.855   3.180
88833W        W48578  12.171  22.623   3.229
88834W        W48579  34.078  19.199   1.898
88835W        W48580   1.866  12.792   1.911
88836W        W48581   8.791  38.917   5.116
88837W        W48582   3.346   7.231   0.296
88838W        W48583  25.689  12.279  11.613
88839W        W48584  34.993  26.991   0.885
88840W        W48585   6.304   8.228  10.559
88841W        W48586  41.308  28.470   3.800
88842W        W48587  35.056  32.902  14.348
88843W        W48588  23.075  16.189   3.685
88844W        W48589  41.798  20.591   3.812
88845W        W48590  42.027   1.855   0.481
88846W        W48591   1.470  29.927  13.538
88847W        W48592   9.690  35.510  12.526
88848W        W48593  25.667  12.661  13.543
88849W        W48594  20.534  31.630   4.309
88850W        W48595  14.158  10.225  11.063
88851W        W48596  24.217   5.757  10.507
88852W        W48597  29.602   1.382  12.369
88853W        W48598   0.832  34.579  12.016
88854W        W48599  37.865   8.257   4.615
88855W        W48600  14.192  25.185   1.272
88856W        W48601  38.484  15.586   4.275
88857W        W48602  29.114  18.674   2.722
88858W        W48603  19.142   0.961   1.450
88859W        W48604  40.957  21.737  12.908
88860W        W48605  21.716  36.992   1.923
88861W        W48606  13.253  21.543   1.767
88862W        W48607  40.441  19.559   4.607
88863W        W48608  35.053  16.159  11.954
88864W        W48609   3.846  22.066   2.712
88865W        W48610   3.925  44.003  10.984
88866W        W48611  17.271  26.001  11.476
88867W        W48612  12.807  40.541  14.452
88868W        W48613  36.464  23.690   1.436
88869W        W48614  14.171  13.136  13.918
88870W        W48615  29.048  23.081   4.138
88871W        W48616  33.418   2.941  13.533
88872W        W48617  37.433   3.808  12.557
88873W        W48618  20.195   4.372   1.240
88874W        W48619  23.181  26.622  13.434
88875W        W48620  13.299  18.584  14.758
88876W        W48621  30.029  23.606   4.199
88877W        W48622  13.325   6.281   0.393
88878W        W48623  18.723  34.530   5.261
88879W        W48624   8.898  31.576  13.963
88880W        W48625  20.273   9.169  13.821
88881W        W48626  42.927  13.632   3.313
88882W        W48627  29.492  27.068   0.840
88883W        W48628  43.340  41.793   3.765
88884W        W48629   1.739   3.235   4.606
88885W        W48630   1.288  43.836  14.860
88886W        W48631  42.299  23.546   2.403
88887W        W48632  33.606  27.006   2.718
88888W        W48633  37.975  30.575   2.261
88889W        W48634  24.095  43.878   3.727
88890W        W48635  27.617  34.872  11.977
88891W        W48636  36.856  34.104  12.554
88892W        W48637  23.033   9.860   2.306
88893W        W48638  34.508  33.045  12.895
88894W        W48639  27.603   5.225   1.265
88895W        W48640   7.412  20.147   2.323
88896W        W48641  17.144   7.409   3.671
88897W        W48642   3.319  32.544  12.032
88898W        W48643  27.949  44.395   2.186
88899W        W48644  18.139  27.148   3.738
88900W        W48645  19.680   5.911   1.301
88901W        W48646  24.644   1.400  10.018
88902W        W48647   3.311  12.819  12.933
88903W        W48648  23.631  16.168  10.971
88904W        W48649  43.813   7.748   2.831
88905W        W48650   1.412  21.107  12.046
88906W        W48651  41.414  23.607   3.770
88907W        W48652  27.626   0.468  13.979
88908W        W48653  43.918  32.497   3.255
88909W        W48654   0.948  13.180   1.771
88910W        W48655  31.917  29.967   1.741
88911W        W48656  22.030  43.764  10.941
88912W        W48657  24.652  39.335  13.365
88913W        W48658  18.639  44.951  13.943
88914W        W48659  36.894  33.909   4.739
88915W        W48660  43.808  30.619  13.418
88916W        W48661  22.524   4.443   3.149
88917W        W48662  39.825   6.906  13.812
88918W        W48663  40.806  43.967  12.871
88919W        W48664  44.887  13.732  14.815
88920W        W48665  26.658  24.066   3.259
88921W        W48666   8.673  37.001   4.679
88922W        W48667  11.796  39.886   0.729
88923W        W48668   5.874  12.810   2.368
88924W        W48669  44.276   6.305  10.488
88925W        W48670  27.485  32.583  12.064
88926W        W48671  24.050  27.081   4.616
88927W        W48672   6.258   3.926  10.569
88928W        W48673  16.797  29.626   4.172
88929W        W48674  20.085   0.975  10.922
88930W        W48675   6.199  42.882   0.840
88931W        W48676   5.842  30.470  14.762
88932W        W48677   3.800  15.307  14.832
88933W        W48678  22.210  29.552   3.261
88934W        W48679  14.748  10.200   4.182
88935W        W48680   1.481  28.151   4.354
88936W        W48681   2.819   5.361   1.858
88937W        W48682   9.175  36.001   1.256
88938W        W48683   2.246  20.529  12.436
88939W        W48684  17.182  24.617   1.339
88940W        W48685   5.825   2.920  12.032
88941W        W48686   5.202  20.632  12.907
88942W        W48687  37.053  21.558   2.291
88943W        W48688  43.941  23.005  12.050
88944W        W48689  20.634  33.086  12.002
88945W        W48690  16.279  27.141  12.571
88946W        W48691  27.656  16.224  11.403
88947W        W48692  30.474  21.672   0.306
88948W        W48693  18.631  14.187  14.999
88949W        W48694  17.656  24.090  10.584
88950W        W48695  16.178   8.766  12.989
88951W        W48696   0.485  27.172  11.477
88952W        W48697   3.319   3.424  12.085
88953W        W48698  31.495  43.973   3.837
88954W        W48699  36.422   8.245  14.003
88955W        W48700  34.885   6.191   3.297
88956W        W48701   8.378  12.855   0.841
88957W        W48702   1.931  44.430   0.811
88958W        W48703  17.283  12.320  14.445
88959W        W48704  24.156  33.460   0.253
88960W        W48705  31.005  26.621   3.758
88961W        W48706  21.748  41.420   2.871
88962W        W48707  38.337   3.290   3.712
88963W        W48708  28.113  17.596  12.053
88964W        W48709  35.568  35.455   3.786
88965W        W48710   5.370   4.408   4.738
88966W        W48711  42.341  35.529  12.488
88967W        W48712  13.335   4.735   4.266
88968W        W48713  42.311  17.747   1.277
88969W        W48714  26.060  44.278   2.281
88970W        W48715  40.815  23.058   4.745
88971W        W48716  34.920   6.315  10.151
88972W        W48717  38.452  19.217   0.423
88973W        W48718  10.365  39.335  11.461
88974W        W48719  39.543  28.592  12.079
88975W        W48720  41.387  21.727   3.380
88976W        W48721  27.118  24.055   2.416
88977W        W48722  33.004  43.468  11.900
88978W        W48723  11.826   8.247  10.479
88979W        W48724   8.246   0.778   0.927
88980W        W48725  17.593  37.030  12.538
88981W        W48726  42.852  25.086   3.272
88982W        W48727  42.917   7.695   3.819
88983W        W48728   5.849  36.363  10.543
88984W        W48729   7.799  17.065  14.924
88985W        W48730   3.303  29.527  10.473
88986W        W48731  29.101  43.798   1.307
88987W        W48732  21.660   3.861   3.742
88988W        W48733  18.216  35.598   3.677
88989W        W48734   1.923  27.195   0.746
88990W        W48735  34.995  26.098   1.295
88991W        W48736  31.489  25.063   1.398
88992W        W48737  28.056  21.207   1.745
88993W        W48738  15.792  10.638  12.566
88994W        W48739  15.097  28.638   1.773
88995W        W48740   7.724  30.584  13.385
88996W        W48741  40.940  22.022  10.547
88997W        W48742  13.810  32.499  13.502
88998W        W48743  42.981  26.046   2.378
88999W        W48744  39.336  42.935   1.246
89000W        W48745  14.597  26.652  11.590
89001W        W48746  14.129   1.889  13.467
89002W        W48747  13.168   0.846  14.922
89003W        W48748  17.193  14.174  12.418
89004W        W48749  11.317  41.888  13.437
89005W        W48750   5.326  26.071  12.503
89006W        W48751  21.514  32.489   2.276
89007W        W48752  39.893  31.064   1.421
89008W        W48753  21.717  24.086   3.248
89009W        W48754  40.549  41.414   0.815
89010W        W48755  23.675   4.875  10.920
89011W        W48756   2.855  18.235  13.888
89012W        W48757  13.700  18.705   4.757
89013W        W48758   1.901   0.413   1.366
89014W        W48759  24.162   8.229   1.333
89015W        W48760  41.970  30.108  14.294
89016W        W48761  40.842  32.072  10.124
89017W        W48762  21.604  29.562  13.454
89018W        W48763  40.456  24.572  12.865
89019W        W48764  25.633  16.607   3.281
89020W        W48765   1.259  24.552   0.930
89021W        W48766  28.605   4.446   2.403
89022W        W48767   8.805   4.912   1.853
89023W        W48768   8.287   1.870  14.422
89024W        W48769  20.669  25.213   2.196
89025W        W48770  10.717  40.317  14.406
89026W        W48771   7.912  16.102  13.830
89027W        W48772  26.649   0.310  11.479
89028W        W48773   3.258  31.944   0.901
89029W        W48774   3.760  12.836  12.489
89030W        W48775  19.558  41.363   1.305
89031W        W48776  36.383  30.472  11.483
89032W        W48777  20.149  20.135  10.496
89033W        W48778  15.771   4.751  10.449
89034W        W48779  37.424  28.612  14.862
89035W        W48780  40.548  31.606  12.529
89036W        W48781  19.221  43.992   2.739
89037W        W48782  32.419  34.396   1.820
89038W        W48783  33.980  33.029   4.188
89039W        W48784   9.840   6.418  13.418
89040W        W48785  15.113  32.475  14.952
89041W        W48786  16.598  14.220  12.071
89042W        W48787   4.710  14.644  11.956
89043W        W48788  13.710  39.335  14.833
89044W        W48789  23.705  41.440  14.866
89045W        W48790  39.921  40.851   0.807
89046W        W48791  17.700  20.555   1.241
89047W        W48792  22.083  40.863  10.482
89048W        W48793  33.502  25.511   4.289
89049W        W48794  28.661  36.875  14.450
89050W        W48795  11.235  31.960  14.030
89051W        W48796  19.618  30.429   1.768
89052W        W48797  44.957   4.733  14.977
89053W        W48798   6.871  20.738  14.848
89054W        W48799  40.844   2.843   0.824
89055W        W48800  40.463  24.147  14.515
89056W        W48801  24.164   2.833  14.024
89057W        W48802  14.114   7.742   1.259
89058W        W48803  28.460   0.286   1.331
89059W        W48804  40.917  26.622   4.722
89060W        W48805  38.958  19.102  12.937
89061W        W48806  26.671   4.782  10.147
89062W        W48807  38.985  24.152  10.421
89063W        W48808  33.530  11.728   4.203
89064W        W48809   7.769  29.075   4.306
89065W        W48810  28.533  11.174  12.864
89066W        W48811  27.509  29.596   4.694
89067W        W48812  40.883  41.991  12.929
89068W        W48813   2.349  40.356  11.109
89069W        W48814   2.842  14.777   2.800
89070W        W48815  10.798  23.599   1.329
89071W        W48816  12.716  28.159   1.439
89072W        W48817  23.545   7.354   0.382
89073W        W48818  42.459  28.616  12.446
89074W        W48819  33.428  39.436   1.824
89075W        W48820  23.096  13.202  12.341
89076W        W48821  22.036  12.799   3.837
89077W        W48822   7.891  36.054  14.442
89078W        W48823  16.200  29.955   4.794
89079W        W48824  31.621  36.083  11.877
89080W        W48825  19.189  28.655  12.415
89081W        W48826   9.764   7.687   0.330
89082W        W48827  17.244  18.077  12.079
89083W        W48828  36.961  44.850   0.255
89084W        W48829   7.823  43.929   3.854
89085W        W48830   9.178  25.069   2.810
89086W        W48831  44.426   6.427  13.311
89087W        W48832   1.753  39.926  14.386
89088W        W48833  25.135  28.932  11.906
89089W        W48834  31.458  28.003   1.829
89090W        W48835  44.788  16.596   2.895
89091W        W48836  43.479   9.691   1.745
89092W        W48837  32.636  44.493   0.887
89093W        W48838   6.199  32.991   2.223
89094W        W48839  32.000  41.410  14.813
89095W        W48840   9.758   7.410  13.829
89096W        W48841  36.026  19.648  11.006
89097W        W48842  36.525   6.764   3.657
89098W        W48843  24.582  27.508   4.335
89099W        W48844   4.411  28.676  12.575
89100W        W48845  21.166  15.738  11.961
89101W        W48846  43.280   0.816  12.858
89102W        W48847  18.561  42.930  12.371
89103W        W48848   6.310  41.013   1.934
89104W        W48849  20.062  37.517   3.843
89105W        W48850  31.097  13.350   2.768
89106W        W48851  44.294  42.029   4.155
89107W        W48852  19.233  25.561  13.350
89108W        W48853   8.821  29.122   1.336
89109W        W48854  10.649  31.036   3.757
89110W        W48855  13.702   8.715  10.925
89111W        W48856  31.017  41.898  14.465
89112W        W48857  34.055  30.913  12.963
89113W        W48858  17.093  12.280  13.054
89114W        W48859  37.337  29.631  14.970
89115W        W48860  27.029   6.410   0.422
89116W        W48861  10.174   8.262  14.402
89117W        W48862  22.579  41.923   3.802
89118W        W48863   1.795  41.488  13.980
89119W        W48864  10.835  43.289  12.897
89120W        W48865   1.765   3.232  14.031
89121W        W48866  32.098  34.869   1.327
89122W        W48867  33.923   2.387  11.373
89123W        W48868  11.335  22.034   3.747
89124W        W48869  11.835  38.943   4.635
89125W        W48870  32.937  25.092  11.049
89126W        W48871  40.990   4.893  13.362
89127W        W48872  13.771  33.130   0.440
89128W        W48873   1.370   0.492   3.673
89129W        W48874  25.555  13.166  11.057
89130W        W48875  35.944  29.033  10.565
89131W        W48876  21.108  34.591   0.388
89132W        W48877  14.784  27.193  11.574
89133W        W48878  23.164  12.209  13.390
89134W        W48879  28.036  35.047  14.494
89135W        W48880  19.266   9.760   2.364
89136W        W48881   0.887  30.537   5.665
89137W        W48882   8.804  44.272  12.392
89138W        W48883  27.129  35.986   1.871
89139W        W48884  27.143  22.024  13.912
89140W        W48885  16.154  12.240   1.907
89141W        W48886   5.817  18.735  14.390
89142W        W48887  23.048  36.947   3.839
89143W        W48888  34.379  27.505  11.962
89144W        W48889  14.820  32.586   1.427
89145W        W48890   2.246  21.704   1.216
89146W        W48891   7.803   1.451   3.769
89147W        W48892  22.518   6.208   2.267
89148W        W48893   3.864  28.180   2.709
89149W        W48894  35.970   7.702   4.733
89150W        W48895  40.369  28.553   1.778
89151W        W48896  36.551  43.971  11.877
89152W        W48897  31.044  37.843   2.283
89153W        W48898  34.101   7.188   1.712
89154W        W48899  32.508   0.879  11.048
89155W        W48900  19.061   7.907  14.990
89156W        W48901  15.585  39.009   0.758
89157W        W48902  20.576  14.666   0.345
89158W        W48903   9.381  30.014   0.270
89159W        W48904  29.542   3.837   2.703
89160W        W48905  27.015  41.947   4.745
89161W        W48906  34.953  39.350  12.069
89162W        W48907  35.880   2.820  12.402
89163W        W48908  24.063  41.398  12.952
89164W        W48909  22.510  17.261  12.446
89165W        W48910  31.532  34.970   4.338
89166W        W48911  20.090   7.180   4.603
89167W        W48912  33.908  39.927   1.450
89168W        W48913  39.996  43.956  11.995
89169W        W48914   8.368   2.835   2.867
89170W        W48915  18.609  32.084   3.335
89171W        W48916  40.354  10.786   0.284
89172W        W48917  37.548   6.253   2.826
89173W        W48918   6.761  14.310  14.399
89174W        W48919  16.721  28.500   2.720
89175W        W48920  10.655  35.442   5.197
89176W        W48921   7.222  12.695   2.727
89177W        W48922   4.367   5.744   2.387
89178W        W48923  28.979  10.182  12.974
89179W        W48924   9.689  31.902   2.795
89180W        W48925  11.664  13.104   2.203
89181W        W48926  30.959   3.429  14.441
89182W        W48927  36.453  10.740   1.446
89183W        W48928  26.520   7.263  11.462
89184W        W48929  28.113   5.829   4.607
89185W        W48930  22.731  24.705  12.465
89186W        W48931  43.910  19.662   3.284
89187W        W48932  19.621  30.099   4.218
89188W        W48933  22.683   9.883   2.858
89189W        W48934  29.436  10.219  10.529
89190W        W48935  12.357  15.158   1.245
89191W        W48936  40.473  40.458  14.411
89192W        W48937  25.078  30.041  11.536
89193W        W48938  18.545  29.558   5.272
89194W        W48939   2.783  42.802  13.546
89195W        W48940  32.027   2.950  11.542
89196W        W48941   0.364   1.248   0.943
89197W        W48942  15.116   6.783   4.838
89198W        W48943  10.790   8.712   0.245
89199W        W48944  16.124  12.361   4.303
89200W        W48945  30.098  17.254  10.643
89201W        W48946  16.243  24.071  11.956
89202W        W48947  42.335  10.330  11.969
89203W        W48948  18.683  12.778   1.913
89204W        W48949  30.067  15.239   4.263
89205W        W48950   2.403  39.370  13.474
89206W        W48951  29.157   8.345  11.928
89207W        W48952  33.532  37.976   4.243
89208W        W48953  37.920  21.714  11.091
89209W        W48954  18.755  21.605   1.262
89210W        W48955  30.015  38.376  13.996
89211W        W48956  25.537  42.332   1.385
89212W        W48957  24.667   3.289   2.886
89213W        W48958   4.262  22.148  11.475
89214W        W48959   6.268  29.513  14.986
89215W        W48960  37.378  23.636   4.763
89216W        W48961  19.089   0.272   2.730
89217W        W48962   1.400  38.444   4.784
89218W        W48963   6.305  20.163  14.459
89219W        W48964   6.704   8.731  10.548
89220W        W48965  36.387  32.014   2.232
89221W        W48966  41.859  29.546  12.543
89222W        W48967  33.875  44.800   1.933
89223W        W48968  16.737  24.649   0.843
89224W        W48969  33.514  37.354  13.382
89225W        W48970  23.986   9.271  14.782
89226W        W48971  18.142  26.132   3.338
89227W        W48972   2.821  23.603  14.850
89228W        W48973  31.425  19.137  13.010
89229W        W48974   1.880  24.122  14.502
89230W        W48975   7.875  10.382   3.763
89231W        W48976  42.441   7.363   1.284
89232W        W48977  25.061  26.192   3.826
89233W        W48978  13.135   5.239   3.741
89234W        W48979   6.695   5.802  12.869
89235W        W48980  10.223  14.801   0.953
89236W        W48981  11.286   5.197  14.013
89237W        W48982  27.959  16.247  13.538
89238W        W48983  13.600   4.832  12.030
89239W        W48984  15.631  22.176  11.034
89240W        W48985  42.308  29.600   2.805
89241W        W48986   4.865  42.789   4.140
89242W        W48987  40.411  44.428  14.445
89243W        W48988  42.302  17.184  11.584
89244W        W48989  13.282  20.695   2.419
89245W        W48990  24.113  15.753  14.954
89246W        W48991  39.440   9.828   0.754
89247W        W48992   6.321   3.774   3.814
89248W        W48993  37.936   1.783  13.876
89249W        W48994   0.767  10.641  11.095
89250W        W48995   1.244  37.490   4.762
89251W        W48996  27.558   5.758   4.205
89252W        W48997  13.623  40.342   4.763
89253W        W48998  14.827  17.593  13.002
89254W        W48999  15.596  30.072  11.601
89255W        W49000  18.174   1.396   1.799
89256W        W49001   2.422   7.326   4.231
89257W        W49002  32.905  36.968   0.463
89258W        W49003  37.350  24.067  14.835
89259W        W49004  20.213  12.135  13.484
89260W        W49005  11.286  19.702  12.447
89261W        W49006  19.186  25.512  14.346
89262W        W49007   1.242   0.896   1.925
89263W        W49008   6.918  40.349   3.358
89264W        W49009  14.148  22.097  14.989
89265W        W49010   7.255  42.844   4.188
89266W        W49011  18.657  26.561  14.306
89267W        W49012   3.741  40.432   0.351
89268W        W49013  43.981   7.895  13.522
89269W        W49014  18.236  30.609   0.905
89270W        W49015  18.747  36.370  13.895
89271W        W49016   9.795  34.109  14.357
89272W        W49017  36.398  39.431  11.377
89273W        W49018  16.302  23.152  12.387
89274W        W49019  18.051  22.707  13.938
89275W        W49020   6.797  28.109  10.555
89276W        W49021  22.639   5.930   0.312
89277W        W49022  23.180  23.611  14.288
89278W        W49023  43.775  12.258  11.451
89279W        W49024  33.556  17.278  10.599
89280W        W49025  27.675  42.874   5.182
89281W        W49026   4.415  40.015   9.558
89282W        W49027  24.103  38.003  11.115
89283W        W49028   4.916  37.404  10.891
89284W        W49029  37.964   7.251   4.204
89285W        W49030  42.509  17.715  11.451
89286W        W49031  17.690  22.650  13.880
89287W        W49032  35.853   8.655   0.758
89288W        W49033  22.122  11.303   1.285
89289W        W49034  29.055  23.078   3.244
89290W        W49035  30.525  29.948   4.232
89291W        W49036  35.601  40.507  12.365
89292W        W49037  29.492  12.253  14.795
89293W        W49038  17.159   3.743   2.353
89294W        W49039  12.725  43.014  12.369
89295W        W49040  15.323  18.718  10.906
89296W        W49041  34.103  16.698  12.341
89297W        W49042  23.212  28.600   0.248
89298W        W49043  36.920  37.494   3.779
89299W        W49044  18.051  33.478   3.351
89300W        W49045   3.894   2.233  11.038
89301W        W49046   9.229   7.698  12.496
89302W        W49047  23.127  33.999   1.863
89303W        W49048  32.960  18.083  14.359
89304W        W49049   0.940  19.695  13.951
89305W        W49050  17.273  13.249   0.807
89306W        W49051  19.174  24.096  10.567
89307W        W49052  29.633   6.196  11.462
89308W        W49053  20.644  30.524   1.235
89309W        W49054  14.158  11.232  12.892
89310W        W49055   5.313   0.365  11.965
89311W        W49056  12.230  11.813  11.376
89312W        W49057  41.463  34.498   0.393
89313W        W49058   9.281  32.139  10.918
89314W        W49059  27.446  44.939   4.117
89315W        W49060  41.804  37.926   1.272
89316W        W49061  20.241  32.505  12.855
89317W        W49062  20.553  29.428  13.931
89318W        W49063  23.060  34.386  14.969
89319W        W49064  43.307  35.016  11.399
89320W        W49065  31.976  28.984  12.945
89321W        W49066  21.711  25.211   2.354
89322W        W49067  16.690  33.921  12.883
89323W        W49068   6.761  23.994  14.826
89324W        W49069  20.573  18.104   1.295
89325W        W49070  38.886  18.268   3.323
89326W        W49071  28.065  12.723  13.834
89327W        W49072  39.050   9.274  14.949
89328W        W49073   4.245  35.859  10.958
89329W        W49074  32.540  11.734  11.093
89330W        W49075  11.181  33.494   2.250
89331W        W49076  26.571  41.802   1.915
89332W        W49077  35.898  39.529   1.234
89333W        W49078  42.972  19.691  14.841
89334W        W49079  44.458   3.322   2.218
89335W        W49080  17.671  30.944   4.820
89336W        W49081  32.537  16.597   2.293
89337W        W49082  36.526  43.481   4.168
89338W        W49083  31.505  16.184   3.712
89339W        W49084  12.142  20.114   4.830
89340W        W49085  28.034  34.453  11.938
89341W        W49086   8.305  13.674  10.975
89342W        W49087   5.386  10.668   2.195
89343W        W49088  40.825   9.339   3.730
89344W        W49089  28.144  28.574  14.487
89345W        W49090  21.641  43.310   0.279
89346W        W49091  35.006   1.373   0.751
89347W        W49092  25.978  30.510  12.878
89348W        W49093  33.123   7.880  13.915
89349W        W49094  44.412  42.432   2.229
89350W        W49095   7.393  35.484   2.392
89351W        W49096  38.561  36.927   4.258
89352W        W49097   1.274  12.155  13.483
89353W        W49098  13.800   6.678  11.588
89354W        W49099  22.531  10.736  12.033
89355W        W49100  18.553  24.585   2.701
89356W        W49101   4.898  37.045   5.109
89357W        W49102   2.954   6.890  14.818
89358W        W49103  40.974   2.935  13.983
89359W        W49104  33.601   4.395   4.119
89360W        W49105  44.773  28.935  14.510
89361W        W49106  29.444  36.996   1.279
89362W        W49107  36.008  29.484   4.808
89363W        W49108   6.223  29.972   3.843
89364W        W49109   5.867  17.757   1.882
89365W        W49110  30.101   9.866  12.035
89366W        W49111  25.486  23.537   1.785
89367W        W49112  29.031  43.995   0.302
89368W        W49113  15.617  18.183  11.417
89369W        W49114   2.405  40.383  14.301
89370W        W49115  38.942  40.541  11.546
89371W        W49116  42.355   0.744   4.157
89372W        W49117   5.310  32.451   1.822
89373W        W49118   3.874  28.616   4.644
89374W        W49119  33.077  17.248  11.865
89375W        W49120  42.474  44.339  13.521
89376W        W49121  10.641  28.141  14.842
89377W        W49122  27.990  15.696  12.367
89378W        W49123  20.723   9.826  12.908
89379W        W49124  12.795   4.265  11.949
89380W        W49125  32.605  43.917   1.437
89381W        W49126   4.818  41.895  13.344
89382W        W49127  24.554  28.064   0.884
89383W        W49128   9.790   5.763   2.341
89384W        W49129  18.173   8.187   3.849
89385W        W49130   7.250   7.877  13.331
89386W        W49131  32.957  42.000   3.805
89387W        W49132   8.182  44.946  12.016
89388W        W49133  32.479   8.794  12.385
89389W        W49134  14.321  15.680   4.815
89390W        W49135  32.939  42.440   0.817
89391W        W49136  26.513  17.645  13.875
89392W        W49137  14.103  26.123   2.287
89393W        W49138  40.928   2.901  10.456
89394W        W49139  30.158  16.686   0.895
89395W        W49140  24.516  13.769   3.180
89396W        W49141  26.616  17.680  14.898
89397W        W49142  41.974  19.183   3.698
89398W        W49143   9.376  39.384  11.944
89399W        W49144  28.595   9.856  11.950
89400W        W49145  26.575  17.086   0.395
89401W        W49146  30.549   2.923  12.938
89402W        W49147  36.051  38.835   4.141
89403W        W49148   6.361  13.233  14.918
89404W        W49149  32.518  31.949   0.961
89405W        W49150  34.907  26.662   4.696
89406W        W49151  30.487   2.408   4.663
89407W        W49152   4.923   7.297  11.375
89408W        W49153   4.830  15.735   1.759
89409W        W49154   2.927   9.253  14.392
89410W        W49155  36.485  17.668   2.709
89411W        W49156  42.405  39.862  13.798
89412W        W49157  40.499  12.254  12.004
89413W        W49158  13.779  35.919   1.370
89414W        W49159   9.712  15.593   1.379
89415W        W49160  39.534   4.761   1.737
89416W        W49161   8.798  10.345  10.936
89417W        W49162   7.906  20.094   0.405
89418W        W49163   7.802  36.532  11.909
89419W        W49164  32.513  33.129  11.607
89420W        W49165  20.192  39.917  10.645
89421W        W49166  26.080  25.966  14.941
89422W        W49167  31.126  13.301  13.472
89423W        W49168  20.210  40.462  14.900
89424W        W49169  37.040  31.967   2.691
89425W        W49170  30.472  29.069   1.248
89426W        W49171  14.716  13.793   1.352
89427W        W49172  14.732  44.919   1.212
89428W        W49173  27.551  40.027   3.753
89429W        W49174   9.322   9.311   4.636
89430W        W49175  24.623  34.895  14.513
89431W        W49176  36.592  12.184  14.336
89432W        W49177  18.239  13.647  10.526
89433W        W49178  21.115   2.382  12.449
89434W        W49179   7.766   5.239   4.700
89435W        W49180  42.009  40.980  11.492
89436W        W49181  15.634  38.957  14.322
89437W        W49182  29.433  18.153   4.652
89438W        W49183  38.357  41.370  11.457
89439W        W49184  12.798   7.689   0.923
89440W        W49185  35.548  18.173  12.038
89441W        W49186  37.065  30.125  10.433
89442W        W49187  10.736  16.737   3.708
89443W        W49188  23.055  26.496  14.827
89444W        W49189   2.357   9.212  10.568
89445W        W49190  17.306   8.861   1.770
89446W        W49191  30.514   2.446   1.814
89447W        W49192   7.824  43.386  14.404
89448W        W49193  30.920  34.941  10.411
89449W        W49194  24.614   0.786   1.781
89450W        W49195  22.045   0.337  12.580
89451W        W49196  33.915   2.814  14.480
89452W        W49197  22.165  23.184  14.393
89453W        W49198   1.895  24.171  12.867
89454W        W49199  27.966  39.823  10.100
89455W        W49200  42.994   5.803   4.787
89456W        W49201  19.124  20.128  11.483
89457W        W49202  34.084  28.514   5.226
89458W        W49203  30.473   5.259  14.514
89459W        W49204  15.085  40.038  10.534
89460W        W49205  43.917  23.672  12.973
89461W        W49206  16.081  21.676   1.796
89462W        W49207   3.407   5.821   2.310
89463W        W49208   6.237  24.711  12.474
89464W        W49209   3.796  40.444  14.814
89465W        W49210  18.649   2.876  12.075
89466W        W49211  24.216  41.319  14.448
89467W        W49212  31.501  30.071  13.998
89468W        W49213  18.197   0.935   1.719
89469W        W49214  38.499  17.743   0.374
89470W        W49215  14.710  27.499   1.307
89471W        W49216  33.930  30.045   3.867
89472W        W49217   0.819  31.967  14.896
89473W        W49218  13.212   2.786   1.809
89474W        W49219   4.315  43.287   4.304
89475W        W49220   1.861  43.301  14.434
89476W        W49221  34.378  27.692   4.241
89477W        W49222  35.413  35.007  11.901
89478W        W49223  12.806  14.211   0.855
89479W        W49224  27.185  11.742  12.543
89480W        W49225  25.962  21.744   1.859
89481W        W49226   0.415  24.150   1.268
89482W        W49227  43.810  10.812  13.442
89483W        W49228  21.696   4.359   4.784
89484W        W49229  42.953   6.232  13.434
89485W        W49230  42.955   3.730   5.251
89486W        W49231  35.907  35.105  10.958
89487W        W49232  40.462  41.383   3.273
89488W        W49233  31.453  31.017   5.242
89489W        W49234  17.592  33.114   1.447
89490W        W49235  26.116  39.353   1.444
89491W        W49236  44.834   8.243   1.923
89492W        W49237   4.312  31.580  10.533
89493W        W49238  42.493  28.150   3.644
89494W        W49239  36.508   1.351  12.394
89495W        W49240   0.897  29.091  11.458
89496W        W49241  32.070   6.313  12.930
89497W        W49242  31.048  11.642   4.178
89498W        W49243  22.217  26.143   0.883
89499W        W49244  36.428  32.568  12.455
89500W        W49245  37.083  17.644   0.444
89501W        W49246  38.485   9.856   2.253
89502W        W49247   7.231  16.144   2.342
89503W        W49248  28.585   0.830   2.325
89504W        W49249   6.878  43.875   0.964
89505W        W49250  13.173   0.389   0.756
89506W        W49251  37.007  35.947  12.488
89507W        W49252   0.891  31.896   4.298
89508W        W49253  39.832  16.183  11.122
89509W        W49254   0.769  41.836  13.913
89510W        W49255  18.595  25.554  12.430
89511W        W49256  27.177  22.170   4.255
89512W        W49257   4.331   3.456   2.851
89513W        W49258  41.039   5.197   2.801
89514W        W49259  43.326  32.477   1.255
89515W        W49260  14.228  19.129  11.609
89516W        W49261  19.248  22.673  11.122
89517W        W49262   1.409  25.160   4.778
89518W        W49263  35.546  35.088  11.489
89519W        W49264  21.190  38.925  12.344
89520W        W49265  14.676  13.605   0.366
89521W        W49266  18.146  25.615  13.041
89522W        W49267   3.284  11.646  14.990
89523W        W49268   5.823  24.986   3.650
89524W        W49269  28.591  21.707   2.294
89525W        W49270  30.145  44.393  11.974
89526W        W49271  31.600  29.535  14.909
89527W        W49272   7.177  34.932  12.459
89528W        W49273  12.741  20.271  12.431
89529W        W49274  25.646  38.933   2.180
89530W        W49275  29.082  15.235  13.457
89531W        W49276  20.665  25.088  13.905
89532W        W49277  16.682   3.454  11.410
89533W        W49278  43.998   6.915   4.687
89534W        W49279  31.990  37.972  13.369
89535W        W49280  25.076  37.050  12.504
89536W        W49281  28.981  15.597   4.766
89537W        W49282   4.761  13.647  11.856
89538W        W49283   9.647  41.026  10.621
89539W        W49284   0.752   0.307   5.218
89540W        W49285  19.557  24.718  11.444
89541W        W49286   0.392  21.151  12.522
89542W        W49287  40.955  11.765  13.872
89543W        W49288  23.686  17.124   1.377
89544W        W49289  12.328  10.832  14.934
89545W        W49290  10.852  10.649   2.335
89546W        W49291  36.037   6.808   4.227
89547W        W49292   1.380  43.467  14.864
89548W        W49293   0.306  40.038  12.532
89549W        W49294  13.204   6.824  14.944
89550W        W49295   5.875  40.033  11.432
89551W        W49296  31.111  10.737  11.388
89552W        W49297  40.830   3.914   1.813
89553W        W49298   9.750  30.075  14.460
89554W        W49299  30.055  27.023  12.022
89555W        W49300  25.517  25.648   2.731
89556W        W49301  21.068  13.276  13.995
89557W        W49302  34.069  25.203   1.909
89558W        W49303  30.445  23.995   5.107
89559W        W49304  19.254  22.525   1.892
89560W        W49305  27.183   9.874  14.394
89561W        W49306  42.824   7.882  11.576
89562W        W49307   0.876  40.828   3.268
89563W        W49308  34.104  39.364  14.862
89564W        W49309  43.892  12.218   3.197
89565W        W49310  35.397  41.924   0.438
89566W        W49311  30.517   1.463   3.154
89567W        W49312  34.510  35.394   3.322
89568W        W49313  18.764   1.326   0.423
89569W        W49314  29.540  14.157   1.734
89570W        W49315   0.849   3.920   3.850
89571W        W49316  27.618  44.452  11.887
89572W        W49317  33.069  36.892   1.234
89573W        W49318  26.501  21.547  12.847
89574W        W49319  23.155   7.849   3.177
89575W        W49320  15.251  35.075   2.286
89576W        W49321  19.640  38.481   1.428
89577W        W49322   2.283  14.791  13.905
89578W        W49323   6.263  41.293   4.781
89579W        W49324  19.667  10.652   1.729
89580W        W49325   5.295   3.352   2.887
89581W        W49326  17.774  38.552   2.708
89582W        W49327  36.382  11.784  11.020
89583W        W49328  29.986  29.545   2.835
89584W        W49329   5.741  13.110   4.124
89585W        W49330  39.002  17.162   4.308
89586W        W49331  11.273  43.302   3.677
89587W        W49332   3.358  15.177  11.125
89588W        W49333  15.259  22.525   1.435
89589W        W49334  42.452   1.823  12.014
89590W        W49335   7.297  25.512  10.994
89591W        W49336  44.769  30.638   1.296
89592W        W49337  33.068  33.439   4.778
89593W        W49338   4.905  31.443   1.729
89594W        W49339  24.655  32.890   3.250
89595W        W49340  18.155  15.792   4.605
89596W        W49341  33.094  14.241  14.787
89597W        W49342  31.075   1.900   1.302
89598W        W49343   1.273  41.426  10.920
89599W        W49344   2.461  23.037  14.483
89600W        W49345  29.636  15.188   4.744
89601W        W49346  24.007  21.651  11.953
89602W        W49347  38.034   7.344  11.536
89603W        W49348  12.630  28.607   0.434
89604W        W49349   0.915  28.167   1.226
89605W        W49350  28.124  14.104   3.175
89606W        W49351  33.394  28.606   9.954
89607W        W49352  43.361   0.386  13.446
89608W        W49353  28.443   7.889  10.972
89609W        W49354  12.691  25.040  10.968
89610W        W49355  34.056   8.327   0.431
89611W        W49356  31.487  40.524   0.830
89612W        W49357  17.240   0.970   3.817
89613W        W49358  42.525   0.764   3.340
89614W        W49359  39.404  27.562  11.407
89615W        W49360  37.026  41.006   1.212
89616W        W49361   6.422   2.377   3.774
89617W        W49362  23.508  13.835   2.688
89618W        W49363  21.095  21.167  11.373
89619W        W49364  29.468  15.100   1.857
89620W        W49365   6.817  29.173  14.881
89621W        W49366  14.305  11.186   3.204
89622W        W49367  19.566  31.543  11.031
89623W        W49368  11.213  24.714   1.887
89624W        W49369  12.822  27.656  13.058
89625W        W49370  11.782  23.548  13.833
89626W        W49371   0.419  39.912   2.794
89627W        W49372  29.575  35.405   3.695
89628W        W49373   1.902  10.239   4.695
89629W        W49374   3.731   4.815   3.673
89630W        W49375  21.686   6.428  12.915
89631W        W49376  35.021  35.414   3.764
89632W        W49377  33.878   0.780   4.350
89633W        W49378  26.082  36.413  14.949
89634W        W49379   4.886  13.219  10.491
89635W        W49380   0.769  38.490   4.794
89636W        W49381  23.181  37.559   3.669
89637W        W49382  29.468  10.835   2.190
89638W        W49383   5.318   0.786  11.075
89639W        W49384  42.026  40.509   3.209
89640W        W49385  14.645  11.708   1.812
89641W        W49386  41.499  39.827   1.286
89642W        W49387  32.533  38.496  12.019
89643W        W49388  29.136  34.907  12.542
89644W        W49389  24.086  13.752   1.822
89645W        W49390  25.169  28.030   1.747
89646W        W49391   8.186  16.800   0.817
89647W        W49392  15.160  28.541  11.090
89648W        W49393  21.648   5.372  11.876
89649W        W49394  18.559  44.407   2.781
89650W        W49395  35.591  12.360   2.216
89651W        W49396  14.282   6.344  11.881
89652W        W49397  19.218  31.120   3.683
89653W        W49398  37.429  38.963   1.867
89654W        W49399  42.853  26.526   0.383
89655W        W49400  28.054  42.028   3.284
89656W        W49401  10.808  33.965   4.741
89657W        W49402  24.637  35.962  10.526
89658W        W49403  24.998  13.311  12.483
89659W        W49404  14.799  22.514  12.385
89660W        W49405  22.174   8.300   0.841
89661W        W49406  23.712  27.121  13.922
89662W        W49407   2.279  18.787   0.386
89663W        W49408  30.076   0.283  13.331
89664W        W49409  17.670  44.766  12.495
89665W        W49410  25.585  26.611  14.447
89666W        W49411   5.251  24.131   1.785
89667W        W49412  23.609  16.117  14.405
89668W        W49413   3.837  30.953   2.214
89669W        W49414  13.294  23.011  13.865
89670W        W49415   3.766  38.848   3.241
89671W        W49416   3.447  31.070   4.246
89672W        W49417  36.471  17.086  11.008
89673W        W49418  25.526   3.802   4.318
89674W        W49419  15.653  10.637   3.162
89675W        W49420  10.647   6.689  10.951
89676W        W49421  23.019  33.405  14.767
89677W        W49422  33.012  22.561   4.788
89678W        W49423  36.408   3.775  14.845
89679W        W49424  24.559   3.388  11.594
89680W        W49425  37.921  19.133  12.407
89681W        W49426  12.333   1.842  11.589
89682W        W49427  26.609   6.279  14.311
89683W        W49428  14.618  28.628  12.529
89684W        W49429  32.064  20.626   4.601
89685W        W49430  43.845   4.417   2.773
89686W        W49431  40.416  34.089   4.663
89687W        W49432  41.522  38.557  12.394
89688W        W49433  25.027  12.840  12.967
89689W        W49434  13.602  18.188   3.326
89690W        W49435  14.835  43.822  12.825
89691W        W49436   4.362  16.713  14.773
89692W        W49437  32.530  33.449  10.561
89693W        W49438  25.964   1.770  13.034
89694W        W49439  24.652  23.053   2.702
89695W        W49440  20.608  11.828  10.514
89696W        W49441  35.602   1.828   3.260
89697W        W49442  42.401  17.686  13.449
89698W        W49443  43.897  18.098   3.697
89699W        W49444  14.590   0.256  10.556
89700W        W49445  18.089  20.172   0.774
89701W        W49446  40.469  20.083   2.290
89702W        W49447  35.571  29.519  11.939
89703W        W49448  41.000  44.947  10.484
89704W        W49449  12.275  14.640  11.007
89705W        W49450  44.871  44.007  13.024
89706W        W49451  31.041  41.499   3.264
89707W        W49452  44.939  14.215  14.470
89708W        W49453  31.037  42.410  14.874
89709W        W49454  20.756  33.036   2.729
89710W        W49455  35.909  28.636  12.464
89711W        W49456  38.510  35.864   1.702
89712W        W49457  31.530  31.977   1.884
89713W        W49458  11.236   1.450   2.894
89714W        W49459  32.890  10.832  13.541
89715W        W49460   9.249  40.887   3.149
89716W        W49461  35.869   0.784  12.968
89717W        W49462  33.484  34.400  11.976
89718W        W49463   0.946  18.079   1.727
89719W        W49464  22.573   4.870   1.294
89720W        W49465   9.679  31.593  14.890
89721W        W49466  44.315   9.203   4.658
89722W        W49467  20.250   4.432  12.549
89723W        W49468   7.785  23.209   1.333
89724W        W49469  39.018  32.955  14.484
89725W        W49470  16.759  26.532  14.312
89726W        W49471  18.094   0.327   9.997
89727W        W49472  40.367  18.545   4.318
89728W        W49473  28.051  14.630   2.384
89729W        W49474  28.612  21.695  11.988
89730W        W49475  28.107  11.630   5.156
89731W        W49476  25.141  36.855   3.823
89732W        W49477   0.774  32.035   1.855
89733W        W49478  31.030   7.884  14.465
89734W        W49479  35.932   7.409  12.059
89735W        W49480  34.376  13.192  13.827
89736W        W49481  13.610   2.926   2.258
89737W        W49482   2.902  23.660   2.664
89738W        W49483   4.781  43.883   3.160
89739W        W49484  36.901  33.121  14.498
89740W        W49485   4.740   6.283  13.369
89741W        W49486   9.385  37.084  12.561
89742W        W49487  23.597  17.795  12.047
89743W        W49488  33.104  26.556  10.437
89744W        W49489   2.963   2.449   0.746
89745W        W49490  43.337  19.696  10.042
89746W        W49491  29.011   9.654   3.701
89747W        W49492  28.978  12.748  11.423
89748W        W49493  40.892  27.103   2.376
89749W        W49494  25.973  17.644   4.750
89750W        W49495   5.830  41.989   2.417
89751W        W49496  27.186  44.406   4.723
89752W        W49497  17.116   5.419   2.338
89753W        W49498   9.730  30.096  12.918
89754W        W49499  37.576  21.652  11.497
89755W        W49500  11.659  44.282  13.321
89756W        W49501  23.997  31.973  11.875
89757W        W49502  15.144  14.227   4.281
89758W        W49503  35.564   2.865  12.432
89759W        W49504  13.808  40.831   2.662
89760W        W49505   7.866  12.340   0.729
89761W        W49506  42.477  21.197  12.469
89762W        W49507  14.796  26.475  10.971
89763W        W49508   4.355  25.528   4.687
89764W        W49509  10.357  27.968   2.883
89765W        W49510  30.582  17.237  13.381
89766W        W49511  12.357  12.164   1.904
89767W        W49512  28.170  31.980   1.784
89768W        W49513  42.897  10.733   3.203
89769W        W49514  17.177  18.553   2.292
89770W        W49515  28.185  35.599   0.473
89771W        W49516  30.132  16.169  13.015
89772W        W49517  14.232  27.079  14.773
89773W        W49518   6.305  40.817  13.998
89774W        W49519  41.434   5.794  11.443
89775W        W49520  22.546  33.910  13.048
89776W        W49521  19.082  23.168   3.701
89777W        W49522  18.140   6.797  13.330
89778W        W49523   9.307  27.083   4.670
89779W        W49524  42.410  31.133  10.058
89780W        W49525  15.230  31.023  10.964
89781W        W49526  39.538  23.064   4.831
89782W        W49527  37.962  44.849   3.188
89783W        W49528   9.878   1.830   3.637
89784W        W49529  12.683  17.078  12.456
89785W        W49530   7.888   3.884   1.741
89786W        W49531  10.205  42.778   1.312
89787W        W49532   8.676  30.943  12.853
89788W        W49533  17.765  39.946  13.423
89789W        W49534  38.866  17.755  11.543
89790W        W49535  20.564  15.680   4.831
89791W        W49536  21.074  24.533   1.852
89792W        W49537  22.036  36.065  13.884
89793W        W49538  44.366  17.593  13.838
89794W        W49539   9.784   9.245   1.908
89795W        W49540  11.829   5.903  13.527
89796W        W49541   8.179  36.575   4.230
89797W        W49542   7.260  37.368   2.858
89798W        W49543  35.448  42.802   0.811
89799W        W49544  39.386   4.379  11.538
89800W        W49545  20.761  14.241   4.727
89801W        W49546  23.627   8.382   1.348
89802W        W49547  39.065  35.553  13.521
89803W        W49548  21.199  19.541   1.707
89804W        W49549  11.720  35.976   3.336
89805W        W49550  25.471  24.047   3.834
89806W        W49551   7.348  34.098  11.091
89807W        W49552  17.266  38.450   2.672
89808W        W49553   9.719  36.913  12.856
89809W        W49554   7.354  38.339   4.707
89810W        W49555  10.229   7.788   1.244
89811W        W49556  39.963  34.439   3.380
89812W        W49557  31.985   0.830   1.228
89813W        W49558  40.543  13.723  11.547
89814W        W49559  21.152  16.274  10.515
89815W        W49560   9.202  33.936   4.215
89816W        W49561  12.801   3.445   2.344
89817W        W49562  39.314  36.894   2.235
89818W        W49563  17.158  28.965   1.340
89819W        W49564  33.096   4.263   1.836
89820W        W49565  27.649  44.428  12.986
89821W        W49566   7.869   1.782  13.058
89822W        W49567  18.237   7.754  13.488
89823W        W49568   3.925  40.477  10.084
89824W        W49569  16.307  20.539  11.055
89825W        W49570  14.238  42.874   0.781
89826W        W49571   9.214  34.579   0.262
89827W        W49572  15.590  42.992   2.184
89828W        W49573  20.610  20.645   2.356
89829W        W49574   5.848  36.868  11.381
89830W        W49575   6.278  41.011  12.498
89831W        W49576  22.600   4.924   5.292
89832W        W49577  10.353  37.859  10.445
89833W        W49578  19.577   7.856   0.880
89834W        W49579  13.652  21.166   2.229
89835W        W49580  35.005  32.957  12.525
89836W        W49581  30.982   3.318  12.970
89837W        W49582  34.374  18.652  12.481
89838W        W49583   3.426  42.312   4.271
89839W        W49584  36.428  14.267   1.394
89840W        W49585  16.662  43.337   1.723
89841W        W49586  36.591  23.672   0.457
89842W        W49587  14.173   6.191   2.901
89843W        W49588  37.391  32.919  14.477
89844W        W49589  25.609  25.713   3.768
89845W        W49590   7.339  42.288   0.429
89846W        W49591  22.733  30.602  11.464
89847W        W49592   1.769  39.979   0.427
89848W        W49593   4.700  17.749   4.115
89849W        W49594  28.122  15.809  14.341
89850W        W49595  36.385   1.882  10.997
89851W        W49596  20.614  42.436   2.354
89852W        W49597  41.302  24.104  11.070
89853W        W49598  19.061   5.869   1.377
89854W        W49599  21.074  30.097   0.386
89855W        W49600  44.367  33.937  13.052
89856W        W49601  16.684  32.051  11.063
89857W        W49602  10.772  42.355  14.970
89858W        W49603  23.004  23.059   0.439
89859W        W49604  40.931  27.981  12.950
89860W        W49605   4.775   6.891  12.528
89861W        W49606  30.065  30.954   3.269
89862W        W49607  33.066  10.210  13.879
89863W        W49608  13.349  26.046  14.439
89864W        W49609  32.074  29.631   1.215
89865W        W49610  27.620   9.855  12.426
89866W        W49611   0.823  14.794   2.821
89867W        W49612  31.113  12.709  12.876
89868W        W49613   3.349  19.737   9.981
89869W        W49614  44.422  34.923  12.978
89870W        W49615  20.076  37.869   3.632
89871W        W49616   2.447  38.477  14.503
89872W        W49617  38.841  12.225  10.445
89873W        W49618  39.838  23.659   2.727
89874W        W49619   6.189  26.663   1.225
89875W        W49620  19.555  32.452   2.700
89876W        W49621   4.274  42.350   4.212
89877W        W49622   7.203  26.609  11.380
89878W        W49623   3.316  19.201  14.895
89879W        W49624  23.728  32.986   4.683
89880W        W49625   7.707  23.196  11.546
89881W        W49626  27.986  24.201   4.327
89882W        W49627  41.388  28.998   1.239
89883W        W49628  23.501   1.372   2.201
89884W        W49629  34.553  16.121   3.675
89885W        W49630  27.970   0.943   1.451
89886W        W49631  42.013   9.665  13.501
89887W        W49632  11.826  37.023   3.741
89888W        W49633  20.253   8.316  10.481
89889W        W49634  33.909  20.123   0.400
89890W        W49635  44.951  41.863  13.984
89891W        W49636  29.086  24.507   2.364
89892W        W49637  22.134  35.041   4.245
89893W        W49638  13.211  31.587   1.750
89894W        W49639  42.332  28.955  13.420
89895W        W49640  43.335   0.369   4.292
89896W        W49641   9.331  28.643   1.740
89897W        W49642  18.219  21.128  13.449
89898W        W49643  33.977  20.144  13.827
89899W        W49644  36.983  26.579   0.864
89900W        W49645   8.764  25.026  12.831
89901W        W49646  18.628   2.288   1.826
89902W        W49647  34.424  34.051  12.519
89903W        W49648  17.147  16.808  10.611
89904W        W49649  39.015  20.104   3.754
89905W        W49650   8.204  41.032   1.886
89906W        W49651  38.518  39.999   2.252
89907W        W49652  28.651  39.354   0.779
89908W        W49653   6.827  24.179  12.972
89909W        W49654  26.671  43.845  10.563
89910W        W49655   9.732   9.240  12.390
89911W        W49656  35.490  35.506   4.600
89912W        W49657   5.352   6.219   3.166
89913W        W49658  20.566  31.133  14.416
89914W        W49659  33.449  44.332  11.883
89915W        W49660   7.709  38.490  14.812
89916W        W49661  18.695   6.914   2.805
89917W        W49662  16.613   2.446  13.408
89918W        W49663  23.568  22.543  12.391
89919W        W49664  13.242  35.859  12.920
89920W        W49665  42.879  27.467  12.073
89921W        W49666  21.680   7.313  11.580
89922W        W49667  17.693  25.207  13.474
89923W        W49668  23.216  15.313  14.404
89924W        W49669  10.833  31.639  13.971
89925W        W49670  13.816  35.938   2.853
89926W        W49671  27.136   6.404  13.427
89927W        W49672  23.060   3.305   5.316
89928W        W49673  20.098  27.978  12.520
89929W        W49674  24.531  39.891  13.869
89930W        W49675  39.357  14.756  10.547
89931W        W49676  44.387  39.949  12.505
89932W        W49677  36.891  14.643   2.192
89933W        W49678  44.806  10.359  12.026
89934W        W49679  37.409  15.214   4.191
89935W        W49680  30.067  32.889  12.858
89936W        W49681  29.955  44.887  10.611
89937W        W49682  15.808  42.300  11.080
89938W        W49683   5.862  30.975   3.149
89939W        W49684  44.389   0.395   0.900
89940W        W49685  14.285  10.644  14.890
89941W        W49686  35.458  12.755   1.328
89942W        W49687  18.757   1.303   2.802
89943W        W49688  26.645  24.176  11.932
89944W        W49689  34.081  16.568   0.403
89945W        W49690   6.832  23.106  14.374
89946W        W49691  32.460   0.336  13.850
89947W        W49692  17.794  39.498  11.963
89948W        W49693  28.952  26.607  13.537
89949W        W49694  36.403  34.546  13.367
89950W        W49695   2.300  28.542  10.429
89951W        W49696  17.228  18.293   2.769
89952W        W49697   6.859  32.393   1.866
89953W        W49698  27.179  27.499   4.677
89954W        W49699   8.655  38.883  11.902
89955W        W49700  13.198  20.240   3.817
89956W        W49701  44.501  20.028  10.906
89957W        W49702   6.817  25.619  14.884
89958W        W49703  44.492  22.724  11.405
89959W        W49704  33.011   4.828   3.642
89960W        W49705  28.099  21.261   3.352
89961W        W49706  25.560  37.456  14.829
89962W        W49707  19.156  10.724  11.599
89963W        W49708  12.693  28.439   1.371
89964W        W49709  21.617  35.385  13.459
89965W        W49710   4.801   6.736   0.263
89966W        W49711  19.654  21.078   2.850
89967W        W49712   2.314  37.984  10.966
89968W        W49713   9.822  20.617   1.739
89969W        W49714  27.675  19.736   1.232
89970W        W49715  11.169   0.756   2.867
89971W        W49716  35.863   6.187  12.444
89972W        W49717   9.290  22.722  14.968
89973W        W49718  35.907   0.887  13.903
89974W        W49719  23.679  34.005   3.284
89975W        W49720  21.599   0.421   9.987
89976W        W49721   3.927  26.510  14.373
89977W        W49722  21.720  16.174  13.313
89978W        W49723  22.660  42.426  11.078
89979W        W49724   0.968   1.919   4.288
89980W        W49725  26.127   7.765  14.810
89981W        W49726  43.876  20.084  11.027
89982W        W49727  26.963  19.539  10.476
89983W        W49728  34.874  28.642   5.289
89984W        W49729   3.938  37.008   2.321
89985W        W49730  38.923  17.174   4.720
89986W        W49731   8.718  13.737  11.585
89987W        W49732  25.495   9.690  14.996
89988W        W49733  30.127  22.608   1.223
89989W        W49734  29.460  26.693  13.967
89990W        W49735  35.511   6.798  10.932
89991W        W49736  15.150  41.492  12.085
89992W        W49737  30.500   6.690   4.213
89993W        W49738  44.351   7.774   1.758
89994W        W49739  43.836  31.973  14.447
89995W        W49740  37.347  17.130   0.475
89996W        W49741  38.908  19.594  10.136
89997W        W49742  43.960   0.418   3.746
89998W        W49743  33.985  16.076   0.386
89999W        W49744  15.618  42.389   3.836
90000W        W49745  22.701  25.489  14.014
90001W        W49746  43.984  36.546  11.895
90002W        W49747  23.138  40.389  13.990
90003W        W49748  35.926  15.221   3.255
90004W        W49749  27.941  10.238  13.803
90005W        W49750  27.515  22.182  14.977
90006W        W49751   1.472  39.442  10.632
90007W        W49752  17.710  14.251  13.368
90008W        W49753  15.201  20.204   3.762
90009W        W49754  28.169  38.008   1.442
90010W        W49755  25.190  17.261   2.356
90011W        W49756  12.330  14.328  13.979
90012W        W49757  35.023  34.383   4.731
90013W        W49758  14.199  24.510   3.677
90014W        W49759  38.979  13.208   0.443
90015W        W49760  17.066  26.459  12.069
90016W        W49761   5.731  29.551  14.789
90017W        W49762  30.472   4.704  13.343
90018W        W49763  31.474  36.398  12.365
90019W        W49764  18.196  26.125  14.297
90020W        W49765   7.175  28.001   1.391
90021W        W49766   8.369  36.397   3.747
90022W        W49767   7.829  33.565   2.862
90023W        W49768  20.522  37.988  10.904
90024W        W49769  20.040  41.845  10.597
90025W        W49770  29.056   7.211  11.049
90026W        W49771  23.602  32.056  11.090
90027W        W49772  22.020  37.445   3.360
90028W        W49773  33.092  10.327  13.492
90029W        W49774  20.661  15.225   1.885
90030W        W49775  23.241  26.159  13.054
90031W        W49776  40.035  31.097   3.822
90032W        W49777  43.866  32.454   1.251
90033W        W49778   6.313   9.264   0.483
90034W        W49779  10.768  43.400   2.184
90035W        W49780   9.738  20.189  11.451
90036W        W49781   5.391   9.657   3.782
90037W        W49782  40.546  20.263   4.807
90038W        W49783   3.886  11.141  10.464
90039W        W49784  18.276  26.691   2.242
90040W        W49785  36.928  37.460  14.279
90041W        W49786  12.750  43.388  14.906
90042W        W49787  32.434   6.188   2.842
90043W        W49788  36.538  38.537   2.715
90044W        W49789  19.540  30.145   1.237
90045W        W49790  41.901  21.568  10.464
90046W        W49791  30.599  18.245  14.400
90047W        W49792   4.829  30.077  11.918
90048W        W49793  27.673  29.452   5.321
90049W        W49794  10.727  43.398   3.190
90050W        W49795   1.370  20.701   2.339
90051W        W49796  42.849  38.920   2.345
90052W        W49797  25.031  33.083   5.154
90053W        W49798  15.643  14.292   5.088
90054W        W49799  20.676  26.664   5.192
90055W        W49800  22.700  38.021  14.847
90056W        W49801  36.989  30.575   1.318
90057W        W49802  37.508  35.499  13.973
90058W        W49803  25.704  30.658   0.805
90059W        W49804   1.455  24.644   2.788
90060W        W49805  39.479  26.507   0.287
90061W        W49806  24.563  34.473  11.403
90062W        W49807   0.279  18.242  13.312
90063W        W49808  23.732  29.970   5.654
90064W        W49809  24.521  11.277  12.399
90065W        W49810  14.304  34.902  13.999
90066W        W49811   2.837   8.746  13.989
90067W        W49812   6.783  31.971   1.914
90068W        W49813  18.642  31.566  13.928
90069W        W49814  16.218  10.683  14.300
90070W        W49815  14.670  10.302   2.371
90071W        W49816  20.253  27.973  11.464
90072W        W49817  16.666  34.426  10.998
90073W        W49818  22.083  19.142  11.950
90074W        W49819  34.554   9.721   3.279
90075W        W49820   4.425   2.829  11.878
90076W        W49821  44.470  32.447   0.436
90077W        W49822  37.878  16.284  10.990
90078W        W49823  32.431  24.691  11.961
90079W        W49824   0.441  30.534   1.755
90080W        W49825  36.044   9.831   2.202
90081W        W49826  15.787  39.537  12.069
90082W        W49827  11.681  43.899  14.776
90083W        W49828  21.189  19.134   4.290
90084W        W49829  39.345  22.105   0.774
90085W        W49830  16.804  19.608   4.146
90086W        W49831  42.942   7.214   4.347
90087W        W49832   4.217  17.188  13.969
90088W        W49833   5.878   7.763  12.992
90089W        W49834   6.396  35.363  12.472
90090W        W49835  12.738  42.422   1.840
90091W        W49836  33.575  32.420   2.677
90092W        W49837  31.048   1.357   4.196
90093W        W49838  32.109  10.179  14.504
90094W        W49839  42.300  23.511   1.238
90095W        W49840  25.620   5.429   3.750
90096W        W49841  32.916  21.048  12.481
90097W        W49842  27.958   4.266   9.648
90098W        W49843  44.886  43.801   3.782
90099W        W49844  33.113  43.793   2.392
90100W        W49845  40.499   2.720   0.279
90101W        W49846  12.723   8.164  13.546
90102W        W49847  18.283  19.627   1.930
90103W        W49848  26.039  15.640  10.565
90104W        W49849  37.943   3.268   0.915
90105W        W49850  30.542  16.294  14.481
90106W        W49851  38.007  25.625   2.855
90107W        W49852  29.998  34.967  11.391
90108W        W49853  20.260  38.375  14.499
90109W        W49854  35.912  32.947  10.572
90110W        W49855  24.600  43.961  13.863
90111W        W49856  35.969  17.264   3.666
90112W        W49857  35.929  38.878   2.779
90113W        W49858  19.552  44.490   4.629
90114W        W49859   5.765   1.255  11.970
90115W        W49860  22.025  26.598  13.841
90116W        W49861   5.692  26.489   1.733
90117W        W49862  15.142  12.224  11.490
90118W        W49863   7.684  26.485  14.496
90119W        W49864  39.327  42.922  14.867
90120W        W49865  38.038  42.887  13.955
90121W        W49866  29.587  27.672   1.852
90122W        W49867  38.537  27.194  11.476
90123W        W49868  33.902  39.010  14.464
90124W        W49869  10.654  12.240   2.812
90125W        W49870   8.810   6.208   3.850
90126W        W49871  38.841  26.695  11.596
90127W        W49872   9.163  34.016   2.832
90128W        W49873   6.887  22.596  14.305
90129W        W49874  32.616  26.120  13.008
90130W        W49875  14.143  20.054  11.950
90131W        W49876  41.990   0.406  11.958
90132W        W49877  25.973   2.470  12.412
90133W        W49878  30.609  14.137  11.492
90134W        W49879  42.816  13.192   1.919
90135W        W49880  35.935  32.391   2.390
90136W        W49881  17.739  38.871  13.903
90137W        W49882   9.149  25.065  11.004
90138W        W49883   5.897  28.550   1.345
90139W        W49884  20.625  22.048   4.691
90140W        W49885  31.023   9.721  12.953
90141W        W49886   0.806   0.893  14.834
90142W        W49887   0.794  31.628  14.901
90143W        W49888  19.726   9.686  12.431
90144W        W49889  26.479   2.228  12.831
90145W        W49890  41.790  36.991  14.389
90146W        W49891  42.357   4.332   3.349
90147W        W49892  39.835  44.397   0.268
90148W        W49893  43.998   4.758  13.962
90149W        W49894  36.916  20.631   5.269
90150W        W49895  27.480  21.592   0.327
90151W        W49896  31.622   1.442   2.820
90152W        W49897  13.722  20.692  12.854
90153W        W49898  35.049  25.106  10.054
90154W        W49899   4.889  39.032  12.061
90155W        W49900   4.246  26.088  11.919
90156W        W49901  24.560  26.111  12.051
90157W        W49902  20.092   8.791   0.885
90158W        W49903  18.219  10.818   2.887
90159W        W49904  14.774  40.027   9.973
90160W        W49905  16.672  22.504  13.840
90161W        W49906  22.564  30.926   1.916
90162W        W49907  33.918  17.798   3.774
90163W        W49908  27.021  43.973  11.014
90164W        W49909  41.322  10.236  12.462
90165W        W49910  43.986  16.647  11.039
90166W        W49911  16.660   7.341  12.380
90167W        W49912  43.501  18.560  10.068
90168W        W49913  32.914  17.675  14.912
90169W        W49914  23.578  19.238   2.305
90170W        W49915   4.912  40.037   4.793
90171W        W49916  38.530  16.762   4.783
90172W        W49917  33.586   6.755   1.339
90173W        W49918  36.087  14.127  12.966
90174W        W49919  20.674  26.676  14.425
90175W        W49920   5.367  29.560   4.764
90176W        W49921   1.402  40.049  10.931
90177W        W49922  14.284  16.218  10.963
90178W        W49923  34.949  13.694   2.724
90179W        W49924  23.170  22.101  12.976
90180W        W49925  16.242  38.054  11.864
90181W        W49926  36.983   3.399   2.767
90182W        W49927   2.935   7.676   1.849
90183W        W49928  35.532  27.127   4.772
90184W        W49929   8.729  13.252  11.014
90185W        W49930  19.041  34.962  14.427
90186W        W49931  12.204  28.125   3.247
90187W        W49932   4.698  44.459  11.880
90188W        W49933  33.901  11.828  12.383
90189W        W49934  44.433  11.133  14.816
90190W        W49935   5.366  18.281  13.378
90191W        W49936  27.060  16.599   9.953
90192W        W49937  38.836  37.500   1.365
90193W        W49938   3.767  36.981  12.086
90194W        W49939  19.633   1.238  14.509
90195W        W49940   3.753  13.732   2.314
90196W        W49941  38.543  18.754  12.067
90197W        W49942   3.312  33.912  10.943
90198W        W49943  11.748  27.641  12.412
90199W        W49944  19.094  17.767  11.586
90200W        W49945  32.396  11.177   2.342
90201W        W49946  37.973  27.959  14.852
90202W        W49947  12.754  24.533   3.810
90203W        W49948  44.979  24.587   4.334
90204W        W49949  35.432  13.649  14.814
90205W        W49950   9.770  15.774   1.844
90206W        W49951  29.973  38.460   4.754
90207W        W49952  34.915  15.741   5.261
90208W        W49953  32.026  25.008   4.214
90209W        W49954  20.238  35.103  12.387
90210W        W49955  39.322  41.309   1.874
90211W        W49956  24.611   0.761   9.604
90212W        W49957  22.544  27.011   4.821
90213W        W49958  38.461  21.583   4.693
90214W        W49959   3.275  44.505   4.648
90215W        W49960  27.078  12.790  14.478
90216W        W49961  27.137  20.085  10.905
90217W        W49962  27.120  22.543  12.975
90218W        W49963   3.756   3.842   3.244
90219W        W49964   9.270  11.198   0.931
90220W        W49965  33.965  23.566   0.399
90221W        W49966  33.977  12.801   2.192
90222W        W49967  32.492   1.327   4.753
90223W        W49968   2.427  24.547  13.979
90224W        W49969  17.079   7.199   2.898
90225W        W49970  41.473  23.536   2.667
90226W        W49971  42.816  39.887  14.986
90227W        W49972   3.434  15.587   3.167
90228W        W49973  26.580  27.948   2.815
90229W        W49974   1.898  34.533  12.444
90230W        W49975  37.856  27.576   3.167
90231W        W49976  15.655  20.713   1.825
90232W        W49977   6.223  27.114   4.123
90233W        W49978  24.030  21.246   0.353
90234W        W49979  23.575   8.704   3.243
90235W        W49980  10.768  17.602  13.478
90236W        W49981  22.181  36.378  13.387
90237W        W49982  17.795  16.100   2.709
90238W        W49983   7.262  41.384   0.289
90239W        W49984   8.783  12.807   2.661
90240W        W49985   8.758  20.033   1.265
90241W        W49986  35.505   6.247   5.089
90242W        W49987  15.666  30.546   3.342
90243W        W49988   4.260  38.914   1.262
90244W        W49989   4.300  14.193   2.419
90245W        W49990  21.246   3.328   3.766
90246W        W49991  16.663  29.619  12.045
90247W        W49992  20.689  34.513  13.805
90248W        W49993  24.109  42.484   3.185
90249W        W49994  42.923  27.123   4.651
90250W        W49995  27.034  10.216  13.825
90251W        W49996  35.414   1.945   2.400
90252W        W49997  14.184  40.939   2.391
90253W        W49998  23.149  10.368   4.123
90254W        W49999  30.044  42.356  12.384
90255W        W50000   3.242   0.865   4.699
90256W        W50001  34.492  42.441   3.164
90257W        W50002  30.068  27.465  11.881
90258W        W50003  29.669  33.878  10.477
90259W        W50004  42.026  20.132  13.506
90260W        W50005  14.832   4.269  10.595
90261W        W50006  37.492  21.535   0.372
90262W        W50007  40.043  43.927  10.628
90263W        W50008  16.276   4.832  10.140
90264W        W50009  34.937  40.811   2.796
90265W        W50010  43.391  21.219  10.505
90266W        W50011  20.158   3.778  14.444
90267W        W50012  38.554  24.097   2.262
90268W        W50013  16.731  41.837  13.886
90269W        W50014  21.050  43.001   3.749
90270W        W50015  26.182   4.781  11.408
90271W        W50016  10.842  35.558   3.702
90272W        W50017  39.437  33.094   1.881
90273W        W50018   0.794  33.567   3.822
90274W        W50019  20.653  42.004  12.905
90275W        W50020  18.188  44.483  14.856
90276W        W50021  30.122  15.256  13.041
90277W        W50022  35.889  38.062  14.761
90278W        W50023  28.599  34.446   1.301
90279W        W50024  10.732  40.949  10.432
90280W        W50025  33.602   8.253  13.925
90281W        W50026  36.091  10.648   4.174
90282W        W50027  32.100  24.025  13.831
90283W        W50028  10.309  38.997   1.785
90284W        W50029   7.266  23.121   2.245
90285W        W50030  11.746  31.110   2.193
90286W        W50031  41.971  37.088   2.889
90287W        W50032  41.467  28.000  10.961
90288W        W50033  14.782  20.611  12.419
90289W        W50034  31.411  25.207   2.259
90290W        W50035  34.875  38.900  12.941
90291W        W50036  25.707  18.250  14.444
90292W        W50037  17.642  16.683  13.879
90293W        W50038  14.784  38.957  13.346
90294W        W50039  16.172  41.400  14.865
90295W        W50040  12.304  19.279   2.344
90296W        W50041   6.411   1.805   3.631
90297W        W50042  42.357  19.775   4.125
90298W        W50043  36.395  16.160   2.893
90299W        W50044  12.816  33.980  14.972
90300W        W50045  15.295  10.147   0.279
90301W        W50046  35.526   5.709   4.298
90302W        W50047  32.608  21.563   0.812
90303W        W50048  40.484  22.159   1.420
90304W        W50049  14.712   8.168  14.325
90305W        W50050  40.948  23.213   2.825
90306W        W50051  30.948   2.328  12.459
90307W        W50052   1.859  38.522   2.233
90308W        W50053  23.616   5.918   4.322
90309W        W50054  44.896  33.121  13.895
90310W        W50055  24.095  44.396   1.388
90311W        W50056   4.919   8.816   1.332
90312W        W50057  15.269  12.305  13.900
90313W        W50058  19.243  11.771   4.123
90314W        W50059  11.194  35.907  12.969
90315W        W50060  28.121  27.187   1.244
90316W        W50061  18.124  37.460  14.767
90317W        W50062  25.518   1.748  12.829
90318W        W50063  41.856  31.071  13.012
90319W        W50064   0.950  37.844  12.446
90320W        W50065   6.376  13.763  10.991
90321W        W50066  38.895   7.828  13.912
90322W        W50067  23.151  16.584   2.324
90323W        W50068  34.990  19.118   0.395
90324W        W50069  36.379  10.372  12.886
90325W        W50070  32.524   2.261   0.277
90326W        W50071   7.304  32.611  12.967
90327W        W50072  42.466  44.976  13.864
90328W        W50073   0.366  34.406  14.331
90329W        W50074   5.408   9.202   0.271
90330W        W50075  42.014  38.344   0.894
90331W        W50076  12.795  40.433   4.354
90332W        W50077   9.295  14.233   3.237
90333W        W50078   7.721  22.059  13.923
90334W        W50079  24.097  28.105  13.050
90335W        W50080   1.377  28.109   2.266
90336W        W50081  25.712  26.483  11.945
90337W        W50082  38.562   6.799   3.689
90338W        W50083  44.795  43.322   3.656
90339W        W50084   4.801   7.207  14.432
90340W        W50085  44.358  22.615  12.379
90341W        W50086  42.526  17.184  12.841
90342W        W50087  24.195  41.521   1.864
90343W        W50088  25.997  25.065   2.266
90344W        W50089  39.525   7.264  12.895
90345W        W50090  13.644  27.086   0.916
90346W        W50091  12.827   3.743  10.909
90347W        W50092  42.962  44.789   3.793
90348W        W50093  11.778   2.829  14.858
90349W        W50094  44.283  25.595  11.442
90350W        W50095  12.711  29.138  14.503
90351W        W50096  10.863  37.973   0.773
90352W        W50097  14.688  16.216  12.386
90353W        W50098  13.830  10.314  11.866
90354W        W50099  12.174  15.250   4.638
90355W        W50100  44.946  35.572   3.154
90356W        W50101  27.472  44.271   0.269
90357W        W50102   7.306  14.724  14.304
90358W        W50103   7.891  32.033  14.947
90359W        W50104  10.644  36.526  13.824
90360W        W50105  34.433  37.451  10.435
90361W        W50106  38.005  10.297   4.236
90362W        W50107  40.435  19.255  14.484
90363W        W50108  10.293  15.205  11.981
90364W        W50109  18.129   9.330  14.938
90365W        W50110  34.934   6.811   4.812
90366W        W50111  18.183  38.977   0.783
90367W        W50112  20.180   8.188   4.255
90368W        W50113  12.683  38.998  13.489
90369W        W50114  31.424  18.651   2.300
90370W        W50115  24.013  21.735   2.839
90371W        W50116  19.234  28.050  13.386
90372W        W50117   1.919   9.395  10.566
90373W        W50118  11.190   1.355  13.831
90374W        W50119  34.088  30.451  11.062
90375W        W50120  24.217   9.265   2.748
90376W        W50121   3.387  17.294  13.548
90377W        W50122  12.834  16.765  10.963
90378W        W50123  10.843  25.670   1.735
90379W        W50124  27.592  15.182  10.517
90380W        W50125   0.922  16.223  12.017
90381W        W50126  22.706  32.634   2.857
90382W        W50127  39.478  23.211  11.896
90383W        W50128  37.947  18.568   4.610
90384W        W50129  12.771   6.725   0.259
90385W        W50130  23.182  31.525   0.860
90386W        W50131  21.150  22.614  12.347
90387W        W50132  28.005  24.988   0.806
90388W        W50133  13.683  35.865  12.995
90389W        W50134  21.626  31.563   0.474
90390W        W50135  12.317  16.078   4.634
90391W        W50136  42.309  23.582  11.495
90392W        W50137  32.502  42.940   9.955
90393W        W50138  38.484  41.422   2.851
90394W        W50139  32.966  26.019   2.764
90395W        W50140  44.485   5.254   0.293
90396W        W50141  11.240   5.289   3.664
90397W        W50142  19.712  40.920   2.758
90398W        W50143  31.465  42.930   2.355
90399W        W50144  32.601  44.321  12.573
90400W        W50145  15.750  28.648  14.316
90401W        W50146  15.188  19.583   4.666
90402W        W50147  34.991  22.121   2.244
90403W        W50148  17.166  28.590   1.718
90404W        W50149  35.388  24.223  13.924
90405W        W50150  19.593   1.389   2.870
90406W        W50151   4.836  32.610   3.789
90407W        W50152   4.800   4.739   2.299
90408W        W50153  27.659  24.186   1.271
90409W        W50154  13.844   5.364  11.465
90410W        W50155  40.844  13.694  13.369
90411W        W50156   1.976  27.504  12.394
90412W        W50157  22.113  12.746   1.392
90413W        W50158  33.097   8.369   1.906
90414W        W50159  36.969  22.051   0.915
90415W        W50160  34.467  17.672   0.331
90416W        W50161   9.268  23.718   2.272
90417W        W50162  15.157   6.419   4.255
90418W        W50163  30.065  36.507  12.942
90419W        W50164   4.434  26.104  12.992
90420W        W50165   0.960  17.564   3.774
90421W        W50166  35.893  38.467  12.964
90422W        W50167  25.072  18.640  13.906
90423W        W50168  44.801  19.742  11.974
90424W        W50169   8.324  20.100   4.115
90425W        W50170  32.472  30.977  12.027
90426W        W50171  29.617  10.713   4.142
90427W        W50172   5.423  13.780  13.027
90428W        W50173  34.055   2.285   0.295
90429W        W50174  23.678  40.018   3.843
90430W        W50175   8.192  28.522  12.000
90431W        W50176   5.717   7.760  11.982
90432W        W50177  23.611  33.606  13.371
90433W        W50178   0.431  28.554   9.503
90434W        W50179  20.104   0.309   2.892
90435W        W50180  11.241  27.011  10.532
90436W        W50181  18.272  13.175   1.791
90437W        W50182  22.995  39.877   3.857
90438W        W50183  23.081  29.611   0.913
90439W        W50184  12.226  37.383  11.076
90440W        W50185  21.198  16.184  14.771
90441W        W50186  13.813   2.440   3.763
90442W        W50187  19.733   1.371  13.318
90443W        W50188  37.042  17.744   0.902
90444W        W50189  40.842  42.916  14.818
90445W        W50190  21.560  25.111  11.920
90446W        W50191  41.936  24.482   1.885
90447W        W50192  41.870   2.430  10.975
90448W        W50193  40.885   5.262   3.711
90449W        W50194  40.818  42.845   4.343
90450W        W50195  34.883  24.066   1.449
90451W        W50196  44.366  12.659  10.529
90452W        W50197  31.552  34.866  14.950
90453W        W50198  13.691   5.432  11.970
90454W        W50199  12.197  26.976  11.870
90455W        W50200  22.161  35.986  14.794
90456W        W50201  28.092  40.516   3.225
90457W        W50202  43.922  37.971   2.897
90458W        W50203  22.071  18.774   0.878
90459W        W50204   3.736  11.686   4.804
90460W        W50205  42.988   1.446  11.463
90461W        W50206   6.359  17.289  12.019
90462W        W50207  31.064  14.617   4.634
90463W        W50208  33.095   2.373   3.360
90464W        W50209   1.929  30.112  13.440
90465W        W50210  19.245  36.988   1.366
90466W        W50211  25.156  38.376  10.442
90467W        W50212  25.657  34.550   3.839
90468W        W50213  16.127   3.328   2.782
90469W        W50214   0.250  15.651  11.582
90470W        W50215  19.593  13.600  11.074
90471W        W50216  31.062  41.384  11.477
90472W        W50217  10.735  14.337   4.139
90473W        W50218  18.668  43.283  10.529
90474W        W50219  17.284  33.387   1.816
90475W        W50220  44.468  12.848  11.098
90476W        W50221  17.181  37.419   0.882
90477W        W50222  16.181   9.799  12.539
90478W        W50223  22.231   6.411   1.814
90479W        W50224  20.037   8.230   2.346
90480W        W50225  11.343  42.474   3.224
90481W        W50226   6.894  17.790   4.192
90482W        W50227  10.143  14.196   3.176
90483W        W50228  28.641  10.716   2.793
90484W        W50229  44.976  21.212   1.779
90485W        W50230  41.414  25.070   0.272
90486W        W50231  38.330  18.295   4.625
90487W        W50232   3.920  28.672   1.440
90488W        W50233  28.160   2.802  10.545
90489W        W50234  16.315  26.599  13.002
90490W        W50235  16.178  23.704  13.386
90491W        W50236   4.937  38.494   0.396
90492W        W50237   6.829  30.099  13.341
90493W        W50238  43.451  44.500   1.867
90494W        W50239   9.208   6.303  14.961
90495W        W50240   7.767  42.916   2.770
90496W        W50241  39.048  23.608   0.362
90497W        W50242   0.455  11.754  13.332
90498W        W50243  36.479  23.222  14.347
90499W        W50244  16.277   3.443  13.914
90500W        W50245  33.436   6.896  13.796
90501W        W50246  44.917  21.107  14.398
90502W        W50247  21.032  42.933  14.475
90503W        W50248  15.211  37.905   3.206
90504W        W50249  44.811  21.652   1.866
90505W        W50250  17.718  43.788   3.788
90506W        W50251  20.237  38.006   4.677
90507W        W50252  25.188   7.317  13.313
90508W        W50253  29.992   0.897  11.496
90509W        W50254  18.113  32.411   0.880
90510W        W50255   1.961  43.295   1.734
90511W        W50256  29.601  10.211  14.002
90512W        W50257  37.374  16.667   2.809
90513W        W50258   1.737  15.279   4.777
90514W        W50259   3.301  30.453  14.397
90515W        W50260  42.496  33.554   1.211
90516W        W50261  42.413  30.926   3.715
90517W        W50262  33.989  35.386   3.226
90518W        W50263   5.234  30.513  11.021
90519W        W50264  34.571  23.196  10.550
90520W        W50265  38.427  17.188  13.450
90521W        W50266  24.028  30.142  10.059
90522W        W50267  28.590   6.869  14.917
90523W        W50268   5.411  34.964   0.342
90524W        W50269  41.484  36.389   3.854
90525W        W50270  44.454  35.852   3.206
90526W        W50271   1.243  35.513  10.494
90527W        W50272  34.943  18.659   4.760
90528W        W50273   7.272  10.182   3.374
90529W        W50274   4.866  34.439   1.835
90530W        W50275  12.675   6.309  12.504
90531W        W50276  33.605   4.215  10.079
90532W        W50277   2.967  43.323   0.945
90533W        W50278  34.004  43.821   1.381
90534W        W50279   8.170  43.768  12.830
90535W        W50280  19.108  35.042  11.908
90536W        W50281   6.421  31.087   1.772
90537W        W50282  30.945  34.398  12.092
90538W        W50283  37.834  43.432  13.502
90539W        W50284  12.854  18.216   2.279
90540W        W50285  33.973   7.308  11.908
90541W        W50286  31.969  23.076  14.312
90542W        W50287  32.107   4.903  13.482
90543W        W50288   6.214  44.847   4.195
90544W        W50289  28.954   3.834  10.411
90545W        W50290  32.424   0.413   1.436
90546W        W50291  34.485  40.343   2.706
90547W        W50292  42.032  14.187  14.423
90548W        W50293  40.954  26.662  12.027
90549W        W50294  26.468  21.647   3.146
90550W        W50295   1.453   4.900  10.923
90551W        W50296  22.066  37.552  13.880
90552W        W50297  33.414   6.847  14.817
90553W        W50298  36.962  35.963   3.706
90554W        W50299   8.813   9.381  13.474
90555W        W50300  18.081  24.216   0.290
90556W        W50301  17.262  27.612  11.425
90557W        W50302  40.389  40.474   0.748
90558W        W50303  39.520  30.022   3.864
90559W        W50304  32.110  26.492   9.949
90560W        W50305   8.284  13.620   0.856
90561W        W50306  15.329  11.671   3.315
90562W        W50307  14.635  30.614  14.838
90563W        W50308  16.227  17.117   4.630
90564W        W50309  27.005   7.677  14.404
90565W        W50310  10.690  12.779  13.507
90566W        W50311  30.134  41.036   3.242
90567W        W50312  33.463  22.588  10.069
90568W        W50313  20.072  18.611  12.553
90569W        W50314   6.339   3.937  11.920
90570W        W50315  26.128  15.235  13.344
90571W        W50316  11.193   9.845   4.625
90572W        W50317   9.209  38.970   4.244
90573W        W50318  26.129  37.569  13.856
90574W        W50319  11.636  34.982  10.901
90575W        W50320  11.687  34.399   0.906
90576W        W50321  37.506  15.638  11.952
90577W        W50322  16.266  12.694   3.856
90578W        W50323  20.222  35.546  14.458
90579W        W50324  28.657  35.404   4.690
90580W        W50325  41.000  42.355  11.905
90581W        W50326  27.600  24.525  14.373
90582W        W50327   5.340   1.308  14.766
90583W        W50328  14.239   7.883  12.042
90584W        W50329  16.572  42.872   3.654
90585W        W50330  30.971  15.809   4.720
90586W        W50331   1.916  13.111   1.901
90587W        W50332  12.215  34.545   4.769
90588W        W50333  32.408  40.802   0.397
90589W        W50334   1.889  17.610   3.655
90590W        W50335  25.572  41.497  10.088
90591W        W50336  30.524  30.482   2.272
90592W        W50337  11.685  37.452  10.951
90593W        W50338  19.549  19.651   0.837
90594W        W50339   7.822   5.872  13.985
90595W        W50340  28.180   6.795  14.888
90596W        W50341  38.988   0.434  11.965
90597W        W50342  36.888  24.487   1.397
90598W        W50343  33.527  32.048  13.835
90599W        W50344  20.535  33.428   0.384
90600W        W50345  10.743   1.776   2.844
90601W        W50346  44.885  25.122   5.090
90602W        W50347   2.260  34.921  11.124
90603W        W50348  27.536  42.962   0.309
90604W        W50349  16.088  29.487  14.432
90605W        W50350   5.381  20.113  14.873
90606W        W50351  44.849  15.611   5.180
90607W        W50352  19.265   0.492   5.306
90608W        W50353  30.458  24.024   1.409
90609W        W50354  11.693  16.202   3.776
90610W        W50355  37.520  21.259   0.280
90611W        W50356  41.386  17.558   2.815
90612W        W50357  11.732  29.645  12.486
90613W        W50358  23.147   9.203  12.942
90614W        W50359  40.935  41.301   4.311
90615W        W50360  18.778  17.603  13.462
90616W        W50361  44.498  40.047   1.309
90617W        W50362   3.410  42.915   2.288
90618W        W50363  41.005  40.389   0.854
90619W        W50364   6.420   1.404  13.337
90620W        W50365  10.186  37.947  12.029
90621W        W50366   0.336  29.980   3.253
90622W        W50367  35.504  22.047  11.896
90623W        W50368  24.700  43.903  14.311
90624W        W50369  26.123  27.528   3.174
90625W        W50370  31.485  20.028   0.726
90626W        W50371   3.882  36.504  14.427
90627W        W50372  41.976  28.115   2.808
90628W        W50373  44.422  33.535   2.347
90629W        W50374   2.442  36.061  12.846
90630W        W50375  39.879  11.282  14.841
90631W        W50376  14.831  31.556   1.387
90632W        W50377  21.253  22.686   1.431
90633W        W50378  43.359  41.007   3.758
90634W        W50379  35.946   8.797  14.948
90635W        W50380  25.710  12.337   2.902
90636W        W50381  39.479  41.538   3.662
90637W        W50382  10.182  18.281   4.328
90638W        W50383   0.865   3.231   3.337
90639W        W50384  27.490  21.189   1.895
90640W        W50385   8.264  20.651  13.876
90641W        W50386  33.493  17.078  11.942
90642W        W50387  14.779  11.796  13.909
90643W        W50388  33.971  18.219  14.876
90644W        W50389  32.555  18.084  12.054
90645W        W50390   3.228  33.610   1.694
90646W        W50391  39.336  10.229   0.469
90647W        W50392  30.144   2.732   3.343
90648W        W50393  11.128  18.142  14.369
90649W        W50394  31.576  37.444  10.958
90650W        W50395   9.699  34.467   1.738
90651W        W50396  12.301   6.187   1.324
90652W        W50397  21.614  21.065  14.855
90653W        W50398   9.658   2.454  11.438
90654W        W50399  25.115  17.078   3.799
90655W        W50400  32.431   7.281  10.999
90656W        W50401  14.833  10.245   1.905
90657W        W50402   3.765   1.248  14.027
90658W        W50403  12.259  20.580  12.560
90659W        W50404   6.850  21.254  11.105
90660W        W50405  31.075  31.420   4.150
90661W        W50406   6.387  30.933   3.345
90662W        W50407  12.362   5.274   2.868
90663W        W50408  20.702  18.757  13.965
90664W        W50409   7.201  43.866  10.946
90665W        W50410   2.961  22.228  10.118
90666W        W50411  24.130  19.753   2.707
90667W        W50412   8.846   2.336   1.854
90668W        W50413  20.534  38.551   0.422
90669W        W50414  17.077   5.817   4.229
90670W        W50415  13.221  33.031  10.042
90671W        W50416  17.253  17.226   0.768
90672W        W50417   8.388  28.081  10.593
90673W        W50418  12.283  22.544   0.254
90674W        W50419   9.291  14.752   1.307
90675W        W50420  23.676  18.293  14.985
90676W        W50421   3.402  15.181   4.608
90677W        W50422  23.118  36.970   0.402
90678W        W50423  31.094  32.433  12.006
90679W        W50424   3.374  10.301   0.830
90680W        W50425  26.997  27.083   0.477
90681W        W50426  34.505  26.168   2.774
90682W        W50427  10.778  41.797   1.928
90683W        W50428  13.131   1.829  11.515
90684W        W50429   6.421  32.408   1.272
90685W        W50430  43.401   4.927  10.029
90686W        W50431   6.712  11.862  12.917
90687W        W50432  42.017  42.361  14.424
90688W        W50433  12.679  15.262  14.488
90689W        W50434  12.791  19.185   0.960
90690W        W50435   5.313   4.260  11.518
90691W        W50436  27.475  17.303   2.311
90692W        W50437  23.647  26.555  12.037
90693W        W50438  25.190   1.474  11.493
90694W        W50439  15.631  21.179  13.054
90695W        W50440  26.185  28.654   4.247
90696W        W50441  40.967   9.842  13.464
90697W        W50442   0.961  15.763   5.179
90698W        W50443  37.360  16.124  12.904
90699W        W50444   1.374  12.837   1.811
90700W        W50445  28.443  22.641   2.687
90701W        W50446   7.749  40.994   3.741
90702W        W50447  40.304  28.152  13.008
90703W        W50448  35.896  41.437  14.828
90704W        W50449  33.496  21.535  14.276
90705W        W50450  25.181  15.781   3.194
90706W        W50451  19.242  39.059  10.906
90707W        W50452  34.518  44.856  11.901
90708W        W50453  13.140   8.228  14.816
90709W        W50454  44.911  21.096  11.407
90710W        W50455  31.978  38.494   2.827
90711W        W50456  25.563  41.870  11.518
90712W        W50457  25.206  29.078  10.607
90713W        W50458   7.405  37.400   3.221
90714W        W50459  18.131  22.026   2.685
90715W        W50460  27.539   7.882   0.424
90716W        W50461   7.782  19.137   1.915
90717W        W50462  15.797  27.510  10.124
90718W        W50463   1.893  43.387   0.301
90719W        W50464  43.814  15.744   3.672
90720W        W50465   7.843  37.566  13.999
90721W        W50466   8.750  40.054   1.422
90722W        W50467  12.343  16.603   2.881
90723W        W50468  38.899   0.865   0.371
90724W        W50469  20.630  43.398  14.835
90725W        W50470  29.131  29.588  12.994
90726W        W50471  26.092   4.435  12.840
90727W        W50472  23.121  30.589   0.860
90728W        W50473  40.954  28.509   4.168
90729W        W50474  33.432  12.731   9.993
90730W        W50475  34.104  10.324  14.010
90731W        W50476  24.998   3.794   3.643
90732W        W50477   1.818  12.824   2.278
90733W        W50478  37.938  11.743  10.099
90734W        W50479  18.759   9.864   0.476
90735W        W50480  21.032  33.582  11.595
90736W        W50481   8.250   5.200   2.733
90737W        W50482  15.175  21.537  13.903
90738W        W50483  26.628   3.346   1.446
90739W        W50484  29.024  26.057  13.545
90740W        W50485  10.243  24.129   2.678
90741W        W50486  19.677  32.418  11.559
90742W        W50487  11.127  14.155   0.743
90743W        W50488  44.812  11.680   4.751
90744W        W50489  21.757  35.514  12.513
90745W        W50490  42.485  20.139  14.802
90746W        W50491  38.543  41.515  10.526
90747W        W50492   9.328  15.624   4.250
90748W        W50493  30.131   7.886   2.816
90749W        W50494  15.291   6.308   4.717
90750W        W50495  30.455  35.483  11.988
90751W        W50496  10.756  30.146   1.325
90752W        W50497  24.209  39.429   2.813
90753W        W50498  23.634  21.263   0.445
90754W        W50499  30.973  30.119   4.134
90755W        W50500   7.684  35.029   0.766
90756W        W50501  37.581  16.707  11.386
90757W        W50502  36.545  42.320  10.943
90758W        W50503  33.588   7.794  13.940
90759W        W50504  44.284   3.735  11.429
90760W        W50505   9.860   3.397  12.498
90761W        W50506   6.798  23.122   0.847
90762W        W50507  26.460  17.300  14.886
90763W        W50508   3.733  13.781  12.864
90764W        W50509  35.510  25.048  13.390
90765W        W50510  17.275  15.162   0.381
90766W        W50511  33.418  40.856  13.877
90767W        W50512  42.843  35.409  11.897
90768W        W50513  35.940  11.838   3.240
90769W        W50514   5.882   4.836   1.218
90770W        W50515   9.728   8.246   4.651
90771W        W50516  30.023  16.786  13.836
90772W        W50517  33.596   4.401   2.861
90773W        W50518  27.626   8.348   1.711
90774W        W50519   5.826  36.374   4.315
90775W        W50520   4.450  32.086  13.947
90776W        W50521  24.548  35.536  11.879
90777W        W50522  26.501   4.342  14.789
90778W        W50523  13.740  29.986   4.310
90779W        W50524  15.217   7.867   4.669
90780W        W50525   0.900   8.297   4.712
90781W        W50526  26.486  26.150   0.762
90782W        W50527  12.301  23.545  13.886
90783W        W50528  17.080  44.953  13.943
90784W        W50529   2.924  36.539  14.438
90785W        W50530  15.294  12.731  11.998
90786W        W50531  40.871  33.395   3.639
90787W        W50532  21.757   1.872  11.392
90788W        W50533  28.438   8.266  12.921
90789W        W50534   2.300  13.181  12.413
90790W        W50535  32.117  39.324  13.374
90791W        W50536   4.932   1.818  14.769
90792W        W50537  39.545   4.938  11.037
90793W        W50538  40.327  25.686   3.648
90794W        W50539  14.832  22.573  13.871
90795W        W50540   9.257  33.458  11.537
90796W        W50541  10.771  22.156   3.307
90797W        W50542  14.330  37.887  14.935
90798W        W50543  32.502  36.501  13.418
90799W        W50544  19.183   7.888  14.447
90800W        W50545  18.607   4.800   3.223
90801W        W50546  42.332  27.645   0.303
90802W        W50547  32.911  44.943  13.453
90803W        W50548   9.856  15.143  11.398
90804W        W50549  42.809  41.481  11.447
90805W        W50550  44.938  13.251  13.041
90806W        W50551  39.968  40.989  12.928
90807W        W50552  15.591  36.025  12.078
90808W        W50553  33.478   7.326  13.854
90809W        W50554  17.629  31.423  13.411
90810W        W50555   7.300   4.907   4.732
90811W        W50556  26.608  20.723   4.120
90812W        W50557  44.914   6.834   3.667
90813W        W50558  37.549  17.758  13.044
90814W        W50559  22.044  25.600  10.909
90815W        W50560  16.106  13.260   4.233
90816W        W50561  36.402  17.093   3.316
90817W        W50562  16.110  42.923   1.866
90818W        W50563  18.715  35.930   2.266
90819W        W50564  37.968  39.834   4.232
90820W        W50565  10.304   6.823   4.809
90821W        W50566   1.264  27.661  14.799
90822W        W50567  14.243  27.947  14.968
90823W        W50568   9.366   1.324   3.345
90824W        W50569  16.189  15.150   2.715
90825W        W50570  24.132  10.234   0.932
90826W        W50571  14.280  40.034   3.723
90827W        W50572  31.403   3.865   2.253
90828W        W50573  12.274   4.891  14.515
90829W        W50574   3.461   6.407  13.543
90830W        W50575  37.872  38.466   1.252
90831W        W50576  18.770   8.757   4.743
90832W        W50577  42.427   6.841  13.464
90833W        W50578  10.289  26.700  12.068
90834W        W50579  38.998  38.389  10.909
90835W        W50580  22.621  13.649   2.208
90836W        W50581  24.995  12.669  10.903
90837W        W50582  25.560  14.277  14.458
90838W        W50583  28.106  40.974   2.788
90839W        W50584   8.790  41.531  12.024
90840W        W50585  27.084  30.584   3.322
90841W        W50586  16.797  22.167   1.217
90842W        W50587   6.246   0.888  13.410
90843W        W50588  24.050   3.317   4.131
90844W        W50589  10.668  44.799   2.288
90845W        W50590  35.453  23.107  13.864
90846W        W50591  30.923   9.311   1.272
90847W        W50592   8.378   3.358   4.256
90848W        W50593  32.083   3.249  14.985
90849W        W50594  42.785  23.718   0.409
90850W        W50595   7.835  29.617  13.966
90851W        W50596  27.037  23.173  13.967
90852W        W50597  22.114  27.953   0.859
90853W        W50598   0.345  32.094   4.827
90854W        W50599   6.261  38.860  10.442
90855W        W50600   6.867  35.897  14.795
90856W        W50601   4.398   4.437   1.275
90857W        W50602  35.891  28.124  13.369
90858W        W50603  31.149  22.012  14.780
90859W        W50604  19.754  10.267   3.710
90860W        W50605  41.516  15.765  14.291
90861W        W50606  16.607  12.660  14.910
90862W        W50607  32.953  33.083  12.450
90863W        W50608   3.360  13.737  12.057
90864W        W50609  42.784  25.988  13.832
90865W        W50610  16.590   0.470   1.737
90866W        W50611  35.404  43.855   2.312
90867W        W50612  11.642   2.779   2.370
90868W        W50613  38.436   8.744  13.451
90869W        W50614  30.545  19.250   1.784
90870W        W50615  40.465   8.301   3.821
90871W        W50616  17.601  30.541   1.867
90872W        W50617  26.509  32.426   3.841
90873W        W50618  31.992  43.859  10.471
90874W        W50619  38.819  23.094   2.731
90875W        W50620  35.412  44.287   0.940
90876W        W50621  39.024  26.465   2.785
90877W        W50622  14.725  11.667  14.983
90878W        W50623  14.219  27.024  13.364
90879W        W50624  23.006  42.906  14.474
90880W        W50625  10.765   3.779  12.838
90881W        W50626   2.813  22.521  14.284
90882W        W50627  31.586  34.869   2.865
90883W        W50628   2.462  12.727  14.466
90884W        W50629  22.689  39.913  12.450
90885W        W50630  14.155  23.626   4.302
90886W        W50631  18.591  14.748  12.002
90887W        W50632  44.942  27.649   3.360
90888W        W50633  29.135  30.578   2.820
90889W        W50634  25.041   1.958   4.652
90890W        W50635  21.595  19.277  14.011
90891W        W50636  12.345  37.050  13.973
90892W        W50637  25.629  27.690   4.310
90893W        W50638   4.206  11.854   0.418
90894W        W50639  27.529   0.909   2.207
90895W        W50640   7.884  24.696   3.640
90896W        W50641  30.506  22.573   1.905
90897W        W50642  15.237  21.215  10.904
90898W        W50643  31.070  32.958   3.290
90899W        W50644  16.247  26.207   3.187
90900W        W50645   0.776  21.685   2.382
90901W        W50646  19.229  14.290  14.347
90902W        W50647  24.056  17.636   4.714
90903W        W50648  38.874  29.428   2.903
90904W        W50649  27.454  24.520   3.758
90905W        W50650  17.674  15.262   4.253
90906W        W50651  43.324  22.589  11.507
90907W        W50652  22.009   7.887  11.928
90908W        W50653  18.186  42.312  12.063
90909W        W50654  20.187  28.581   4.705
90910W        W50655  37.037   8.728   4.242
90911W        W50656  25.608  23.203   2.852
90912W        W50657  25.496   0.295   0.821
90913W        W50658  13.225  23.656  13.967
90914W        W50659  20.661  28.585  11.495
90915W        W50660  14.805  17.134   2.726
90916W        W50661  42.940  27.137  10.425
90917W        W50662  26.558  30.077   1.793
90918W        W50663   5.836  38.004  12.867
90919W        W50664  31.003  42.949   1.777
90920W        W50665  39.908  39.497   4.194
90921W        W50666  36.998  15.286  14.810
90922W        W50667  43.956  11.833  14.911
90923W        W50668   8.234  44.379  12.865
90924W        W50669  15.274   2.824  13.518
90925W        W50670   8.327  11.367   1.422
90926W        W50671  11.812   4.432  11.457
90927W        W50672  44.290  23.704  14.424
90928W        W50673  17.270  16.084   1.814
90929W        W50674   8.399  44.278   0.415
90930W        W50675  24.009  35.062   0.860
90931W        W50676  22.745  27.486   4.352
90932W        W50677  37.877  27.188   1.233
90933W        W50678  25.132  37.003   0.960
90934W        W50679  15.642   8.332   3.824
90935W        W50680  34.057   7.908   1.911
90936W        W50681   7.722   4.722   0.797
90937W        W50682  42.851  36.981   3.765
90938W        W50683   6.391   3.439  11.065
90939W        W50684  36.942   1.937   1.304
90940W        W50685  33.587  12.806   3.694
90941W        W50686  26.972  25.025   0.797
90942W        W50687  39.525   0.748  13.524
90943W        W50688  37.555   2.440  10.428
90944W        W50689  23.043  18.668  13.318
90945W        W50690   4.246   4.270   4.745
90946W        W50691   6.215  35.090   1.800
90947W        W50692   1.762  14.245   1.700
90948W        W50693  24.199   8.171  13.980
90949W        W50694  12.697  38.956   2.738
90950W        W50695  39.327  37.468  12.476
90951W        W50696  17.692  44.793   0.408
90952W        W50697   5.395  36.982   3.228
90953W        W50698   7.242  14.216   3.792
90954W        W50699  10.762  28.174  14.411
90955W        W50700  15.208  19.674  13.492
90956W        W50701  30.949   4.393   3.643
90957W        W50702   3.856  21.146   1.875
90958W        W50703  16.199   5.301  14.012
90959W        W50704  13.678  39.981   9.616
90960W        W50705  34.517   5.739   5.231
90961W        W50706  24.053  13.262  14.974
90962W        W50707  17.219  28.659  14.836
90963W        W50708  15.629  14.141  11.902
90964W        W50709  29.489  36.357  12.900
90965W        W50710   3.945  36.494   1.322
90966W        W50711   8.281  35.359   3.836
90967W        W50712  34.959  14.206   4.276
90968W        W50713  11.747  19.561  13.004
90969W        W50714  21.535  43.943   4.810
90970W        W50715  12.670  31.979   0.354
90971W        W50716  25.620  36.977  13.979
90972W        W50717   0.266  38.952   1.417
90973W        W50718   9.281   6.295  11.501
90974W        W50719   4.732  16.800   0.326
90975W        W50720  42.982  43.868  14.423
90976W        W50721  38.538   5.418   3.806
90977W        W50722  35.396  27.023  12.031
90978W        W50723  43.476  15.629  13.315
90979W        W50724  41.035  36.905  11.598
90980W        W50725  14.274  41.436  12.395
90981W        W50726  15.706   3.809  14.984
90982W        W50727  29.524   1.895  11.608
90983W        W50728  37.513  42.371  11.032
90984W        W50729  15.171  18.778  13.876
90985W        W50730  35.896   5.933   4.771
90986W        W50731  31.996  15.097   1.316
90987W        W50732   3.843  10.759  14.436
90988W        W50733  31.080  25.480   4.343
90989W        W50734  39.556   8.319  11.466
90990W        W50735  17.104  31.931   2.325
90991W        W50736  40.413  28.014   2.799
90992W        W50737  41.456   5.698   4.636
90993W        W50738  13.121  11.724  14.963
90994W        W50739  34.032  37.485   2.294
90995W        W50740  12.332  20.117   2.811
90996W        W50741  35.938  17.658  13.058
90997W        W50742  33.124  42.899  11.869
90998W        W50743  19.685   4.904  12.530
90999W        W50744   9.202  30.918   4.194
91000W        W50745  44.293  18.737   3.330
91001W        W50746  21.517  44.956  12.390
91002W        W50747  26.010  29.561  11.081
91003W        W50748  37.859   5.710   1.282
91004W        W50749  39.054  27.618  13.948
91005W        W50750  41.973  17.092  12.907
91006W        W50751  38.848  24.005   3.773
91007W        W50752  22.101   2.903  10.128
91008W        W50753   3.270  38.891  10.461
91009W        W50754   0.914  29.126   0.841
91010W        W50755  26.158  17.784  10.087
91011W        W50756  37.015  37.992   1.717
91012W        W50757  41.368  19.238   3.712
91013W        W50758  11.862   5.347  14.413
91014W        W50759   7.368   6.412  10.413
91015W        W50760   7.885  32.543   4.629
91016W        W50761  37.935  10.723   0.323
91017W        W50762  30.624   1.838  13.791
91018W        W50763  38.013  10.647   0.886
91019W        W50764  23.518  20.236  14.775
91020W        W50765  18.062  28.044   3.341
91021W        W50766  26.518  12.759  13.872
91022W        W50767  11.196   2.753  14.818
91023W        W50768  37.336   3.256   1.289
91024W        W50769   6.250   3.791   1.782
91025W        W50770  41.436  42.321   2.669
91026W        W50771  41.302  26.594  14.849
91027W        W50772   2.243   7.279  10.601
91028W        W50773   7.806   2.898  13.505
91029W        W50774  10.158  32.421   1.278
91030W        W50775  29.102  21.677  13.319
91031W        W50776   6.766  36.080   3.846
91032W        W50777   3.948  44.914  14.923
91033W        W50778  17.594  44.894  13.493
91034W        W50779  37.877  15.649  13.924
91035W        W50780   2.290   6.876  11.456
91036W        W50781   1.360   4.416  11.060
91037W        W50782   6.722  31.998   0.741
91038W        W50783  27.466  22.087   0.451
91039W        W50784   8.254  31.144   1.317
91040W        W50785  41.930  41.339   5.146
91041W        W50786  42.919  26.084   0.745
91042W        W50787  33.615  32.137  11.957
91043W        W50788  10.686   4.298   3.287
91044W        W50789  37.963  33.038   2.679
91045W        W50790  36.890  20.635  13.320
91046W        W50791  30.083  41.998   1.217
91047W        W50792   1.354  16.583   5.121
91048W        W50793   3.724   4.406   1.359
91049W        W50794  15.698  28.573  11.551
91050W        W50795  10.690  28.591   0.246
91051W        W50796   3.837  29.650   0.727
91052W        W50797  32.586   4.733   0.431
91053W        W50798   0.403  34.939  11.463
91054W        W50799  40.901   2.824  12.033
91055W        W50800  30.506  39.345   4.145
91056W        W50801  43.873  21.129  11.574
91057W        W50802  32.903  42.318   3.148
91058W        W50803   4.247  36.877  11.475
91059W        W50804  44.893  23.163   2.807
91060W        W50805  19.266   9.853   2.707
91061W        W50806  38.450   8.258  11.599
91062W        W50807  32.578  19.073  10.559
91063W        W50808  27.506   4.372  13.904
91064W        W50809   0.744  25.213   0.946
91065W        W50810   4.221   0.456  14.012
91066W        W50811  18.099  28.490   2.754
91067W        W50812  11.824  32.493  12.088
91068W        W50813  31.512  39.935  14.788
91069W        W50814  18.127  11.282   4.114
91070W        W50815   3.796   4.351   4.729
91071W        W50816  14.198   1.466  12.965
91072W        W50817  42.829  20.596  13.974
91073W        W50818   9.333  24.708   0.356
91074W        W50819  27.655  30.480   4.610
91075W        W50820  32.633  42.842   0.401
91076W        W50821  24.683  15.312  14.391
91077W        W50822  15.771  23.063  12.394
91078W        W50823  26.196  32.607  10.449
91079W        W50824  20.769   3.363   1.723
91080W        W50825  31.541  42.348  12.874
91081W        W50826   8.295  31.414  12.020
91082W        W50827  12.242  32.007  11.510
91083W        W50828  13.706  27.514   3.274
91084W        W50829  19.093  14.268  13.991
91085W        W50830  15.797  10.344   2.890
91086W        W50831   1.397   3.797   1.377
91087W        W50832  37.506  33.060   1.448
91088W        W50833   6.402  38.465  10.453
91089W        W50834  38.948  41.893   4.186
91090W        W50835   0.967   2.777   3.654
91091W        W50836  27.058   5.393   0.323
91092W        W50837  18.559  39.461  12.438
91093W        W50838  35.499  40.007   2.837
91094W        W50839   2.350  10.164   2.378
91095W        W50840  19.564  22.069  14.304
91096W        W50841  11.296  31.455   4.793
91097W        W50842  18.722  28.029  10.508
91098W        W50843  13.686  30.522  14.825
91099W        W50844  20.587  32.521  10.478
91100W        W50845  29.092  27.159   1.817
91101W        W50846   9.266  29.423  12.083
91102W        W50847  36.074   1.814   0.829
91103W        W50848  15.709  19.095   0.880
91104W        W50849   1.761  36.515  12.459
91105W        W50850  18.751   0.979   4.251
91106W        W50851   8.223  20.756   3.830
91107W        W50852  44.883  30.004  13.345
91108W        W50853   2.449  15.224  12.064
91109W        W50854  26.656  39.517   2.341
91110W        W50855   0.489  25.180   2.799
91111W        W50856  43.800  29.161  12.965
91112W        W50857  12.718   5.430   2.198
91113W        W50858  33.468  34.919   3.276
91114W        W50859  11.815  40.448  14.298
91115W        W50860   6.321  41.314   1.808
91116W        W50861  36.537  20.138  11.944
91117W        W50862   2.378  39.516  12.508
91118W        W50863   1.771  21.532  14.009
91119W        W50864  10.275   0.394   2.827
91120W        W50865   1.965  20.258  14.353
91121W        W50866   3.907  17.062   0.258
91122W        W50867  31.480  15.128   4.682
91123W        W50868  25.078  35.506   1.361
91124W        W50869  31.537  42.892  11.104
91125W        W50870  41.936   4.415  11.520
91126W        W50871  40.931  25.544   3.156
91127W        W50872  28.522   7.241  11.088
91128W        W50873  10.710  17.196  13.335
91129W        W50874  25.183   5.784  14.945
91130W        W50875  35.574  27.991  13.881
91131W        W50876  44.805   0.353   4.745
91132W        W50877   6.836  41.849  13.419
91133W        W50878  12.854   2.316   3.684
91134W        W50879   4.903   1.409  14.442
91135W        W50880   9.876  13.687   2.295
91136W        W50881   3.382  26.055   1.316
91137W        W50882  30.477  14.322   4.140
91138W        W50883  43.454  30.010  13.472
91139W        W50884  22.226  22.164  13.823
91140W        W50885  34.917  14.608  11.900
91141W        W50886   8.284  11.764   3.773
91142W        W50887  36.075  37.567   4.599
91143W        W50888  27.003  21.097  13.013
91144W        W50889  18.595  33.472  10.054
91145W        W50890  27.610  36.423   2.202
91146W        W50891  28.629  40.852  13.355
91147W        W50892  36.498   5.833   1.280
91148W        W50893  38.460  22.503   2.330
91149W        W50894  23.012  32.422  12.483
91150W        W50895   3.219   5.258  14.455
91151W        W50896  40.806   1.786   0.448
91152W        W50897  26.029  43.311  13.026
91153W        W50898  21.143  10.378   0.870
91154W        W50899  18.121  18.700   1.711
91155W        W50900  41.846  40.842  13.800
91156W        W50901  24.542  32.523  13.815
91157W        W50902   1.744  26.064  13.956
91158W        W50903  34.478   1.432  14.467
91159W        W50904  38.020   6.901   2.697
91160W        W50905  10.653  16.091  12.454
91161W        W50906  42.476  40.474   4.118
91162W        W50907  38.982   7.361   4.241
91163W        W50908  41.303  40.385   4.836
91164W        W50909   5.356  41.979  11.593
91165W        W50910  10.778   9.677   4.692
91166W        W50911  35.076   8.812  11.457
91167W        W50912   1.851  30.943   2.727
91168W        W50913  10.154  27.940  10.615
91169W        W50914  33.991   4.290   5.735
91170W        W50915  18.632  34.580   4.812
91171W        W50916  35.862  18.288  10.911
91172W        W50917  19.249  26.040   3.853
91173W        W50918  43.764  13.350   1.447
91174W        W50919   1.960  41.831  13.951
91175W        W50920  10.337   7.748   1.791
91176W        W50921   6.349  36.553  13.833
91177W        W50922   4.853  24.577   3.717
91178W        W50923  43.428  21.089  12.897
91179W        W50924  32.429   8.711  10.911
91180W        W50925  26.540  31.411  12.950
91181W        W50926  42.296  13.834   1.356
91182W        W50927  13.629   1.934   4.308
91183W        W50928  27.471  33.516   1.775
91184W        W50929  38.525  11.353   0.294
91185W        W50930  18.555  38.952  12.905
91186W        W50931   9.333  12.660   1.767
91187W        W50932   0.418  24.157   1.898
91188W        W50933   4.943  33.949  10.539
91189W        W50934  43.889   9.384  14.856
91190W        W50935  43.963  24.480   0.755
91191W        W50936   2.398  28.640  13.808
91192W        W50937   4.328  29.547  10.526
91193W        W50938  11.279   8.677   3.206
91194W        W50939  25.136  19.186   0.946
91195W        W50940  12.218  35.932  12.378
91196W        W50941  39.813  32.496  10.443
91197W        W50942   5.251  16.216   2.222
91198W        W50943  12.260  43.941   4.623
91199W        W50944  16.627   9.873   4.147
91200W        W50945  27.091  26.082   0.931
91201W        W50946  35.033  19.122  13.890
91202W        W50947  31.061  37.028   3.164
91203W        W50948  38.438  18.711  14.802
91204W        W50949   4.377  43.375   1.405
91205W        W50950  39.390  11.748  13.447
91206W        W50951  15.766  16.180  14.807
91207W        W50952   1.300  10.262   5.151
91208W        W50953  34.913   6.779   2.900
91209W        W50954  34.065   4.395  10.910
91210W        W50955  43.440  43.939   0.477
91211W        W50956  32.403  21.580   4.756
91212W        W50957  31.428   9.237   1.713
91213W        W50958  20.254  38.401   3.760
91214W        W50959  43.941  26.634  14.476
91215W        W50960  30.490  15.665   4.628
91216W        W50961   5.782   0.749   2.316
91217W        W50962   5.735  20.691   3.265
91218W        W50963  33.563  31.416   1.344
91219W        W50964  30.074  39.823   1.445
91220W        W50965   3.400  24.995   1.839
91221W        W50966  44.842   4.878  10.958
91222W        W50967   9.214  13.148  14.376
91223W        W50968  20.229   2.253  10.961
91224W        W50969  13.210  21.253   3.667
91225W        W50970  17.613  22.649  10.983
91226W        W50971  30.111  40.928   3.649
91227W        W50972   5.765   7.757   3.188
91228W        W50973  40.543   9.670  10.462
91229W        W50974  15.792  44.276   5.162
91230W        W50975  21.102  23.575  12.072
91231W        W50976  44.360   5.865   3.243
91232W        W50977  26.464  18.629  12.452
91233W        W50978  15.317  33.528  14.508
91234W        W50979  34.036  33.974   2.698
91235W        W50980  39.419  42.519   0.354
91236W        W50981   1.919  21.568   3.381
91237W        W50982  33.889  26.966   3.211
91238W        W50983  44.954  33.459  14.335
91239W        W50984  31.036   7.908  14.785
91240W        W50985  21.110   2.878  12.480
91241W        W50986  16.260  18.671  14.482
91242W        W50987  35.886  10.698   3.717
91243W        W50988  21.193  39.948   2.201
91244W        W50989  35.986  36.559  13.841
91245W        W50990  22.198   8.391  10.556
91246W        W50991  28.438   8.708  12.038
91247W        W50992   3.269  13.630  11.046
91248W        W50993  18.270  37.371   3.668
91249W        W50994  34.937  26.504   3.292
91250W        W50995  42.914  38.529   0.334
91251W        W50996  27.084  32.586   4.704
91252W        W50997  17.092   3.807  14.881
91253W        W50998   8.399  29.123   3.668
91254W        W50999   6.332  24.051  11.379
91255W        W51000  38.942  20.170   2.295
91256W        W51001   1.806   2.756   2.780
91257W        W51002  44.997  12.229   2.233
91258W        W51003  24.086   8.233  11.970
91259W        W51004  30.650   8.773   3.241
91260W        W51005  29.969  43.876  14.391
91261W        W51006  37.413  31.577   1.444
91262W        W51007  34.077  30.536  13.823
91263W        W51008   8.822  18.746   4.268
91264W        W51009  28.066   1.801   4.740
91265W        W51010  31.060  42.476  10.937
91266W        W51011  23.229  22.058   1.825
91267W        W51012   7.895  19.098  12.444
91268W        W51013  15.780  15.756  11.033
91269W        W51014  13.628  37.875   3.148
91270W        W51015  19.144  15.729   1.297
91271W        W51016  24.663  14.667  13.989
91272W        W51017  43.485  30.915  11.952
91273W        W51018  23.524  32.971   0.318
91274W        W51019  24.499  15.262  12.059
91275W        W51020   4.877  32.917   4.608
91276W        W51021  19.727  25.496   4.195
91277W        W51022   6.743  33.533  14.440
91278W        W51023  26.458  41.426   0.851
91279W        W51024  32.024   7.182  13.449
91280W        W51025  32.442   1.309  13.988
91281W        W51026  44.336  37.347   0.909
91282W        W51027  42.866   4.714   4.721
91283W        W51028  33.385  14.723  10.530
91284W        W51029  15.607  20.622  13.503
91285W        W51030  17.738  26.703  14.463
91286W        W51031  31.558  28.546  12.569
91287W        W51032  13.245  29.954  13.837
91288W        W51033  12.831  22.160  10.953
91289W        W51034  44.373  12.707   2.245
91290W        W51035  27.458  23.707  12.566
91291W        W51036   2.961  31.145  14.355
91292W        W51037  41.902  22.681  14.432
91293W        W51038  10.282  24.493   3.713
91294W        W51039  23.536  13.781   0.780
91295W        W51040  34.436   9.783   1.843
91296W        W51041  28.597  36.097  13.344
91297W        W51042  40.456  23.537   1.284
91298W        W51043   0.903   1.338   3.817
91299W        W51044  31.020   5.347   3.736
91300W        W51045  23.998   2.254  14.328
91301W        W51046   0.830  41.985  10.587
91302W        W51047  26.080   3.874   4.711
91303W        W51048  14.631  28.995   3.184
91304W        W51049   9.810  40.489   2.338
91305W        W51050  17.744  21.659   4.607
91306W        W51051  35.932   4.394   3.352
91307W        W51052  39.976  21.743   3.761
91308W        W51053  32.424  40.842   1.297
91309W        W51054  33.586  42.356  13.803
91310W        W51055  19.070  10.235  14.766
91311W        W51056  37.850  14.790   3.675
91312W        W51057  26.639  17.137  13.981
91313W        W51058  13.687   9.230   3.829
91314W        W51059  26.672  14.692   2.858
91315W        W51060  30.622  31.963   3.719
91316W        W51061   5.401  42.871   1.830
91317W        W51062  28.956  27.471   1.325
91318W        W51063  41.490  24.130  11.470
91319W        W51064  27.506  32.959   0.916
91320W        W51065   4.406  19.167  14.790
91321W        W51066  35.943  11.714  10.568
91322W        W51067  40.950  37.859   2.674
91323W        W51068  44.764  43.891   0.812
91324W        W51069  23.164  39.317   3.281
91325W        W51070  40.042  15.154   2.898
91326W        W51071  22.171  39.458  12.411
91327W        W51072  23.499  19.116   2.720
91328W        W51073   1.414   0.751  11.117
91329W        W51074  17.279  23.075  13.926
91330W        W51075   1.814   3.345  10.964
91331W        W51076   7.727  15.751   2.297
91332W        W51077  22.186  20.710  12.923
91333W        W51078   6.843  42.379  10.893
91334W        W51079  40.502  16.644   0.321
91335W        W51080   7.746  31.542  11.570
91336W        W51081  25.473  43.279   0.305
91337W        W51082  31.097   0.450   1.770
91338W        W51083  43.506  34.610  14.760
91339W        W51084  35.418   9.683  10.588
91340W        W51085  23.102   5.214   2.687
91341W        W51086  41.949  36.517  11.380
91342W        W51087   6.307  40.389  10.978
91343W        W51088  17.560  32.497  10.618
91344W        W51089  26.602  38.046   2.765
91345W        W51090  25.478  20.645  10.604
91346W        W51091  34.424  10.685  11.484
91347W        W51092  29.635  22.638   0.804
91348W        W51093   1.842  13.606  12.834
91349W        W51094  18.610  12.723   9.973
91350W        W51095  18.647  10.374   1.316
91351W        W51096  11.148  25.030   3.194
91352W        W51097  29.608  35.446   2.849
91353W        W51098   1.919  38.509   0.799
91354W        W51099   3.268  43.799   4.150
91355W        W51100   6.300  28.968  11.498
91356W        W51101  42.916  35.422  11.068
91357W        W51102  38.457  23.050   2.786
91358W        W51103  33.427   7.381   2.306
91359W        W51104  11.631  16.216   2.350
91360W        W51105  25.713   0.838   4.179
91361W        W51106   2.919  34.924  10.635
91362W        W51107  35.366  35.105   2.252
91363W        W51108  34.434   9.362  14.912
91364W        W51109  30.101   4.724   2.226
91365W        W51110  42.527  14.299  11.008
91366W        W51111  36.083  24.625  13.940
91367W        W51112  34.902  31.471  12.574
91368W        W51113  41.837  25.581   2.252
91369W        W51114   1.953  33.088   0.414
91370W        W51115  33.485  44.334  10.590
91371W        W51116   1.788  10.753   4.780
91372W        W51117  13.805  13.236  13.955
91373W        W51118  42.391  24.074  11.596
91374W        W51119   2.834  40.488  11.960
91375W        W51120  44.974  29.595  14.820
91376W        W51121  37.385  19.534   4.663
91377W        W51122   8.168  40.997  13.991
91378W        W51123  32.563  17.711  12.024
91379W        W51124  36.985  25.664  11.597
91380W        W51125   3.360   6.224   1.740
91381W        W51126  10.803   9.346  14.417
91382W        W51127  40.995  12.798  11.875
91383W        W51128  32.577  13.777   0.828
91384W        W51129  36.588  40.965  12.390
91385W        W51130   7.742   9.855  12.512
91386W        W51131  31.471   4.699   0.292
91387W        W51132  39.445  24.609   1.778
91388W        W51133  12.354  25.656   3.684
91389W        W51134  43.939  42.379   4.772
91390W        W51135  36.053  11.321   1.297
91391W        W51136  25.560  23.144   0.386
91392W        W51137  37.892  33.388   2.337
91393W        W51138  31.550  21.096   3.779
91394W        W51139  43.899  22.580   3.780
91395W        W51140  18.563  29.967  12.561
91396W        W51141  44.917  27.548  14.505
91397W        W51142  13.285   6.215  12.581
91398W        W51143  40.869  35.055  13.912
91399W        W51144   6.367  43.362  12.866
91400W        W51145   5.805   8.671   0.946
91401W        W51146  40.333  43.452  11.551
91402W        W51147  23.710  15.789   0.322
91403W        W51148  31.406  14.216  11.509
91404W        W51149  41.925  28.645  12.918
91405W        W51150  30.516  21.586  10.902
91406W        W51151  44.402  19.073  10.901
91407W        W51152  30.124  30.505   0.729
91408W        W51153  24.691  41.526   2.867
91409W        W51154  29.577  29.511  12.085
91410W        W51155  29.500  31.919   0.274
91411W        W51156   8.406  31.982  13.366
91412W        W51157   5.338  33.973   2.216
91413W        W51158  30.629  30.476  14.879
91414W        W51159   2.903   7.816  14.507
91415W        W51160   9.379  31.043   3.366
91416W        W51161  44.301  35.452   4.114
91417W        W51162   5.746  33.454  11.899
91418W        W51163   9.844  42.972   1.298
91419W        W51164  25.204  17.767  12.424
91420W        W51165   2.948  10.146   4.687
91421W        W51166   3.320   9.873  10.455
91422W        W51167   4.212  20.197   2.811
91423W        W51168  12.770  37.539   0.739
91424W        W51169  36.880   2.942   0.351
91425W        W51170  39.512  29.986   3.297
91426W        W51171  35.577  24.568   2.224
91427W        W51172  15.596  16.222   2.662
91428W        W51173  14.811   0.438  13.868
91429W        W51174  18.563  12.825   5.245
91430W        W51175  37.453  41.526   2.775
91431W        W51176  25.592  12.634   2.402
91432W        W51177  16.653  31.084  11.992
91433W        W51178  28.051   6.700   2.184
91434W        W51179  21.262   2.424  12.037
91435W        W51180  14.264   2.460   4.770
91436W        W51181   7.277  23.116   3.764
91437W        W51182  24.711  27.522  11.471
91438W        W51183   3.787  25.207  11.446
91439W        W51184  43.003  36.025   1.733
91440W        W51185   6.767   4.890   3.296
91441W        W51186  40.820  32.989  13.322
91442W        W51187   4.800  35.951   2.419
91443W        W51188  15.764  11.358  13.540
91444W        W51189  28.613   4.334   1.796
91445W        W51190  43.494  13.659   3.818
91446W        W51191  27.145  40.454   1.384
91447W        W51192  16.798   7.785  14.831
91448W        W51193  31.484  28.155   0.325
91449W        W51194  31.464  29.169   0.961
91450W        W51195  35.030  43.403   0.306
91451W        W51196   6.404  15.176   0.391
91452W        W51197  25.515   4.245   2.392
91453W        W51198  28.002  23.563   9.984
91454W        W51199  30.639  31.057  12.481
91455W        W51200  28.622  20.592  13.826
91456W        W51201  42.793  16.286  10.406
91457W        W51202  12.210  37.855  13.924
91458W        W51203  11.146  18.257  10.481
91459W        W51204  32.890  26.161   1.758
91460W        W51205  43.291   1.426  12.881
91461W        W51206  10.201  30.080  14.488
91462W        W51207  14.732   5.374  14.776
91463W        W51208  22.508  39.512   3.691
91464W        W51209  31.471  26.002   2.886
91465W        W51210  24.026  42.447  11.115
91466W        W51211  28.532  40.496  11.990
91467W        W51212   4.750  19.614   4.662
91468W        W51213   5.412  25.477   2.391
91469W        W51214   3.781  34.446   1.286
91470W        W51215   1.337   3.239  14.788
91471W        W51216  32.100  13.344  13.828
91472W        W51217  10.838  31.023   0.906
91473W        W51218  40.030   4.768   2.229
91474W        W51219  36.519  42.373  12.018
91475W        W51220   5.390  34.010  11.023
91476W        W51221  43.007  22.089   4.308
91477W        W51222  41.295   3.881   4.675
91478W        W51223  44.979  25.605   1.839
91479W        W51224   8.260   0.892   2.365
91480W        W51225  36.464   1.850   0.878
91481W        W51226  44.787  39.996  12.095
91482W        W51227   6.736  37.511   2.804
91483W        W51228  13.700   7.415  11.957
91484W        W51229  40.521   3.421  10.609
91485W        W51230  32.991  41.878   3.219
91486W        W51231  14.153  32.634   1.857
91487W        W51232  26.597  29.107  10.639
91488W        W51233  30.156  35.899  14.905
91489W        W51234   3.271  36.420  11.959
91490W        W51235  21.099   0.341  12.512
91491W        W51236   6.224  25.565   2.244
91492W        W51237  12.723   8.394   4.661
91493W        W51238   3.397  25.091   3.317
91494W        W51239  39.025  40.013  12.875
91495W        W51240  15.661  14.104  11.000
91496W        W51241  16.583   3.400  14.311
91497W        W51242   1.753  32.950  12.873
91498W        W51243  34.383  33.564   2.348
91499W        W51244  25.032  39.559  12.037
91500W        W51245  15.795  26.563   3.354
91501W        W51246  17.757   1.946   4.658
91502W        W51247  34.570  43.299   4.280
91503W        W51248  27.943  27.582   2.693
91504W        W51249  36.453   9.773  14.776
91505W        W51250   0.437  44.343   1.350
91506W        W51251  43.427  11.231   4.224
91507W        W51252  30.567  39.477   3.211
91508W        W51253  15.767  34.605   4.139
91509W        W51254  27.475   5.764  10.605
91510W        W51255  38.841  40.942  12.370
91511W        W51256   3.887  37.063   0.416
91512W        W51257  37.458  44.946  14.856
91513W        W51258  13.677  22.675   2.293
91514W        W51259  36.012  43.324  14.015
91515W        W51260  13.119   4.393   3.294
91516W        W51261  11.278   9.347   2.878
91517W        W51262  38.858  22.739  12.851
91518W        W51263  15.299  37.962   3.717
91519W        W51264  44.373  37.444   0.478
91520W        W51265  27.140  28.106   1.893
91521W        W51266  41.371  13.603  10.469
91522W        W51267   2.297  13.325  10.923
91523W        W51268   7.315  31.110   1.703
91524W        W51269   1.331  35.978   0.833
91525W        W51270  21.237  29.985  11.122
91526W        W51271   8.181  33.470   2.817
91527W        W51272  13.303  18.285  14.966
91528W        W51273  40.335  23.635   1.873
91529W        W51274   6.350   4.942  13.061
91530W        W51275  40.031  22.158  11.472
91531W        W51276  18.668   3.827   0.897
91532W        W51277  12.765  22.734   3.312
91533W        W51278  15.632   1.977  14.442
91534W        W51279   7.909  26.651   4.193
91535W        W51280  12.761  15.650  10.894
91536W        W51281  30.578   4.447  12.053
91537W        W51282  16.778  24.037   0.392
91538W        W51283  21.032  38.877   0.858
91539W        W51284  16.647   6.867   4.826
91540W        W51285  13.129  11.258   0.806
91541W        W51286  23.727  30.547  11.568
91542W        W51287  32.405  28.118  13.397
91543W        W51288  36.024  27.465  10.557
91544W        W51289  36.482  39.515   2.215
91545W        W51290   9.710  39.901  14.975
91546W        W51291  38.893  41.026  12.051
91547W        W51292   4.830   0.456  13.003
91548W        W51293  39.413  25.040   1.750
91549W        W51294   9.780   1.816   1.285
91550W        W51295   7.172  39.939  11.995
91551W        W51296  29.141  15.618  13.041
91552W        W51297   1.825  19.261   3.162
91553W        W51298  10.266  12.307  13.872
91554W        W51299  37.486  28.008  10.975
91555W        W51300  29.001  43.865  11.889
91556W        W51301  22.064  40.305  12.954
91557W        W51302  15.249  12.788  14.483
91558W        W51303  43.504  17.745   4.307
91559W        W51304  39.057  24.999  12.840
91560W        W51305   3.352  40.963  11.875
91561W        W51306  11.221  35.996   0.305
91562W        W51307  35.562  20.200   3.273
91563W        W51308  11.260  16.585   3.340
91564W        W51309  11.345  22.554  14.026
91565W        W51310  35.022  14.669  13.064
91566W        W51311  27.673  41.372   2.732
91567W        W51312   9.282  43.827  12.917
91568W        W51313  20.680   7.321   3.359
91569W        W51314  15.761  10.149  12.480
91570W        W51315  13.301  42.025   3.835
91571W        W51316  43.358   5.813  10.551
91572W        W51317  14.242  33.940   4.166
91573W        W51318  30.595   9.757   3.756
91574W        W51319   8.844   2.837  13.053
91575W        W51320  39.319  29.048   2.191
91576W        W51321  30.598  19.261   0.338
91577W        W51322   3.375  34.486   1.710
91578W        W51323  43.910   2.958  14.424
91579W        W51324  15.667  14.133   2.810
91580W        W51325  19.134  21.081  14.921
91581W        W51326  31.122  32.094   0.405
91582W        W51327   5.273   9.175  13.328
91583W        W51328  42.317  26.192   0.353
91584W        W51329  21.691  35.570  10.428
91585W        W51330  44.489  42.507   4.688
91586W        W51331  44.793   9.344   3.776
91587W        W51332  20.730  10.682   1.909
91588W        W51333  34.020  41.363   4.784
91589W        W51334  22.243   8.719  14.030
91590W        W51335  23.584  38.054  14.807
91591W        W51336  43.406   3.952  10.545
91592W        W51337   1.769  17.660  10.087
91593W        W51338   6.293   6.336  11.889
91594W        W51339  29.598  19.551  12.055
91595W        W51340   6.795  31.922  13.854
91596W        W51341  21.105   4.374   3.868
91597W        W51342  31.938  13.628   3.742
91598W        W51343   1.350  41.339  11.498
91599W        W51344  15.580  42.449  11.467
91600W        W51345   0.819  29.629  13.453
91601W        W51346  13.843  22.151   0.326
91602W        W51347  19.555  37.341  13.538
91603W        W51348  36.852  43.420  10.616
91604W        W51349  41.298  24.101   0.965
91605W        W51350   0.832   4.708  14.990
91606W        W51351   8.767  40.536   3.316
91607W        W51352  24.527  31.036  12.088
91608W        W51353  36.445  18.089  14.844
91609W        W51354  11.853  18.173   4.626
91610W        W51355   0.965  21.199  11.999
91611W        W51356  34.975  28.653   1.793
91612W        W51357  21.106  25.647  10.979
91613W        W51358  18.765  22.690  10.920
91614W        W51359   6.867  14.155   3.295
91615W        W51360  42.873  36.446   3.805
91616W        W51361  35.475  38.409  14.780
91617W        W51362  34.067  23.154   4.772
91618W        W51363  22.095  18.619  13.064
91619W        W51364  34.543  25.537  10.537
91620W        W51365  12.172  22.215  13.893
91621W        W51366  14.765   1.863   0.906
91622W        W51367  43.968  31.596  13.954
91623W        W51368   3.820  35.425  10.081
91624W        W51369  14.674  19.674  11.482
91625W        W51370   7.669   5.789   3.236
91626W        W51371  34.967  11.817  10.619
91627W        W51372  12.301  25.076   1.390
91628W        W51373  38.363  24.002   0.253
91629W        W51374  34.943  12.289   4.114
91630W        W51375  40.023  32.955  13.920
91631W        W51376  12.757  16.314   3.711
91632W        W51377  40.365  34.088  14.913
91633W        W51378  16.077  12.780   2.362
91634W        W51379  30.439  25.047  12.874
91635W        W51380  32.996   0.381  12.952
91636W        W51381   4.827   4.918   5.171
91637W        W51382  22.080  17.619  12.566
91638W        W51383  27.562  15.744  14.820
91639W        W51384  41.898  34.404   1.443
91640W        W51385  22.548  34.911   4.210
91641W        W51386  14.189  32.139  14.814
91642W        W51387  17.278  20.671   3.372
91643W        W51388  37.028  40.449  10.639
91644W        W51389  43.298  18.198   4.162
91645W        W51390  25.477  12.766  13.846
91646W        W51391  38.944   9.336  11.855
91647W        W51392   9.258  30.980  13.958
91648W        W51393  25.176  35.584   3.814
91649W        W51394  23.614   5.862   3.775
91650W        W51395  20.699  34.411   4.237
91651W        W51396  42.447  38.967   2.408
91652W        W51397  10.336   2.414  12.029
91653W        W51398   3.780  37.927   1.879
91654W        W51399  12.665  33.124  10.512
91655W        W51400  39.975  19.634  13.012
91656W        W51401  36.021  34.450   3.665
91657W        W51402  23.119  20.181   0.317
91658W        W51403  25.537  32.141  12.359
91659W        W51404  35.871  18.557  14.982
91660W        W51405  34.042  13.118  11.926
91661W        W51406  14.631  26.494  10.516
91662W        W51407  35.096  43.000  10.161
91663W        W51408  25.626  36.940  11.554
91664W        W51409   2.248  41.364   1.414
91665W        W51410  27.462   0.977   2.887
91666W        W51411   7.381  39.023  12.551
91667W        W51412   8.788  12.163   0.480
91668W        W51413  19.076  18.618  10.891
91669W        W51414  24.164  28.029   5.229
91670W        W51415  37.891  17.165  13.421
91671W        W51416  38.430  37.875   2.793
91672W        W51417  39.502  28.072  12.978
91673W        W51418  39.013  34.016   3.218
91674W        W51419   4.914  42.493   3.284
91675W        W51420  40.515  37.931  11.580
91676W        W51421  13.220  15.087  12.958
91677W        W51422   2.955  40.867   0.958
91678W        W51423   6.372  23.151  13.829
91679W        W51424   2.270  17.206  14.844
91680W        W51425  12.618  33.534   4.692
91681W        W51426   9.732  37.015   1.343
91682W        W51427   9.372  16.171  12.881
91683W        W51428  33.955  18.639  13.041
91684W        W51429  37.081   9.354   2.383
91685W        W51430  13.182  35.012  13.342
91686W        W51431  27.038  42.968   1.379
91687W        W51432  25.565  20.181   1.296
91688W        W51433  16.310  32.044   1.899
91689W        W51434  16.151  20.601   3.763
91690W        W51435  21.632  36.379  11.375
91691W        W51436  16.187  14.300   1.263
91692W        W51437  36.525  10.727  14.975
91693W        W51438  13.719  13.223   4.178
91694W        W51439  35.385  38.931  13.935
91695W        W51440  36.566  38.846   3.362
91696W        W51441  22.231  38.851  14.759
91697W        W51442  16.813   7.338   1.765
91698W        W51443  31.896  30.126   0.803
91699W        W51444  16.626  16.589   4.161
91700W        W51445  11.680   1.875   1.420
91701W        W51446  17.229  38.950   4.609
91702W        W51447  25.589  26.058   4.713
91703W        W51448  24.132  23.708   3.836
91704W        W51449   7.866  24.034  13.019
91705W        W51450  39.326  39.898   2.830
91706W        W51451  34.037  17.155   1.877
91707W        W51452   9.392   3.328  13.819
91708W        W51453  24.017  27.455   4.618
91709W        W51454  29.082  22.745   3.245
91710W        W51455  19.536  26.701  13.822
91711W        W51456  29.140  41.929   3.146
91712W        W51457  39.476  29.037  10.485
91713W        W51458  35.565  23.504  11.069
91714W        W51459  33.054   2.946  14.860
91715W        W51460   8.676  17.110   1.881
91716W        W51461  17.147  15.098  14.980
91717W        W51462  44.277  22.079   3.277
91718W        W51463  26.981  37.389  14.778
91719W        W51464   6.366  12.618   1.713
91720W        W51465   9.232  43.474   0.903
91721W        W51466   9.185   3.460   3.293
91722W        W51467  19.202  29.955   2.717
91723W        W51468  18.072  32.076  12.501
91724W        W51469  20.078  38.957   0.967
91725W        W51470  18.295  29.008   2.194
91726W        W51471  29.971  29.958   0.393
91727W        W51472  44.493  21.236   1.785
91728W        W51473   1.901  14.681  11.391
91729W        W51474  22.138  36.086   2.217
91730W        W51475  14.159  25.713  12.874
91731W        W51476  22.194   5.786  13.898
91732W        W51477   5.920  35.458   3.190
91733W        W51478  25.110  28.461   0.770
91734W        W51479  37.350   2.787  12.486
91735W        W51480  31.076  18.691  14.510
91736W        W51481  36.896   7.231  12.083
91737W        W51482  37.979  17.685   4.805
91738W        W51483  37.389  26.474   1.703
91739W        W51484  17.170  33.092   0.403
91740W        W51485  44.976  22.611   1.374
91741W        W51486  24.205  11.765   1.291
91742W        W51487  41.377  37.534  14.898
91743W        W51488  18.143  16.126  11.418
91744W        W51489  22.731   3.283   1.315
91745W        W51490   4.875   7.881   2.704
91746W        W51491  29.926  31.618   2.326
91747W        W51492  44.426   8.670   1.927
91748W        W51493  34.091  21.247   4.609
91749W        W51494  20.663   9.672   2.228
91750W        W51495   7.771  24.644   0.298
91751W        W51496  19.185  11.650   0.262
91752W        W51497  19.056   1.739   5.723
91753W        W51498  13.145  43.457   0.946
91754W        W51499   6.876   2.365  11.860
91755W        W51500   5.374   0.801   3.764
91756W        W51501  18.639  43.490   2.751
91757W        W51502  21.741  27.138  14.878
91758W        W51503  29.093  36.416   0.915
91759W        W51504   4.288  33.043   0.844
91760W        W51505  23.720  22.054   3.166
91761W        W51506  19.121   7.685   1.894
91762W        W51507  42.487  20.214   0.246
91763W        W51508  44.505  22.100   1.427
91764W        W51509   7.871  42.018  10.637
91765W        W51510  24.203  19.673  13.791
91766W        W51511  34.603  34.470  10.482
91767W        W51512  31.047  18.179  11.059
91768W        W51513   5.197  29.036   4.180
91769W        W51514   3.459  40.941   4.344
91770W        W51515  27.082  16.119  10.995
91771W        W51516  11.214  37.884   0.296
91772W        W51517  13.311   0.839  10.434
91773W        W51518  36.420  10.253  10.089
91774W        W51519  40.492  10.264   0.882
91775W        W51520  14.302  44.000   0.890
91776W        W51521  13.259  36.095  14.966
91777W        W51522  37.901  11.632   4.763
91778W        W51523  37.966   3.798  13.537
91779W        W51524  18.604   2.775  11.463
91780W        W51525   6.827   3.875   2.689
91781W        W51526   4.820  39.457  10.586
91782W        W51527  44.992  36.037  13.836
91783W        W51528  29.487  41.344   4.221
91784W        W51529  32.510  18.654  11.956
91785W        W51530  12.274  41.379  14.817
91786W        W51531  35.042  10.163  10.404
91787W        W51532  27.581  43.502  11.013
91788W        W51533  27.656  42.838   1.838
91789W        W51534  35.461  32.961  13.399
91790W        W51535   7.905   6.790   1.808
91791W        W51536  38.451   9.795   2.843
91792W        W51537  15.769  44.970   2.781
91793W        W51538   3.853  10.151   1.340
91794W        W51539  38.550   4.353   0.244
91795W        W51540   4.707  26.533   4.664
91796W        W51541  23.523  36.941   0.800
91797W        W51542  29.452  14.676  14.487
91798W        W51543  40.548  11.693  12.054
91799W        W51544  30.464  30.624  12.045
91800W        W51545   6.265  13.158  11.380
91801W        W51546   4.443  13.253   2.226
91802W        W51547  44.959   7.751   3.344
91803W        W51548  27.952  23.147   0.371
91804W        W51549  16.776   1.415   1.388
91805W        W51550  30.951   1.838   2.737
91806W        W51551   8.323  32.560   4.233
91807W        W51552  33.933   9.370   3.290
91808W        W51553  26.678  21.517  11.447
91809W        W51554   4.937  23.055   3.307
91810W        W51555  28.653  32.498  14.015
91811W        W51556  17.676  13.294  14.836
91812W        W51557  20.273  18.225  11.374
91813W        W51558  31.009   0.370  11.449
91814W        W51559  30.635  39.988   4.163
91815W        W51560   5.771  26.031   2.317
91816W        W51561  35.883  20.124   2.302
91817W        W51562  15.819  11.796  14.831
91818W        W51563  17.743  28.070   2.742
91819W        W51564  23.657  30.061  13.477
91820W        W51565   6.198  34.984  11.552
91821W        W51566  13.296  37.942  12.411
91822W        W51567  22.042  34.452  12.472
91823W        W51568  10.304   1.459  11.046
91824W        W51569   2.916  36.494   4.756
91825W        W51570  38.553  17.727   1.914
91826W        W51571  19.592   0.916  11.533
91827W        W51572   3.911  16.638   2.362
91828W        W51573  42.893   5.887  13.453
91829W        W51574   6.845  26.200  12.867
91830W        W51575  29.929  26.487   0.293
91831W        W51576  24.053  10.721  13.996
91832W        W51577   5.717  24.005   3.655
91833W        W51578  16.129   4.827   0.744
91834W        W51579   9.273  19.564  11.402
91835W        W51580  27.137  18.679  12.880
91836W        W51581  38.417  29.003  10.522
91837W        W51582   7.202  17.725   2.256
91838W        W51583  32.474  39.387  11.390
91839W        W51584  20.146   1.394   1.833
91840W        W51585  17.120  22.205   0.865
91841W        W51586   8.261  32.412   3.325
91842W        W51587  27.448  13.114  13.955
91843W        W51588  18.211  36.081   0.476
91844W        W51589  33.440  26.696  12.856
91845W        W51590  17.061   2.727  10.629
91846W        W51591   3.250  10.142   5.211
91847W        W51592  11.862  30.502   0.790
91848W        W51593  31.033  23.121  13.434
91849W        W51594   2.803   6.263   4.323
91850W        W51595   0.851  42.375  12.827
91851W        W51596  25.629  33.114   3.273
91852W        W51597  36.403   7.288  12.971
91853W        W51598  31.056  44.943  12.945
91854W        W51599  42.517  22.702   1.289
91855W        W51600  38.901  24.975   9.963
91856W        W51601   0.764   4.800   0.856
91857W        W51602  19.648  27.021  14.377
91858W        W51603  39.828  26.985  13.964
91859W        W51604  27.614   3.791   2.395
91860W        W51605  40.397   4.443   2.702
91861W        W51606  44.299  14.810  10.525
91862W        W51607  23.665  36.961  14.422
91863W        W51608  37.364  34.445  12.992
91864W        W51609  35.565  42.445   4.789
91865W        W51610  24.483  42.482  14.825
91866W        W51611  38.955   1.861  11.111
91867W        W51612  26.647   4.253  11.038
91868W        W51613   2.341  14.722  13.019
91869W        W51614  17.285   6.233  14.007
91870W        W51615  38.062  44.453   3.146
91871W        W51616  10.810  14.696   4.206
91872W        W51617  42.926  35.491   3.796
91873W        W51618  23.536  15.769  12.977
91874W        W51619  11.814  11.714  10.941
91875W        W51620  39.933  22.632  10.428
91876W        W51621   8.380  39.923  11.011
91877W        W51622  32.010  22.560  14.943
91878W        W51623   0.895  19.056   2.408
91879W        W51624  23.576  23.581   2.399
91880W        W51625  43.410   0.745   1.695
91881W        W51626  33.931   3.732   3.355
91882W        W51627  21.174  37.376   1.792
91883W        W51628  25.691  21.076  10.557
91884W        W51629  44.758  39.876   0.291
91885W        W51630  12.314  17.249  13.347
91886W        W51631   3.368  28.631  12.848
91887W        W51632  17.307  23.549  10.609
91888W        W51633  22.123   0.379  13.815
91889W        W51634  25.587  33.885  14.334
91890W        W51635  44.849  12.761   2.330
91891W        W51636  39.960  24.059  11.867
91892W        W51637  19.248  18.708  12.529
91893W        W51638  42.838   3.234   3.846
91894W        W51639  41.847  42.841  13.437
91895W        W51640  37.998   0.950   2.895
91896W        W51641  31.035  39.397   3.247
91897W        W51642  17.654  35.464  11.967
91898W        W51643  32.453  23.666  12.063
91899W        W51644  24.142  38.363   2.292
91900W        W51645  43.983   8.752   3.774
91901W        W51646   1.801  21.054   2.774
91902W        W51647   1.837  21.584  11.891
91903W        W51648  21.735  10.279   1.425
91904W        W51649   5.881  43.398  11.868
91905W        W51650   7.892  35.442   1.697
91906W        W51651  12.697  22.665  11.991
91907W        W51652  23.130  40.995   2.823
91908W        W51653  35.017  43.317   2.186
91909W        W51654  22.100  38.459   3.257
91910W        W51655  43.305  13.303   0.792
91911W        W51656   1.262  36.446  12.864
91912W        W51657  16.738  13.251   3.235
91913W        W51658  14.606  44.905  10.968
91914W        W51659  19.762  10.300  12.017
91915W        W51660  24.195  22.522  10.115
91916W        W51661  27.667  16.169   4.302
91917W        W51662  25.175  34.434   1.404
91918W        W51663   1.313  28.006   1.353
91919W        W51664  30.016  32.586  14.438
91920W        W51665  29.966  27.684  12.951
91921W        W51666  23.002  39.340   3.767
91922W        W51667  31.099  32.552   3.791
91923W        W51668  15.801  39.839   1.819
91924W        W51669  40.801   9.278   3.361
91925W        W51670  25.183  24.182   3.288
91926W        W51671   9.754  13.752   0.393
91927W        W51672  36.389   4.828  12.535
91928W        W51673  41.465   3.443  13.873
91929W        W51674  20.768  34.454  14.367
91930W        W51675  36.875   7.708  10.568
91931W        W51676  42.819   0.765   3.152
91932W        W51677  38.521   0.455  14.462
91933W        W51678  25.546  27.962   0.726
91934W        W51679   3.885  20.597  12.478
91935W        W51680  19.181  31.898   4.600
91936W        W51681  16.155  11.260   4.234
91937W        W51682  30.133  35.972   0.477
91938W        W51683   5.373  36.497   1.440
91939W        W51684  40.948   0.772  14.500
91940W        W51685  28.570  35.927   1.384
91941W        W51686  15.670   1.286  14.469
91942W        W51687  29.597   9.739   1.332
91943W        W51688  37.022  10.311  11.023
91944W        W51689  17.265  30.037  11.433
91945W        W51690  13.763  34.539  14.359
91946W        W51691  17.122  19.060  13.508
91947W        W51692  26.678   6.751   2.196
91948W        W51693  36.455  26.537   0.373
91949W        W51694  34.116  11.654  10.058
91950W        W51695  29.086  17.250   1.710
91951W        W51696  12.243  27.080  13.938
91952W        W51697  18.770  11.860   5.316
91953W        W51698  27.149  20.601  12.838
91954W        W51699  40.488   3.258   3.712
91955W        W51700  10.783  30.970  12.964
91956W        W51701  42.845   0.376  10.121
91957W        W51702  37.034  30.998  10.644
91958W        W51703  11.256  27.086   3.655
91959W        W51704   0.895   9.149   3.736
91960W        W51705  23.031   2.362   3.365
91961W        W51706  31.576  22.685  14.023
91962W        W51707  11.793  33.945  12.339
91963W        W51708  21.534   6.260  13.495
91964W        W51709  37.344   7.717   3.632
91965W        W51710  28.154  44.328  13.834
91966W        W51711  18.102   4.886  10.462
91967W        W51712   1.960   8.353  13.847
91968W        W51713  10.789  34.105  11.481
91969W        W51714  28.509  20.235   4.599
91970W        W51715  26.127  25.571   3.329
91971W        W51716  11.760  26.153   4.349
91972W        W51717  38.915  21.575   4.756
91973W        W51718  20.179   1.840  13.379
91974W        W51719  16.729   1.892  14.810
91975W        W51720  14.593  10.845   2.344
91976W        W51721  28.031   0.835   4.130
91977W        W51722   2.407  14.266  13.312
91978W        W51723  12.254  26.528   0.389
91979W        W51724  37.415  31.077  11.388
91980W        W51725  14.652  38.963   3.332
91981W        W51726   7.711  12.302   0.472
91982W        W51727  24.613  40.379  11.437
91983W        W51728  43.359  22.582   4.830
91984W        W51729  16.082  31.931  14.862
91985W        W51730  18.276  39.845   3.692
91986W        W51731  15.230  23.688  14.295
91987W        W51732  11.348  40.031   1.696
91988W        W51733  33.420  39.315   0.783
91989W        W51734  44.859  40.890   1.282
91990W        W51735  38.352  25.097   3.859
91991W        W51736  21.094  13.793   4.647
91992W        W51737  33.456   5.763  11.576
91993W        W51738  39.066  20.170  11.084
91994W        W51739  25.152  42.360  10.514
91995W        W51740  34.576  10.297  12.486
91996W        W51741  16.800  11.162  13.888
91997W        W51742  23.012  38.515   4.267
91998W        W51743  26.675  40.463  14.501
91999W        W51744  28.507   5.203   4.354
92000W        W51745  24.682   0.323   1.449
92001W        W51746  44.826   1.350   0.437
92002W        W51747  35.026  17.581  14.464
92003W        W51748  27.648  38.922  12.933
92004W        W51749  43.970  16.656  11.881
92005W        W51750   0.394  38.863   0.368
92006W        W51751  29.620  15.111  13.884
92007W        W51752  38.379  20.089  12.509
92008W        W51753  44.266  40.940  12.544
92009W        W51754  14.333   6.352   1.248
92010W        W51755  30.582  13.685  11.921
92011W        W51756  20.654   9.385   2.889
92012W        W51757   6.199  25.470   2.692
92013W        W51758  15.301  31.572  14.024
92014W        W51759  20.728  14.099   2.201
92015W        W51760  31.957  37.044  11.520
92016W        W51761   9.651  44.783  13.954
92017W        W51762  35.881  28.000   3.864
92018W        W51763   0.925  11.314   1.436
92019W        W51764  22.594  42.524   3.784
92020W        W51765  11.352  27.021   4.177
92021W        W51766  14.763  16.603   2.895
92022W        W51767  28.651  12.840  11.940
92023W        W51768  32.005  29.104   3.359
92024W        W51769  35.446  32.584  13.046
92025W        W51770  25.631  28.087  12.518
92026W        W51771  30.587  22.081  12.910
92027W        W51772  35.960   0.874   4.200
92028W        W51773  11.710  23.593   0.822
92029W        W51774  26.151  16.712   3.302
92030W        W51775  33.052   3.913  11.597
92031W        W51776  35.069  44.366  13.436
92032W        W51777  22.230  41.373  11.915
92033W        W51778  39.487   2.286   3.277
92034W        W51779  14.268  44.882  14.991
92035W        W51780  41.378  41.912   4.347
92036W        W51781  26.007  40.889  13.805
92037W        W51782  28.610  35.398  14.492
92038W        W51783   5.863  44.462   3.245
92039W        W51784  14.319  31.586   0.296
92040W        W51785  37.049  43.912   1.886
92041W        W51786  41.933  14.113  12.426
92042W        W51787   4.290  41.520  12.504
92043W        W51788  24.134   5.893   2.899
92044W        W51789  29.638  40.853   2.306
92045W        W51790   4.217  17.800   0.401
92046W        W51791  22.582  33.092   0.443
92047W        W51792   7.207  34.440  14.823
92048W        W51793   2.309  37.985   0.895
92049W        W51794  18.756  32.973   2.251
92050W        W51795   4.243   6.239  11.111
92051W        W51796  15.128   1.416  13.434
92052W        W51797   3.867  43.890   1.825
92053W        W51798  40.899  41.527   1.391
92054W        W51799  18.110  37.476  11.955
92055W        W51800   0.478  22.591  11.437
92056W        W51801  17.694  23.645   0.733
92057W        W51802  23.725  24.525   4.633
92058W        W51803   9.210  37.443  12.490
92059W        W51804   6.299   9.714  13.322
92060W        W51805  18.149  10.180   0.407
92061W        W51806  34.589  35.555  11.056
92062W        W51807   7.804  23.676  11.378
92063W        W51808   2.933  36.989   3.338
92064W        W51809  17.737  39.000  11.453
92065W        W51810  25.977  21.028   3.154
92066W        W51811  22.133  22.590   4.827
92067W        W51812  33.519   8.212   1.884
92068W        W51813  20.768  38.894  12.082
92069W        W51814   3.772  25.171  12.066
92070W        W51815  24.187  34.391  11.976
92071W        W51816   9.687   6.891  12.989
92072W        W51817  33.502  38.040  11.573
92073W        W51818  18.670  24.107  12.453
92074W        W51819  36.876  21.188   2.321
92075W        W51820   6.319  37.907   0.473
92076W        W51821  27.543  44.944   3.311
92077W        W51822   4.295  40.830   1.747
92078W        W51823  41.429  31.098   1.358
92079W        W51824  30.152  26.493  11.567
92080W        W51825   5.303  14.136   0.917
92081W        W51826  39.354  26.152  11.394
92082W        W51827  31.143   9.654   2.354
92083W        W51828  26.625  29.621   2.871
92084W        W51829  18.228  37.072   2.253
92085W        W51830  14.197  33.616  12.461
92086W        W51831  41.428  19.069   4.816
92087W        W51832  24.516  13.205   3.264
92088W        W51833  11.244   0.986   1.334
92089W        W51834  31.571   0.809   1.894
92090W        W51835  17.092   2.338   3.153
92091W        W51836  26.151  18.280  14.446
92092W        W51837   8.355  33.480   3.827
92093W        W51838  33.048   0.755  13.815
92094W        W51839  22.043  20.716   0.481
92095W        W51840  30.156  41.795   1.929
92096W        W51841  34.468  23.678  10.504
92097W        W51842  14.108  33.613   0.750
92098W        W51843  18.125  34.378   3.711
92099W        W51844   9.216  16.135  10.948
92100W        W51845  25.076   8.816   5.282
92101W        W51846  44.345  28.154  14.296
92102W        W51847  27.505  23.495   3.179
92103W        W51848   5.215  33.057  10.991
92104W        W51849  14.124  11.657  11.423
92105W        W51850  25.209  44.787  14.004
92106W        W51851  27.032  24.979  10.624
92107W        W51852   7.857  19.548  10.642
92108W        W51853  31.632  22.513   1.339
92109W        W51854  38.925  12.291   0.275
92110W        W51855   7.185  35.469  12.377
92111W        W51856  39.808  25.664   0.337
92112W        W51857  34.550   6.364   1.829
92113W        W51858  33.604  28.108   1.333
92114W        W51859  15.268  23.117   4.790
92115W        W51860  36.591  15.800   1.316
92116W        W51861  29.426  16.665   4.763
92117W        W51862  37.981   8.729  14.376
92118W        W51863  31.074  10.686  13.357
92119W        W51864   3.860  19.775  11.400
92120W        W51865   2.819  21.211  12.937
92121W        W51866  31.513  15.643   0.755
92122W        W51867  43.015  24.136  13.956
92123W        W51868  42.817   3.311  10.967
92124W        W51869  31.418   1.239   1.336
92125W        W51870  18.296  41.433  13.396
92126W        W51871  20.620  37.392   3.688
92127W        W51872   7.402   9.733  10.911
92128W        W51873  23.647  20.187   1.441
92129W        W51874   2.750  30.545   4.128
92130W        W51875   7.396  36.360   0.788
92131W        W51876  24.590  27.135  10.478
92132W        W51877  24.077  25.047  12.014
92133W        W51878  17.773  34.084   2.825
92134W        W51879  27.626  39.883  12.436
92135W        W51880  16.133  34.870   5.307
92136W        W51881  20.685  43.279  10.644
92137W        W51882  41.306   8.876  12.426
92138W        W51883   4.204   3.417  14.959
92139W        W51884  11.623   8.736  10.435
92140W        W51885  10.698  12.725   1.776
92141W        W51886  20.062   7.868   0.874
92142W        W51887   0.810  39.025   1.734
92143W        W51888   5.838  15.695  10.407
92144W        W51889  42.305  39.462  10.968
92145W        W51890  29.083  42.388   1.922
92146W        W51891  22.142  36.439  11.972
92147W        W51892   8.814  18.081  13.923
92148W        W51893  11.350  17.802   3.702
92149W        W51894  34.613  18.743  14.383
92150W        W51895  34.584   0.406   2.780
92151W        W51896  11.207   8.170   4.757
92152W        W51897  43.417  18.602  10.940
92153W        W51898  31.130  15.781  13.385
92154W        W51899  34.103   2.859  13.319
92155W        W51900   9.778  40.939  14.500
92156W        W51901  28.056   7.257  11.457
92157W        W51902   2.422  24.664   2.379
92158W        W51903  43.800  18.605  11.079
92159W        W51904   1.465  35.942   9.466
92160W        W51905   9.342  25.145   3.382
92161W        W51906  32.606  10.704  10.430
92162W        W51907   9.646  42.440  11.033
92163W        W51908  14.338  19.193   4.251
92164W        W51909   2.784  43.978   1.708
92165W        W51910   4.887  35.520  13.933
92166W        W51911  22.214  24.193   4.155
92167W        W51912  15.271  11.811   0.478
92168W        W51913  22.076  37.563   0.869
92169W        W51914   2.432  39.014  14.818
92170W        W51915   4.251   5.814  12.533
92171W        W51916  13.689  11.730   0.272
92172W        W51917  26.180   6.776  12.450
92173W        W51918  25.682   6.759   3.868
92174W        W51919  22.516  29.000  14.022
92175W        W51920  11.258  20.143   2.265
92176W        W51921   4.312  29.599  11.965
92177W        W51922   8.219  31.631  13.801
92178W        W51923  24.211  10.209  11.989
92179W        W51924  20.056  15.125   4.737
92180W        W51925  35.025  18.767  11.457
92181W        W51926  44.332  24.227  14.929
92182W        W51927   3.940   3.251  13.330
92183W        W51928  28.455  25.187   1.289
92184W        W51929   3.407  16.680   2.411
92185W        W51930  33.078   8.379   1.258
92186W        W51931   3.426   0.915   4.192
92187W        W51932   1.946  28.655  13.544
92188W        W51933  38.400  10.230   0.830
92189W        W51934  12.334  43.482  12.452
92190W        W51935   6.689   4.448   0.915
92191W        W51936  40.055  12.662  13.976
92192W        W51937  43.283  16.773   3.167
92193W        W51938   3.457   9.868   3.316
92194W        W51939  39.028  13.272   4.714
92195W        W51940  12.685  38.006  14.759
92196W        W51941   0.830  31.414  10.003
92197W        W51942  43.911  23.616   2.290
92198W        W51943  15.247  28.554   0.857
92199W        W51944  24.094  39.451   3.287
92200W        W51945  28.473   6.686  11.382
92201W        W51946   6.327  30.541  14.007
92202W        W51947  14.246  37.028  12.553
92203W        W51948  23.689  22.250   0.465
92204W        W51949  38.819   1.940  11.582
92205W        W51950   5.803   9.665   2.798
92206W        W51951  20.524   3.807  14.941
92207W        W51952   2.386  37.832  12.580
92208W        W51953  33.060  14.675   3.714
92209W        W51954  37.452   0.455   3.841
92210W        W51955   2.397  24.574  11.973
92211W        W51956  20.633  19.235  12.054
92212W        W51957   0.248  44.297  13.009
92213W        W51958  24.229  10.358  12.391
92214W        W51959  27.945  10.695  11.501
92215W        W51960  39.333  16.207   3.643
92216W        W51961   2.254  43.452  11.108
92217W        W51962  25.497  39.913   2.243
92218W        W51963  25.577   6.830  10.539
92219W        W51964  37.501  38.076  13.988
92220W        W51965  33.005  42.360  11.373
92221W        W51966  40.438   9.288   3.678
92222W        W51967  42.921  39.013   1.335
92223W        W51968  24.141  32.563  13.545
92224W        W51969  12.180   7.869   3.294
92225W        W51970  27.498  26.554   2.763
92226W        W51971  22.732  44.270  14.009
92227W        W51972   7.763  29.572   0.758
92228W        W51973  41.377  35.970   2.766
92229W        W51974  29.565  34.960  12.378
92230W        W51975  33.999  39.061   4.182
92231W        W51976  37.537  14.596  14.013
92232W        W51977  25.094   0.940  13.315
92233W        W51978   9.847  23.039  13.351
92234W        W51979  13.137  27.111   3.252
92235W        W51980   2.788  10.180   3.284
92236W        W51981  21.148  38.422  12.530
92237W        W51982   3.754  39.059   0.460
92238W        W51983  42.469   9.643  11.593
92239W        W51984   4.290   5.694   0.806
92240W        W51985  33.453   1.761  14.450
92241W        W51986  27.665   7.786   2.667
92242W        W51987  10.858   6.230  12.970
92243W        W51988  37.504  20.139   1.904
92244W        W51989   7.882  41.961  13.369
92245W        W51990   0.979   0.453   2.353
92246W        W51991   8.692  28.644  14.981
92247W        W51992  31.943  24.599   1.704
92248W        W51993   9.779  19.107  14.306
92249W        W51994  22.738  27.683   1.386
92250W        W51995  39.838   7.381  13.839
92251W        W51996  28.071  37.439  14.510
92252W        W51997  22.617  36.472   2.361
92253W        W51998  17.139  40.427   1.432
92254W        W51999   7.303  13.823   1.934
92255W        W52000  27.181  15.088   9.630
92256W        W52001  12.637  22.664  14.781
92257W        W52002  41.873  34.935  14.314
92258W        W52003  18.619  38.829   1.378
92259W        W52004   2.867  17.688   3.732
92260W        W52005   8.219  26.103   4.353
92261W        W52006  13.756  28.154  12.407
92262W        W52007   3.424   5.785  13.367
92263W        W52008  35.404  33.123  13.814
92264W        W52009   0.476  44.822   2.389
92265W        W52010  15.793  40.365  13.901
92266W        W52011  32.395   0.897   4.212
92267W        W52012  36.586  26.981  10.406
92268W        W52013   9.223   1.901  12.478
92269W        W52014  43.359  28.506  13.456
92270W        W52015  24.185  19.779   0.359
92271W        W52016  37.439  11.694   2.284
92272W        W52017  43.833  34.865   3.750
92273W        W52018  39.316  33.614   1.242
92274W        W52019   8.233   3.264  10.995
92275W        W52020  43.304  33.980  12.446
92276W        W52021  35.853  40.320  14.008
92277W        W52022  19.063  30.973   1.714
92278W        W52023  34.102  31.978   0.413
92279W        W52024  33.467  26.090  12.061
92280W        W52025  20.156  11.213   2.290
92281W        W52026  20.106  42.437   4.310
92282W        W52027  21.246   0.474   5.083
92283W        W52028  14.621  14.712   1.430
92284W        W52029  21.589   9.195   1.823
92285W        W52030  41.391  42.791  10.623
92286W        W52031  12.690  32.524  13.421
92287W        W52032  28.518  38.044   4.245
92288W        W52033  38.864  14.811  11.015
92289W        W52034  30.460  32.911   0.281
92290W        W52035   2.352   8.830  11.876
92291W        W52036  21.110  26.176  11.569
92292W        W52037  26.156  17.139   3.276
92293W        W52038  14.246  14.660   1.385
92294W        W52039  12.270  10.163  14.329
92295W        W52040  12.785  32.467  10.888
92296W        W52041  35.075  27.982  10.495
92297W        W52042   8.871  11.231   4.732
92298W        W52043  44.888  13.754   1.323
92299W        W52044  24.540  20.672   2.675
92300W        W52045  33.578  26.578  14.395
92301W        W52046  18.642  39.031   4.735
92302W        W52047   8.872  24.668  13.868
92303W        W52048   6.864  33.057   2.779
92304W        W52049  22.562  39.452  14.377
92305W        W52050  44.815  20.242  14.298
92306W        W52051   1.800  20.029  13.838
92307W        W52052  35.536  38.425   2.892
92308W        W52053  23.710  34.513  10.491
92309W        W52054  32.519  25.087   2.292
92310W        W52055  20.215  23.228  11.540
92311W        W52056  40.847  25.022  14.860
92312W        W52057  41.845  22.117  13.480
92313W        W52058  10.215  16.788   4.233
92314W        W52059  39.378  21.633  11.507
92315W        W52060  44.341  35.406  14.826
92316W        W52061   4.315  40.863   2.778
92317W        W52062  10.383  12.309   1.898
92318W        W52063   8.773  39.928   1.704
92319W        W52064  31.045  36.975  14.030
92320W        W52065  44.888  42.888  13.476
92321W        W52066  30.093  36.554   3.325
92322W        W52067   9.372  19.142  13.947
92323W        W52068  15.227   0.756   2.254
92324W        W52069  14.617  28.992   4.631
92325W        W52070  14.220  22.021   3.282
92326W        W52071  32.485   9.808   3.742
92327W        W52072  13.822  34.403   2.413
92328W        W52073  14.097  35.480  12.956
92329W        W52074  17.742  40.871   0.387
92330W        W52075  33.098  34.586  10.986
92331W        W52076   6.277  14.637   2.374
92332W        W52077  27.965  38.447   0.375
92333W        W52078  23.666  28.453   1.727
92334W        W52079  23.036  36.998   1.222
92335W        W52080  22.995  22.092  11.569
92336W        W52081  14.180  20.546  13.512
92337W        W52082   4.260  11.731  14.501
92338W        W52083  24.714  13.339  10.056
92339W        W52084  23.139  22.171  13.974
92340W        W52085  23.996   5.827   0.390
92341W        W52086   8.400  18.135   4.838
92342W        W52087  25.623  41.886  14.834
92343W        W52088  31.028  37.035   4.180
92344W        W52089  17.578   7.796  14.805
92345W        W52090  26.156  35.385  11.456
92346W        W52091   2.334   7.670   1.822
92347W        W52092  22.560  11.284  13.901
92348W        W52093   2.258  16.086  10.583
92349W        W52094  41.957  19.549  10.954
92350W        W52095  40.351  10.334  11.932
92351W        W52096  10.669  20.235  10.928
92352W        W52097  11.140   2.766  11.478
92353W        W52098  42.032  14.792  11.053
92354W        W52099  28.156  24.617  12.863
92355W        W52100   1.746   9.843   2.383
92356W        W52101  29.166  26.147  13.870
92357W        W52102  15.816  39.331   1.245
92358W        W52103  38.959   0.357  10.578
92359W        W52104  20.102  32.471  12.405
92360W        W52105   5.700  30.629  13.955
92361W        W52106   7.408   7.857   2.663
92362W        W52107  11.369   5.708  12.450
92363W        W52108  38.368  28.625  11.609
92364W        W52109  31.425   1.825   2.706
92365W        W52110  39.516  19.607  10.422
92366W        W52111   2.833   1.751  11.538
92367W        W52112   4.349  35.532  13.838
92368W        W52113   7.718   0.846  11.123
92369W        W52114  18.743  39.961  11.021
92370W        W52115  33.935  28.095  11.438
92371W        W52116  18.671  14.182   0.784
92372W        W52117  18.109  29.485  10.539
92373W        W52118  26.158  32.573   4.760
92374W        W52119  15.623   5.392  13.512
92375W        W52120   2.797  35.367  12.952
92376W        W52121  16.182  25.100   3.218
92377W        W52122  42.283  32.920   2.837
92378W        W52123  36.903  17.718  11.923
92379W        W52124  17.215   7.839   4.138
92380W        W52125  38.369  40.797   4.668
92381W        W52126  22.996  13.280  10.629
92382W        W52127   1.479  11.191  12.072
92383W        W52128  18.138  40.451  12.520
92384W        W52129   5.814  35.597   2.206
92385W        W52130  17.099  40.000   1.850
92386W        W52131  35.021   2.232   3.660
92387W        W52132  38.990  30.469   2.317
92388W        W52133  27.991  17.181  14.898
92389W        W52134   5.745  16.308  13.398
92390W        W52135  32.128  15.619   1.407
92391W        W52136  37.536  14.114   1.361
92392W        W52137   0.309  43.415   3.311
92393W        W52138  44.481   2.763  11.070
92394W        W52139  42.479  13.321  14.466
92395W        W52140   0.314  36.561   2.817
92396W        W52141  34.974  37.987  10.637
92397W        W52142  21.574  26.482  14.886
92398W        W52143  21.696  37.008  11.939
92399W        W52144  14.784   3.359  14.403
92400W        W52145  39.025  40.497   0.939
92401W        W52146  29.566  29.499  14.827
92402W        W52147  37.944   6.747  13.932
92403W        W52148   3.717  21.613   1.354
92404W        W52149  34.969  37.071  14.514
92405W        W52150  42.922  20.044  12.999
92406W        W52151  12.278  28.583   1.811
92407W        W52152  44.975  11.317  12.939
92408W        W52153  26.100  13.639   3.373
92409W        W52154   0.927   6.816  14.515
92410W        W52155  17.128  18.708   1.440
92411W        W52156   7.682  41.371   2.789
92412W        W52157  23.107   1.413   0.372
92413W        W52158  40.357   1.815   3.845
92414W        W52159   1.344   2.368  14.278
92415W        W52160  19.228  29.136  14.909
92416W        W52161  38.387  21.027   3.335
92417W        W52162  33.616  18.144   3.675
92418W        W52163  28.098  37.429   2.890
92419W        W52164  23.643  43.989   2.211
92420W        W52165   0.473   7.715   2.770
92421W        W52166  27.124  18.104  13.866
92422W        W52167   0.896  12.771   2.671
92423W        W52168  32.067  32.624   5.174
92424W        W52169  27.958   1.418  11.056
92425W        W52170  19.195  24.219   4.619
92426W        W52171   5.853  26.620  10.586
92427W        W52172  14.101   4.756  11.463
92428W        W52173  41.369   2.353  12.500
92429W        W52174  17.070  22.247  13.794
92430W        W52175  15.107  40.443  10.947
92431W        W52176  39.881  33.045  11.426
92432W        W52177   3.334  13.646  11.450
92433W        W52178  19.206  37.990   3.692
92434W        W52179   7.680  12.253   4.156
92435W        W52180  11.713  28.960   2.734
92436W        W52181  22.677  22.185  12.012
92437W        W52182  33.550  32.473   3.154
92438W        W52183   7.701   0.792   5.229
92439W        W52184  34.595  27.690  14.989
92440W        W52185  29.618  23.108   2.774
92441W        W52186  36.889  38.867  11.108
92442W        W52187  39.039  33.037  12.018
92443W        W52188  39.895  41.825   1.306
92444W        W52189  13.174  41.866   4.166
92445W        W52190  23.615  32.408   0.464
92446W        W52191  40.474  44.422  12.938
92447W        W52192  35.547  11.328   2.685
92448W        W52193   6.375   4.893   2.781
92449W        W52194  32.892  17.218  12.504
92450W        W52195  34.575  23.234   0.389
92451W        W52196  43.416  33.451  12.413
92452W        W52197  17.662  14.589   1.327
92453W        W52198  35.485   0.420  14.997
92454W        W52199  31.099  32.515  13.450
92455W        W52200  26.650  38.071  11.483
92456W        W52201  30.564  41.413   0.870
92457W        W52202  39.439  10.235  13.474
92458W        W52203  27.178  26.614   2.343
92459W        W52204   2.884   4.312  12.540
92460W        W52205  31.081   9.383  12.347
92461W        W52206  17.205  20.663  13.049
92462W        W52207  25.160   5.223   1.709
92463W        W52208   9.347  13.744   2.680
92464W        W52209  20.085  24.213   4.157
92465W        W52210  17.280  30.960   1.797
92466W        W52211  38.956  25.660  14.459
92467W        W52212  37.458  39.394   1.820
92468W        W52213  17.749  30.449  11.980
92469W        W52214   3.763  12.789   1.865
92470W        W52215  16.740  43.319   2.670
92471W        W52216  15.324  32.907  14.915
92472W        W52217  31.125  24.197  14.002
92473W        W52218  22.134  32.946   0.842
92474W        W52219  14.677   9.234  13.033
92475W        W52220   3.408  13.278   2.318
92476W        W52221  14.737  29.660  13.450
92477W        W52222  29.592  42.851  12.445
92478W        W52223  13.119  10.873   1.742
92479W        W52224  31.012  14.136   4.806
92480W        W52225  29.428  28.993  13.453
92481W        W52226  28.946  32.892  13.792
92482W        W52227   3.360  19.674  14.446
92483W        W52228  35.509  22.127   3.377
92484W        W52229   1.792   4.320   1.917
92485W        W52230  41.018   4.221  11.030
92486W        W52231  22.659   8.888   0.317
92487W        W52232   9.256  17.574  12.975
92488W        W52233   0.774  30.133   3.792
92489W        W52234  33.478  38.849  12.568
92490W        W52235   9.802  21.540  11.479
92491W        W52236  40.931   5.262   1.701
92492W        W52237  40.904  40.530  13.881
92493W        W52238   4.897  34.914  12.012
92494W        W52239  39.368  11.782   0.429
92495W        W52240   3.861  27.961   1.751
92496W        W52241  20.094  18.127   2.681
92497W        W52242  25.098  22.738  14.772
92498W        W52243  41.962  15.231  13.310
92499W        W52244  38.380   7.758   0.931
92500W        W52245  38.928  41.833  13.399
92501W        W52246  32.543  17.596  12.533
92502W        W52247   2.721  30.014  11.953
92503W        W52248   7.800  27.974  12.980
92504W        W52249  13.116  31.453   3.232
92505W        W52250  10.792  44.293  13.317
92506W        W52251  39.421  11.739  14.331
92507W        W52252  21.089  41.433  12.538
92508W        W52253  37.978   5.239  10.468
92509W        W52254  11.863  30.621   2.664
92510W        W52255  30.939  32.102   3.235
92511W        W52256  10.149  36.991   9.522
92512W        W52257  44.272  43.999  10.464
92513W        W52258  32.951  37.352   0.262
92514W        W52259  25.581  24.519   2.400
92515W        W52260  35.087   2.821   0.839
92516W        W52261  19.562   9.825   3.753
92517W        W52262  44.920  34.023   4.255
92518W        W52263  40.495   5.892   2.294
92519W        W52264  38.341  36.388  10.613
92520W        W52265  36.547  39.855   1.278
92521W        W52266   5.752  18.756  13.495
92522W        W52267  19.198   5.852  13.400
92523W        W52268   6.836  25.126   1.902
92524W        W52269  35.987  29.466  12.527
92525W        W52270  27.549   4.717   2.797
92526W        W52271   4.436  29.529   0.952
92527W        W52272  30.019   0.901  11.022
92528W        W52273  20.243  39.327  12.883
92529W        W52274  10.852  41.366   1.871
92530W        W52275  22.546  40.432   4.292
92531W        W52276  13.214   2.367  12.955
92532W        W52277  15.663  36.369  11.502
92533W        W52278   1.887  41.479   3.189
92534W        W52279   7.825  34.448  12.398
92535W        W52280   0.796   9.252   1.735
92536W        W52281  43.274  41.970   0.837
92537W        W52282   2.949  19.266  14.469
92538W        W52283  10.807  37.962  12.028
92539W        W52284  30.045  37.837   4.237
92540W        W52285  21.695  34.574  14.348
92541W        W52286  33.105   1.483   3.639
92542W        W52287  13.129  14.758   4.683
92543W        W52288  30.924  14.755  13.909
92544W        W52289  37.078   3.417   4.619
92545W        W52290  26.653  25.598   1.365
92546W        W52291  33.408   3.817  13.945
92547W        W52292  41.384  29.014  12.397
92548W        W52293   8.687  33.051   4.618
92549W        W52294  43.898  10.199  11.609
92550W        W52295  36.986   1.733  14.858
92551W        W52296  16.695  25.555   3.280
92552W        W52297   1.866   9.174   4.162
92553W        W52298  16.810  41.522  12.454
92554W        W52299  24.141  38.470  10.497
92555W        W52300  14.339  27.503  14.825
92556W        W52301  12.281   0.444  14.960
92557W        W52302  26.169   7.336   3.357
92558W        W52303  42.405  25.568  12.409
92559W        W52304   5.746  34.480  14.849
92560W        W52305  33.541   0.475  11.934
92561W        W52306  30.943   2.953   5.282
92562W        W52307  33.465  30.929  12.865
92563W        W52308   5.862  19.096   1.363
92564W        W52309  18.619  16.092   4.707
92565W        W52310  43.960  24.478   1.369
92566W        W52311  36.859  10.236  12.829
92567W        W52312  32.001   4.364   1.912
92568W        W52313  17.223  12.726   1.793
92569W        W52314  34.526  17.143  10.960
92570W        W52315  41.349  13.151   4.183
92571W        W52316  44.270   4.890   0.754
92572W        W52317  12.306   7.798  13.445
92573W        W52318  12.823  20.257   0.787
92574W        W52319   6.816  32.894   0.736
92575W        W52320  32.508   6.855   3.754
92576W        W52321  22.998  38.034  11.066
92577W        W52322   8.777  12.173  12.546
92578W        W52323  14.259   2.275   0.379
92579W        W52324   3.359   5.886   1.218
92580W        W52325   7.232  34.592   2.389
92581W        W52326  13.689  28.082  13.472
92582W        W52327  30.429   9.736   0.915
92583W        W52328  39.348  13.219  13.042
92584W        W52329  35.555  43.838  12.963
92585W        W52330  25.197   4.242  12.896
92586W        W52331  31.920  35.433   1.704
92587W        W52332  34.874  23.700   1.898
92588W        W52333  37.931  33.466  12.936
92589W        W52334  20.243  28.658   0.895
92590W        W52335  34.553  24.099   4.264
92591W        W52336  26.681  20.741   2.802
92592W        W52337  34.977  21.721   3.228
92593W        W52338  20.058  10.719  11.989
92594W        W52339  36.933  32.393   0.862
92595W        W52340  31.416  41.952  11.890
92596W        W52341  36.559  10.306   4.607
92597W        W52342  11.310  40.850   0.291
92598W        W52343   4.241  25.149  12.870
92599W        W52344   0.912   8.389  11.046
92600W        W52345  42.002  24.178   0.921
92601W        W52346  27.037  35.076   2.178
92602W        W52347  38.939  21.234  14.885
92603W        W52348  43.940  28.023   1.759
92604W        W52349  23.196  19.190  12.475
92605W        W52350   6.790  19.130   0.381
92606W        W52351  36.492  27.473   0.478
92607W        W52352  24.178  16.702  14.291
92608W        W52353  17.306   1.884   4.777
92609W        W52354  43.500  14.105  13.319
92610W        W52355   5.428   9.248  11.487
92611W        W52356  14.748  19.062  11.102
92612W        W52357  12.352   9.743  12.003
92613W        W52358  31.050  36.577   4.224
92614W        W52359  41.478  16.234  11.009
92615W        W52360  24.130  13.792   0.444
92616W        W52361   5.295  35.589   1.717
92617W        W52362  32.964  17.080   3.705
92618W        W52363  38.514  11.176  13.012
92619W        W52364  19.101  43.009   0.792
92620W        W52365  30.103  36.042  14.280
92621W        W52366  42.453  31.540  11.411
92622W        W52367  17.705  26.457  11.002
92623W        W52368   2.398  16.198   2.715
92624W        W52369  37.046   2.272   2.874
92625W        W52370  36.419  15.729   4.776
92626W        W52371  22.159  21.678   4.774
92627W        W52372  27.047   8.401  12.364
92628W        W52373  32.631   7.896   0.856
92629W        W52374  36.929  14.740   3.158
92630W        W52375  23.590  28.186  13.918
92631W        W52376  44.467  32.617   5.297
92632W        W52377   6.776  36.076   1.426
92633W        W52378   3.337   3.895  10.498
92634W        W52379  30.971  25.055   1.790
92635W        W52380  11.151  37.560   2.219
92636W        W52381  35.588  35.498   2.690
92637W        W52382  11.235  27.524  14.385
92638W        W52383  38.941   2.831   0.801
92639W        W52384  21.550  35.491  10.890
92640W        W52385  41.512   0.396   4.599
92641W        W52386  37.839  34.600  11.035
92642W        W52387   1.849  20.689   5.112
92643W        W52388  19.732   5.215   4.282
92644W        W52389  18.201  30.155   3.296
92645W        W52390  17.218  25.705  12.839
92646W        W52391  38.529  28.087   4.618
92647W        W52392   3.310   3.332  14.516
92648W        W52393  19.233   5.425   2.309
92649W        W52394   2.356  25.077   1.372
92650W        W52395  20.175  12.817  11.590
92651W        W52396   5.768  12.753  14.954
92652W        W52397   9.395  16.250   2.185
92653W        W52398  27.666  34.997   0.827
92654W        W52399  14.270   8.818   3.179
92655W        W52400  20.194  44.419   3.296
92656W        W52401  14.751  21.617   4.132
92657W        W52402  26.541  20.029  12.493
92658W        W52403  39.533  37.498  11.065
92659W        W52404  35.550  18.269   0.344
92660W        W52405  42.775   9.875  13.368
92661W        W52406  28.964  27.576  10.917
92662W        W52407  26.160  30.979  13.974
92663W        W52408  34.109  20.139  12.920
92664W        W52409  31.623  24.076   0.293
92665W        W52410  41.310  23.112  12.091
92666W        W52411  23.682   8.768   2.249
92667W        W52412  28.969  32.532  14.961
92668W        W52413  32.970  35.478  14.516
92669W        W52414  34.011  34.892   0.395
92670W        W52415  13.109  28.968  10.094
92671W        W52416  40.418   1.898  10.900
92672W        W52417  23.681  11.333   3.787
92673W        W52418  21.715  34.912  10.912
92674W        W52419   6.296  34.498  12.389
92675W        W52420  20.076  25.078   3.665
92676W        W52421  35.462  18.649  12.003
92677W        W52422  11.311  18.291   3.788
92678W        W52423  17.595  31.559   0.421
92679W        W52424   7.400  24.718   2.312
92680W        W52425  36.382  29.636  12.882
92681W        W52426  26.566   8.737   2.351
92682W        W52427  38.017  17.762   2.746
92683W        W52428  25.055  35.939  13.368
92684W        W52429   6.391  15.297  13.424
92685W        W52430  32.611   3.937   5.313
92686W        W52431  17.651  27.587  10.583
92687W        W52432  17.209  10.341   1.318
92688W        W52433  28.111  20.677  10.508
92689W        W52434  35.860  20.746  14.881
92690W        W52435  39.512  26.520  12.025
92691W        W52436  11.160   1.892   4.600
92692W        W52437   9.249   8.879   1.394
92693W        W52438  27.565  20.644   0.823
92694W        W52439  22.701  41.349   0.726
92695W        W52440  44.760   8.819   1.323
92696W        W52441  19.192  15.233  11.981
92697W        W52442  40.009  28.645  14.781
92698W        W52443   5.331  14.642   0.364
92699W        W52444  34.013   9.736   1.376
92700W        W52445   1.432  37.382   3.213
92701W        W52446  11.749  41.030  10.938
92702W        W52447  10.649  19.271   4.667
92703W        W52448  35.944  14.698   0.751
92704W        W52449  11.171   9.883   2.878
92705W        W52450  22.066   7.710  12.342
92706W        W52451   6.750   4.447  13.892
92707W        W52452  44.455  36.841   9.550
92708W        W52453  35.102  28.578   2.718
92709W        W52454  13.330  30.936  12.075
92710W        W52455  27.108   4.294  14.350
92711W        W52456  41.438  39.910   4.300
92712W        W52457  18.096  31.931  11.517
92713W        W52458   9.661  29.657  12.387
92714W        W52459   4.918  21.203   3.360
92715W        W52460   2.744  18.215   3.223
92716W        W52461  38.548  27.660  12.901
92717W        W52462  15.774  38.505   0.258
92718W        W52463   0.907   2.775   1.447
92719W        W52464  13.796   7.177   2.675
92720W        W52465  42.964  17.152   3.861
92721W        W52466  38.999  38.338   0.286
92722W        W52467  37.082   9.349   3.226
92723W        W52468  23.227  31.430  13.936
92724W        W52469  22.641  36.971  13.413
92725W        W52470   7.804  19.744  12.009
92726W        W52471  21.746   7.342  10.914
92727W        W52472  12.209  43.488  13.329
92728W        W52473   5.877  23.031  13.387
92729W        W52474   0.804  19.125   1.928
92730W        W52475  22.198  12.638  12.055
92731W        W52476  44.413   1.919   1.432
92732W        W52477  22.670  37.442   1.863
92733W        W52478  33.416   4.933   5.610
92734W        W52479  40.055  19.641   4.251
92735W        W52480  25.652  24.694  13.338
92736W        W52481  11.369  16.641  13.463
92737W        W52482  34.091  41.932  12.420
92738W        W52483  16.248   2.342   1.367
92739W        W52484  25.213  44.498   1.788
92740W        W52485  14.282   4.789  12.505
92741W        W52486  41.920  31.567   4.636
92742W        W52487   0.375  31.936   0.863
92743W        W52488  18.137   1.419  11.112
92744W        W52489  39.443  33.528   0.297
92745W        W52490  37.980  13.316  10.427
92746W        W52491  36.484  11.749   2.701
92747W        W52492  35.501  10.288  14.981
92748W        W52493  43.864  24.578   3.161
92749W        W52494  35.029   3.851   0.448
92750W        W52495  18.657  23.211  10.917
92751W        W52496  10.200  41.931   1.389
92752W        W52497  36.841  32.552   1.798
92753W        W52498  12.731  24.134  11.613
92754W        W52499  15.820  22.184   0.792
92755W        W52500  17.663   2.957  14.900
92756W        W52501   6.697  25.602  14.404
92757W        W52502  23.167  25.120   1.414
92758W        W52503  15.284  32.527   1.336
92759W        W52504  34.009   7.410   4.624
92760W        W52505  30.099  43.021  10.918
92761W        W52506   7.793  37.428  11.865
92762W        W52507  40.390  24.130  10.908
92763W        W52508  40.040  14.716   3.270
92764W        W52509   9.385  40.849   4.198
92765W        W52510   3.459  33.518  11.980
92766W        W52511  14.146  22.645  10.956
92767W        W52512  23.105  36.908  14.506
92768W        W52513  40.323   3.839   0.328
92769W        W52514   3.786  11.719   1.383
92770W        W52515  32.402   7.774   4.691
92771W        W52516  23.689  16.303  11.500
92772W        W52517   5.226  22.651   4.716
92773W        W52518  44.770   1.450  14.340
92774W        W52519  16.249  39.368  14.388
92775W        W52520  14.333  39.379   1.766
92776W        W52521  24.995  21.524  14.396
92777W        W52522  38.417  22.208  12.569
92778W        W52523   6.235  32.028  14.886
92779W        W52524  24.054  42.932  13.017
92780W        W52525   3.397   6.301  10.563
92781W        W52526  39.941  41.985  14.982
92782W        W52527   9.393  20.591  11.574
92783W        W52528   7.307   6.270   0.327
92784W        W52529  18.086   8.739  10.460
92785W        W52530   6.729  32.588   4.209
92786W        W52531  34.556  40.912  13.438
92787W        W52532  11.299  23.548   4.836
92788W        W52533  35.516  19.161   4.225
92789W        W52534  40.932   8.849   3.290
92790W        W52535   1.338  19.219  13.425
92791W        W52536  43.902   7.771  14.406
92792W        W52537  44.504  21.578  14.943
92793W        W52538  22.594   6.724   1.715
92794W        W52539  13.629  31.912  12.459
92795W        W52540  38.968   2.965   4.740
92796W        W52541  37.018  17.067   2.813
92797W        W52542   9.751   1.240   4.198
92798W        W52543  23.149   9.291   0.906
92799W        W52544  10.365  12.654   4.153
92800W        W52545  38.490  39.391  10.566
92801W        W52546  35.417  43.811  10.451
92802W        W52547  36.873  12.244   3.757
92803W        W52548  38.892  39.326   0.890
92804W        W52549  21.020  34.948   4.835
92805W        W52550  23.170  15.190   3.305
92806W        W52551  12.852  43.781   3.662
92807W        W52552  44.392  25.971  12.369
92808W        W52553   9.327  12.313   0.892
92809W        W52554  34.913   0.272   1.281
92810W        W52555  31.966  21.594  13.536
92811W        W52556  25.093  12.619  14.302
92812W        W52557  16.316  38.422  14.312
92813W        W52558  15.699  23.508  13.905
92814W        W52559   6.357  21.636   2.369
92815W        W52560  43.293  44.856   3.671
92816W        W52561   6.818  37.986  13.915
92817W        W52562  17.215  44.465   0.336
92818W        W52563   9.223   3.733  12.543
92819W        W52564  21.075  43.903  12.992
92820W        W52565   9.854  13.334   3.756
92821W        W52566  44.933  17.710   3.858
92822W        W52567   6.794  44.911  10.947
92823W        W52568  28.094  11.226  13.417
92824W        W52569   1.912  25.990   2.785
92825W        W52570  17.572   5.438   3.157
92826W        W52571  30.132   0.437  12.015
92827W        W52572  14.162  22.589  13.356
92828W        W52573  39.464  22.679  10.411
92829W        W52574  21.149   6.203  13.862
92830W        W52575  38.546  40.351   0.859
92831W        W52576   9.194  14.243   1.443
92832W        W52577   1.761   1.431   4.808
92833W        W52578  22.622   6.815  13.955
92834W        W52579  36.991   9.282   3.819
92835W        W52580  41.377   1.885  12.355
92836W        W52581   6.914   8.858   4.135
92837W        W52582  15.254  30.631   2.407
92838W        W52583  32.497  34.497   4.784
92839W        W52584  33.940  44.290   4.690
92840W        W52585  31.472  31.546  14.844
92841W        W52586   2.447   2.742   1.401
92842W        W52587  14.790  17.751   3.658
92843W        W52588  14.727  30.498   9.953
92844W        W52589   2.227  20.683   1.225
92845W        W52590  31.997   0.390  12.068
92846W        W52591  25.046  35.551  11.419
92847W        W52592  22.681  11.141  12.349
92848W        W52593  19.715  25.032  11.424
92849W        W52594   3.764  11.862  11.495
92850W        W52595  32.987  18.718   0.314
92851W        W52596  29.604  20.552   5.263
92852W        W52597   2.905   0.380   4.725
92853W        W52598   1.898  20.741  14.902
92854W        W52599   9.825  15.260   1.404
92855W        W52600   1.814  44.312  12.414
92856W        W52601  17.592  21.113  12.054
92857W        W52602   0.776  15.216  13.433
92858W        W52603  26.004   8.360   4.184
92859W        W52604  15.171  15.274   0.375
92860W        W52605  17.632   4.933  13.031
92861W        W52606  41.920  28.508  13.351
92862W        W52607  23.624  34.874  13.325
92863W        W52608  37.983  32.396  14.004
92864W        W52609  11.700  10.811   3.650
92865W        W52610  44.272   8.711  10.958
92866W        W52611  13.791   6.830   3.161
92867W        W52612  37.576  15.123  14.972
92868W        W52613  30.969   8.244  11.950
92869W        W52614  34.517  26.469  14.442
92870W        W52615  40.490  13.334  13.864
92871W        W52616  39.823  34.974   0.914
92872W        W52617  28.487  10.843   4.767
92873W        W52618   8.331   8.192  12.049
92874W        W52619  18.073  10.268   2.745
92875W        W52620  35.376  13.317   0.821
92876W        W52621  44.388  36.896   1.433
92877W        W52622  10.722  18.548   3.812
92878W        W52623  35.012   6.840   0.435
92879W        W52624   1.459  41.043   0.262
92880W        W52625  23.557  30.108   4.240
92881W        W52626  23.688  24.083  11.885
92882W        W52627  15.167   7.354   2.248
92883W        W52628   2.955  14.166  12.474
92884W        W52629  42.495  32.013  13.466
92885W        W52630  17.655  29.486  11.100
92886W        W52631  14.800  38.859   4.272
92887W        W52632  10.154  44.939   0.913
92888W        W52633  18.061   5.702   2.395
92889W        W52634  13.812  21.622   3.269
92890W        W52635   0.918  40.833  13.933
92891W        W52636  30.037  34.526  11.519
92892W        W52637   9.355  22.054   4.658
92893W        W52638  26.697  17.679   1.315
92894W        W52639  16.273  10.705  12.574
92895W        W52640  33.487  37.927   3.830
92896W        W52641   5.689   1.420  10.480
92897W        W52642  10.684  30.506   0.294
92898W        W52643  28.619  19.157  13.401
92899W        W52644   2.414  11.784   4.651
92900W        W52645  16.809  41.304   1.449
92901W        W52646  19.538  34.923   1.245
92902W        W52647  43.856  22.073  10.894
92903W        W52648  40.007  18.610  12.487
92904W        W52649  17.601  28.439  14.947
92905W        W52650  32.559   2.776  13.944
92906W        W52651   5.914  42.485  13.892
92907W        W52652  25.537  20.676   3.803
92908W        W52653  24.192  32.494   0.791
92909W        W52654   0.756  42.433   3.715
92910W        W52655  33.081   0.378  12.553
92911W        W52656  15.790   9.705   1.355
92912W        W52657   3.802  36.547  10.931
92913W        W52658  30.564   7.345   2.800
92914W        W52659  28.092  24.006  14.514
92915W        W52660  23.083  40.983   3.260
92916W        W52661  12.210  41.388  11.961
92917W        W52662  28.973  26.038  14.422
92918W        W52663  23.179  18.074   2.320
92919W        W52664   4.298  36.062   4.190
92920W        W52665  44.829  40.914  10.478
92921W        W52666  23.559  17.273  10.916
92922W        W52667  17.115  36.963   0.312
92923W        W52668  19.574  37.053   4.669
92924W        W52669  28.442  22.187  13.985
92925W        W52670  15.620  40.475  12.935
92926W        W52671   2.370  29.511   0.376
92927W        W52672  30.948  34.066   4.280
92928W        W52673  17.231   7.698  12.516
92929W        W52674  16.738  43.950   2.898
92930W        W52675  40.342  14.315  10.053
92931W        W52676  12.833  18.174   4.756
92932W        W52677  27.168  23.715  13.396
92933W        W52678  23.619  30.580  10.410
92934W        W52679   8.214  27.156  11.594
92935W        W52680  21.217  26.989  10.511
92936W        W52681  33.927  17.610   0.899
92937W        W52682  14.300  32.466   0.928
92938W        W52683  32.419  25.487  13.885
92939W        W52684  16.692  32.496  12.345
92940W        W52685  26.601  42.367  14.030
92941W        W52686  31.012  37.463   1.360
92942W        W52687  15.168  30.009   3.259
92943W        W52688  38.496  17.231   0.758
92944W        W52689  10.154  30.623   0.417
92945W        W52690  38.859  19.120   1.735
92946W        W52691  27.134  13.335  11.013
92947W        W52692  28.105  18.166   2.877
92948W        W52693  31.023   4.738   2.700
92949W        W52694   0.797   7.211   2.792
92950W        W52695   4.269   3.314   3.363
92951W        W52696   4.856  23.700   4.653
92952W        W52697  10.857   3.812   3.348
92953W        W52698  39.354  16.775  12.080
92954W        W52699   9.748  16.253  13.387
92955W        W52700   2.251  13.241  13.507
92956W        W52701  42.996  33.496  13.342
92957W        W52702  29.061  44.328  13.888
92958W        W52703  24.081  27.660  10.970
92959W        W52704  42.861   4.359  11.957
92960W        W52705   7.794  18.073   3.741
92961W        W52706  18.623   9.151  13.971
92962W        W52707  43.914  16.098   0.432
92963W        W52708   8.268   5.317  12.931
92964W        W52709  12.673  10.811  12.908
92965W        W52710  11.271  21.039   0.455
92966W        W52711  36.473  24.175  10.980
92967W        W52712   9.277  29.618   2.273
92968W        W52713  28.439  44.976   4.129
92969W        W52714  13.226   2.811   4.228
92970W        W52715   4.436  33.528  13.393
92971W        W52716  26.951  30.140   1.277
92972W        W52717  16.283  24.619   4.179
92973W        W52718  38.001   5.752   3.211
92974W        W52719   1.256  36.487   2.802
92975W        W52720   3.243  27.106  12.515
92976W        W52721  20.126  26.633   1.308
92977W        W52722  43.856  41.985   2.406
92978W        W52723  32.438  32.539   3.177
92979W        W52724  36.408  44.380   1.322
92980W        W52725  31.497  11.247  14.759
92981W        W52726  21.177  10.143   9.991
92982W        W52727  22.212  15.130   2.894
92983W        W52728  23.071  18.787   0.848
92984W        W52729  39.513  34.991  10.507
92985W        W52730  15.311  27.544   4.124
92986W        W52731  25.619  26.012   2.792
92987W        W52732  33.081  12.257  12.511
92988W        W52733  22.211   5.235   2.774
92989W        W52734  30.019  40.342   2.854
92990W        W52735  18.239   1.416   1.447
92991W        W52736  14.650  20.704  13.032
92992W        W52737  25.612   0.411   1.257
92993W        W52738  18.209  42.010   4.303
92994W        W52739  11.752  29.148   4.750
92995W        W52740  41.456  11.324   1.728
92996W        W52741  38.010   9.248   2.896
92997W        W52742   9.218   2.377  11.553
92998W        W52743  13.153  37.340   2.191
92999W        W52744  36.588   2.463   0.280
93000W        W52745   6.854  36.376   0.727
93001W        W52746  33.973  15.131   3.328
93002W        W52747  29.082  26.488  10.945
93003W        W52748  40.502  15.592   9.975
93004W        W52749  32.604  38.571   0.445
93005W        W52750   0.456  40.049  11.992
93006W        W52751   8.882   2.794   4.610
93007W        W52752   8.749  15.268  14.403
93008W        W52753  43.929  41.382   2.282
93009W        W52754  42.827  29.467  14.008
93010W        W52755  27.484  43.930   2.898
93011W        W52756  23.203   1.449   1.768
93012W        W52757  26.487   4.397   2.400
93013W        W52758   1.834  38.566   5.231
93014W        W52759  23.529  23.587   0.888
93015W        W52760  24.488  39.837  13.047
93016W        W52761  41.440   5.425  11.567
93017W        W52762   2.409  19.719  11.940
93018W        W52763  40.303  23.494  11.415
93019W        W52764  22.677  29.482  12.878
93020W        W52765  38.450  26.668  10.079
93021W        W52766  27.045  12.213  14.798
93022W        W52767  29.476  25.136   0.449
93023W        W52768  37.477  15.639   3.216
93024W        W52769  36.857  24.522   2.864
93025W        W52770   1.323   4.350   3.732
93026W        W52771  38.509  34.866  12.478
93027W        W52772  28.045  17.257   4.342
93028W        W52773  18.782   6.232  14.489
93029W        W52774   1.844  36.876   0.446
93030W        W52775  30.437  44.970  11.497
93031W        W52776   2.362   3.939  14.423
93032W        W52777  43.379  22.643   1.881
93033W        W52778   1.459  15.247  14.320
93034W        W52779  13.612   7.336  11.423
93035W        W52780  37.830  10.222  10.013
93036W        W52781  22.702  29.939   2.824
93037W        W52782  42.484   3.745   4.336
93038W        W52783  29.637   0.274   1.406
93039W        W52784   5.870  33.558  11.060
93040W        W52785  27.599  36.436  13.467
93041W        W52786  43.892  16.168   4.773
93042W        W52787   8.310  42.502  11.386
93043W        W52788  38.469  33.016   0.880
93044W        W52789  25.659  33.421  13.977
93045W        W52790  42.522  38.556  10.579
93046W        W52791  35.418  25.997  12.875
93047W        W52792  21.641  36.855  11.400
93048W        W52793   0.441   0.814   4.810
93049W        W52794  36.538  40.345   2.681
93050W        W52795  36.418  22.688   4.284
93051W        W52796  13.114   8.330   4.617
93052W        W52797  20.572  11.679   2.892
93053W        W52798  14.205   1.445   2.280
93054W        W52799  12.658  42.011   3.352
93055W        W52800   6.884  44.882   3.180
93056W        W52801   8.747   8.899  13.358
93057W        W52802  38.549  25.624  11.936
93058W        W52803  30.534  18.193   2.867
93059W        W52804  33.568  12.174  13.869
93060W        W52805  27.591  35.554  12.058
93061W        W52806  42.353  38.971  11.587
93062W        W52807  34.590   7.408  12.841
93063W        W52808  40.853  17.266  11.554
93064W        W52809  29.036  24.136   4.147
93065W        W52810  12.276  13.715   1.889
93066W        W52811  12.296  16.192  12.031
93067W        W52812  22.147  27.123   3.279
93068W        W52813  11.370  14.735  11.123
93069W        W52814  44.389  42.462   1.350
93070W        W52815  17.599  16.132  14.994
93071W        W52816   1.457  17.103  13.482
93072W        W52817  25.496   8.223   0.834
93073W        W52818  39.935   5.907  11.457
93074W        W52819  22.559  24.700   3.661
93075W        W52820   4.298   3.905  14.482
93076W        W52821  25.600  36.585   4.113
93077W        W52822   9.772  30.974  14.288
93078W        W52823  17.213  42.987  10.986
93079W        W52824  10.741   2.397  14.493
93080W        W52825  10.289  13.738  12.970
93081W        W52826  18.148   1.460   0.419
93082W        W52827  40.898   2.279  11.387
93083W        W52828  28.066  35.465   3.282
93084W        W52829  22.587  29.161  14.295
93085W        W52830  18.702   7.383   4.736
93086W        W52831  19.111  13.282  12.839
93087W        W52832  16.096   6.768  13.466
93088W        W52833   2.915  18.747   2.269
93089W        W52834  41.973  15.710  13.051
93090W        W52835  35.899  37.032  11.878
93091W        W52836   6.754  13.105  14.431
93092W        W52837  44.809  27.627   3.687
93093W        W52838  43.396  28.496  12.445
93094W        W52839  25.653  17.145   1.219
93095W        W52840  27.105  40.805   2.760
93096W        W52841   0.408   0.406  11.980
93097W        W52842  35.510   4.393   3.355
93098W        W52843  19.158   5.220  11.402
93099W        W52844  33.120  38.413  11.869
93100W        W52845  36.097  11.868  14.865
93101W        W52846  19.682  11.168   9.940
93102W        W52847  44.450  44.916  10.494
93103W        W52848  35.419   9.199  14.470
93104W        W52849  16.298  25.676   1.417
93105W        W52850  20.098  40.384  12.403
93106W        W52851   5.807  20.180   3.243
93107W        W52852  27.566  11.643  13.024
93108W        W52853  22.122  10.655   3.340
93109W        W52854   5.312  43.930  10.940
93110W        W52855   0.823  20.552   2.287
93111W        W52856   4.338   5.195   2.722
93112W        W52857  21.235  14.797   3.858
93113W        W52858   5.927  25.024  13.360
93114W        W52859  18.252  44.786   3.630
93115W        W52860  17.301  31.124   0.790
93116W        W52861  22.050  24.120   0.780
93117W        W52862   8.855  35.004  10.629
93118W        W52863  25.014   6.306   0.248
93119W        W52864  44.491  39.500   4.341
93120W        W52865  16.616  13.835   3.813
93121W        W52866  23.054  32.072   1.307
93122W        W52867  29.152  32.498   2.374
93123W        W52868  28.591  27.520  14.780
93124W        W52869  10.302  19.041  13.357
93125W        W52870  42.878  35.053  12.518
93126W        W52871  29.527   7.902   2.220
93127W        W52872   8.160  26.646  13.419
93128W        W52873  17.556  29.547   3.832
93129W        W52874  26.099  11.824   2.356
93130W        W52875  11.148  43.964  11.523
93131W        W52876   1.768   8.173   2.760
93132W        W52877  44.951   2.364   2.775
93133W        W52878  12.695   1.892   0.877
93134W        W52879   7.907   1.367   0.256
93135W        W52880  32.015  18.756   1.912
93136W        W52881  37.863  27.985   9.931
93137W        W52882  12.766  41.902  14.844
93138W        W52883   7.279   1.299   1.835
93139W        W52884  18.111  43.471  13.447
93140W        W52885  41.293   4.336  13.827
93141W        W52886  23.097  42.904  12.917
93142W        W52887  38.451   2.874   0.726
93143W        W52888  18.209  20.694  11.056
93144W        W52889  33.910  43.274  12.365
93145W        W52890  25.656   3.270   4.733
93146W        W52891  33.888   4.900  10.481
93147W        W52892   9.888   8.809   1.225
93148W        W52893   9.698  22.012  13.448
93149W        W52894  13.281  14.296  10.489
93150W        W52895  44.440   0.302   3.734
93151W        W52896  34.004  16.079  13.491
93152W        W52897  17.616   0.367   4.173
93153W        W52898   3.359   8.261   0.948
93154W        W52899  18.748  10.677   0.429
93155W        W52900   2.227  22.243  13.977
93156W        W52901  21.523   7.809  10.593
93157W        W52902  16.230  16.645   2.268
93158W        W52903  10.305  13.317  11.097
93159W        W52904  40.017   4.814   0.269
93160W        W52905  30.656  13.715   3.786
93161W        W52906  30.037  15.687  12.484
93162W        W52907   0.473   8.399   4.325
93163W        W52908   6.254  40.848  11.996
93164W        W52909  42.017   0.895   4.839
93165W        W52910  28.016  27.031  10.472
93166W        W52911  31.906  12.785  14.879
93167W        W52912  30.105   8.826   4.700
93168W        W52913  22.163  16.660   1.790
93169W        W52914  15.723  41.986  13.332
93170W        W52915  35.514  11.678   3.359
93171W        W52916   5.378   2.766   3.740
93172W        W52917  24.609  12.126  13.839
93173W        W52918  19.601  18.748  14.477
93174W        W52919  29.172   4.363  12.926
93175W        W52920  23.221  36.530  14.968
93176W        W52921  17.666  21.176  12.574
93177W        W52922  10.697  22.098  12.938
93178W        W52923  15.636  18.276   2.404
93179W        W52924  11.839  38.998   1.706
93180W        W52925   5.821  44.325  11.499
93181W        W52926  39.436   6.823  12.980
93182W        W52927  20.137  26.544   2.352
93183W        W52928  43.310   0.467  10.578
93184W        W52929  40.921  36.876  12.835
93185W        W52930  42.340  14.314  12.460
93186W        W52931   5.905   4.709  14.290
93187W        W52932  29.540   7.288  10.952
93188W        W52933  22.608  41.426  11.891
93189W        W52934  16.629  19.163   1.894
93190W        W52935  19.626  41.466  13.378
93191W        W52936   9.221   9.286  13.866
93192W        W52937  41.853  18.785   4.674
93193W        W52938  31.606  13.293   4.351
93194W        W52939  41.990  42.306   1.226
93195W        W52940  30.496  15.738  14.028
93196W        W52941  43.352  38.470  13.468
93197W        W52942   7.266   7.300   4.117
93198W        W52943  12.202  42.825  14.815
93199W        W52944  34.510  22.588  13.324
93200W        W52945  19.043  20.254  12.436
93201W        W52946  24.174   6.831   1.351
93202W        W52947  43.785   8.862  10.888
93203W        W52948  37.507  36.437  13.546
93204W        W52949   4.799  42.494   1.272
93205W        W52950  16.737  18.567  14.423
93206W        W52951  44.351  35.947   0.877
93207W        W52952  34.570  44.768   1.436
93208W        W52953   1.767  32.559  10.918
93209W        W52954  18.728   5.697  14.320
93210W        W52955  30.057  16.094  10.932
93211W        W52956   6.914  23.584  13.865
93212W        W52957  41.309   5.772   2.400
93213W        W52958  28.536  15.753   2.781
93214W        W52959  35.440  29.610   1.409
93215W        W52960   9.696  28.146   3.365
93216W        W52961  35.561  17.260  12.493
93217W        W52962  18.197  23.131   4.283
93218W        W52963  29.134  37.543   4.823
93219W        W52964  41.317  21.522  12.359
93220W        W52965   2.383  29.461  14.398
93221W        W52966  19.177   4.449   0.803
93222W        W52967   9.760   5.396  13.448
93223W        W52968  16.620  23.086  11.419
93224W        W52969  35.512  22.676   5.108
93225W        W52970  39.916  41.338   2.332
93226W        W52971  43.880  42.912   1.360
93227W        W52972  41.341   7.739  13.901
93228W        W52973  32.570  37.565   4.791
93229W        W52974  34.892   3.830   3.841
93230W        W52975  20.233  11.656   2.859
93231W        W52976  32.436  38.409   1.696
93232W        W52977  33.129  18.181  13.847
93233W        W52978  27.637  28.440  12.018
93234W        W52979  39.998   4.276  13.048
93235W        W52980  15.282  26.581   4.270
93236W        W52981  11.834  26.072  12.358
93237W        W52982  28.077  33.489   0.805
93238W        W52983  24.583  28.036  13.325
93239W        W52984   3.387  33.905  13.864
93240W        W52985   1.874   5.780  13.416
93241W        W52986  32.040  23.046  11.112
93242W        W52987  12.771  35.980   3.236
93243W        W52988  20.591  37.392  11.048
93244W        W52989  26.543  44.955  13.877
93245W        W52990  38.391  29.064   2.264
93246W        W52991  22.676  41.449  14.779
93247W        W52992  39.037   8.374   2.218
93248W        W52993  20.248  29.065  10.404
93249W        W52994  26.014  16.218   4.126
93250W        W52995   6.308  31.148  13.500
93251W        W52996  25.156  31.941  11.387
93252W        W52997  20.559   6.689   2.189
93253W        W52998  10.700  38.888   1.875
93254W        W52999  32.114  11.353  12.989
93255W        W53000   2.909   2.921   2.296
93256W        W53001  40.817  31.553   1.265
93257W        W53002  22.557   0.770  13.391
93258W        W53003   3.444   4.214   4.322
93259W        W53004  30.098   0.280  13.887
93260W        W53005  25.029  44.273   1.240
93261W        W53006  38.358   9.835   1.432
93262W        W53007  26.472   6.333  10.617
93263W        W53008   0.263  25.197   3.167
93264W        W53009  33.568  33.603  13.352
93265W        W53010   7.237  35.427   0.351
93266W        W53011  37.510  21.644   1.237
93267W        W53012  37.368  23.995   0.320
93268W        W53013  43.012   8.249  11.517
93269W        W53014   0.892  43.842  13.502
93270W        W53015  12.685   5.231  11.093
93271W        W53016  16.200  21.205   2.233
93272W        W53017   6.701  35.418   0.864
93273W        W53018  22.735  42.413   1.706
93274W        W53019  17.204   2.262   4.127
93275W        W53020  22.130   0.989  11.394
93276W        W53021  30.152  42.525   1.263
93277W        W53022  25.567  40.902  12.823
93278W        W53023  34.917  17.286   4.116
93279W        W53024  43.314   5.852   1.253
93280W        W53025  11.185  28.155   1.818
93281W        W53026  24.713  10.271  14.807
93282W        W53027  22.205  34.570  13.390
93283W        W53028  43.967  27.573  13.937
93284W        W53029  42.957   8.881   4.733
93285W        W53030  34.050  27.994  14.934
93286W        W53031   7.290  14.732   1.785
93287W        W53032  15.234  16.763   4.734
93288W        W53033   2.774  36.928   2.329
93289W        W53034  37.923  21.527   0.778
93290W        W53035  20.626  18.641  11.393
93291W        W53036   4.424  40.493   4.627
93292W        W53037  39.386  30.063  14.487
93293W        W53038  43.869  15.704  10.461
93294W        W53039  18.273  38.532  13.818
93295W        W53040   2.904  25.976   3.800
93296W        W53041  34.970  29.512   2.283
93297W        W53042  16.110  16.313   3.311
93298W        W53043   2.231  35.385  14.884
93299W        W53044   9.675   4.436   2.767
93300W        W53045  34.868  13.109   3.637
93301W        W53046  14.301  22.049  10.947
93302W        W53047   8.865  14.226  13.343
93303W        W53048  38.964  16.709  14.405
93304W        W53049  22.124  33.983   3.854
93305W        W53050  14.636  33.439   4.788
93306W        W53051  11.699  42.417   1.931
93307W        W53052  10.215  16.149  12.863
93308W        W53053  13.265  10.820   3.353
93309W        W53054  26.008  44.371  10.013
93310W        W53055  37.020   2.943   1.729
93311W        W53056  15.642  37.036  11.118
93312W        W53057  10.162  39.365  14.999
93313W        W53058  15.719  19.128   1.774
93314W        W53059  38.483  19.594   3.797
93315W        W53060  22.080  14.152   2.244
93316W        W53061   8.315  27.499  12.945
93317W        W53062  35.392  33.503   2.273
93318W        W53063  17.571  28.477  10.965
93319W        W53064  18.231  19.069   3.351
93320W        W53065  32.025  15.654  13.405
93321W        W53066  40.050  32.117  13.337
93322W        W53067  39.820   2.420   2.713
93323W        W53068  16.303  40.533  12.927
93324W        W53069   4.292  32.605   4.346
93325W        W53070   8.776   1.895  13.311
93326W        W53071  27.137  15.719  10.907
93327W        W53072  15.680  40.533   2.730
93328W        W53073  41.812  17.619  13.050
93329W        W53074  43.344   3.300  14.862
93330W        W53075  17.623  21.750  12.997
93331W        W53076   4.294  38.967  12.579
93332W        W53077  29.923  37.842  12.027
93333W        W53078   5.425  18.151  10.572
93334W        W53079   6.295  42.448   2.379
93335W        W53080  20.572  18.226  12.471
93336W        W53081  33.564  44.450   0.838
93337W        W53082  18.775   7.240   0.837
93338W        W53083  41.908  11.643   2.857
93339W        W53084  31.076  23.612   3.178
93340W        W53085  44.870  32.132  10.481
93341W        W53086  30.010  18.230  11.557
93342W        W53087   4.943  42.401   2.814
93343W        W53088  38.541  15.718  11.860
93344W        W53089  28.637  20.090  12.446
93345W        W53090  22.558  34.095   1.331
93346W        W53091  27.679  20.702  12.825
93347W        W53092  41.036  43.445   1.437
93348W        W53093  33.409   1.330  12.540
93349W        W53094  20.244  29.972   3.723
93350W        W53095   5.722  27.542  13.839
93351W        W53096  33.005  18.236  13.523
93352W        W53097  32.894  36.413  13.384
93353W        W53098  27.092  39.855  13.417
93354W        W53099  24.148  37.892  14.934
93355W        W53100   6.391  41.393  11.867
93356W        W53101  20.270  36.086  12.853
93357W        W53102  31.632  17.575  14.880
93358W        W53103   6.386  32.518  11.608
93359W        W53104  30.637  11.747  13.329
93360W        W53105   9.741  22.046   0.344
93361W        W53106  29.519  36.572  10.488
93362W        W53107  19.705  31.463   3.256
93363W        W53108  17.616   8.375  10.929
93364W        W53109  15.672   3.871  13.480
93365W        W53110  29.466  22.554   1.714
93366W        W53111  20.763  34.022  10.467
93367W        W53112  17.664  22.636  14.945
93368W        W53113  26.008  42.798  14.766
93369W        W53114   4.887  33.037  13.819
93370W        W53115  28.983  30.629  13.996
93371W        W53116  13.348  22.134   4.653
93372W        W53117  10.840  16.735   3.295
93373W        W53118  11.212  26.981   0.730
93374W        W53119  40.311   5.411  13.347
93375W        W53120   9.771  22.710  14.360
93376W        W53121   9.194  26.164   4.326
93377W        W53122  36.904  36.555   2.834
93378W        W53123  40.429  16.764   3.330
93379W        W53124   4.334  31.065   0.861
93380W        W53125  29.027  28.020   1.830
93381W        W53126  17.144   6.263  11.101
93382W        W53127  31.547   8.375  11.526
93383W        W53128  24.484  26.530   4.262
93384W        W53129  35.856  22.736   1.832
93385W        W53130  16.292  16.201   0.404
93386W        W53131   2.874  36.394   1.300
93387W        W53132  11.245  12.354   0.906
93388W        W53133  16.170  10.257   3.164
93389W        W53134  34.439  10.876   1.298
93390W        W53135  25.482  10.232  13.035
93391W        W53136  16.776  43.495  11.601
93392W        W53137  25.019  27.003  11.049
93393W        W53138  33.542   0.371   0.928
93394W        W53139  28.998  38.371   3.345
93395W        W53140  20.197  28.605   3.869
93396W        W53141   7.207   7.815   4.152
93397W        W53142   3.939  24.643  13.344
93398W        W53143  37.924   0.291  13.515
93399W        W53144  28.149  34.901  11.987
93400W        W53145  23.643  10.679  13.900
93401W        W53146  14.603  38.840  11.605
93402W        W53147  28.553  41.465  11.929
93403W        W53148  23.052  20.623  11.937
93404W        W53149  40.999   4.725   2.873
93405W        W53150   2.880  13.164   2.341
93406W        W53151  28.179  34.391   0.283
93407W        W53152  36.353  21.212   5.283
93408W        W53153  39.956  24.987   4.649
93409W        W53154  32.482  19.673   0.805
93410W        W53155   4.248  28.619   0.730
93411W        W53156  24.560  32.933   0.330
93412W        W53157   5.784  36.080   3.151
93413W        W53158  11.674  11.806   1.243
93414W        W53159  43.894  38.900  11.931
93415W        W53160  26.693   7.282  14.834
93416W        W53161  44.406  11.369  13.811
93417W        W53162  42.958   4.353  12.449
93418W        W53163   6.419  29.157   1.874
93419W        W53164  13.166  41.425  14.921
93420W        W53165   3.779  32.969   2.211
93421W        W53166  18.741  20.593  12.371
93422W        W53167  20.763  11.257  11.396
93423W        W53168  33.039   9.288   2.257
93424W        W53169  36.071  41.009   0.417
93425W        W53170  28.960   3.331  13.502
93426W        W53171   9.654  29.998  14.771
93427W        W53172  20.267  23.715  14.314
93428W        W53173  18.127  39.376   0.944
93429W        W53174  13.657   3.731   1.371
93430W        W53175   4.933   2.414   4.666
93431W        W53176  10.728  25.470  13.059
93432W        W53177  18.690  33.579   2.733
93433W        W53178   5.730  24.479  12.407
93434W        W53179  33.594   4.431  12.529
93435W        W53180  21.512  31.573   2.283
93436W        W53181   2.466  41.518  11.403
93437W        W53182  22.203   9.350   2.416
93438W        W53183   6.210  44.426   3.844
93439W        W53184  13.797  16.194  14.794
93440W        W53185  27.465  25.473  13.546
93441W        W53186  27.493  15.764   2.714
93442W        W53187   3.221  44.841   4.309
93443W        W53188  24.572  20.103   4.183
93444W        W53189  32.140  34.572  15.000
93445W        W53190  22.067  40.856   0.480
93446W        W53191  19.766  17.160  14.989
93447W        W53192  41.481  42.947   3.766
93448W        W53193  33.548   1.327   0.287
93449W        W53194  15.619  38.863   4.224
93450W        W53195  14.695  38.391   0.785
93451W        W53196  21.596  32.040  12.970
93452W        W53197  21.145  27.068   0.735
93453W        W53198  14.194  35.399  14.971
93454W        W53199  42.407  35.471  11.533
93455W        W53200  34.040   9.808   4.278
93456W        W53201  37.838  19.082  12.947
93457W        W53202  13.286   0.983   1.876
93458W        W53203  40.820  12.689   0.403
93459W        W53204  31.464  44.971   4.763
93460W        W53205  31.144  32.902   2.281
93461W        W53206  36.929   1.807   0.878
93462W        W53207  41.531  44.784  11.113
93463W        W53208  34.545  18.602   0.855
93464W        W53209   6.785  20.653  14.296
93465W        W53210  42.878  44.497  12.043
93466W        W53211  10.187  31.014   3.845
93467W        W53212   3.846  28.447   0.752
93468W        W53213  38.051  40.467   1.331
93469W        W53214  33.382   6.426  11.428
93470W        W53215   1.448   1.781  11.550
93471W        W53216   7.834  18.086  14.765
93472W        W53217  24.666  20.685  12.358
93473W        W53218  16.107   0.295   4.269
93474W        W53219  27.128  34.947   3.295
93475W        W53220  34.993   1.349   2.268
93476W        W53221  21.192  41.933  11.059
93477W        W53222  40.362   9.742  14.413
93478W        W53223  10.777  27.602  12.459
93479W        W53224  39.439  12.784  12.356
93480W        W53225  20.763  15.786   0.395
93481W        W53226  18.636  22.521  12.464
93482W        W53227  13.160  10.314   4.749
93483W        W53228   9.667  26.659  13.865
93484W        W53229  10.313  38.346  13.934
93485W        W53230  10.706  30.654  10.927
93486W        W53231   6.256   0.458   1.829
93487W        W53232  15.144  20.042   2.299
93488W        W53233   3.361   5.787  12.439
93489W        W53234  14.275  14.736  11.027
93490W        W53235  13.176  12.806   2.661
93491W        W53236  33.983  14.316  12.540
93492W        W53237   2.254  29.990  14.302
93493W        W53238  37.987   7.897  14.291
93494W        W53239  27.964  10.293   1.799
93495W        W53240  16.111  42.415   4.805
93496W        W53241  11.243   3.318  14.326
93497W        W53242  15.751  22.213   4.746
93498W        W53243  32.510  11.774  14.313
93499W        W53244  11.260  29.139   2.361
93500W        W53245  21.745  35.882   0.812
93501W        W53246  27.498  10.347   4.817
93502W        W53247   2.448   3.734  13.854
93503W        W53248   8.168   6.362  14.868
93504W        W53249   0.345  20.078  11.109
93505W        W53250   3.363  11.237  13.462
93506W        W53251  11.207  16.130  14.461
93507W        W53252   1.244  11.764  11.983
93508W        W53253  28.108  24.041   2.901
93509W        W53254   4.271  16.084  10.630
93510W        W53255  17.087  43.784   3.737
93511W        W53256  32.492  18.743  13.506
93512W        W53257  41.500  20.644  11.889
93513W        W53258  15.100  26.051  10.545
93514W        W53259  21.050  26.637  11.433
93515W        W53260  43.856  23.606  10.437
93516W        W53261  18.551   9.187   4.663
93517W        W53262  44.847  20.155   0.741
93518W        W53263   7.680  26.101  13.388
93519W        W53264  30.085   1.878  11.105
93520W        W53265  39.916  27.178  14.334
93521W        W53266   1.376  12.242   0.808
93522W        W53267  36.406  44.779  13.829
93523W        W53268  40.942  38.033   2.332
93524W        W53269   6.214  38.919   2.805
93525W        W53270  37.364   6.380   0.396
93526W        W53271  24.058  17.088   0.782
93527W        W53272  31.528  38.868  12.914
93528W        W53273  31.910  39.404   4.343
93529W        W53274  44.907  26.158  14.007
93530W        W53275   9.834  30.161  12.447
93531W        W53276  31.555  38.520   4.772
93532W        W53277  35.993  41.400  13.487
93533W        W53278  23.639   1.263  11.525
93534W        W53279  16.668  34.543  10.590
93535W        W53280  21.638  36.584   3.148
93536W        W53281   6.353   8.758   4.646
93537W        W53282  29.644  33.985   4.203
93538W        W53283  26.515   0.364  13.803
93539W        W53284  20.125  32.033  11.008
93540W        W53285   7.290  18.171   1.355
93541W        W53286   3.231  40.819   9.992
93542W        W53287   4.803  25.521  14.422
93543W        W53288  11.200  39.037   5.213
93544W        W53289  10.168  34.576  14.922
93545W        W53290   2.246  16.662   5.313
93546W        W53291  25.048  36.373   0.246
93547W        W53292  34.402  21.626   1.405
93548W        W53293  37.991   3.403  13.951
93549W        W53294  24.690  17.654   9.667
93550W        W53295  25.102  20.126  10.989
93551W        W53296  42.373   7.244  14.767
93552W        W53297   6.203  38.855   0.398
93553W        W53298   8.242  22.519  11.500
93554W        W53299   7.892  21.703  13.951
93555W        W53300  30.493  42.458   0.893
93556W        W53301  32.411  15.743  11.604
93557W        W53302  16.118  42.403  11.415
93558W        W53303   3.287  15.710  10.955
93559W        W53304  38.848  11.865  14.929
93560W        W53305  10.682  13.259   0.275
93561W        W53306  24.485  41.449   0.929
93562W        W53307  37.554  28.122  11.461
93563W        W53308   5.410  44.831  13.370
93564W        W53309  23.498   1.767  12.859
93565W        W53310   3.818  33.894   3.842
93566W        W53311  23.643   9.679   1.895
93567W        W53312  12.610   1.945  14.326
93568W        W53313  31.488  31.609  14.411
93569W        W53314   5.203  11.346  14.761
93570W        W53315  41.476  14.759   3.780
93571W        W53316  17.289   4.814   4.347
93572W        W53317   2.926  26.646   4.152
93573W        W53318   5.869  19.606   2.276
93574W        W53319  41.810  31.898  11.124
93575W        W53320  32.929   9.269  14.868
93576W        W53321  33.977   8.319  14.810
93577W        W53322  29.094  20.255   1.271
93578W        W53323  19.106   4.276   4.241
93579W        W53324  25.525  38.052   3.375
93580W        W53325  25.534  23.092  10.588
93581W        W53326  36.445  14.742   0.922
93582W        W53327   1.816  24.483  13.521
93583W        W53328  15.083   0.413   1.888
93584W        W53329  24.667  34.868   4.735
93585W        W53330  13.811  32.105  14.379
93586W        W53331  25.098  39.879   0.278
93587W        W53332  39.422  41.006  14.949
93588W        W53333  37.924  25.698  14.310
93589W        W53334  27.948  34.994  13.827
93590W        W53335  27.983  36.050  14.825
93591W        W53336  10.316  34.536  14.445
93592W        W53337  40.935  32.618   4.203
93593W        W53338   8.257  27.661   4.309
93594W        W53339   4.794  26.468  13.815
93595W        W53340  32.025   7.369   1.243
93596W        W53341   3.395  11.834  12.929
93597W        W53342  20.244  24.479   4.613
93598W        W53343  38.916  11.660  12.055
93599W        W53344  23.653  28.671   3.753
93600W        W53345  40.830   7.329   4.785
93601W        W53346   5.311  41.420   0.915
93602W        W53347  13.621  19.632  13.495
93603W        W53348  25.989  21.233  14.442
93604W        W53349   8.810   8.186  13.804
93605W        W53350  30.449  34.561  10.540
93606W        W53351  33.531   0.316   4.220
93607W        W53352   4.738  31.633  12.057
93608W        W53353  30.070  18.142   0.297
93609W        W53354  38.037  41.377  10.099
93610W        W53355  28.000  42.439   4.179
93611W        W53356   5.359  43.380  14.762
93612W        W53357  39.405   6.335  12.442
93613W        W53358  37.975  27.049  13.963
93614W        W53359  30.629  26.507  11.563
93615W        W53360  26.552   7.302   1.343
93616W        W53361  10.682  42.830  11.902
93617W        W53362  33.383  41.038  14.888
93618W        W53363   2.470  19.573  14.348
93619W        W53364   7.184  39.387   2.330
93620W        W53365  33.580  28.641  11.395
93621W        W53366  19.045  38.328   3.751
93622W        W53367  14.099  24.171  11.458
93623W        W53368  41.363  43.933   3.291
93624W        W53369  40.442  12.840   4.128
93625W        W53370  43.447  10.255   3.825
93626W        W53371  44.907  14.252  13.040
93627W        W53372  23.075  10.681  12.363
93628W        W53373  38.502  32.427  10.925
93629W        W53374  12.763   1.354   1.922
93630W        W53375  22.006  22.629  14.426
93631W        W53376  39.369  14.310  12.973
93632W        W53377  26.642  42.874   0.924
93633W        W53378  23.117  17.681   1.755
93634W        W53379   4.401  22.684  10.628
93635W        W53380  30.058  17.698  12.087
93636W        W53381  25.592  15.315   5.284
93637W        W53382  32.528   7.334   3.297
93638W        W53383   0.911  10.227  10.525
93639W        W53384   1.840  19.603   4.349
93640W        W53385  26.056  38.932   1.884
93641W        W53386  34.963  19.279  14.884
93642W        W53387  20.627  14.816   3.156
93643W        W53388  24.011  22.625   4.213
93644W        W53389   5.293  33.921  13.386
93645W        W53390  37.048  44.347   3.146
93646W        W53391  43.290   4.837   0.442
93647W        W53392  28.632  31.632  11.028
93648W        W53393  32.598  37.053   3.818
93649W        W53394   4.394  21.227   2.818
93650W        W53395  33.467  13.249  14.944
93651W        W53396  29.009  12.815   3.800
93652W        W53397   3.826  40.872  10.944
93653W        W53398  14.182  15.780   1.375
93654W        W53399  42.368  23.150  11.960
93655W        W53400  44.976  22.602  11.108
93656W        W53401  12.627   4.341  13.934
93657W        W53402  22.202  35.433  13.980
93658W        W53403  11.255  40.515   2.198
93659W        W53404   1.953  33.389   5.140
93660W        W53405   7.806  30.610  14.395
93661W        W53406  10.379   7.670  11.114
93662W        W53407  15.091   3.371   4.807
93663W        W53408   5.368  14.174   1.391
93664W        W53409  36.471  30.599  14.356
93665W        W53410  19.078  22.226   3.220
93666W        W53411   6.318  37.545  12.026
93667W        W53412  30.549  34.096  14.798
93668W        W53413  18.728   4.410   2.875
93669W        W53414  34.118  42.931   2.269
93670W        W53415  30.076   0.983  14.962
93671W        W53416   1.973  13.725  11.973
93672W        W53417  15.165  13.805  14.336
93673W        W53418   0.265   0.426   0.854
93674W        W53419  38.038  35.959  10.966
93675W        W53420  13.288  41.465  10.435
93676W        W53421  12.351   2.456   3.240
93677W        W53422  40.474  31.447   2.398
93678W        W53423   4.915  18.716  13.044
93679W        W53424  16.161  13.683  10.542
93680W        W53425  44.782  11.135  10.547
93681W        W53426  40.045  38.839   4.735
93682W        W53427  10.358   5.302  10.422
93683W        W53428  13.346  33.469   3.745
93684W        W53429  37.544  14.317  10.607
93685W        W53430  15.165  26.600   4.694
93686W        W53431  40.536  17.244   4.173
93687W        W53432  10.221  30.516  10.004
93688W        W53433   4.717  19.176  14.987
93689W        W53434  11.248  32.890   9.937
93690W        W53435  22.027  38.346   4.150
93691W        W53436  15.751   5.337   0.379
93692W        W53437  20.649   6.760   3.721
93693W        W53438  29.581  20.714  14.287
93694W        W53439   0.426  27.500  12.497
93695W        W53440  26.018   0.783  12.571
93696W        W53441  20.656  27.972  12.935
93697W        W53442  11.338   7.200   1.785
93698W        W53443  43.313  23.506  13.010
93699W        W53444  20.139   4.745  13.370
93700W        W53445  39.434  31.046   0.847
93701W        W53446  39.859  18.226  11.119
93702W        W53447  27.040   8.724   0.736
93703W        W53448  24.671   7.376   1.827
93704W        W53449  28.947  42.776   2.375
93705W        W53450  29.142  25.043  14.996
93706W        W53451   9.665  42.779  11.858
93707W        W53452  23.562  35.005  14.492
93708W        W53453  44.932   4.733   1.920
93709W        W53454   7.807  25.122  14.323
93710W        W53455  29.119  15.115   0.913
93711W        W53456  36.938   5.204  14.403
93712W        W53457  32.556  33.424  11.567
93713W        W53458  11.305  42.313   0.871
93714W        W53459  39.841  19.249   1.748
93715W        W53460  21.735   9.653  14.867
93716W        W53461  26.072   1.774  12.027
93717W        W53462  27.104  14.130   3.798
93718W        W53463  36.489  36.946  12.865
93719W        W53464  23.005  25.535  13.021
93720W        W53465  28.164   2.820   4.813
93721W        W53466  43.880  14.774  14.360
93722W        W53467  29.081  34.869  14.501
93723W        W53468  15.209   1.244  14.937
93724W        W53469  16.182  40.873  14.765
93725W        W53470  31.135  22.515  13.510
93726W        W53471  28.098  17.276   5.299
93727W        W53472  13.657  30.438   3.837
93728W        W53473  18.722  14.267  14.294
93729W        W53474  10.271  26.040   1.368
93730W        W53475  17.624  11.350  12.835
93731W        W53476  22.090  34.592  12.900
93732W        W53477  33.431   2.416   3.265
93733W        W53478  12.286   4.823  10.565
93734W        W53479   8.895  27.466   3.773
93735W        W53480  35.941  44.779   4.324
93736W        W53481   5.869  18.637   3.203
93737W        W53482  25.551  21.627   0.808
93738W        W53483   0.781   2.823  14.949
93739W        W53484   7.281  41.881   2.254
93740W        W53485  34.423   0.422  10.508
93741W        W53486  17.107  29.136   4.813
93742W        W53487  24.697  27.027  13.053
93743W        W53488  11.350  42.452   2.398
93744W        W53489  29.635   5.283  13.829
93745W        W53490  10.167  37.369   2.902
93746W        W53491  12.718   2.400   4.210
93747W        W53492  14.338  31.614  13.384
93748W        W53493  17.664  13.332  12.866
93749W        W53494  37.347   8.200  11.872
93750W        W53495  35.468  41.340  12.406
93751W        W53496  23.194  22.594   2.774
93752W        W53497   7.691  27.521   1.230
93753W        W53498  30.046  36.589   0.260
93754W        W53499  34.981   8.271   2.381
93755W        W53500  31.929  11.733  13.447
93756W        W53501   7.204  21.729  13.475
93757W        W53502  27.151  44.876  13.424
93758W        W53503   5.331  14.816   3.372
93759W        W53504  13.320  41.801  12.534
93760W        W53505   0.858   0.254  10.505
93761W        W53506  18.609   8.370   1.310
93762W        W53507  33.477   0.938  13.916
93763W        W53508  21.655  13.277  10.425
93764W        W53509  23.524  28.949   1.924
93765W        W53510  37.506  22.058   1.855
93766W        W53511  16.289  38.447  13.311
93767W        W53512  20.210  23.635   2.902
93768W        W53513  12.355  32.617  10.478
93769W        W53514  29.168  10.758   0.803
93770W        W53515  22.724  34.442   1.792
93771W        W53516  21.712  22.176   1.332
93772W        W53517  39.864  36.564  14.872
93773W        W53518  15.749  27.673   1.245
93774W        W53519  17.719   2.348  12.534
93775W        W53520   9.235  16.674   4.333
93776W        W53521  20.143  37.915  13.849
93777W        W53522  15.746  23.221  13.347
93778W        W53523  28.125   8.764  12.560
93779W        W53524  36.533  26.682  12.042
93780W        W53525  30.156  28.002  11.598
93781W        W53526  10.867  10.708  11.401
93782W        W53527  26.638  26.461  11.539
93783W        W53528  33.484  25.169   9.942
93784W        W53529  29.919  33.035   9.955
93785W        W53530   3.841   8.235  11.520
93786W        W53531  40.847  31.624   2.693
93787W        W53532  34.926  17.301  11.080
93788W        W53533  44.431  40.332  13.522
93789W        W53534  10.804  38.073   0.333
93790W        W53535  30.532   5.267  14.807
93791W        W53536   1.818  42.005  10.152
93792W        W53537  10.845  33.002   0.827
93793W        W53538  37.394  36.894   2.364
93794W        W53539  32.908  24.539  10.943
93795W        W53540  37.042   0.450   3.793
93796W        W53541   7.863  15.609  12.987
93797W        W53542  25.547   0.432  13.341
93798W        W53543   1.781  22.717  14.319
93799W        W53544   4.776   8.361  14.793
93800W        W53545  34.953  12.132  13.958
93801W        W53546  42.868  18.157   2.793
93802W        W53547  31.401  37.060  13.413
93803W        W53548   4.410  25.984  10.424
93804W        W53549  42.906  27.613   0.734
93805W        W53550  16.740  33.492   4.170
93806W        W53551   5.372  44.484   0.807
93807W        W53552  39.347  14.680   1.338
93808W        W53553  25.491  10.167  13.927
93809W        W53554  15.666  42.369  14.926
93810W        W53555  38.852  37.524   0.899
93811W        W53556  24.145  21.236  12.375
93812W        W53557  40.044   1.901   4.698
93813W        W53558  42.348  33.115  14.779
93814W        W53559  22.168  43.888   2.409
93815W        W53560  36.505  32.462  12.072
93816W        W53561  27.134  19.159   3.252
93817W        W53562   6.266  39.898   0.897
93818W        W53563  19.774  36.532   0.301
93819W        W53564  30.580  34.000   3.386
93820W        W53565  29.025   7.386   1.257
93821W        W53566  31.018  38.546  10.924
93822W        W53567   2.831  30.489  12.917
93823W        W53568  34.880  32.978  14.873
93824W        W53569   3.259  43.886  11.565
93825W        W53570  26.130  32.974   0.745
93826W        W53571  29.542  18.229   2.222
93827W        W53572   4.876  18.087   1.864
93828W        W53573  39.482  28.458  12.910
93829W        W53574   4.754  17.774   0.452
93830W        W53575  21.047  24.513  14.958
93831W        W53576  26.463  24.714  13.935
93832W        W53577  36.937  41.381   3.744
93833W        W53578  28.509  15.196   1.697
93834W        W53579  41.914  31.606  12.493
93835W        W53580   6.351  43.966  12.903
93836W        W53581  19.598  34.476   4.269
93837W        W53582  38.870   8.702   3.337
93838W        W53583   3.266  14.254  12.506
93839W        W53584  19.701   7.375  12.985
93840W        W53585  42.461  44.837   3.210
93841W        W53586  12.666  30.589   1.447
93842W        W53587  11.261  19.681  11.432
93843W        W53588   4.273   7.303  14.401
93844W        W53589  19.595  21.546  11.391
93845W        W53590  11.672  18.600  14.874
93846W        W53591  28.495  41.491   4.334
93847W        W53592  12.306  25.055  12.948
93848W        W53593  26.702  24.226  14.974
93849W        W53594   2.801  28.117   4.612
93850W        W53595   7.788  28.644  12.031
93851W        W53596  16.711  35.414  11.007
93852W        W53597  30.546   1.459   1.297
93853W        W53598   3.407  22.531   1.280
93854W        W53599  32.586   3.851   2.221
93855W        W53600  38.017  33.452   3.802
93856W        W53601   2.899  11.148  12.386
93857W        W53602  19.054  43.966   1.908
93858W        W53603  34.412  28.494  14.015
93859W        W53604  43.458  41.315  14.277
93860W        W53605  43.858  17.674  10.504
93861W        W53606  34.059   2.239   4.649
93862W        W53607   2.961  34.981   0.288
93863W        W53608  16.296  37.475   2.717
93864W        W53609  16.097  19.581  14.382
93865W        W53610  24.563  21.718   2.326
93866W        W53611  41.303  33.490   0.870
93867W        W53612   1.283  10.759   4.812
93868W        W53613  38.508  41.848   1.715
93869W        W53614  40.824  11.764  12.876
93870W        W53615  23.215  14.242   1.779
93871W        W53616   2.345  28.495  11.075
93872W        W53617   7.188  14.776   4.188
93873W        W53618  25.037  34.596  14.485
93874W        W53619  26.585   4.885  13.384
93875W        W53620  23.611  25.522  10.534
93876W        W53621  40.308   5.697   4.619
93877W        W53622  38.999  24.129   0.903
93878W        W53623  44.870  28.555  12.997
93879W        W53624  21.685  40.847  14.974
93880W        W53625  12.629  31.007   3.677
93881W        W53626  31.550  36.479   4.124
93882W        W53627  24.175   8.690  12.380
93883W        W53628  17.298  21.201   4.715
93884W        W53629  15.776  13.217   1.338
93885W        W53630   6.335  30.582  11.004
93886W        W53631  17.207  24.182  13.388
93887W        W53632  40.042  11.224   2.249
93888W        W53633   6.216  25.197  11.537
93889W        W53634  28.116  25.112  13.444
93890W        W53635  11.839  12.640   3.657
93891W        W53636  11.828  28.007   0.900
93892W        W53637  28.627  22.704  10.423
93893W        W53638  36.072  18.074  11.572
93894W        W53639  43.301  39.813   2.258
93895W        W53640  43.002  23.012  13.988
93896W        W53641   8.289  31.036   0.440
93897W        W53642  25.480  24.517  13.920
93898W        W53643  28.110  21.642   3.651
93899W        W53644  29.136  35.572   3.268
93900W        W53645  23.052   5.736  14.407
93901W        W53646   8.715  33.453   5.198
93902W        W53647  41.873  15.328   1.246
93903W        W53648   3.234  39.514   4.227
93904W        W53649  35.931   0.361  12.459
93905W        W53650   6.203  36.055  11.563
93906W        W53651  32.408   3.724  11.914
93907W        W53652  40.341  35.034   2.726
93908W        W53653  44.933   0.944   4.688
93909W        W53654   0.316  14.116   4.619
93910W        W53655   2.899   4.382   4.709
93911W        W53656  20.054  44.336  12.948
93912W        W53657  31.618   4.798  11.984
93913W        W53658  13.795  38.892  14.893
93914W        W53659  20.579  16.180  13.999
93915W        W53660  32.992   9.860   2.218
93916W        W53661  42.992  37.427   0.445
93917W        W53662  35.959  41.920  14.494
93918W        W53663  38.463  35.485  13.426
93919W        W53664  27.104  22.158   1.918
93920W        W53665   6.326  37.046   1.252
93921W        W53666   7.776  40.347  10.957
93922W        W53667  43.454  40.866  12.481
93923W        W53668  10.781   2.445   2.398
93924W        W53669  14.765  42.311  13.808
93925W        W53670  22.584  24.004  13.846
93926W        W53671  10.230  17.298   1.367
93927W        W53672  42.821  18.759   2.893
93928W        W53673  18.099  10.745   1.724
93929W        W53674  32.128  16.611   3.162
93930W        W53675  33.037  22.179   1.450
93931W        W53676  28.155  16.675  12.561
93932W        W53677  29.438  33.443  13.345
93933W        W53678  40.334   1.942   4.797
93934W        W53679  11.687  43.785  13.796
93935W        W53680  36.926  43.930  11.601
93936W        W53681  21.108  35.603  13.478
93937W        W53682  36.535  41.292  13.347
93938W        W53683  28.607   3.414   3.299
93939W        W53684  41.312  19.072   0.747
93940W        W53685  13.202  19.585   5.223
93941W        W53686  13.758  12.680  10.903
93942W        W53687   2.266  16.134   5.221
93943W        W53688  19.191  25.505  11.022
93944W        W53689  29.630  40.474   0.452
93945W        W53690  27.547  19.154   1.294
93946W        W53691  23.021  26.532   5.312
93947W        W53692  23.505   9.674  13.942
93948W        W53693  27.167  23.505  12.524
93949W        W53694   6.318  35.436  14.946
93950W        W53695  36.032  17.618   3.705
93951W        W53696  21.556  35.012   2.321
93952W        W53697  33.890  36.855   2.739
93953W        W53698   2.296  16.166   4.205
93954W        W53699  10.799  41.359   3.197
93955W        W53700   2.951   3.220   1.351
93956W        W53701  40.417  10.692  10.416
93957W        W53702  16.607  34.006  14.499
93958W        W53703  42.333  13.697   0.328
93959W        W53704  37.357  13.758   2.264
93960W        W53705  22.690  20.187   4.780
93961W        W53706  17.664  40.308  11.575
93962W        W53707  10.867   1.404  11.561
93963W        W53708  16.578  28.560   1.800
93964W        W53709  33.984  26.463   0.366
93965W        W53710  11.651  11.370   3.349
93966W        W53711  13.227  34.075  12.902
93967W        W53712  21.577  35.973   2.729
93968W        W53713   8.390  39.452  10.535
93969W        W53714  15.089  25.988  13.848
93970W        W53715  33.013  19.632   2.305
93971W        W53716  36.462  42.943  13.411
93972W        W53717  32.963  38.506   0.343
93973W        W53718  43.823  14.628  12.517
93974W        W53719  15.579  12.207  11.021
93975W        W53720  12.705  43.436   1.211
93976W        W53721  19.208  11.165   1.340
93977W        W53722   2.793  11.185   4.240
93978W        W53723  17.562  42.478  11.920
93979W        W53724  37.031   8.183  14.995
93980W        W53725   3.424  19.049  12.052
93981W        W53726  29.588   9.722  13.994
93982W        W53727  38.073  43.504   0.819
93983W        W53728  41.024  37.479  13.994
93984W        W53729  30.090  14.207   0.953
93985W        W53730   3.322  40.957   2.737
93986W        W53731  19.167  19.171  11.957
93987W        W53732   2.376   6.274  13.019
93988W        W53733   6.188   0.946   2.816
93989W        W53734  30.646   1.966   0.746
93990W        W53735   3.780  17.661   5.150
93991W        W53736   2.805  43.002  14.000
93992W        W53737  29.507  42.293  10.999
93993W        W53738  29.947  39.382  12.987
93994W        W53739  35.951  21.548   3.195
93995W        W53740  37.845  38.354   0.426
93996W        W53741  38.912   4.801   2.884
93997W        W53742   1.393  16.246   4.721
93998W        W53743  32.076  43.967   4.609
93999W        W53744  12.194  44.950  11.954
94000W        W53745  18.188  31.426   3.749
94001W        W53746  32.896  38.837  10.888
94002W        W53747  14.814  32.523  13.846
94003W        W53748  36.463  18.616  12.340
94004W        W53749  18.690  12.321   1.271
94005W        W53750  43.299  33.609  14.510
94006W        W53751  12.768  26.041   4.222
94007W        W53752  33.566  17.201  10.944
94008W        W53753  43.506  19.205   4.348
94009W        W53754  12.239  23.564  12.867
94010W        W53755  43.783  12.183  14.768
94011W        W53756  35.047  39.419  12.826
94012W        W53757  39.347  38.342   3.238
94013W        W53758  17.627  14.132  12.861
94014W        W53759  36.439  42.379  13.938
94015W        W53760  39.916   0.900   1.311
94016W        W53761  20.128  10.672  14.886
94017W        W53762  29.627  14.708  14.012
94018W        W53763  15.661  13.693  13.969
94019W        W53764  34.474  30.659  11.453
94020W        W53765  41.002  33.906   2.767
94021W        W53766  21.537  16.660  14.348
94022W        W53767  30.522  10.848  13.353
94023W        W53768  15.254   3.731   3.172
94024W        W53769  15.598  13.835  10.407
94025W        W53770  23.677  19.771  12.518
94026W        W53771  18.071  15.101  14.891
94027W        W53772  33.016  30.942  11.120
94028W        W53773  34.477  37.889  12.955
94029W        W53774  35.993  21.749  14.414
94030W        W53775   4.285  33.067   3.781
94031W        W53776  15.614  33.558  14.294
94032W        W53777  32.072  17.157   2.833
94033W        W53778   3.332  15.650  12.039
94034W        W53779  28.035  24.608  12.547
94035W        W53780  41.364  27.971  13.438
94036W        W53781  28.981  30.482   4.672
94037W        W53782  25.515  30.962  13.464
94038W        W53783   9.657   1.896  12.525
94039W        W53784  27.981  16.270   2.215
94040W        W53785  32.141   7.727  11.406
94041W        W53786  10.762  16.264  14.374
94042W        W53787  28.568   7.736   3.644
94043W        W53788  27.575  39.059   0.736
94044W        W53789   6.401   6.767  12.547
94045W        W53790  14.649  42.785  10.563
94046W        W53791   0.284  38.041  13.804
94047W        W53792  21.127   7.390   3.852
94048W        W53793  11.179   2.410  12.948
94049W        W53794  19.655  15.182   3.384
94050W        W53795  44.319  31.999   3.703
94051W        W53796  26.983  43.941  12.344
94052W        W53797  34.412  18.175   1.304
94053W        W53798   0.252  15.819   4.817
94054W        W53799   1.970  40.412   3.734
94055W        W53800  24.060  25.630  11.940
94056W        W53801   1.383   5.927  12.907
94057W        W53802  31.906  30.453   0.895
94058W        W53803  35.022  35.950  10.542
94059W        W53804  30.987  20.613  12.017
94060W        W53805  22.042  30.495  12.045
94061W        W53806   3.830   8.760  11.948
94062W        W53807  43.022  40.984   2.806
94063W        W53808  37.971  31.567   2.371
94064W        W53809  18.644  13.646   4.682
94065W        W53810  20.220   2.959   0.384
94066W        W53811  17.130   2.884  14.809
94067W        W53812   9.831   7.848  12.921
94068W        W53813  16.279  43.342  12.894
94069W        W53814  21.138  38.461  14.304
94070W        W53815  36.588   2.268  12.003
94071W        W53816  14.340  41.794   1.818
94072W        W53817  38.019  21.699  13.044
94073W        W53818  23.640  17.236  11.405
94074W        W53819  33.591  17.585   0.946
94075W        W53820  26.979  28.134   2.284
94076W        W53821  11.335  27.613   0.310
94077W        W53822  35.957  19.574  11.480
94078W        W53823  30.419  43.007   3.834
94079W        W53824  41.979  42.007  14.430
94080W        W53825  22.233   3.731   0.413
94081W        W53826  43.466  31.524   2.768
94082W        W53827  18.564   6.265   2.315
94083W        W53828  22.610  29.049  10.082
94084W        W53829  42.882  29.045   1.266
94085W        W53830  25.632  25.060   0.269
94086W        W53831  42.822  14.201  12.405
94087W        W53832   8.701  22.079   3.736
94088W        W53833   2.965  34.383  13.368
94089W        W53834  39.038   3.401  14.369
94090W        W53835   1.941  39.390   2.349
94091W        W53836  44.330  37.476  12.369
94092W        W53837  33.548  41.389  13.009
94093W        W53838  39.393   4.749  13.484
94094W        W53839  36.393  20.176  13.873
94095W        W53840   8.262  28.163   0.251
94096W        W53841  41.819   3.746  10.477
94097W        W53842  15.220  33.889   2.326
94098W        W53843  19.703  38.406   4.698
94099W        W53844   6.823  10.167   2.802
94100W        W53845  25.043  34.580  10.922
94101W        W53846  14.708   9.818  11.017
94102W        W53847   6.693  40.492   4.299
94103W        W53848  41.316  19.112   1.213
94104W        W53849  11.720   6.686   2.752
94105W        W53850  31.521  33.031  13.419
94106W        W53851  30.417  29.600  12.899
94107W        W53852  44.483  34.950  10.927
94108W        W53853  16.190  14.599   0.358
94109W        W53854  10.314  37.924   0.748
94110W        W53855  10.674   7.364   0.249
94111W        W53856   4.358  39.910   3.673
94112W        W53857  40.827  35.068  10.949
94113W        W53858  34.986  17.685  11.379
94114W        W53859  15.123  31.628   3.185
94115W        W53860  20.272  43.475   1.309
94116W        W53861  16.302  22.536  14.287
94117W        W53862  20.135  30.148   2.282
94118W        W53863   0.814  39.546  14.511
94119W        W53864  13.832   3.785   2.322
94120W        W53865  38.070  39.932   1.228
94121W        W53866   5.751   4.305   3.828
94122W        W53867  16.786  30.576  10.541
94123W        W53868  22.553  43.271  11.946
94124W        W53869   1.859  14.743   0.763
94125W        W53870  37.480  36.522  14.890
94126W        W53871   4.869  10.634   2.758
94127W        W53872  15.738   0.478   9.928
94128W        W53873  33.532  29.521   2.347
94129W        W53874  42.897  36.870   5.134
94130W        W53875  15.798  33.938   1.242
94131W        W53876  11.211  27.012   1.341
94132W        W53877  27.566  34.403   1.742
94133W        W53878  19.125  21.740  13.016
94134W        W53879  41.811   9.360   4.292
94135W        W53880  28.007  27.187   4.191
94136W        W53881  43.973  33.448   3.357
94137W        W53882  33.932  35.954   4.182
94138W        W53883  26.519  13.247  13.497
94139W        W53884   4.841   2.443  11.549
94140W        W53885  27.485  40.862   3.184
94141W        W53886  31.509  34.914  10.603
94142W        W53887  35.007  15.086  11.057
94143W        W53888  25.617   4.845  14.435
94144W        W53889   7.402   7.736  12.361
94145W        W53890  30.459   6.758   3.728
94146W        W53891  18.729  25.153  14.914
94147W        W53892  16.727  38.051  14.394
94148W        W53893  10.141  21.166   5.154
94149W        W53894  39.428  13.670   0.271
94150W        W53895  43.892  28.525  12.428
94151W        W53896  41.471  35.852   1.742
94152W        W53897  29.010  29.056   2.293
94153W        W53898   0.258  35.050   1.695
94154W        W53899  42.977  35.595  13.979
94155W        W53900  17.560  29.995  13.417
94156W        W53901  12.612  25.583   4.182
94157W        W53902  40.369   1.305  13.470
94158W        W53903  43.406  16.163  11.111
94159W        W53904   4.258  29.947  11.019
94160W        W53905  33.999  34.108  12.530
94161W        W53906  17.266   5.305   2.666
94162W        W53907  27.156  31.642   0.850
94163W        W53908   9.738  26.574  11.407
94164W        W53909  18.291  20.225   0.415
94165W        W53910  32.934   7.874   3.310
94166W        W53911  20.737   0.434   3.785
94167W        W53912  39.061  11.694  13.347
94168W        W53913  41.988   5.373  12.428
94169W        W53914  24.599  23.576   3.699
94170W        W53915  20.709   4.826  11.054
94171W        W53916  23.492  22.023   4.192
94172W        W53917  13.777  43.999  13.871
94173W        W53918  30.052   3.914   5.301
94174W        W53919  39.053   1.338   2.750
94175W        W53920  22.532  44.894   4.230
94176W        W53921  37.508   3.385   9.962
94177W        W53922  14.778   1.282  11.047
94178W        W53923   8.709  34.955   2.220
94179W        W53924  40.036  31.630  10.592
94180W        W53925   6.192  18.195   2.894
94181W        W53926  24.674  12.199   3.231
94182W        W53927  20.136   1.439  12.402
94183W        W53928  39.331   7.313  14.021
94184W        W53929  34.983  36.415   1.804
94185W        W53930  29.628  31.571   0.368
94186W        W53931  41.980   2.306  13.008
94187W        W53932  22.696  28.947  11.491
94188W        W53933  15.224  16.283   3.838
94189W        W53934  29.623  27.620   4.724
94190W        W53935   6.915  15.085   3.728
94191W        W53936  32.069  24.042   3.703
94192W        W53937   4.349  23.008  10.586
94193W        W53938  18.733  20.659  11.409
94194W        W53939   6.388  10.860   1.930
94195W        W53940  35.463  11.629  13.480
94196W        W53941   5.885  36.872  12.449
94197W        W53942  26.612  34.050  14.798
94198W        W53943  12.357   9.241  12.406
94199W        W53944  40.367  15.269   3.769
94200W        W53945   1.738   8.312   3.656
94201W        W53946  15.704   6.748   2.749
94202W        W53947  30.999  13.766   3.759
94203W        W53948  20.051  43.810  11.427
94204W        W53949   2.816  28.566  13.321
94205W        W53950   0.922   4.842   1.244
94206W        W53951  13.740   3.348   3.208
94207W        W53952  32.129  32.074   3.323
94208W        W53953   3.442   6.824   3.837
94209W        W53954  43.805  30.558  10.624
94210W        W53955  13.148   3.770   4.131
94211W        W53956   0.390  44.957  14.986
94212W        W53957   3.392  13.125  12.466
94213W        W53958  20.075  33.495   5.083
94214W        W53959  23.208  26.054   3.740
94215W        W53960  19.572  22.627   1.876
94216W        W53961  36.021  40.365   3.757
94217W        W53962  21.756  30.659  13.005
94218W        W53963  31.962  37.080  14.002
94219W        W53964  19.136   5.756  14.385
94220W        W53965  42.950  33.921   4.209
94221W        W53966  28.138  21.126  13.469
94222W        W53967  17.218  15.809  10.970
94223W        W53968  12.288   8.868   2.833
94224W        W53969   1.434  22.541   3.214
94225W        W53970  36.498  39.441  14.289
94226W        W53971  34.892   8.236   2.735
94227W        W53972  36.424  40.358  14.863
94228W        W53973  37.969   7.262  12.846
94229W        W53974   1.322  33.937   5.589
94230W        W53975  11.732  33.557   1.228
94231W        W53976   7.348  29.010   2.399
94232W        W53977  22.040  23.051   1.225
94233W        W53978   7.269  16.795  11.434
94234W        W53979  12.173  38.944   2.291
94235W        W53980  33.553  43.931   0.862
94236W        W53981  31.513   5.843   3.833
94237W        W53982  34.018  29.094   2.747
94238W        W53983  18.590   6.261   0.341
94239W        W53984  11.841   1.354   0.365
94240W        W53985  39.470  39.334   4.211
94241W        W53986   6.289  20.563   1.867
94242W        W53987  12.250  17.783   4.142
94243W        W53988   9.379  17.182   2.190
94244W        W53989   1.357  44.393   3.731
94245W        W53990  23.058  14.195   3.251
94246W        W53991   6.339   4.321   3.794
94247W        W53992  28.080   6.733  11.027
94248W        W53993   5.289  21.051   0.311
94249W        W53994  15.086  11.259   0.301
94250W        W53995   9.738  43.333  14.952
94251W        W53996  37.055   9.345  14.944
94252W        W53997   1.483  26.133  13.508
94253W        W53998  26.031  25.001   4.834
94254W        W53999   3.929   2.300  14.371
94255W        W54000  16.176  38.045   1.450
94256W        W54001  25.673  25.100   0.836
94257W        W54002  30.968  27.449   9.982
94258W        W54003  16.079  19.193  14.805
94259W        W54004  25.078  14.226  14.507
94260W        W54005   3.331  26.099   0.732
94261W        W54006  41.990  22.672  10.077
94262W        W54007  13.328  27.634   4.259
94263W        W54008  44.422   4.823  14.882
94264W        W54009   9.361  39.898  11.597
94265W        W54010   2.841  34.115   3.194
94266W        W54011  37.873  38.336  14.858
94267W        W54012   6.853   5.824   4.227
94268W        W54013   2.382   5.381  14.392
94269W        W54014  35.044  10.342   1.447
94270W        W54015  38.827  12.304   0.874
94271W        W54016  10.647  23.092   4.192
94272W        W54017  15.620  39.977  14.968
94273W        W54018  38.391  42.014   2.878
94274W        W54019  19.718  11.645   0.348
94275W        W54020  23.729   6.835   4.222
94276W        W54021  32.078  37.088   3.378
94277W        W54022  11.278  15.092   1.320
94278W        W54023  24.642  38.886  12.448
94279W        W54024  33.455  43.474   3.636
94280W        W54025  15.232   2.730  11.019
94281W        W54026  12.769   6.740   2.867
94282W        W54027  21.679   1.435  11.029
94283W        W54028  35.894  33.083   0.417
94284W        W54029  44.395  11.272   1.388
94285W        W54030  37.067  20.602  11.925
94286W        W54031  21.632  32.577  12.089
94287W        W54032   5.812  39.499  13.467
94288W        W54033  15.655  19.561   3.687
94289W        W54034  33.041  17.219   3.170
94290W        W54035  25.550  11.360   1.246
94291W        W54036  17.276  41.316   1.428
94292W        W54037  31.960  30.959   4.174
94293W        W54038  33.450  12.260  12.034
94294W        W54039  32.119  12.314   2.760
94295W        W54040  31.605  25.475  14.429
94296W        W54041  40.467  30.131   4.756
94297W        W54042  27.091  26.694   5.175
94298W        W54043  19.055  33.011   3.380
94299W        W54044  12.155  21.060  12.468
94300W        W54045  35.572  40.954   0.769
94301W        W54046  37.070  37.444   2.822
94302W        W54047  40.387  35.002   3.337
94303W        W54048  28.452   3.816  12.456
94304W        W54049  41.533   1.933  12.039
94305W        W54050  42.481  43.454   4.661
94306W        W54051  12.210  11.749   3.748
94307W        W54052   1.383  18.786  11.054
94308W        W54053  30.931  29.076   3.333
94309W        W54054  36.948  33.007   0.398
94310W        W54055  32.045   3.217  10.922
94311W        W54056  41.963  44.917  14.510
94312W        W54057   7.755  31.124  14.008
94313W        W54058  35.399  37.076   0.475
94314W        W54059  31.461  31.103   0.946
94315W        W54060  33.916  14.738   3.864
94316W        W54061  22.114  18.750  12.411
94317W        W54062  39.842  23.712   1.331
94318W        W54063  20.183  14.244   9.571
94319W        W54064  35.383  28.978   1.769
94320W        W54065  42.389  41.364  14.384
94321W        W54066  34.441  40.515  11.097
94322W        W54067  32.567  20.128  11.533
94323W        W54068  33.544  12.161   4.610
94324W        W54069  10.143  29.549   2.807
94325W        W54070  21.614   5.334   0.419
94326W        W54071  19.138   2.764  11.576
94327W        W54072  40.812  24.073  14.489
94328W        W54073  39.471  12.232   3.653
94329W        W54074  13.642  13.720  13.344
94330W        W54075  44.403  31.036  13.912
94331W        W54076  27.184   7.668  14.014
94332W        W54077  34.464  20.586  14.477
94333W        W54078  32.906  13.249   2.778
94334W        W54079  27.465  29.149   1.791
94335W        W54080  19.166  32.013   2.733
94336W        W54081   5.432   9.840   2.868
94337W        W54082  15.167   4.709  10.923
94338W        W54083   1.862  22.177  14.363
94339W        W54084   4.254   0.752  14.963
94340W        W54085  11.678   9.315  12.410
94341W        W54086  36.055   2.958  13.020
94342W        W54087  17.254  37.870  13.818
94343W        W54088  11.274  33.548  13.825
94344W        W54089  38.998  11.707   1.918
94345W        W54090  35.504  16.763  12.497
94346W        W54091   8.881  15.232  13.906
94347W        W54092  31.022  43.778   4.175
94348W        W54093  26.064  34.067   3.202
94349W        W54094  35.015   9.270   3.754
94350W        W54095  12.167  16.229   4.124
94351W        W54096  30.581  40.919   0.789
94352W        W54097  34.976  41.457  10.047
94353W        W54098  23.528  15.201  12.046
94354W        W54099  20.577   5.267   2.360
94355W        W54100  43.336  11.648  10.503
94356W        W54101  21.603   0.922   3.341
94357W        W54102  32.954  28.155   3.830
94358W        W54103  10.305  16.608   1.345
94359W        W54104  18.147  44.781   2.831
94360W        W54105  34.022  35.535  10.444
94361W        W54106  15.613  21.697   2.413
94362W        W54107  27.631  15.686   3.273
94363W        W54108  26.171  43.789  14.319
94364W        W54109   9.295  35.417   2.325
94365W        W54110   2.363  38.931   0.918
94366W        W54111  37.338  14.274  13.359
94367W        W54112  43.496  28.087   1.298
94368W        W54113   0.365  29.559  13.840
94369W        W54114   7.308  29.127   0.947
94370W        W54115  42.344  41.963   4.209
94371W        W54116  33.981   3.893  12.980
94372W        W54117  36.472  44.341   4.746
94373W        W54118  22.507   5.347   3.160
94374W        W54119  38.562   9.735   4.780
94375W        W54120  23.222  11.799   3.635
94376W        W54121   1.804  31.967   1.451
94377W        W54122   9.660  27.618  14.987
94378W        W54123  38.003  25.022  12.024
94379W        W54124  18.064  42.002   4.741
94380W        W54125  38.031   7.199  12.438
94381W        W54126  12.287  26.192   1.346
94382W        W54127  39.339  43.925  14.772
94383W        W54128  15.723  37.548  14.007
94384W        W54129   3.927  10.684  12.579
94385W        W54130   5.795  24.670   0.733
94386W        W54131   6.294  13.254   4.222
94387W        W54132   9.665  28.054  10.591
94388W        W54133  42.832  27.673   1.270
94389W        W54134   2.472   9.163  12.991
94390W        W54135  29.987  32.040  14.485
94391W        W54136  29.017  10.706  14.912
94392W        W54137  41.958  21.059   5.200
94393W        W54138  29.061  15.786  14.824
94394W        W54139  29.968  32.886   2.883
94395W        W54140  23.663   4.942   0.759
94396W        W54141  12.129  28.056  12.954
94397W        W54142  39.527  25.182  11.872
94398W        W54143  16.310  25.005  10.610
94399W        W54144   0.272  12.796  11.518
94400W        W54145   1.974  34.518  14.975
94401W        W54146  41.024  37.520   4.224
94402W        W54147  32.109  29.105  13.422
94403W        W54148  15.678  30.473   1.404
94404W        W54149  38.010  43.305  10.906
94405W        W54150   6.241  34.974  14.955
94406W        W54151   9.853  32.027  12.368
94407W        W54152  18.064  32.057   3.847
94408W        W54153  42.837   7.710   3.343
94409W        W54154  37.545  22.169  10.461
94410W        W54155  30.926   4.244  13.002
94411W        W54156   4.745  13.335   2.271
94412W        W54157  23.195   3.812  14.310
94413W        W54158  22.032  11.802   9.676
94414W        W54159  42.370  40.906   4.695
94415W        W54160  29.438  30.042   5.171
94416W        W54161   9.252  25.033  13.895
94417W        W54162  28.581  20.063   3.838
94418W        W54163  38.338  43.928  10.964
94419W        W54164   4.859  33.055   1.744
94420W        W54165  15.190  34.472   0.360
94421W        W54166  33.445  19.665  12.856
94422W        W54167  27.542  13.737  12.959
94423W        W54168  26.061  22.520   0.749
94424W        W54169  44.406  13.657   1.307
94425W        W54170  34.119  39.474  12.472
94426W        W54171  16.136  36.952  14.482
94427W        W54172  21.240  18.205  14.454
94428W        W54173  13.821  14.632   3.360
94429W        W54174  43.967  20.539   0.771
94430W        W54175  28.529  31.648   4.278
94431W        W54176  41.846  16.654   3.268
94432W        W54177  33.926  26.653   3.860
94433W        W54178  19.266  36.540   4.776
94434W        W54179  28.157  41.399  14.460
94435W        W54180  28.995  40.356   3.744
94436W        W54181   3.437  19.538   0.435
94437W        W54182  15.645  42.930  12.383
94438W        W54183  44.960  22.738  10.537
94439W        W54184   0.257   9.373  11.913
94440W        W54185  29.150  11.844  10.510
94441W        W54186   7.754  16.809   1.763
94442W        W54187  20.578  41.814  14.903
94443W        W54188  26.158  41.496  11.583
94444W        W54189  39.412  35.076   0.278
94445W        W54190   4.320  22.734  12.074
94446W        W54191  29.530   0.979   3.166
94447W        W54192  11.274  25.569  11.495
94448W        W54193   4.829  27.488  14.487
94449W        W54194  27.542   3.326   2.406
94450W        W54195  29.506  23.188  13.046
94451W        W54196  15.639  36.413   2.754
94452W        W54197  13.612  22.213   3.147
94453W        W54198  36.964  33.970  14.387
94454W        W54199  39.440  35.517  10.582
94455W        W54200  30.937  13.344   4.634
94456W        W54201  18.553  10.638  11.035
94457W        W54202  28.533  43.443  13.866
94458W        W54203  21.256  29.079   5.316
94459W        W54204  25.550  19.598  14.408
94460W        W54205   5.857  12.649  14.002
94461W        W54206  23.555  28.577   3.194
94462W        W54207  17.172  13.132   1.289
94463W        W54208  11.672  18.606  14.496
94464W        W54209   4.939  13.112   1.858
94465W        W54210  23.075  29.567  12.841
94466W        W54211  42.440   0.378  14.991
94467W        W54212  15.584   7.200   1.892
94468W        W54213  42.412   4.281  14.951
94469W        W54214  14.306  29.072  13.010
94470W        W54215   4.708  18.562   0.861
94471W        W54216  27.131   0.264  12.996
94472W        W54217  10.874   8.859   3.151
94473W        W54218   5.228  27.587  12.026
94474W        W54219  16.155  28.651   4.692
94475W        W54220   3.913   6.868   4.749
94476W        W54221   2.371  25.994   4.665
94477W        W54222  34.546  22.006  12.383
94478W        W54223   2.762  35.377  14.862
94479W        W54224   9.243   3.941   3.712
94480W        W54225  34.913  39.358  13.943
94481W        W54226  35.086   7.345   0.431
94482W        W54227  40.531   4.784   0.748
94483W        W54228  12.655  39.894  12.911
94484W        W54229  17.235   1.282   2.832
94485W        W54230  10.863  38.871   2.395
94486W        W54231  11.234  30.918   1.291
94487W        W54232  16.159  39.486   3.772
94488W        W54233   8.370  16.156  14.375
94489W        W54234   1.384  20.694   0.803
94490W        W54235  16.092  40.518   0.784
94491W        W54236  15.593   9.835   0.852
94492W        W54237  17.191   6.185   4.248
94493W        W54238  39.536  27.031  13.364
94494W        W54239  21.619  25.568   2.349
94495W        W54240  39.919  37.918   2.734
94496W        W54241  23.579  28.487  11.017
94497W        W54242  22.178  16.079   4.208
94498W        W54243  18.184  16.739   1.852
94499W        W54244  18.073   8.361   4.325
94500W        W54245  36.519  27.942  13.542
94501W        W54246  27.075  20.071  14.026
94502W        W54247   7.842  21.188  10.051
94503W        W54248  12.179   7.226   3.361
94504W        W54249  12.196   7.221  14.288
94505W        W54250   5.913  18.653   2.897
94506W        W54251  16.779   0.795   4.779
94507W        W54252   2.348  17.143  13.428
94508W        W54253  28.479  39.988   3.227
94509W        W54254  12.288  11.371   3.149
94510W        W54255   4.328  36.019  14.317
94511W        W54256  22.242  18.703   4.212
94512W        W54257  11.645  23.117   0.837
94513W        W54258  29.090   7.751  14.852
94514W        W54259  30.986  20.245   3.846
94515W        W54260  33.942   4.769   2.865
94516W        W54261   9.747  19.166  11.978
94517W        W54262   4.754  17.683  14.289
94518W        W54263  17.292  27.661  10.091
94519W        W54264   9.709  33.532   3.235
94520W        W54265  36.361  40.404   3.660
94521W        W54266  38.015  29.098   0.270
94522W        W54267  37.344  11.764   1.895
94523W        W54268  28.572  32.012  11.581
94524W        W54269  21.662  11.839   0.261
94525W        W54270  24.478  44.335  11.001
94526W        W54271   9.176  43.007   2.360
94527W        W54272  26.114  27.645  13.519
94528W        W54273  36.016   9.388   0.918
94529W        W54274  14.111  16.765   4.143
94530W        W54275  42.813  28.650  11.440
94531W        W54276  39.981  39.495   2.711
94532W        W54277  27.047   5.774   2.183
94533W        W54278  36.551  33.585  10.426
94534W        W54279  37.474  14.818   0.771
94535W        W54280   3.768  27.512   2.232
94536W        W54281  12.740   3.440  13.535
94537W        W54282   9.330  10.201  14.980
94538W        W54283  37.989   7.309  13.435
94539W        W54284  23.513  31.515  13.533
94540W        W54285  13.321  12.125  13.492
94541W        W54286  39.557   0.980  13.825
94542W        W54287   6.352   6.867  13.825
94543W        W54288  11.741   3.356  13.872
94544W        W54289  29.468  43.374  10.587
94545W        W54290  29.996  11.315  14.455
94546W        W54291  40.408   1.436   3.247
94547W        W54292  35.062   2.932  11.522
94548W        W54293  29.016  11.218   1.423
94549W        W54294  38.822  16.083  10.917
94550W        W54295  29.078   5.718  13.896
94551W        W54296  39.913  33.623  11.990
94552W        W54297  42.492   5.339   4.781
94553W        W54298   9.265  29.668   4.700
94554W        W54299  41.993  24.151   4.648
94555W        W54300  43.506   3.778  13.445
94556W        W54301  33.018  17.062  11.437
94557W        W54302  41.320  36.022  13.472
94558W        W54303  19.197   1.285  11.557
94559W        W54304  30.645  12.739   3.746
94560W        W54305   7.818   0.368  13.997
94561W        W54306   5.337  13.799   4.228
94562W        W54307  11.748  26.978  13.050
94563W        W54308  36.442   2.312   1.898
94564W        W54309  24.568  11.256  11.592
94565W        W54310   8.785  33.110  12.435
94566W        W54311   7.728   0.491   4.150
94567W        W54312  12.729  44.330  12.990
94568W        W54313  26.071  37.346   0.964
94569W        W54314  12.170  19.680  14.310
94570W        W54315  35.537   4.853  12.000
94571W        W54316  16.137  29.023  10.438
94572W        W54317  43.888  24.634  13.896
94573W        W54318   3.367  30.445  13.032
94574W        W54319   8.282  10.858   1.229
94575W        W54320  27.684  23.015  12.569
94576W        W54321   1.244  26.078  10.474
94577W        W54322  11.356  35.958   2.884
94578W        W54323  34.868  27.539  11.858
94579W        W54324  26.474  27.598  13.021
94580W        W54325  38.383  40.904   2.297
94581W        W54326   8.268  30.155  10.945
94582W        W54327   9.332  35.091   0.840
94583W        W54328  39.559  32.063  10.508
94584W        W54329  44.400  13.776   0.951
94585W        W54330  44.450  32.540   2.257
94586W        W54331  32.616  33.941  11.027
94587W        W54332  26.695  12.620   2.341
94588W        W54333  39.540  36.092  13.436
94589W        W54334  29.435   1.879  14.288
94590W        W54335  16.234  24.027   2.300
94591W        W54336  44.346  44.349  13.923
94592W        W54337  38.935  43.317   0.266
94593W        W54338  33.424  37.026   1.253
94594W        W54339  25.997  20.199   4.651
94595W        W54340   8.832  23.046   3.213
94596W        W54341  26.098   8.817  12.510
94597W        W54342   9.875   2.466   0.355
94598W        W54343   1.405   9.785   0.316
94599W        W54344  33.978  19.591  13.519
94600W        W54345  17.777  38.820   0.296
94601W        W54346  11.314  42.521  10.925
94602W        W54347  32.442  40.906  13.823
94603W        W54348   0.265  24.148  14.813
94604W        W54349  26.072  32.492  13.991
94605W        W54350  36.966  16.192  14.004
94606W        W54351  14.785  30.993   0.445
94607W        W54352  11.772  34.079   1.222
94608W        W54353  34.502   9.150  13.385
94609W        W54354  15.164   4.920   4.251
94610W        W54355   5.246  12.165  13.374
94611W        W54356  43.017  30.543  13.901
94612W        W54357   3.923   2.294   2.862
94613W        W54358  26.561  25.117  13.054
94614W        W54359   1.747  30.016  10.522
94615W        W54360  34.446  40.839   1.240
94616W        W54361   3.806  42.520   0.322
94617W        W54362  12.793  37.573  11.883
94618W        W54363  32.407   5.222   0.282
94619W        W54364   6.893  11.687  12.369
94620W        W54365  29.566  11.763   1.716
94621W        W54366  18.098  27.510  14.281
94622W        W54367  17.710   1.776   2.307
94623W        W54368   6.708  16.301   4.176
94624W        W54369  21.223  38.042   3.663
94625W        W54370  17.656  41.822  14.002
94626W        W54371  10.679  39.449   1.848
94627W        W54372  31.007  10.347   4.640
94628W        W54373  13.278  20.165  13.891
94629W        W54374  12.618  24.715  14.438
94630W        W54375  16.690  12.817   4.774
94631W        W54376  30.636  21.513   0.968
94632W        W54377   4.853  34.433   0.396
94633W        W54378  43.780  25.592   3.229
94634W        W54379  28.120  27.095   2.684
94635W        W54380  26.093  18.253  13.377
94636W        W54381   6.903  44.000   4.233
94637W        W54382  20.198  40.952   2.683
94638W        W54383  39.844  21.125   4.819
94639W        W54384  23.133  21.133   2.388
94640W        W54385  24.094  38.029   0.444
94641W        W54386  42.443   7.382   3.810
94642W        W54387  24.569  25.066   3.364
94643W        W54388   1.853   2.265  12.076
94644W        W54389  40.967  31.032   2.718
94645W        W54390  43.792   0.337   2.342
94646W        W54391  22.602  27.108  12.865
94647W        W54392  32.982  21.205  13.403
94648W        W54393   6.318  30.511   3.758
94649W        W54394  22.528  40.441   3.293
94650W        W54395  21.091  44.959   0.367
94651W        W54396   2.377  43.886   1.392
94652W        W54397  10.196  11.218   0.894
94653W        W54398  26.578  19.742  12.544
94654W        W54399  43.008  43.795  11.888
94655W        W54400  14.643  17.189   5.146
94656W        W54401  41.441  16.779  10.981
94657W        W54402  14.666  33.108  14.880
94658W        W54403  33.900  25.981   4.806
94659W        W54404  14.325   3.876  11.023
94660W        W54405   9.707  34.583   2.405
94661W        W54406   3.766  30.470  11.042
94662W        W54407  43.437   7.884  13.358
94663W        W54408  26.094  10.823  12.957
94664W        W54409   0.380  30.111  14.862
94665W        W54410  34.898  32.594   1.900
94666W        W54411  44.006  20.070  14.376
94667W        W54412  34.117  39.817   2.199
94668W        W54413  38.918  43.514   2.832
94669W        W54414  29.656  39.332  13.497
94670W        W54415  35.106  24.660  14.503
94671W        W54416  10.669  44.449   2.256
94672W        W54417  24.492  20.201  13.030
94673W        W54418  18.595  43.319  13.923
94674W        W54419  29.171  28.662  14.381
94675W        W54420  29.445  37.359  11.459
94676W        W54421  29.034  22.500   4.675
94677W        W54422  44.360  43.825  14.353
94678W        W54423  33.926  35.591   4.155
94679W        W54424  21.240  12.752   2.890
94680W        W54425  29.590   3.771   5.090
94681W        W54426   8.867   8.279   0.805
94682W        W54427  21.530  23.578  14.425
94683W        W54428  12.258  11.333   2.864
94684W        W54429  30.621   2.265  13.865
94685W        W54430  15.089  10.780   0.289
94686W        W54431  14.235  44.494  12.878
94687W        W54432   6.809  40.395  10.559
94688W        W54433   3.349  43.423  10.469
94689W        W54434  13.624  26.578  11.477
94690W        W54435  17.753   0.408   4.623
94691W        W54436  15.665  34.997  10.968
94692W        W54437  41.854  42.455   1.901
94693W        W54438   8.284   0.265   1.302
94694W        W54439  18.701   6.896   1.220
94695W        W54440  33.487  34.878   4.671
94696W        W54441  16.674  14.589   4.774
94697W        W54442  32.040  23.513   0.882
94698W        W54443   4.325  13.750  10.466
94699W        W54444  15.648  17.723   5.100
94700W        W54445  12.658  24.064  14.836
94701W        W54446  35.913  32.583  13.925
94702W        W54447  41.358  29.105   0.287
94703W        W54448  20.637  28.173  13.919
94704W        W54449  25.997  41.394  13.324
94705W        W54450   6.790  41.972   1.309
94706W        W54451  15.725   4.908   4.299
94707W        W54452  18.111  40.017   1.324
94708W        W54453  38.495  27.500   3.166
94709W        W54454   4.868  15.241  13.460
94710W        W54455  43.509   4.433   0.743
94711W        W54456  12.833   5.757   4.200
94712W        W54457  30.573   9.852   0.247
94713W        W54458   4.267   2.370   3.234
94714W        W54459   9.822  37.861   4.213
94715W        W54460  39.455  34.892  11.888
94716W        W54461  28.522  29.641   2.287
94717W        W54462  14.285   3.941  13.483
94718W        W54463   2.810   2.431  11.517
94719W        W54464  16.295  21.656  13.485
94720W        W54465  19.698   4.870   0.248
94721W        W54466   5.848  25.111  14.866
94722W        W54467  43.339   8.192  12.477
94723W        W54468   7.243   9.777   0.826
94724W        W54469  28.042  37.355   4.620
94725W        W54470  21.129   0.880   9.440
94726W        W54471  27.628   9.305   1.840
94727W        W54472  14.147  14.114  10.549
94728W        W54473  36.093   7.898  14.015
94729W        W54474   8.735   8.255   2.819
94730W        W54475   4.801   3.375   3.317
94731W        W54476   2.319  31.035   2.728
94732W        W54477  11.280  26.536  13.949
94733W        W54478  18.667  20.208   3.714
94734W        W54479  33.429  42.809  10.610
94735W        W54480  28.087  22.128   4.227
94736W        W54481  38.959  31.951  11.962
94737W        W54482  17.693  12.143   2.418
94738W        W54483  15.589  30.434   4.290
94739W        W54484  40.314  30.920  12.868
94740W        W54485  14.121  17.234  14.302
94741W        W54486  34.110  44.007   4.242
94742W        W54487  44.931  34.553   1.776
94743W        W54488  38.423  35.094   2.721
94744W        W54489   8.901  35.042  12.993
94745W        W54490  12.344   4.888   3.350
94746W        W54491  42.344   0.832   2.419
94747W        W54492  14.791  21.514  13.440
94748W        W54493  27.563  30.575  11.532
94749W        W54494  42.898   6.324   1.815
94750W        W54495  29.090   0.757  12.580
94751W        W54496   2.918   9.793   3.724
94752W        W54497  11.197  43.823   1.351
94753W        W54498  39.901  29.057  10.980
94754W        W54499  40.498  10.271   5.182
94755W        W54500  42.440  16.231   2.322
94756W        W54501  17.244  25.030  13.841
94757W        W54502   9.307  40.488  11.067
94758W        W54503  42.827  20.171   1.880
94759W        W54504  33.946   7.668   3.740
94760W        W54505  34.401   5.359   3.820
94761W        W54506  12.169  42.506  10.956
94762W        W54507  35.464  35.490   4.250
94763W        W54508  27.567  16.657   0.458
94764W        W54509   4.318   0.805  10.635
94765W        W54510  13.134  20.082  12.390
94766W        W54511  38.952   0.412  14.461
94767W        W54512  29.545  27.093  14.280
94768W        W54513  12.160  33.473  12.873
94769W        W54514   7.235  15.630   4.728
94770W        W54515  39.411  29.426   3.265
94771W        W54516  35.422  37.353  11.900
94772W        W54517  31.064  23.168   4.812
94773W        W54518  14.154  31.479   2.279
94774W        W54519  27.531  18.732   0.308
94775W        W54520  20.080   5.422   2.254
94776W        W54521  33.908  40.399  11.890
94777W        W54522   2.403  24.156   3.803
94778W        W54523  41.965  37.087   3.195
94779W        W54524  35.044  22.721   1.868
94780W        W54525  34.003   7.823  13.811
94781W        W54526  39.339  13.247  11.581
94782W        W54527  15.667  34.592  11.454
94783W        W54528  19.221  15.724   2.858
94784W        W54529  21.584   0.959   0.266
94785W        W54530  11.156   5.399   1.229
94786W        W54531  36.546  27.474  14.848
94787W        W54532   9.241  23.152  14.322
94788W        W54533  38.953   3.767   0.735
94789W        W54534  34.521  28.671   5.663
94790W        W54535  31.601  20.252  10.009
94791W        W54536  24.007   4.412   4.680
94792W        W54537  24.000   7.233   5.136
94793W        W54538   6.342  36.053  11.981
94794W        W54539  41.991  22.223   3.663
94795W        W54540  32.994  21.645   1.217
94796W        W54541  43.378  35.373  12.904
94797W        W54542   5.848   9.287   3.217
94798W        W54543  37.569  18.188   1.258
94799W        W54544  34.521  19.059   2.690
94800W        W54545  28.123  44.435  14.388
94801W        W54546  19.161  42.990   3.188
94802W        W54547  29.621  14.708  12.047
94803W        W54548  35.991  21.640   9.629
94804W        W54549   5.756  34.482  10.498
94805W        W54550   3.362  36.355   3.311
94806W        W54551  26.018  31.488   0.926
94807W        W54552  30.602  37.022  14.512
94808W        W54553  40.377  41.918   4.754
94809W        W54554   1.898  12.826  12.058
94810W        W54555  26.112  38.047   2.247
94811W        W54556  18.091  22.997   4.681
94812W        W54557  28.029  27.144  14.321
94813W        W54558  35.604   9.871   3.324
94814W        W54559  44.828   8.334   3.348
94815W        W54560  37.841   8.801   1.421
94816W        W54561  28.937   7.358  14.976
94817W        W54562  20.543  24.112   1.825
94818W        W54563  40.876  23.685  11.531
94819W        W54564  17.219  28.453   0.244
94820W        W54565  16.090   9.689   4.149
94821W        W54566  38.335  19.692   0.302
94822W        W54567   5.808   1.780  14.986
94823W        W54568   9.729   9.230   2.316
94824W        W54569  39.913  14.701  11.571
94825W        W54570  24.523  40.339   4.274
94826W        W54571  19.203  14.690   2.859
94827W        W54572  33.532  11.349  14.958
94828W        W54573  12.220   1.255  13.028
94829W        W54574  15.137  32.507   0.912
94830W        W54575  26.031  10.744   1.773
94831W        W54576   0.469  11.688  10.467
94832W        W54577  42.298  37.863   3.729
94833W        W54578  34.426   1.760   1.392
94834W        W54579  30.547  27.159  13.024
94835W        W54580   6.689  41.479  14.336
94836W        W54581   7.734  25.647   3.766
94837W        W54582   8.163  22.593  13.482
94838W        W54583  41.390   8.677   2.902
94839W        W54584  22.588   4.347   1.809
94840W        W54585  33.438  13.276   4.613
94841W        W54586  44.467  41.407   3.243
94842W        W54587  32.458   3.216   1.741
94843W        W54588  15.102  13.164  10.428
94844W        W54589  31.464  15.158  11.569
94845W        W54590   1.773   6.886   1.346
94846W        W54591  17.195  34.438  11.520
94847W        W54592  22.621  14.253   0.387
94848W        W54593  16.084  44.910  12.413
94849W        W54594   4.287  32.584   2.778
94850W        W54595  32.070  37.556  10.954
94851W        W54596  13.210  23.120   4.342
94852W        W54597  42.511   9.778   0.280
94853W        W54598  12.303  26.060   3.254
94854W        W54599  43.491  26.562   3.190
94855W        W54600   9.161   5.897   4.122
94856W        W54601   8.217  43.405   2.881
94857W        W54602  30.586   7.207  14.499
94858W        W54603   2.906  29.490   0.401
94859W        W54604  26.577  12.802   0.796
94860W        W54605  17.639  10.825   0.364
94861W        W54606  16.650  18.623  12.058
94862W        W54607  43.283  38.010   1.709
94863W        W54608  23.506  17.676  13.485
94864W        W54609   7.258  34.040   3.242
94865W        W54610  24.143  13.629   3.318
94866W        W54611  24.992  27.077  10.594
94867W        W54612  20.752   5.897   1.821
94868W        W54613  19.100   4.826  12.881
94869W        W54614  10.669  21.671   3.198
94870W        W54615  34.496  21.029  14.884
94871W        W54616  12.679  29.464  11.999
94872W        W54617  23.201  44.417   1.412
94873W        W54618  16.706  36.045   3.347
94874W        W54619  36.892   1.739   0.370
94875W        W54620  27.689   8.856  10.530
94876W        W54621  12.178  13.346   2.751
94877W        W54622  18.282  18.133   3.811
94878W        W54623  21.581  35.561   4.268
94879W        W54624   5.910  13.604   4.221
94880W        W54625  39.038  17.622   3.690
94881W        W54626  44.930  42.979  14.329
94882W        W54627  24.061  23.556   0.478
94883W        W54628  37.363   0.874  12.491
94884W        W54629  35.992  25.160  12.052
94885W        W54630   3.350  15.616   2.346
94886W        W54631  40.510  35.488  11.013
94887W        W54632  29.444  16.568   0.255
94888W        W54633  44.965  11.721   1.346
94889W        W54634  22.663   0.855   2.390
94890W        W54635   5.432   6.703  12.877
94891W        W54636   9.396  43.357  14.767
94892W        W54637  12.278  22.673  14.490
94893W        W54638   9.789  22.657   0.472
94894W        W54639   4.777   6.334   0.802
94895W        W54640  38.521   0.848   2.240
94896W        W54641  31.466  38.881  14.278
94897W        W54642  11.260  42.390   2.680
94898W        W54643  13.640  16.121  12.060
94899W        W54644   4.391  10.844   1.714
94900W        W54645  17.213   9.340  13.849
94901W        W54646  43.328  43.011  11.416
94902W        W54647  22.601  43.836  12.457
94903W        W54648   4.744  18.092   0.798
94904W        W54649  32.547  11.252   4.261
94905W        W54650   8.805  23.984   5.112
94906W        W54651   0.944   2.941  11.549
94907W        W54652  11.633  28.502  12.871
94908W        W54653  44.423  28.066   3.727
94909W        W54654  37.046  29.571   1.894
94910W        W54655  12.317   5.234   3.318
94911W        W54656  12.258   8.683   3.243
94912W        W54657  44.376   5.426   0.960
94913W        W54658  42.810  17.235   2.858
94914W        W54659   3.950   3.849   4.293
94915W        W54660  30.157   0.930  11.941
94916W        W54661  11.317  11.865   2.322
94917W        W54662  22.109  25.659   3.643
94918W        W54663  43.294   7.899  13.007
94919W        W54664  40.816  17.228  11.006
94920W        W54665  30.997  39.516  10.465
94921W        W54666   2.453   6.334   2.730
94922W        W54667  40.006  20.162  14.809
94923W        W54668  26.528  18.739   3.366
94924W        W54669  28.091  19.597  13.019
94925W        W54670   8.203  19.107  12.000
94926W        W54671  15.220  10.284  10.049
94927W        W54672  38.046  25.669   1.704
94928W        W54673   2.849  12.135  13.944
94929W        W54674  15.792   4.855  13.330
94930W        W54675  25.030  21.168  13.439
94931W        W54676   0.334  40.364   1.740
94932W        W54677  29.626  21.049   4.733
94933W        W54678  44.786  24.526  11.598
94934W        W54679  28.640  21.156   3.760
94935W        W54680   9.888  12.333   2.334
94936W        W54681   5.828   2.861  12.409
94937W        W54682   6.855   9.779  13.840
94938W        W54683  32.017   3.734  14.983
94939W        W54684   5.427  38.491   0.933
94940W        W54685  12.821  28.171  12.989
94941W        W54686  25.001  30.929  13.901
94942W        W54687   5.264  16.182  10.457
94943W        W54688   1.442  22.111  14.412
94944W        W54689  16.761  21.630   2.332
94945W        W54690   9.380  36.862   0.324
94946W        W54691  10.760  40.798  11.572
94947W        W54692  13.673  25.967  12.484
94948W        W54693   3.828  27.655   3.844
94949W        W54694   4.920  19.553   1.325
94950W        W54695  14.242  10.821  10.593
94951W        W54696  18.280   2.241  13.369
94952W        W54697  26.123   8.344  14.814
94953W        W54698  36.964  10.155  14.766
94954W        W54699  14.263  34.040   1.764
94955W        W54700  42.446   4.403   1.706
94956W        W54701  34.489   3.362  12.421
94957W        W54702  19.245  12.707  13.932
94958W        W54703  17.600  17.601  10.934
94959W        W54704  40.404  26.114  13.850
94960W        W54705   8.773  39.406  11.124
94961W        W54706  38.971  30.154   0.965
94962W        W54707  12.781  35.005  12.082
94963W        W54708   0.271  29.480   3.761
94964W        W54709  10.263  23.065   4.769
94965W        W54710  26.192  15.147  14.277
94966W        W54711   3.744  37.953  11.991
94967W        W54712  32.405  16.806   2.883
94968W        W54713  14.636   0.902  11.953
94969W        W54714  44.314  32.134   2.669
94970W        W54715  34.881  44.415   4.648
94971W        W54716  28.059  14.169   4.200
94972W        W54717  26.517  36.471   2.409
94973W        W54718  17.085  26.621   3.180
94974W        W54719  16.237  30.414   5.234
94975W        W54720  20.526  12.123  11.446
94976W        W54721  38.942  10.200   1.237
94977W        W54722  23.558  35.007  14.949
94978W        W54723   2.768  11.718   2.315
94979W        W54724   4.715  37.916   1.212
94980W        W54725   1.313   5.871  13.833
94981W        W54726  37.415  29.030   4.144
94982W        W54727  20.243  18.789   4.271
94983W        W54728  27.176  40.049  10.436
94984W        W54729  22.067  18.673  11.033
94985W        W54730  24.666  24.035   1.368
94986W        W54731  16.210  43.776  11.514
94987W        W54732   7.894  38.962   4.672
94988W        W54733   8.254  32.538   2.345
94989W        W54734  10.797  26.598  11.546
94990W        W54735  43.975  42.445  12.884
94991W        W54736  24.495   8.353   2.252
94992W        W54737   8.213  29.526  11.544
94993W        W54738  30.517  29.653  11.569
94994W        W54739  32.431   8.760  13.521
94995W        W54740   4.718  33.593  11.446
94996W        W54741  23.525  16.686  10.060
94997W        W54742  43.491  39.532  13.547
94998W        W54743  42.449  36.494  14.929
94999W        W54744  18.729   0.299  13.481
95000W        W54745   3.359  30.463  10.939
95001W        W54746   4.809  38.480  13.958
95002W        W54747  42.331  12.795   4.721
95003W        W54748  18.222  28.126  11.546
95004W        W54749   2.370   3.261  14.833
95005W        W54750  31.128  15.292   1.272
95006W        W54751  13.222  33.611  11.038
95007W        W54752  40.423  35.891  12.540
95008W        W54753  27.527  36.362   1.755
95009W        W54754   7.229  26.974   2.841
95010W        W54755  41.024   5.780  13.817
95011W        W54756  44.838  29.670   1.842
95012W        W54757  35.514   6.363  11.869
95013W        W54758  37.945  31.589  14.834
95014W        W54759  20.609  38.558   2.335
95015W        W54760  23.154   3.715   0.251
95016W        W54761  32.454  42.434  14.776
95017W        W54762  40.902  30.594   2.687
95018W        W54763  42.909   1.780   4.228
95019W        W54764  44.330  44.304   2.216
95020W        W54765  20.263  15.186  12.091
95021W        W54766  21.667  37.848  13.898
95022W        W54767   6.216  38.524   1.365
95023W        W54768  16.249  19.625   3.692
95024W        W54769  26.524  41.382   3.360
95025W        W54770  27.194  21.030  10.551
95026W        W54771  35.393  35.505  13.371
95027W        W54772  27.148  11.672   1.351
95028W        W54773  38.444  36.916  14.486
95029W        W54774  29.469  25.173   0.790
95030W        W54775  38.821  13.332  11.496
95031W        W54776   8.358  20.620  10.561
95032W        W54777   8.291  38.435   0.957
95033W        W54778  43.858   4.421   1.932
95034W        W54779  37.910   6.891  14.963
95035W        W54780  29.536  36.015  12.396
95036W        W54781  10.804  22.688  14.508
95037W        W54782  44.423  34.483   4.644
95038W        W54783  12.733  16.746  11.870
95039W        W54784  17.146  10.653   1.925
95040W        W54785  31.634  25.699  12.010
95041W        W54786  42.421  32.943   0.331
95042W        W54787  38.339  38.360   2.827
95043W        W54788  20.268  30.466   1.321
95044W        W54789  41.800  18.672   3.228
95045W        W54790   7.245  38.394  12.911
95046W        W54791  32.101   0.261  14.004
95047W        W54792   4.935   9.783   1.230
95048W        W54793   2.444   7.321  12.850
95049W        W54794  27.148  13.794  13.387
95050W        W54795   9.785  21.554   3.289
95051W        W54796  26.563  31.504   3.326
95052W        W54797   8.214  32.141  11.572
95053W        W54798  12.131  21.221  12.830
95054W        W54799  26.190  33.461  10.942
95055W        W54800   2.744  30.605  14.839
95056W        W54801  28.011  30.560  13.034
95057W        W54802  28.537   5.792  13.387
95058W        W54803  14.827  24.704  11.583
95059W        W54804  36.076  28.647   3.294
95060W        W54805  13.829  17.621   3.310
95061W        W54806  22.633   7.893   3.329
95062W        W54807  25.161  10.178   2.783
95063W        W54808   8.782  21.653   4.268
95064W        W54809   7.189  19.558   4.341
95065W        W54810  27.980  30.578  12.572
95066W        W54811   3.915  35.543   1.369
95067W        W54812  15.088   6.191   0.331
95068W        W54813  43.924  14.611   4.202
95069W        W54814  11.351  41.014  14.437
95070W        W54815  18.680  19.718  10.133
95071W        W54816  29.147   6.758   1.750
95072W        W54817  38.520   1.459  11.480
95073W        W54818  15.180   5.347  12.096
95074W        W54819  16.166  27.015   1.281
95075W        W54820  14.785   5.419  13.909
95076W        W54821  44.308  33.043  13.382
95077W        W54822  34.959  23.665   3.255
95078W        W54823  38.401  23.725  13.059
95079W        W54824  32.616   6.786  14.794
95080W        W54825  32.537  40.803  12.443
95081W        W54826  37.075   7.683   0.756
95082W        W54827  30.541  24.201   4.792
95083W        W54828  42.897  11.253   3.670
95084W        W54829  17.561  35.498   4.680
95085W        W54830  41.421  38.898   2.332
95086W        W54831   8.373  32.525  11.029
95087W        W54832  39.491  12.299   0.393
95088W        W54833  26.668   1.253   4.301
95089W        W54834  22.719  17.188   0.271
95090W        W54835  27.553  27.650   1.924
95091W        W54836  13.824  42.375  12.356
95092W        W54837  39.864  31.034   2.235
95093W        W54838  18.077  42.826  14.986
95094W        W54839  32.403  19.158  14.346
95095W        W54840  34.011  12.137  12.054
95096W        W54841  29.995   1.298   1.903
95097W        W54842  36.029  24.119  14.828
95098W        W54843   4.867  28.477  11.947
95099W        W54844  34.492  32.978   1.229
95100W        W54845  30.435  28.125   9.637
95101W        W54846  16.283  38.994   0.348
95102W        W54847  30.469  16.809  11.559
95103W        W54848  36.890  27.085  14.981
95104W        W54849  39.460  20.590   0.482
95105W        W54850  26.094  32.633   1.887
95106W        W54851  11.821   5.420  13.850
95107W        W54852  19.643  30.955  13.061
95108W        W54853  32.141  26.673   3.173
95109W        W54854  36.913  13.229   0.884
95110W        W54855  39.944  10.705  12.893
95111W        W54856  33.622  38.993   2.280
95112W        W54857  31.968  22.064   0.798
95113W        W54858  18.188  18.126  14.812
95114W        W54859   6.259  44.829   1.217
95115W        W54860   0.940  26.120  14.931
95116W        W54861  15.259  23.175  12.951
95117W        W54862  24.183   1.753  10.063
95118W        W54863   3.313  11.639   3.683
95119W        W54864  13.232  24.634  12.410
95120W        W54865   7.301  41.789  14.496
95121W        W54866  39.484  33.384   4.150
95122W        W54867  44.486   8.821  10.575
95123W        W54868  13.242  18.783  10.584
95124W        W54869  10.375   2.910  12.853
95125W        W54870  32.475  36.421  14.430
95126W        W54871  29.581  16.087  10.464
95127W        W54872  12.658   0.850   2.415
95128W        W54873   7.718  25.595  14.514
95129W        W54874   4.409  43.864  11.028
95130W        W54875  34.415  19.220  13.338
95131W        W54876  16.756  17.786  14.499
95132W        W54877  25.977  13.110  10.988
95133W        W54878  35.034  41.459  10.546
95134W        W54879  42.932  44.322  10.494
95135W        W54880  12.140  35.500   2.189
95136W        W54881   3.218  25.590   0.842
95137W        W54882  27.189  43.916   3.787
95138W        W54883  15.641  19.686   0.929
95139W        W54884   9.159  25.714   1.901
95140W        W54885  19.248  44.843  11.919
95141W        W54886  33.406   6.705  11.086
95142W        W54887  31.601   3.940  11.940
95143W        W54888  17.111  12.778   3.308
95144W        W54889  29.668  21.575   1.257
95145W        W54890  40.881  44.003  13.320
95146W        W54891  39.859  16.313  14.824
95147W        W54892   9.730  27.548   4.674
95148W        W54893   3.879  25.994  12.523
95149W        W54894  41.886  10.701   3.219
95150W        W54895  29.035  30.634  14.894
95151W        W54896   4.721  16.148   3.305
95152W        W54897  27.539  32.950  14.419
95153W        W54898  43.271  13.194   3.674
95154W        W54899  35.408  31.102  11.561
95155W        W54900  43.818  14.152   4.689
95156W        W54901  31.470  11.180  13.052
95157W        W54902  36.933  43.478  12.506
95158W        W54903  34.118  13.143  12.873
95159W        W54904  32.423   0.477   2.251
95160W        W54905   3.455  24.093  14.911
95161W        W54906  23.698  29.982  13.986
95162W        W54907  14.306  36.897   3.342
95163W        W54908  20.693  38.889  11.384
95164W        W54909  15.699  21.184  11.053
95165W        W54910   5.853  32.989  14.888
95166W        W54911  22.143  30.985   9.964
95167W        W54912  16.621  11.650  10.573
95168W        W54913   0.863  40.049   4.225
95169W        W54914  42.869  22.516  10.443
95170W        W54915  28.542   1.446  14.930
95171W        W54916  36.914  16.623   3.254
95172W        W54917  29.028  39.415   1.299
95173W        W54918  38.988   1.978   5.245
95174W        W54919  35.870  23.545  13.364
95175W        W54920  30.626  13.738  13.493
95176W        W54921  22.622  10.818  13.839
95177W        W54922  35.489  29.113  11.088
95178W        W54923  11.673   0.888   2.416
95179W        W54924  13.808  38.966  11.950
95180W        W54925  38.980  18.279  14.866
95181W        W54926  11.661  26.999  14.459
95182W        W54927   9.663  39.906  10.491
95183W        W54928  40.421   5.329  11.551
95184W        W54929  23.029   3.439  12.861
95185W        W54930  20.605  41.294  12.930
95186W        W54931  26.000  30.953  12.089
95187W        W54932  38.400  29.647  13.355
95188W        W54933   3.846  23.218   2.313
95189W        W54934   2.307  21.690  13.057
95190W        W54935  28.026  32.482  12.503
95191W        W54936  43.924  29.648   1.849
95192W        W54937  14.111  28.499   1.835
95193W        W54938   8.875  10.250  12.012
95194W        W54939  29.077  21.024  12.005
95195W        W54940  18.229  14.632   0.739
95196W        W54941  26.080   2.472   2.314
95197W        W54942   8.297  28.497  11.542
95198W        W54943  26.977  18.691   2.709
95199W        W54944  44.923  43.817  13.520
95200W        W54945  32.914  44.836  12.469
95201W        W54946  26.991  27.474  11.508
95202W        W54947  21.166   3.897   1.872
95203W        W54948  40.832  34.876   3.163
95204W        W54949  32.546  22.595  13.047
95205W        W54950  36.878  19.115  11.009
95206W        W54951  20.099  21.740   2.867
95207W        W54952  19.191  39.859   3.355
95208W        W54953  28.017  14.290   2.852
95209W        W54954  34.392   5.888  14.365
95210W        W54955   5.249  12.283  12.546
95211W        W54956   2.914  28.098   4.293
95212W        W54957  25.011  27.470   4.140
95213W        W54958  34.120  14.147  14.513
95214W        W54959   4.333  39.857   3.235
95215W        W54960  39.993  18.595  10.437
95216W        W54961  13.230  28.012   0.391
95217W        W54962   4.828  16.700  12.341
95218W        W54963  19.757  23.589   2.876
95219W        W54964  12.354  27.545   1.860
95220W        W54965  24.684   7.782   3.685
95221W        W54966  30.601  22.559   3.251
95222W        W54967   5.271  10.649  11.074
95223W        W54968  28.045  37.896   4.688
95224W        W54969  42.018  27.070  10.567
95225W        W54970   8.402  29.095  14.851
95226W        W54971  42.527  26.973  14.784
95227W        W54972  42.001  18.737  14.378
95228W        W54973  25.660   5.334  13.485
95229W        W54974  27.195  21.255   9.931
95230W        W54975  25.203   8.737  13.056
95231W        W54976  27.133  37.463   4.253
95232W        W54977  23.722  34.031   2.871
95233W        W54978  27.460   2.252  12.838
95234W        W54979  13.303   9.174  12.347
95235W        W54980  41.833   1.815  10.100
95236W        W54981  19.169   4.349  13.463
95237W        W54982  37.846  39.521   4.659
95238W        W54983  16.710  25.647  11.481
95239W        W54984   9.278  24.500   4.193
95240W        W54985  25.969  13.844  10.918
95241W        W54986  11.254   8.692  11.957
95242W        W54987  10.870   7.904  14.945
95243W        W54988  12.840  19.192  14.418
95244W        W54989  40.952  14.731   2.393
95245W        W54990  31.979  21.599   3.314
95246W        W54991  16.211   6.245   0.850
95247W        W54992  30.962  12.845  11.454
95248W        W54993   0.493  26.078  13.898
95249W        W54994  18.770  22.531  10.147
95250W        W54995   0.943  25.102   4.330
95251W        W54996  21.237  32.979  10.562
95252W        W54997  41.328   9.286  13.357
95253W        W54998   9.306   4.845  12.565
95254W        W54999   3.714   3.805  11.984
95255W        W55000  11.684  36.442  14.846
95256W        W55001  17.294  35.896   1.376
95257W        W55002  34.973  29.594   1.794
95258W        W55003  20.110  38.932  14.410
95259W        W55004   0.791  44.480   5.174
95260W        W55005  26.032   7.232  10.472
95261W        W55006  32.031  25.020  13.915
95262W        W55007  23.650  20.218   3.735
95263W        W55008   2.788  30.946   3.347
95264W        W55009   2.874  43.881  12.037
95265W        W55010   4.354  32.599   3.860
95266W        W55011  34.544  30.096   1.215
95267W        W55012  14.804  21.565   1.389
95268W        W55013  36.377  17.303  10.025
95269W        W55014  29.088  39.447  13.430
95270W        W55015   3.343   5.811  11.019
95271W        W55016  43.274  20.701  10.421
95272W        W55017   5.789  14.703   4.749
95273W        W55018  37.481  16.194   4.216
95274W        W55019   0.760  40.481   4.123
95275W        W55020  14.677   5.882  13.855
95276W        W55021   5.823  41.442   0.781
95277W        W55022   2.367  12.666   3.830
95278W        W55023   8.793   6.719  12.440
95279W        W55024  34.387  26.576  10.508
95280W        W55025   9.657  17.646   4.663
95281W        W55026  37.406   8.687  13.970
95282W        W55027  12.623  29.133  11.589
95283W        W55028  34.457   8.680   4.292
95284W        W55029  22.058  10.848   0.466
95285W        W55030  44.412  41.018   0.923
95286W        W55031  43.293  29.454  10.085
95287W        W55032  32.452  15.656   4.736
95288W        W55033  23.597  30.964  14.427
95289W        W55034  15.791  19.585   2.828
95290W        W55035  34.499  37.558  13.427
95291W        W55036  37.461  37.835   2.842
95292W        W55037  12.630  35.086   0.743
95293W        W55038  17.195  18.614   4.119
95294W        W55039  44.330  43.770   2.219
95295W        W55040  25.082  35.550   3.186
95296W        W55041  13.699  17.673  13.006
95297W        W55042   2.736  32.131   0.953
95298W        W55043  24.030  16.740   3.654
95299W        W55044   8.658   7.237  11.883
95300W        W55045  28.176  13.792   0.341
95301W        W55046  11.283  35.569   0.278
95302W        W55047   3.897  44.397   2.891
95303W        W55048  39.560  10.777   2.866
95304W        W55049  33.589   5.200   2.818
95305W        W55050  30.423  19.754   1.705
95306W        W55051  28.173  31.051  12.542
95307W        W55052   7.713   8.244  14.977
95308W        W55053  22.058   2.458   0.309
95309W        W55054  44.357  15.213   0.901
95310W        W55055  44.493  36.086   1.795
95311W        W55056  41.042  31.617  10.435
95312W        W55057  44.381  32.945  14.771
95313W        W55058  37.407  11.162  11.561
95314W        W55059  30.009   4.769   0.448
95315W        W55060  35.997  34.047  14.488
95316W        W55061  20.523   8.836  10.443
95317W        W55062  21.623  20.692   1.804
95318W        W55063  14.094  33.994   2.889
95319W        W55064  18.589  24.483  11.997
95320W        W55065  43.507   1.371  11.860
95321W        W55066   6.387  42.975  10.600
95322W        W55067   8.734   8.777   3.668
95323W        W55068  38.890  32.540  10.952
95324W        W55069   5.421  21.101   2.733
95325W        W55070  27.113  40.044   3.669
95326W        W55071   6.259  40.847  11.019
95327W        W55072   5.427   0.910  13.414
95328W        W55073   3.722  41.928   0.280
95329W        W55074  28.077  13.261  12.577
95330W        W55075  30.015   5.719  10.160
95331W        W55076  36.041  22.711   0.318
95332W        W55077  27.026  11.258   0.397
95333W        W55078  12.839  42.800  14.378
95334W        W55079  13.222  24.704   1.746
95335W        W55080  33.618  38.516  11.390
95336W        W55081  23.158  10.681   0.316
95337W        W55082  18.253  11.860  11.122
95338W        W55083  41.404  38.928  12.023
95339W        W55084   8.881   2.733  14.446
95340W        W55085  31.411  41.992   3.251
95341W        W55086   3.723  33.892   0.801
95342W        W55087  13.290   5.401  13.015
95343W        W55088  12.164  33.977   0.731
95344W        W55089  44.330  13.268   5.169
95345W        W55090  33.985  40.397  11.488
95346W        W55091  23.167  44.827   0.799
95347W        W55092  44.844  25.128   4.234
95348W        W55093  22.562  38.351  14.394
95349W        W55094   3.260   8.341   4.131
95350W        W55095  39.443  27.595  13.340
95351W        W55096  30.994  38.859  11.500
95352W        W55097  26.515  25.656   3.645
95353W        W55098  10.225  16.286  12.565
95354W        W55099  33.416  18.185  12.993
95355W        W55100  43.471  43.922  11.498
95356W        W55101   6.361  18.283   2.238
95357W        W55102  26.995  20.102   0.360
95358W        W55103  18.214  17.294  10.477
95359W        W55104  37.963  41.494  13.423
95360W        W55105  19.209  38.428  12.392
95361W        W55106  20.102  10.633   3.349
95362W        W55107  11.822  27.949  10.080
95363W        W55108  16.176  21.607  11.869
95364W        W55109  42.327   7.317  13.545
95365W        W55110  11.766  18.738  10.558
95366W        W55111   7.238  24.157  12.046
95367W        W55112  20.159  40.891  14.445
95368W        W55113   8.332  37.564  13.054
95369W        W55114  35.519  12.204  11.936
95370W        W55115  36.842  30.530  14.357
95371W        W55116  18.144  13.237   2.352
95372W        W55117  41.883  24.048   1.723
95373W        W55118  40.366   5.925   3.354
95374W        W55119   4.308  35.599  12.551
95375W        W55120  35.505  27.469  12.063
95376W        W55121  37.022  32.096  11.380
95377W        W55122  37.915  19.226   1.368
95378W        W55123  35.463   1.480  10.565
95379W        W55124  22.526  22.648   9.922
95380W        W55125   7.878  36.426   1.327
95381W        W55126  13.266  32.003   0.318
95382W        W55127  25.208  18.286  14.776
95383W        W55128  38.873  35.525  12.900
95384W        W55129  15.670  42.023   3.748
95385W        W55130   7.730   7.383   2.184
95386W        W55131  27.945  24.217   9.937
95387W        W55132  35.472  40.042  12.360
95388W        W55133   9.690  41.949  13.905
95389W        W55134  35.957  34.453   2.371
95390W        W55135  23.525  35.415  12.903
95391W        W55136   0.261  33.615   4.718
95392W        W55137  11.822  20.111   4.282
95393W        W55138  21.753  38.388   2.881
95394W        W55139   2.337  30.614   4.220
95395W        W55140  26.608   9.271  10.564
95396W        W55141  13.616  20.758  11.400
95397W        W55142  29.046  27.089  14.877
95398W        W55143  39.012  24.224   0.329
95399W        W55144  10.796  25.218  13.836
95400W        W55145  15.199  39.023   3.646
95401W        W55146   3.773  34.033  13.475
95402W        W55147  23.661   5.308  11.518
95403W        W55148  38.915  34.887  11.576
95404W        W55149   9.827   3.764   3.208
95405W        W55150   3.315  24.158  10.620
95406W        W55151  21.514  20.746   0.477
95407W        W55152   4.309   2.349  13.862
95408W        W55153  33.054   5.355   9.554
95409W        W55154  35.073  24.162   2.200
95410W        W55155  44.973  21.650   3.827
95411W        W55156  22.186  29.482   0.826
95412W        W55157  29.020  36.914   1.253
95413W        W55158  33.130  15.207  13.056
95414W        W55159   3.285  26.603   3.316
95415W        W55160  27.536  27.494   4.689
95416W        W55161   5.296  37.873   2.356
95417W        W55162  25.504  41.471  13.473
95418W        W55163  41.036  17.781   0.246
95419W        W55164   6.762  34.504  10.512
95420W        W55165   4.228  41.432  13.030
95421W        W55166   8.716  43.923   0.304
95422W        W55167   2.950   6.677   1.720
95423W        W55168  33.411  37.441  14.947
95424W        W55169  10.138  19.733  12.860
95425W        W55170   8.727  10.162  14.285
95426W        W55171  43.270  12.318   3.275
95427W        W55172   5.870  44.888  10.890
95428W        W55173  16.793   3.353   3.639
95429W        W55174  37.936   1.822   4.675
95430W        W55175  38.034  21.143  11.072
95431W        W55176  33.902  22.576   9.530
95432W        W55177  11.182  37.010  14.415
95433W        W55178  29.522  41.377   4.634
95434W        W55179  22.723  21.669   0.813
95435W        W55180   3.875   3.754   3.670
95436W        W55181  32.577  25.506   2.726
95437W        W55182  23.034  19.249   2.323
95438W        W55183  27.161  30.023  14.926
95439W        W55184  43.907  12.657   2.773
95440W        W55185   6.224  22.020  12.086
95441W        W55186  17.665   7.383   4.700
95442W        W55187   8.888   5.365   2.325
95443W        W55188  43.366  40.843  13.857
95444W        W55189   7.412  39.850  10.404
95445W        W55190  17.629  30.924  11.383
95446W        W55191  37.899  18.707  10.944
95447W        W55192   8.883  44.377  12.989
95448W        W55193  16.703  15.718  14.429
95449W        W55194  26.521  36.928  14.368
95450W        W55195  20.747  22.221  12.554
95451W        W55196   8.290   8.254   2.744
95452W        W55197  11.297   3.895  10.610
95453W        W55198  41.811  21.173   3.825
95454W        W55199   2.299  28.157  11.417
95455W        W55200   3.810  37.948   9.566
95456W        W55201  12.652   1.914  10.624
95457W        W55202   4.830  32.893  11.049
95458W        W55203  23.008  24.675  13.924
95459W        W55204  26.131  40.429  12.563
95460W        W55205  40.459   2.343   2.402
95461W        W55206  13.181  27.976   1.810
95462W        W55207  29.149  26.682  12.006
95463W        W55208  30.068   2.434  14.011
95464W        W55209  31.961  18.285  10.600
95465W        W55210   7.901  35.103  15.000
95466W        W55211  38.980   5.194   3.743
95467W        W55212  18.659  22.148  10.590
95468W        W55213  14.289  12.809   0.780
95469W        W55214  40.815  16.812   4.147
95470W        W55215  39.401   1.476   3.751
95471W        W55216  37.954  36.020  12.936
95472W        W55217  12.612   1.261   0.920
95473W        W55218  38.870  29.613  12.003
95474W        W55219   6.709  14.642  11.976
95475W        W55220   8.671  43.461  11.940
95476W        W55221  25.002  11.724   1.723
95477W        W55222  34.443  32.412   4.325
95478W        W55223   5.867  33.051   4.120
95479W        W55224  25.062  39.432   3.336
95480W        W55225  39.320   6.738   0.810
95481W        W55226  32.964  18.115   1.311
95482W        W55227  44.421  30.985   3.366
95483W        W55228  25.533  36.957   1.311
95484W        W55229  26.068  37.078  14.879
95485W        W55230  11.195  22.555   0.313
95486W        W55231  41.506  29.008   3.772
95487W        W55232  15.152   8.200  13.524
95488W        W55233   3.917  30.909  14.913
95489W        W55234   8.383  39.401  14.474
95490W        W55235  35.439  23.001  11.406
95491W        W55236  32.003  27.106   0.448
95492W        W55237  41.838  36.987   2.390
95493W        W55238  33.095  19.592  10.097
95494W        W55239  42.430  38.066  11.870
95495W        W55240  13.290  11.205   2.269
95496W        W55241  29.104  14.666  14.309
95497W        W55242  13.119  12.177   3.268
95498W        W55243   5.236  22.109   2.750
95499W        W55244   1.358  44.437   1.772
95500W        W55245  10.164  37.920   0.428
95501W        W55246  35.961  29.975  13.953
95502W        W55247   2.404  15.699  13.314
95503W        W55248   3.880  44.396   4.113
95504W        W55249  18.713   7.716   2.219
95505W        W55250  10.337  37.402  12.524
95506W        W55251   9.882  32.899   1.253
95507W        W55252  21.258  37.526   0.740
95508W        W55253  43.999  32.124   1.707
95509W        W55254  42.999  28.123  13.342
95510W        W55255  38.873  26.536   0.951
95511W        W55256   7.848  14.264  11.389
95512W        W55257   1.298  36.966   0.454
95513W        W55258  36.529  22.687  11.887
95514W        W55259  10.732  40.337  10.544
95515W        W55260  25.485   7.353  12.361
95516W        W55261  37.576  14.786  12.347
95517W        W55262  30.625  28.457  11.066
95518W        W55263   8.342  35.436  12.027
95519W        W55264  26.070  24.502   1.264
95520W        W55265  16.679  34.446   2.704
95521W        W55266  44.901  36.857  12.460
95522W        W55267  14.656  23.164   4.788
95523W        W55268  35.957  40.909  14.462
95524W        W55269  42.875  33.971  10.579
95525W        W55270  18.700  35.552   0.879
95526W        W55271  31.612  28.605  12.948
95527W        W55272  27.050  44.880   3.706
95528W        W55273  12.654  42.932   1.765
95529W        W55274  11.772  30.040  14.293
95530W        W55275   1.874   0.438   1.709
95531W        W55276   7.225   0.916  11.099
95532W        W55277  41.872  14.725  12.949
95533W        W55278   9.881  15.707   2.715
95534W        W55279  30.999  16.257  13.398
95535W        W55280  11.735  35.585  14.905
95536W        W55281  11.324  13.226  10.909
95537W        W55282  43.474   1.459  11.461
95538W        W55283   6.303  20.712  12.990
95539W        W55284   7.776  15.288  14.024
95540W        W55285  35.018  35.408  14.354
95541W        W55286   1.406  32.028   4.815
95542W        W55287  11.224   5.206  13.520
95543W        W55288  13.316  44.462  14.888
95544W        W55289   0.880  32.614  14.927
95545W        W55290   0.827  26.195  11.875
95546W        W55291   5.760   2.284  13.045
95547W        W55292  16.181  14.098   2.279
95548W        W55293   8.665  37.355   2.308
95549W        W55294  42.949   8.345  13.815
95550W        W55295  22.655   1.910   0.808
95551W        W55296  14.721  16.801  14.421
95552W        W55297  42.930   2.722   2.302
95553W        W55298  10.848  29.509   1.269
95554W        W55299  20.656  22.195  11.079
95555W        W55300   0.819   2.269   3.341
95556W        W55301  17.098  26.065  12.076
95557W        W55302   2.956  19.145  11.109
95558W        W55303  16.774   7.372  10.461
95559W        W55304  22.621  18.111  13.459
95560W        W55305  41.915  31.090  13.360
95561W        W55306  36.478   9.702   1.392
95562W        W55307  29.110  35.374  12.024
95563W        W55308  44.942  13.179   1.785
95564W        W55309  39.434  15.735  11.004
95565W        W55310  16.788  15.777  12.400
95566W        W55311   1.957  11.674  12.478
95567W        W55312   4.771  30.144   3.319
95568W        W55313  39.899  21.105  10.461
95569W        W55314  21.619   2.787  12.058
95570W        W55315  37.831  31.450   4.638
95571W        W55316  34.078  40.806  12.985
95572W        W55317   5.202  14.725   0.851
95573W        W55318   6.192   7.718   3.861
95574W        W55319  12.802  41.349  11.955
95575W        W55320   5.911  20.068   4.264
95576W        W55321   2.310  10.290  10.569
95577W        W55322  30.992   7.685  10.520
95578W        W55323  34.376   9.218   3.313
95579W        W55324  27.479  43.473   1.339
95580W        W55325  38.853  17.775   1.226
95581W        W55326  41.806  13.196  13.827
95582W        W55327   7.879   8.171  11.975
95583W        W55328  14.319  26.483  10.993
95584W        W55329  15.140  30.650  12.836
95585W        W55330  37.570  13.128  12.498
95586W        W55331  22.077  20.682   3.825
95587W        W55332  11.215  17.641   3.204
95588W        W55333  44.278  23.133  14.899
95589W        W55334  21.698  11.156  14.017
95590W        W55335   7.380  39.318   0.428
95591W        W55336  28.585   6.341   4.169
95592W        W55337  22.215  29.091   3.212
95593W        W55338  11.798  19.652   1.753
95594W        W55339  11.275   7.384   4.663
95595W        W55340  19.572  26.612  14.984
95596W        W55341  31.057  42.869  11.542
95597W        W55342  28.044  36.008  10.486
95598W        W55343  31.526  20.243  12.921
95599W        W55344  20.657  36.400  10.588
95600W        W55345  39.514  35.548  13.344
95601W        W55346  21.023  37.078   2.387
95602W        W55347  25.975  27.542   4.803
95603W        W55348  15.639  14.641   2.310
95604W        W55349  19.178  44.996   4.737
95605W        W55350   6.691  15.225  13.956
95606W        W55351   6.323  15.773  13.876
95607W        W55352  15.726  13.799  11.413
95608W        W55353   4.303   6.317   3.670
95609W        W55354   8.880   3.281  14.823
95610W        W55355   8.881   9.842   1.709
95611W        W55356   2.828  25.572  11.885
95612W        W55357  13.836   6.412  14.284
95613W        W55358  40.975  43.508   4.230
95614W        W55359  37.456   9.799   3.300
95615W        W55360  32.958  28.132  10.434
95616W        W55361   0.289  44.264   4.602
95617W        W55362   5.250   0.383  12.480
95618W        W55363  27.993  20.528   1.435
95619W        W55364  16.810  22.073   3.854
95620W        W55365  31.438  29.657  12.070
95621W        W55366  20.615   3.416  14.011
95622W        W55367  36.554  17.128  11.978
95623W        W55368  26.185  29.046   3.311
95624W        W55369  37.561  38.521  12.487
95625W        W55370  32.126   9.328  10.498
95626W        W55371  28.511  40.377  14.923
95627W        W55372   6.685  34.893  11.952
95628W        W55373   1.814   0.334  12.961
95629W        W55374  31.502  32.426  14.298
95630W        W55375  15.679  25.632  13.791
95631W        W55376  34.073  33.618  11.567
95632W        W55377   1.416  36.513  11.015
95633W        W55378  13.178  37.453  11.043
95634W        W55379  28.178  22.743   2.747
95635W        W55380  14.114  20.132  12.363
95636W        W55381  29.029  41.469  14.323
95637W        W55382  30.060  39.525  14.892
95638W        W55383  14.142  33.958  14.829
95639W        W55384  19.683   3.839  12.362
95640W        W55385  23.208  24.081  12.854
95641W        W55386  31.548  24.653  14.926
95642W        W55387  24.114   7.416  14.795
95643W        W55388   4.231  36.870   3.155
95644W        W55389  15.770  33.906  11.492
95645W        W55390  14.624  10.308   3.312
95646W        W55391   1.477  39.502   4.690
95647W        W55392  10.807  38.532   9.577
95648W        W55393  19.612  13.303  13.957
95649W        W55394  44.410  14.753   5.116
95650W        W55395  30.039  41.851  11.896
95651W        W55396  32.515  21.150   4.228
95652W        W55397   7.710  24.096   4.661
95653W        W55398  21.663  42.851   1.406
95654W        W55399  36.074  36.069   2.187
95655W        W55400  23.107  13.720  13.051
95656W        W55401  38.512   1.335   2.725
95657W        W55402  16.257  28.946   3.753
95658W        W55403   2.303  27.563  13.547
95659W        W55404  33.521   9.666   0.936
95660W        W55405   0.829  44.888   3.860
95661W        W55406  43.981  42.497   3.292
95662W        W55407   6.339  35.002   3.278
95663W        W55408   7.711  43.974   1.887
95664W        W55409  24.061  40.989   4.280
95665W        W55410  35.499  21.523   3.826
95666W        W55411  30.499   1.835  14.976
95667W        W55412  43.397   7.801  11.049
95668W        W55413  36.862  24.019  11.402
95669W        W55414  17.172  31.406  11.463
95670W        W55415  16.720  15.701   1.743
95671W        W55416  20.710  41.512   2.381
95672W        W55417  30.423  44.801   1.254
95673W        W55418  15.793  13.144   4.269
95674W        W55419  12.329  28.536  12.897
95675W        W55420   2.763  25.586  14.293
95676W        W55421  18.244  10.308  14.928
95677W        W55422   3.873  32.133  10.122
95678W        W55423   0.948  40.504   0.314
95679W        W55424  23.661  24.572  13.915
95680W        W55425   7.294  39.031  10.564
95681W        W55426   1.354  25.609  11.947
95682W        W55427  17.297  38.368  11.872
95683W        W55428  38.836   0.962   1.254
95684W        W55429   2.737  12.777   4.666
95685W        W55430  17.165  17.246  13.978
95686W        W55431  16.754  31.515  13.308
95687W        W55432  41.438   2.932   1.448
95688W        W55433  42.975  14.193  11.880
95689W        W55434  25.710  36.375  12.894
95690W        W55435  24.192  16.171   1.853
95691W        W55436  37.429   1.372  14.999
95692W        W55437   7.845  27.039  11.521
95693W        W55438  25.479  11.778   2.898
95694W        W55439  39.455  26.171   0.801
95695W        W55440   8.809  13.282  10.607
95696W        W55441  11.163   7.199   0.760
95697W        W55442  23.054  36.907  13.931
95698W        W55443  28.577  40.344   1.869
95699W        W55444  19.644  12.686  14.421
95700W        W55445  38.367  24.223   0.926
95701W        W55446  41.521  20.141  13.535
95702W        W55447   8.291  24.094   2.305
95703W        W55448  39.061  19.223   3.315
95704W        W55449  40.042  24.641  14.976
95705W        W55450   3.448   5.702   2.712
95706W        W55451  14.782  38.825  12.025
95707W        W55452  33.567  15.629  13.446
95708W        W55453  20.752   6.799   2.703
95709W        W55454  14.267   8.856  11.082
95710W        W55455  35.888  15.620  10.994
95711W        W55456  30.021  25.033   3.289
95712W        W55457  10.158   9.387   4.666
95713W        W55458  22.203  23.033  13.503
95714W        W55459  14.262   0.367  14.302
95715W        W55460  44.399  23.030  11.065
95716W        W55461  40.328  26.103  14.940
95717W        W55462  34.564   7.279  11.902
95718W        W55463  30.098   1.933  11.994
95719W        W55464  15.204  44.773  13.866
95720W        W55465  35.991   6.816   4.802
95721W        W55466  34.521  10.671  10.922
95722W        W55467  32.396  30.594   1.702
95723W        W55468   5.268   6.789   3.183
95724W        W55469  10.814  15.795  11.599
95725W        W55470  35.886  41.322  11.531
95726W        W55471  34.888  20.060   2.838
95727W        W55472  12.648  28.135  12.073
95728W        W55473  36.427   1.958   2.707
95729W        W55474  37.496  15.740   4.227
95730W        W55475  10.643  17.294  13.865
95731W        W55476  11.699  31.127   0.284
95732W        W55477  32.930   3.818   2.309
95733W        W55478  24.141  35.603  11.081
95734W        W55479  43.002  24.150  14.298
95735W        W55480   7.179  44.449  12.417
95736W        W55481  10.257  31.151   4.815
95737W        W55482  29.064  11.186  10.949
95738W        W55483   2.916  34.036  11.102
95739W        W55484   7.735  18.190   2.776
95740W        W55485  16.103   4.863   2.695
95741W        W55486  25.552  36.482  11.054
95742W        W55487  35.375  14.654  12.067
95743W        W55488  27.554   3.807   1.425
95744W        W55489   2.319  21.186  14.944
95745W        W55490  21.717  32.909   0.878
95746W        W55491  25.636  12.272  10.513
95747W        W55492  27.998  35.924   0.266
95748W        W55493  43.339  31.597   2.361
95749W        W55494  24.487  31.920  10.111
95750W        W55495  18.067  40.471   1.446
95751W        W55496  27.005   5.733   0.445
95752W        W55497   9.823  20.637  12.863
95753W        W55498   0.781  22.640   3.279
95754W        W55499  35.051   9.327  12.407
95755W        W55500  16.303   4.937  14.986
95756W        W55501   3.901   2.817   2.235
95757W        W55502   6.403   4.702   1.792
95758W        W55503  11.641   4.757   0.765
95759W        W55504   9.881  42.915   3.271
95760W        W55505   2.905   1.844   4.638
95761W        W55506   8.782  19.223   1.268
95762W        W55507  32.061  38.551   4.639
95763W        W55508   1.911  21.205  13.952
95764W        W55509   8.773   7.699  13.418
95765W        W55510  25.601  28.011   2.681
95766W        W55511  24.671  37.008  13.473
95767W        W55512  15.744  11.159   1.715
95768W        W55513  43.306  15.143   0.433
95769W        W55514  42.872  20.250  14.356
95770W        W55515  40.526  21.122  14.931
95771W        W55516  40.388  37.956   3.812
95772W        W55517  10.225  23.238  12.923
95773W        W55518   6.760  29.989   3.262
95774W        W55519  18.092  20.708  10.606
95775W        W55520   9.751  22.747  12.460
95776W        W55521  42.967  37.539  14.368
95777W        W55522   5.389   2.783   2.875
95778W        W55523  23.119  36.869  12.414
95779W        W55524  43.818   7.266  11.581
95780W        W55525   1.915  29.059   2.188
95781W        W55526  44.420  28.473  13.808
95782W        W55527  12.717  40.383  13.319
95783W        W55528  43.874   9.310  11.951
95784W        W55529  38.876  14.246   0.394
95785W        W55530  23.593  26.068  10.545
95786W        W55531  26.132  43.278   4.783
95787W        W55532  30.593  36.950  13.803
95788W        W55533  25.498  31.505   1.395
95789W        W55534  20.156   5.873   4.256
95790W        W55535  24.085  40.528  12.504
95791W        W55536  15.805   4.773   1.819
95792W        W55537  32.559   8.353  11.981
95793W        W55538  18.633  26.059  14.365
95794W        W55539  30.644  41.013  10.636
95795W        W55540   1.408  33.080   1.741
95796W        W55541  21.722  31.088   2.827
95797W        W55542  40.826  23.586   0.378
95798W        W55543  44.900  25.175   2.182
95799W        W55544  19.102  44.273  12.970
95800W        W55545  43.777  34.103  13.871
95801W        W55546  41.910   0.839  12.053
95802W        W55547  16.074  38.451   3.222
95803W        W55548  40.981  30.068   1.912
95804W        W55549   7.738   9.727   0.461
95805W        W55550  39.896  32.023  13.808
95806W        W55551  17.711  32.425   2.349
95807W        W55552  29.002  36.465   1.800
95808W        W55553  28.518  21.741  14.846
95809W        W55554  41.479  34.101   0.373
95810W        W55555  31.925  38.960   2.819
95811W        W55556  18.653  41.817   3.817
95812W        W55557  11.352  35.426  12.400
95813W        W55558  29.938  10.143   0.862
95814W        W55559  39.044   9.236  13.998
95815W        W55560  24.510  18.236   5.762
95816W        W55561  26.684  31.607   3.762
95817W        W55562   3.948  14.144  11.387
95818W        W55563   4.314  14.755  14.445
95819W        W55564  42.926  37.539   3.298
95820W        W55565  20.706  39.345  12.502
95821W        W55566   1.732   7.908   0.284
95822W        W55567  13.663  28.481  12.481
95823W        W55568  30.004  26.481  10.559
95824W        W55569  11.749   1.342   3.693
95825W        W55570  32.100  43.949  13.315
95826W        W55571  40.439  28.483   3.203
95827W        W55572  36.049  29.956  12.992
95828W        W55573  35.362  39.974   2.366
95829W        W55574  26.638  25.123  10.548
95830W        W55575  43.892  41.427   0.275
95831W        W55576  32.469   1.812   1.884
95832W        W55577  23.509  14.129   3.645
95833W        W55578   6.390  29.670  12.500
95834W        W55579  17.128  22.622   0.952
95835W        W55580  39.554  32.572  11.960
95836W        W55581  34.960  19.540  13.407
95837W        W55582  34.480  22.738   2.364
95838W        W55583  34.987  13.705   2.385
95839W        W55584   6.888  40.900   2.385
95840W        W55585  40.354  21.516  12.377
95841W        W55586  25.074  25.489   0.250
95842W        W55587  13.188  42.903   3.225
95843W        W55588   8.703  36.553   5.140
95844W        W55589  42.981   9.664  14.821
95845W        W55590  21.717   6.238  14.429
95846W        W55591  16.161  38.422  11.535
95847W        W55592  22.117  38.449   1.302
95848W        W55593  44.322  42.472   2.837
95849W        W55594  33.933  10.700   2.793
95850W        W55595  35.948  23.528  10.569
95851W        W55596  37.545  18.587   2.747
95852W        W55597  42.424  34.028   0.358
95853W        W55598   5.814  27.087  11.522
95854W        W55599  17.688  22.076  10.986
95855W        W55600  23.716  36.086   0.937
95856W        W55601  42.779   0.297   1.245
95857W        W55602   5.932  26.175   3.248
95858W        W55603  21.092  20.028   0.449
95859W        W55604   7.867   2.368  11.082
95860W        W55605  17.303  41.836   0.792
95861W        W55606  41.036   4.808   0.856
95862W        W55607  41.481  13.640  11.073
95863W        W55608  26.988  15.155   3.380
95864W        W55609  21.744   1.256  13.365
95865W        W55610  17.618  19.047   3.309
95866W        W55611  42.952  43.514   5.208
95867W        W55612   6.770  19.639  12.539
95868W        W55613  35.101  30.654   2.268
95869W        W55614  22.538  44.758   0.959
95870W        W55615  15.111  30.414  11.960
95871W        W55616  28.022   4.351  12.880
95872W        W55617  30.049  20.763   5.317
95873W        W55618  20.205  35.024  12.997
95874W        W55619  37.938  36.412  13.486
95875W        W55620  20.200  33.571  14.449
95876W        W55621  31.978  34.548  11.126
95877W        W55622  20.582   6.833  11.928
95878W        W55623   3.418  17.227   3.734
95879W        W55624  20.609  21.174   0.732
95880W        W55625  33.572  27.193  12.054
95881W        W55626  19.205   5.417   4.611
95882W        W55627  15.609   2.883   4.640
95883W        W55628  29.667  26.083   3.663
95884W        W55629  43.340  18.236   4.723
95885W        W55630  42.876  16.089   3.801
95886W        W55631  42.353  36.865  13.375
95887W        W55632  28.610  31.109  14.932
95888W        W55633  12.803  22.212   2.786
95889W        W55634   0.367   7.908  13.023
95890W        W55635  22.150  27.187  14.914
95891W        W55636   2.263  20.219  14.441
95892W        W55637   4.244  10.225  14.856
95893W        W55638  33.567  18.638   2.885
95894W        W55639  13.829  15.110  11.083
95895W        W55640  38.377  25.120  13.371
95896W        W55641   4.706  23.493  11.056
95897W        W55642  32.398  39.824  10.615
95898W        W55643   0.815   5.863   2.849
95899W        W55644  34.512   1.325  11.904
95900W        W55645  14.300  44.370  12.414
95901W        W55646  38.988  44.943   4.120
95902W        W55647  11.792  38.949   5.109
95903W        W55648  40.802  16.781  13.877
95904W        W55649  29.169  43.317  14.979
95905W        W55650   3.774  33.117   3.192
95906W        W55651   2.776  25.064  14.927
95907W        W55652   8.691  15.636  14.508
95908W        W55653   0.339   7.295   4.258
95909W        W55654   7.807  37.405  10.612
95910W        W55655  41.325  28.526   3.211
95911W        W55656   2.294  38.036  13.362
95912W        W55657  36.860  20.668   2.179
95913W        W55658  36.577  43.401   0.265
95914W        W55659   1.870   9.288   0.362
95915W        W55660  15.732  17.607  13.946
95916W        W55661  44.267  10.671  11.479
95917W        W55662  31.595   1.424  11.580
95918W        W55663  17.782  38.873   3.758
95919W        W55664  30.489   9.653  12.416
95920W        W55665  35.990  41.479  14.020
95921W        W55666  44.822   2.821   3.822
95922W        W55667   3.319  10.640  12.548
95923W        W55668  32.509   2.403   2.856
95924W        W55669  44.422   9.263   2.862
95925W        W55670   0.297   9.284   3.304
95926W        W55671  14.674   6.722  12.833
95927W        W55672   2.772  18.661  13.020
95928W        W55673  37.049  21.228  11.454
95929W        W55674  39.823  43.321  11.931
95930W        W55675  14.693   5.857   4.119
95931W        W55676  33.070  23.639  12.567
95932W        W55677   3.855  22.020   1.442
95933W        W55678   1.893   8.733  12.947
95934W        W55679  43.479  43.855  13.062
95935W        W55680   6.380  33.563   2.335
95936W        W55681  34.510  16.673  12.883
95937W        W55682  21.695  24.123  10.533
95938W        W55683  24.131  36.021  12.513
95939W        W55684   8.865  20.530   2.823
95940W        W55685  15.131   7.794  13.460
95941W        W55686  13.637  40.832   3.629
95942W        W55687   1.259  33.953  14.940
95943W        W55688  18.685   9.867   1.832
95944W        W55689  38.936  23.722  11.860
95945W        W55690  21.081  36.999   4.193
95946W        W55691   0.834  10.870   3.795
95947W        W55692  31.465  13.715  13.509
95948W        W55693  24.546  23.669  14.426
95949W        W55694  38.484   8.271   2.848
95950W        W55695  24.592  39.037  10.638
95951W        W55696   0.279  24.607  11.097
95952W        W55697  33.537  39.972  10.897
95953W        W55698  34.008   3.278  11.983
95954W        W55699  24.684  34.085  14.816
95955W        W55700  17.135  36.090   0.839
95956W        W55701  24.712  42.427  10.915
95957W        W55702  41.846   7.297   1.931
95958W        W55703  30.467  16.684  10.959
95959W        W55704  43.457  29.070  12.387
95960W        W55705  39.021  17.266   1.893
95961W        W55706  10.789  38.548  13.807
95962W        W55707  31.623   1.405  13.530
95963W        W55708  34.443  25.506   3.154
95964W        W55709   6.296  26.160  13.808
95965W        W55710  33.515   6.386   3.793
95966W        W55711  17.697  33.012   0.462
95967W        W55712  43.476  11.657   2.183
95968W        W55713   4.824  18.554  14.909
95969W        W55714  11.733  28.440   3.694
95970W        W55715  13.829  42.517  10.588
95971W        W55716  33.117  32.956   2.688
95972W        W55717  31.918  31.634   2.835
95973W        W55718  35.955  20.601  13.948
95974W        W55719   2.820  30.059   9.956
95975W        W55720  21.584  35.047   1.239
95976W        W55721  42.335  25.075  11.107
95977W        W55722  44.950  41.529  12.342
95978W        W55723  36.083  17.138   3.273
95979W        W55724  18.645   3.365   3.844
95980W        W55725  28.979  17.142  10.949
95981W        W55726  27.672  39.920   0.434
95982W        W55727  28.496  21.101  13.958
95983W        W55728   4.263  41.322   2.808
95984W        W55729  34.571  18.095  10.563
95985W        W55730  31.065  27.178   0.869
95986W        W55731  23.661  19.698  13.518
95987W        W55732   9.173  23.594  12.520
95988W        W55733  12.694   6.798  13.427
95989W        W55734  11.812   2.229   4.131
95990W        W55735  31.590  42.390  11.941
95991W        W55736  44.804   9.362  11.611
95992W        W55737  18.552  24.165  12.996
95993W        W55738   2.364  14.809   1.437
95994W        W55739   6.365  12.324   1.413
95995W        W55740  38.053  19.535   1.346
95996W        W55741  42.455  20.141  13.421
95997W        W55742  10.768  41.469  12.863
95998W        W55743  22.104  15.688  14.387
95999W        W55744  39.036  22.667   1.698
96000W        W55745  21.703  21.030  11.881
96001W        W55746  18.580  13.759   0.761
96002W        W55747  31.140  39.377   0.932
96003W        W55748  39.045  35.093   0.864
96004W        W55749  39.985  44.998   3.675
96005W        W55750  33.463  10.281  12.560
96006W        W55751  44.436  31.050  11.461
96007W        W55752  20.577  28.095  12.034
96008W        W55753  44.762   7.804   2.817
96009W        W55754  24.177   2.442  12.575
96010W        W55755  32.967  37.902  12.977
96011W        W55756  17.771  42.956  10.966
96012W        W55757  15.761   9.340   1.717
96013W        W55758  25.150  24.551   3.167
96014W        W55759   1.289  40.435  14.927
96015W        W55760  39.447  22.170  11.600
96016W        W55761   2.439   4.766   3.364
96017W        W55762  26.649   3.394  14.002
96018W        W55763   8.891  26.008   0.734
96019W        W55764  43.807   5.879  10.924
96020W        W55765   8.667  33.959   3.659
96021W        W55766  38.038   4.904  13.890
96022W        W55767   4.923  15.119  11.605
96023W        W55768  23.033  25.008   0.466
96024W        W55769  15.321  18.084  13.320
96025W        W55770  17.642  17.586  12.940
96026W        W55771  17.102  13.628   4.338
96027W        W55772  21.093  11.797   0.762
96028W        W55773   9.668  16.250   1.895
96029W        W55774   3.394  13.809   4.248
96030W        W55775   2.379  13.811  12.880
96031W        W55776  25.989  24.683   3.660
96032W        W55777  29.967  31.896   5.280
96033W        W55778  15.257  28.072   1.232
96034W        W55779  44.827   5.242  11.570
96035W        W55780  15.248  32.630   4.306
96036W        W55781  12.823  42.288  10.960
96037W        W55782  15.209   6.188   3.722
96038W        W55783  29.052  35.446   4.665
96039W        W55784  37.859  26.503   4.601
96040W        W55785  12.782  36.369  12.072
96041W        W55786   4.939  43.277   3.824
96042W        W55787  19.770   3.257   3.740
96043W        W55788  14.322   3.323   2.818
96044W        W55789  10.817  14.099  10.990
96045W        W55790  10.252   5.229   4.816
96046W        W55791  17.662  39.871   1.279
96047W        W55792  43.392   6.893  13.483
96048W        W55793   2.935  16.737  10.890
96049W        W55794  40.838  22.640   3.633
96050W        W55795  42.476  38.961   4.290
96051W        W55796   7.726  36.495  12.515
96052W        W55797  19.055  34.072  12.885
96053W        W55798  34.042  16.616   0.911
96054W        W55799  13.620  28.068   3.847
96055W        W55800   6.246  37.412  12.487
96056W        W55801  44.765  32.995   2.755
96057W        W55802  13.652   0.811  11.473
96058W        W55803  11.322  17.599   1.904
96059W        W55804   1.872   4.731  12.929
96060W        W55805  12.165  36.424  10.965
96061W        W55806  36.447  27.633  13.053
96062W        W55807  43.387  12.297   4.349
96063W        W55808  17.662  43.332   4.759
96064W        W55809  21.210   8.381   4.803
96065W        W55810  21.649  10.243   3.644
96066W        W55811  19.698  19.247  12.053
96067W        W55812  42.875  10.194   3.694
96068W        W55813  17.136  33.533   0.841
96069W        W55814  37.919  16.281  14.896
96070W        W55815  19.763  37.948  11.877
96071W        W55816  22.108  44.480   3.383
96072W        W55817  38.380  10.693   2.679
96073W        W55818  32.962  12.216   1.746
96074W        W55819   4.358  28.607   4.335
96075W        W55820  21.190  22.228   4.790
96076W        W55821   2.464  44.375   4.131
96077W        W55822  25.070   2.734  13.021
96078W        W55823  26.663  10.731  10.911
96079W        W55824   9.249  12.343  13.828
96080W        W55825   1.809  39.384   4.286
96081W        W55826  38.460  39.046   3.278
96082W        W55827  25.591  24.609   0.955
96083W        W55828   7.314  25.057  11.991
96084W        W55829  42.831  23.076  12.571
96085W        W55830  26.977  19.648  14.859
96086W        W55831  37.931  18.277  14.322
96087W        W55832   8.660  19.185   4.668
96088W        W55833  14.627   8.713  12.851
96089W        W55834  18.203   4.740   1.748
96090W        W55835  18.093   1.835   4.267
96091W        W55836  39.337  23.643  11.094
96092W        W55837  38.048  40.487   3.631
96093W        W55838  32.540  29.109   1.440
96094W        W55839  10.649  11.184   2.220
96095W        W55840  40.304  10.790   4.692
96096W        W55841  30.076  36.992  11.372
96097W        W55842  17.722   7.738   1.317
96098W        W55843  35.513  11.245  12.413
96099W        W55844  37.947  35.023   4.830
96100W        W55845  34.895  34.052  12.002
96101W        W55846  26.016  11.302   1.303
96102W        W55847  16.748   8.315   4.772
96103W        W55848  42.782   1.383  14.396
96104W        W55849   8.686  27.141   0.848
96105W        W55850  27.162   3.749   1.928
96106W        W55851  43.847  40.975  14.851
96107W        W55852  22.575  31.502  14.299
96108W        W55853  10.719  13.773   1.248
96109W        W55854  25.505  26.164  10.608
96110W        W55855  21.145  14.113  14.293
96111W        W55856  37.870  23.175   1.842
96112W        W55857  41.302  43.320   0.270
96113W        W55858  16.276  30.461   0.264
96114W        W55859   1.297  10.659  11.409
96115W        W55860  38.020  16.716  11.564
96116W        W55861   8.732  15.256  11.516
96117W        W55862   6.871  23.638  14.396
96118W        W55863   9.814  27.507  13.959
96119W        W55864   9.812   8.871   4.786
96120W        W55865  19.085   7.299   4.220
96121W        W55866  17.746   7.671   2.871
96122W        W55867  12.137  31.427   2.773
96123W        W55868   4.349  12.139   3.819
96124W        W55869  16.589  41.377  10.574
96125W        W55870  34.524   9.392   4.141
96126W        W55871  27.999  12.203  12.407
96127W        W55872   8.163  33.483  13.339
96128W        W55873  26.668  40.526  11.928
96129W        W55874  25.176  31.471  14.282
96130W        W55875  15.214  28.071  11.957
96131W        W55876  11.667  29.626   5.107
96132W        W55877  44.388  30.474  13.454
96133W        W55878  44.282  21.590   4.755
96134W        W55879   1.905  22.528  11.978
96135W        W55880  14.295  40.322  11.090
96136W        W55881  16.074  21.532   4.177
96137W        W55882  28.994  43.948   2.356
96138W        W55883   8.724  18.591  14.473
96139W        W55884  30.559   0.880   4.342
96140W        W55885  29.990   3.789   1.840
96141W        W55886  43.281   2.471  13.980
96142W        W55887  14.725   1.409  12.450
96143W        W55888  16.727  21.125   0.404
96144W        W55889  17.691  10.864   0.921
96145W        W55890  36.053  14.619   2.310
96146W        W55891  23.225  42.292   1.780
96147W        W55892  41.028   0.839  12.993
96148W        W55893  38.510  29.996  11.536
96149W        W55894  32.475  25.705   2.316
96150W        W55895  37.046  39.558  13.362
96151W        W55896  21.747  26.075  13.395
96152W        W55897  12.310  28.674   4.822
96153W        W55898  25.023  44.823   2.834
96154W        W55899  17.681   6.725   2.351
96155W        W55900  39.910   8.754  11.987
96156W        W55901  37.016   7.851  14.387
96157W        W55902   8.713  29.127  11.960
96158W        W55903   8.811   5.392   0.925
96159W        W55904  32.415  39.812   0.426
96160W        W55905   1.262  36.593   4.198
96161W        W55906  41.513  18.164   3.183
96162W        W55907   4.389  15.089  11.914
96163W        W55908  26.957  31.402  13.944
96164W        W55909   4.227  13.720   3.675
96165W        W55910  15.714  10.656   1.276
96166W        W55911  17.091   8.187   0.420
96167W        W55912  15.185  18.703  12.383
96168W        W55913  26.996  29.437   4.245
96169W        W55914  17.140  17.725  11.505
96170W        W55915  14.336  15.662  10.410
96171W        W55916  25.546  35.087  12.347
96172W        W55917  33.574  43.983  10.551
96173W        W55918   6.331  31.937  10.923
96174W        W55919  33.985  12.279  10.453
96175W        W55920  10.313  28.123  11.026
96176W        W55921  29.549   6.903   2.669
96177W        W55922  33.426  24.548   3.219
96178W        W55923  31.898  37.984   4.637
96179W        W55924  36.995   5.853   2.230
96180W        W55925  32.538  11.689   4.692
96181W        W55926  39.903  39.407  14.016
96182W        W55927   2.404  19.731  11.468
96183W        W55928  11.731  18.080   2.692
96184W        W55929  18.545  37.068  13.461
96185W        W55930  20.683  28.132  10.585
96186W        W55931   4.856  25.023   0.340
96187W        W55932   1.283   6.248   0.733
96188W        W55933  10.778   0.820  13.463
96189W        W55934   3.357   5.900  14.457
96190W        W55935   0.307  22.723   4.312
96191W        W55936  31.406  24.557  12.502
96192W        W55937  29.138  44.491  13.332
96193W        W55938  25.214  38.023   0.299
96194W        W55939   7.351  39.891  13.917
96195W        W55940  41.523  36.059  10.621
96196W        W55941  13.815  33.966  14.303
96197W        W55942  28.035  40.858   0.273
96198W        W55943  17.070  36.462  12.570
96199W        W55944  23.555  28.043  14.942
96200W        W55945   4.847  37.580  13.029
96201W        W55946  44.835  21.688  13.850
96202W        W55947  21.535  27.113   3.183
96203W        W55948  26.141  40.489  13.966
96204W        W55949   4.224  19.757  10.533
96205W        W55950  20.672  37.904  12.558
96206W        W55951  29.561  15.310   4.163
96207W        W55952  26.992  22.537   3.176
96208W        W55953   0.306  40.514   2.666
96209W        W55954  29.592  22.171  14.850
96210W        W55955  26.070  22.568   1.909
96211W        W55956  16.076  10.236  13.487
96212W        W55957   5.362  19.648   1.445
96213W        W55958   8.798   7.232   4.218
96214W        W55959  27.002  38.562  13.396
96215W        W55960   8.853  13.122   1.842
96216W        W55961  32.450  39.344   0.851
96217W        W55962  23.182  21.598   1.792
96218W        W55963  15.785  31.407   3.788
96219W        W55964   7.353  17.626   0.245
96220W        W55965   6.735  31.929  12.423
96221W        W55966  21.243  44.938  11.458
96222W        W55967  22.612  19.077   4.681
96223W        W55968  26.575  13.265  11.395
96224W        W55969  13.659  28.582  12.909
96225W        W55970  32.401  21.094  13.827
96226W        W55971   9.670   8.692   2.386
96227W        W55972   9.258  42.323  14.849
96228W        W55973   5.415  39.958  13.945
96229W        W55974   0.872   0.756  13.527
96230W        W55975  44.921   4.871  13.886
96231W        W55976  40.951  30.051   3.338
96232W        W55977  44.265  33.924  12.083
96233W        W55978  43.393  22.043  13.544
96234W        W55979  11.153  40.966  11.023
96235W        W55980   9.316  43.341   4.305
96236W        W55981  39.549   4.357   2.788
96237W        W55982  32.981  43.460   4.640
96238W        W55983  12.612  13.734   3.729
96239W        W55984   7.381  25.598   4.308
96240W        W55985  41.529  30.463  12.973
96241W        W55986   3.377  28.627   3.676
96242W        W55987   2.762  44.429  12.020
96243W        W55988  17.105  30.124   3.737
96244W        W55989  12.813   4.841   1.769
96245W        W55990  36.086  32.011  14.476
96246W        W55991  25.702  12.291  12.559
96247W        W55992   5.729  42.817  13.924
96248W        W55993  28.572  18.130   1.822
96249W        W55994  18.082  25.658   4.636
96250W        W55995  41.873  43.016   9.941
96251W        W55996   8.677  44.872   2.723
96252W        W55997  29.928   9.664  13.937
96253W        W55998  23.585   6.854   1.931
96254W        W55999  38.873  38.427   0.879
96255W        W56000  21.589   3.250   5.634
96256W        W56001   7.801  33.553   3.838
96257W        W56002   2.331  12.720  10.116
96258W        W56003  12.240   0.475  12.933
96259W        W56004  20.029  16.103   5.173
96260W        W56005  19.081  33.416   0.927
96261W        W56006   6.706  14.645   4.169
96262W        W56007  32.433  39.011  13.489
96263W        W56008  40.463  31.410   0.340
96264W        W56009  11.167  27.528   3.363
96265W        W56010  42.995  24.091  10.434
96266W        W56011  16.634  42.030   1.891
96267W        W56012  20.062  43.817  12.063
96268W        W56013  25.558  29.100  11.990
96269W        W56014  10.831  12.687   4.775
96270W        W56015  39.892  32.902  14.423
96271W        W56016  29.625  35.592   4.633
96272W        W56017  17.194  19.271  12.488
96273W        W56018  22.030   8.779  14.425
96274W        W56019  26.620  18.081   3.372
96275W        W56020  28.547  44.413  11.991
96276W        W56021  18.621   6.317  10.044
96277W        W56022   5.791   4.938  12.518
96278W        W56023  29.581   5.895   4.258
96279W        W56024  39.032  29.514   0.921
96280W        W56025  40.330  30.146   2.874
96281W        W56026  13.607   1.908  14.376
96282W        W56027  44.858  22.068  13.470
96283W        W56028  28.126  19.046  11.519
96284W        W56029  29.967  43.328   1.227
96285W        W56030  29.099  19.215  14.341
96286W        W56031  30.049  40.530   3.146
96287W        W56032   8.671  37.492   1.780
96288W        W56033  22.612  17.162   1.385
96289W        W56034  12.840  38.515   3.658
96290W        W56035  29.006   8.237   2.661
96291W        W56036   3.803  32.515  11.912
96292W        W56037  40.822  36.929   3.382
96293W        W56038  38.370  38.368  12.430
96294W        W56039  23.540  38.332   2.318
96295W        W56040  19.225  27.959   4.788
96296W        W56041  23.135  24.030   3.287
96297W        W56042  40.307  17.096   3.268
96298W        W56043  40.008  23.499  11.466
96299W        W56044   1.314  29.658   0.443
96300W        W56045  11.169  27.537  13.547
96301W        W56046  26.114  42.338   3.257
96302W        W56047   8.215   7.777   1.707
96303W        W56048  36.958  33.476  10.435
96304W        W56049  23.221  17.654   2.294
96305W        W56050  43.451  16.597   2.715
96306W        W56051  38.826  22.508   0.357
96307W        W56052  43.403   6.862   2.816
96308W        W56053  23.700  12.805   2.418
96309W        W56054  40.428  14.660  11.595
96310W        W56055  10.707  20.129  11.981
96311W        W56056  27.633   9.154   2.416
96312W        W56057  44.977   9.670   2.713
96313W        W56058  35.054  23.137   1.440
96314W        W56059  16.309  32.946  11.877
96315W        W56060  14.226  19.232  11.908
96316W        W56061  10.719  20.250  14.449
96317W        W56062  32.429   1.343   2.785
96318W        W56063  35.377  22.106  11.462
96319W        W56064  36.409  31.550   4.304
96320W        W56065  21.722  14.212   3.778
96321W        W56066  37.505  42.494  12.854
96322W        W56067  30.633   8.791  10.552
96323W        W56068  27.028  10.259   0.791
96324W        W56069   5.723   1.394  11.398
96325W        W56070   6.873  42.454  11.961
96326W        W56071  15.587   0.807   2.253
96327W        W56072  44.504  38.496   2.744
96328W        W56073  10.671   6.316   1.724
96329W        W56074  29.614  24.592  11.947
96330W        W56075  27.099   9.275   0.388
96331W        W56076  26.004   2.831   1.815
96332W        W56077   9.659   6.288  10.435
96333W        W56078   0.867  15.618  11.068
96334W        W56079  37.493  35.378  12.346
96335W        W56080   1.791  14.225   3.328
96336W        W56081  26.635  27.019  14.339
96337W        W56082  32.590  33.977   0.883
96338W        W56083  24.685  40.338  13.835
96339W        W56084  25.500  34.505  12.091
96340W        W56085  19.188   4.217  13.942
96341W        W56086   6.425   0.959   3.847
96342W        W56087  44.938  17.741  12.843
96343W        W56088  23.122  27.943   4.661
96344W        W56089  18.297   6.903   4.214
96345W        W56090  12.176  15.730  12.388
96346W        W56091   2.255   7.808  11.563
96347W        W56092   7.267   4.876   1.816
96348W        W56093  18.285  44.405   0.382
96349W        W56094  30.535  17.792   3.700
96350W        W56095   1.266   2.314  11.538
96351W        W56096  34.894  14.687   4.256
96352W        W56097   5.882  22.117  13.352
96353W        W56098  14.723   4.773   9.987
96354W        W56099  31.578  43.431  11.911
96355W        W56100  10.315  28.951   4.826
96356W        W56101   2.765  21.521  13.307
96357W        W56102  44.853  35.872   0.925
96358W        W56103  20.081   5.759   4.617
96359W        W56104  30.568  31.153   1.751
96360W        W56105  14.699  43.334  11.079
96361W        W56106  24.081   6.227   1.826
96362W        W56107  12.129  21.180   0.954
96363W        W56108  38.436  41.862   1.402
96364W        W56109  35.358  12.810  11.121
96365W        W56110  24.006   9.747   0.866
96366W        W56111   1.871  34.978   0.270
96367W        W56112  30.473  10.350   4.207
96368W        W56113  33.915  29.664   2.808
96369W        W56114  21.609  40.889   3.336
96370W        W56115  26.087  13.244  13.536
96371W        W56116  19.701  39.961  13.826
96372W        W56117  12.651   5.792   0.380
96373W        W56118  16.284   4.224  13.503
96374W        W56119  25.660  30.913   4.211
96375W        W56120  10.768  20.601   0.480
96376W        W56121  26.196  20.550  14.806
96377W        W56122  25.108   7.691   1.333
96378W        W56123  37.416  29.159   1.877
96379W        W56124  23.650  40.019  12.085
96380W        W56125   8.331   5.360  14.921
96381W        W56126  29.941  13.757  11.513
96382W        W56127  38.507   5.739  10.468
96383W        W56128  34.943  15.302   1.451
96384W        W56129  30.933  16.588   2.708
96385W        W56130  29.546  27.679  14.404
96386W        W56131  27.660  11.799  11.428
96387W        W56132  10.175  23.037  13.981
96388W        W56133  31.466   0.371  14.820
96389W        W56134  28.544  39.554   2.839
96390W        W56135  31.901  12.839   3.370
96391W        W56136  21.701   5.882   4.642
96392W        W56137  17.561  28.050  10.949
96393W        W56138  40.530  18.625   1.426
96394W        W56139  15.750  31.015   4.729
96395W        W56140  17.072  38.561   0.775
96396W        W56141  33.550  14.103  14.355
96397W        W56142  35.594  39.518   3.694
96398W        W56143  25.642  24.660  11.115
96399W        W56144  19.754  29.056  10.928
96400W        W56145  20.641   7.880   0.419
96401W        W56146  33.129  33.031   2.411
96402W        W56147  32.892  38.347   4.298
96403W        W56148   5.421  35.978  13.885
96404W        W56149  18.224   0.386   4.341
96405W        W56150  14.678  37.554  14.505
96406W        W56151  37.083   5.852  14.474
96407W        W56152  34.402  35.996   2.285
96408W        W56153  19.048  24.721   4.655
96409W        W56154  31.013  28.680  14.947
96410W        W56155  41.317  28.005  10.552
96411W        W56156  33.882   8.316  14.477
96412W        W56157  44.881  19.270   3.170
96413W        W56158  24.054   6.272   3.760
96414W        W56159  23.501  23.687  12.899
96415W        W56160  39.828   0.253  12.035
96416W        W56161  20.255  41.329   4.262
96417W        W56162  16.259  12.708  13.463
96418W        W56163  37.413  38.946  11.443
96419W        W56164   5.312  28.612   4.728
96420W        W56165  23.544  23.122   2.339
96421W        W56166   0.431  31.625   1.835
96422W        W56167  30.098  31.484   2.802
96423W        W56168  33.020  38.326  10.429
96424W        W56169  24.548   0.805   2.259
96425W        W56170  37.528  42.031  13.437
96426W        W56171  13.604  40.811  12.474
96427W        W56172  29.939  17.568   3.644
96428W        W56173  41.500  25.081  13.525
96429W        W56174   1.408  24.026   1.327
96430W        W56175  35.101  14.667   0.945
96431W        W56176   4.705  16.648  14.964
96432W        W56177  18.586  42.961  11.005
96433W        W56178  42.787   8.354  14.504
96434W        W56179  37.516  15.673  11.061
96435W        W56180  13.312  16.217   4.348
96436W        W56181  24.068  22.034  12.853
96437W        W56182  11.674  33.059   1.801
96438W        W56183  11.814   3.784   1.861
96439W        W56184  20.608   2.882   2.849
96440W        W56185  12.122  32.954   1.300
96441W        W56186  11.837   0.865  10.888
96442W        W56187  29.104   6.758   1.401
96443W        W56188  41.802   8.249   0.764
96444W        W56189  39.536  14.299  13.920
96445W        W56190  22.171  15.264  14.907
96446W        W56191  28.450  41.443  13.492
96447W        W56192  39.847  23.021   0.891
96448W        W56193  13.180  37.839  10.910
96449W        W56194  22.508  18.204  14.282
96450W        W56195  31.074  19.217  14.369
96451W        W56196  36.395  21.058  12.988
96452W        W56197  44.260  36.958   0.849
96453W        W56198  13.173  39.922  14.778
96454W        W56199  27.566  33.461  13.408
96455W        W56200  39.064   4.776   0.473
96456W        W56201  13.140  13.172   4.624
96457W        W56202   9.246  19.268  10.940
96458W        W56203  18.101  44.841  13.015
96459W        W56204  30.498  21.624   3.198
96460W        W56205  23.495   9.756   4.151
96461W        W56206  23.505   5.932  11.010
96462W        W56207  14.180  10.362   1.840
96463W        W56208  29.987  18.614  10.413
96464W        W56209  36.971  40.826  14.910
96465W        W56210  44.787  18.292  11.537
96466W        W56211  18.057  33.902   2.895
96467W        W56212  10.802  30.956  10.907
96468W        W56213  44.341  13.683  12.379
96469W        W56214  38.448  43.767   2.315
96470W        W56215   7.732  37.013  14.775
96471W        W56216  42.436  25.483  10.585
96472W        W56217  10.374  11.789  13.451
96473W        W56218  25.119   1.423  13.026
96474W        W56219  11.349   1.786  14.990
96475W        W56220  34.566  32.616  12.915
96476W        W56221   7.825  28.542  14.361
96477W        W56222   3.736   5.331  14.506
96478W        W56223  35.969  40.914   4.612
96479W        W56224  11.312  44.276   0.887
96480W        W56225  44.280  26.672   5.269
96481W        W56226  35.862  43.334  10.460
96482W        W56227  43.435  21.614   1.838
96483W        W56228  23.217   5.732   3.250
96484W        W56229  39.370  36.427   4.758
96485W        W56230  17.672  13.606   2.348
96486W        W56231  13.837  15.138  12.868
96487W        W56232  33.929   1.791  13.805
96488W        W56233  12.794   3.377   1.394
96489W        W56234  10.795   8.161   3.319
96490W        W56235  32.097  39.881  12.873
96491W        W56236  22.639   1.972  14.516
96492W        W56237  25.190  11.646  11.958
96493W        W56238  43.935   9.803  10.539
96494W        W56239  19.573  41.890   1.785
96495W        W56240  20.185  39.932   0.360
96496W        W56241  19.556  19.679  14.812
96497W        W56242  37.572  38.964  11.971
96498W        W56243   2.313  22.006   2.786
96499W        W56244  16.583  44.271   3.651
96500W        W56245  38.966  37.526  13.309
96501W        W56246  37.355  40.443  11.408
96502W        W56247  32.117  22.210   1.399
96503W        W56248  24.212  17.102  13.840
96504W        W56249  36.433  25.197   9.972
96505W        W56250  38.060   1.888   4.315
96506W        W56251   2.343  25.554   0.436
96507W        W56252  42.302  14.216  10.454
96508W        W56253  23.176  24.216   1.235
96509W        W56254  42.465  37.571  14.899
96510W        W56255  15.581  33.067  12.874
96511W        W56256  36.379  40.930  12.082
96512W        W56257   9.731  35.540   4.135
96513W        W56258  33.426  31.931   4.333
96514W        W56259  10.753   6.916  13.862
96515W        W56260   7.379   3.736  12.510
96516W        W56261  33.893  31.024   2.878
96517W        W56262  34.103   7.180  10.912
96518W        W56263  33.509  19.722  11.034
96519W        W56264   5.320  29.467  14.438
96520W        W56265   4.827  36.010  12.965
96521W        W56266  44.350  31.090   0.759
96522W        W56267   9.842  41.316  12.894
96523W        W56268  17.574  24.152   1.826
96524W        W56269  22.127  41.366   1.319
96525W        W56270  37.839  40.912  10.605
96526W        W56271  20.766  13.738   4.319
96527W        W56272  31.127  41.864  11.534
96528W        W56273  32.468  19.246   1.226
96529W        W56274  22.238  41.920   0.367
96530W        W56275  30.083  38.329   0.323
96531W        W56276  36.564  30.630  13.979
96532W        W56277  33.020  32.051  11.048
96533W        W56278  11.669   2.339  11.004
96534W        W56279  33.004  21.582   4.239
96535W        W56280  13.621  17.204   1.880
96536W        W56281  11.360  23.711   3.645
96537W        W56282  29.646  13.743  11.008
96538W        W56283  27.691  24.128   4.818
96539W        W56284  33.609   7.722  11.600
96540W        W56285  34.080  37.494   1.246
96541W        W56286   7.717   2.847   1.395
96542W        W56287  28.124  21.573  11.569
96543W        W56288   7.696  31.457   0.278
96544W        W56289  28.057  40.970  14.351
96545W        W56290  41.978   5.357  14.494
96546W        W56291  27.075  26.610  11.864
96547W        W56292  42.413   9.384  13.899
96548W        W56293  37.856  31.624  13.044
96549W        W56294  29.650  26.482  14.370
96550W        W56295   1.853  17.063  11.053
96551W        W56296  35.926  14.644  14.891
96552W        W56297  15.599  39.511   0.960
96553W        W56298  15.750  13.198  10.637
96554W        W56299   9.347   0.988  14.278
96555W        W56300  25.705  16.277   3.306
96556W        W56301   9.670   5.424   4.707
96557W        W56302   3.947  13.249  14.404
96558W        W56303  44.935  44.814  13.884
96559W        W56304  35.079  37.043   0.810
96560W        W56305   8.331  25.706   0.265
96561W        W56306  31.476  27.590   1.704
96562W        W56307  16.716  24.204  13.022
96563W        W56308   6.763  42.986   3.650
96564W        W56309  10.762   5.305  12.393
96565W        W56310  33.942   9.340   1.272
96566W        W56311  13.827  19.140  13.957
96567W        W56312  28.464  17.757   4.822
96568W        W56313  10.699   2.386  13.046
96569W        W56314  27.503  26.000   4.787
96570W        W56315   1.757  18.182  12.935
96571W        W56316  21.135  34.093  12.361
96572W        W56317   8.712  17.184  11.454
96573W        W56318  38.373   0.816   2.795
96574W        W56319  25.484  40.857   4.211
96575W        W56320  10.321  11.770  10.438
96576W        W56321  28.150  32.442  13.006
96577W        W56322  21.030  30.102   0.769
96578W        W56323  22.736  16.763   3.758
96579W        W56324  33.054   4.220   2.322
96580W        W56325  31.437  28.481  13.980
96581W        W56326  24.224  22.588   3.798
96582W        W56327  43.988  27.614   3.352
96583W        W56328   6.790  12.333  12.468
96584W        W56329  29.138  18.715  14.892
96585W        W56330   3.773  30.471   4.714
96586W        W56331  15.613  40.497  12.475
96587W        W56332  21.528  22.021  10.545
96588W        W56333   0.770   4.352  13.372
96589W        W56334   8.843  32.399  14.957
96590W        W56335  42.523   6.700   1.861
96591W        W56336  33.424  34.864   0.787
96592W        W56337  44.407  36.542  11.096
96593W        W56338  11.776  27.063   2.227
96594W        W56339  16.223   9.352  12.853
96595W        W56340  38.355  39.364  13.399
96596W        W56341   9.661  38.931  12.352
96597W        W56342   2.325  35.900  11.612
96598W        W56343  35.861  11.245  10.933
96599W        W56344   2.432  29.085   0.873
96600W        W56345  38.938  11.851  10.578
96601W        W56346  15.084  38.972   2.378
96602W        W56347   1.817  33.449   4.254
96603W        W56348   2.886   0.472   2.798
96604W        W56349  14.753  35.461  12.401
96605W        W56350  11.318  32.986  10.951
96606W        W56351  33.036  28.549  13.341
96607W        W56352  37.951  14.203  13.000
96608W        W56353  37.444  27.533   1.713
96609W        W56354  28.142  27.005   0.461
96610W        W56355   7.886   8.356   4.820
96611W        W56356  36.553   8.797  14.368
96612W        W56357  22.050  44.505   2.213
96613W        W56358  19.175   7.221   3.293
96614W        W56359   6.367  41.951  12.957
96615W        W56360   9.260  20.041  11.973
96616W        W56361  27.011  17.771  11.458
96617W        W56362  32.132  10.679   4.763
96618W        W56363  12.628   7.879   1.885
96619W        W56364  17.078  20.257   4.620
96620W        W56365  11.361   3.434   0.346
96621W        W56366  40.889  16.634   3.745
96622W        W56367  39.422  15.812  10.518
96623W        W56368  41.807   3.726   2.746
96624W        W56369  28.511  21.239   4.679
96625W        W56370  34.407  41.944  13.845
96626W        W56371  28.665  13.222   4.610
96627W        W56372  11.208  35.601   9.584
96628W        W56373  17.285  21.724   0.418
96629W        W56374  10.242   2.910   4.798
96630W        W56375  19.656  43.019   3.780
96631W        W56376  22.616   4.795   1.767
96632W        W56377   4.258  27.132  11.900
96633W        W56378   9.389  35.966  11.948
96634W        W56379  14.730  16.283   4.325
96635W        W56380   1.290  35.026   3.635
96636W        W56381  32.921  31.148   3.735
96637W        W56382  17.132  16.735  14.402
96638W        W56383  27.941  41.793  11.924
96639W        W56384  13.790  25.551   3.368
96640W        W56385  34.478  39.058   0.742
96641W        W56386   1.840  11.187   0.805
96642W        W56387   8.663  28.531   4.341
96643W        W56388  17.707   9.687  12.028
96644W        W56389  30.981  44.787   1.931
96645W        W56390   7.179  40.510   4.308
96646W        W56391  16.786  23.733  12.057
96647W        W56392  21.666   3.752  10.914
96648W        W56393  33.966  11.711   4.660
96649W        W56394  29.021  34.965   3.667
96650W        W56395   8.791  12.819   3.868
96651W        W56396  34.594  28.097  11.596
96652W        W56397   2.833  34.524   2.881
96653W        W56398   8.244  38.390   3.362
96654W        W56399  20.136  31.005   1.900
96655W        W56400  16.181  31.607   2.709
96656W        W56401  33.041   5.872   1.405
96657W        W56402  40.812  38.440  14.789
96658W        W56403  10.655  12.238  10.437
96659W        W56404   7.236  25.522   2.722
96660W        W56405  31.075   6.387   1.319
96661W        W56406  40.969  22.046  11.001
96662W        W56407  25.157  27.522   3.728
96663W        W56408  22.622  29.037   0.406
96664W        W56409  31.075  39.876  10.504
96665W        W56410  42.442  18.296   2.692
96666W        W56411  16.124  28.637  12.871
96667W        W56412  11.156  31.008  13.392
96668W        W56413  42.815  28.573   4.601
96669W        W56414   3.460  43.857  12.008
96670W        W56415  36.098   8.698   2.837
96671W        W56416   5.848  29.517  12.870
96672W        W56417  25.581  37.016  10.898
96673W        W56418  28.660   9.153  11.476
96674W        W56419  41.823  38.544  12.833
96675W        W56420   2.432   9.393   0.893
96676W        W56421  26.167  26.178   2.393
96677W        W56422  11.273  28.637   3.248
96678W        W56423   1.291  16.791   1.762
96679W        W56424  18.673  11.295  14.993
96680W        W56425  26.025  35.903   3.630
96681W        W56426  34.028  43.954   3.758
96682W        W56427  16.692  44.308   1.704
96683W        W56428   6.837  38.530   1.315
96684W        W56429  39.534  29.124  11.110
96685W        W56430  25.713  15.669  12.968
96686W        W56431  12.632  29.172   2.793
96687W        W56432   3.947  17.117   0.829
96688W        W56433  24.615  21.160  13.988
96689W        W56434   6.312  11.152   1.332
96690W        W56435  43.901  44.789  13.372
96691W        W56436  42.023  11.755   0.370
96692W        W56437  39.461   3.336  13.534
96693W        W56438  18.665  28.079   3.841
96694W        W56439  24.696  12.744   3.688
96695W        W56440   8.210  41.305   1.338
96696W        W56441  39.335   4.922  14.346
96697W        W56442  19.060  32.401  13.972
96698W        W56443  32.471  11.284  14.286
96699W        W56444  41.928   2.762   1.777
96700W        W56445  18.717   1.324  11.512
96701W        W56446  43.956   0.465   0.423
96702W        W56447  20.178  38.836  12.361
96703W        W56448  21.212  25.656  12.077
96704W        W56449   2.241  36.377  12.508
96705W        W56450   6.279  27.141   0.280
96706W        W56451  27.484  25.695   1.326
96707W        W56452   8.854  38.891  13.925
96708W        W56453  13.608  37.446   3.701
96709W        W56454  36.090  12.294   4.622
96710W        W56455  15.228   5.775  12.940
96711W        W56456  23.701  13.749   4.174
96712W        W56457  23.007  37.408  14.437
96713W        W56458  26.197  37.013   1.932
96714W        W56459  12.680  44.273  12.474
96715W        W56460  41.431   1.863  11.550
96716W        W56461  44.998  42.526   0.927
96717W        W56462  17.169   1.386  12.885
96718W        W56463   7.364  18.739  13.320
96719W        W56464  32.930   2.333  13.496
96720W        W56465  28.028  11.718  14.783
96721W        W56466  34.457  28.656  10.414
96722W        W56467  29.141  23.172   2.878
96723W        W56468   4.216  19.626  11.473
96724W        W56469  44.846  42.781   4.272
96725W        W56470   1.804  42.873  11.995
96726W        W56471  10.142  36.009  11.901
96727W        W56472  14.097   1.808  11.945
96728W        W56473  39.460  26.592   0.893
96729W        W56474   4.910  41.028  12.466
96730W        W56475   8.221  19.719   3.378
96731W        W56476  29.514  22.701  13.483
96732W        W56477  34.954  30.113  12.076
96733W        W56478  37.903  17.578   1.435
96734W        W56479  37.482  24.154   3.653
96735W        W56480  26.048  22.706   3.659
96736W        W56481  41.425  37.549  12.546
96737W        W56482  12.153  22.038   3.182
96738W        W56483  37.933   6.759   2.250
96739W        W56484   8.847   1.294   2.343
96740W        W56485   9.152  13.290  13.815
96741W        W56486  40.829   8.678   4.704
96742W        W56487  20.230  20.249  11.522
96743W        W56488  21.612  37.933   3.772
96744W        W56489  18.739  19.204  13.395
96745W        W56490  38.437  17.801  13.505
96746W        W56491   4.903  44.303   3.370
96747W        W56492  10.837  44.485  14.762
96748W        W56493  31.923   9.174   0.957
96749W        W56494  44.500  35.542  11.459
96750W        W56495  19.729  40.545   1.856
96751W        W56496  42.814  28.545   2.714
96752W        W56497  16.161   7.738  14.845
96753W        W56498  44.427  30.625   4.652
96754W        W56499   3.948  10.222   0.903
96755W        W56500  37.344  43.944   4.753
96756W        W56501  36.414  13.223  13.017
96757W        W56502  25.702  26.485   3.355
96758W        W56503  29.155   4.384  10.948
96759W        W56504  21.020  12.806  14.976
96760W        W56505   4.931   0.445  14.886
96761W        W56506  11.309  18.070  13.357
96762W        W56507  43.504  14.767  10.577
96763W        W56508   2.435  24.178  13.021
96764W        W56509   3.902  36.922   2.693
96765W        W56510  29.654  39.965  12.397
96766W        W56511   7.264  22.559   1.715
96767W        W56512  25.080  43.425  13.401
96768W        W56513   1.893  21.229   2.382
96769W        W56514  30.961  34.880   4.337
96770W        W56515  35.574  39.499   3.145
96771W        W56516  19.233  14.307  10.404
96772W        W56517  22.185  43.788  12.916
96773W        W56518  37.955   8.796  13.477
96774W        W56519  12.768  39.850  12.085
96775W        W56520  31.579  17.079  11.907
96776W        W56521  36.986   8.197   1.721
96777W        W56522  40.803  40.341  11.066
96778W        W56523   9.871  14.168   2.340
96779W        W56524  26.074  26.553  14.490
96780W        W56525  12.669  16.159   1.761
96781W        W56526   5.855  42.995   4.773
96782W        W56527  20.552  18.681   4.603
96783W        W56528  18.065  23.179  11.420
96784W        W56529  42.468   5.715   2.201
96785W        W56530   4.759  12.670   1.327
96786W        W56531  40.356  42.339   1.773
96787W        W56532   0.392  32.983  10.458
96788W        W56533  24.205   8.762   9.936
96789W        W56534  21.149  39.539  13.965
96790W        W56535  20.528   2.874  13.318
96791W        W56536  24.636   1.238   3.707
96792W        W56537  18.715  43.786   4.288
96793W        W56538  33.900   2.723   9.641
96794W        W56539  10.147  40.954  14.017
96795W        W56540  34.953  16.789  12.929
96796W        W56541  26.038  11.667   4.798
96797W        W56542  25.205  19.696   1.352
96798W        W56543  20.718  14.830  14.513
96799W        W56544   8.694  18.684  12.420
96800W        W56545  21.531  15.761  11.543
96801W        W56546  37.497   7.779   4.673
96802W        W56547  43.805  39.318   1.792
96803W        W56548  44.853  34.999  10.573
96804W        W56549  30.432  22.609  14.886
96805W        W56550  16.611  13.264  14.922
96806W        W56551  35.468  11.650   0.457
96807W        W56552  16.302  44.289   3.826
96808W        W56553   5.221  40.912  11.562
96809W        W56554  14.667  33.429  13.836
96810W        W56555  23.058   5.777   4.144
96811W        W56556  28.979   0.789  14.348
96812W        W56557  41.474  10.381  10.468
96813W        W56558  16.684  34.539  14.776
96814W        W56559  20.535  42.919  11.586
96815W        W56560  20.039  25.589   2.385
96816W        W56561   8.225  39.843  12.421
96817W        W56562  15.785   6.774  12.518
96818W        W56563  33.898  38.548   1.307
96819W        W56564  15.796  30.151   4.787
96820W        W56565  28.052  13.822  13.829
96821W        W56566  22.502  12.814  12.495
96822W        W56567  12.771  37.559  11.106
96823W        W56568  20.216  10.853  12.891
96824W        W56569  18.119  31.941  11.944
96825W        W56570  27.142  12.841   3.168
96826W        W56571  32.117  24.019   5.257
96827W        W56572  10.353  38.902  13.873
96828W        W56573   0.401  22.647  11.982
96829W        W56574   7.209   6.882  10.465
96830W        W56575   2.868  19.252  10.559
96831W        W56576   2.834  37.049  12.889
96832W        W56577  14.124   9.885   0.890
96833W        W56578  30.122  39.380  12.464
96834W        W56579  22.508  29.017  11.021
96835W        W56580   4.729  39.359   2.740
96836W        W56581  37.855  28.950  13.331
96837W        W56582  27.092  19.714  14.380
96838W        W56583  23.589  27.056   1.846
96839W        W56584  30.116  43.381  12.396
96840W        W56585   7.679  41.464   4.744
96841W        W56586   4.377   4.266   3.201
96842W        W56587  10.143   4.435   1.408
96843W        W56588  33.001  12.199   0.843
96844W        W56589  27.954  27.682  12.078
96845W        W56590   7.865  25.111  12.832
96846W        W56591  16.643  11.856   3.733
96847W        W56592  16.075  32.969  10.451
96848W        W56593  12.341  31.577  11.412
96849W        W56594   4.758   0.391  12.040
96850W        W56595   2.416  10.839  11.539
96851W        W56596   4.311  15.302  14.453
96852W        W56597  21.083  13.309   5.167
96853W        W56598  12.264   4.246   0.322
96854W        W56599  27.989   8.275   0.266
96855W        W56600  43.347  19.112   1.277
96856W        W56601  20.031   4.857  14.331
96857W        W56602  44.353   8.765  10.153
96858W        W56603  30.094  30.480   0.349
96859W        W56604  31.531  14.783  11.031
96860W        W56605  29.642  42.879  14.299
96861W        W56606  43.329  29.452  13.835
96862W        W56607   2.345   3.402   4.673
96863W        W56608  22.734  21.562   1.893
96864W        W56609  32.577  24.548  13.356
96865W        W56610   1.950  24.111   3.254
96866W        W56611  33.970  40.411   1.219
96867W        W56612  20.698   7.388   2.204
96868W        W56613   2.445  21.137  14.485
96869W        W56614   9.815  14.214   4.728
96870W        W56615  26.951  40.859  11.489
96871W        W56616  41.019  20.625   2.318
96872W        W56617  27.141  28.995  12.470
96873W        W56618  32.121  24.703  13.397
96874W        W56619  12.296  12.302  12.440
96875W        W56620  12.741  31.479  12.380
96876W        W56621  18.206  18.621   3.340
96877W        W56622  17.303  27.608   3.856
96878W        W56623   4.267  32.440  14.782
96879W        W56624   0.395  44.423  10.469
96880W        W56625  34.023  29.087  11.940
96881W        W56626  18.142  21.044  11.859
96882W        W56627   3.425  31.579  13.906
96883W        W56628  21.152  11.796  10.470
96884W        W56629  31.136  31.616  11.096
96885W        W56630  43.779  16.667   2.793
96886W        W56631  43.985   1.778   3.184
96887W        W56632  38.073  30.426  12.024
96888W        W56633  19.249  25.150   0.393
96889W        W56634  34.919  37.861   1.815
96890W        W56635  14.170  42.348  11.501
96891W        W56636  32.971  41.930  11.856
96892W        W56637  38.919  41.886  13.992
96893W        W56638  26.690  42.310   4.118
96894W        W56639  32.952   5.345   2.771
96895W        W56640   9.346   6.752   3.787
96896W        W56641  21.075  26.200  13.462
96897W        W56642   1.246  26.125  12.932
96898W        W56643   1.933   6.202  10.566
96899W        W56644   5.390  24.207  12.909
96900W        W56645   4.306  31.983   2.729
96901W        W56646  26.660  16.180  14.925
96902W        W56647  22.512  33.887   2.695
96903W        W56648  41.467  23.671  10.900
96904W        W56649   1.395  35.028  10.567
96905W        W56650  44.902  41.794  12.412
96906W        W56651  26.473  14.748   4.243
96907W        W56652  14.176  23.214   3.274
96908W        W56653   6.808   8.656  13.505
96909W        W56654   9.788  24.095  14.983
96910W        W56655  31.552  43.508  14.849
96911W        W56656   8.840  20.203  11.546
96912W        W56657  13.661   0.824  14.807
96913W        W56658  44.887  20.574   3.649
96914W        W56659   8.336  27.128   0.393
96915W        W56660   6.852  12.613  11.482
96916W        W56661   0.899  23.166  11.582
96917W        W56662  22.587  19.714  10.413
96918W        W56663  35.600   0.318  12.477
96919W        W56664  18.231   6.883   3.180
96920W        W56665  28.493  42.411   2.402
96921W        W56666   5.381  40.354  12.954
96922W        W56667  15.215  41.999   2.726
96923W        W56668   6.410  17.624   4.164
96924W        W56669  38.438  32.626  10.596
96925W        W56670  18.637  14.125  10.461
96926W        W56671  10.647  24.059   3.298
96927W        W56672  30.044  21.023  11.936
96928W        W56673  28.529  39.021   1.786
96929W        W56674  19.644  18.113   3.251
96930W        W56675  22.168  30.518  12.567
96931W        W56676  15.593  33.095   4.641
96932W        W56677  39.975   4.875  14.510
96933W        W56678  27.647  44.817  13.390
96934W        W56679  43.337  37.380   2.394
96935W        W56680   1.932  28.134  14.421
96936W        W56681  34.000  32.466   4.194
96937W        W56682  12.692   2.925  11.865
96938W        W56683  30.092  43.013   3.340
96939W        W56684  19.749  39.421   2.844
96940W        W56685   9.348  27.181  12.962
96941W        W56686  18.725  43.980  12.540
96942W        W56687  26.977  30.575  12.342
96943W        W56688  27.151  40.006   3.290
96944W        W56689  25.518  40.323   2.708
96945W        W56690   7.246  16.648   4.137
96946W        W56691  38.051  39.900  14.457
96947W        W56692   9.293  34.518   2.868
96948W        W56693  12.737  37.059   0.389
96949W        W56694   0.261  36.385  11.986
96950W        W56695  33.492  38.827  14.953
96951W        W56696  32.887   1.761   4.210
96952W        W56697  19.140  35.925   4.165
96953W        W56698  31.561  20.615  14.367
96954W        W56699   7.389  27.587   2.719
96955W        W56700  18.706  30.529   3.333
96956W        W56701  12.178   4.392   1.786
96957W        W56702  31.626  42.860   4.733
96958W        W56703  24.988   9.195   3.195
96959W        W56704  27.451  36.027   1.799
96960W        W56705  38.998  43.012   4.209
96961W        W56706  15.596  21.738   0.381
96962W        W56707   4.282  33.022   4.183
96963W        W56708   4.781  24.524  11.503
96964W        W56709   3.231  38.843  14.390
96965W        W56710  26.182   7.909   1.738
96966W        W56711  36.078   5.813  14.903
96967W        W56712  19.070  33.437  14.327
96968W        W56713   7.819  34.607  12.957
96969W        W56714   9.828  31.061   0.782
96970W        W56715  41.332  33.970  11.512
96971W        W56716  30.981  30.545   1.418
96972W        W56717   8.347   5.838  13.479
96973W        W56718  27.515  10.787  11.874
96974W        W56719  10.658   7.395   3.324
96975W        W56720  27.965  19.660   2.872
96976W        W56721  33.458  28.960   2.891
96977W        W56722  10.262   0.301   1.340
96978W        W56723  26.646   5.240  14.771
96979W        W56724  12.733  13.771  13.885
96980W        W56725  40.514  20.530  13.341
96981W        W56726   9.160  43.839   0.906
96982W        W56727   6.289   4.349  14.970
96983W        W56728  22.588  23.733   1.883
96984W        W56729  27.664  15.636   4.783
96985W        W56730   7.335  13.241   4.232
96986W        W56731  12.664  23.540  12.369
96987W        W56732  29.498  21.076   1.446
96988W        W56733  38.022   0.444   4.196
96989W        W56734   8.297   0.962   1.282
96990W        W56735  41.395  13.651  11.575
96991W        W56736  16.693  27.602   1.897
96992W        W56737  16.619   5.708   4.658
96993W        W56738   9.842   0.929   3.801
96994W        W56739  18.618  20.218  14.770
96995W        W56740  28.646  22.530  10.098
96996W        W56741  18.617  31.899   1.433
96997W        W56742  43.350  17.176  13.882
96998W        W56743  24.692  16.766  11.525
96999W        W56744   1.260  36.991   3.865
97000W        W56745  39.913  11.297  10.444
97001W        W56746  39.977   8.791   2.299
97002W        W56747  35.884   0.443   3.220
97003W        W56748  21.710  23.147   4.345
97004W        W56749  32.045  12.739  14.451
97005W        W56750  43.825  35.951   3.814
97006W        W56751  19.575  39.857   1.903
97007W        W56752  24.131   1.926  10.472
97008W        W56753  15.188  19.588   3.199
97009W        W56754  34.465   6.686   3.770
97010W        W56755   3.386  10.791   4.778
97011W        W56756  28.618  17.687   3.346
97012W        W56757  29.991  41.377  12.893
97013W        W56758  25.012  30.092   0.453
97014W        W56759  38.845  15.730   3.191
97015W        W56760  11.828  10.328   5.183
97016W        W56761  16.746  22.100   1.856
97017W        W56762   6.845   2.414  13.480
97018W        W56763  39.918  28.537   1.902
97019W        W56764  19.775  28.541   3.688
97020W        W56765  19.712  10.294   1.427
97021W        W56766  11.342  38.405   0.822
97022W        W56767  11.272  24.650   1.354
97023W        W56768   1.767  13.244  14.792
97024W        W56769  10.346   5.794   1.898
97025W        W56770  25.144  12.845  13.358
97026W        W56771  36.909  40.514   1.342
97027W        W56772  10.254  21.661   3.224
97028W        W56773  43.330  43.808   3.176
97029W        W56774  16.208  35.019  13.818
97030W        W56775  12.791  41.889  14.318
97031W        W56776  13.774  32.060   0.948
97032W        W56777   5.698  36.851  12.013
97033W        W56778  14.158  28.569  14.509
97034W        W56779  16.602  42.368  12.561
97035W        W56780  34.001  33.026  12.495
97036W        W56781  11.755  21.050  14.804
97037W        W56782  24.073  36.903  13.386
97038W        W56783  27.022  12.145  12.018
97039W        W56784   0.439  19.643   4.669
97040W        W56785   9.165  19.535   2.864
97041W        W56786  39.476  10.317  10.495
97042W        W56787  27.483  42.932   2.270
97043W        W56788  25.193  15.802  12.502
97044W        W56789  44.337  25.637   2.894
97045W        W56790   9.243  31.145   2.190
97046W        W56791  27.149  17.221   2.742
97047W        W56792  41.789  42.330   4.276
97048W        W56793   9.383  31.624   0.759
97049W        W56794   7.344  22.735   2.343
97050W        W56795  29.649  18.579   1.723
97051W        W56796  19.582  28.601  11.379
97052W        W56797   5.292   1.318  11.391
97053W        W56798   8.782   8.176  11.121
97054W        W56799  37.050   6.847  10.542
97055W        W56800  43.999   5.264   3.321
97056W        W56801  43.012  31.606   0.248
97057W        W56802  41.888  41.876  10.595
97058W        W56803  17.239   1.969  12.997
97059W        W56804  24.545   9.163   2.362
97060W        W56805  37.959   9.362   1.858
97061W        W56806  43.978  30.922   4.291
97062W        W56807  20.525  17.696   3.868
97063W        W56808   3.436  37.023  11.006
97064W        W56809  40.452   5.437   0.775
97065W        W56810   3.449   7.231   2.664
97066W        W56811   4.713  38.907   4.606
97067W        W56812  24.111  44.941   0.793
97068W        W56813  32.109  17.244   5.749
97069W        W56814  34.996  29.478  14.369
97070W        W56815  21.733  31.059  13.516
97071W        W56816  43.841  34.602  12.450
97072W        W56817  11.308  38.844   2.245
97073W        W56818  22.107  16.085  11.488
97074W        W56819  33.886  11.252  13.478
97075W        W56820  35.507  16.810   3.190
97076W        W56821  21.620  12.618  12.078
97077W        W56822  23.651  11.662   4.314
97078W        W56823  25.512  13.814  10.021
97079W        W56824  37.482   8.852   1.314
97080W        W56825  14.270  34.510  13.048
97081W        W56826  10.866  35.572   0.874
97082W        W56827  43.502  11.200   1.751
97083W        W56828  33.619  21.638   2.372
97084W        W56829  39.875  32.131  10.603
97085W        W56830   9.751   8.744   0.965
97086W        W56831   1.952  15.146  13.378
97087W        W56832  17.715  10.176   2.416
97088W        W56833  27.940  44.947   1.695
97089W        W56834  32.933  43.807  14.974
97090W        W56835  43.317   9.293  14.323
97091W        W56836   1.447  23.550  12.065
97092W        W56837  26.070  26.479   3.163
97093W        W56838  15.233  20.608   4.256
97094W        W56839   7.801  27.174   3.870
97095W        W56840  43.944  32.456  13.400
97096W        W56841  13.193  23.531   4.139
97097W        W56842  32.472   0.906   1.810
97098W        W56843  37.893  44.505  12.535
97099W        W56844  22.680  16.642  11.081
97100W        W56845   7.737  10.652  14.843
97101W        W56846  14.625  39.928  12.344
97102W        W56847   1.265   2.467  14.816
97103W        W56848  19.720  42.516   1.831
97104W        W56849  22.068  31.547   4.117
97105W        W56850  23.687  12.167  10.635
97106W        W56851  27.494   2.924  14.492
97107W        W56852   6.813  22.148  13.008
97108W        W56853  27.551  29.061  12.831
97109W        W56854  12.321  42.959   2.889
97110W        W56855  37.496   0.315  12.935
97111W        W56856  40.501  27.054  14.868
97112W        W56857   3.861  24.537   4.352
97113W        W56858  26.562  42.467   0.881
97114W        W56859   1.323  32.447   4.286
97115W        W56860   9.773  16.245  10.891
97116W        W56861  41.879  43.922   0.856
97117W        W56862  26.602  17.086  10.494
97118W        W56863  35.891  29.611  11.901
97119W        W56864   6.256  26.135  14.483
97120W        W56865  36.883  33.906   0.269
97121W        W56866  40.814  29.541  12.090
97122W        W56867  27.039  19.155   4.762
97123W        W56868  30.538  26.196   3.321
97124W        W56869  35.078  43.807   4.151
97125W        W56870   4.362  27.998   2.269
97126W        W56871   5.757   0.365  13.038
97127W        W56872   4.313  14.274   1.242
97128W        W56873  12.800  13.617   1.759
97129W        W56874   4.863   0.349   0.861
97130W        W56875  28.532  16.647   0.869
97131W        W56876  21.075   5.363   1.910
97132W        W56877  39.051  15.280   0.819
97133W        W56878   1.969  11.858   0.447
97134W        W56879   5.708   4.824  14.965
97135W        W56880  22.200   4.914  12.845
97136W        W56881  23.706  29.051   1.227
97137W        W56882  23.089  35.463   0.827
97138W        W56883  37.083  42.879   2.198
97139W        W56884  33.131  12.257  13.497
97140W        W56885  39.529  25.606  10.469
97141W        W56886  36.441  21.022  13.337
97142W        W56887  14.095   8.772   3.803
97143W        W56888  13.312  31.021   2.405
97144W        W56889  15.659  33.482  13.029
97145W        W56890   6.758  18.729  12.024
97146W        W56891   1.970  19.677   3.217
97147W        W56892   6.258  17.731  12.884
97148W        W56893  42.855  22.659  13.374
97149W        W56894  36.906   3.227   4.310
97150W        W56895   6.797  16.633   2.754
97151W        W56896  38.978  12.305   2.188
97152W        W56897  17.732  43.318   4.345
97153W        W56898   5.845  31.982   3.795
97154W        W56899  43.861   3.330   1.851
97155W        W56900  44.470  18.180   0.401
97156W        W56901  10.823  14.145  13.432
97157W        W56902   8.826  19.048   3.709
97158W        W56903  11.372  44.475   3.692
97159W        W56904   9.240   2.762  11.601
97160W        W56905   5.791  29.508   0.249
97161W        W56906  11.706   1.925  11.543
97162W        W56907  24.183  17.670  12.870
97163W        W56908   7.908  39.507  10.471
97164W        W56909  31.468  26.660   5.124
97165W        W56910  33.396  27.129   0.452
97166W        W56911   7.324  21.247  12.399
97167W        W56912  15.625   1.839   3.320
97168W        W56913  44.992   7.899  10.908
97169W        W56914  25.098  26.026   0.317
97170W        W56915  17.709   8.280   1.286
97171W        W56916   3.381   7.857   1.329
97172W        W56917   4.759  19.112  11.022
97173W        W56918   4.829   6.899   2.388
97174W        W56919  19.759  11.290   0.302
97175W        W56920  40.447  36.981  13.942
97176W        W56921   2.875  22.577  11.911
97177W        W56922  14.658  13.816   3.856
97178W        W56923  22.081  42.788   0.839
97179W        W56924  36.847  35.524   3.818
97180W        W56925  28.132   0.806  13.063
97181W        W56926   3.399   5.931  12.885
97182W        W56927  38.474  39.985  12.388
97183W        W56928  17.739  29.555  12.961
97184W        W56929  37.063  40.464  13.432
97185W        W56930  18.611   3.855  11.126
97186W        W56931  17.802   8.302  13.967
97187W        W56932  11.667  43.438  10.583
97188W        W56933  10.195  22.541  12.509
97189W        W56934  22.701   3.343  13.498
97190W        W56935  36.004  20.533   2.257
97191W        W56936  23.108  28.678  13.977
97192W        W56937  35.028  29.929  13.847
97193W        W56938   6.198  32.022  13.444
97194W        W56939  14.777  14.237   2.768
97195W        W56940  19.204  21.022   4.124
97196W        W56941  39.916  17.578  11.484
97197W        W56942  21.607  11.291  10.473
97198W        W56943  31.124   0.945   0.848
97199W        W56944  21.703  30.515   0.728
97200W        W56945   7.774   5.374  13.328
97201W        W56946  42.795  32.004  14.458
97202W        W56947  44.298  33.528   1.416
97203W        W56948   2.274  13.654  10.586
97204W        W56949  20.215  16.628   1.340
97205W        W56950  15.762  22.220  12.830
97206W        W56951  19.126  34.913  10.930
97207W        W56952  22.133   8.374   3.266
97208W        W56953  31.573  35.487  10.408
97209W        W56954   6.222  43.018  10.115
97210W        W56955   3.896  22.745  14.992
97211W        W56956  44.860  21.724  10.941
97212W        W56957  19.115  39.018  14.003
97213W        W56958  37.568  12.771  13.348
97214W        W56959  14.592  40.453  11.862
97215W        W56960  21.570  25.684   1.410
97216W        W56961   4.369  10.314   4.727
97217W        W56962   6.419  20.596   0.262
97218W        W56963  19.578  26.485  12.475
97219W        W56964   6.725  10.219   2.408
97220W        W56965  14.188  15.614   5.183
97221W        W56966  15.314  28.672   1.321
97222W        W56967  40.440  23.674  14.336
97223W        W56968  25.082  20.188   3.858
97224W        W56969  19.642  25.599   1.818
97225W        W56970   7.828  42.519   0.246
97226W        W56971  18.185   3.404   2.690
97227W        W56972  20.136  13.773   3.671
97228W        W56973  12.303  17.127   3.829
97229W        W56974  37.056  22.615  11.437
97230W        W56975   8.217  38.358  12.885
97231W        W56976   7.878   4.233  13.497
97232W        W56977  36.417  20.253  13.544
97233W        W56978  43.864  41.497   3.293
97234W        W56979  33.510  39.813  12.400
97235W        W56980   0.784  32.403  10.633
97236W        W56981   2.379  37.909  10.470
97237W        W56982  19.129  35.083   0.810
97238W        W56983  12.830  21.198  13.400
97239W        W56984   4.735  25.180  10.411
97240W        W56985  29.656   3.837   0.480
97241W        W56986  11.137  26.117   1.212
97242W        W56987  13.688  20.530   1.782
97243W        W56988  34.530  27.638   2.253
97244W        W56989  23.066   0.887  14.364
97245W        W56990  21.202  23.080   1.861
97246W        W56991  19.069  19.222   0.292
97247W        W56992  24.662   7.195  10.643
97248W        W56993  19.214  41.018   0.744
97249W        W56994  33.529  32.631   0.243
97250W        W56995  22.572  37.581  12.906
97251W        W56996   7.356  16.294   4.682
97252W        W56997  39.999  21.157   5.114
97253W        W56998  40.362  32.896   2.829
97254W        W56999  29.100  40.436   0.410
97255W        W57000  39.519  36.438   3.773
97256W        W57001  13.627  36.976   2.332
97257W        W57002  28.953  22.059  12.484
97258W        W57003  23.031  40.960  11.975
97259W        W57004  26.057  19.065   1.718
97260W        W57005  17.187  20.682  12.538
97261W        W57006  16.283  19.660   4.830
97262W        W57007  34.530  17.248  13.966
97263W        W57008  32.006  38.911   5.235
97264W        W57009  10.295  21.230  13.407
97265W        W57010  31.060  34.986  13.404
97266W        W57011  29.001  39.898  13.937
97267W        W57012  37.051  16.200  12.896
97268W        W57013  23.989  27.132  12.044
97269W        W57014  44.303  41.845   5.137
97270W        W57015  39.367   6.708   4.268
97271W        W57016  27.553  14.599  10.952
97272W        W57017   0.906  11.830  12.976
97273W        W57018  37.457  41.296  12.491
97274W        W57019  27.955  17.729  12.455
97275W        W57020  39.942  36.378  14.464
97276W        W57021  32.104  36.386   1.247
97277W        W57022  13.200  22.087  11.894
97278W        W57023  26.491  38.371   2.701
97279W        W57024  13.231  15.665   0.923
97280W        W57025  24.212  17.703   1.339
97281W        W57026  28.562  10.199   3.156
97282W        W57027  43.368  43.794   2.366
97283W        W57028   9.167  34.506   1.260
97284W        W57029  29.566  27.686   4.169
97285W        W57030  27.690   4.276   5.283
97286W        W57031  25.542  41.904  13.863
97287W        W57032  38.388  25.714   2.329
97288W        W57033  26.590  14.834  11.976
97289W        W57034  40.405  25.123   0.306
97290W        W57035  34.524  23.640  14.469
97291W        W57036  18.175  11.209  12.891
97292W        W57037   8.164  39.836  10.604
97293W        W57038  33.478  10.820   3.821
97294W        W57039  27.648  24.128  14.030
97295W        W57040  18.654  22.180   4.729
97296W        W57041  31.556  35.358   3.644
97297W        W57042   6.413  24.115  10.919
97298W        W57043  14.144   9.257  11.538
97299W        W57044  20.548  21.533   3.772
97300W        W57045   7.214   0.860   3.641
97301W        W57046  20.568  37.966  11.908
97302W        W57047  39.980  34.482   0.913
97303W        W57048  33.949   0.253   0.908
97304W        W57049  11.753   4.769   2.343
97305W        W57050  11.223  43.484   0.931
97306W        W57051   4.814   7.879  12.047
97307W        W57052  32.953  40.902  14.450
97308W        W57053  44.795  18.239   2.387
97309W        W57054   9.171  42.377  12.509
97310W        W57055   6.910   8.348  11.910
97311W        W57056  12.130  36.429   0.925
97312W        W57057  32.103  35.533  14.306
97313W        W57058  12.799  20.152   1.304
97314W        W57059  34.967   5.401  10.928
97315W        W57060   0.972  26.960  11.477
97316W        W57061  26.127  17.288   4.147
97317W        W57062  20.599  27.528   1.232
97318W        W57063  28.566  33.129  12.506
97319W        W57064   7.736  31.983   1.320
97320W        W57065  22.613   8.262   1.694
97321W        W57066  40.504  44.776  13.353
97322W        W57067   3.756  25.557   4.206
97323W        W57068  31.958  42.477   3.845
97324W        W57069  34.936  19.780   2.774
97325W        W57070  31.404  22.178   0.279
97326W        W57071  30.157  10.683   0.743
97327W        W57072  29.449  32.400   4.635
97328W        W57073  28.501  43.830   1.731
97329W        W57074  17.750   5.438   0.427
97330W        W57075  29.935  39.049   1.216
97331W        W57076  24.658  36.972   4.648
97332W        W57077   8.686  24.690  11.120
97333W        W57078  19.734   5.282   3.831
97334W        W57079  31.980   8.211  12.847
97335W        W57080  28.583  10.875  14.442
97336W        W57081  11.372  17.228  13.899
97337W        W57082  21.147   8.227   2.780
97338W        W57083  23.579   7.171  11.489
97339W        W57084  14.669  30.448  13.942
97340W        W57085   7.793   9.754   1.437
97341W        W57086   1.905  33.070  12.053
97342W        W57087  26.133  33.556  12.440
97343W        W57088  14.674  41.929  10.636
97344W        W57089   3.947  20.735   1.398
97345W        W57090   6.359  12.198  14.873
97346W        W57091   4.245  12.764  11.950
97347W        W57092  22.668  36.087  13.439
97348W        W57093  37.931  27.523  13.364
97349W        W57094  24.073  35.098   2.672
97350W        W57095   6.743  13.232   3.170
97351W        W57096  24.087   2.876  13.533
97352W        W57097  44.484   7.807  14.451
97353W        W57098  16.181  25.173   1.385
97354W        W57099  35.928  28.496   2.221
97355W        W57100   3.459   6.840  11.036
97356W        W57101   5.316  24.672  13.398
97357W        W57102   5.348  18.788  14.771
97358W        W57103  16.258  38.353  13.877
97359W        W57104  16.747  29.928   0.398
97360W        W57105  28.931  28.660   2.355
97361W        W57106  23.059  34.577  11.965
97362W        W57107  19.179  33.576  11.049
97363W        W57108  35.474  16.793  11.907
97364W        W57109  38.567  19.234  13.950
97365W        W57110   0.477  20.104  10.579
97366W        W57111  37.888  11.632   3.364
97367W        W57112  15.146   4.423   4.833
97368W        W57113  37.514  41.934  12.498
97369W        W57114  41.461  44.804   3.690
97370W        W57115   9.788  30.103  11.392
97371W        W57116  15.668  26.669   0.937
97372W        W57117  10.756  39.888   3.359
97373W        W57118  21.068  39.378  11.538
97374W        W57119  12.710  13.338  13.330
97375W        W57120   7.881  28.951  13.325
97376W        W57121  25.058  33.523   2.197
97377W        W57122  18.676  39.059  13.799
97378W        W57123  44.443  30.120  14.924
97379W        W57124  38.915  12.811   1.245
97380W        W57125  27.503   3.842  14.359
97381W        W57126  13.678   7.679   0.303
97382W        W57127  31.563  11.199   3.673
97383W        W57128  15.256  30.496   2.707
97384W        W57129   7.265  14.697   4.749
97385W        W57130   4.850  42.839  12.076
97386W        W57131  22.177  11.349   9.523
97387W        W57132  34.483  36.879  12.369
97388W        W57133  33.067  26.672   0.376
97389W        W57134  44.393  31.975   4.332
97390W        W57135  25.172   3.379   4.805
97391W        W57136   0.766  35.560   4.207
97392W        W57137  39.926  17.243  12.016
97393W        W57138  35.019  27.118   2.220
97394W        W57139  39.415  20.166   2.288
97395W        W57140  20.132  10.245  13.942
97396W        W57141  40.970  25.021   0.451
97397W        W57142   8.725   5.388   0.333
97398W        W57143  36.355  37.470  10.576
97399W        W57144   8.235  37.564  12.385
97400W        W57145   3.234   6.717   0.841
97401W        W57146   6.367  43.857   2.302
97402W        W57147   5.205  28.609  11.464
97403W        W57148  10.794  35.016  13.544
97404W        W57149   1.926  16.172   2.883
97405W        W57150  21.633   2.398  11.931
97406W        W57151  20.676  19.060   1.778
97407W        W57152  39.931   6.862  10.576
97408W        W57153  38.870   9.352  13.433
97409W        W57154  14.337  24.638   4.696
97410W        W57155  31.148  37.398   3.381
97411W        W57156  32.078  38.425   4.333
97412W        W57157  29.136   7.391   3.857
97413W        W57158  36.544   4.827  14.396
97414W        W57159  40.496  44.951  10.941
97415W        W57160   3.239  37.897   1.436
97416W        W57161   9.722  15.103  13.901
97417W        W57162   7.323  24.481   4.698
97418W        W57163  36.441  35.516   1.378
97419W        W57164  42.437  18.716   2.774
97420W        W57165  18.243  30.436   4.668
97421W        W57166  23.511  20.677   4.624
97422W        W57167  18.285   7.340   1.717
97423W        W57168  37.476   1.766   4.828
97424W        W57169   2.251   4.755   1.773
97425W        W57170  15.639   5.356   0.867
97426W        W57171   3.437  29.150  13.035
97427W        W57172  43.294  27.106   3.846
97428W        W57173  39.050  16.711  12.839
97429W        W57174   4.709   5.241  13.027
97430W        W57175   2.255   3.730  13.500
97431W        W57176  26.634  43.419   1.917
97432W        W57177  43.384  37.517   4.200
97433W        W57178  25.132   9.658  14.861
97434W        W57179  22.116  39.320  10.962
97435W        W57180  23.068  38.329  11.603
97436W        W57181   4.821   8.367   1.717
97437W        W57182  28.464   3.773   3.179
97438W        W57183  24.496  20.664  14.343
97439W        W57184  15.608  26.067   0.445
97440W        W57185  41.531  20.217   2.751
97441W        W57186  35.515  11.638   4.308
97442W        W57187  39.550  35.014   0.911
97443W        W57188  22.021  36.512  14.507
97444W        W57189  23.034  32.037  14.297
97445W        W57190  10.164  29.513  12.374
97446W        W57191   6.773  29.640  12.951
97447W        W57192  30.909  18.627  11.947
97448W        W57193  15.696  24.559  11.993
97449W        W57194   1.269   3.890   3.242
97450W        W57195  35.044   0.856  12.570
97451W        W57196  31.415   8.841  12.434
97452W        W57197   0.444  32.522   9.529
97453W        W57198  20.617  36.978   1.212
97454W        W57199  33.422  31.099   1.836
97455W        W57200  21.641   0.855  11.985
97456W        W57201  31.503   3.870   1.413
97457W        W57202  29.045  14.219   1.900
97458W        W57203  12.697  40.307   1.705
97459W        W57204  16.620  14.818   0.329
97460W        W57205  44.355  24.204   2.796
97461W        W57206  44.316  21.048  12.895
97462W        W57207  23.036  37.458   2.844
97463W        W57208   9.349  35.586  11.933
97464W        W57209  43.915  37.531   0.932
97465W        W57210  10.219  17.298  14.399
97466W        W57211  44.403  28.078   2.830
97467W        W57212  20.231  31.632  14.422
97468W        W57213   1.406  12.645   3.644
97469W        W57214  18.569  44.762  11.586
97470W        W57215   2.740  17.238   2.796
97471W        W57216  22.193  16.757  11.524
97472W        W57217  21.021  36.585   4.705
97473W        W57218  43.814   2.374   2.407
97474W        W57219   3.723  40.483  10.965
97475W        W57220   6.872  20.559   2.331
97476W        W57221   8.293  11.149  11.079
97477W        W57222  25.137  43.810  12.872
97478W        W57223  11.274  13.270  10.442
97479W        W57224   4.714  38.370   1.723
97480W        W57225  30.603  20.114  12.984
97481W        W57226   2.928  32.099  12.856
97482W        W57227   6.805  35.871   4.253
97483W        W57228  35.362   5.790   9.968
97484W        W57229  11.826  30.519   2.335
97485W        W57230   3.341  32.441   2.801
97486W        W57231  28.032  25.964   4.683
97487W        W57232  25.080  14.614  13.852
97488W        W57233  28.180  21.530  13.447
97489W        W57234   5.293  28.485  10.591
97490W        W57235   9.826  37.992  12.341
97491W        W57236  42.517  22.169   4.683
97492W        W57237   7.788  19.069  11.873
97493W        W57238   1.807   6.307   0.336
97494W        W57239  30.471   1.438   2.709
97495W        W57240  44.390  39.403   3.648
97496W        W57241  37.480  16.085   0.353
97497W        W57242  29.431   4.318  10.908
97498W        W57243   1.771  42.417   0.295
97499W        W57244  30.997  31.580  14.364
97500W        W57245  13.140  17.739   3.817
97501W        W57246  31.098  30.599  14.285
97502W        W57247  12.177  16.787   0.418
97503W        W57248  10.187  25.643   2.690
97504W        W57249  20.035   1.428   0.284
97505W        W57250   1.962  27.492  13.935
97506W        W57251  32.586  36.896  14.440
97507W        W57252  19.135  37.404   4.313
97508W        W57253  25.075  17.673  13.001
97509W        W57254  22.995  39.009   1.343
97510W        W57255  38.420  26.173   2.381
97511W        W57256  39.953  17.769  14.865
97512W        W57257   9.339  44.988  13.920
97513W        W57258   0.841  13.750  11.497
97514W        W57259   8.835  32.112  11.398
97515W        W57260  35.470  13.279  13.414
97516W        W57261   2.747  33.116   3.336
97517W        W57262  44.363   2.858   2.831
97518W        W57263  32.915   2.299  13.827
97519W        W57264  25.671  18.253   4.125
97520W        W57265  31.972  24.103   3.274
97521W        W57266  28.457  35.094   0.858
97522W        W57267  25.036  33.443  13.398
97523W        W57268  29.545  33.034  11.122
97524W        W57269  32.487  30.631  12.372
97525W        W57270  21.631   2.268   2.261
97526W        W57271  21.229  44.968   5.104
97527W        W57272  29.062  43.495   3.822
97528W        W57273  25.629  16.110  12.392
97529W        W57274  29.577  27.997   2.196
97530W        W57275  44.395  11.654   5.170
97531W        W57276  11.686  25.979  14.331
97532W        W57277  44.839  18.545   3.343
97533W        W57278  44.826   8.884   4.187
97534W        W57279  17.154  22.076  13.415
97535W        W57280   9.281  29.630  13.799
97536W        W57281   1.853  30.535  13.840
97537W        W57282  23.197   7.398  11.901
97538W        W57283  20.243   9.293   1.726
97539W        W57284  19.158   2.242   3.264
97540W        W57285  39.467   6.729  11.918
97541W        W57286  42.859   8.224  11.048
97542W        W57287  39.374  38.324  13.456
97543W        W57288  43.320  36.370   0.878
97544W        W57289  41.020  40.921  13.326
97545W        W57290  16.669  26.604   0.731
97546W        W57291  35.982  15.736   3.818
97547W        W57292  36.973  39.556  14.906
97548W        W57293  21.540  22.713  10.439
97549W        W57294  14.755   6.267  13.799
97550W        W57295   3.408  24.039  12.546
97551W        W57296  17.277   2.438  13.497
97552W        W57297   1.753  25.622   1.835
97553W        W57298   8.347   4.283   3.717
97554W        W57299  39.064  28.099  10.442
97555W        W57300  41.442  19.685   2.733
97556W        W57301  27.054   6.384  14.429
97557W        W57302  27.565  14.830   1.293
97558W        W57303  13.348   0.866   2.247
97559W        W57304   8.201  10.384  13.536
97560W        W57305  28.468  20.533  10.954
97561W        W57306   1.478  32.942   2.745
97562W        W57307  43.892   1.969   4.272
97563W        W57308   1.915  30.515   3.165
97564W        W57309  26.125   3.357  12.344
97565W        W57310  27.134   7.910  11.485
97566W        W57311  43.319  18.066   0.251
97567W        W57312  20.251  13.139  11.064
97568W        W57313  23.635   3.258   1.228
97569W        W57314  29.588  41.348   2.665
97570W        W57315  44.967   2.321  11.408
97571W        W57316   6.424  44.283  12.558
97572W        W57317   7.283  28.660   2.730
97573W        W57318  11.284  43.769   4.317
97574W        W57319   9.745  36.985  10.621
97575W        W57320  35.043  10.872   0.309
97576W        W57321  38.500  44.782   3.648
97577W        W57322  31.538  38.000   0.770
97578W        W57323  23.218  41.370   1.267
97579W        W57324  32.025  25.603  12.488
97580W        W57325  37.947  31.940   1.223
97581W        W57326  42.983  15.163   3.714
97582W        W57327  44.903  34.979   4.809
97583W        W57328   1.296  11.802  13.363
97584W        W57329  19.662  34.864  14.884
97585W        W57330  43.829  17.247   0.952
97586W        W57331  31.577  14.255  12.022
97587W        W57332  13.212  28.095  12.535
97588W        W57333  33.121  32.899   0.412
97589W        W57334  42.489  29.451   1.313
97590W        W57335  23.125  19.772   0.904
97591W        W57336  10.200   0.846  11.025
97592W        W57337  31.483   2.956   2.833
97593W        W57338  36.947  41.966  12.437
97594W        W57339  31.130   5.270   0.876
97595W        W57340   4.237  34.588   1.866
97596W        W57341  33.479  25.652  11.895
97597W        W57342  37.549  22.071   4.666
97598W        W57343   8.201  27.469  12.359
97599W        W57344  42.915  35.000   2.728
97600W        W57345  24.134   1.279  13.062
97601W        W57346  44.487   0.797  11.553
97602W        W57347  23.139  33.938   1.431
97603W        W57348  35.599   5.314  10.408
97604W        W57349  44.865  34.006   0.947
97605W        W57350  19.731  24.226   1.307
97606W        W57351   8.293  20.123  12.518
97607W        W57352  27.595  29.947  12.567
97608W        W57353  31.601   5.293  14.356
97609W        W57354  44.294  12.755   3.748
97610W        W57355   4.796   5.315   3.235
97611W        W57356  44.466  20.758   4.235
97612W        W57357  40.029  20.217  11.935
97613W        W57358  34.076   8.754  14.480
97614W        W57359  40.335  16.803  12.435
97615W        W57360  27.964  15.731   2.854
97616W        W57361  14.240  29.597  13.930
97617W        W57362  42.304   6.331   1.321
97618W        W57363  34.475  10.852   3.241
97619W        W57364  22.239  25.081   5.234
97620W        W57365  22.522  44.886   2.329
97621W        W57366  34.558  29.466  11.473
97622W        W57367  18.079  24.056  12.981
97623W        W57368  35.494  22.036   4.333
97624W        W57369  26.982   4.780  12.830
97625W        W57370  38.977   0.426   0.328
97626W        W57371   3.430  11.230   0.913
97627W        W57372  31.027  16.602   1.424
97628W        W57373  24.011   1.970   4.816
97629W        W57374  41.816  11.202  12.006
97630W        W57375  25.549  24.024   2.389
97631W        W57376  37.058   0.472   2.301
97632W        W57377  43.494   2.907   4.608
97633W        W57378  35.870  16.270  13.360
97634W        W57379  35.380  15.285  13.811
97635W        W57380  20.529  29.664  10.435
97636W        W57381   4.861  15.649   2.262
97637W        W57382  23.724  13.182   1.247
97638W        W57383   5.431  22.712   0.859
97639W        W57384   8.890  32.011  11.049
97640W        W57385   4.819   7.228  12.413
97641W        W57386  18.681  42.850  14.381
97642W        W57387  12.247  38.822   4.322
97643W        W57388  29.147  16.574  14.909
97644W        W57389  25.128  43.970   4.690
97645W        W57390  31.630  38.968   2.901
97646W        W57391  43.514  20.717   2.412
97647W        W57392  20.739  32.086  10.582
97648W        W57393  37.428  35.541   3.705
97649W        W57394  25.145  32.918   2.346
97650W        W57395  12.193  31.069  13.452
97651W        W57396   0.905  11.726  14.357
97652W        W57397  18.197  24.520   2.302
97653W        W57398   6.270  11.251  10.418
97654W        W57399  44.829  21.043   3.826
97655W        W57400  20.577  26.168  13.449
97656W        W57401  27.608  21.175  14.948
97657W        W57402  38.875  11.253  12.000
97658W        W57403  38.487  30.499  12.491
97659W        W57404  44.472  38.821   0.464
97660W        W57405  11.747  17.730   4.649
97661W        W57406  21.659  38.360  12.881
97662W        W57407  32.007  40.856  13.910
97663W        W57408  14.805  37.962  12.350
97664W        W57409  28.120  18.140  13.532
97665W        W57410  28.435  12.212   4.187
97666W        W57411  21.522  42.344   2.735
97667W        W57412  11.734  21.125  12.070
97668W        W57413   0.941   5.217   2.275
97669W        W57414   7.795  34.376   0.410
97670W        W57415  23.514  35.853  10.472
97671W        W57416  22.661  35.462   0.920
97672W        W57417  37.454  44.869   4.234
97673W        W57418  39.324  41.966   1.358
97674W        W57419  41.834  23.021   4.802
97675W        W57420   7.229  23.643   1.881
97676W        W57421  19.629  31.642  12.962
97677W        W57422  35.059   4.354  13.321
97678W        W57423   9.167  30.160  13.803
97679W        W57424  44.412  26.686   1.414
97680W        W57425  36.008  39.987  12.537
97681W        W57426  36.907  20.626   2.677
97682W        W57427   9.352  44.936  14.908
97683W        W57428  12.630   2.742   3.634
97684W        W57429  24.111  25.630  14.967
97685W        W57430  15.739  21.666  10.567
97686W        W57431  24.516   6.428  11.487
97687W        W57432   3.370  27.461  14.311
97688W        W57433  40.379  17.633   1.854
97689W        W57434   8.265  13.769  13.961
97690W        W57435   9.851  38.992  13.909
97691W        W57436  20.734   6.299  14.437
97692W        W57437  25.988  33.397   2.383
97693W        W57438  16.591  22.679   1.297
97694W        W57439   2.453  30.093  12.985
97695W        W57440  32.034  35.084  11.055
97696W        W57441  26.102  22.129   0.389
97697W        W57442  28.452  26.697  14.463
97698W        W57443  31.591  21.598  11.436
97699W        W57444  35.023  23.057   4.277
97700W        W57445  16.568  31.901   0.344
97701W        W57446   8.786  17.660  13.885
97702W        W57447  23.214  40.477   1.341
97703W        W57448  26.061   8.346  13.497
97704W        W57449  23.117  39.870  11.535
97705W        W57450  29.589   0.955  13.858
97706W        W57451  34.477  43.777   2.181
97707W        W57452  44.266  42.357  12.056
97708W        W57453  15.122  35.060  11.876
97709W        W57454  10.349  22.219  11.484
97710W        W57455  43.913   2.768   0.361
97711W        W57456   1.967  17.653  13.974
97712W        W57457  11.822  29.122  12.985
97713W        W57458  30.909  39.887   3.864
97714W        W57459  11.143  27.030   2.844
97715W        W57460   1.731  23.631  13.036
97716W        W57461   8.174   7.174  12.437
97717W        W57462  21.051  19.074   3.316
97718W        W57463  27.114  28.973  13.461
97719W        W57464  30.054  34.052   0.375
97720W        W57465  42.828  23.621   1.858
97721W        W57466   5.225  31.589  10.915
97722W        W57467  10.224  41.511  12.045
97723W        W57468  12.785  27.154  12.494
97724W        W57469  30.635   5.349  13.528
97725W        W57470  43.445   2.874   1.929
97726W        W57471   7.277  36.480   3.209
97727W        W57472   6.700  16.128  14.291
97728W        W57473  25.608  19.647  10.904
97729W        W57474  41.387  40.357   3.769
97730W        W57475  14.654  20.576  14.514
97731W        W57476   0.371  13.329  11.888
97732W        W57477  36.005  42.349  14.856
97733W        W57478  43.514  34.509  12.083
97734W        W57479  44.361  23.103   4.673
97735W        W57480  13.714  13.225   2.231
97736W        W57481  17.589  36.028   3.757
97737W        W57482  26.673  19.747  11.555
97738W        W57483  34.066  36.042  13.966
97739W        W57484  28.113   8.881  14.356
97740W        W57485  36.951  26.568  10.903
97741W        W57486  29.597  11.306  12.912
97742W        W57487  22.513  26.665   0.467
97743W        W57488  41.421  12.724  12.390
97744W        W57489  42.982  17.224  11.375
97745W        W57490   6.406  12.185  13.310
97746W        W57491  19.753   9.889  11.495
97747W        W57492  20.072  14.285   3.287
97748W        W57493   9.176  22.244  12.557
97749W        W57494  13.694  27.981   3.220
97750W        W57495   9.791  41.811  10.618
97751W        W57496  16.728  27.578   4.801
97752W        W57497   2.766  33.050  14.478
97753W        W57498  20.634   3.401   2.787
97754W        W57499  30.437  31.134   4.661
97755W        W57500  14.298  14.255  13.819
97756W        W57501  15.817   1.352  13.408
97757W        W57502  25.664  27.959  14.497
97758W        W57503  16.079  39.017  14.879
97759W        W57504  14.151   8.754  11.949
97760W        W57505  23.593  16.170   4.636
97761W        W57506  26.132  10.249  11.542
97762W        W57507   6.795  32.989   3.258
97763W        W57508   3.294   8.878  14.384
97764W        W57509  39.384   9.754   4.796
97765W        W57510  42.918  31.454  11.096
97766W        W57511  39.006  31.618  14.374
97767W        W57512  12.621  24.651   3.272
97768W        W57513   8.194  35.487   3.276
97769W        W57514   7.797  18.076   4.132
97770W        W57515  40.872  39.053  13.507
97771W        W57516  13.616  29.087   3.195
97772W        W57517  41.936  34.400   0.728
97773W        W57518  34.406  11.162   2.380
97774W        W57519  15.673  44.308  12.454
97775W        W57520   9.776  31.908  13.392
97776W        W57521  28.544   0.812   2.718
97777W        W57522  26.624  22.612  13.476
97778W        W57523  36.084  19.196  10.906
97779W        W57524  13.241  13.695   0.828
97780W        W57525  43.810  41.992  10.476
97781W        W57526  38.972  34.007   0.846
97782W        W57527  19.751  14.140  11.114
97783W        W57528  21.690  18.290  10.425
97784W        W57529  20.098  25.007  12.409
97785W        W57530  44.390  37.022   3.863
97786W        W57531  31.992   4.892   2.779
97787W        W57532  34.553  39.444   0.358
97788W        W57533   5.411  32.570  13.988
97789W        W57534  12.307  38.882  14.408
97790W        W57535  29.545  29.634  13.875
97791W        W57536  26.985   7.890   2.781
97792W        W57537  35.066  13.348   3.219
97793W        W57538  43.510  21.631  13.469
97794W        W57539  38.509  27.162   2.854
97795W        W57540  28.000  12.354  10.117
97796W        W57541  37.955  34.997   1.318
97797W        W57542  27.041  14.236  11.438
97798W        W57543  36.389  40.967  14.920
97799W        W57544   6.324  17.559  14.936
97800W        W57545  25.041  27.567   2.270
97801W        W57546   1.317  13.747  13.460
97802W        W57547   5.881  16.684   4.208
97803W        W57548  21.594  10.856  13.377
97804W        W57549  39.527  23.211  10.425
97805W        W57550  42.903  31.647   3.750
97806W        W57551  37.973   2.817  13.031
97807W        W57552   3.221  34.536   2.761
97808W        W57553  29.035  40.032   1.289
97809W        W57554  41.317  44.349  11.439
97810W        W57555  38.962   8.750   0.929
97811W        W57556  44.913  13.759   4.125
97812W        W57557  41.793  25.565   2.713
97813W        W57558   0.764  37.879  12.825
97814W        W57559  34.963  31.120  10.004
97815W        W57560  39.505  25.593  14.967
97816W        W57561  29.103  16.701   1.840
97817W        W57562  30.420  19.695   0.889
97818W        W57563  14.749  28.069   3.719
97819W        W57564  18.630  12.675   3.782
97820W        W57565   1.460  27.181   1.851
97821W        W57566  37.565   9.274  10.552
97822W        W57567   2.373   3.911   4.833
97823W        W57568  31.922  23.218   0.432
97824W        W57569  23.582  44.863  11.474
97825W        W57570  15.768  21.683   1.386
97826W        W57571  22.704  13.655   0.845
97827W        W57572  41.444  26.177  12.852
97828W        W57573  33.093  19.249  13.820
97829W        W57574  11.358  35.517  13.340
97830W        W57575  11.812   6.239  13.446
97831W        W57576  30.534  29.485  13.841
97832W        W57577  41.916  40.529  14.278
97833W        W57578  42.777  31.908   1.933
97834W        W57579   8.877  33.565  12.940
97835W        W57580  14.238   9.840   1.722
97836W        W57581   5.929  41.948  13.505
97837W        W57582  24.192  34.478  11.400
97838W        W57583  15.084  32.066  13.475
97839W        W57584  14.798  17.654  13.545
97840W        W57585   2.444  42.836  10.635
97841W        W57586   9.731  35.016   2.346
97842W        W57587  32.119  44.787   1.373
97843W        W57588   4.400  23.131   0.960
97844W        W57589  42.973   5.211   0.867
97845W        W57590  28.611  20.252   1.848
97846W        W57591  22.028  21.599   3.822
97847W        W57592  26.952   4.815   0.425
97848W        W57593  36.971  24.686  13.980
97849W        W57594  33.450  42.915  14.385
97850W        W57595  26.462  44.760  12.877
97851W        W57596  14.304  19.190  12.529
97852W        W57597  17.291   4.375   1.217
97853W        W57598   9.256  24.149   2.195
97854W        W57599  40.835  32.956  14.014
97855W        W57600  10.664  16.613  10.955
97856W        W57601   9.873   5.319   1.413
97857W        W57602  28.112   6.305   4.205
97858W        W57603  12.820  35.021  12.479
97859W        W57604  44.297   2.452   4.749
97860W        W57605  30.086  40.968   1.810
97861W        W57606  14.745  22.734  10.407
97862W        W57607  28.677  11.660  14.786
97863W        W57608  21.589   5.773   1.445
97864W        W57609  36.869   8.380  13.414
97865W        W57610   8.665   8.310   2.178
97866W        W57611  37.981  27.612  11.988
97867W        W57612  21.079  34.099  11.892
97868W        W57613  32.458  30.416   0.333
97869W        W57614  22.648  11.336  12.923
97870W        W57615  14.218  29.976   1.406
97871W        W57616  26.514   7.791   1.752
97872W        W57617  19.136  12.335   3.242
97873W        W57618  14.102  44.411   3.819
97874W        W57619  29.920  21.027  13.934
97875W        W57620   5.827  36.014   2.695
97876W        W57621  38.956  13.264  10.992
97877W        W57622  29.564   7.801  13.543
97878W        W57623  39.037  14.225   3.648
97879W        W57624  41.423   9.206  12.085
97880W        W57625  28.146   8.342  11.003
97881W        W57626  15.586  25.049   2.673
97882W        W57627  19.659  29.656   1.305
97883W        W57628   1.361  37.935   2.804
97884W        W57629  43.938  25.656  12.029
97885W        W57630  24.145  27.667   0.427
97886W        W57631  27.560  15.755  12.985
97887W        W57632  34.414  30.542  13.861
97888W        W57633  39.369   3.298   0.348
97889W        W57634  41.301   0.347  13.993
97890W        W57635  35.100   2.957   4.243
97891W        W57636  33.929  20.073   1.370
97892W        W57637  17.761  17.663   3.382
97893W        W57638  16.160  44.410  13.804
97894W        W57639  36.586  26.025  14.816
97895W        W57640  41.974  36.041  14.984
97896W        W57641   7.683  18.790  11.553
97897W        W57642  10.742  32.909   3.265
97898W        W57643  20.737  22.120   0.944
97899W        W57644  18.678   8.405   2.338
97900W        W57645  35.480  16.149  11.049
97901W        W57646  43.998  34.105   4.228
97902W        W57647   1.794   0.880  12.548
97903W        W57648  43.939  26.038   3.299
97904W        W57649  33.933  23.204   3.331
97905W        W57650   0.476  26.586   4.127
97906W        W57651   2.349  33.097   3.634
97907W        W57652  42.335  12.136  14.977
97908W        W57653  24.694  28.942   4.635
97909W        W57654  24.570  10.828   1.744
97910W        W57655  43.414  44.958  10.540
97911W        W57656   0.808   5.904  10.522
97912W        W57657   5.340  29.058  10.977
97913W        W57658  23.069  30.003   2.357
97914W        W57659  38.397  13.723   0.875
97915W        W57660  30.622  14.211  10.623
97916W        W57661   7.370  19.660  12.089
97917W        W57662   5.897  20.067   2.878
97918W        W57663  23.142   9.741  10.921
97919W        W57664  27.153  17.559   2.389
97920W        W57665  22.133   9.244  11.086
97921W        W57666   0.302  11.635   1.325
97922W        W57667   7.838  17.700  14.434
97923W        W57668  16.204  33.387   0.254
97924W        W57669  15.310  23.650  10.487
97925W        W57670   8.800   2.743   0.899
97926W        W57671  41.887   8.257  13.506
97927W        W57672  35.055  11.720   0.805
97928W        W57673  19.137   7.248  12.411
97929W        W57674  37.352   9.286  11.924
97930W        W57675   4.793  26.056   0.807
97931W        W57676   6.288  10.258   3.264
97932W        W57677   3.758  25.653   2.281
97933W        W57678  31.615   4.939   1.801
97934W        W57679  39.866  35.518  10.605
97935W        W57680   4.447   0.870  13.425
97936W        W57681   1.370  43.872   4.711
97937W        W57682  31.528  24.107   4.713
97938W        W57683  27.526  35.494   2.399
97939W        W57684   7.317  13.679   0.326
97940W        W57685  20.724  37.887   4.713
97941W        W57686   4.781  39.339   0.252
97942W        W57687   6.705   5.215   2.250
97943W        W57688  28.469  28.977  12.827
97944W        W57689  39.833  14.312  11.498
97945W        W57690   6.196  41.367  12.500
97946W        W57691  29.934  43.957   2.676
97947W        W57692  26.982  25.691  10.586
97948W        W57693  43.349  15.286  13.438
97949W        W57694  12.146  11.679  10.917
97950W        W57695  18.108  24.000   0.833
97951W        W57696  10.365  31.122   2.370
97952W        W57697   7.746  43.313  10.546
97953W        W57698   0.858  18.719  14.027
97954W        W57699  16.277  16.116  11.038
97955W        W57700  33.479  29.943  12.034
97956W        W57701   6.277  28.108  10.528
97957W        W57702  17.708   1.302  13.517
97958W        W57703  13.225  18.291   4.127
97959W        W57704  14.813  18.790   3.317
97960W        W57705  39.527   6.377  11.979
97961W        W57706  26.505  43.774   1.780
97962W        W57707   3.801  16.758  13.899
97963W        W57708  43.497  44.284  12.364
97964W        W57709  14.125  23.012   0.297
97965W        W57710  28.596  22.181  12.912
97966W        W57711  10.179   0.813   0.243
97967W        W57712  14.159   8.777  10.041
97968W        W57713  31.631   3.814   1.726
97969W        W57714  33.010  22.127  13.388
97970W        W57715  35.086  42.499   3.845
97971W        W57716   2.410   3.919   0.888
97972W        W57717  38.020   0.297   2.804
97973W        W57718  21.523   7.884   3.280
97974W        W57719   1.909  13.676  11.110
97975W        W57720  34.375  28.502  11.449
97976W        W57721  44.845  13.708   0.254
97977W        W57722  42.437   8.760  13.922
97978W        W57723  23.136  26.615  10.408
97979W        W57724  42.423   0.925  14.997
97980W        W57725  14.116  43.017  11.484
97981W        W57726  29.558  31.441  12.895
97982W        W57727   6.752  38.368   4.678
97983W        W57728  39.330   9.311  10.517
97984W        W57729  32.902  41.518  13.002
97985W        W57730  12.855  27.002  11.880
97986W        W57731  38.416  34.482   4.680
97987W        W57732  38.525  39.348   3.640
97988W        W57733  23.639  30.953   4.278
97989W        W57734  24.546  33.006  13.945
97990W        W57735  18.780  27.146  10.890
97991W        W57736  32.971  31.522   3.190
97992W        W57737   9.359   4.221   1.871
97993W        W57738  38.553  20.196  13.885
97994W        W57739  19.113   9.227   1.427
97995W        W57740   0.280  29.670  12.004
97996W        W57741  14.231  41.304  12.058
97997W        W57742  44.894  32.398  12.341
97998W        W57743  37.517  28.099   4.636
97999W        W57744  29.559  30.969   4.293
98000W        W57745  18.623  36.563   0.398
98001W        W57746   6.915   7.739   3.223
98002W        W57747  19.555  23.072  12.521
98003W        W57748  34.076  12.774   3.384
98004W        W57749  33.086  15.590  10.930
98005W        W57750  15.157  42.499   2.675
98006W        W57751  10.796  17.224  11.425
98007W        W57752  10.180   8.306  12.841
98008W        W57753  20.138  15.749   0.932
98009W        W57754  29.551   9.644  12.987
98010W        W57755  12.769  22.577   2.356
98011W        W57756  31.620  32.537   5.127
98012W        W57757  22.591  23.010   1.894
98013W        W57758   2.252  16.106   2.247
98014W        W57759   3.784  15.668   1.399
98015W        W57760  15.753  26.158  14.410
98016W        W57761  14.727  44.294  10.072
98017W        W57762  33.502   2.293  13.051
98018W        W57763  29.432  34.445   0.907
98019W        W57764  19.207  20.748  11.884
98020W        W57765  14.779   0.419  14.399
98021W        W57766  27.987  33.548   0.446
98022W        W57767  28.496  35.101  14.391
98023W        W57768  34.582  15.763   2.774
98024W        W57769   0.431   9.670   4.814
98025W        W57770  14.251  36.991   0.458
98026W        W57771  21.021   6.303   2.858
98027W        W57772  13.262  11.302   1.306
98028W        W57773  23.710   9.746   1.389
98029W        W57774  41.306  23.609  14.357
98030W        W57775  18.112  16.172   0.286
98031W        W57776   8.347  22.071   0.400
98032W        W57777  17.126  17.279  10.921
98033W        W57778  40.382   7.278   3.279
98034W        W57779  21.238   3.843  14.846
98035W        W57780  25.594  19.242   3.786
98036W        W57781  23.004  32.094   2.267
98037W        W57782   2.428  18.771   3.348
98038W        W57783   9.292  29.589   3.851
98039W        W57784   8.757  24.664   3.234
98040W        W57785   9.324  42.955  14.815
98041W        W57786  36.429  44.782   2.894
98042W        W57787  17.559  42.324   3.297
98043W        W57788  18.162  28.092   1.370
98044W        W57789   9.819  20.639   2.405
98045W        W57790  37.432  39.527   2.241
98046W        W57791  12.817   4.244   4.283
98047W        W57792  20.255  37.916  13.062
98048W        W57793  11.664  20.189  13.972
98049W        W57794  18.622  34.048   3.246
98050W        W57795  37.064  29.068  14.816
98051W        W57796  38.388   5.386  12.039
98052W        W57797  30.932  22.013  12.981
98053W        W57798  13.833  41.314  12.549
98054W        W57799  36.413  17.688  12.443
98055W        W57800  37.842  43.505   3.816
98056W        W57801  41.311  16.180  14.965
98057W        W57802  24.511   1.862   4.302
98058W        W57803  14.746  24.070  14.499
98059W        W57804  35.022   3.387  14.028
98060W        W57805   5.302  15.667  13.885
98061W        W57806  30.448   5.298   0.919
98062W        W57807   1.934  16.281  13.320
98063W        W57808   7.875  12.156  11.982
98064W        W57809  42.526  32.019   1.318
98065W        W57810   7.829  29.493  12.343
98066W        W57811   4.876  35.495   4.343
98067W        W57812  38.069  14.147   5.305
98068W        W57813   5.930  24.009  12.849
98069W        W57814  15.793  29.651  14.505
98070W        W57815   8.386  23.590   1.373
98071W        W57816  15.766  26.505   0.270
98072W        W57817  24.975  37.026   4.754
98073W        W57818  18.701   2.820   0.434
98074W        W57819  12.352  28.635   3.785
98075W        W57820  42.955  35.523   2.395
98076W        W57821  10.807  43.384   0.837
98077W        W57822   9.805  43.777  13.885
98078W        W57823  30.620  22.102  14.492
98079W        W57824  23.169  30.057  12.476
98080W        W57825  14.221  42.027   3.818
98081W        W57826  15.783  42.821  11.026
98082W        W57827  31.980  21.714   3.739
98083W        W57828  38.928  24.673  12.882
98084W        W57829   9.246   6.331  11.889
98085W        W57830  22.155  13.216   4.635
98086W        W57831  23.211  25.573   2.251
98087W        W57832  42.384  19.214   2.685
98088W        W57833  11.629  33.092   5.221
98089W        W57834  22.212  37.451   1.411
98090W        W57835   9.890  41.967   0.329
98091W        W57836  14.725  16.097   3.658
98092W        W57837  35.991   4.763   3.366
98093W        W57838   6.827  14.792   0.279
98094W        W57839   3.316  16.612  14.391
98095W        W57840  24.547   0.338  14.465
98096W        W57841  13.232  17.104   1.241
98097W        W57842  31.963  24.606   0.873
98098W        W57843  25.165  41.975   0.398
98099W        W57844  20.174  16.734  10.630
98100W        W57845  37.359  34.957  13.472
98101W        W57846  37.469  21.238   3.813
98102W        W57847  40.343  24.116  12.077
98103W        W57848  16.731  29.996  14.784
98104W        W57849  33.547  28.043   2.293
98105W        W57850  43.480  26.140   0.912
98106W        W57851  26.667  39.540  13.028
98107W        W57852   0.362  41.380   2.297
98108W        W57853  31.604  42.937  11.559
98109W        W57854  39.397  42.016   0.381
98110W        W57855  34.934  44.905   4.659
98111W        W57856  29.126  38.419   4.124
98112W        W57857  38.495  44.373   1.705
98113W        W57858  26.206  39.501   3.849
98114W        W57859  24.492  20.603  13.386
98115W        W57860   6.864  37.019  10.629
98116W        W57861   5.257   8.736   0.835
98117W        W57862  23.494  37.971  14.295
98118W        W57863  34.103   2.319  13.494
98119W        W57864   5.277   2.437   4.808
98120W        W57865  19.620  20.651  11.903
98121W        W57866   7.385  36.905   3.315
98122W        W57867  30.563   7.294   1.909
98123W        W57868  18.760  15.089   3.358
98124W        W57869  18.231  22.672   1.304
98125W        W57870  16.790   3.827  12.565
98126W        W57871  21.043  31.575   5.799
98127W        W57872  20.758  21.691  10.528
98128W        W57873  36.407   1.773  13.309
98129W        W57874  44.930  34.458  10.473
98130W        W57875  41.857  35.511  12.482
98131W        W57876  22.590  38.976  11.939
98132W        W57877  38.057   4.821  10.946
98133W        W57878  43.272   8.846   3.654
98134W        W57879  27.006  20.081  13.017
98135W        W57880  31.039  31.981  13.460
98136W        W57881   7.876  34.590  10.546
98137W        W57882   3.330  43.848  13.486
98138W        W57883  19.066  38.345  11.981
98139W        W57884  13.253  38.976  12.049
98140W        W57885   5.718   9.271   1.361
98141W        W57886  35.374  24.050   2.737
98142W        W57887  18.079  22.228  12.458
98143W        W57888   0.491   2.930   4.685
98144W        W57889  31.006   8.845   3.297
98145W        W57890  30.441  32.574  13.826
98146W        W57891  14.605   8.335  10.472
98147W        W57892  42.472  23.095  13.510
98148W        W57893  34.425  28.997   3.814
98149W        W57894  19.612   5.391   2.218
98150W        W57895   6.769  35.062   2.389
98151W        W57896   0.344   1.910  13.961
98152W        W57897  13.218  10.362  11.057
98153W        W57898   7.697  17.272   0.807
98154W        W57899  27.127   5.310   2.671
98155W        W57900  40.333  24.556  11.406
98156W        W57901  14.792  14.722   2.389
98157W        W57902  36.027  40.987   1.885
98158W        W57903   0.481  42.895  11.499
98159W        W57904  15.624   0.255  11.092
98160W        W57905   0.455  42.988   4.263
98161W        W57906   7.816   3.743   4.136
98162W        W57907  33.455  11.841  11.892
98163W        W57908   5.864  38.829  13.342
98164W        W57909  44.493   4.323   2.206
98165W        W57910  14.763   4.723  14.311
98166W        W57911  30.542  39.318  10.566
98167W        W57912  37.461  35.058  14.863
98168W        W57913   5.743  22.744  13.480
98169W        W57914  17.693  13.788  14.821
98170W        W57915  25.161  33.626   3.242
98171W        W57916   7.696  25.144  13.387
98172W        W57917   1.398  28.602  13.793
98173W        W57918  18.605  18.749   1.233
98174W        W57919  33.058  35.529   0.885
98175W        W57920   3.437  29.653   0.291
98176W        W57921  22.626  19.100  11.922
98177W        W57922   4.703  27.189  11.003
98178W        W57923  30.042  43.770   2.356
98179W        W57924  37.581  28.009  10.543
98180W        W57925  35.382   4.427   3.650
98181W        W57926  22.252  35.983  12.444
98182W        W57927  21.578  28.146   2.363
98183W        W57928   7.408  22.178   0.846
98184W        W57929   4.352  11.859   2.708
98185W        W57930   4.907   2.319   3.809
98186W        W57931  21.034  30.156  14.500
98187W        W57932  22.023  37.063  14.965
98188W        W57933  39.063  42.386  14.914
98189W        W57934  32.075  17.104   3.312
98190W        W57935  17.560  44.394   0.346
98191W        W57936  15.271  44.993  14.493
98192W        W57937  21.709  33.552   0.385
98193W        W57938  15.584  28.647   0.329
98194W        W57939  42.921  39.423  11.916
98195W        W57940  17.199  15.182  12.013
98196W        W57941  23.025  25.477  11.002
98197W        W57942  33.404  10.756  13.944
98198W        W57943  20.736  44.852   3.294
98199W        W57944  28.943  18.712  14.436
98200W        W57945   8.827  14.321   1.815
98201W        W57946  17.149   0.447  11.038
98202W        W57947   8.824  36.990   1.721
98203W        W57948   4.295  41.922  10.531
98204W        W57949  19.758  15.219  12.407
98205W        W57950   5.786  31.542   2.354
98206W        W57951  42.400   8.194   2.184
98207W        W57952   8.697  15.107   3.835
98208W        W57953  41.329  43.510   0.961
98209W        W57954  40.501  30.028  11.413
98210W        W57955  14.112  37.002  14.904
98211W        W57956   7.347  19.158  13.876
98212W        W57957   0.825  28.088  12.033
98213W        W57958   3.302  38.873   2.223
98214W        W57959  41.865  44.919   2.213
98215W        W57960  23.605  17.758  13.890
98216W        W57961  35.931  43.329   0.865
98217W        W57962  11.780   1.753   2.314
98218W        W57963  13.826  33.913   3.301
98219W        W57964  20.735  44.840  10.468
98220W        W57965  28.627  25.140   2.222
98221W        W57966  29.498   7.388  12.957
98222W        W57967  30.521   3.439  11.450
98223W        W57968  21.250  15.753  13.416
98224W        W57969  10.654  25.129  11.521
98225W        W57970  34.568  25.169  13.910
98226W        W57971   9.303  36.349   1.728
98227W        W57972  15.236  41.497  13.367
98228W        W57973  31.535  15.591  13.996
98229W        W57974  38.866   7.232   3.851
98230W        W57975  44.285   0.833   4.709
98231W        W57976  40.539   1.458   2.342
98232W        W57977  31.104  34.920  13.871
98233W        W57978  14.252  33.491   1.400
98234W        W57979  25.122  40.379   2.364
98235W        W57980  19.535  32.120  13.967
98236W        W57981  11.825  29.929  10.643
98237W        W57982  16.712  11.152   3.198
98238W        W57983   9.328   4.775   4.331
98239W        W57984  40.420  12.340  14.461
98240W        W57985  11.683  24.007  10.446
98241W        W57986  18.585  12.169   0.393
98242W        W57987  41.415  40.498  13.460
98243W        W57988  40.047   1.773   2.360
98244W        W57989  40.887  31.959  12.893
98245W        W57990  26.688  44.282  10.483
98246W        W57991  26.622   3.904  11.108
98247W        W57992  38.560  33.542   1.916
98248W        W57993  43.780   7.194  10.455
98249W        W57994  22.649   5.425   9.951
98250W        W57995  23.506  35.097   2.178
98251W        W57996  44.433  25.581   4.263
98252W        W57997  14.633  40.846  10.511
98253W        W57998  10.150  39.401   1.295
98254W        W57999  22.612  44.267  11.104
98255W        W58000  42.450  27.147   2.389
98256W        W58001   2.351   9.844  11.560
98257W        W58002   3.447  40.442  14.279
98258W        W58003  14.320  26.507   2.338
98259W        W58004  11.858  23.042   3.746
98260W        W58005  38.072   0.803  10.997
98261W        W58006  33.944   4.380   3.730
98262W        W58007  27.956  19.675  13.534
98263W        W58008  12.187   4.719   1.226
98264W        W58009  38.334  21.208  10.090
98265W        W58010  16.211  34.596  11.056
98266W        W58011  43.365  25.017   2.402
98267W        W58012  13.636  17.698   2.833
98268W        W58013  31.067  18.598  13.315
98269W        W58014  37.378   2.833   0.295
98270W        W58015   7.786  15.795   1.853
98271W        W58016  38.441  42.821  13.900
98272W        W58017  32.901  42.433  13.920
98273W        W58018  32.014  35.994   1.288
98274W        W58019  37.964   8.255  11.419
98275W        W58020  26.585  40.322   2.832
98276W        W58021   7.799  27.620   0.375
98277W        W58022  16.144  34.027   0.775
98278W        W58023  20.642  17.572  11.536
98279W        W58024  40.995   9.673  12.081
98280W        W58025  35.600  28.506   1.824
98281W        W58026   6.745  21.090   0.899
98282W        W58027  25.179  25.580  14.427
98283W        W58028   9.643  23.593   1.866
98284W        W58029  13.836  32.423   4.775
98285W        W58030   3.439  31.987  11.500
98286W        W58031  32.030   6.410   0.476
98287W        W58032  36.496  42.377   3.870
98288W        W58033  33.476   0.841   1.268
98289W        W58034   1.293  37.008  13.900
98290W        W58035   2.364   1.826  10.468
98291W        W58036  22.638   5.825   4.629
98292W        W58037  16.584  31.511  10.542
98293W        W58038  26.666  23.706  10.435
98294W        W58039   5.922  23.513  12.981
98295W        W58040   7.880  23.187  12.008
98296W        W58041  14.151  21.518   0.266
98297W        W58042  42.995  12.217   1.252
98298W        W58043  30.453   2.728   0.738
98299W        W58044  29.061   7.814   2.376
98300W        W58045   1.461   0.486  14.866
98301W        W58046   8.801  25.032  13.929
98302W        W58047   4.715  37.836   1.932
98303W        W58048  28.579  10.835  13.883
98304W        W58049  35.435  14.593   4.685
98305W        W58050  21.147  33.011   4.666
98306W        W58051  14.241  28.014  10.925
98307W        W58052  42.492  38.407  11.602
98308W        W58053   0.369  34.921   9.993
98309W        W58054  30.441  23.213   4.687
98310W        W58055  42.021  22.681   2.396
98311W        W58056  43.425   9.330   0.871
98312W        W58057  27.982  20.037   1.252
98313W        W58058  31.047   3.767   0.398
98314W        W58059  15.184   9.254   3.216
98315W        W58060   3.318   7.294  13.370
98316W        W58061  36.498  30.130   4.729
98317W        W58062  14.614   6.252   1.299
98318W        W58063  40.483   2.752   0.766
98319W        W58064   7.338  17.619   1.352
98320W        W58065  44.316  32.460  13.008
98321W        W58066   1.867  35.375   3.385
98322W        W58067  36.592  15.319   0.332
98323W        W58068  16.206  34.472  13.828
98324W        W58069  34.536  37.438   0.958
98325W        W58070  30.642   3.319  10.979
98326W        W58071  27.559  29.967  10.945
98327W        W58072  38.353  37.085   0.344
98328W        W58073   6.820  29.071   0.268
98329W        W58074   4.834  40.385  12.076
98330W        W58075  26.012  34.570   0.830
98331W        W58076  29.535  39.971  12.983
98332W        W58077  20.258  35.071   4.775
98333W        W58078  26.657  27.564   2.302
98334W        W58079  17.120   0.360  11.930
98335W        W58080  40.952  22.231   2.392
98336W        W58081  14.274  27.074  11.483
98337W        W58082  37.042  13.833  10.535
98338W        W58083  32.537   0.300   4.155
98339W        W58084  42.977  10.694   4.226
98340W        W58085  43.295   6.246   1.884
98341W        W58086  13.615  25.529  11.499
98342W        W58087   4.367  39.975   9.966
98343W        W58088  24.159  29.118   3.740
98344W        W58089  22.063  36.999  12.929
98345W        W58090  19.761   6.688   1.428
98346W        W58091  37.041   5.308   2.737
98347W        W58092  18.637  17.084  10.943
98348W        W58093  18.157  16.204   3.730
98349W        W58094   8.379  13.676  12.825
98350W        W58095  42.029   5.739   1.876
98351W        W58096   3.709  12.148   3.188
98352W        W58097  10.156  36.415   4.253
98353W        W58098   0.267   7.345   3.261
98354W        W58099  36.918   2.324   0.382
98355W        W58100  12.788  27.944  14.322
98356W        W58101  19.571   4.225  12.372
98357W        W58102   4.780   3.861  13.952
98358W        W58103  23.706  17.266  11.863
98359W        W58104   8.190  24.145  10.456
98360W        W58105  43.350  17.579   2.785
98361W        W58106  26.567  29.499  10.465
98362W        W58107  15.313  36.077   0.756
98363W        W58108  20.760   0.319   5.596
98364W        W58109  22.048   5.791  14.835
98365W        W58110  15.711  12.769   0.955
98366W        W58111  38.502   3.278  13.364
98367W        W58112  15.646  18.698   4.137
98368W        W58113  13.272  44.816  14.323
98369W        W58114  14.634  10.149  11.502
98370W        W58115  21.649  38.352  14.281
98371W        W58116  21.713   7.767  11.561
98372W        W58117   1.268   2.321  10.584
98373W        W58118   1.457  39.977   0.271
98374W        W58119  15.709   0.977  12.977
98375W        W58120  32.905  13.234  11.039
98376W        W58121  26.570  34.047  12.890
98377W        W58122  43.892  23.519   0.892
98378W        W58123  15.328  23.176   0.773
98379W        W58124  14.625  41.423  11.529
98380W        W58125  33.479  43.936   4.655
98381W        W58126  21.744  29.554   0.294
98382W        W58127  33.539  25.160   1.365
98383W        W58128  14.144   4.216  10.579
98384W        W58129   2.908  36.542   3.382
98385W        W58130   9.378  19.120  12.490
98386W        W58131  21.574   1.954  11.855
98387W        W58132  18.592  28.649  13.918
98388W        W58133  32.897  39.520   2.331
98389W        W58134  32.462  35.588   4.199
98390W        W58135  19.208  28.466  13.323
98391W        W58136  38.957  29.466   4.317
98392W        W58137  25.023   0.422  13.979
98393W        W58138  12.850  18.729  13.971
98394W        W58139  19.095  14.162  12.055
98395W        W58140  30.965  29.976   1.885
98396W        W58141   4.245   9.391  10.459
98397W        W58142  39.974  29.970  12.886
98398W        W58143  34.875  35.996   4.127
98399W        W58144  38.960  13.324  11.912
98400W        W58145  24.557  37.546  12.565
98401W        W58146  44.884  35.407   4.333
98402W        W58147   2.375   2.866   0.282
98403W        W58148  39.856   4.934  12.854
98404W        W58149   8.267  30.109   0.444
98405W        W58150  24.478  22.731  11.038
98406W        W58151  28.532  37.499   1.846
98407W        W58152  23.497  12.281   2.763
98408W        W58153   3.287   1.967   2.795
98409W        W58154  21.622  23.008   2.879
98410W        W58155  30.913  17.630   4.348
98411W        W58156  15.264  18.152   4.250
98412W        W58157  18.247  17.247  11.116
98413W        W58158  19.742   4.814   1.752
98414W        W58159  24.549  16.682   2.309
98415W        W58160  25.576  44.489  14.488
98416W        W58161  28.520  32.468  12.364
98417W        W58162   5.908  32.038   4.251
98418W        W58163  15.580  35.530  12.457
98419W        W58164   3.306  25.552   5.217
98420W        W58165  40.017   5.932  13.539
98421W        W58166  44.904  38.454   1.702
98422W        W58167   6.358  12.696   3.252
98423W        W58168  12.249  22.692   2.828
98424W        W58169  12.303  42.856   2.338
98425W        W58170  29.436  27.604  13.434
98426W        W58171  27.674   9.301  13.472
98427W        W58172  14.685  41.859   2.232
98428W        W58173   3.745  43.941  13.988
98429W        W58174  10.701   7.221  11.467
98430W        W58175  29.540   0.301  10.950
98431W        W58176  25.580  24.681  14.802
98432W        W58177  37.459  28.098   0.324
98433W        W58178  28.068  33.546  12.859
98434W        W58179  21.198  28.062   0.729
98435W        W58180  41.298  32.422   1.870
98436W        W58181  13.266   1.459  14.298
98437W        W58182  19.685  25.550  11.475
98438W        W58183  20.136   7.824   2.685
98439W        W58184  29.100  11.219   3.643
98440W        W58185  39.558  31.971   3.316
98441W        W58186   7.791  18.642   4.792
98442W        W58187  11.155  40.872  11.993
98443W        W58188  36.470  40.948  13.959
98444W        W58189  25.022  31.574   1.821
98445W        W58190  12.734   8.712  13.014
98446W        W58191  41.791   4.748   3.820
98447W        W58192  31.588  41.426   4.249
98448W        W58193  34.023  30.035   2.400
98449W        W58194   0.894  37.874   4.321
98450W        W58195   9.233  32.095  11.535
98451W        W58196   6.245  31.973  10.460
98452W        W58197  18.249  10.303   4.121
98453W        W58198  38.889  13.713  11.977
98454W        W58199  29.668   8.805  11.922
98455W        W58200  31.498  31.900  11.124
98456W        W58201   0.484   1.365  12.504
98457W        W58202  30.017  34.969   3.370
98458W        W58203  28.498  17.108   2.364
98459W        W58204  34.000  15.699   4.212
98460W        W58205   7.770  25.146   1.736
98461W        W58206  12.616   7.313  14.315
98462W        W58207  32.585  25.505  12.467
98463W        W58208  29.966  26.189  11.027
98464W        W58209  21.196  31.644   9.932
98465W        W58210  43.407  30.581   4.782
98466W        W58211  29.093  42.451  12.842
98467W        W58212  44.280  43.373  13.385
98468W        W58213  23.060  10.378  10.420
98469W        W58214   3.436  20.214  13.953
98470W        W58215  38.414  24.711   2.738
98471W        W58216  12.189  25.991   0.960
98472W        W58217  38.540  35.415  14.428
98473W        W58218  14.683  32.972  13.517
98474W        W58219  16.756   2.254   0.932
98475W        W58220  36.066  39.894   4.345
98476W        W58221  24.689  41.814  12.558
98477W        W58222  10.152   1.344  12.405
98478W        W58223  14.794  42.495  10.515
98479W        W58224  35.512  29.527  11.022
98480W        W58225  40.403   8.691   3.674
98481W        W58226  42.943  34.894  14.792
98482W        W58227  17.659  30.597  12.945
98483W        W58228  13.695   7.337  14.900
98484W        W58229   3.443  40.424   2.314
98485W        W58230  18.788  17.191  10.438
98486W        W58231   3.337  30.134   1.713
98487W        W58232  24.132  21.185  14.309
98488W        W58233  22.558  10.321  12.853
98489W        W58234  26.098  23.181  11.867
98490W        W58235  36.369  27.084   1.868
98491W        W58236   8.869  37.937   4.698
98492W        W58237  33.440   4.421  14.338
98493W        W58238  35.101  30.429  13.388
98494W        W58239  28.514  28.563   2.225
98495W        W58240   4.806  29.515   1.770
98496W        W58241   4.314  10.378   3.667
98497W        W58242  19.598   6.236  10.562
98498W        W58243  32.958  40.051  12.343
98499W        W58244  16.723   4.277  12.501
98500W        W58245   6.682  24.564   0.783
98501W        W58246  38.526  43.846  12.046
98502W        W58247  37.561  14.595  14.397
98503W        W58248  38.429  31.010  12.567
98504W        W58249  39.981  41.789  10.461
98505W        W58250  26.559  41.537   1.227
98506W        W58251  37.033  28.660  13.461
98507W        W58252   8.251  16.584   4.797
98508W        W58253  33.599   4.330   3.183
98509W        W58254  20.609  37.981   1.892
98510W        W58255  37.582   5.257  13.037
98511W        W58256  33.092  21.597  13.541
98512W        W58257   2.871  29.563   3.307
98513W        W58258  25.166  12.783  13.810
98514W        W58259   2.421  44.866  10.514
98515W        W58260  32.501   1.293   2.294
98516W        W58261  39.429  32.040   2.788
98517W        W58262  43.308  15.611   3.331
98518W        W58263  18.056   5.892   0.801
98519W        W58264  15.130  29.955  12.356
98520W        W58265  23.583  11.622  13.398
98521W        W58266   5.791   2.749  13.035
98522W        W58267  37.442  32.960  10.584
98523W        W58268  30.486  13.189  14.861
98524W        W58269  41.936  14.744   2.337
98525W        W58270  36.382  31.483  12.552
98526W        W58271  43.812   1.975  13.862
98527W        W58272   1.871  17.268   3.862
98528W        W58273  14.178  18.770  13.792
98529W        W58274  24.142  10.802   2.864
98530W        W58275  10.356  22.580  14.491
98531W        W58276   8.687   7.258   0.864
98532W        W58277  30.977  32.927  12.570
98533W        W58278  31.564  29.057   3.377
98534W        W58279   5.422  39.392   1.701
98535W        W58280  40.960  30.978   3.716
98536W        W58281   8.857  16.151   1.768
98537W        W58282  37.399  14.802   4.762
98538W        W58283  17.798   6.888   4.178
98539W        W58284  20.548  23.613   1.756
98540W        W58285  42.320  11.702  13.482
98541W        W58286  29.458  12.181   3.695
98542W        W58287  16.762  16.191   4.679
98543W        W58288  29.462  11.708   3.250
98544W        W58289  40.360  25.558  11.498
98545W        W58290  27.676   0.979  12.848
98546W        W58291  25.673  19.695   9.976
98547W        W58292  44.295  27.010  14.912
98548W        W58293  33.973  37.918  11.501
98549W        W58294  19.199  41.002  14.860
98550W        W58295  28.149   1.334   1.799
98551W        W58296   3.920  30.076  12.925
98552W        W58297  24.640  29.961  11.092
98553W        W58298  14.682   8.338   4.182
98554W        W58299  11.778  22.203  13.840
98555W        W58300  31.643   5.313  10.522
98556W        W58301  13.318  42.497   4.598
98557W        W58302  41.443  32.483   1.442
98558W        W58303   2.872  29.101  10.141
98559W        W58304  44.898   7.890  14.022
98560W        W58305   6.869  21.128  13.992
98561W        W58306  22.687   4.444  13.423
98562W        W58307  42.376  40.980  12.564
98563W        W58308  22.150  29.137   2.829
98564W        W58309  17.225  25.030  10.419
98565W        W58310  24.022  32.615   2.188
98566W        W58311  10.214  38.405   4.151
98567W        W58312  23.988  34.008   0.411
98568W        W58313  29.069  18.121  11.106
98569W        W58314  16.721   8.396  14.969
98570W        W58315   5.277  34.419  13.381
98571W        W58316  29.145  18.656  13.984
98572W        W58317  15.594  34.415   2.188
98573W        W58318  25.479  33.551  11.083
98574W        W58319   9.387  23.568  12.015
98575W        W58320  17.249  24.180   3.701
98576W        W58321   5.756  11.691  10.541
98577W        W58322  41.453  12.206  14.296
98578W        W58323  29.044   4.833   2.196
98579W        W58324  25.200  37.535  14.968
98580W        W58325  26.184  39.420   3.298
98581W        W58326   9.323  15.730   5.186
98582W        W58327  14.253  18.284   2.257
98583W        W58328   3.756  16.110  14.367
98584W        W58329  26.982  16.671  12.418
98585W        W58330  24.084  36.878   1.370
98586W        W58331  21.200  40.858   2.322
98587W        W58332  23.097  16.656   1.707
98588W        W58333  19.637  10.160   4.210
98589W        W58334  40.487   1.760  10.047
98590W        W58335  26.592   2.353   1.869
98591W        W58336  36.568  27.523  13.980
98592W        W58337  18.771  40.831  11.436
98593W        W58338  13.199  18.673   2.364
98594W        W58339  40.972  29.664  13.361
98595W        W58340   2.964  36.926   4.182
98596W        W58341  38.067  40.910   2.339
98597W        W58342  26.144  42.479  12.543
98598W        W58343  39.416  14.606  12.454
98599W        W58344   3.236  31.965   3.731
98600W        W58345  12.815   6.217   0.746
98601W        W58346  43.462  12.818   4.637
98602W        W58347  12.661  16.568   1.419
98603W        W58348  29.061  34.463  12.347
98604W        W58349   8.339  15.268  12.956
98605W        W58350  28.497  10.257  13.859
98606W        W58351  22.519  23.090   2.881
98607W        W58352   5.207  20.624  13.910
98608W        W58353  35.371  15.610   4.667
98609W        W58354   0.869  27.446   5.705
98610W        W58355  41.371  15.289  14.800
98611W        W58356  28.471  28.510   4.143
98612W        W58357  33.529  25.029  11.898
98613W        W58358   1.739  23.235  14.462
98614W        W58359  17.598   9.882   1.716
98615W        W58360   7.287  18.058   4.794
98616W        W58361  36.569  34.940  13.399
98617W        W58362   2.923  30.600  13.397
98618W        W58363   5.400  15.268  13.904
98619W        W58364  21.563   7.288   0.755
98620W        W58365  31.625  32.980  13.979
98621W        W58366  14.813   4.833   1.322
98622W        W58367  17.086  20.070  10.456
98623W        W58368   9.766  27.064  11.554
98624W        W58369  35.603   4.243   2.411
98625W        W58370  31.554   6.900  13.907
98626W        W58371  41.943  17.129   0.468
98627W        W58372  33.013  23.556  12.063
98628W        W58373  38.503  34.066   4.812
98629W        W58374  17.580   9.271   0.795
98630W        W58375  14.657  25.041  14.801
98631W        W58376  22.550  27.675   3.171
98632W        W58377   8.876  28.139  13.332
98633W        W58378   7.838  24.085  12.409
98634W        W58379  26.152  37.941  10.936
98635W        W58380   3.949  18.128  12.447
98636W        W58381  28.023  31.963   1.265
98637W        W58382  14.214  26.548  10.058
98638W        W58383  25.475  15.716  11.538
98639W        W58384  27.155  34.892   3.810
98640W        W58385   9.701  24.655  12.857
98641W        W58386   8.727   9.710  13.843
98642W        W58387  18.654  13.837  14.028
98643W        W58388  42.404  30.158  10.472
98644W        W58389  13.794  43.014  11.880
98645W        W58390  40.995   3.862   4.131
98646W        W58391   8.891  44.437  12.080
98647W        W58392  28.628  43.354  12.023
98648W        W58393  33.906  39.839   3.737
98649W        W58394  18.703  23.620   1.382
98650W        W58395  18.293  31.911   4.667
98651W        W58396  11.287  38.991  11.468
98652W        W58397   7.224   1.944   4.756
98653W        W58398  36.351  41.510   2.274
98654W        W58399   5.299   7.847   0.863
98655W        W58400  16.293  39.473  13.388
98656W        W58401   4.772  24.976  12.540
98657W        W58402  26.574  14.636  12.580
98658W        W58403  37.895  10.263  13.383
98659W        W58404   8.873  28.933  13.537
98660W        W58405  44.338  23.116  12.914
98661W        W58406  17.639  42.998   1.788
98662W        W58407   6.232   5.343   0.265
98663W        W58408  43.458  34.590  13.934
98664W        W58409  33.131  39.900   0.340
98665W        W58410  37.982  11.797  12.422
98666W        W58411  14.757  13.748  13.469
98667W        W58412  16.094  15.116  13.336
98668W        W58413  37.565  33.597  10.904
98669W        W58414  14.628  15.159   0.264
98670W        W58415  34.434  11.853   0.313
98671W        W58416  26.536  28.498   0.299
98672W        W58417  38.981  25.708  11.453
98673W        W58418  23.183  13.642  13.383
98674W        W58419  34.464  37.951   0.339
98675W        W58420   7.718  22.085  11.983
98676W        W58421  36.088  13.279   1.712
98677W        W58422  14.158  30.024  11.522
98678W        W58423  28.482   6.315   2.841
98679W        W58424   4.267  33.019   0.244
98680W        W58425  31.458  43.942  10.552
98681W        W58426  14.597  11.863  14.412
98682W        W58427   2.365  28.966  12.943
98683W        W58428  16.651  26.207   3.758
98684W        W58429  31.405  21.530   0.766
98685W        W58430   2.732   9.330  12.482
98686W        W58431  27.463  13.135  13.438
98687W        W58432  12.202  21.091   1.726
98688W        W58433  26.600  44.832  14.951
98689W        W58434   4.924  11.204  13.494
98690W        W58435   0.470   9.311   2.875
98691W        W58436  44.421   0.900   1.904
98692W        W58437  30.614  29.622  11.127
98693W        W58438  17.713  15.224   2.351
98694W        W58439  31.050  29.557  11.383
98695W        W58440  35.598   7.676   0.811
98696W        W58441  24.222  35.400   4.121
98697W        W58442   6.259  38.069   0.819
98698W        W58443  13.150  32.403  11.523
98699W        W58444  26.687  15.113  10.514
98700W        W58445  42.855  33.121  11.516
98701W        W58446  29.031   7.202  12.001
98702W        W58447  42.297  26.645  12.420
98703W        W58448   8.826  37.500  10.556
98704W        W58449  14.298  34.017   2.257
98705W        W58450  27.041  14.810  14.465
98706W        W58451  38.026  12.651  14.314
98707W        W58452   1.774   6.832   2.181
98708W        W58453  24.590   6.732   1.341
98709W        W58454  12.730  16.742   0.483
98710W        W58455  20.642   8.743  12.072
98711W        W58456  30.478  16.766  14.988
98712W        W58457  35.387  36.946   1.385
98713W        W58458  15.202  32.974   3.741
98714W        W58459  37.988  42.888  13.398
98715W        W58460  25.214  17.222   0.441
98716W        W58461   3.944  24.227   4.638
98717W        W58462  22.163  17.284   2.417
98718W        W58463  26.021  44.263   2.858
98719W        W58464  35.583  20.674   1.738
98720W        W58465  19.736  41.509   0.853
98721W        W58466  16.109  35.873   2.316
98722W        W58467   1.364  28.470  14.884
98723W        W58468  12.273  12.294   2.877
98724W        W58469  19.590  22.109  12.518
98725W        W58470  44.857  16.611  12.887
98726W        W58471   1.294  33.544  12.830
98727W        W58472  44.339   7.718   4.648
98728W        W58473  24.676  30.488   1.243
98729W        W58474  15.304  40.022  14.443
98730W        W58475  11.844  43.995  11.530
98731W        W58476  10.185  29.663   2.318
98732W        W58477  40.875  42.858  13.798
98733W        W58478  36.452  35.454  10.618
98734W        W58479  44.842  14.817   2.416
98735W        W58480  22.194  29.570  12.944
98736W        W58481   3.768  12.846   0.812
98737W        W58482  18.156  16.573  10.545
98738W        W58483  39.877  29.557   0.306
98739W        W58484  38.991  43.780   3.833
98740W        W58485  12.128  23.510   1.890
98741W        W58486  31.612  40.977   0.789
98742W        W58487  12.334  25.531  14.385
98743W        W58488  33.045  23.020  13.976
98744W        W58489  15.681  37.922   1.352
98745W        W58490   7.233  27.170  12.995
98746W        W58491  33.029  33.995   1.882
98747W        W58492  11.780  10.874  10.999
98748W        W58493   5.317  18.766  11.521
98749W        W58494  36.906  36.514   3.653
98750W        W58495  44.826  14.281  13.980
98751W        W58496  44.943  15.153   1.285
98752W        W58497  28.011  25.680   0.845
98753W        W58498  17.071  31.999   4.785
98754W        W58499  27.635  43.009  14.509
98755W        W58500  24.687  29.918   2.872
98756W        W58501  14.117  27.558   3.240
98757W        W58502  12.307   3.258  11.080
98758W        W58503  34.009  39.884  13.037
98759W        W58504   7.706   3.784  10.460
98760W        W58505   2.388  16.241  11.004
98761W        W58506  15.260  37.568   3.707
98762W        W58507  30.000  18.766  14.921
98763W        W58508  16.077   1.344   1.751
98764W        W58509  39.491   9.367  12.871
98765W        W58510  20.684  29.139  12.853
98766W        W58511  19.711   5.729  14.971
98767W        W58512  26.691  23.654   4.322
98768W        W58513  34.058  34.983  10.923
98769W        W58514  10.665   8.201  14.791
98770W        W58515  27.603  31.562  12.849
98771W        W58516   0.746  11.323  11.049
98772W        W58517  11.838   9.810  12.865
98773W        W58518  30.990  18.720   1.835
98774W        W58519  44.319  14.168  14.497
98775W        W58520  12.324  22.231   4.718
98776W        W58521  43.420  14.788   4.175
98777W        W58522  43.397  17.783  12.040
98778W        W58523  16.660  34.064   1.802
98779W        W58524  30.641  13.819   2.675
98780W        W58525  23.656  10.233  12.365
98781W        W58526  10.383  43.285  12.072
98782W        W58527  32.531   3.219  12.061
98783W        W58528  44.358  31.601  11.381
98784W        W58529  19.740  38.869   3.296
98785W        W58530  30.086  17.603   4.610
98786W        W58531  30.971  34.113  13.420
98787W        W58532  39.853  21.079   2.800
98788W        W58533  22.686  18.204   0.865
98789W        W58534  21.256   0.894   4.720
98790W        W58535  22.245  41.390   3.775
98791W        W58536   1.875   6.749  14.501
98792W        W58537  36.576  25.645  12.517
98793W        W58538  40.351  26.140  10.590
98794W        W58539   0.344  15.679   0.389
98795W        W58540   5.897  38.420  10.923
98796W        W58541  31.039  40.378  12.858
98797W        W58542   8.276   9.219  12.952
98798W        W58543  23.174   2.227   2.759
98799W        W58544  41.497  25.689  12.975
98800W        W58545  30.468  22.520   1.391
98801W        W58546   9.361  25.998  12.435
98802W        W58547  10.245  31.111  11.549
98803W        W58548  14.810  30.480  12.088
98804W        W58549  33.526  10.338   4.228
98805W        W58550  36.861  23.649   4.120
98806W        W58551  19.589  20.127   3.864
98807W        W58552  33.929  19.164  13.370
98808W        W58553   1.373  38.392  14.838
98809W        W58554  42.891   6.312  11.413
98810W        W58555  34.961  29.575   3.849
98811W        W58556   4.708  34.094  10.042
98812W        W58557  34.552  37.337   2.892
98813W        W58558   2.750  38.073   2.265
98814W        W58559  42.330  26.665   4.699
98815W        W58560  40.524  23.214  11.022
98816W        W58561  35.046  12.625   1.400
98817W        W58562  36.349  34.032   1.893
98818W        W58563  24.062  24.007  10.897
98819W        W58564  10.643  17.298  12.023
98820W        W58565   8.848  19.083  11.507
98821W        W58566  33.973  31.922   2.336
98822W        W58567  13.833  40.967   2.322
98823W        W58568  33.426  15.815  10.890
98824W        W58569  31.919  14.636  12.064
98825W        W58570   9.395   1.379   2.856
98826W        W58571  14.672  24.518   0.927
98827W        W58572  43.006  12.663  14.363
98828W        W58573  38.366   6.800   2.700
98829W        W58574   8.349   1.439   1.906
98830W        W58575  17.730  11.350  14.466
98831W        W58576   2.812  28.637  14.987
98832W        W58577  30.945  17.131  14.875
98833W        W58578  14.319  30.450   4.264
98834W        W58579  40.537  38.540  12.848
98835W        W58580  32.616  26.573  10.495
98836W        W58581  31.551  33.497  10.001
98837W        W58582  38.450  44.839  13.895
98838W        W58583  14.745  38.481  11.951
98839W        W58584  26.971  25.627  12.036
98840W        W58585  11.286  23.994  12.347
98841W        W58586  19.635  42.930  13.948
98842W        W58587   6.190  23.584  11.120
98843W        W58588  15.105  40.967   2.304
98844W        W58589  26.157   1.839  13.430
98845W        W58590   8.279  13.130   2.372
98846W        W58591   4.768   1.243   2.732
98847W        W58592  21.693  16.159   3.333
98848W        W58593  14.779  20.119   4.273
98849W        W58594  38.058   0.866  14.371
98850W        W58595  24.225  17.158   0.296
98851W        W58596  11.261  28.958   2.808
98852W        W58597  42.383   8.667  14.970
98853W        W58598  13.651   5.726   4.242
98854W        W58599  34.036  33.938   1.380
98855W        W58600   9.294  17.175   1.897
98856W        W58601   0.382  43.879   2.733
98857W        W58602   1.263  38.067   1.925
98858W        W58603  33.451   7.306  12.877
98859W        W58604  14.335   6.346   1.832
98860W        W58605   3.298   9.752   4.756
98861W        W58606  40.493   6.331   3.861
98862W        W58607   4.943  42.291  10.938
98863W        W58608   4.247  20.098   1.829
98864W        W58609  25.001  41.388  13.480
98865W        W58610  36.521  15.818   2.895
98866W        W58611  10.775  37.555  14.009
98867W        W58612  30.941  29.664   1.813
98868W        W58613  30.155  22.081   0.800
98869W        W58614  44.368  34.438   4.353
98870W        W58615  40.468  37.926  13.363
98871W        W58616  25.603   9.198   0.837
98872W        W58617  25.565   2.745  11.041
98873W        W58618  18.082  18.187   3.287
98874W        W58619  25.604  31.086  10.461
98875W        W58620   0.827  23.056  11.872
98876W        W58621  13.279   7.245   5.184
98877W        W58622  33.874  27.462  14.874
98878W        W58623  18.733   3.298  10.013
98879W        W58624  26.996  13.665   1.847
98880W        W58625  40.333  16.104   2.311
98881W        W58626  20.680  38.433  11.901
98882W        W58627  22.565  35.100  11.484
98883W        W58628  23.013   9.173  11.554
98884W        W58629   2.442  23.111  10.489
98885W        W58630  21.159  22.647  13.314
98886W        W58631  29.652   0.913   4.673
98887W        W58632   4.932   6.870  14.420
98888W        W58633   0.433  23.699  12.340
98889W        W58634  35.471   5.435  13.809
98890W        W58635  41.347   8.728  13.420
98891W        W58636  18.676  20.038   1.320
98892W        W58637  36.971  35.077  13.344
98893W        W58638  19.562  39.904   3.372
98894W        W58639  38.457   4.356  14.959
98895W        W58640  33.105  15.177   2.834
98896W        W58641  25.527   2.874  13.463
98897W        W58642  13.838   3.387  12.574
98898W        W58643   8.701  22.190   3.373
98899W        W58644  38.941  40.844   0.299
98900W        W58645  28.988  31.433   3.751
98901W        W58646  36.375  18.143   2.234
98902W        W58647  27.535  12.730   1.338
98903W        W58648  38.521  37.463  12.845
98904W        W58649   4.400  11.167  12.473
98905W        W58650  23.059  38.534   2.371
98906W        W58651  23.540  26.080  12.541
98907W        W58652  21.180   6.211   4.827
98908W        W58653   0.893  40.362  13.930
98909W        W58654  40.515   7.337  14.810
98910W        W58655  38.061  18.160   1.727
98911W        W58656  17.686   0.462  11.475
98912W        W58657  11.642   8.680   2.231
98913W        W58658  13.829  21.753  13.855
98914W        W58659  26.600  29.945  13.924
98915W        W58660  18.106  26.081   3.635
98916W        W58661  42.447   4.225   2.219
98917W        W58662  16.685   0.305  11.066
98918W        W58663  19.717  23.532   4.175
98919W        W58664  26.562   1.957  10.608
98920W        W58665  38.497   1.798  13.363
98921W        W58666  26.027   5.298  14.869
98922W        W58667  32.483  34.569   2.377
98923W        W58668  32.915   4.229  13.395
98924W        W58669  36.493  16.673  14.941
98925W        W58670   2.321  17.290   5.185
98926W        W58671  17.124  32.890  10.979
98927W        W58672  32.988  12.807   4.603
98928W        W58673  17.098  14.672   3.154
98929W        W58674  15.639  25.515   3.726
98930W        W58675   2.866  42.834   2.797
98931W        W58676   0.914  21.587   5.282
98932W        W58677   8.283  23.117   2.396
98933W        W58678  29.106  33.065  14.508
98934W        W58679  43.335   8.292  11.085
98935W        W58680  40.382  29.131   3.830
98936W        W58681  27.953  32.603   4.218
98937W        W58682  15.729  11.692   4.811
98938W        W58683  39.919  13.211  14.421
98939W        W58684  24.520   6.259  12.031
98940W        W58685  22.713  43.474  11.547
98941W        W58686  14.298  32.456  11.510
98942W        W58687  19.282  36.509   1.710
98943W        W58688  33.917  26.109   3.821
98944W        W58689  13.224  33.114   4.191
98945W        W58690  44.395  10.247   2.218
98946W        W58691   9.345   5.828   3.255
98947W        W58692  27.159  13.843  12.902
98948W        W58693  41.521  30.436  14.992
98949W        W58694  22.128  32.630   3.824
98950W        W58695   3.250  21.176   2.358
98951W        W58696   7.275  44.847   3.720
98952W        W58697  23.103  44.400  11.108
98953W        W58698  21.695  10.172   1.776
98954W        W58699  44.002  12.759   3.361
98955W        W58700   2.894   5.885   4.792
98956W        W58701  11.278   1.293  11.442
98957W        W58702   5.353  22.632   4.246
98958W        W58703   6.366   6.411   3.851
98959W        W58704  14.310  33.095   2.290
98960W        W58705  37.836  36.434  10.934
98961W        W58706  35.484  18.251   4.234
98962W        W58707   3.837   5.298  12.052
98963W        W58708  18.665  38.035   2.178
98964W        W58709  36.965  43.963  11.001
98965W        W58710  37.450  40.352  13.497
98966W        W58711  13.654  13.679   2.878
98967W        W58712  34.520  38.994  13.331
98968W        W58713  19.095  21.180   5.109
98969W        W58714  12.311  23.992   3.364
98970W        W58715   0.286  28.492  11.555
98971W        W58716  13.269  16.601  13.892
98972W        W58717  16.252  11.660  12.030
98973W        W58718  15.184  41.362   0.381
98974W        W58719  18.184  28.975   1.256
98975W        W58720  21.587   8.279  11.512
98976W        W58721  12.798  25.995   0.811
98977W        W58722  10.349   0.489   3.279
98978W        W58723  38.016  20.069   3.794
98979W        W58724  43.789   2.725   4.159
98980W        W58725  15.148  29.144  14.904
98981W        W58726  16.802  20.059   4.298
98982W        W58727   9.376  37.876  10.950
98983W        W58728  15.119  23.040  13.499
98984W        W58729  29.105  38.009  14.021
98985W        W58730  11.200   5.881  13.959
98986W        W58731  36.589  15.113   3.867
98987W        W58732  16.238   5.248  13.427
98988W        W58733  28.142  17.195   1.854
98989W        W58734  20.106   3.742   2.248
98990W        W58735  26.510   9.771  11.109
98991W        W58736  11.857   2.903  11.944
98992W        W58737  42.516  20.557  13.803
98993W        W58738  39.925  36.444  11.573
98994W        W58739  21.076  22.217  11.120
98995W        W58740  37.396  41.953   5.317
98996W        W58741   2.332  20.080  13.050
98997W        W58742  28.560   9.213   4.188
98998W        W58743  26.513   1.310  11.581
98999W        W58744  22.091  24.139   3.185
99000W        W58745   4.403   2.364  14.392
99001W        W58746  17.152  21.065  10.128
99002W        W58747  15.730  29.623   1.267
99003W        W58748   5.923   0.476  13.937
99004W        W58749   1.802  19.667  12.436
99005W        W58750  34.468  16.098  11.890
99006W        W58751  19.276   4.426   3.822
99007W        W58752  34.596   6.236  14.320
99008W        W58753   8.852  24.145   1.853
99009W        W58754  26.994  21.536  12.572
99010W        W58755   1.376  30.962  12.374
99011W        W58756  36.562  11.212  10.011
99012W        W58757  16.274  41.041  11.879
99013W        W58758  17.578  23.603  10.896
99014W        W58759  41.489  40.024   2.334
99015W        W58760   9.326   4.839  10.940
99016W        W58761  44.460  38.857  14.032
99017W        W58762  10.647   1.788  11.942
99018W        W58763   8.360  18.198  13.962
99019W        W58764  18.147  14.703  13.432
99020W        W58765  43.805   3.373  10.618
99021W        W58766  26.667  20.172   4.805
99022W        W58767  16.713  16.222   1.763
99023W        W58768   4.271  39.990   0.734
99024W        W58769  21.729  25.042  11.036
99025W        W58770   2.280  15.771  12.377
99026W        W58771   0.820  36.519   4.304
99027W        W58772  22.030  18.196   2.417
99028W        W58773  23.197   0.852   1.306
99029W        W58774  15.201  36.071  11.400
99030W        W58775  32.127   8.244  14.931
99031W        W58776  31.939  41.912  13.999
99032W        W58777  44.959  28.958   0.451
99033W        W58778  30.526  11.814   1.904
99034W        W58779  32.542  28.592  11.937
99035W        W58780  27.451  23.047   0.948
99036W        W58781   6.223  31.599  14.999
99037W        W58782   4.336  39.007   1.701
99038W        W58783  13.223   3.935  14.828
99039W        W58784  20.730  20.152   0.791
99040W        W58785   8.852  34.890   0.441
99041W        W58786   5.708   1.444  12.409
99042W        W58787  42.841  37.462  12.355
99043W        W58788  27.536  42.912  13.843
99044W        W58789  14.296  14.694   5.278
99045W        W58790  33.083  13.661  10.547
99046W        W58791   5.331  32.054   0.768
99047W        W58792  33.997   1.310  14.490
99048W        W58793  43.893   1.277   0.905
99049W        W58794  44.790   6.911  14.469
99050W        W58795  37.834  12.252   4.751
99051W        W58796  23.595  41.295  10.541
99052W        W58797   1.462   0.451  13.941
99053W        W58798  15.698  26.523  11.958
99054W        W58799   2.283  19.279  14.382
99055W        W58800  14.212  28.510   0.897
99056W        W58801   9.877  34.516  11.578
99057W        W58802  24.651  37.046  14.455
99058W        W58803  14.638   8.218   4.764
99059W        W58804  18.724  19.556  13.037
99060W        W58805  35.986   7.189  12.438
99061W        W58806  14.754  34.000  13.987
99062W        W58807  34.914  28.528  12.528
99063W        W58808  13.160  18.743   4.253
99064W        W58809  33.986  20.159  14.845
99065W        W58810  42.869  35.377  14.293
99066W        W58811  23.591   3.438  14.935
99067W        W58812  17.280  38.440  14.769
99068W        W58813  24.200  37.957   1.888
99069W        W58814  18.669  36.002   2.786
99070W        W58815   1.253  33.915   0.961
99071W        W58816  41.498  35.974  12.554
99072W        W58817  26.627  36.910  12.093
99073W        W58818   7.808  40.325  12.362
99074W        W58819  10.861  13.791  14.337
99075W        W58820   3.883  15.276  13.040
99076W        W58821  15.187   4.299  11.988
99077W        W58822  32.016  26.531  14.379
99078W        W58823  44.293  38.848   3.829
99079W        W58824  29.113  27.689   0.917
99080W        W58825  40.817  21.079   1.891
99081W        W58826  36.091  33.916  12.525
99082W        W58827  27.680   9.782   0.889
99083W        W58828  41.391  32.635  13.498
99084W        W58829   2.256  20.127   2.812
99085W        W58830  27.058  19.608  12.842
99086W        W58831  37.933   4.300  10.892
99087W        W58832  10.807   9.815  11.934
99088W        W58833  31.056  21.677   0.929
99089W        W58834   0.381  18.591  14.794
99090W        W58835  35.447  12.345   4.125
99091W        W58836   4.729   3.304  11.480
99092W        W58837  43.007  22.178   1.378
99093W        W58838  44.483  43.872   4.708
99094W        W58839  17.253  40.995   0.774
99095W        W58840  40.367  18.154  10.628
99096W        W58841  40.312  38.974  11.520
99097W        W58842  28.024  24.105  13.874
99098W        W58843  43.816  28.538   5.595
99099W        W58844  31.099  36.542  13.435
99100W        W58845  12.226  34.952  13.495
99101W        W58846  28.042  30.610   2.846
99102W        W58847  23.501  26.653   1.747
99103W        W58848  21.751   3.303   3.325
99104W        W58849  24.550  36.393  10.951
99105W        W58850  12.200   8.737   3.863
99106W        W58851  43.920   6.767   3.838
99107W        W58852  34.395  16.180   4.739
99108W        W58853  44.795   7.201   2.857
99109W        W58854  22.153   3.447   4.140
99110W        W58855   9.852  44.984  12.448
99111W        W58856  16.678  36.961   2.784
99112W        W58857  23.598  14.689  14.001
99113W        W58858  26.604  29.630   0.805
99114W        W58859  33.118  36.906   2.258
99115W        W58860  19.655  32.439  10.909
99116W        W58861  43.397  21.698   0.290
99117W        W58862   1.267   7.836  14.007
99118W        W58863  24.065  16.100   0.412
99119W        W58864  35.944  20.091   0.334
99120W        W58865  43.930  44.451  13.958
99121W        W58866   3.319   1.915  13.374
99122W        W58867  38.074  27.154  14.907
99123W        W58868  24.579  15.151  13.967
99124W        W58869  44.811  18.679   2.409
99125W        W58870   6.870  35.409  10.621
99126W        W58871   5.865   0.291  10.410
99127W        W58872  16.594   5.429   2.413
99128W        W58873   2.425  33.585  11.953
99129W        W58874   7.707  38.062   2.829
99130W        W58875  14.138  18.081  12.545
99131W        W58876  20.547   9.888  10.979
99132W        W58877  15.726  15.691  14.958
99133W        W58878  32.914  34.521   3.705
99134W        W58879  13.791   8.400   2.386
99135W        W58880  21.557  30.952   1.313
99136W        W58881  34.912  30.928   2.270
99137W        W58882  12.223   8.879   4.775
99138W        W58883  26.169  40.937   3.697
99139W        W58884  19.221  17.144  13.389
99140W        W58885  10.746   5.823  14.306
99141W        W58886  29.665  32.569  10.549
99142W        W58887  16.606  18.264   3.867
99143W        W58888  36.938   0.872  11.982
99144W        W58889   4.268  37.883  14.945
99145W        W58890  27.119  26.121   4.794
99146W        W58891  31.897  34.096   3.328
99147W        W58892   6.752  43.417  13.987
99148W        W58893  41.335   7.394  11.861
99149W        W58894   3.934  21.715   3.731
99150W        W58895  37.021  15.229   0.323
99151W        W58896   9.149  44.957  14.290
99152W        W58897  15.768  41.886  13.980
99153W        W58898  33.580  16.309   0.292
99154W        W58899  18.166   3.354   3.342
99155W        W58900  23.546  28.668   4.290
99156W        W58901  39.967  23.641   3.202
99157W        W58902  20.272  39.843   1.397
99158W        W58903   7.392  33.534  14.852
99159W        W58904  19.242  34.492  11.861
99160W        W58905  44.350  38.328  10.488
99161W        W58906   5.819  29.628   1.358
99162W        W58907  34.597  32.566   3.277
99163W        W58908  28.994  25.067  13.462
99164W        W58909   0.306  30.983   2.357
99165W        W58910  35.910  25.714   3.847
99166W        W58911  37.850  32.958   4.143
99167W        W58912  12.637  40.456   2.699
99168W        W58913  34.889  22.626  14.821
99169W        W58914  15.329  35.449  12.023
99170W        W58915   1.815  18.581  11.962
99171W        W58916  44.958  42.858  14.909
99172W        W58917  10.242  39.954  14.274
99173W        W58918  12.613  31.622  11.509
99174W        W58919  24.025  44.951  14.801
99175W        W58920   8.707  27.467   4.139
99176W        W58921  28.142  14.609   2.816
99177W        W58922  23.681   6.887  11.985
99178W        W58923  21.099  22.087  10.578
99179W        W58924  37.408  16.616   0.432
99180W        W58925   1.880  28.525   3.830
99181W        W58926  15.625  17.186  10.118
99182W        W58927  29.060  35.009  11.584
99183W        W58928  20.032  15.748   3.792
99184W        W58929  17.737  41.535  14.964
99185W        W58930  17.791  28.451   3.308
99186W        W58931  30.994  11.226  11.565
99187W        W58932  15.654  35.922   0.888
99188W        W58933   0.464  26.980  12.916
99189W        W58934  38.873  20.188   1.247
99190W        W58935   6.795  26.043  13.873
99191W        W58936  38.886  19.686   3.193
99192W        W58937  34.591  21.556   0.304
99193W        W58938  42.356   1.801  14.993
99194W        W58939  21.258  35.540   3.258
99195W        W58940   4.744  29.938  11.107
99196W        W58941  22.022   1.318   1.876
99197W        W58942  27.081  18.790  10.161
99198W        W58943  35.071  24.076  12.553
99199W        W58944  39.548  18.092  11.416
99200W        W58945  17.245  41.007  13.043
99201W        W58946  41.479  40.037  11.584
99202W        W58947  39.992  26.008   1.274
99203W        W58948   3.903  42.452   1.249
99204W        W58949  20.564  37.556  10.623
99205W        W58950  37.948  18.598   2.302
99206W        W58951  16.303  34.877  12.024
99207W        W58952  41.834   0.450   4.321
99208W        W58953  14.301  41.789  14.979
99209W        W58954  15.647  19.203   2.694
99210W        W58955  43.973  43.509   4.597
99211W        W58956  11.139  23.061  11.546
99212W        W58957  31.019   7.814   1.440
99213W        W58958  23.565   8.391  13.050
99214W        W58959  40.009  38.846  14.800
99215W        W58960   3.720  30.984   4.611
99216W        W58961  18.764  42.963  14.844
99217W        W58962   4.783   8.686   3.866
99218W        W58963  39.524  14.702  12.043
99219W        W58964  21.201  43.833   2.852
99220W        W58965  37.014  42.447   1.212
99221W        W58966  35.395  14.178  14.472
99222W        W58967  16.107   8.828  12.536
99223W        W58968  41.810   7.868   4.598
99224W        W58969   2.910  17.133   0.426
99225W        W58970  21.095  16.693   2.670
99226W        W58971  18.124   9.769   1.326
99227W        W58972  37.515  35.413   2.896
99228W        W58973  25.478  16.683   3.740
99229W        W58974  23.614  41.524  13.982
99230W        W58975   0.340   2.942   3.318
99231W        W58976  31.905   9.369  11.534
99232W        W58977  28.672  13.304  11.399
99233W        W58978  43.854  17.757   1.774
99234W        W58979  22.194  44.923   0.248
99235W        W58980  12.732   3.780   0.913
99236W        W58981  33.470  24.635   0.404
99237W        W58982  16.164  26.459  13.921
99238W        W58983  12.220  31.458   0.330
99239W        W58984  38.497   7.404   0.410
99240W        W58985  22.045  39.933   3.219
99241W        W58986  15.730  16.290   1.437
99242W        W58987  43.842  39.059   4.301
99243W        W58988  35.098  16.711  13.324
99244W        W58989  20.175  39.058   1.319
99245W        W58990   0.922   5.252  14.962
99246W        W58991  44.409  10.159  12.914
99247W        W58992   4.379   9.707   2.204
99248W        W58993  37.396  28.588   3.259
99249W        W58994  16.723  42.371  12.994
99250W        W58995  13.769   6.208   2.224
99251W        W58996  41.983  39.926   9.995
99252W        W58997  31.524  40.458   2.309
99253W        W58998  38.413  13.694  10.907
99254W        W58999  17.770  37.873  13.454
99255W        W59000  35.041  25.144   2.279
99256W        W59001   8.829  12.837   4.173
99257W        W59002  30.136   8.296  12.342
99258W        W59003  39.367  13.615   1.348
99259W        W59004  30.538  11.810   1.384
99260W        W59005  39.377  25.712   0.479
99261W        W59006  12.327  44.809  14.440
99262W        W59007  32.413  35.052  12.560
99263W        W59008  18.655  27.006   1.221
99264W        W59009  10.719  32.624   4.602
99265W        W59010  32.417  19.154   3.717
99266W        W59011  13.265  23.707   3.283
99267W        W59012  23.597  41.012   2.793
99268W        W59013  22.565   6.316  12.945
99269W        W59014   6.723   3.420  12.434
99270W        W59015  21.197  16.778   3.665
99271W        W59016   9.235  10.698   1.248
99272W        W59017  19.779  18.755  12.510
99273W        W59018  33.568   0.296  14.324
99274W        W59019   3.711  43.294  10.614
99275W        W59020  29.494  13.629  11.581
99276W        W59021  13.671  23.560   2.851
99277W        W59022  12.313   7.723   0.768
99278W        W59023  30.588  42.923  11.858
99279W        W59024  33.457  17.086  13.983
99280W        W59025  26.500  11.662  14.793
99281W        W59026  11.133  33.387  12.081
99282W        W59027   4.442  16.125  14.977
99283W        W59028   4.336  17.156  10.569
99284W        W59029  22.066  40.501  14.031
99285W        W59030  41.868  33.587  10.915
99286W        W59031  36.849  41.790  10.493
99287W        W59032  24.501  38.461  14.994
99288W        W59033  44.412  15.713  13.840
99289W        W59034  37.023  10.733  11.046
99290W        W59035  29.954  28.157   2.693
99291W        W59036  22.157   1.466   0.426
99292W        W59037  44.883  15.657  12.380
99293W        W59038   3.816  13.313   3.373
99294W        W59039  22.086  43.287   2.733
99295W        W59040  15.702  27.689   1.778
99296W        W59041  25.665   4.842  14.017
99297W        W59042  38.533   3.323  11.463
99298W        W59043  24.993  23.989  10.620
99299W        W59044  36.910  31.105   0.748
99300W        W59045  27.605  28.672   1.808
99301W        W59046  39.962  11.710   0.882
99302W        W59047  43.402  41.517   5.268
99303W        W59048   7.319  33.015   1.930
99304W        W59049  22.045  39.330   3.754
99305W        W59050  44.318  22.614   4.335
99306W        W59051  29.003  38.330  13.352
99307W        W59052   6.417   1.423   2.795
99308W        W59053  12.246  20.228   3.198
99309W        W59054  24.094  29.597  10.465
99310W        W59055  15.321  19.703  14.308
99311W        W59056  12.308  20.208   1.912
99312W        W59057  25.592  10.680   2.869
99313W        W59058   2.295  29.455  12.356
99314W        W59059  23.617  39.371   1.812
99315W        W59060   3.393   0.886  13.382
99316W        W59061  12.789   9.313   1.416
99317W        W59062   9.358  39.470   0.801
99318W        W59063  27.691  20.629   1.897
99319W        W59064  42.467  29.523   2.239
99320W        W59065  28.585   8.894  13.446
99321W        W59066  14.220  37.065   4.756
99322W        W59067  31.950   2.837  13.870
99323W        W59068  25.589  11.217  10.007
99324W        W59069   5.345   1.318   1.701
99325W        W59070  10.319  24.037  13.975
99326W        W59071  34.927  27.625   0.851
99327W        W59072  39.946  11.648   2.254
99328W        W59073  10.343  10.703   1.394
99329W        W59074  15.220  21.240   5.145
99330W        W59075  13.270  18.774   0.851
99331W        W59076  32.419  38.353   4.640
99332W        W59077  13.646   3.447  10.461
99333W        W59078  24.675  43.366  12.058
99334W        W59079  29.162  20.757   3.789
99335W        W59080  38.473  26.701  10.502
99336W        W59081  10.675  26.596  12.950
99337W        W59082  22.247  19.648   3.864
99338W        W59083  26.040   2.382   0.773
99339W        W59084  22.687   9.238   0.271
99340W        W59085  38.924  30.987  14.959
99341W        W59086  36.522  12.360  13.310
99342W        W59087  10.663  32.075  10.942
99343W        W59088   7.745  22.183  12.465
99344W        W59089  13.623   9.151  11.096
99345W        W59090  31.476   0.754  13.380
99346W        W59091   0.318  41.007  11.378
99347W        W59092  34.040  15.749   0.358
99348W        W59093   1.250  17.191   4.231
99349W        W59094  14.245  29.012   3.777
99350W        W59095  10.799  36.429  14.460
99351W        W59096  25.471  14.247  11.858
99352W        W59097  36.905  39.979   2.865
99353W        W59098   4.221  39.352   9.611
99354W        W59099  11.628  21.651   4.274
99355W        W59100  19.549  32.520   0.393
99356W        W59101  40.802  19.731   1.246
99357W        W59102  42.981  43.337   0.938
99358W        W59103   8.728  34.050   4.168
99359W        W59104  31.130  27.110  10.440
99360W        W59105   4.738  26.039  11.415
99361W        W59106  39.047  35.865  11.074
99362W        W59107  14.654  11.751   4.753
99363W        W59108   1.760  43.396  13.937
99364W        W59109  36.067  11.150  13.317
99365W        W59110  26.615  25.210  11.890
99366W        W59111  20.663  44.799   1.915
99367W        W59112  23.239  17.643   5.180
99368W        W59113   1.827  21.600   9.998
99369W        W59114   3.412   1.341   3.713
99370W        W59115  22.090  36.357   0.253
99371W        W59116  16.157  29.105  11.494
99372W        W59117   8.700  17.621   1.264
99373W        W59118  22.703  22.196   1.699
99374W        W59119   6.881  24.621  14.917
99375W        W59120  18.188  22.510   1.895
99376W        W59121  30.035  19.166   4.725
99377W        W59122   7.839   0.891   1.420
99378W        W59123   5.244  42.381   4.619
99379W        W59124  35.084  17.209   3.282
99380W        W59125  39.535  32.434   2.245
99381W        W59126  36.356   4.324  13.054
99382W        W59127  38.550   4.413   0.911
99383W        W59128   7.854  18.655  12.084
99384W        W59129  15.646  42.976   1.736
99385W        W59130   0.438  12.833   4.694
99386W        W59131  16.304  26.556   0.281
99387W        W59132  24.589  33.953   3.633
99388W        W59133  25.042  16.799   0.308
99389W        W59134  29.640  17.084   1.738
99390W        W59135  10.780  37.077   5.259
99391W        W59136  38.518  33.049  14.967
99392W        W59137   7.842   4.711   0.283
99393W        W59138  22.588  15.673  14.953
99394W        W59139  22.136  37.425   1.910
99395W        W59140  14.802   7.320   5.316
99396W        W59141  15.151  23.593   0.252
99397W        W59142  14.782  18.214  11.506
99398W        W59143   8.395  44.399  11.938
99399W        W59144  38.923   2.828   2.864
99400W        W59145   5.405  34.038  13.915
99401W        W59146  19.092  34.599  13.421
99402W        W59147  43.775   3.824   3.234
99403W        W59148  17.196  38.026   0.928
99404W        W59149   5.426  30.509   0.390
99405W        W59150   9.229  29.923  11.458
99406W        W59151   7.766  30.921   3.295
99407W        W59152   9.757  29.617   1.744
99408W        W59153  21.696  16.172   3.794
99409W        W59154  13.340  18.231   0.394
99410W        W59155  43.295  16.695  13.477
99411W        W59156  43.446  41.856  12.040
99412W        W59157  16.108  32.080   0.406
99413W        W59158  25.500  24.489   3.671
99414W        W59159  31.596   2.301   9.978
99415W        W59160  19.588  43.435  13.967
99416W        W59161  34.052  16.730  14.384
99417W        W59162  30.657  35.875  14.475
99418W        W59163  27.153  30.588   5.283
99419W        W59164   0.958  15.668  13.863
99420W        W59165  32.948  24.215   3.656
99421W        W59166   7.268  17.194   3.845
99422W        W59167  22.629  20.087   2.845
99423W        W59168  31.450   8.306   4.188
99424W        W59169   0.763   5.247   2.865
99425W        W59170  18.642  41.356   4.196
99426W        W59171  43.924  44.843  12.425
99427W        W59172  23.710   9.764  12.948
99428W        W59173  36.989  34.865  11.514
99429W        W59174  33.108   5.730  13.412
99430W        W59175  17.629  27.574   3.805
99431W        W59176  31.912  33.623  14.925
99432W        W59177  13.280  31.554   4.729
99433W        W59178  40.393  40.324  12.487
99434W        W59179  29.571  36.555   4.313
99435W        W59180  19.190  10.694   3.667
99436W        W59181  40.839  19.682   4.211
99437W        W59182  42.427  23.170  13.000
99438W        W59183  20.248  44.847  11.517
99439W        W59184   1.965  25.499  12.875
99440W        W59185  21.693  27.581  11.128
99441W        W59186  28.560   4.393  14.847
99442W        W59187  22.558  32.897  14.848
99443W        W59188   7.261  25.712  14.900
99444W        W59189  30.998  22.166   1.750
99445W        W59190  10.698  14.764   0.895
99446W        W59191   8.783   4.855   4.708
99447W        W59192   8.660  28.612  11.506
99448W        W59193  37.518  10.677   0.744
99449W        W59194  25.111  12.255   4.193
99450W        W59195  13.678  35.434  10.420
99451W        W59196  25.699  25.479   0.343
99452W        W59197   3.864  23.657  11.067
99453W        W59198   2.338  32.028   4.274
99454W        W59199  40.525   0.895  14.978
99455W        W59200   0.474   0.349   2.680
99456W        W59201  19.762  44.343  11.613
99457W        W59202  41.971  23.497   1.291
99458W        W59203   1.771   4.940   3.636
99459W        W59204  26.698   7.676   0.862
99460W        W59205  15.610  40.347  10.557
99461W        W59206  23.046   0.384   0.483
99462W        W59207  10.865  17.615   3.847
99463W        W59208  36.846  39.384   2.361
99464W        W59209   6.878  31.115   3.852
99465W        W59210  29.111  22.667   2.319
99466W        W59211  15.714  34.098  12.559
99467W        W59212  23.692  16.294  12.844
99468W        W59213  35.377   8.239  12.919
99469W        W59214  38.948  36.862   3.867
99470W        W59215  36.477  12.205   3.254
99471W        W59216  28.649  41.390  12.425
99472W        W59217  35.936   8.209  14.910
99473W        W59218  38.852  33.561  12.369
99474W        W59219  36.353   3.263   1.397
99475W        W59220  28.497  12.672   0.911
99476W        W59221  18.581  28.968  11.479
99477W        W59222  41.506   1.392  13.509
99478W        W59223  32.512  44.950   4.766
99479W        W59224  42.983  34.439   2.255
99480W        W59225  42.524  44.893  14.413
99481W        W59226   8.301  30.645   4.336
99482W        W59227  28.573   9.158   3.831
99483W        W59228  43.344  32.426  13.800
99484W        W59229  15.806  23.682  13.393
99485W        W59230   8.177   8.728  10.897
99486W        W59231  30.624  11.212  12.413
99487W        W59232  37.072  35.476   2.259
99488W        W59233   0.488  20.049   0.342
99489W        W59234  31.434   7.215   2.180
99490W        W59235  27.993  41.902  14.793
99491W        W59236  33.438  14.193  10.033
99492W        W59237   2.887  15.618  11.966
99493W        W59238  24.088  13.164  13.538
99494W        W59239  27.479  24.199  13.533
99495W        W59240   1.446  12.132   0.327
99496W        W59241   8.384  22.574  12.975
99497W        W59242  34.031  31.992  14.831
99498W        W59243  10.850   4.728   4.811
99499W        W59244  26.994   3.875   4.205
99500W        W59245  25.534  40.382   1.908
99501W        W59246  40.414  30.437  10.430
99502W        W59247   4.402   6.878   4.174
99503W        W59248  23.082  27.975  11.559
99504W        W59249  36.441  40.404   4.179
99505W        W59250  11.128  19.145  11.104
99506W        W59251   7.824  39.525   2.748
99507W        W59252   1.933   1.287  14.970
99508W        W59253  43.887   6.336   1.838
99509W        W59254  20.756   8.162  14.492
99510W        W59255  14.755  18.261   0.768
99511W        W59256   3.309  43.385   5.281
99512W        W59257  21.599  12.639   1.325
99513W        W59258  29.122  38.941  13.384
99514W        W59259   8.703  35.368   1.889
99515W        W59260  15.176  11.208   0.966
99516W        W59261  14.590   7.247   9.993
99517W        W59262  10.692   0.445   1.773
99518W        W59263  36.858  19.173   0.427
99519W        W59264  12.849  12.154  11.019
99520W        W59265   3.948   9.254  11.064
99521W        W59266  34.511  23.210   0.800
99522W        W59267  27.646  20.137   4.668
99523W        W59268  11.868  23.621  12.381
99524W        W59269  38.878  15.122  14.012
99525W        W59270  24.592  17.246   0.252
99526W        W59271  40.326  11.195  13.792
99527W        W59272  19.046  23.096   4.705
99528W        W59273  35.870  19.181   2.341
99529W        W59274  16.182   3.781   2.821
99530W        W59275  30.932   6.881  12.521
99531W        W59276  41.035  31.919   4.242
99532W        W59277  37.489  30.163  12.080
99533W        W59278   6.736   4.242   4.213
99534W        W59279  38.544  43.893   4.734
99535W        W59280  16.194  33.038  13.860
99536W        W59281  20.542   9.161  12.561
99537W        W59282   8.291  21.659  14.384
99538W        W59283  41.398  33.966   4.247
99539W        W59284   3.820  22.104   3.309
99540W        W59285  32.118  42.314   1.778
99541W        W59286  44.846  10.685   3.330
99542W        W59287  23.194  11.626   2.341
99543W        W59288  37.891  35.059   0.370
99544W        W59289   8.295  42.298  13.382
99545W        W59290  40.037  28.016  14.001
99546W        W59291  10.731  15.592  12.364
99547W        W59292   4.869  24.677   0.781
99548W        W59293  22.202  30.567  13.475
99549W        W59294   7.713  43.989   2.329
99550W        W59295  23.726  29.627  10.046
99551W        W59296  10.243  10.240   1.219
99552W        W59297   7.793  33.607   5.197
99553W        W59298  39.465  36.868  12.912
99554W        W59299  39.983   1.375   4.296
99555W        W59300  41.437  31.470   1.450
99556W        W59301   2.735  20.539  10.631
99557W        W59302  16.282   9.215  14.816
99558W        W59303  11.687  39.950   3.776
99559W        W59304   6.202  27.539   4.788
99560W        W59305  42.454   7.371  11.009
99561W        W59306   7.878  23.651   2.842
99562W        W59307   5.771  19.625  14.441
99563W        W59308  19.744  12.211  13.538
99564W        W59309  25.480  18.643  13.411
99565W        W59310  24.012   3.919   0.317
99566W        W59311  31.098  12.242  13.403
99567W        W59312  27.961  11.834  11.982
99568W        W59313  25.972   5.864  12.964
99569W        W59314  10.280  22.096  13.920
99570W        W59315  43.970  20.620  10.994
99571W        W59316  14.239   1.790   1.788
99572W        W59317  41.887  21.583  13.900
99573W        W59318  12.839  42.300   3.863
99574W        W59319  41.413  19.688   1.408
99575W        W59320  12.148  26.168   3.868
99576W        W59321  34.095  32.519  14.511
99577W        W59322  11.746  25.653  14.849
99578W        W59323  10.689  13.311  11.477
99579W        W59324  27.666   5.827   1.379
99580W        W59325  27.519   3.913   3.767
99581W        W59326  22.175  28.650   2.802
99582W        W59327  31.477  26.572  11.088
99583W        W59328  14.193  14.664  12.572
99584W        W59329  31.530  35.966  11.612
99585W        W59330   9.749  38.371  13.919
99586W        W59331   1.824   6.275  14.348
99587W        W59332   5.425  31.906  14.952
99588W        W59333  14.655  10.773   2.825
99589W        W59334  10.752   1.880   4.335
99590W        W59335  19.200  17.737  11.104
99591W        W59336   5.708  12.281   0.904
99592W        W59337  43.940   4.733   0.335
99593W        W59338  39.435  25.202  13.959
99594W        W59339  44.823   3.231  12.964
99595W        W59340  44.469  31.089   0.349
99596W        W59341  23.199  28.119  13.513
99597W        W59342  14.261  42.992   4.727
99598W        W59343  14.790  35.064  14.012
99599W        W59344  37.889  12.290  11.871
99600W        W59345  33.609  22.076   0.248
99601W        W59346  15.118   2.790   3.180
99602W        W59347  40.479   7.837   3.334
99603W        W59348  12.719   9.855  13.369
99604W        W59349  32.972  31.075  12.536
99605W        W59350  29.026  35.878   1.434
99606W        W59351  10.245   9.311   4.214
99607W        W59352  44.275  14.657   3.158
99608W        W59353  40.872  11.309  13.434
99609W        W59354  15.619  25.477   1.867
99610W        W59355   7.806  24.220  14.504
99611W        W59356  31.955  36.533   2.671
99612W        W59357   3.304  41.897   2.316
99613W        W59358  30.558  42.347  12.006
99614W        W59359  38.887  26.097   3.708
99615W        W59360  32.108  10.843  11.585
99616W        W59361  12.721  43.817   2.406
99617W        W59362  41.038  27.494  12.003
99618W        W59363  24.156  30.966   2.820
99619W        W59364  31.081   1.286   5.127
99620W        W59365  15.192  25.643  14.775
99621W        W59366   2.780  18.179  13.059
99622W        W59367  24.663  44.848   1.362
99623W        W59368   1.369  31.140  13.013
99624W        W59369  34.555  34.963   4.239
99625W        W59370  33.602  33.995  12.463
99626W        W59371  23.505   7.196   4.604
99627W        W59372  35.453   7.712   1.286
99628W        W59373  16.259  10.295  13.038
99629W        W59374  30.434  36.369  12.487
99630W        W59375  42.369  23.120  14.508
99631W        W59376  12.618  43.015   2.286
99632W        W59377   9.338   7.385   1.324
99633W        W59378   6.314  33.384   3.673
99634W        W59379  39.882   3.228   2.793
99635W        W59380  30.926   5.388  13.390
99636W        W59381  27.962  24.516   4.330
99637W        W59382  34.098  40.505   3.824
99638W        W59383  42.008  16.591   9.948
99639W        W59384  29.010  36.974   4.633
99640W        W59385   8.272  12.337   1.730
99641W        W59386  16.667   3.876  11.999
99642W        W59387  29.666  37.341  10.087
99643W        W59388  34.540  42.935  11.856
99644W        W59389  34.466  42.361  10.940
99645W        W59390  12.763  31.957  11.544
99646W        W59391   7.393   8.400   4.838
99647W        W59392  19.721  11.851   3.174
99648W        W59393  32.535   5.712   2.876
99649W        W59394  36.875  38.335  13.349
99650W        W59395  20.062  43.827   0.948
99651W        W59396  38.328  15.225   4.172
99652W        W59397   8.705  22.661   4.354
99653W        W59398  17.213  26.534   4.688
99654W        W59399  29.607  38.366   0.293
99655W        W59400  28.137   1.738  12.074
99656W        W59401  26.645   2.262  14.306
99657W        W59402  36.410   9.818   0.832
99658W        W59403  44.434  40.881   3.293
99659W        W59404  42.410  27.670   3.832
99660W        W59405   4.227  14.706   2.286
99661W        W59406  33.401  41.908   1.830
99662W        W59407   7.886  13.289  10.522
99663W        W59408  14.318   2.959   4.834
99664W        W59409   3.393  22.011   3.380
99665W        W59410  32.550  11.298   0.857
99666W        W59411  29.545  14.628   3.282
99667W        W59412   1.316   5.857  10.544
99668W        W59413   0.876  22.528   1.443
99669W        W59414  17.672  13.161  11.039
99670W        W59415   3.362  23.644  12.005
99671W        W59416  19.684  44.783   0.326
99672W        W59417   9.873   9.799  14.403
99673W        W59418  43.409  28.626  13.821
99674W        W59419   9.347   7.291   3.775
99675W        W59420  12.649  15.670  11.924
99676W        W59421   0.468  27.122   4.720
99677W        W59422  42.511   6.240  11.537
99678W        W59423  34.429  11.315  12.968
99679W        W59424  10.348   9.325  11.042
99680W        W59425  43.364  24.085   1.714
99681W        W59426  42.356  33.581   0.807
99682W        W59427  16.154  38.877  13.397
99683W        W59428   4.912  10.156   1.719
99684W        W59429  30.083  16.620  11.055
99685W        W59430  13.795  36.393   3.352
99686W        W59431  26.697  32.106  12.850
99687W        W59432  17.157  10.295  10.618
99688W        W59433  34.992  29.146   1.218
99689W        W59434  21.145  40.321  12.005
99690W        W59435  27.161  39.016  13.991
99691W        W59436  12.701  44.967  14.449
99692W        W59437  37.018  14.803  13.883
99693W        W59438  19.064  40.363   2.683
99694W        W59439   2.887   3.816   4.319
99695W        W59440  42.404   1.958   3.372
99696W        W59441  40.932  33.912  11.557
99697W        W59442  12.235  43.470   4.663
99698W        W59443  20.751   0.744   5.088
99699W        W59444  30.961  22.548  10.007
99700W        W59445  17.291   0.780   3.194
99701W        W59446  15.150  22.692   2.756
99702W        W59447  34.002  15.092   1.802
99703W        W59448   1.792   2.910  12.392
99704W        W59449  42.898   8.761   1.298
99705W        W59450  41.002   5.349   4.134
99706W        W59451  11.723   4.741   1.447
99707W        W59452  12.339   1.824  14.918
99708W        W59453   5.782  34.889   4.305
99709W        W59454  18.295  28.647   3.240
99710W        W59455  25.678   2.786   4.742
99711W        W59456  38.042  18.566   1.383
99712W        W59457  39.872  38.072   3.861
99713W        W59458  29.597  26.053   2.757
99714W        W59459  27.533  30.416   1.285
99715W        W59460   3.925  35.431  14.497
99716W        W59461   2.309  15.609  11.891
99717W        W59462   5.266  19.116   4.328
99718W        W59463  11.865  44.776  12.843
99719W        W59464   8.340  25.682  14.923
99720W        W59465  40.333   9.839  12.434
99721W        W59466  28.602  38.830  12.848
99722W        W59467  27.573  16.669  11.451
99723W        W59468  32.492   4.895  13.349
99724W        W59469   8.359  14.331   1.244
99725W        W59470  27.477  15.783   2.419
99726W        W59471  14.121  32.055   4.254
99727W        W59472   9.724  43.932   4.120
99728W        W59473  31.976  10.793  10.513
99729W        W59474  22.525  18.093   4.837
99730W        W59475  31.467  44.383  10.531
99731W        W59476  31.447  33.942  12.972
99732W        W59477   9.826  10.254   2.668
99733W        W59478  42.305  37.359   2.407
99734W        W59479  23.193   2.354   0.755
99735W        W59480  42.482  44.822  13.356
99736W        W59481   4.244  26.570   5.100
99737W        W59482  11.285  24.057   4.116
99738W        W59483  31.508  30.054  12.875
99739W        W59484  11.631  13.323   1.394
99740W        W59485  28.978  34.057   3.852
99741W        W59486  26.117  33.507   4.612
99742W        W59487  16.708   3.338  14.823
99743W        W59488  23.222  27.464   2.853
99744W        W59489  31.063  12.710   0.774
99745W        W59490  35.377  30.042   0.765
99746W        W59491  33.077  21.736   3.204
99747W        W59492  20.635   4.749   2.714
99748W        W59493  39.362  34.490   3.314
99749W        W59494  25.488  28.958   2.831
99750W        W59495   9.762  10.358  13.792
99751W        W59496   3.332  26.675  12.093
99752W        W59497   3.385  36.863  13.792
99753W        W59498  35.957  44.401  11.412
99754W        W59499  10.775  40.305  11.043
99755W        W59500  11.230  24.062   2.367
99756W        W59501  34.863  13.229   2.226
99757W        W59502  13.197   0.253  11.078
99758W        W59503  42.823  34.531   2.859
99759W        W59504  31.964   8.817  10.564
99760W        W59505  26.034  24.521   2.837
99761W        W59506   9.727   6.751   2.236
99762W        W59507  33.526  32.969  13.926
99763W        W59508  21.719  25.013   1.757
99764W        W59509  39.527  42.995   2.394
99765W        W59510   0.385  13.166  10.972
99766W        W59511   4.239  14.806   2.793
99767W        W59512  40.831  16.659   2.853
99768W        W59513  30.624  29.956   2.381
99769W        W59514  14.330  12.351   3.268
99770W        W59515  30.612  14.605  13.855
99771W        W59516   6.195  17.647   1.386
99772W        W59517  12.804  12.116   0.326
99773W        W59518   3.354   6.830  14.890
99774W        W59519  21.559  13.844   4.117
99775W        W59520  30.496  16.215   1.890
99776W        W59521  41.822  33.519   0.468
99777W        W59522   4.266  36.852   0.892
99778W        W59523  12.302  37.523  14.850
99779W        W59524  14.788  35.487   2.349
99780W        W59525   4.425  44.919  11.489
99781W        W59526  26.101  28.459   1.388
99782W        W59527  15.085  43.469   4.675
99783W        W59528  41.381  13.829   2.293
99784W        W59529  22.181  43.800  14.379
99785W        W59530  40.983  12.251   1.363
99786W        W59531  34.597  12.777   2.199
99787W        W59532  31.472  17.226   3.679
99788W        W59533   1.459  43.421   3.643
99789W        W59534  24.112  11.812  11.586
99790W        W59535   1.883  27.042  12.866
99791W        W59536   3.334   4.243  14.759
99792W        W59537  40.010  30.037   3.778
99793W        W59538  41.426  29.535   1.310
99794W        W59539  38.985   0.366  14.862
99795W        W59540  38.868  33.027  11.565
99796W        W59541  37.346   6.351  13.053
99797W        W59542   7.852  19.583   1.292
99798W        W59543  14.098   5.835   2.216
99799W        W59544  32.113   2.281  14.869
99800W        W59545  25.179  40.376  14.829
99801W        W59546  20.035  20.706  11.027
99802W        W59547   4.730   3.373   4.806
99803W        W59548  16.180   0.421  13.799
99804W        W59549  21.216  41.961  11.545
99805W        W59550  22.619  18.556   2.190
99806W        W59551  21.050  25.621   4.704
99807W        W59552  23.572  23.036  12.938
99808W        W59553  14.149   7.775  10.518
99809W        W59554   5.730  21.099   2.880
99810W        W59555  36.412  32.138  13.813
99811W        W59556  31.560  36.992   3.815
99812W        W59557  36.995  16.753  13.844
99813W        W59558   6.870  19.092   0.895
99814W        W59559  26.208  29.947   3.646
99815W        W59560  43.853  38.920  13.922
99816W        W59561  25.175   7.349   2.376
99817W        W59562  14.326  19.643  10.133
99818W        W59563  20.527   8.160   4.747
99819W        W59564  44.804  23.987   3.328
99820W        W59565  24.542  43.882   4.273
99821W        W59566   1.842   0.443  11.427
99822W        W59567   5.276  10.255  12.396
99823W        W59568  29.090  16.274  13.903
99824W        W59569   7.884  10.341  11.421
99825W        W59570   8.297   9.738  13.042
99826W        W59571   7.300  12.857  11.446
99827W        W59572  23.562   4.428   3.677
99828W        W59573  25.965  39.983   4.716
99829W        W59574  23.088   9.825  11.954
99830W        W59575   9.657  11.659   0.814
99831W        W59576  11.341  28.147  10.475
99832W        W59577   3.225  43.886   2.689
99833W        W59578  36.459   7.869  11.930
99834W        W59579  40.415   7.811   3.812
99835W        W59580  13.294  11.308   3.282
99836W        W59581  34.110  37.916  13.865
99837W        W59582   1.432  39.481   9.599
99838W        W59583  29.069  15.238  14.759
99839W        W59584  19.229  22.214  13.531
99840W        W59585  43.451  15.823   4.283
99841W        W59586   9.173  26.013   1.728
99842W        W59587   9.719  22.042   0.945
99843W        W59588   3.836  41.303  11.086
99844W        W59589  14.123  32.629  10.990
99845W        W59590  32.905   3.796   4.758
99846W        W59591   4.289   0.371  10.495
99847W        W59592   4.750  22.069  12.397
99848W        W59593  23.548  24.174  10.994
99849W        W59594  18.079  36.925   4.697
99850W        W59595   9.770  23.501  14.786
99851W        W59596  33.893  39.469   2.802
99852W        W59597  10.875  24.682  11.587
99853W        W59598  18.208   2.374  11.883
99854W        W59599  33.903  30.053  14.794
99855W        W59600  21.246   2.937   1.448
99856W        W59601  34.946   8.827  13.005
99857W        W59602  43.831  11.737   4.837
99858W        W59603  17.578  43.472  12.370
99859W        W59604  36.437  27.057  14.285
99860W        W59605  28.005  23.062   9.931
99861W        W59606  43.788  34.957  10.567
99862W        W59607  39.484  31.562  14.894
99863W        W59608  37.005  29.600   2.724
99864W        W59609  13.234  44.441  10.945
99865W        W59610  13.620  42.779   3.271
99866W        W59611  25.059  30.413   4.791
99867W        W59612  12.318  25.142  14.777
99868W        W59613   8.687   1.977   2.295
99869W        W59614   7.375  43.499   3.262
99870W        W59615  12.142  32.616   3.353
99871W        W59616  28.536  16.257  13.354
99872W        W59617  34.474  34.535   1.755
99873W        W59618  10.713   6.914   4.176
99874W        W59619  41.988  42.520  12.494
99875W        W59620  36.029   3.809   2.790
99876W        W59621  33.070  29.948   3.205
99877W        W59622  28.670   0.409   2.316
99878W        W59623  10.299  15.761  11.964
99879W        W59624  16.783  24.723  11.955
99880W        W59625  39.910  33.944   1.412
99881W        W59626  27.448  18.638   3.740
99882W        W59627  23.021  32.527  14.000
99883W        W59628  35.554  34.888  14.827
99884W        W59629  19.765   4.248   2.748
99885W        W59630  21.668  23.702   4.683
99886W        W59631  21.259  13.128  12.082
99887W        W59632  11.214  34.996   1.252
99888W        W59633  18.617   7.831  10.940
99889W        W59634  31.484  41.414   0.480
99890W        W59635  28.544  32.423   1.737
99891W        W59636  40.811  30.974   2.260
99892W        W59637  24.585  22.228   2.299
99893W        W59638  17.679  42.418  11.436
99894W        W59639  22.562  44.893  13.935
99895W        W59640   8.889   0.898  10.920
99896W        W59641   9.175   8.699   3.715
99897W        W59642   0.778  18.723   1.728
99898W        W59643  27.617  21.127   4.136
99899W        W59644  14.115  22.638   3.272
99900W        W59645  39.361  35.996  12.826
99901W        W59646  37.015  15.239   3.312
99902W        W59647  14.132  17.614   1.742
99903W        W59648  27.521  40.822  10.454
99904W        W59649  10.330  32.108   0.929
99905W        W59650   2.376  10.812  13.946
99906W        W59651  36.550  29.146   4.619
99907W        W59652   1.871  37.878  14.356
99908W        W59653   3.808  16.282  13.385
99909W        W59654  14.196  40.319  11.455
99910W        W59655  43.333  24.705  12.931
99911W        W59656  44.493  24.524   3.839
99912W        W59657   9.697  11.816   4.743
99913W        W59658  35.364   4.426  14.287
99914W        W59659  24.118  21.615  13.870
99915W        W59660  33.502  13.792  10.499
99916W        W59661  42.326  11.320  14.326
99917W        W59662  10.814  27.067   3.841
99918W        W59663  11.647  14.164  13.500
99919W        W59664  21.212   7.415   4.153
99920W        W59665   2.378  27.499   1.272
99921W        W59666  19.733  24.498   2.801
99922W        W59667  44.460  11.724  11.939
99923W        W59668  29.084   1.775   1.408
99924W        W59669  29.158  22.549  11.602
99925W        W59670  18.128   3.870   2.698
99926W        W59671  33.947  40.515   2.183
99927W        W59672  42.801  14.742   2.694
99928W        W59673  10.706  42.504   1.711
99929W        W59674  20.041  10.307  10.598
99930W        W59675  33.043  18.164   0.395
99931W        W59676  23.493  10.632   0.792
99932W        W59677   7.265  13.306   0.941
99933W        W59678  29.111  26.984   4.168
99934W        W59679   8.890  40.965   4.149
99935W        W59680  31.143  14.787  10.962
99936W        W59681   8.245   8.842  12.074
99937W        W59682  36.944  35.598  10.497
99938W        W59683  21.589  15.708   3.809
99939W        W59684  27.613   1.782   3.716
99940W        W59685  36.035   9.198  13.900
99941W        W59686   5.346  20.628   4.344
99942W        W59687  11.305  12.616  11.967
99943W        W59688  41.387  37.402   1.712
99944W        W59689  30.084  44.280   0.436
99945W        W59690  29.087  15.312  12.438
99946W        W59691  41.299   2.405  11.571
99947W        W59692   2.808  11.212  11.594
99948W        W59693  28.650  29.575  13.482
99949W        W59694  14.640  15.625  10.945
99950W        W59695  44.460  36.574  10.480
99951W        W59696   6.831  18.146   0.758
99952W        W59697   1.241  20.077  13.325
99953W        W59698  36.981  11.360  14.288
99954W        W59699  21.112  40.826  12.445
99955W        W59700  17.652   0.319  10.412
99956W        W59701  20.727  35.573   1.432
99957W        W59702   2.425  16.638   3.260
99958W        W59703   7.728  15.810   1.255
99959W        W59704   0.367   4.322   2.336
99960W        W59705  36.365  15.603   3.374
99961W        W59706  11.168  39.862  13.819
99962W        W59707  36.985   3.320   3.293
99963W        W59708   6.286   2.890   0.947
99964W        W59709  25.092  14.739   2.368
99965W        W59710  38.955  12.690  14.453
99966W        W59711  27.153  19.064  10.907
99967W        W59712  16.598  35.416   2.268
99968W        W59713  12.222  20.683  13.363
99969W        W59714  32.965  35.961   0.764
99970W        W59715  27.092   8.388  14.411
99971W        W59716  42.886  21.662   4.801
99972W        W59717  28.538   5.316   1.822
99973W        W59718  18.235  20.029   3.284
99974W        W59719  32.141  28.150   2.858
99975W        W59720  29.470   8.789  13.949
99976W        W59721  20.655  21.588  13.536
99977W        W59722   5.834   8.335  11.098
99978W        W59723  29.455  15.103  11.522
99979W        W59724  16.671  43.812   0.948
99980W        W59725   9.857   4.741  14.914
99981W        W59726   6.316   1.970   9.923
99982W        W59727  36.925  31.993   3.698
99983W        W59728   6.684  33.437  11.933
99984W        W59729   7.698  39.960  14.776
99985W        W59730   9.328   8.881   2.729
99986W        W59731   8.250   1.821  12.851
99987W        W59732  23.021   7.681   0.395
99988W        W59733  15.319  39.397   2.863
99989W        W59734  42.389  41.826  11.975
99990W        W59735   5.264  14.094   3.787
99991W        W59736   4.937  15.246  13.826
99992W        W59737  26.963  42.359   1.842
99993W        W59738  15.753  22.612  10.460
99994W        W59739  14.233  28.004   3.330
99995W        W59740  42.861  15.299  10.891
99996W        W59741   3.428  23.082  14.314
99997W        W59742  36.463  39.841   3.672
99998W        W59743  34.099  14.608  11.415
99999W        W59744   2.241  22.127  13.391
    0W        W59745  31.509   9.318   3.795
    1W        W59746  32.093   2.391   2.241
    2W        W59747  36.007  32.972  12.392
    3W        W59748   1.411  31.647  10.962
    4W        W59749  31.952   6.379   4.351
    5W        W59750  38.980  20.763   0.915
    6W        W59751  31.051   3.360   1.822
    7W        W59752   8.753  26.104  13.460
    8W        W59753  11.704  30.547  13.033
    9W        W59754   7.343  28.646   3.639
   10W        W59755  17.153  30.098   1.872
   11W        W59756  12.625  41.346   0.907
   12W        W59757  42.492  21.159   3.371
   13W        W59758   5.889   1.829   1.404
   14W        W59759  22.687  27.984   1.408
   15W        W59760   4.843  25.122   2.265
   16W        W59761  43.506  17.179  14.412
   17W        W59762  41.354  37.533   2.840
   18W        W59763  15.796  37.035   2.878
   19W        W59764  39.011  20.612  13.939
   20W        W59765   3.372  23.553   2.721
   21W        W59766  19.598  30.637  10.984
   22W        W59767   2.774  14.717  11.105
   23W        W59768  33.895  33.465  13.326
   24W        W59769   1.805   1.424   0.832
   25W        W59770  24.106  27.991  14.832
   26W        W59771  16.667  20.196  14.407
   27W        W59772  25.533  13.774   1.921
   28W        W59773  15.807  36.389  11.905
   29W        W59774  15.643  19.758   3.382
   30W        W59775  26.686  14.194   4.272
   31W        W59776  41.018   1.956  14.505
   32W        W59777  16.090  15.824  10.002
   33W        W59778  23.042  22.711   3.860
   34W        W59779  37.042  39.444   4.770
   35W        W59780  19.159  33.562   2.791
   36W        W59781  21.163  19.271   1.308
   37W        W59782  26.693  17.297   1.925
   38W        W59783   1.969   1.881  11.915
   39W        W59784  30.090  21.201  14.465
   40W        W59785  30.072  10.238   0.476
   41W        W59786   8.380  40.897   0.363
   42W        W59787  40.909  31.962   3.820
   43W        W59788   6.270  40.542   1.248
   44W        W59789  21.600  25.528   0.794
   45W        W59790   4.343  25.488   1.327
   46W        W59791  25.048  10.191   0.779
   47W        W59792  22.224  31.957   2.835
   48W        W59793  33.612  39.441   1.403
   49W        W59794  35.077  25.146   3.147
   50W        W59795   6.364  28.144  12.398
   51W        W59796  42.401  37.941   4.749
   52W        W59797  23.640  16.172   3.697
   53W        W59798   8.676  32.565  13.444
   54W        W59799  22.713  10.654  12.347
   55W        W59800  12.141   6.241  12.915
   56W        W59801  18.676  40.454   2.207
   57W        W59802  12.713  37.915  13.992
   58W        W59803  28.532   6.187   5.570
   59W        W59804  44.269  11.701  12.516
   60W        W59805  42.915   7.335   3.683
   61W        W59806  13.722  31.041   1.818
   62W        W59807   7.696  22.738  12.455
   63W        W59808  35.557  24.577   3.662
   64W        W59809   1.348  20.204   4.754
   65W        W59810  13.730  39.431  12.494
   66W        W59811  34.426  20.047   5.300
   67W        W59812  42.460   9.309  12.467
   68W        W59813  22.655  38.340  12.528
   69W        W59814  44.802  25.587   2.305
   70W        W59815  35.027   6.701  11.858
   71W        W59816  26.107  27.565  12.465
   72W        W59817  36.475   7.835   2.288
   73W        W59818  31.418  23.150   2.888
   74W        W59819  26.199   8.814   3.357
   75W        W59820  18.587   8.713  13.936
   76W        W59821   8.824  25.469   4.169
   77W        W59822   8.366  11.339   2.730
   78W        W59823  39.367   6.840   2.722
   79W        W59824   8.202  17.634  11.979
   80W        W59825  31.589  19.155   0.920
   81W        W59826  24.614  43.331  12.988
   82W        W59827  22.127  12.703  13.398
   83W        W59828  39.870   3.869  13.795
   84W        W59829  27.615  23.029  12.076
   85W        W59830   2.914  31.623   0.732
   86W        W59831   6.798  21.156   3.664
   87W        W59832  31.568  24.480  11.090
   88W        W59833  39.498  37.002   4.719
   89W        W59834  37.835  37.460  13.541
   90W        W59835  25.081  13.760   9.971
   91W        W59836   2.249   6.811   3.703
   92W        W59837  28.183   9.386   4.599
   93W        W59838  18.281  42.864   1.362
   94W        W59839   6.891  43.332  12.531
   95W        W59840  17.682  28.054  10.585
   96W        W59841  18.772  25.102   0.464
   97W        W59842  35.424   4.895  13.897
   98W        W59843   1.944  36.931  12.575
   99W        W59844  18.724  43.376   4.724
  100W        W59845  10.876  41.408  14.468
  101W        W59846   6.202  44.962   4.623
  102W        W59847  39.357  22.589   3.870
  103W        W59848  29.155  20.167   0.366
  104W        W59849  16.682  25.991   4.209
  105W        W59850  39.377  40.468   4.339
  106W        W59851  32.916  29.971   0.333
  107W        W59852  28.057  44.827   0.791
  108W        W59853  18.267  19.077  12.348
  109W        W59854  10.646  34.963  11.961
  110W        W59855  20.136  43.285   4.341
  111W        W59856   9.262  21.161   2.709
  112W        W59857  44.930  22.132  10.488
  113W        W59858   8.404   4.311  12.904
  114W        W59859  14.705  33.481  10.477
  115W        W59860  36.013  14.663   3.205
  116W        W59861  40.510  34.076   3.634
  117W        W59862  28.435  22.518   3.757
  118W        W59863  23.618  27.079   0.879
  119W        W59864  12.699  19.246   0.305
  120W        W59865  21.158  11.734   3.859
  121W        W59866   5.725  42.421   4.305
  122W        W59867  25.130  39.898  11.494
  123W        W59868   9.850  40.389   4.608
  124W        W59869   5.886  28.117   3.745
  125W        W59870   3.458  23.158   0.400
  126W        W59871  29.605  22.574   1.331
  127W        W59872   7.724  35.933  14.952
  128W        W59873  16.119  41.895   1.911
  129W        W59874  28.029  17.273   4.597
  130W        W59875  36.871  21.161   1.910
  131W        W59876  36.014  31.455   0.809
  132W        W59877  18.708  34.011   2.836
  133W        W59878  29.569  30.090   0.929
  134W        W59879  37.337  24.666   1.748
  135W        W59880   1.425   5.835   0.845
  136W        W59881  28.524  24.097   2.804
  137W        W59882  21.102  19.729  11.065
  138W        W59883  36.988  27.945  14.954
  139W        W59884  21.602  15.763  14.804
  140W        W59885  39.427  28.046   0.924
  141W        W59886  14.201  23.217  10.642
  142W        W59887   7.700   9.269   4.710
  143W        W59888  15.783  38.017   1.757
  144W        W59889  34.524  36.941  13.339
  145W        W59890  27.057  16.765  13.982
  146W        W59891  37.076  32.943  14.912
  147W        W59892  14.258   7.851  10.959
  148W        W59893  27.612  24.644  13.432
  149W        W59894   6.218   8.271   4.796
  150W        W59895  44.417   0.887   4.146
  151W        W59896   9.281  22.028   4.244
  152W        W59897  27.658  38.897  13.839
  153W        W59898   4.418  35.541   4.730
  154W        W59899  32.898  31.134   4.114
  155W        W59900  13.788  22.535  14.460
  156W        W59901   4.899  19.219  12.378
  157W        W59902   7.668  13.655  12.089
  158W        W59903  33.566  14.192   2.836
  159W        W59904  20.535  25.000  14.364
  160W        W59905  19.138  12.120   1.325
  161W        W59906  43.019  39.456  12.909
  162W        W59907  36.360  30.995   4.763
  163W        W59908  17.622   4.355   3.335
  164W        W59909  38.074  33.879   4.270
  165W        W59910  15.750  27.472  12.996
  166W        W59911  43.277  31.025  14.456
  167W        W59912   8.862  11.200  13.389
  168W        W59913  26.180  38.905  10.968
  169W        W59914  36.571  40.358  10.070
  170W        W59915  32.895  24.001  13.845
  171W        W59916  42.370  43.871   1.264
  172W        W59917  33.964  39.906  14.837
  173W        W59918  20.647  37.347  14.761
  174W        W59919   2.774  28.052  11.972
  175W        W59920  14.744   1.854  10.923
  176W        W59921  19.675  42.017  12.388
  177W        W59922  22.634  23.675  10.414
  178W        W59923  26.029  15.226   4.194
  179W        W59924  14.733  36.411   2.734
  180W        W59925  30.943  42.364  10.587
  181W        W59926  39.528  13.780  14.467
  182W        W59927   9.709  25.499  13.025
  183W        W59928  17.580   1.792  13.537
  184W        W59929  23.054  40.990  10.536
  185W        W59930  32.407   9.317  12.873
  186W        W59931  36.006  10.180   1.933
  187W        W59932  41.414   1.960   0.910
  188W        W59933  41.842   6.832   3.363
  189W        W59934  11.649  15.700   1.761
  190W        W59935  15.182  17.577  14.021
  191W        W59936  40.915  22.744  12.542
  192W        W59937  44.292  10.852  10.468
  193W        W59938  11.702  13.202  11.033
  194W        W59939   7.288  35.416  11.461
  195W        W59940  18.787  11.794  12.485
  196W        W59941  18.050  32.545  12.477
  197W        W59942  29.994   6.717  11.932
  198W        W59943  12.806  13.618   3.370
  199W        W59944  23.081  22.117   4.756
  200W        W59945  38.008   2.245   0.795
  201W        W59946   2.881  43.300   4.718
  202W        W59947  15.690   7.677  14.942
  203W        W59948  33.025  39.004   3.704
  204W        W59949  21.200  40.547   0.356
  205W        W59950  34.522  42.783  13.314
  206W        W59951   2.870  11.230  14.786
  207W        W59952  41.942  18.598  10.958
  208W        W59953  39.502  20.699  10.469
  209W        W59954  12.340   5.290  12.459
  210W        W59955  40.819   6.768  11.994
  211W        W59956   9.846   7.175   2.864
  212W        W59957  35.066  16.697  11.916
  213W        W59958  16.702  43.947  12.428
  214W        W59959  12.324   4.828   3.765
  215W        W59960   9.753  44.918   1.750
  216W        W59961  34.548  11.717   4.793
  217W        W59962   8.681  42.024   4.779
  218W        W59963   9.220  40.359  11.560
  219W        W59964   0.841   2.889  10.511
  220W        W59965   8.405  13.289   1.445
  221W        W59966  42.818  44.279   2.274
  222W        W59967   3.924  28.099  14.000
  223W        W59968  26.686  25.611  12.073
  224W        W59969  30.990  40.042  11.949
  225W        W59970   8.716   5.722   2.398
  226W        W59971  14.303  19.733  12.340
  227W        W59972  41.934   5.912  12.088
  228W        W59973  34.966  31.063   4.702
  229W        W59974  15.089  28.675  12.925
  230W        W59975  40.520  22.698  10.472
  231W        W59976   6.723  20.036   4.707
  232W        W59977   5.753  12.748   4.610
  233W        W59978  41.296  24.062  13.491
  234W        W59979  20.029   0.931   4.741
  235W        W59980   3.415  39.871  11.471
  236W        W59981  38.408  36.538   4.805
  237W        W59982  30.536  25.607   1.839
  238W        W59983   0.782  42.991   0.293
  239W        W59984  36.536  17.667  14.873
  240W        W59985  22.155  30.978   1.855
  241W        W59986  43.302  10.784   4.206
  242W        W59987  10.213  40.529   2.885
  243W        W59988  36.433   0.913   4.202
  244W        W59989  10.154  10.236  10.534
  245W        W59990  33.083   1.873   2.673
  246W        W59991  39.925  37.439  13.333
  247W        W59992  10.249  10.370  12.501
  248W        W59993   5.324  20.082   2.241
  249W        W59994   7.350  30.569   4.238
  250W        W59995  12.671   2.271  14.279
  251W        W59996   3.833   7.722   3.279
  252W        W59997  32.506  31.553   0.796
  253W        W59998   4.278   7.858  13.360
  254W        W59999  14.614  30.434   3.183
  255W        W60000  34.426  38.856  12.437
  256W        W60001  40.994  20.707  11.409
  257W        W60002  22.090  25.213   3.332
  258W        W60003   9.823  16.290  14.991
  259W        W60004  32.890  16.156  12.959
  260W        W60005  38.890  16.726  14.854
  261W        W60006  30.522  36.583  14.839
  262W        W60007   9.245   5.245  13.064
  263W        W60008  31.417  36.450  12.996
  264W        W60009  27.180  26.573   1.695
  265W        W60010  13.624  33.579  13.447
  266W        W60011   8.896  18.251  11.857
  267W        W60012  30.984  44.935  14.859
  268W        W60013  35.501  31.090   4.141
  269W        W60014  35.476  10.873  12.526
  270W        W60015   5.923  20.604   0.887
  271W        W60016  20.263  12.289   1.423
  272W        W60017  36.022  43.434  12.002
  273W        W60018   2.369  13.344  10.585
  274W        W60019  22.124  30.629  12.998
  275W        W60020  18.132  25.963  13.914
  276W        W60021  33.061  30.942   0.476
  277W        W60022  34.478  11.373   2.830
  278W        W60023  40.505  36.423   2.323
  279W        W60024  36.841  25.156   3.229
  280W        W60025  14.339  32.990   1.263
  281W        W60026  28.145  39.547   3.868
  282W        W60027   1.760  14.774  11.056
  283W        W60028  32.915  24.180  14.285
  284W        W60029  29.495  19.191   3.799
  285W        W60030  44.761  40.864   9.648
  286W        W60031  42.854   3.895  12.375
  287W        W60032   3.380  21.566  13.846
  288W        W60033   5.763  32.538   1.392
  289W        W60034   4.839  29.136  10.998
  290W        W60035  22.740  23.204   2.206
  291W        W60036  31.615   7.399  12.989
  292W        W60037  42.375  42.326   1.863
  293W        W60038  35.062  32.995  12.874
  294W        W60039   6.877  17.248  12.073
  295W        W60040  16.109  18.764  14.814
  296W        W60041  18.168  13.654   4.188
  297W        W60042  11.203  22.025   3.324
  298W        W60043   1.344  20.574  12.526
  299W        W60044   4.242  15.601  10.643
  300W        W60045  19.234  20.248   3.663
  301W        W60046  29.113  37.519  10.627
  302W        W60047  24.197  35.552   2.856
  303W        W60048   6.712  11.209   0.955
  304W        W60049   7.713   9.887   2.389
  305W        W60050  39.955   8.332  12.982
  306W        W60051  40.913  36.566  11.489
  307W        W60052  19.065   9.860   4.619
  308W        W60053  14.760  26.554  12.396
  309W        W60054  20.118  36.541   2.383
  310W        W60055  23.621  39.432   4.728
  311W        W60056  41.460  16.156  14.278
  312W        W60057   6.265  14.637   0.420
  313W        W60058  33.549  24.058   4.164
  314W        W60059  43.403  36.898  13.325
  315W        W60060  19.736  28.532  13.923
  316W        W60061   8.744  43.447   0.440
  317W        W60062  21.156   1.326  12.919
  318W        W60063  40.498   4.419   4.815
  319W        W60064   3.352  35.439   3.777
  320W        W60065  23.546  30.127   2.823
  321W        W60066  11.296  37.568   3.367
  322W        W60067  41.420  23.047   3.871
  323W        W60068   8.673  43.348   1.447
  324W        W60069  15.123   9.755  13.360
  325W        W60070  39.959  16.699   4.199
  326W        W60071  13.119   6.684   0.780
  327W        W60072  13.627  29.497  13.498
  328W        W60073  34.098  11.814  10.627
  329W        W60074   8.297  17.600   0.337
  330W        W60075  28.521  23.173   0.946
  331W        W60076  38.348  30.145  13.970
  332W        W60077   5.908  31.622  12.062
  333W        W60078   5.756  41.794   0.292
  334W        W60079   2.853  37.454  14.376
  335W        W60080  31.050  13.185  11.861
  336W        W60081  34.992  20.528  11.598
  337W        W60082  16.172  39.809  14.276
  338W        W60083  35.954  28.456   1.744
  339W        W60084  23.603   0.374   1.837
  340W        W60085  39.051  18.676   0.775
  341W        W60086  19.219   2.779   0.411
  342W        W60087  26.063  22.705   1.413
  343W        W60088  10.212  25.985   4.263
  344W        W60089  42.390  44.453  10.480
  345W        W60090  15.322  25.700  12.023
  346W        W60091  36.552  33.391  13.876
  347W        W60092  23.610  35.855   3.777
  348W        W60093   0.805  27.967  14.295
  349W        W60094  16.226  43.765   0.352
  350W        W60095  18.605  33.414   3.643
  351W        W60096  16.692  27.169   3.732
  352W        W60097  16.711  31.412  12.402
  353W        W60098  18.088  27.497   4.761
  354W        W60099  11.785   3.227  14.433
  355W        W60100   2.283  37.965  14.289
  356W        W60101   0.895  33.529  13.030
  357W        W60102  13.627  38.395   2.217
  358W        W60103   3.832   0.798   1.218
  359W        W60104  32.105  32.452   1.934
  360W        W60105  29.524  17.270   3.657
  361W        W60106   7.768   2.251   0.479
  362W        W60107  16.097  31.405  13.381
  363W        W60108   9.760  36.464   0.422
  364W        W60109  24.530  28.539  10.616
  365W        W60110  14.136   6.352  10.900
  366W        W60111  24.224  43.468   0.925
  367W        W60112  40.043  30.120  10.593
  368W        W60113  25.084  28.007   3.223
  369W        W60114   6.328  29.661   0.305
  370W        W60115  22.681  29.544   0.319
  371W        W60116  38.426   8.406   1.830
  372W        W60117  12.645   0.761   2.788
  373W        W60118  32.560  26.554  13.309
  374W        W60119  35.972  16.697  12.955
  375W        W60120  36.019   2.404  14.294
  376W        W60121  42.946   0.452  13.064
  377W        W60122  27.063   9.675   1.840
  378W        W60123  41.419  22.032   0.887
  379W        W60124  30.018  22.695   2.862
  380W        W60125   5.414  34.880  11.428
  381W        W60126   2.457  41.901  12.557
  382W        W60127  42.007  32.887   1.329
  383W        W60128  42.329   1.849  14.024
  384W        W60129  39.445  42.428  14.918
  385W        W60130  21.721  23.705  12.869
  386W        W60131   1.472   8.184   3.259
  387W        W60132  14.768  40.338   0.305
  388W        W60133  11.668   2.327   3.242
  389W        W60134  29.121  12.761   1.890
  390W        W60135  13.246  24.139  13.347
  391W        W60136   3.393  10.649   3.835
  392W        W60137   2.320   2.285   2.326
  393W        W60138  29.578  24.568  10.989
  394W        W60139  38.466  41.361  11.070
  395W        W60140  32.460  26.040  10.496
  396W        W60141  26.569  16.584   3.282
  397W        W60142  28.586  37.069  12.563
  398W        W60143  39.411  19.539  11.897
  399W        W60144   1.765  41.805  12.451
  400W        W60145  11.829  38.835  12.024
  401W        W60146  12.130   4.766   4.216
  402W        W60147  31.508  35.376   4.287
  403W        W60148  31.456   1.822  12.906
  404W        W60149  33.488   9.323   1.450
  405W        W60150  12.222  14.755  14.399
  406W        W60151  44.787  22.065   3.327
  407W        W60152   7.894  36.472   1.926
  408W        W60153  18.706   5.318   3.163
  409W        W60154  44.362  16.273  10.891
  410W        W60155  42.988  33.551  12.833
  411W        W60156  32.562   4.432   1.411
  412W        W60157  32.544  40.046  13.501
  413W        W60158  18.735  32.896   4.135
  414W        W60159  36.987  36.851   2.746
  415W        W60160  13.342  41.493  13.933
  416W        W60161   5.307  15.107   4.222
  417W        W60162  29.925   2.274  11.073
  418W        W60163  30.062  14.815  10.459
  419W        W60164  23.112   6.339   2.288
  420W        W60165  11.801  37.510   0.883
  421W        W60166   3.290  14.668   4.833
  422W        W60167   5.363  38.457  12.355
  423W        W60168   5.777  18.193  11.875
  424W        W60169  26.537  13.649  12.872
  425W        W60170  14.104   8.199   4.639
  426W        W60171  21.710  19.196   1.873
  427W        W60172  10.262  18.588  13.400
  428W        W60173  28.599  40.857   1.353
  429W        W60174   7.897  37.903   3.846
  430W        W60175  35.461  25.486  13.354
  431W        W60176  43.014  12.126   4.196
  432W        W60177  27.654  27.565  11.960
  433W        W60178  16.638  20.093  12.343
  434W        W60179  20.749  21.087  14.919
  435W        W60180   2.937   3.791   0.398
  436W        W60181  27.017  11.850  14.851
  437W        W60182  18.601  34.014  12.402
  438W        W60183  29.453  25.190  13.328
  439W        W60184  36.033  41.011   4.178
  440W        W60185  26.634  27.996   3.194
  441W        W60186  35.937  15.165  11.401
  442W        W60187  12.787   8.780   1.383
  443W        W60188  43.456  42.917  10.906
  444W        W60189  43.336   1.757  13.419
  445W        W60190  26.544  36.489  10.494
  446W        W60191   6.861  21.543  14.794
  447W        W60192   3.940   1.318   2.866
  448W        W60193  11.368   1.270   1.299
  449W        W60194  19.754   4.869  14.805
  450W        W60195  28.672  23.194  13.326
  451W        W60196  16.722  38.373   2.386
  452W        W60197  34.606  25.187  12.411
  453W        W60198   1.767  24.655  10.456
  454W        W60199  21.162   9.301   0.416
  455W        W60200   5.366  21.173   0.749
  456W        W60201   5.753  22.053  11.476
  457W        W60202   4.358  17.208   3.833
  458W        W60203   2.254  37.501   0.419
  459W        W60204  39.995  27.579   2.708
  460W        W60205  18.152   5.720   3.736
  461W        W60206   6.798  12.159   3.276
  462W        W60207  12.697  25.582  11.410
  463W        W60208  29.480  36.499  11.904
  464W        W60209  33.415  34.587   0.461
  465W        W60210  20.645  19.276  11.591
  466W        W60211  32.066  39.944  14.861
  467W        W60212  14.113  42.836  14.925
  468W        W60213  33.393  33.542   4.620
  469W        W60214  30.513  20.113   3.297
  470W        W60215  27.002   4.699   2.839
  471W        W60216  44.271   6.327   2.288
  472W        W60217  30.138  24.089  14.956
  473W        W60218  16.761  35.963  14.962
  474W        W60219  25.160  19.771  10.571
  475W        W60220  31.444  42.419  14.862
  476W        W60221   5.221  20.159  13.444
  477W        W60222  40.921  29.478  11.380
  478W        W60223  41.902   3.440   5.314
  479W        W60224  27.625  11.233   0.277
  480W        W60225  42.476  43.447   4.184
  481W        W60226   3.914  17.570   4.760
  482W        W60227  24.529  14.817   0.791
  483W        W60228  37.834  28.968  13.002
  484W        W60229  27.081  25.471   4.250
  485W        W60230  11.655   5.901   4.652
  486W        W60231  23.593   1.826  14.497
  487W        W60232  21.086   3.217   0.804
  488W        W60233   8.178  16.119   1.314
  489W        W60234   1.774  23.212   0.341
  490W        W60235  37.977  31.473   1.731
  491W        W60236  29.091  14.287   1.354
  492W        W60237  41.821   2.885  13.406
  493W        W60238  31.510  18.205  13.362
  494W        W60239  36.362  23.213  11.048
  495W        W60240  43.889  18.122  11.971
  496W        W60241  32.070   7.816  14.911
  497W        W60242  20.119  28.055  11.997
  498W        W60243  20.042  44.827  13.873
  499W        W60244  19.182  34.492  12.509
  500W        W60245  25.196   5.426   4.689
  501W        W60246  35.878  22.515   1.243
  502W        W60247   5.926  26.596  12.951
  503W        W60248  23.181  13.615  12.040
  504W        W60249  39.838  27.151   0.744
  505W        W60250  11.329  29.479   2.243
  506W        W60251  39.983  42.968  10.444
  507W        W60252  15.183  21.245  12.533
  508W        W60253  36.880   6.371  14.871
  509W        W60254  24.029  29.138  13.048
  510W        W60255  29.555  41.042   3.162
  511W        W60256   7.177   0.377  10.924
  512W        W60257   2.412  37.378   0.761
  513W        W60258  29.564  10.768  10.601
  514W        W60259  38.959   1.251   3.749
  515W        W60260  43.311   4.298  11.512
  516W        W60261  32.006  24.524   3.201
  517W        W60262  32.539  23.656   9.472
  518W        W60263  35.552   2.277  14.428
  519W        W60264  27.495  14.245   2.865
  520W        W60265  18.063  10.749  14.496
  521W        W60266   0.355  37.392  13.405
  522W        W60267  37.365  21.697  10.579
  523W        W60268  38.951  18.289   3.845
  524W        W60269  13.246  24.120   3.174
  525W        W60270   6.822  21.572   1.755
  526W        W60271  13.190  12.705  14.281
  527W        W60272   2.435  24.647   3.859
  528W        W60273  16.776  39.972   0.885
  529W        W60274   1.255   3.319  11.419
  530W        W60275  41.481   1.418  11.487
  531W        W60276  14.671  36.036   0.743
  532W        W60277  13.112  36.019  12.041
  533W        W60278  37.055  44.878   1.325
  534W        W60279  37.040  12.700  14.826
  535W        W60280  28.510  13.178  10.499
  536W        W60281  38.883  33.487  13.360
  537W        W60282   5.728  31.581  13.542
  538W        W60283   1.254  13.348   4.737
  539W        W60284  17.743  31.076  12.542
  540W        W60285  25.615   9.676  11.456
  541W        W60286   3.364  22.110  11.414
  542W        W60287  25.708  31.644   3.802
  543W        W60288  31.085  32.562   4.227
  544W        W60289  31.410  41.019   4.689
  545W        W60290  11.364  30.095   0.912
  546W        W60291  33.070  44.333   1.448
  547W        W60292  19.593  40.404  13.892
  548W        W60293  35.073  37.890  12.096
  549W        W60294  44.324  37.846   2.748
  550W        W60295  22.626   5.862   1.308
  551W        W60296  17.691  22.051   0.467
  552W        W60297  14.204  43.934  10.423
  553W        W60298  15.155  17.616   3.344
  554W        W60299  19.229   7.803  14.005
  555W        W60300  28.182   4.414   5.695
  556W        W60301  25.114  41.528  12.417
  557W        W60302  11.636  34.033  13.897
  558W        W60303  27.532   6.424  14.400
  559W        W60304  24.662   4.362  11.950
  560W        W60305  43.505   0.408   0.480
  561W        W60306  37.965  40.981   1.372
  562W        W60307  32.115  18.223  13.983
  563W        W60308  11.691   0.306   3.265
  564W        W60309  13.126  24.576  14.945
  565W        W60310  43.477  22.218  10.606
  566W        W60311  36.938  44.852   3.174
  567W        W60312  12.708  22.703   2.884
  568W        W60313  21.547   3.255   2.851
  569W        W60314  26.020  15.276   1.366
  570W        W60315   9.175   1.335  11.550
  571W        W60316  44.467  28.169  12.439
  572W        W60317   2.907  33.386   0.939
  573W        W60318  21.063  42.469   9.984
  574W        W60319  21.755  28.668  14.005
  575W        W60320   9.849  39.041   0.289
  576W        W60321  28.497  34.948   1.377
  577W        W60322  40.923  44.958   3.630
  578W        W60323  17.253  12.336  12.399
  579W        W60324  31.636   9.717   1.361
  580W        W60325   3.239   1.806   1.373
  581W        W60326   2.257  19.177   3.736
  582W        W60327  29.455  18.547  13.811
  583W        W60328  17.086  20.197  10.888
  584W        W60329  36.498  31.424  13.866
  585W        W60330  39.854  20.039  13.473
  586W        W60331  18.264   4.353  11.610
  587W        W60332  14.694  32.131  14.870
  588W        W60333  34.412  14.301   2.403
  589W        W60334  39.037   9.273  12.892
  590W        W60335  33.523   5.924   1.434
  591W        W60336   5.351  27.106   4.737
  592W        W60337  14.770  31.415  12.965
  593W        W60338   6.862  17.285  12.528
  594W        W60339  19.720  25.677   2.888
  595W        W60340   2.451  38.445  10.452
  596W        W60341  27.628   9.191   4.699
  597W        W60342   9.657  26.647  10.627
  598W        W60343  13.218  21.690  13.830
  599W        W60344  13.317  19.595  14.336
  600W        W60345  11.860  25.101  12.964
  601W        W60346  17.633  12.191  13.548
  602W        W60347  26.067  39.880   0.259
  603W        W60348  25.083   1.841   0.421
  604W        W60349  30.115   1.847  13.476
  605W        W60350   2.855  33.486   2.208
  606W        W60351  22.237   2.461   0.825
  607W        W60352  20.688  44.942  12.432
  608W        W60353   6.793  11.821  14.929
  609W        W60354   0.814   7.699  14.792
  610W        W60355  15.190  37.372  13.871
  611W        W60356  26.651  29.149  10.034
  612W        W60357  21.118   0.277   4.662
  613W        W60358  39.395  10.675   2.331
  614W        W60359  35.011   4.441   3.171
  615W        W60360  23.035  44.340  13.442
  616W        W60361  44.303  26.517   4.689
  617W        W60362  10.190  14.231  13.869
  618W        W60363  28.988   0.327   3.662
  619W        W60364   0.969   0.321   1.912
  620W        W60365  22.639  18.263   1.413
  621W        W60366  24.640  18.288   5.150
  622W        W60367  28.521  15.630  14.304
  623W        W60368   4.893  43.865   1.432
  624W        W60369  18.112  19.626   3.723
  625W        W60370  33.391  42.908   3.220
  626W        W60371  31.953  17.187   3.781
  627W        W60372   0.328   8.218  12.942
  628W        W60373  27.629  15.682  10.507
  629W        W60374   4.421  25.141   2.749
  630W        W60375  23.147  31.057  14.308
  631W        W60376  37.913  14.638  11.862
  632W        W60377  33.586  41.513   5.232
  633W        W60378   0.429   7.741   0.940
  634W        W60379  23.237  12.153   5.205
  635W        W60380  25.997   3.419  10.616
  636W        W60381  43.965  42.781   3.767
  637W        W60382  42.832  31.996   3.693
  638W        W60383  36.987  17.211  12.912
  639W        W60384  38.024  36.539   1.696
  640W        W60385  26.607  20.766   0.482
  641W        W60386  24.024   2.446   0.411
  642W        W60387  16.081  29.999   2.285
  643W        W60388  19.743  25.489   1.244
  644W        W60389   3.216  23.220  12.504
  645W        W60390  39.823  10.371  14.898
  646W        W60391  40.968  12.697  10.407
  647W        W60392  39.446  11.190  14.942
  648W        W60393  13.330   8.388   2.318
  649W        W60394  17.223  19.153  12.934
  650W        W60395  27.943  16.303  12.885
  651W        W60396  15.600  12.685   1.866
  652W        W60397  20.108  20.721   3.244
  653W        W60398  21.036   6.880   2.387
  654W        W60399   9.662  28.067   1.758
  655W        W60400   0.852   3.434  13.863
  656W        W60401  19.582   2.766   3.817
  657W        W60402  33.564   8.804  12.542
  658W        W60403  22.248   9.333  11.872
  659W        W60404  21.702  39.854   3.811
  660W        W60405  18.607  20.694   1.873
  661W        W60406   2.802  36.898   0.779
  662W        W60407  43.986  34.566  12.903
  663W        W60408  10.806  10.378   4.220
  664W        W60409  19.535  16.187  11.410
  665W        W60410   7.176  26.520   3.820
  666W        W60411  16.660  38.049  12.065
  667W        W60412  18.197  43.410   2.867
  668W        W60413   3.880  16.282   0.285
  669W        W60414  30.992  28.142   5.266
  670W        W60415  36.432  30.506  12.872
  671W        W60416  16.584  19.634  12.875
  672W        W60417   1.928  33.484  13.503
  673W        W60418  29.967  22.020   1.304
  674W        W60419  40.490   8.325   4.288
  675W        W60420   7.367   6.222  14.987
  676W        W60421  13.726  37.535  12.001
  677W        W60422  43.359  24.636  13.485
  678W        W60423  30.050  29.158  13.046
  679W        W60424  29.446  20.606  10.575
  680W        W60425   1.797  31.897   2.883
  681W        W60426  13.276  33.418  11.526
  682W        W60427   6.873  43.922   1.325
  683W        W60428  16.287   9.833  13.954
  684W        W60429  43.021   9.698   3.749
  685W        W60430  43.983  43.999   1.851
  686W        W60431   2.800  39.065  14.978
  687W        W60432  32.418  16.241  11.514
  688W        W60433  16.317   6.892  14.475
  689W        W60434  44.401  27.490  14.443
  690W        W60435  41.812  14.736   3.723
  691W        W60436  26.073  18.261   4.686
  692W        W60437  39.895  19.153   0.250
  693W        W60438  25.169   0.293   3.362
  694W        W60439   2.852   3.781  10.959
  695W        W60440  37.906   9.259   0.735
  696W        W60441  20.540  30.944   2.767
  697W        W60442  19.091  30.988   3.365
  698W        W60443  40.317  32.975   4.295
  699W        W60444   6.182  28.974   1.270
  700W        W60445   2.275  18.653  10.628
  701W        W60446  40.308  28.115   2.241
  702W        W60447   7.903  38.551   1.823
  703W        W60448  34.417   5.785  10.159
  704W        W60449  43.012  26.486  11.048
  705W        W60450  39.008   5.872   4.838
  706W        W60451  44.807  26.472   0.371
  707W        W60452  44.877  10.753  13.419
  708W        W60453  15.684   8.273  10.597
  709W        W60454  42.016  36.095   4.704
  710W        W60455  20.532  28.629  12.359
  711W        W60456  16.129  26.014  12.957
  712W        W60457  28.167  33.936  13.048
  713W        W60458  18.567  43.800  14.795
  714W        W60459  18.741  44.349   4.349
  715W        W60460  41.900  28.018  10.626
  716W        W60461  40.474  44.262   0.936
  717W        W60462   8.786  42.934  11.919
  718W        W60463   8.376   3.323   0.933
  719W        W60464   8.242  15.735   4.775
  720W        W60465  31.963  20.669   4.125
  721W        W60466   4.700  40.402  10.601
  722W        W60467  32.897  10.751  11.903
  723W        W60468   1.333  43.384   1.230
  724W        W60469  18.232  21.033  10.994
  725W        W60470   9.325   8.677   2.415
  726W        W60471  26.655  15.728  12.573
  727W        W60472   5.865  38.548  12.832
  728W        W60473  12.268  23.162  11.018
  729W        W60474  27.479   9.815   3.664
  730W        W60475  36.458  41.338  13.896
  731W        W60476  10.664  22.014   0.730
  732W        W60477  32.951  18.149  10.580
  733W        W60478  35.431  34.598   1.869
  734W        W60479   5.709  44.868  12.382
  735W        W60480   1.916   0.977   2.374
  736W        W60481  34.922  16.146  13.945
  737W        W60482   0.470  21.187   4.243
  738W        W60483  15.698  35.392   0.278
  739W        W60484  11.851  22.008  10.970
  740W        W60485   7.729  39.028  10.999
  741W        W60486  24.034  43.895   2.375
  742W        W60487   5.704  32.605   0.355
  743W        W60488  39.523  31.469  13.001
  744W        W60489  41.468  39.809   0.345
  745W        W60490  10.202  33.516   5.191
  746W        W60491   3.898   3.405  11.515
  747W        W60492  11.308  37.520  10.923
  748W        W60493  22.062  12.753  11.393
  749W        W60494  31.934   1.777  14.351
  750W        W60495  43.012  38.515  11.439
  751W        W60496  42.889  34.068  12.874
  752W        W60497  21.690  30.456   4.643
  753W        W60498  39.526  35.948  14.807
  754W        W60499  34.984  20.729  13.466
  755W        W60500  44.891   4.278  14.926
  756W        W60501  10.325  19.711  13.404
  757W        W60502  33.438  33.536   2.297
  758W        W60503  23.213  21.582  11.945
  759W        W60504  27.507  29.622   0.254
  760W        W60505   4.247  14.326  12.053
  761W        W60506  36.564  14.301   3.823
  762W        W60507  13.830   4.417  14.863
  763W        W60508  38.985  26.458  14.890
  764W        W60509  36.393  10.358  11.114
  765W        W60510  10.366  22.673   3.315
  766W        W60511  22.246  17.738  13.840
  767W        W60512  37.927  44.457  10.500
  768W        W60513  41.385  10.190   0.846
  769W        W60514  23.069  27.582  13.050
  770W        W60515  17.713  33.972  10.457
  771W        W60516  15.791  37.845   0.432
  772W        W60517   3.300  43.456   2.221
  773W        W60518  22.682  34.956   1.353
  774W        W60519  42.849  27.605   3.359
  775W        W60520  21.572  38.419  11.903
  776W        W60521  32.560  16.081  14.337
  777W        W60522  21.112  36.969  13.009
  778W        W60523  44.279  13.191   1.782
  779W        W60524  31.039   7.343   3.802
  780W        W60525  30.024  14.297   0.385
  781W        W60526   9.196   5.332   3.830
  782W        W60527  14.247  24.134   3.306
  783W        W60528  10.841  41.848   1.434
  784W        W60529  20.554  14.266   0.478
  785W        W60530  21.084   4.835  14.007
  786W        W60531   9.163  18.259   2.209
  787W        W60532  44.945  27.994  11.977
  788W        W60533   7.335  24.984  12.462
  789W        W60534   2.828  13.659  12.971
  790W        W60535  35.505   9.150  11.060
  791W        W60536  37.886  13.201   4.332
  792W        W60537  39.433  41.015   3.177
  793W        W60538  44.382  14.610   1.440
  794W        W60539  33.086  21.212   4.610
  795W        W60540   1.405  22.687  10.634
  796W        W60541  29.481  13.666   2.757
  797W        W60542   1.421  10.729   0.261
  798W        W60543   6.762  15.225   0.420
  799W        W60544  35.873  27.021   0.481
  800W        W60545   3.237  13.209   0.779
  801W        W60546  18.614   4.232  14.287
  802W        W60547   3.749  44.791   0.948
  803W        W60548  32.953  23.183  14.792
  804W        W60549  34.033  37.516   5.081
  805W        W60550  42.918  10.348  10.017
  806W        W60551  16.665  33.994  12.456
  807W        W60552  15.093  16.193   4.255
  808W        W60553  19.214  26.114   4.233
  809W        W60554  19.724  16.596  11.415
  810W        W60555  36.584  12.280   2.374
  811W        W60556  28.094  20.212   0.788
  812W        W60557   4.288  34.497  12.884
  813W        W60558  19.101   9.791   1.864
  814W        W60559  11.134  33.031  10.467
  815W        W60560   5.418   9.845  14.494
  816W        W60561  37.996  41.842   4.185
  817W        W60562  26.121  30.136  12.040
  818W        W60563  40.482  19.777  12.968
  819W        W60564  10.359  32.034   3.196
  820W        W60565   3.234  29.468  12.094
  821W        W60566  13.176  17.227  13.546
  822W        W60567  16.154  31.463   1.211
  823W        W60568  34.058  42.964   3.667
  824W        W60569  35.588  30.427  12.437
  825W        W60570  39.469  38.360  14.471
  826W        W60571  17.077  39.832   3.154
  827W        W60572  26.018   2.285   4.692
  828W        W60573  44.384   1.237   1.833
  829W        W60574   7.309  15.137  12.507
  830W        W60575  10.184   8.235   0.880
  831W        W60576   8.848  13.629   3.659
  832W        W60577  44.503  42.420  14.882
  833W        W60578  34.965  12.361   1.930
  834W        W60579  40.391  12.688   2.234
  835W        W60580  29.632  25.560  12.896
  836W        W60581  44.859   2.857   3.189
  837W        W60582  38.920  41.883   3.381
  838W        W60583  22.043   5.927  11.020
  839W        W60584  40.470  22.203  13.349
  840W        W60585  14.637  16.791  11.883
  841W        W60586  35.546  29.600   3.359
  842W        W60587  12.685  15.100   1.914
  843W        W60588  28.491  25.211   3.685
  844W        W60589  12.197  13.136  14.329
  845W        W60590   6.715  10.335   9.948
  846W        W60591  13.618  23.086  10.913
  847W        W60592  14.274  12.754  10.480
  848W        W60593  44.995  24.505  14.020
  849W        W60594  42.958  10.331  11.974
  850W        W60595   1.938  13.636   2.714
  851W        W60596  20.165   5.203  13.996
  852W        W60597  35.485   2.435   4.707
  853W        W60598  10.638  18.593  10.573
  854W        W60599  36.349  15.693  10.545
  855W        W60600  18.639  29.628   1.793
  856W        W60601  27.992   3.347   4.819
  857W        W60602  31.613   1.390   0.450
  858W        W60603  24.710  21.741  10.890
  859W        W60604  20.655  35.499  13.813
  860W        W60605  33.957  27.459   4.610
  861W        W60606  12.779   2.857   2.767
  862W        W60607  35.387  43.806   1.800
  863W        W60608  39.949  15.754   3.805
  864W        W60609  31.598  24.099  13.505
  865W        W60610  10.801  23.664   3.785
  866W        W60611  37.085  22.112   2.691
  867W        W60612   6.848  28.666  12.400
  868W        W60613   0.485  21.160   2.731
  869W        W60614  32.142  43.369  10.915
  870W        W60615  33.984   5.772   3.248
  871W        W60616  41.819  19.738   0.293
  872W        W60617  41.347   0.964   2.720
  873W        W60618  19.616  28.950   0.911
  874W        W60619   5.377  26.628   4.320
  875W        W60620  19.216  11.350  13.867
  876W        W60621   1.947  32.631   4.247
  877W        W60622   9.732  33.521   2.248
  878W        W60623   9.720  26.021  11.601
  879W        W60624  21.263  15.154   0.301
  880W        W60625  38.500  35.919  14.847
  881W        W60626  39.899  39.830  11.560
  882W        W60627  35.528   2.833  13.005
  883W        W60628  37.994  42.336  14.330
  884W        W60629  43.373  10.646   0.739
  885W        W60630  39.328   7.872   1.313
  886W        W60631  24.587   1.364  14.405
  887W        W60632   7.780  31.451  10.971
  888W        W60633  10.195   3.799   5.294
  889W        W60634  18.716  22.996  13.004
  890W        W60635  18.218  33.980  10.490
  891W        W60636   6.688  36.922  13.878
  892W        W60637  35.536  43.364   1.434
  893W        W60638  39.366   0.309   3.208
  894W        W60639  32.615  44.778  14.764
  895W        W60640  13.604  12.649  12.427
  896W        W60641  25.080   7.689  13.011
  897W        W60642  21.654   9.648   2.676
  898W        W60643  25.150  20.569  10.441
  899W        W60644  34.418   2.938   3.822
  900W        W60645  27.128  20.131  12.545
  901W        W60646   5.340  39.482  12.521
  902W        W60647  15.323  39.325   0.311
  903W        W60648  14.733  29.998   2.676
  904W        W60649   0.354  14.181   0.242
  905W        W60650  37.948  16.080   1.214
  906W        W60651  16.288  17.124   2.720
  907W        W60652   6.885  12.328  11.042
  908W        W60653   9.667  37.444   2.862
  909W        W60654  11.644  25.097   1.807
  910W        W60655  18.050  19.660   4.637
  911W        W60656  22.239   5.732  12.022
  912W        W60657  34.871  10.304   4.222
  913W        W60658  28.158  28.489  10.606
  914W        W60659  30.436  29.011  13.345
  915W        W60660  16.087   5.927   1.255
  916W        W60661  36.954   0.913  10.619
  917W        W60662   9.777  38.834   2.846
  918W        W60663  29.062   7.275   0.893
  919W        W60664  41.889   8.900  10.130
  920W        W60665  44.821  20.584  11.539
  921W        W60666  12.746  32.077  13.014
  922W        W60667  11.777  37.034   2.798
  923W        W60668  15.255  13.271   4.177
  924W        W60669  30.089  40.442   2.406
  925W        W60670  42.781  16.307  14.940
  926W        W60671   0.332  34.104   9.977
  927W        W60672  25.662  15.777  14.994
  928W        W60673   7.291  18.610  12.927
  929W        W60674  21.162  29.538  12.467
  930W        W60675  14.180   3.335  10.914
  931W        W60676   0.973   7.170  14.378
  932W        W60677  21.146  22.079   2.710
  933W        W60678  31.459  17.710   4.727
  934W        W60679  33.431  30.502   2.396
  935W        W60680   2.406   8.720  14.335
  936W        W60681   6.760  28.025   2.293
  937W        W60682   3.385  22.128  11.997
  938W        W60683  15.814  23.229  10.144
  939W        W60684  37.854  33.411   4.168
  940W        W60685  11.666  23.647   1.924
  941W        W60686   1.373   2.776  14.808
  942W        W60687  35.544   7.306   1.210
  943W        W60688  27.460   6.833   3.218
  944W        W60689   7.738  31.027  12.408
  945W        W60690  27.019  31.567  12.355
  946W        W60691   4.265  33.916  12.080
  947W        W60692  23.576  14.706   2.248
  948W        W60693  22.609  38.431  13.024
  949W        W60694   0.971  42.281  11.387
  950W        W60695  36.378  23.031   2.270
  951W        W60696  19.570  16.572  14.510
  952W        W60697  10.765  42.470   4.166
  953W        W60698  39.813   2.899  14.315
  954W        W60699  19.184  36.528   4.302
  955W        W60700  42.450   5.755  14.770
  956W        W60701  20.090  42.930  11.528
  957W        W60702  40.349  26.094   0.775
  958W        W60703   4.934  11.801  14.446
  959W        W60704  41.867  28.550  12.444
  960W        W60705  41.887  39.845  11.985
  961W        W60706  31.151  35.963   2.677
  962W        W60707  13.236  44.503   1.705
  963W        W60708  11.779  24.595  10.458
  964W        W60709  13.752  33.495  10.107
  965W        W60710  21.148   1.373   2.700
  966W        W60711  29.072  39.058   2.296
  967W        W60712  15.640  34.930  12.451
  968W        W60713  11.848   1.960   4.629
  969W        W60714  18.659  18.282   5.310
  970W        W60715  28.605  13.750   4.152
  971W        W60716  34.503  19.589   2.726
  972W        W60717  35.856   4.405  11.054
  973W        W60718  16.099   0.947   0.379
  974W        W60719  34.574  35.920   0.457
  975W        W60720  37.842  18.184  13.397
  976W        W60721  29.425  34.451  14.467
  977W        W60722  15.180  28.116  10.407
  978W        W60723  41.400  18.659   0.881
  979W        W60724  11.749  24.576  14.778
  980W        W60725   0.491  34.526   3.735
  981W        W60726  40.841  24.020  13.348
  982W        W60727   6.677  33.126  14.435
  983W        W60728  31.119  18.741   5.751
  984W        W60729   1.800  15.292   0.298
  985W        W60730  18.599  33.948   4.283
  986W        W60731  27.496  30.971   5.780
  987W        W60732  37.082  40.433   3.784
  988W        W60733  32.886  42.836   2.747
  989W        W60734  19.652  15.747  11.422
  990W        W60735  32.462   8.375   1.308
  991W        W60736  29.015  12.705   3.271
  992W        W60737  28.058  19.136   1.814
  993W        W60738  41.935  39.418  12.991
  994W        W60739  22.715  44.447   1.319
  995W        W60740   0.482  31.579  11.861
  996W        W60741  43.449  15.158  14.898
  997W        W60742  33.046  42.353   4.696
  998W        W60743  22.690  21.737   3.685
  999W        W60744   2.349  43.948  14.877
 1000W        W60745  38.485  12.628   4.809
 1001W        W60746  30.639  36.855  10.989
 1002W        W60747  41.532  40.919  14.311
 1003W        W60748  41.903  26.692  13.359
 1004W        W60749  42.813  20.754  11.915
 1005W        W60750  37.473  38.355   2.795
 1006W        W60751  28.590  15.200  12.085
 1007W        W60752  41.890  29.044  10.089
 1008W        W60753  12.210  40.024   4.745
 1009W        W60754   0.335  25.679   2.377
 1010W        W60755  38.844   3.922   3.770
 1011W        W60756  13.293  25.972   0.849
 1012W        W60757  31.989  26.057   2.309
 1013W        W60758   3.292   6.858   0.382
 1014W        W60759  13.172  42.806  14.278
 1015W        W60760  35.604  42.483  14.335
 1016W        W60761  43.330  19.715   4.620
 1017W        W60762  36.581  13.211  12.506
 1018W        W60763  41.011  31.517   3.843
 1019W        W60764  41.471  22.645  11.414
 1020W        W60765   1.316  39.505   5.183
 1021W        W60766  24.090  23.192   0.318
 1022W        W60767  22.670  41.407  14.005
 1023W        W60768   6.762  32.550   3.846
 1024W        W60769   4.869  14.122  14.487
 1025W        W60770  30.103   9.647  12.901
 1026W        W60771  33.623  22.216   2.187
 1027W        W60772  16.806  40.456   1.839
 1028W        W60773  31.091  23.163  13.839
 1029W        W60774  28.526  42.438  11.555
 1030W        W60775  15.229  31.590   4.829
 1031W        W60776  27.447   7.694  11.036
 1032W        W60777  24.063  11.283   0.463
 1033W        W60778  18.677  25.563  14.904
 1034W        W60779  37.065   7.677   3.200
 1035W        W60780   6.706   7.830  13.371
 1036W        W60781  43.466  16.570  11.909
 1037W        W60782   4.247   5.339   1.919
 1038W        W60783   5.252  12.625   0.955
 1039W        W60784  26.118  28.545  11.078
 1040W        W60785  42.351  33.019   0.882
 1041W        W60786  37.012   6.768   0.810
 1042W        W60787  11.692  41.989  12.374
 1043W        W60788  13.814  32.935   3.349
 1044W        W60789  40.970  29.556  14.333
 1045W        W60790  30.141  29.012   0.909
 1046W        W60791  35.433  16.108   4.339
 1047W        W60792  28.019  20.769   2.290
 1048W        W60793  44.938  34.901   1.333
 1049W        W60794  28.510   2.436   3.295
 1050W        W60795  19.185  13.336   2.228
 1051W        W60796   3.938  42.344   3.173
 1052W        W60797  40.911  24.602   1.428
 1053W        W60798   5.240  43.384   1.225
 1054W        W60799  15.651  44.797   4.798
 1055W        W60800  37.034  31.029  10.900
 1056W        W60801  13.798   4.824  14.834
 1057W        W60802   0.781   5.790  14.316
 1058W        W60803  24.024  22.504   4.635
 1059W        W60804  21.071  16.128  13.426
 1060W        W60805   2.442  43.365  11.443
 1061W        W60806  22.700  43.864  14.464
 1062W        W60807  25.089  35.444  12.933
 1063W        W60808   3.236   6.296   0.800
 1064W        W60809  36.885  42.801   0.328
 1065W        W60810  26.967  29.059   3.301
 1066W        W60811  29.017  34.959   0.350
 1067W        W60812  31.509   8.729   0.469
 1068W        W60813  19.159  37.847   4.749
 1069W        W60814   8.315  28.035  14.390
 1070W        W60815  40.467   6.842   0.265
 1071W        W60816   8.258  21.083   3.683
 1072W        W60817  44.899   1.483   2.670
 1073W        W60818  37.966  38.493   0.863
 1074W        W60819  32.576  15.809  11.890
 1075W        W60820  14.767  34.487   2.372
 1076W        W60821  24.098   2.338  11.482
 1077W        W60822  10.699  16.310  11.511
 1078W        W60823  26.543  30.115   0.284
 1079W        W60824   8.298  13.634  13.484
 1080W        W60825   4.440  44.419  11.036
 1081W        W60826  27.942   1.253  11.859
 1082W        W60827  27.655  27.493  10.999
 1083W        W60828   3.875  35.459   5.287
 1084W        W60829  16.203  43.290   2.233
 1085W        W60830  33.882  41.877  14.927
 1086W        W60831  31.625  39.050  13.420
 1087W        W60832   4.859   5.828   3.348
 1088W        W60833  38.853   8.262   4.666
 1089W        W60834  26.508  20.257  14.479
 1090W        W60835   4.909  43.862   4.738
 1091W        W60836  35.957  37.022   4.139
 1092W        W60837  28.978   1.433  14.282
 1093W        W60838   7.198  23.604  14.835
 1094W        W60839  38.993   6.324  10.631
 1095W        W60840  19.753  43.900  13.419
 1096W        W60841  34.957  41.509  12.526
 1097W        W60842   6.234   2.413  10.926
 1098W        W60843  35.571  11.749  12.908
 1099W        W60844  30.452  36.440   1.269
 1100W        W60845  31.408  17.689  11.502
 1101W        W60846  37.081  12.856   0.410
 1102W        W60847   8.164   8.664   1.303
 1103W        W60848  25.193  41.510  12.915
 1104W        W60849  37.569  17.076   2.216
 1105W        W60850  22.076   4.863   2.385
 1106W        W60851  23.490  43.812  11.053
 1107W        W60852  41.848  22.050   1.392
 1108W        W60853  42.969  10.808  12.374
 1109W        W60854  31.920  10.721   0.957
 1110W        W60855  22.040  22.613   2.706
 1111W        W60856   2.283   0.490   3.381
 1112W        W60857  44.358  42.959  11.894
 1113W        W60858  38.892  30.649   3.861
 1114W        W60859  21.568  41.846   1.696
 1115W        W60860  20.540  21.020   4.351
 1116W        W60861  23.631  41.396   4.747
 1117W        W60862  20.133  24.197  12.525
 1118W        W60863   2.907  25.696   0.306
 1119W        W60864  41.339  30.510  10.469
 1120W        W60865  42.782  30.460   0.384
 1121W        W60866  44.817  16.239   3.769
 1122W        W60867  18.654  19.258   0.250
 1123W        W60868  16.300  28.619   1.705
 1124W        W60869  20.618  37.943  13.850
 1125W        W60870  36.031  34.378  11.994
 1126W        W60871  41.023   5.911   0.286
 1127W        W60872  16.291  16.297  13.813
 1128W        W60873   6.852  26.060   1.229
 1129W        W60874   7.252  28.130  12.392
 1130W        W60875   8.357  23.624   3.272
 1131W        W60876  16.813  29.010  10.524
 1132W        W60877  42.959  24.663   3.320
 1133W        W60878  39.326   4.901  14.822
 1134W        W60879  44.920  42.015  14.309
 1135W        W60880  18.567  41.333   0.885
 1136W        W60881  22.007  20.717  14.396
 1137W        W60882  23.708  22.022  10.902
 1138W        W60883  35.959  36.921   0.467
 1139W        W60884  32.885  25.990   3.835
 1140W        W60885  36.952  30.990   4.832
 1141W        W60886  32.602  20.176   0.256
 1142W        W60887  30.068  10.709  14.780
 1143W        W60888  39.480  40.817   4.322
 1144W        W60889   4.407  22.154  13.884
 1145W        W60890   5.900   7.191   2.225
 1146W        W60891  18.201  22.138  11.411
 1147W        W60892  37.991  41.447   2.883
 1148W        W60893  36.870  11.723  11.447
 1149W        W60894  26.130  31.065   3.218
 1150W        W60895  13.634  38.391   1.373
 1151W        W60896  16.280  10.263  11.921
 1152W        W60897  43.362  28.115  13.341
 1153W        W60898   0.289  43.975  11.470
 1154W        W60899  23.720   2.271   0.770
 1155W        W60900  12.714  10.355  11.470
 1156W        W60901  31.972   7.829  12.063
 1157W        W60902  39.853  33.075   4.700
 1158W        W60903  38.418  26.651   2.715
 1159W        W60904  12.232  26.005  11.983
 1160W        W60905  23.628   0.387   0.483
 1161W        W60906   0.837  11.296   3.697
 1162W        W60907  44.865  28.158   5.688
 1163W        W60908   1.460  31.526  14.276
 1164W        W60909  42.341  16.078  11.424
 1165W        W60910   4.220  13.717  13.535
 1166W        W60911  35.415  14.244  14.786
 1167W        W60912  37.426  32.632   2.229
 1168W        W60913  11.847  40.302   0.263
 1169W        W60914   4.725  20.569  14.762
 1170W        W60915   0.825  38.823  11.028
 1171W        W60916  39.002   1.279  12.970
 1172W        W60917   0.323  39.418  12.994
 1173W        W60918  29.535  11.694   1.256
 1174W        W60919  32.987   6.405   1.221
 1175W        W60920  30.625  37.535  11.551
 1176W        W60921  34.915  38.860  13.429
 1177W        W60922   1.884   5.396  14.793
 1178W        W60923   5.421   2.348  14.488
 1179W        W60924  11.780   3.796   4.620
 1180W        W60925  42.932  29.054  10.048
 1181W        W60926  12.780  33.912   3.185
 1182W        W60927  28.487  28.606   3.823
 1183W        W60928   2.300   8.858  11.393
 1184W        W60929   7.676  29.926  11.074
 1185W        W60930  42.892  11.308  12.545
 1186W        W60931  33.022  34.371   2.683
 1187W        W60932   5.207  28.523   2.865
 1188W        W60933  31.577  29.523  10.117
 1189W        W60934   5.895  21.144   3.296
 1190W        W60935  28.982  23.049  12.939
 1191W        W60936   0.936   9.183  11.587
 1192W        W60937  37.533  17.579  11.481
 1193W        W60938   0.280  43.291  12.574
 1194W        W60939  34.386  37.971   0.944
 1195W        W60940  34.003   6.341  13.489
 1196W        W60941  32.620  34.081  14.513
 1197W        W60942   7.219   6.183   1.710
 1198W        W60943  33.474  24.532  11.861
 1199W        W60944   9.349  35.508   2.871
 1200W        W60945  25.631  30.915   3.318
 1201W        W60946  26.994   9.336  14.784
 1202W        W60947  25.584  42.993  14.765
 1203W        W60948  21.241  39.884   4.295
 1204W        W60949  33.406  10.795  11.536
 1205W        W60950  26.039  43.964   4.825
 1206W        W60951   2.449  11.220   2.366
 1207W        W60952  35.029  16.783   4.150
 1208W        W60953  13.804   6.396  11.534
 1209W        W60954   3.332  21.114  11.546
 1210W        W60955  28.504  21.145   0.274
 1211W        W60956   6.427  44.486   2.761
 1212W        W60957  42.343  27.651  14.770
 1213W        W60958  30.422  30.602  14.429
 1214W        W60959   4.219  27.614  11.874
 1215W        W60960  28.103   0.249   4.701
 1216W        W60961   7.709   5.353   2.214
 1217W        W60962   0.851  22.118  10.628
 1218W        W60963  26.541  43.897  11.467
 1219W        W60964   7.372  39.464   3.777
 1220W        W60965  24.557   4.882  13.412
 1221W        W60966   9.278  26.178   2.769
 1222W        W60967  23.652  24.651  10.558
 1223W        W60968  12.361  24.641  11.417
 1224W        W60969  23.997  39.851   4.791
 1225W        W60970  26.628  24.128  10.559
 1226W        W60971  17.214  24.116  12.985
 1227W        W60972  44.328  24.523  10.643
 1228W        W60973   5.872  31.525  12.376
 1229W        W60974  31.514   5.874  12.987
 1230W        W60975  36.045  35.447   4.179
 1231W        W60976   1.373  25.645  14.303
 1232W        W60977  35.443  20.179   2.306
 1233W        W60978  25.662  21.116  12.402
 1234W        W60979  29.965  15.628   5.203
 1235W        W60980   6.252  13.332   1.929
 1236W        W60981  36.566   7.251   4.254
 1237W        W60982  28.049   4.814  13.874
 1238W        W60983   8.779  22.229  13.005
 1239W        W60984  21.564  18.077  11.540
 1240W        W60985   2.470  25.468   3.238
 1241W        W60986  37.422  14.242   0.813
 1242W        W60987  13.332   7.278  13.351
 1243W        W60988  27.135   1.441   3.794
 1244W        W60989  40.974  39.874  11.013
 1245W        W60990   3.864   5.431  11.129
 1246W        W60991  19.112  32.129   4.268
 1247W        W60992  28.474  44.276  10.554
 1248W        W60993  17.712  31.978   0.846
 1249W        W60994  22.171  26.051  14.443
 1250W        W60995  41.303  30.065  12.427
 1251W        W60996   9.740  23.083   1.722
 1252W        W60997  43.419   4.333  12.367
 1253W        W60998   1.328   4.289  14.990
 1254W        W60999  36.943   4.227   2.188
 1255W        W61000  34.603  38.524  11.423
 1256W        W61001  28.135  19.166   2.245
 1257W        W61002  28.936  11.812  11.544
 1258W        W61003  44.261   4.725  12.965
 1259W        W61004  30.129   6.199  13.964
 1260W        W61005  37.877  42.315   0.260
 1261W        W61006   7.262  30.553  12.014
 1262W        W61007  23.055   5.227  11.374
 1263W        W61008  21.700   1.323   4.156
 1264W        W61009   7.331  10.727   1.701
 1265W        W61010  23.704  34.556  10.124
 1266W        W61011  44.826  10.353  11.586
 1267W        W61012  39.359  19.696  14.918
 1268W        W61013  18.199  21.585   4.268
 1269W        W61014  18.226   8.745   2.243
 1270W        W61015  38.943  34.962   2.194
 1271W        W61016  28.068  34.935   3.302
 1272W        W61017  37.473   0.385  10.921
 1273W        W61018   0.861  30.032   9.499
 1274W        W61019  11.690  25.137   3.348
 1275W        W61020  27.115  25.092  12.512
 1276W        W61021  24.132  28.992  14.988
 1277W        W61022   2.391   3.432   2.694
 1278W        W61023  16.590   7.215  11.468
 1279W        W61024  14.633  25.682   0.855
 1280W        W61025  42.949  19.067   0.827
 1281W        W61026  42.941  16.781  11.898
 1282W        W61027  37.470  30.963  13.987
 1283W        W61028  27.550   6.750   0.813
 1284W        W61029  11.786  44.779   1.697
 1285W        W61030   3.379  39.958   2.377
 1286W        W61031  28.543   8.392   3.224
 1287W        W61032  36.060  34.935   0.878
 1288W        W61033  26.520   9.265  12.073
 1289W        W61034   1.865   0.955  12.012
 1290W        W61035   4.353   8.870   0.369
 1291W        W61036  39.365   5.806   2.901
 1292W        W61037   3.229   0.934   3.211
 1293W        W61038   2.825  16.764  14.013
 1294W        W61039  19.698  21.714  10.990
 1295W        W61040   3.935  38.997  10.403
 1296W        W61041  30.521  11.363   1.927
 1297W        W61042   6.395  14.140  10.925
 1298W        W61043  23.235   3.271  13.500
 1299W        W61044  16.792  26.991  14.949
 1300W        W61045  23.190  13.267  12.981
 1301W        W61046  11.667  32.585   3.771
 1302W        W61047  27.490  18.270  12.859
 1303W        W61048   0.248   6.390  10.559
 1304W        W61049  14.714  26.556  13.045
 1305W        W61050  11.254  38.905   1.255
 1306W        W61051  40.827  13.628   4.678
 1307W        W61052  19.640  31.457   5.133
 1308W        W61053   9.361  19.213   3.149
 1309W        W61054   1.828   4.934   0.869
 1310W        W61055  16.123  40.957   2.702
 1311W        W61056  34.881  35.070  12.408
 1312W        W61057  43.446   5.243   4.664
 1313W        W61058  16.740  38.902  11.603
 1314W        W61059  31.942  25.516   5.308
 1315W        W61060  35.468   5.860   5.709
 1316W        W61061  21.107  27.168   2.674
 1317W        W61062  29.479  34.443   1.223
 1318W        W61063  41.989  36.877   0.960
 1319W        W61064  11.195  35.038   5.764
 1320W        W61065  18.646   3.922  13.806
 1321W        W61066  38.479  10.209   1.872
 1322W        W61067  18.231   6.860  14.275
 1323W        W61068  34.611  41.906  10.945
 1324W        W61069   4.337   6.778   3.803
 1325W        W61070  40.545  30.543   1.747
 1326W        W61071  15.327   6.816  11.460
 1327W        W61072  42.881  36.001  11.446
 1328W        W61073  33.117  11.250   3.751
 1329W        W61074  15.627   6.912  13.049
 1330W        W61075  20.575   2.281   0.307
 1331W        W61076  44.466  38.336   3.779
 1332W        W61077  25.199  20.529  14.357
 1333W        W61078  14.808  19.256   1.760
 1334W        W61079   0.744   2.431  11.577
 1335W        W61080   9.704   6.686   4.677
 1336W        W61081  19.163  31.081  12.497
 1337W        W61082  17.720  16.296  10.548
 1338W        W61083  10.377  14.733   2.887
 1339W        W61084  10.846  38.039   1.741
 1340W        W61085  13.206  42.922   3.744
 1341W        W61086   7.383  36.844  12.922
 1342W        W61087  42.905  13.132  11.493
 1343W        W61088  35.589   7.693  12.081
 1344W        W61089  10.862  29.536   1.748
 1345W        W61090  33.969   4.945   5.764
 1346W        W61091   6.220  39.399  12.881
 1347W        W61092  11.361  23.180  13.960
 1348W        W61093  23.174  30.994   1.416
 1349W        W61094  42.335  18.627   2.401
 1350W        W61095   6.914  40.412   0.739
 1351W        W61096  12.267  26.094  12.453
 1352W        W61097  44.300  22.582  12.870
 1353W        W61098  44.431  21.202   0.957
 1354W        W61099  38.983  19.135   0.467
 1355W        W61100   2.820  29.647   9.947
 1356W        W61101  32.617  22.710   0.453
 1357W        W61102   3.953  27.123   4.714
 1358W        W61103  18.166  21.636   0.455
 1359W        W61104  30.546  22.023  11.113
 1360W        W61105  21.082   8.884   2.392
 1361W        W61106   0.844  36.925   2.680
 1362W        W61107  10.740  14.337   0.754
 1363W        W61108  30.443   8.197   4.637
 1364W        W61109  43.507  24.979   4.652
 1365W        W61110  20.270  29.950   3.240
 1366W        W61111   3.345  13.117  13.036
 1367W        W61112  39.421  41.497  11.118
 1368W        W61113   2.389  13.838   4.602
 1369W        W61114  29.484   6.909   4.664
 1370W        W61115  10.270  28.522  13.528
 1371W        W61116  25.658  18.212  11.870
 1372W        W61117  35.048  12.657  13.374
 1373W        W61118  42.347  24.097   4.217
 1374W        W61119  14.171  28.664  11.898
 1375W        W61120  13.600   6.204  12.561
 1376W        W61121  37.393  31.021   4.275
 1377W        W61122  39.365   3.792   2.856
 1378W        W61123  43.988  32.019   2.355
 1379W        W61124   3.220   0.812  10.921
 1380W        W61125  41.497   4.907   0.403
 1381W        W61126  29.005   9.159  13.950
 1382W        W61127  17.083   4.361  10.625
 1383W        W61128  14.627   7.282  14.777
 1384W        W61129  37.847   8.399  12.497
 1385W        W61130   2.257  26.657   1.904
 1386W        W61131  37.932  32.054  11.127
 1387W        W61132  19.740  30.606  10.602
 1388W        W61133  26.972  44.986   4.691
 1389W        W61134  20.210   5.736   0.917
 1390W        W61135  44.446  23.537   4.249
 1391W        W61136  14.800  12.226  12.365
 1392W        W61137  33.130  16.300  13.827
 1393W        W61138  36.413  26.178  12.357
 1394W        W61139   4.844   3.408  12.029
 1395W        W61140  24.060  32.623   0.281
 1396W        W61141   1.391  21.024   0.457
 1397W        W61142  18.065   7.326  13.467
 1398W        W61143  29.139  42.861  11.068
 1399W        W61144  16.805  42.473   4.673
 1400W        W61145  24.016  37.017  12.929
 1401W        W61146  18.696  32.412  11.889
 1402W        W61147  25.621  42.456   4.162
 1403W        W61148  17.093   9.877   3.257
 1404W        W61149   3.426  13.180  12.035
 1405W        W61150  10.343  18.683  14.828
 1406W        W61151   7.692  17.065   4.605
 1407W        W61152  44.803  25.558  10.945
 1408W        W61153  23.208  19.054   0.820
 1409W        W61154  27.582  41.027  12.876
 1410W        W61155  11.276   8.197  12.496
 1411W        W61156  12.355  23.204   4.628
 1412W        W61157  26.081  17.625   3.682
 1413W        W61158   7.254  39.006   3.669
 1414W        W61159  32.555  35.991   0.842
 1415W        W61160  38.900  38.824   0.793
 1416W        W61161   4.884  16.148  12.077
 1417W        W61162  12.820  41.990   2.203
 1418W        W61163   5.768  37.428  13.505
 1419W        W61164   2.465   9.393  11.394
 1420W        W61165  36.487  12.754   3.722
 1421W        W61166  15.123  35.520   1.431
 1422W        W61167   1.769  38.064   1.215
 1423W        W61168  42.459  36.462   1.697
 1424W        W61169  19.634  18.053   0.412
 1425W        W61170  24.591  34.119  11.995
 1426W        W61171   1.333  22.157  13.049
 1427W        W61172  19.085  19.227  14.340
 1428W        W61173   3.735   2.966   0.325
 1429W        W61174  25.070  32.548  12.360
 1430W        W61175  33.996  18.154  10.459
 1431W        W61176  35.367  20.625  14.293
 1432W        W61177  20.061  27.548   4.166
 1433W        W61178  23.152  23.028  14.478
 1434W        W61179  42.458  21.120   2.720
 1435W        W61180   4.884  22.113   1.833
 1436W        W61181  29.949  40.408  12.971
 1437W        W61182  11.786  25.682   1.400
 1438W        W61183   2.922  41.380  13.492
 1439W        W61184  12.847  34.381   4.353
 1440W        W61185  30.482  35.570  12.452
 1441W        W61186  26.495  42.850  11.989
 1442W        W61187  29.498  21.691   3.336
 1443W        W61188  10.750  20.573   1.768
 1444W        W61189  20.032   0.288  14.466
 1445W        W61190  21.245  21.071   1.708
 1446W        W61191  15.611  36.500   5.088
 1447W        W61192  15.707   7.349   4.294
 1448W        W61193  36.433  10.334   1.739
 1449W        W61194  13.624   0.977  14.384
 1450W        W61195  28.144  23.044   1.880
 1451W        W61196  27.521  44.377   2.858
 1452W        W61197  12.744  34.063  10.604
 1453W        W61198  24.193   7.758   3.354
 1454W        W61199   1.340  10.732  13.958
 1455W        W61200  24.582   9.827   1.228
 1456W        W61201  26.640  14.175  12.440
 1457W        W61202  41.003  33.606  12.078
 1458W        W61203   6.756   9.315  10.996
 1459W        W61204   0.781  25.969  13.399
 1460W        W61205  42.018   3.853   1.735
 1461W        W61206   4.440  20.625   3.749
 1462W        W61207   9.213   0.968   4.333
 1463W        W61208  41.974  30.500   5.135
 1464W        W61209  22.062   4.805  10.547
 1465W        W61210  41.952  35.983   5.255
 1466W        W61211   8.253  33.083   2.324
 1467W        W61212  22.090  22.565  11.446
 1468W        W61213  41.299   9.337   2.187
 1469W        W61214  12.685  24.017   4.749
 1470W        W61215   6.400  31.436  13.048
 1471W        W61216   0.821   5.755  11.371
 1472W        W61217  28.046  35.923  12.570
 1473W        W61218   3.850  11.667   0.303
 1474W        W61219  37.363  15.780  12.572
 1475W        W61220  33.571  36.059   2.315
 1476W        W61221  34.977  40.318   1.866
 1477W        W61222  11.683  28.999  12.562
 1478W        W61223  29.654   2.940   3.203
 1479W        W61224   8.269  16.670   2.877
 1480W        W61225  25.686   5.390  14.288
 1481W        W61226  31.545   6.324   1.835
 1482W        W61227   7.297   6.404   4.786
 1483W        W61228  27.501  32.037   2.859
 1484W        W61229  44.004  23.604   3.648
 1485W        W61230  25.568  26.171  12.912
 1486W        W61231  22.606  18.746   5.153
 1487W        W61232  22.038   7.263   3.764
 1488W        W61233  21.110  43.934   0.418
 1489W        W61234  15.184  40.020  14.826
 1490W        W61235  13.666   3.956   4.602
 1491W        W61236  14.143  11.154   0.396
 1492W        W61237  41.953  34.371   2.348
 1493W        W61238  33.054  18.171   4.220
 1494W        W61239  28.120  35.566   2.225
 1495W        W61240  34.925  15.142   4.187
 1496W        W61241  19.261  27.549   1.409
 1497W        W61242  38.997  38.570  14.502
 1498W        W61243  25.008  18.693   2.350
 1499W        W61244  15.603   8.846   3.692
 1500W        W61245  10.693  16.650   2.869
 1501W        W61246  20.686  34.504   1.290
 1502W        W61247  28.091   2.370   2.259
 1503W        W61248  17.101  18.226   4.287
 1504W        W61249  10.643  37.901  10.459
 1505W        W61250   4.254  33.897  10.979
 1506W        W61251   9.829  43.439  10.628
 1507W        W61252  17.721  22.153  14.396
 1508W        W61253  23.593  22.241  10.601
 1509W        W61254  41.445  31.519  13.998
 1510W        W61255  18.774   2.425  12.434
 1511W        W61256   4.795  15.790  10.141
 1512W        W61257   7.881  15.613   0.453
 1513W        W61258  35.070  34.941  13.937
 1514W        W61259  19.548  25.553  14.923
 1515W        W61260   0.894  36.995   3.226
 1516W        W61261  14.129  35.894  14.007
 1517W        W61262  15.210  11.323   2.331
 1518W        W61263   6.876   1.948   0.443
 1519W        W61264   3.731  37.078   1.869
 1520W        W61265  14.651   4.898  12.930
 1521W        W61266  11.190  43.393   4.634
 1522W        W61267  23.633  34.999  13.853
 1523W        W61268  35.484  15.292  12.905
 1524W        W61269  23.728  17.623   2.322
 1525W        W61270   4.331  24.044   1.349
 1526W        W61271  34.416  33.380   2.729
 1527W        W61272  39.952  12.315  11.526
 1528W        W61273  16.108  15.640  13.365
 1529W        W61274  13.194  43.849   3.691
 1530W        W61275  28.464  16.780  12.899
 1531W        W61276   8.269  27.004  14.415
 1532W        W61277   8.241  37.830  14.370
 1533W        W61278  11.205  26.535  11.593
 1534W        W61279  24.554  20.529  14.784
 1535W        W61280  30.135  23.061   0.410
 1536W        W61281  41.299  43.974   1.697
 1537W        W61282  35.546  15.129  14.480
 1538W        W61283  13.334   1.407  12.987
 1539W        W61284  33.127   1.872  12.073
 1540W        W61285  37.454   6.798  14.981
 1541W        W61286  16.130   7.703  11.868
 1542W        W61287  19.768   3.222  13.930
 1543W        W61288   5.355  42.880   4.261
 1544W        W61289  42.880  16.671   0.766
 1545W        W61290  24.587  19.747   4.261
 1546W        W61291  20.041  14.618  14.288
 1547W        W61292  44.297  22.500   4.682
 1548W        W61293  33.953  25.976   3.261
 1549W        W61294   1.272   7.241  12.546
 1550W        W61295  16.265  42.306   3.188
 1551W        W61296  24.174  30.653  12.429
 1552W        W61297  12.741  20.164   2.382
 1553W        W61298  21.614  19.195   1.225
 1554W        W61299  43.432   8.289   0.272
 1555W        W61300  39.468  15.770   1.906
 1556W        W61301  25.199   9.785  10.501
 1557W        W61302   1.803   4.207  14.992
 1558W        W61303  11.716   9.182   0.797
 1559W        W61304  33.983  37.892   1.448
 1560W        W61305  10.737  41.523   4.253
 1561W        W61306  39.062  21.574   1.698
 1562W        W61307  18.700  34.867   3.383
 1563W        W61308  31.618  19.547   3.347
 1564W        W61309   8.187  31.076  14.981
 1565W        W61310   6.373   2.446   4.296
 1566W        W61311  17.568  29.007   0.297
 1567W        W61312  28.609   9.839   0.452
 1568W        W61313  33.943   8.839   1.901
 1569W        W61314  30.637  21.750  12.854
 1570W        W61315   4.258  27.451   1.367
 1571W        W61316  13.220  20.585   1.899
 1572W        W61317  19.135  11.733  11.394
 1573W        W61318  14.279  42.432   4.179
 1574W        W61319  33.930  30.603   3.786
 1575W        W61320   8.222  25.988  13.507
 1576W        W61321  10.822   3.834  14.783
 1577W        W61322  14.748   3.740   4.646
 1578W        W61323   5.290  13.272   1.305
 1579W        W61324  12.147   7.208   4.746
 1580W        W61325  37.874  21.529  14.019
 1581W        W61326  33.109  20.566   5.663
 1582W        W61327   1.313  28.571  14.469
 1583W        W61328   7.240  32.900  12.485
 1584W        W61329  39.950  17.170  13.374
 1585W        W61330  26.544   9.323  12.939
 1586W        W61331   1.353  14.232   0.255
 1587W        W61332  16.798  23.996  11.435
 1588W        W61333  21.251   7.808  14.878
 1589W        W61334  44.349  19.125   1.357
 1590W        W61335  14.331  39.536   4.654
 1591W        W61336  35.041   9.707  12.930
 1592W        W61337  17.647  14.291  11.863
 1593W        W61338  27.500  36.347  10.500
 1594W        W61339  34.491  13.790   2.891
 1595W        W61340  13.158  43.003  10.959
 1596W        W61341   3.710  13.652  13.502
 1597W        W61342  16.315  28.174  10.044
 1598W        W61343  18.663  24.572   3.820
 1599W        W61344   1.290  19.729  13.440
 1600W        W61345  12.232  42.309   3.196
 1601W        W61346  28.999  32.526   3.316
 1602W        W61347   2.342  28.563  13.479
 1603W        W61348  29.110  17.127   0.402
 1604W        W61349  29.093  27.673  11.475
 1605W        W61350  22.199  28.496  10.590
 1606W        W61351  11.779  33.414   4.350
 1607W        W61352  16.222  29.977  11.481
 1608W        W61353  37.575  21.035  13.905
 1609W        W61354  40.979  42.403   4.257
 1610W        W61355  28.146  31.134   4.158
 1611W        W61356  31.109  27.069  11.386
 1612W        W61357  39.989  16.246   1.935
 1613W        W61358  10.843   7.741  14.383
 1614W        W61359  39.033  11.850  14.344
 1615W        W61360  17.249  21.138  13.817
 1616W        W61361  38.370  43.405  10.929
 1617W        W61362   9.776  26.953   2.317
 1618W        W61363  41.835  36.896   4.207
 1619W        W61364  15.674  25.539  14.811
 1620W        W61365  17.640  27.489   1.325
 1621W        W61366  13.287  40.471   3.714
 1622W        W61367  27.996   2.759   3.194
 1623W        W61368  17.123  20.037  12.366
 1624W        W61369   7.762  23.502   5.117
 1625W        W61370  14.124   3.771  12.395
 1626W        W61371  19.741  42.446   0.361
 1627W        W61372   8.892  17.597   0.458
 1628W        W61373  39.508  39.046   3.658
 1629W        W61374   7.717   0.834   3.333
 1630W        W61375  34.574  16.767   4.762
 1631W        W61376  40.000   2.768   0.363
 1632W        W61377   4.213   2.313  13.364
 1633W        W61378  26.042  17.704  14.014
 1634W        W61379  19.709  15.624   0.935
 1635W        W61380  12.611  43.396   0.762
 1636W        W61381   4.301  31.618  10.148
 1637W        W61382  34.879  28.056   0.956
 1638W        W61383  33.118  24.534   2.408
 1639W        W61384  27.688   4.774   0.275
 1640W        W61385  30.067  39.856   4.721
 1641W        W61386  14.192  24.487  13.955
 1642W        W61387   5.778   5.282   3.196
 1643W        W61388   8.770  14.797  11.961
 1644W        W61389  40.509  17.719   1.422
 1645W        W61390  24.031  17.068  14.359
 1646W        W61391  27.024  42.982  11.456
 1647W        W61392  28.093  37.933  14.402
 1648W        W61393  43.456  36.055  14.334
 1649W        W61394  18.651  42.016   0.777
 1650W        W61395  26.052  18.235  14.782
 1651W        W61396  35.426  43.009   1.234
 1652W        W61397  26.579   6.746   1.287
 1653W        W61398  31.508   6.726   1.302
 1654W        W61399  30.433  13.255   4.281
 1655W        W61400   0.950  12.335   4.624
 1656W        W61401  22.642  43.849  10.432
 1657W        W61402  41.374  22.065   2.371
 1658W        W61403  33.460  17.745  11.873
 1659W        W61404   9.204  19.680   4.644
 1660W        W61405   3.318   0.755   3.681
 1661W        W61406  32.410  19.723  14.449
 1662W        W61407  12.179  39.413   0.311
 1663W        W61408  25.996   5.754  14.857
 1664W        W61409  11.711  41.880  14.856
 1665W        W61410  11.240   8.390  13.050
 1666W        W61411  35.512  26.478   1.288
 1667W        W61412  22.514  43.378   1.741
 1668W        W61413  30.578   3.816   1.416
 1669W        W61414  23.121  16.677   3.669
 1670W        W61415  41.003  10.177   3.864
 1671W        W61416  19.160   7.242   3.755
 1672W        W61417  10.753   5.756  12.908
 1673W        W61418  33.894  28.160   2.765
 1674W        W61419  32.078  28.064  14.987
 1675W        W61420  30.033   0.849   2.680
 1676W        W61421  21.142  36.511   4.163
 1677W        W61422  21.670  33.385   1.365
 1678W        W61423   4.235   7.256   3.837
 1679W        W61424  32.471  14.759  11.463
 1680W        W61425   8.192   8.791   3.700
 1681W        W61426  38.819  23.115   1.263
 1682W        W61427   8.250   6.220   0.846
 1683W        W61428  34.025  13.204   0.889
 1684W        W61429  19.704  31.104   1.228
 1685W        W61430  38.422  44.781   0.370
 1686W        W61431   2.343  32.992   2.330
 1687W        W61432  26.202  32.937  13.502
 1688W        W61433  36.516  29.158  11.940
 1689W        W61434  27.132   7.297  13.403
 1690W        W61435   7.260  14.592   2.243
 1691W        W61436  29.171  27.150  12.472
 1692W        W61437  27.970   9.206   1.835
 1693W        W61438  13.839  40.933  13.824
 1694W        W61439  25.175  13.808  14.372
 1695W        W61440  21.573   7.715  11.040
 1696W        W61441   4.329  11.298  13.512
 1697W        W61442  34.423  14.280  10.414
 1698W        W61443  20.133  10.343  12.866
 1699W        W61444  25.546  21.664  13.936
 1700W        W61445  11.318   6.274   2.375
 1701W        W61446   4.800  42.943  11.114
 1702W        W61447  35.040  12.336  13.015
 1703W        W61448   4.367  38.829  10.507
 1704W        W61449  10.651  43.769  14.346
 1705W        W61450  22.123   8.879  12.952
 1706W        W61451  41.969  21.595   4.712
 1707W        W61452  20.597  33.940   0.744
 1708W        W61453  15.125  30.114   3.684
 1709W        W61454  11.296   7.374  13.792
 1710W        W61455  37.458  23.627  14.865
 1711W        W61456  43.888  19.578   4.802
 1712W        W61457  27.088  32.084  10.584
 1713W        W61458  37.070  27.605  11.428
 1714W        W61459  23.001  27.588   1.800
 1715W        W61460  38.060  31.016   2.384
 1716W        W61461  43.917   9.187  13.969
 1717W        W61462  10.198   2.851   3.251
 1718W        W61463  38.533  38.014  14.961
 1719W        W61464  35.093  32.532  12.417
 1720W        W61465   1.327  10.680   3.635
 1721W        W61466  27.561  24.990  12.864
 1722W        W61467  13.320   2.843   0.458
 1723W        W61468  12.262   9.225   2.404
 1724W        W61469  18.551  11.747   0.948
 1725W        W61470  38.464  20.657   1.307
 1726W        W61471  28.657  12.814  14.293
 1727W        W61472   0.828  43.946   3.348
 1728W        W61473  20.594  15.291   0.377
 1729W        W61474  44.395   8.851   4.198
 1730W        W61475  15.174  40.489   1.284
 1731W        W61476  35.429  15.118   4.339
 1732W        W61477  44.758   1.876   2.755
 1733W        W61478  14.698   4.796  12.512
 1734W        W61479   7.870   0.395  13.449
 1735W        W61480  39.365  15.682  14.494
 1736W        W61481   4.213   6.776   1.751
 1737W        W61482   3.416  34.905   5.223
 1738W        W61483  39.455   3.767  14.304
 1739W        W61484  13.641   5.767   4.679
 1740W        W61485  18.606   3.722  11.871
 1741W        W61486  23.202  38.550   3.266
 1742W        W61487  15.109  18.054  13.826
 1743W        W61488  28.647  41.882  11.914
 1744W        W61489  22.617  19.233   3.645
 1745W        W61490  27.092  24.487   1.422
 1746W        W61491  20.131  16.794   2.716
 1747W        W61492  35.573  21.592  14.911
 1748W        W61493   5.300   9.733   3.175
 1749W        W61494   7.414  31.500   4.215
 1750W        W61495   8.859   8.839   1.317
 1751W        W61496  23.698  11.291  11.444
 1752W        W61497   4.938  35.442  11.979
 1753W        W61498   4.427  39.966  11.982
 1754W        W61499   2.901   1.321   3.652
 1755W        W61500  22.671  27.189  11.881
 1756W        W61501  30.051   8.319  10.599
 1757W        W61502  21.709  13.820   5.584
 1758W        W61503  29.480  35.028   2.357
 1759W        W61504  25.070  44.964  13.456
 1760W        W61505  28.118  43.486   4.244
 1761W        W61506  12.208  44.841  11.456
 1762W        W61507   3.758  30.640  10.587
 1763W        W61508  40.326  16.240  12.398
 1764W        W61509  28.675  10.649   0.855
 1765W        W61510   7.400  35.991  12.346
 1766W        W61511   5.305  11.846   4.256
 1767W        W61512  13.290  23.163   2.726
 1768W        W61513   2.327  42.866   0.465
 1769W        W61514   6.359  37.966  11.972
 1770W        W61515  21.177  20.240   1.385
 1771W        W61516  36.423  44.289   0.271
 1772W        W61517  13.130  12.324   1.875
 1773W        W61518  42.419  22.731   0.779
 1774W        W61519  27.133  17.648   2.674
 1775W        W61520   6.768  29.634   3.185
 1776W        W61521  23.676  38.451  12.365
 1777W        W61522  15.219   8.773   2.413
 1778W        W61523  23.593  22.649   2.827
 1779W        W61524  36.956  24.032  14.785
 1780W        W61525  27.088  36.018   3.338
 1781W        W61526  11.282  38.355  14.896
 1782W        W61527  26.654  42.789   1.389
 1783W        W61528  18.151  15.643   0.826
 1784W        W61529   4.392  16.295   4.783
 1785W        W61530  39.408  25.573  11.521
 1786W        W61531  15.599  43.908  13.356
 1787W        W61532  32.055   2.748   3.205
 1788W        W61533  19.257  36.067  11.468
 1789W        W61534  20.142   3.779   0.870
 1790W        W61535  23.518  44.296  14.793
 1791W        W61536  44.935  13.689   3.656
 1792W        W61537  17.634  22.569   3.311
 1793W        W61538  28.641   9.339  10.555
 1794W        W61539  26.524   6.241   2.179
 1795W        W61540  32.104  39.951   0.264
 1796W        W61541   0.420  33.519  10.891
 1797W        W61542   4.718  25.162   2.697
 1798W        W61543  24.007  14.641  13.004
 1799W        W61544  34.404  26.695  12.859
 1800W        W61545  24.987  41.024  11.908
 1801W        W61546  21.641   1.783  14.936
 1802W        W61547  27.000  10.752  10.465
 1803W        W61548  13.611  31.533   2.867
 1804W        W61549  42.819  33.878   0.813
 1805W        W61550  35.942  33.474   4.665
 1806W        W61551  43.384  25.017  11.127
 1807W        W61552   2.396  16.273  14.436
 1808W        W61553  22.042  11.753  11.551
 1809W        W61554   1.848  39.365  10.134
 1810W        W61555  23.052  21.109   2.888
 1811W        W61556  20.557  32.443   3.790
 1812W        W61557   0.378  20.119   3.276
 1813W        W61558  23.700  21.738  14.461
 1814W        W61559  20.184  16.101   2.276
 1815W        W61560  42.995  29.979   3.377
 1816W        W61561  29.006   7.209   0.456
 1817W        W61562  21.031  12.165  13.469
 1818W        W61563  13.197  15.783   3.702
 1819W        W61564  44.464   8.823  14.395
 1820W        W61565  10.664  32.545   2.878
 1821W        W61566  24.493  10.754   4.153
 1822W        W61567  29.091   0.793  13.911
 1823W        W61568  12.127  43.484   3.364
 1824W        W61569  42.975  10.238   1.283
 1825W        W61570   6.787   0.803   0.441
 1826W        W61571  42.886   2.786   3.304
 1827W        W61572   3.383  17.793  14.419
 1828W        W61573   6.739  34.416  13.334
 1829W        W61574   7.896  18.706  11.114
 1830W        W61575  27.170   1.866   4.355
 1831W        W61576  35.504  29.126   2.751
 1832W        W61577  21.264  29.477   0.880
 1833W        W61578  15.282  44.373  14.316
 1834W        W61579  42.882  10.293   2.830
 1835W        W61580  20.102  10.323   0.468
 1836W        W61581  30.132   5.891  12.549
 1837W        W61582  13.243  41.464  12.993
 1838W        W61583  36.922  40.532  14.009
 1839W        W61584  17.679  22.181   1.925
 1840W        W61585  41.879  26.969   4.818
 1841W        W61586  14.267   0.890   3.645
 1842W        W61587  17.170  18.607  10.582
 1843W        W61588  44.470  12.349  14.831
 1844W        W61589  39.928   6.908   4.631
 1845W        W61590  36.845   3.932   1.413
 1846W        W61591  13.710  36.358   2.318
 1847W        W61592  37.040  25.996  11.416
 1848W        W61593  27.014  16.192   9.965
 1849W        W61594  14.774  23.694   3.172
 1850W        W61595   8.781  26.628   3.160
 1851W        W61596  16.078   2.302  12.513
 1852W        W61597  41.319   5.218  12.846
 1853W        W61598   0.925   6.680   4.823
 1854W        W61599  13.845   6.237  10.995
 1855W        W61600   7.394  31.950   1.396
 1856W        W61601   1.368  23.089  11.900
 1857W        W61602  28.595  36.421  14.482
 1858W        W61603  42.009  32.954   0.347
 1859W        W61604  19.624   7.272   4.779
 1860W        W61605  23.087   6.387  11.570
 1861W        W61606   2.407  17.576   0.851
 1862W        W61607  36.480  34.890  14.016
 1863W        W61608  13.253   6.840  11.986
 1864W        W61609  39.048  25.144  14.417
 1865W        W61610  12.318  22.633  14.973
 1866W        W61611  41.340  13.725   4.734
 1867W        W61612  43.846  20.200  12.522
 1868W        W61613  19.199  39.359  14.815
 1869W        W61614  11.655   9.705   3.804
 1870W        W61615  13.228  35.098   0.306
 1871W        W61616  17.774  25.211   1.856
 1872W        W61617  20.061   1.793   2.348
 1873W        W61618  31.487  12.839   0.761
 1874W        W61619  26.152  34.509   3.642
 1875W        W61620  31.545  13.742   1.292
 1876W        W61621  33.577  37.360  11.877
 1877W        W61622  35.021  35.385   0.930
 1878W        W61623  33.443   5.927   0.443
 1879W        W61624  13.239   0.263  12.913
 1880W        W61625  13.702  29.612   2.202
 1881W        W61626  15.632  38.548  11.881
 1882W        W61627   0.934  24.550  13.857
 1883W        W61628   0.492  15.297  11.538
 1884W        W61629  29.637  24.596  13.435
 1885W        W61630  15.751  39.058  11.991
 1886W        W61631  27.491  12.845   1.741
 1887W        W61632  27.017  42.357  11.400
 1888W        W61633  26.690  31.628   4.783
 1889W        W61634  37.950  44.994   1.848
 1890W        W61635  44.787  37.566   0.268
 1891W        W61636   3.793  20.537   4.272
 1892W        W61637  38.884  19.253   2.838
 1893W        W61638  36.364  42.312   0.325
 1894W        W61639  18.296   6.912   3.793
 1895W        W61640  33.013  34.895   4.290
 1896W        W61641  19.566  42.363  11.102
 1897W        W61642   4.846   0.936   9.947
 1898W        W61643   3.755  30.450   3.305
 1899W        W61644  14.198  11.331  13.429
 1900W        W61645   2.383  12.122  11.125
 1901W        W61646  40.936  37.056   4.693
 1902W        W61647  31.900  29.149  14.332
 1903W        W61648  42.320  36.530  11.540
 1904W        W61649  20.048   5.817   2.373
 1905W        W61650  26.061   5.238  13.023
 1906W        W61651  16.088  25.215   3.635
 1907W        W61652  20.678  23.110   1.405
 1908W        W61653   1.361  23.193   1.302
 1909W        W61654  31.448  38.350   1.883
 1910W        W61655  22.196  43.437   0.313
 1911W        W61656  29.011  24.625   4.766
 1912W        W61657   8.889  36.876  10.940
 1913W        W61658   9.265  20.751   1.228
 1914W        W61659  30.438  16.134  10.404
 1915W        W61660  10.762  32.948   2.711
 1916W        W61661   4.291  12.723  14.285
 1917W        W61662  23.595   7.703   0.830
 1918W        W61663  34.938   5.417   1.762
 1919W        W61664  31.052  27.564  13.952
 1920W        W61665  38.469  22.173   1.849
 1921W        W61666   4.777  43.345  13.377
 1922W        W61667   4.438  18.603  14.511
 1923W        W61668  38.502  11.794   4.257
 1924W        W61669  27.993   2.309  14.466
 1925W        W61670   0.835  42.355  10.584
 1926W        W61671  33.889  44.864  11.445
 1927W        W61672  42.376  35.854  11.517
 1928W        W61673   3.352  40.918   0.852
 1929W        W61674  25.102  29.490   3.188
 1930W        W61675  34.532  17.114  12.410
 1931W        W61676  20.686  25.554   0.469
 1932W        W61677  17.087  30.081   3.261
 1933W        W61678  27.099   2.407  11.599
 1934W        W61679   2.737  43.015   4.715
 1935W        W61680  32.471  38.966   3.152
 1936W        W61681  34.900  33.535   0.760
 1937W        W61682   3.758  19.680  13.876
 1938W        W61683  26.094  10.765   1.435
 1939W        W61684  43.989  23.621  13.963
 1940W        W61685  30.607   2.836   9.601
 1941W        W61686  30.019  21.035  11.516
 1942W        W61687  30.540   9.354  14.992
 1943W        W61688  24.525  13.322  14.816
 1944W        W61689   9.879  35.932  11.586
 1945W        W61690   0.263   1.447  11.987
 1946W        W61691  32.436  25.663  10.596
 1947W        W61692   2.423  24.006  11.457
 1948W        W61693  16.749  24.628   3.673
 1949W        W61694  44.998  33.092   0.891
 1950W        W61695  14.682  10.663  14.956
 1951W        W61696  17.555  16.224   4.794
 1952W        W61697  40.456  27.664   2.742
 1953W        W61698  41.433  13.155  13.312
 1954W        W61699   9.290  30.589   4.219
 1955W        W61700  23.693  42.392   4.748
 1956W        W61701  15.604  42.809  12.831
 1957W        W61702  43.278  19.747  10.910
 1958W        W61703  21.603  40.831  11.511
 1959W        W61704  24.626  26.575  10.537
 1960W        W61705  41.040  38.402  13.458
 1961W        W61706  23.633  17.246   3.871
 1962W        W61707  37.376  10.786  11.495
 1963W        W61708  14.825  41.860   1.792
 1964W        W61709  24.566  38.069  13.335
 1965W        W61710  20.203  44.340   2.290
 1966W        W61711  41.333  43.790  12.486
 1967W        W61712  16.159  26.522  10.984
 1968W        W61713   9.680  15.795  14.440
 1969W        W61714  10.347  37.831   4.706
 1970W        W61715  22.112  25.087  12.951
 1971W        W61716  28.003  44.401   3.847
 1972W        W61717  38.977  42.939   2.716
 1973W        W61718   7.246  10.294  10.976
 1974W        W61719  10.251  39.904  10.117
 1975W        W61720  34.036  15.197   0.464
 1976W        W61721  43.962  27.109  14.886
 1977W        W61722  38.478  19.096   2.793
 1978W        W61723  14.243  40.338  13.412
 1979W        W61724  43.294  35.445   1.813
 1980W        W61725  34.509  33.488  11.032
 1981W        W61726  16.774  43.898  14.276
 1982W        W61727  16.775  39.510  11.470
 1983W        W61728  33.097  19.215   1.906
 1984W        W61729   7.376  44.911  14.296
 1985W        W61730  16.185  12.738  10.432
 1986W        W61731  16.276  28.065   0.839
 1987W        W61732  16.313  44.961  13.442
 1988W        W61733  12.320   2.383   3.845
 1989W        W61734  26.580  21.748  10.578
 1990W        W61735  42.905  25.091   3.809
 1991W        W61736  42.474  16.280   4.601
 1992W        W61737  33.127   1.921   0.438
 1993W        W61738  29.109  33.120  11.595
 1994W        W61739   3.743   0.440   3.346
 1995W        W61740  26.602  10.192  12.455
 1996W        W61741  34.896   3.803  10.440
 1997W        W61742   3.801  12.342  11.087
 1998W        W61743  15.815   4.228  10.517
 1999W        W61744   2.747  11.233   1.813
 2000W        W61745  21.251  24.567   3.703
 2001W        W61746  19.550  27.481  11.540
 2002W        W61747   3.884  27.675   4.117
 2003W        W61748  41.302  21.068   9.989
 2004W        W61749  32.129  32.938  11.048
 2005W        W61750  15.301  16.260   1.890
 2006W        W61751  23.125  10.192   2.792
 2007W        W61752   1.759  15.205   1.346
 2008W        W61753  14.322   1.459   0.386
 2009W        W61754  17.242   2.851   2.880
 2010W        W61755  10.674  22.679  12.944
 2011W        W61756  34.583  32.939   3.726
 2012W        W61757  36.055  14.193   0.907
 2013W        W61758  23.684   7.321   4.179
 2014W        W61759  23.614  42.520   2.770
 2015W        W61760  20.227  12.146  12.045
 2016W        W61761  44.996  37.519   1.212
 2017W        W61762   2.377  26.497   2.407
 2018W        W61763   1.396  33.574   1.833
 2019W        W61764   6.825  22.184  11.047
 2020W        W61765  18.157  44.761   0.457
 2021W        W61766   3.365  30.963   2.891
 2022W        W61767  35.886  16.588  12.052
 2023W        W61768  10.266  29.534   4.185
 2024W        W61769  27.027  28.494  14.883
 2025W        W61770  10.768   9.263  12.054
 2026W        W61771  32.947  26.690  10.107
 2027W        W61772  40.522  33.529  14.980
 2028W        W61773   5.321   2.950   4.309
 2029W        W61774   7.392  11.729  14.032
 2030W        W61775  22.172  31.596   3.708
 2031W        W61776  17.557  31.424   4.701
 2032W        W61777  22.063  13.237  11.009
 2033W        W61778  16.767  38.891  12.480
 2034W        W61779  19.623   7.775  14.823
 2035W        W61780  39.839   6.687  14.839
 2036W        W61781  18.768  35.512  11.960
 2037W        W61782  10.876  28.930   3.647
 2038W        W61783  16.319  44.374   1.255
 2039W        W61784  23.186  33.068   3.370
 2040W        W61785  34.398   4.407  11.443
 2041W        W61786  23.699  13.242   3.696
 2042W        W61787  17.147  36.357   2.277
 2043W        W61788  43.814  26.200  14.816
 2044W        W61789   0.247  13.661   0.317
 2045W        W61790  24.147  22.598  14.427
 2046W        W61791   4.794  25.123   1.432
 2047W        W61792  33.441  42.005   9.928
 2048W        W61793  31.944  42.876  11.125
 2049W        W61794  41.827  11.777  11.063
 2050W        W61795  41.800  31.038  11.457
 2051W        W61796  22.185  44.406   0.302
 2052W        W61797  43.982  38.533  12.481
 2053W        W61798   5.259  34.867   3.214
 2054W        W61799  40.362  41.416  13.922
 2055W        W61800  38.036  42.023  13.870
 2056W        W61801  39.555  14.787   2.862
 2057W        W61802  17.301  15.097  13.351
 2058W        W61803   2.328  39.853  13.333
 2059W        W61804  37.920  19.762  14.411
 2060W        W61805  15.183  30.155   0.246
 2061W        W61806  12.673  29.521  14.335
 2062W        W61807  22.025  22.628  14.990
 2063W        W61808  38.031   8.709   2.762
 2064W        W61809   9.347  38.445   0.801
 2065W        W61810  27.512  37.965   0.935
 2066W        W61811  26.598  21.044  12.971
 2067W        W61812  18.599  11.131  10.947
 2068W        W61813   9.835  43.945   2.179
 2069W        W61814   9.889  43.831   2.680
 2070W        W61815  21.726  23.503  11.572
 2071W        W61816  23.148   1.915   0.332
 2072W        W61817  24.208  13.248  11.371
 2073W        W61818  33.465  36.914  11.571
 2074W        W61819  14.320   1.292   4.154
 2075W        W61820   0.321  36.985  13.867
 2076W        W61821  22.213  14.185  11.965
 2077W        W61822  16.122   2.852  12.928
 2078W        W61823  34.409  22.245   3.243
 2079W        W61824  39.342  23.555  13.831
 2080W        W61825  34.593  32.001   3.242
 2081W        W61826  34.459  32.608  13.918
 2082W        W61827  25.040   4.904  10.438
 2083W        W61828  33.045  30.519   1.762
 2084W        W61829  11.296  27.195  14.824
 2085W        W61830  19.692   3.443   1.776
 2086W        W61831  11.830  41.929   4.132
 2087W        W61832  26.511   9.689  14.970
 2088W        W61833  26.052  30.016   4.678
 2089W        W61834  42.442   5.860  13.870
 2090W        W61835   0.434  26.092  13.345
 2091W        W61836  37.430  17.709   1.878
 2092W        W61837  37.398  44.482  14.926
 2093W        W61838   4.405  23.617   0.453
 2094W        W61839   8.673   9.682  11.529
 2095W        W61840  40.338  42.978   1.855
 2096W        W61841  31.069  20.766   3.790
 2097W        W61842   6.888   9.284   4.676
 2098W        W61843  33.407  25.153  10.974
 2099W        W61844  13.766   3.845  10.637
 2100W        W61845  22.611  34.547   4.180
 2101W        W61846  44.402   3.851  11.018
 2102W        W61847  37.513  22.612  14.772
 2103W        W61848   0.889   0.277   3.810
 2104W        W61849   3.393  11.704  12.568
 2105W        W61850  26.965  13.814  12.540
 2106W        W61851   7.349  44.886   1.275
 2107W        W61852  30.506  33.994   1.707
 2108W        W61853   5.433  26.978  11.862
 2109W        W61854  14.758   8.161  10.977
 2110W        W61855   6.835  26.156   2.804
 2111W        W61856   5.926  20.694  12.443
 2112W        W61857   5.312  29.428   3.779
 2113W        W61858  24.171  20.037   1.285
 2114W        W61859  35.427   5.757   1.294
 2115W        W61860  32.094  38.013   1.273
 2116W        W61861  34.935  27.518   3.260
 2117W        W61862   1.833   8.343  10.460
 2118W        W61863  20.212  10.768  13.385
 2119W        W61864  34.102   3.789  13.821
 2120W        W61865  25.628  30.415   1.303
 2121W        W61866  18.234   8.725  11.504
 2122W        W61867  39.814   2.738   2.881
 2123W        W61868  40.809  44.916   3.273
 2124W        W61869   4.384  15.812   1.408
 2125W        W61870  29.951  34.950   4.811
 2126W        W61871   0.346  35.433   1.359
 2127W        W61872   9.274  10.141   1.226
 2128W        W61873  21.225  26.151   4.627
 2129W        W61874  17.237   1.304  13.998
 2130W        W61875  25.218  28.089  13.869
 2131W        W61876  27.191  26.588  12.850
 2132W        W61877  41.434  22.662   2.396
 2133W        W61878   1.238   9.342   2.307
 2134W        W61879   0.826  13.241   0.450
 2135W        W61880  21.616  26.540   3.807
 2136W        W61881  40.922   0.295  11.078
 2137W        W61882  26.592  37.847  12.473
 2138W        W61883  44.791  15.230  13.882
 2139W        W61884  29.173   3.216   4.690
 2140W        W61885  23.576  16.596   0.386
 2141W        W61886  16.298  27.522   0.442
 2142W        W61887   8.362  19.716   2.719
 2143W        W61888  39.029  28.083  13.872
 2144W        W61889   5.320  12.119  14.483
 2145W        W61890  23.134  18.206  11.459
 2146W        W61891  15.677  12.655   2.692
 2147W        W61892  35.038  39.865   9.963
 2148W        W61893  11.163  34.012   1.384
 2149W        W61894   4.863  21.593   4.249
 2150W        W61895  28.611  35.080   1.756
 2151W        W61896  26.997  36.846   0.952
 2152W        W61897  44.965  36.483   4.254
 2153W        W61898  15.172  41.325  11.422
 2154W        W61899  37.900  17.183  10.478
 2155W        W61900   8.674  32.965   2.858
 2156W        W61901  30.045   2.808   2.187
 2157W        W61902   2.276  16.258   9.943
 2158W        W61903   7.241   6.794  13.888
 2159W        W61904  14.261   1.467  11.384
 2160W        W61905  17.633  35.027  11.523
 2161W        W61906  20.030  14.310  11.091
 2162W        W61907   3.709  16.316  14.932
 2163W        W61908  31.471  42.465  11.518
 2164W        W61909   0.282  15.816  12.891
 2165W        W61910   7.750  36.995   0.459
 2166W        W61911  39.475   1.841   0.944
 2167W        W61912  20.078   4.410  14.364
 2168W        W61913  32.000   7.731  13.395
 2169W        W61914  33.393  33.918  10.004
 2170W        W61915  22.632  22.734  10.603
 2171W        W61916   9.836  43.940   0.849
 2172W        W61917  25.567  22.132   0.833
 2173W        W61918  10.317  30.967   1.836
 2174W        W61919  11.181   8.253   1.865
 2175W        W61920  36.910   4.782   2.367
 2176W        W61921  13.317  29.029   0.378
 2177W        W61922  31.413  35.427  14.772
 2178W        W61923  29.134  30.962   0.342
 2179W        W61924  31.051  17.274   2.796
 2180W        W61925  27.577  16.284   4.835
 2181W        W61926  26.008  30.022   1.322
 2182W        W61927  43.396  23.714   5.211
 2183W        W61928  11.189   4.302   2.862
 2184W        W61929   6.905  38.975   0.244
 2185W        W61930  27.124   7.752   0.480
 2186W        W61931  37.024   8.295   0.470
 2187W        W61932   5.873  19.131   0.782
 2188W        W61933  37.076  30.079   1.278
 2189W        W61934  30.932  30.526  11.899
 2190W        W61935  17.129  40.496   3.189
 2191W        W61936  33.962  17.606  13.956
 2192W        W61937   4.786  19.681   0.375
 2193W        W61938  43.948  40.404   9.968
 2194W        W61939  26.519  42.923  14.949
 2195W        W61940  31.592   4.308   1.713
 2196W        W61941  42.465  42.321  14.819
 2197W        W61942   3.369  28.452  11.578
 2198W        W61943  19.246  22.120  11.422
 2199W        W61944   1.264  25.682  10.909
 2200W        W61945  25.156  44.393   0.926
 2201W        W61946  20.166  25.014   4.617
 2202W        W61947  25.013   2.898  14.956
 2203W        W61948  15.326  28.551  13.476
 2204W        W61949   4.913  44.392   2.791
 2205W        W61950  22.573  44.848  12.954
 2206W        W61951  24.625  11.688  14.851
 2207W        W61952  38.045  37.519   1.384
 2208W        W61953  13.673  16.219   1.834
 2209W        W61954  43.981   1.408  12.961
 2210W        W61955  42.932   7.722  14.777
 2211W        W61956  37.359   0.320   0.349
 2212W        W61957  38.917  15.634  10.031
 2213W        W61958   9.264   4.710   2.392
 2214W        W61959  43.400   3.830  14.405
 2215W        W61960  43.926  34.898   2.752
 2216W        W61961   1.262  14.128  11.583
 2217W        W61962  44.451  21.703  14.409
 2218W        W61963  44.985  44.282   2.676
 2219W        W61964  20.720  32.942  11.038
 2220W        W61965  38.952   6.773  14.777
 2221W        W61966  13.834  19.173   2.840
 2222W        W61967  10.838   7.328   1.749
 2223W        W61968  22.995   0.868   4.119
 2224W        W61969  25.622  16.233  11.117
 2225W        W61970  37.038   7.888  11.538
 2226W        W61971  28.003  11.262  12.960
 2227W        W61972  21.110  32.016  12.447
 2228W        W61973   5.278  31.976  12.533
 2229W        W61974  44.444   1.893  12.521
 2230W        W61975  41.865  29.014  12.435
 2231W        W61976  17.290   2.231   3.774
 2232W        W61977  43.449  32.567  10.093
 2233W        W61978  44.491   5.238  14.762
 2234W        W61979  21.749   0.275   4.238
 2235W        W61980  39.962  13.170  12.551
 2236W        W61981  34.370  11.834   4.355
 2237W        W61982  37.879  34.899  12.015
 2238W        W61983  20.053  42.026  12.868
 2239W        W61984  40.979  31.124   4.626
 2240W        W61985  15.259  42.020  10.897
 2241W        W61986  38.946  25.151  11.437
 2242W        W61987  38.875  35.008   4.827
 2243W        W61988  24.521  17.203   4.163
 2244W        W61989  43.941  44.347  14.470
 2245W        W61990  21.605  35.871  13.918
 2246W        W61991  13.177   3.743   1.257
 2247W        W61992   5.759  33.055  10.478
 2248W        W61993  36.547  18.645   4.113
 2249W        W61994   9.161   5.894  12.472
 2250W        W61995  35.919  17.075  12.917
 2251W        W61996  28.150  13.255   1.834
 2252W        W61997  18.769  35.026   2.326
 2253W        W61998  31.916  17.573  11.449
 2254W        W61999   8.872  35.470   1.356
 2255W        W62000  19.700  39.063  14.277
 2256W        W62001  27.451  25.179  11.937
 2257W        W62002  14.787  18.138   2.379
 2258W        W62003   8.334  10.740   4.816
 2259W        W62004  19.541   8.318  13.354
 2260W        W62005   7.351   1.835  14.357
 2261W        W62006  12.194  12.812   2.884
 2262W        W62007  16.083  37.445   3.826
 2263W        W62008  23.000  42.409   4.155
 2264W        W62009  40.546  35.374  13.987
 2265W        W62010  24.982  34.541  11.383
 2266W        W62011  38.440   4.876   1.371
 2267W        W62012  11.775  33.607   0.480
 2268W        W62013  25.187   4.442  11.480
 2269W        W62014  36.463  38.994   5.225
 2270W        W62015   5.828   1.943  10.516
 2271W        W62016  40.525  19.759  10.603
 2272W        W62017  14.209  34.590   0.772
 2273W        W62018  39.934   4.787   4.223
 2274W        W62019   8.176  16.115  11.538
 2275W        W62020   0.423  32.088   0.278
 2276W        W62021  21.017  38.035  11.106
 2277W        W62022   3.724  32.052  14.456
 2278W        W62023  19.062  23.199  14.880
 2279W        W62024   6.232  24.506   4.298
 2280W        W62025  14.632   4.857  13.467
 2281W        W62026   2.919  27.582   4.768
 2282W        W62027   9.256  14.711  14.384
 2283W        W62028  29.557  27.671  14.769
 2284W        W62029  36.535  13.731  10.518
 2285W        W62030   6.845  29.504  10.503
 2286W        W62031  35.024  19.537   1.328
 2287W        W62032   2.748  36.495  10.918
 2288W        W62033  32.017   8.271   1.718
 2289W        W62034  19.662  38.325   2.872
 2290W        W62035  29.600   4.816   2.732
 2291W        W62036   7.334  41.425  11.953
 2292W        W62037  13.272  19.116  11.070
 2293W        W62038   6.822  30.617  11.613
 2294W        W62039  42.515  21.571   0.844
 2295W        W62040  21.240  43.398   0.427
 2296W        W62041  17.082  17.080  10.110
 2297W        W62042  16.739  30.565   0.275
 2298W        W62043   9.295   2.752  13.421
 2299W        W62044  10.874   8.706  11.922
 2300W        W62045  34.606  17.607   1.820
 2301W        W62046   3.303  34.451  10.625
 2302W        W62047  11.266   2.860  13.390
 2303W        W62048   6.343  37.347   4.303
 2304W        W62049  32.964   7.866  11.885
 2305W        W62050  34.526  42.004   3.697
 2306W        W62051  25.971   8.706   1.386
 2307W        W62052  25.128  26.682   0.355
 2308W        W62053  29.097  37.425   3.816
 2309W        W62054  15.273   6.761   2.360
 2310W        W62055   4.728   0.917  14.918
 2311W        W62056  28.602   9.831   4.773
 2312W        W62057  32.623  34.874  14.893
 2313W        W62058  21.048   7.734  10.494
 2314W        W62059  34.506  32.631  10.944
 2315W        W62060  19.097  14.755  14.796
 2316W        W62061  19.687  34.432   4.689
 2317W        W62062  29.985  40.522  14.939
 2318W        W62063  32.116  41.391   3.724
 2319W        W62064  20.080  41.826   0.313
 2320W        W62065  39.331  10.831  10.455
 2321W        W62066  32.938  22.644   0.350
 2322W        W62067  20.641   7.203  11.490
 2323W        W62068  12.723  39.404  13.830
 2324W        W62069  39.944   5.715  14.854
 2325W        W62070  10.350  21.198  14.345
 2326W        W62071  27.637  32.036   4.134
 2327W        W62072  24.517  41.891   1.343
 2328W        W62073  40.445  22.041  10.497
 2329W        W62074  30.648  24.674  13.848
 2330W        W62075  30.551   3.377   4.161
 2331W        W62076  43.908  20.536  10.410
 2332W        W62077  37.467  35.544  14.446
 2333W        W62078   0.414  35.873  13.443
 2334W        W62079  14.244  31.558  14.946
 2335W        W62080   0.424  40.509   3.284
 2336W        W62081   6.887  15.720   0.341
 2337W        W62082   4.916  17.129  12.419
 2338W        W62083  35.977   3.429  11.508
 2339W        W62084   3.894   6.239  14.297
 2340W        W62085  33.065  28.145   1.713
 2341W        W62086  15.191  28.947   4.246
 2342W        W62087  34.995  38.526  11.110
 2343W        W62088  41.012   6.706   3.340
 2344W        W62089  30.482  35.095   1.698
 2345W        W62090  17.221  11.259   4.618
 2346W        W62091  25.695  21.050  10.981
 2347W        W62092  31.466   4.717   4.181
 2348W        W62093  18.103  17.767  13.527
 2349W        W62094   7.708  16.126  11.380
 2350W        W62095  43.311   0.345  10.896
 2351W        W62096  19.562   0.489  10.991
 2352W        W62097  13.653  34.041   4.321
 2353W        W62098  42.417  24.664   2.337
 2354W        W62099  27.562  24.502   0.474
 2355W        W62100  42.885  33.522   1.829
 2356W        W62101  32.118  40.054   2.805
 2357W        W62102  34.002  14.595   2.724
 2358W        W62103  23.215   6.718  13.958
 2359W        W62104  33.485   1.291   4.657
 2360W        W62105  26.659  21.718   2.417
 2361W        W62106   3.897  26.514  12.047
 2362W        W62107  24.640  40.930  12.569
 2363W        W62108   1.434  32.503   3.174
 2364W        W62109  31.026  19.693   0.949
 2365W        W62110   0.479   2.332  14.909
 2366W        W62111   7.684   5.853  12.020
 2367W        W62112  32.616   9.252  11.093
 2368W        W62113  22.541  33.946   2.383
 2369W        W62114   2.425  34.587   4.609
 2370W        W62115  17.181   0.961  12.985
 2371W        W62116   4.378  18.631  13.938
 2372W        W62117  26.583  19.606   1.328
 2373W        W62118   9.795  13.118  12.933
 2374W        W62119  22.651  11.371  14.798
 2375W        W62120   4.703   3.458   2.811
 2376W        W62121  27.457  19.655   0.823
 2377W        W62122   1.386  28.463  11.966
 2378W        W62123   1.751  21.566   3.651
 2379W        W62124   0.945  23.062   0.830
 2380W        W62125  17.161  29.424   4.713
 2381W        W62126  44.455  44.266   0.333
 2382W        W62127  21.601  41.386  11.123
 2383W        W62128  10.727   6.185   2.342
 2384W        W62129   9.644  33.489  13.439
 2385W        W62130  24.976   0.759   4.276
 2386W        W62131   8.392  29.995  13.342
 2387W        W62132  35.892  27.059  10.404
 2388W        W62133  31.132  40.893   1.449
 2389W        W62134  36.493  43.777  14.511
 2390W        W62135  17.751  40.358  13.952
 2391W        W62136  21.516  32.072  14.924
 2392W        W62137  39.943  17.236   0.425
 2393W        W62138  13.286  14.810   0.820
 2394W        W62139  27.113  38.566   0.446
 2395W        W62140  13.318  37.056   3.181
 2396W        W62141  38.046  28.440  12.532
 2397W        W62142  37.464  10.659   2.362
 2398W        W62143  35.456  41.300  14.353
 2399W        W62144   1.279  28.569   1.910
 2400W        W62145  40.306  23.553   5.191
 2401W        W62146   7.859   9.860  10.536
 2402W        W62147  35.515  44.846   2.744
 2403W        W62148  36.572  28.663   2.327
 2404W        W62149  28.522  44.007  11.598
 2405W        W62150  44.007  13.152  12.449
 2406W        W62151  40.815  30.044  14.805
 2407W        W62152  35.993  28.933   1.387
 2408W        W62153  15.281  10.722   4.751
 2409W        W62154   2.305  15.711   2.825
 2410W        W62155  20.240  25.576  14.289
 2411W        W62156   6.795   2.941   1.785
 2412W        W62157   0.353  20.043  13.860
 2413W        W62158  30.600  32.044   3.202
 2414W        W62159  11.353   1.765  13.030
 2415W        W62160  12.850   9.191   3.169
 2416W        W62161  40.354  35.040  13.529
 2417W        W62162  27.940  14.233  10.891
 2418W        W62163   7.399  22.103   3.643
 2419W        W62164   0.489  28.541   2.835
 2420W        W62165  37.049  38.392  14.476
 2421W        W62166  30.135  38.436  11.513
 2422W        W62167  43.863  14.160  14.781
 2423W        W62168  42.814  41.521  10.912
 2424W        W62169  27.037  14.331   5.110
 2425W        W62170   6.213  19.573   4.147
 2426W        W62171   4.698  32.974  13.402
 2427W        W62172  40.890  35.871   3.699
 2428W        W62173  11.651  44.863  14.399
 2429W        W62174  25.109  39.048   3.307
 2430W        W62175  29.550   0.829   1.428
 2431W        W62176  25.689  37.543   0.254
 2432W        W62177   9.339  28.032  11.869
 2433W        W62178   5.283   7.411  12.077
 2434W        W62179  12.129  27.047   3.228
 2435W        W62180  22.047   4.423   2.344
 2436W        W62181  30.424  17.261   1.420
 2437W        W62182  14.216  40.340  12.089
 2438W        W62183  39.927  15.255  11.501
 2439W        W62184   1.751  20.145   0.468
 2440W        W62185  26.039   7.693  10.583
 2441W        W62186   1.331   5.933   4.597
 2442W        W62187  21.546  38.864   3.770
 2443W        W62188   7.737  24.165  13.513
 2444W        W62189  11.636  19.667   3.815
 2445W        W62190  33.542  30.567   4.735
 2446W        W62191  30.996  39.853  11.044
 2447W        W62192  36.461  19.047  13.463
 2448W        W62193   3.323  27.459   2.865
 2449W        W62194   0.834  43.965  12.533
 2450W        W62195   1.771  19.756   0.754
 2451W        W62196  37.536  20.243   3.308
 2452W        W62197   7.867  41.533   3.264
 2453W        W62198  44.394  18.244   4.220
 2454W        W62199  25.505  44.971  10.900
 2455W        W62200  27.127  43.282  11.600
 2456W        W62201  43.479  28.942   4.833
 2457W        W62202  21.232   5.720  11.922
 2458W        W62203   1.356  30.429   0.252
 2459W        W62204   5.215  22.010   0.413
 2460W        W62205  15.145  26.488   2.832
 2461W        W62206  42.386  39.343  12.863
 2462W        W62207  39.420  34.914  11.578
 2463W        W62208  25.000   4.349   2.834
 2464W        W62209  37.555  40.016   1.438
 2465W        W62210  33.028  24.081  12.923
 2466W        W62211  26.599  22.046   0.483
 2467W        W62212  33.004  28.648  13.893
 2468W        W62213  20.101  33.918   3.745
 2469W        W62214  42.853  43.804   3.782
 2470W        W62215  35.430  16.798  10.943
 2471W        W62216  24.129  39.539   4.687
 2472W        W62217   5.425   1.917   4.313
 2473W        W62218  15.325  40.521   4.701
 2474W        W62219   9.289  12.769   3.868
 2475W        W62220  10.710  13.221  11.875
 2476W        W62221  15.617   8.204   4.783
 2477W        W62222   5.285  16.621   3.259
 2478W        W62223  21.561  39.904  11.401
 2479W        W62224  12.774  12.238   1.933
 2480W        W62225  28.678  30.582   2.329
 2481W        W62226  20.064  44.343  13.413
 2482W        W62227  30.071   7.300   0.303
 2483W        W62228   3.734  23.173   4.658
 2484W        W62229   3.881  26.194   4.837
 2485W        W62230  24.203   1.952   2.269
 2486W        W62231  21.110  24.573   0.934
 2487W        W62232  40.332  24.994   2.198
 2488W        W62233  34.465  17.651  11.528
 2489W        W62234  30.919  17.655  14.995
 2490W        W62235  24.034  25.706   4.713
 2491W        W62236   7.282  13.251  11.988
 2492W        W62237  26.175  36.894   4.350
 2493W        W62238   4.338   0.341   1.372
 2494W        W62239  19.274  44.433   4.621
 2495W        W62240   9.161  32.067  14.311
 2496W        W62241  11.180  12.292  14.402
 2497W        W62242  22.615   2.429   3.290
 2498W        W62243  10.384  35.028   1.924
 2499W        W62244  10.174   7.869  14.477
 2500W        W62245   9.313   6.869   4.708
 2501W        W62246  30.021  36.971   2.816
 2502W        W62247  20.252  15.163   1.267
 2503W        W62248  33.555  17.761  10.942
 2504W        W62249  33.388  10.633  11.986
 2505W        W62250   4.294  24.547  14.006
 2506W        W62251  25.548  41.533  14.006
 2507W        W62252  10.663  34.080  14.802
 2508W        W62253  24.037   2.457   2.255
 2509W        W62254   3.220   1.784   2.359
 2510W        W62255  21.674   3.899  11.887
 2511W        W62256  36.379  39.985   1.832
 2512W        W62257   9.776   4.276   0.867
 2513W        W62258  30.467  44.969  13.517
 2514W        W62259  18.668  41.911  12.900
 2515W        W62260  29.126   1.887   3.725
 2516W        W62261  10.835  41.951  12.009
 2517W        W62262  22.182  21.694  13.914
 2518W        W62263  41.903  38.854   1.753
 2519W        W62264  17.745  38.536  11.015
 2520W        W62265  37.968  18.601  11.551
 2521W        W62266   0.268   1.837   2.793
 2522W        W62267  33.474  34.937  14.389
 2523W        W62268  41.799  34.523  10.995
 2524W        W62269   9.825  29.608  10.603
 2525W        W62270  34.038  22.521  12.464
 2526W        W62271   4.882  26.044   3.705
 2527W        W62272  43.892   3.786   4.834
 2528W        W62273  21.040  27.540  12.031
 2529W        W62274  29.589  10.225   2.853
 2530W        W62275  20.624  13.780  10.622
 2531W        W62276   7.813  44.330  13.927
 2532W        W62277   7.771  23.584   3.792
 2533W        W62278  14.195  12.626  12.999
 2534W        W62279  14.608   9.378  12.575
 2535W        W62280  33.062  13.621  12.404
 2536W        W62281  39.946  24.525   3.182
 2537W        W62282  17.223   4.344  13.496
 2538W        W62283  42.969  25.986  14.474
 2539W        W62284  13.790   6.695   3.803
 2540W        W62285  24.065  12.668  13.806
 2541W        W62286  41.852  11.823  12.398
 2542W        W62287  40.971  15.134   0.928
 2543W        W62288   1.930  32.433   0.287
 2544W        W62289  14.325  30.501   1.917
 2545W        W62290  30.645   9.844  12.005
 2546W        W62291  12.176   7.181  14.832
 2547W        W62292  24.486  13.254   4.611
 2548W        W62293   4.300  30.518  13.331
 2549W        W62294  12.766  20.524   3.758
 2550W        W62295  19.646  16.754  12.400
 2551W        W62296  42.838   8.401  14.778
 2552W        W62297  15.629  41.959  14.329
 2553W        W62298  33.615   9.299  13.363
 2554W        W62299  21.116  19.632  13.507
 2555W        W62300  30.026  10.289  11.410
 2556W        W62301  44.446  14.297   1.244
 2557W        W62302  34.048   4.899   1.754
 2558W        W62303   6.772  44.325  11.045
 2559W        W62304  30.962  43.430  13.342
 2560W        W62305   5.855  28.060   3.214
 2561W        W62306  28.663  41.847   4.221
 2562W        W62307  27.617  36.416  13.936
 2563W        W62308  32.984  26.512   4.773
 2564W        W62309  28.002  44.305   0.279
 2565W        W62310  17.725  36.452   3.836
 2566W        W62311  20.143  42.320   3.373
 2567W        W62312  10.733  27.459   3.650
 2568W        W62313  10.810  15.320   1.345
 2569W        W62314  40.408  31.599   4.628
 2570W        W62315  43.997   0.807  10.525
 2571W        W62316  17.708  18.186  10.526
 2572W        W62317   2.751  22.117   1.300
 2573W        W62318  21.108  22.591   3.716
 2574W        W62319  13.602  22.041   4.661
 2575W        W62320   5.417  29.518  10.618
 2576W        W62321  41.345  23.088  11.064
 2577W        W62322  19.626   3.864  11.969
 2578W        W62323  39.006   2.275   1.405
 2579W        W62324  41.921  28.476   1.909
 2580W        W62325  23.022  40.347  11.428
 2581W        W62326   5.427   0.791  10.451
 2582W        W62327  31.106  37.514   2.347
 2583W        W62328  30.615   7.267  14.977
 2584W        W62329  21.217   0.761   1.324
 2585W        W62330   0.889   9.195  12.393
 2586W        W62331  44.503  29.041   1.298
 2587W        W62332   2.873  24.666   2.267
 2588W        W62333  39.921  19.184  13.492
 2589W        W62334  34.056  19.634   2.349
 2590W        W62335  31.077  23.129  12.069
 2591W        W62336  17.733  12.289   2.723
 2592W        W62337   7.745  11.697  13.059
 2593W        W62338  31.493  42.392   1.933
 2594W        W62339  43.276  29.427   3.659
 2595W        W62340  32.002  42.813   0.313
 2596W        W62341  13.722  32.060  10.632
 2597W        W62342  22.644   5.710   5.274
 2598W        W62343  36.979  17.062   0.274
 2599W        W62344  30.603   3.909  11.438
 2600W        W62345  13.649  43.990   2.258
 2601W        W62346  34.466  15.592  10.482
 2602W        W62347  25.043   5.766  12.876
 2603W        W62348  17.577  44.788   2.717
 2604W        W62349   1.882  19.585   1.775
 2605W        W62350  20.566  40.802   1.730
 2606W        W62351   8.694  37.026  14.309
 2607W        W62352  21.661  15.272   4.741
 2608W        W62353  10.827  21.182   3.340
 2609W        W62354  36.499  40.950   1.211
 2610W        W62355  16.193  15.677   1.932
 2611W        W62356   0.315  37.427  12.541
 2612W        W62357   1.426   4.791   0.891
 2613W        W62358  43.458  21.702   3.382
 2614W        W62359  38.487  17.794   4.115
 2615W        W62360  15.275  14.833  12.055
 2616W        W62361  23.229  29.983  14.376
 2617W        W62362   5.780  21.122   1.225
 2618W        W62363  30.971  44.926   1.283
 2619W        W62364   1.443  27.512   2.329
 2620W        W62365  17.585   8.674  11.485
 2621W        W62366  28.961  21.673  12.881
 2622W        W62367  28.663  21.655   4.723
 2623W        W62368  33.427  33.609   3.373
 2624W        W62369  32.106  35.994   4.253
 2625W        W62370  33.385  33.519  14.949
 2626W        W62371  35.053  26.004  14.426
 2627W        W62372  16.252  25.678   3.704
 2628W        W62373   0.419  40.852   2.689
 2629W        W62374   3.849  38.944   1.437
 2630W        W62375  34.954  14.254   3.759
 2631W        W62376  36.469   3.934  11.070
 2632W        W62377  39.396  19.534   4.708
 2633W        W62378  25.044  42.015  13.842
 2634W        W62379  13.826  31.971   1.705
 2635W        W62380   9.204   8.222  11.058
 2636W        W62381  12.225  26.104   2.840
 2637W        W62382  18.547   1.449   3.271
 2638W        W62383  31.027  13.637   1.903
 2639W        W62384  29.639  30.453   1.333
 2640W        W62385  27.122   5.874  10.409
 2641W        W62386   5.900  24.665  12.852
 2642W        W62387  42.446   6.797   3.631
 2643W        W62388  29.569  18.235  11.911
 2644W        W62389  17.131  39.487   1.918
 2645W        W62390  44.271  26.597  12.912
 2646W        W62391  25.144   2.837  14.363
 2647W        W62392  16.141   6.820   1.908
 2648W        W62393  29.044   2.830  12.829
 2649W        W62394  32.625  21.096   0.795
 2650W        W62395  27.492  34.465   3.685
 2651W        W62396  21.191  42.525   5.148
 2652W        W62397  40.519  17.245  11.953
 2653W        W62398  32.449  34.406  14.459
 2654W        W62399  13.666  37.500   0.843
 2655W        W62400   0.794  20.537  12.839
 2656W        W62401  29.432  41.008   4.354
 2657W        W62402  10.810   2.817   0.960
 2658W        W62403  36.483  33.519   2.373
 2659W        W62404  24.087   5.271  12.997
 2660W        W62405  38.930   8.847  14.442
 2661W        W62406  37.464  24.074   0.753
 2662W        W62407   0.366  17.216   1.288
 2663W        W62408  17.801  22.656  13.469
 2664W        W62409  21.567   8.724   2.192
 2665W        W62410  25.484  29.586  13.452
 2666W        W62411  36.441  23.607   2.706
 2667W        W62412   3.320  39.313  12.506
 2668W        W62413  43.939  18.117   4.767
 2669W        W62414  12.357  40.826   3.693
 2670W        W62415  15.145  35.373   2.759
 2671W        W62416   1.477  27.536  13.040
 2672W        W62417  38.074   2.399  14.911
 2673W        W62418  33.040   2.802   2.273
 2674W        W62419  23.025  32.006  13.327
 2675W        W62420  31.637  38.996   3.186
 2676W        W62421   9.745  26.683   3.758
 2677W        W62422   2.953  17.085  10.442
 2678W        W62423  27.178  30.072   4.748
 2679W        W62424  28.480  25.016   3.216
 2680W        W62425  22.122  10.331   4.630
 2681W        W62426  44.504  36.850  14.408
 2682W        W62427  20.701  36.036   4.345
 2683W        W62428  21.713  29.033   2.320
 2684W        W62429  26.047  20.172   2.296
 2685W        W62430  22.674  23.608  11.519
 2686W        W62431  17.609  39.981   0.730
 2687W        W62432  41.840  32.567  12.926
 2688W        W62433   1.835  33.992   3.791
 2689W        W62434  43.945  34.371   3.153
 2690W        W62435   9.193   3.428  12.842
 2691W        W62436  16.208  35.038   1.719
 2692W        W62437  15.621  34.391   1.307
 2693W        W62438  41.882  26.159  14.987
 2694W        W62439   5.271  41.432  13.950
 2695W        W62440  41.489  43.012   4.776
 2696W        W62441   5.438   9.193   3.650
 2697W        W62442  19.717  35.110   2.211
 2698W        W62443  22.169  24.017  11.564
 2699W        W62444   8.688   9.765   0.875
 2700W        W62445  15.613  35.521  11.468
 2701W        W62446   0.914  39.441   4.317
 2702W        W62447  17.750  28.496   1.834
 2703W        W62448  34.412  30.531   0.359
 2704W        W62449   1.774  35.866   5.114
 2705W        W62450  24.188   2.371   3.635
 2706W        W62451  13.623  12.276   1.835
 2707W        W62452   2.386  20.655   5.105
 2708W        W62453  10.214   8.855  12.533
 2709W        W62454  34.995   6.208   1.736
 2710W        W62455  27.660  42.394   0.850
 2711W        W62456  14.226  24.720  10.578
 2712W        W62457  36.525  11.695   4.776
 2713W        W62458  36.501  40.532   2.272
 2714W        W62459  41.828  38.964  11.584
 2715W        W62460  23.051  34.446  12.543
 2716W        W62461   2.782  17.607  11.460
 2717W        W62462  29.660  44.966   2.841
 2718W        W62463  17.788  40.530  12.938
 2719W        W62464   3.313  16.121   0.762
 2720W        W62465   1.789  19.199  12.571
 2721W        W62466  29.918   7.732  14.292
 2722W        W62467  12.283  44.823   2.670
 2723W        W62468  34.097  22.140  11.592
 2724W        W62469  40.487  21.159   1.437
 2725W        W62470   1.395  40.841  11.486
 2726W        W62471  33.570  11.717   0.948
 2727W        W62472   9.724  25.612  11.979
 2728W        W62473  30.034   6.862   1.227
 2729W        W62474   5.916  41.297   2.256
 2730W        W62475  21.102   4.775   5.172
 2731W        W62476  41.936  17.794   0.821
 2732W        W62477  33.599  12.650  14.905
 2733W        W62478  11.342   8.865  10.481
 2734W        W62479  16.270  40.849   4.231
 2735W        W62480  16.672   6.258  14.904
 2736W        W62481  35.018   7.178  10.497
 2737W        W62482  39.864  33.067   4.295
 2738W        W62483  19.140  40.876   1.839
 2739W        W62484  15.800  12.777  13.339
 2740W        W62485  26.489  34.529  12.846
 2741W        W62486  22.734  41.422   5.103
 2742W        W62487  22.115  27.639   2.755
 2743W        W62488   9.263  39.960  12.946
 2744W        W62489   8.187   7.336  13.995
 2745W        W62490   6.315  30.599  14.343
 2746W        W62491   8.364  44.802   0.883
 2747W        W62492  12.746   3.362  11.072
 2748W        W62493   9.339  19.214  10.595
 2749W        W62494  15.207  29.629  13.817
 2750W        W62495  31.583   7.251   2.727
 2751W        W62496  37.871  43.474   1.851
 2752W        W62497  17.593  31.066   4.231
 2753W        W62498  18.729  14.117   0.286
 2754W        W62499  10.841  19.060  11.476
 2755W        W62500  40.034  43.470   3.659
 2756W        W62501  21.588  44.884   1.716
 2757W        W62502  33.390  27.074   2.352
 2758W        W62503  39.402  22.064   0.481
 2759W        W62504  26.554   9.646  14.482
 2760W        W62505   5.292  22.119  12.927
 2761W        W62506  10.140   1.950  10.462
 2762W        W62507  14.628  29.989   2.225
 2763W        W62508  20.580   3.802  12.073
 2764W        W62509  25.591  22.515   1.792
 2765W        W62510  29.635  40.849  10.617
 2766W        W62511   1.956  17.301   0.901
 2767W        W62512  27.960  43.870   0.842
 2768W        W62513   8.199  44.982   0.270
 2769W        W62514  22.208  30.027  12.506
 2770W        W62515  23.574  42.791  13.823
 2771W        W62516   0.254   5.906  13.822
 2772W        W62517  44.999   2.382  13.465
 2773W        W62518  37.831   1.421  12.873
 2774W        W62519   1.944   9.863   3.695
 2775W        W62520  30.525  42.925   1.903
 2776W        W62521  29.954  27.571   1.289
 2777W        W62522  16.676  12.126   2.250
 2778W        W62523  27.947  37.899  14.787
 2779W        W62524  40.967  27.628  13.314
 2780W        W62525   7.890  23.039  10.552
 2781W        W62526  16.721   7.372   2.704
 2782W        W62527   6.396   5.371   2.224
 2783W        W62528   6.318  44.390   0.262
 2784W        W62529   7.201  30.542  13.520
 2785W        W62530   8.220  41.447   4.693
 2786W        W62531  36.538  25.963   1.772
 2787W        W62532  37.448  43.782   9.982
 2788W        W62533   7.745  35.470   2.409
 2789W        W62534  32.975   7.297  14.023
 2790W        W62535  31.137   2.367   0.264
 2791W        W62536  34.563  41.001   4.789
 2792W        W62537  29.504  44.432  10.922
 2793W        W62538   7.840   7.368  10.130
 2794W        W62539  20.692  22.054  14.394
 2795W        W62540  38.000  29.455   2.867
 2796W        W62541  20.131  22.699   2.198
 2797W        W62542  30.650  31.046   2.289
 2798W        W62543  22.657  19.105   1.731
 2799W        W62544   0.302  41.304   2.869
 2800W        W62545  41.003   3.331   1.210
 2801W        W62546  18.673  24.509   0.326
 2802W        W62547  31.640  42.352   3.808
 2803W        W62548   4.939  16.749   3.823
 2804W        W62549  38.554   8.302   4.130
 2805W        W62550   6.826   4.277   1.871
 2806W        W62551  21.601  11.659  13.391
 2807W        W62552   5.764  14.787  12.037
 2808W        W62553  10.156  14.827   1.773
 2809W        W62554  21.162  40.881  10.540
 2810W        W62555   9.314   2.755   0.790
 2811W        W62556  39.058  40.441  14.015
 2812W        W62557  37.480  38.859   0.930
 2813W        W62558  12.154  20.571  11.978
 2814W        W62559  39.372  10.266  11.107
 2815W        W62560  12.653  30.462  11.474
 2816W        W62561  24.504  29.940   4.197
 2817W        W62562   7.843  43.470  11.061
 2818W        W62563  18.084  33.960  14.318
 2819W        W62564  15.263  19.689   2.724
 2820W        W62565  35.864  34.925   3.266
 2821W        W62566  13.671  23.633  11.609
 2822W        W62567  12.749   0.974   1.346
 2823W        W62568  25.063   2.738   2.310
 2824W        W62569   6.791  19.137  14.011
 2825W        W62570  32.910  28.651   5.626
 2826W        W62571  13.630  42.413   2.732
 2827W        W62572   3.812  24.509  12.882
 2828W        W62573  27.575  26.462  13.473
 2829W        W62574  37.061  40.468  11.563
 2830W        W62575  27.028  20.624   4.149
 2831W        W62576  14.166   0.803  14.510
 2832W        W62577  12.777  37.949  12.028
 2833W        W62578  38.859  31.500   4.795
 2834W        W62579   2.238  27.108  11.393
 2835W        W62580  40.848  12.275  12.461
 2836W        W62581  29.669   4.255   4.696
 2837W        W62582   1.868  29.996  14.374
 2838W        W62583  36.566   3.250  11.441
 2839W        W62584  24.164  40.997  14.505
 2840W        W62585  39.497  40.315  14.443
 2841W        W62586  36.027  20.274  13.332
 2842W        W62587  41.444  17.734  13.051
 2843W        W62588  27.668   3.423   0.310
 2844W        W62589  37.025  30.988   2.308
 2845W        W62590  34.872  24.482   1.397
 2846W        W62591  10.151  38.571  12.451
 2847W        W62592  18.661  38.387  10.968
 2848W        W62593  42.776  12.276  14.430
 2849W        W62594   8.663  37.901   0.445
 2850W        W62595  36.060  33.428   3.667
 2851W        W62596  14.772  21.669   0.279
 2852W        W62597  41.893  35.485   3.717
 2853W        W62598   4.826   4.779  11.547
 2854W        W62599  40.801   4.401   4.616
 2855W        W62600  24.611  34.568  12.452
 2856W        W62601  16.596  22.116   2.256
 2857W        W62602   9.775  17.667  14.933
 2858W        W62603   9.169  36.483  12.922
 2859W        W62604  11.761  29.941  12.450
 2860W        W62605   2.729  26.043  12.867
 2861W        W62606  33.463   5.748   4.222
 2862W        W62607  22.244  31.139  10.963
 2863W        W62608   5.884  20.142  14.831
 2864W        W62609  26.085  22.589   2.827
 2865W        W62610  32.915  25.129  14.859
 2866W        W62611  41.842  31.919   0.349
 2867W        W62612  32.513   0.986  14.278
 2868W        W62613  20.063  14.683   0.748
 2869W        W62614  17.656  35.429   3.823
 2870W        W62615  37.520  39.003  14.315
 2871W        W62616  16.101  36.490  11.386
 2872W        W62617  27.976  12.849  14.926
 2873W        W62618  28.969   0.853   2.235
 2874W        W62619  19.218  39.960  10.541
 2875W        W62620   3.460  22.741   4.235
 2876W        W62621  26.498  35.063  12.486
 2877W        W62622  12.277  11.781  10.618
 2878W        W62623  14.654  41.462  10.920
 2879W        W62624   5.742  22.671  13.055
 2880W        W62625   2.282  42.333  14.383
 2881W        W62626  41.985  30.916  10.621
 2882W        W62627  10.710  35.522   2.315
 2883W        W62628  25.188  28.102   2.266
 2884W        W62629   8.175  36.031   2.852
 2885W        W62630  44.421  13.272   2.738
 2886W        W62631  12.725   7.287   4.611
 2887W        W62632  29.097  36.558  14.488
 2888W        W62633  12.739   1.440   4.786
 2889W        W62634  44.829   9.777  14.381
 2890W        W62635  31.565   2.314  12.490
 2891W        W62636  14.113  20.167  13.517
 2892W        W62637  40.489  19.247   0.365
 2893W        W62638  29.643  33.085   0.955
 2894W        W62639  36.855  23.633  13.990
 2895W        W62640  41.457  17.082  11.970
 2896W        W62641  17.745  20.552  14.835
 2897W        W62642  16.279  41.345   3.268
 2898W        W62643   5.871  44.373   1.281
 2899W        W62644  14.190   4.439  11.005
 2900W        W62645  33.455  27.508  10.906
 2901W        W62646  14.276  16.745   2.359
 2902W        W62647  14.645  39.874   3.655
 2903W        W62648  14.810  34.028  10.433
 2904W        W62649  37.408  10.716   1.819
 2905W        W62650  12.238   4.311  11.546
 2906W        W62651   8.195   2.783  11.559
 2907W        W62652  40.035  28.015  12.004
 2908W        W62653  35.927  44.465  12.052
 2909W        W62654  24.631   6.754  12.471
 2910W        W62655  18.563  29.522  12.492
 2911W        W62656  38.565  38.883  12.475
 2912W        W62657  11.758   3.439   0.299
 2913W        W62658  25.661  36.874  14.305
 2914W        W62659  37.367  20.610   2.383
 2915W        W62660  17.253  19.746   3.360
 2916W        W62661  22.676   9.857   1.772
 2917W        W62662  40.407  43.848   2.809
 2918W        W62663  32.124  20.249  11.878
 2919W        W62664  33.381  16.260  13.506
 2920W        W62665   3.310  38.403  14.880
 2921W        W62666  29.934  27.146  10.963
 2922W        W62667   3.723  44.970  14.343
 2923W        W62668  22.083  36.943  14.498
 2924W        W62669  43.305   2.887   3.241
 2925W        W62670  15.593  43.803   3.868
 2926W        W62671  35.882  35.855  12.447
 2927W        W62672  11.755  11.248  11.118
 2928W        W62673   6.351  19.663  10.114
 2929W        W62674   1.456  15.262  12.063
 2930W        W62675  24.570   0.756  13.816
 2931W        W62676  24.485  10.727  10.914
 2932W        W62677  11.369  12.780  14.840
 2933W        W62678   3.928  23.497   3.860
 2934W        W62679  42.364   2.814  10.918
 2935W        W62680  35.497  10.673  10.473
 2936W        W62681  21.201  27.624  14.355
 2937W        W62682   6.279  23.676  11.911
 2938W        W62683  24.195  17.691  11.115
 2939W        W62684  31.469  10.311   4.668
 2940W        W62685  37.087  20.640  12.441
 2941W        W62686  30.497  38.537  10.479
 2942W        W62687  11.848  34.396  13.890
 2943W        W62688  15.195   9.858   4.724
 2944W        W62689   0.818  23.044  13.818
 2945W        W62690   7.382  13.754   3.827
 2946W        W62691  17.571   0.945   1.214
 2947W        W62692  27.650  34.488  10.924
 2948W        W62693   3.920   9.812  11.574
 2949W        W62694   8.780  44.828  11.098
 2950W        W62695   1.358  36.489  13.456
 2951W        W62696  39.449   6.372   0.858
 2952W        W62697  20.188  31.538  10.050
 2953W        W62698  44.485  42.830   4.304
 2954W        W62699  29.515  33.442   1.761
 2955W        W62700  23.041  13.697   2.269
 2956W        W62701  13.216   8.667  14.959
 2957W        W62702   8.401  28.060  12.020
 2958W        W62703   2.275  40.417   2.899
 2959W        W62704  42.481   5.200  14.872
 2960W        W62705  31.898  20.706  12.956
 2961W        W62706  44.001  29.491  12.839
 2962W        W62707  15.582  22.241   3.243
 2963W        W62708  29.129  23.548  14.828
 2964W        W62709   1.397  27.649   1.850
 2965W        W62710  43.515  29.164   0.410
 2966W        W62711  20.539   4.399   4.132
 2967W        W62712  11.673   1.379  10.512
 2968W        W62713  20.076  11.747   0.839
 2969W        W62714  27.970  40.012  10.452
 2970W        W62715  41.879  33.020  10.577
 2971W        W62716  32.043   5.798  12.423
 2972W        W62717   7.793  23.170   2.219
 2973W        W62718  40.836  26.961  14.779
 2974W        W62719  19.103  23.697   0.856
 2975W        W62720  28.624  19.222  10.942
 2976W        W62721  20.753  33.928   2.381
 2977W        W62722  31.527   5.235   4.748
 2978W        W62723   4.333  23.671  14.773
 2979W        W62724  12.802  39.459   4.327
 2980W        W62725  28.534  34.026   1.863
 2981W        W62726  38.940  28.468   3.772
 2982W        W62727  43.018   0.386   4.620
 2983W        W62728  18.231  18.138  12.476
 2984W        W62729   8.317  44.482  12.454
 2985W        W62730  22.673  31.628  11.938
 2986W        W62731  38.048  38.452   3.357
 2987W        W62732  39.474   5.268  10.453
 2988W        W62733   7.690  22.685  12.937
 2989W        W62734  21.566  29.467   2.863
 2990W        W62735   6.885  17.072   1.731
 2991W        W62736  13.737  22.569   4.770
 2992W        W62737   3.311  19.102   3.337
 2993W        W62738  36.992  38.506  10.562
 2994W        W62739  23.651  33.523   1.907
 2995W        W62740  10.696  35.069  13.906
 2996W        W62741  42.366  34.485  14.429
 2997W        W62742  44.412  18.212   1.403
 2998W        W62743  22.162   7.813   4.202
 2999W        W62744   5.363  21.025   1.934
 3000W        W62745  23.089  41.882   3.789
 3001W        W62746  38.982   1.879  13.375
 3002W        W62747  32.094  15.274  13.507
 3003W        W62748   7.675  27.145   2.355
 3004W        W62749   3.728   6.886   2.798
 3005W        W62750  11.303  11.185  12.032
 3006W        W62751  12.250  21.257   2.690
 3007W        W62752  32.019  39.508   2.663
 3008W        W62753  21.039  43.908  11.999
 3009W        W62754  10.357   2.342  11.487
 3010W        W62755  29.095  13.180  14.376
 3011W        W62756  13.115  24.657   0.934
 3012W        W62757   3.857   6.795  14.971
 3013W        W62758  15.738  16.795   3.325
 3014W        W62759  22.245  27.113  12.937
 3015W        W62760  36.399  17.180   4.604
 3016W        W62761   9.692  21.578   2.744
 3017W        W62762   6.425  10.358   4.614
 3018W        W62763  10.653  33.455   9.998
 3019W        W62764  24.153   2.838  11.572
 3020W        W62765  31.514  13.338  12.507
 3021W        W62766  35.441   8.181   0.474
 3022W        W62767  35.037   6.373   2.215
 3023W        W62768  26.196  24.068   4.622
 3024W        W62769  36.487  44.289  12.431
 3025W        W62770  17.226  25.147  10.077
 3026W        W62771  36.386   2.952  12.500
 3027W        W62772   3.713  39.375  13.544
 3028W        W62773  27.555   0.904  11.910
 3029W        W62774   1.845  17.802   1.324
 3030W        W62775  44.798   8.179   4.348
 3031W        W62776   8.696  20.036  10.610
 3032W        W62777   9.836  14.237  14.978
 3033W        W62778  25.195  37.911  12.528
 3034W        W62779  43.296   4.752   3.157
 3035W        W62780  23.490  40.379   3.829
 3036W        W62781  44.332  22.635   0.961
 3037W        W62782   3.289   9.668   2.668
 3038W        W62783  26.625   8.680   4.765
 3039W        W62784   4.271   6.256  11.608
 3040W        W62785  10.177   7.274   2.852
 3041W        W62786  31.139  14.742   3.225
 3042W        W62787  28.130  28.071   3.863
 3043W        W62788  16.170  14.135  13.998
 3044W        W62789  35.381  12.676  11.540
 3045W        W62790  10.221  10.808   2.381
 3046W        W62791  28.146   0.466   4.141
 3047W        W62792   5.230  17.605   9.930
 3048W        W62793  24.501  24.210   0.463
 3049W        W62794   3.736  25.513  11.589
 3050W        W62795  11.694  19.653  10.043
 3051W        W62796  15.806  24.560  10.567
 3052W        W62797  10.771  36.028   4.736
 3053W        W62798   8.841  38.449  11.008
 3054W        W62799  24.641   6.921  14.900
 3055W        W62800  34.055   1.971   0.321
 3056W        W62801  11.770  11.673   2.827
 3057W        W62802  10.747   5.811  12.044
 3058W        W62803  21.084  43.959  12.466
 3059W        W62804  14.708  44.960   0.426
 3060W        W62805  37.843   8.782  13.913
 3061W        W62806  15.666  20.245  14.990
 3062W        W62807  20.542   5.875   3.340
 3063W        W62808   7.177   9.778  13.011
 3064W        W62809  17.249  39.864   4.743
 3065W        W62810  16.259  14.755  10.437
 3066W        W62811  25.693  38.488   3.353
 3067W        W62812  28.476  42.002  14.470
 3068W        W62813  12.190  32.009  12.534
 3069W        W62814   7.332  13.269   2.329
 3070W        W62815  34.447  36.541   1.450
 3071W        W62816  27.613  21.038   2.788
 3072W        W62817   3.388  30.023   1.425
 3073W        W62818   8.897   0.746   0.271
 3074W        W62819  36.403   6.903   1.858
 3075W        W62820  42.931  17.087   4.267
 3076W        W62821  26.123  42.495  14.789
 3077W        W62822  39.536  36.352   1.722
 3078W        W62823  25.684  13.172   0.454
 3079W        W62824  29.014  14.667  12.523
 3080W        W62825   3.905   9.260   2.721
 3081W        W62826  24.151  31.060   3.860
 3082W        W62827  44.395  26.485   2.188
 3083W        W62828  38.324  24.518  12.834
 3084W        W62829   3.337  25.705   1.872
 3085W        W62830  14.590   2.256  14.328
 3086W        W62831  22.515  19.617   4.785
 3087W        W62832  44.946  25.539  13.523
 3088W        W62833  16.266  42.006  14.771
 3089W        W62834  21.664  15.317   0.462
 3090W        W62835  28.649  44.809  11.052
 3091W        W62836  33.078  25.666  14.789
 3092W        W62837  31.581   0.809   2.220
 3093W        W62838  20.149  30.532   1.935
 3094W        W62839  19.641  31.581  10.428
 3095W        W62840  10.377  12.289  11.909
 3096W        W62841  27.034  14.826   0.458
 3097W        W62842  12.333  38.877   1.831
 3098W        W62843  27.180  34.410  13.316
 3099W        W62844  39.003  26.604   2.226
 3100W        W62845  39.866  22.081   4.698
 3101W        W62846  20.206  34.545   0.848
 3102W        W62847  29.944  38.554   1.712
 3103W        W62848  27.633  33.998   4.767
 3104W        W62849  24.144  13.735   1.351
 3105W        W62850   6.182  12.648  14.793
 3106W        W62851  37.499   7.267   1.326
 3107W        W62852  10.635  23.509  10.505
 3108W        W62853  13.202   5.210   0.807
 3109W        W62854   8.721  22.626   1.787
 3110W        W62855  40.362  34.524   1.357
 3111W        W62856  12.658  30.616  12.828
 3112W        W62857   8.243  38.951  14.390
 3113W        W62858   9.866  22.604  11.493
 3114W        W62859  34.891  13.608  10.474
 3115W        W62860  28.618  39.881  12.023
 3116W        W62861   0.491  13.771   0.909
 3117W        W62862  33.506   7.856  14.513
 3118W        W62863   1.400  33.504  13.412
 3119W        W62864  44.968   4.881  10.014
 3120W        W62865  17.747  25.014   3.247
 3121W        W62866  41.533  18.561   0.426
 3122W        W62867  40.453  21.052  10.504
 3123W        W62868  27.604  40.882  11.580
 3124W        W62869   9.361  13.285  10.432
 3125W        W62870  22.229   6.906  13.527
 3126W        W62871  26.971   5.309   2.189
 3127W        W62872  43.765  28.583  10.492
 3128W        W62873  33.010  32.981   4.151
 3129W        W62874  12.252  36.590  14.328
 3130W        W62875  39.337   8.696  11.067
 3131W        W62876  35.480  29.112  10.589
 3132W        W62877  38.851  28.002  14.925
 3133W        W62878  24.052  34.430   3.706
 3134W        W62879   5.764   8.740  11.467
 3135W        W62880   3.283  15.182   4.135
 3136W        W62881   1.419  40.321  11.945
 3137W        W62882  33.491  21.132   0.298
 3138W        W62883  13.279  10.748  11.012
 3139W        W62884  17.197  40.434  12.835
 3140W        W62885   2.838  13.260   4.752
 3141W        W62886   7.177  27.102   3.713
 3142W        W62887   4.397   8.731  11.967
 3143W        W62888  41.987  18.607   2.376
 3144W        W62889  36.867   0.755  14.841
 3145W        W62890  14.114  18.112  14.485
 3146W        W62891  23.177  12.671  12.081
 3147W        W62892  37.563  29.595  10.636
 3148W        W62893  28.013   3.454   0.958
 3149W        W62894  18.652  21.061  12.567
 3150W        W62895  23.237  33.554   0.863
 3151W        W62896  10.251  14.824  10.954
 3152W        W62897   5.760  14.141   0.812
 3153W        W62898  43.376  30.427   2.779
 3154W        W62899  38.885  41.370  14.794
 3155W        W62900  34.488  36.886   2.261
 3156W        W62901  21.190  14.313   5.286
 3157W        W62902  23.075  31.136   3.274
 3158W        W62903   9.296  24.030   3.203
 3159W        W62904  12.276  19.270  11.438
 3160W        W62905  36.430  22.576   1.749
 3161W        W62906  43.837  22.146  11.914
 3162W        W62907   8.675   3.376   1.766
 3163W        W62908  14.790  22.732  14.869
 3164W        W62909  20.652   6.715   4.138
 3165W        W62910   9.832  11.722  13.466
 3166W        W62911  31.051   9.320  12.898
 3167W        W62912   5.894  38.883   4.673
 3168W        W62913  11.856   3.226   4.351
 3169W        W62914  37.397  13.818  13.887
 3170W        W62915  22.508  42.776   0.295
 3171W        W62916  20.741  34.988   3.277
 3172W        W62917  15.216  16.620  13.340
 3173W        W62918  15.785  34.444   0.330
 3174W        W62919   0.982  31.601  14.274
 3175W        W62920  40.478  17.797   3.787
 3176W        W62921  18.149   4.875   2.367
 3177W        W62922   0.838   3.242   0.951
 3178W        W62923  38.398  42.357   3.196
 3179W        W62924  34.063   3.371  12.531
 3180W        W62925  18.736  39.412  14.806
 3181W        W62926  36.094  25.037  11.089
 3182W        W62927  34.107  19.220  12.961
 3183W        W62928   8.818  13.684   1.755
 3184W        W62929  20.585  23.141   3.656
 3185W        W62930  38.987  44.772  14.516
 3186W        W62931  39.488  11.219   3.666
 3187W        W62932  26.080   3.432   4.235
 3188W        W62933   8.712  30.649  10.623
 3189W        W62934  40.363  12.705  13.877
 3190W        W62935   7.290  29.580  11.505
 3191W        W62936  24.086  40.029  11.954
 3192W        W62937   1.759  44.775  13.909
 3193W        W62938  20.084  38.497   4.194
 3194W        W62939  25.618  33.898  11.581
 3195W        W62940  39.812   9.333   4.182
 3196W        W62941  19.268  38.048   1.385
 3197W        W62942  28.075   8.159  14.424
 3198W        W62943  11.150  39.966   3.857
 3199W        W62944  19.236  37.058  11.900
 3200W        W62945  41.384   1.298   3.284
 3201W        W62946   9.844  29.515   4.792
 3202W        W62947  15.315  14.683   4.836
 3203W        W62948  24.592   3.218  14.486
 3204W        W62949  29.608  43.331  13.971
 3205W        W62950  44.360  16.646   4.772
 3206W        W62951  24.670  35.376   0.357
 3207W        W62952  38.458  16.803  14.842
 3208W        W62953   2.759  41.835   4.683
 3209W        W62954   5.800  20.149   1.744
 3210W        W62955  26.698  18.557  10.643
 3211W        W62956  12.240  16.709   2.215
 3212W        W62957  37.866  14.648  14.423
 3213W        W62958  20.592   2.933   3.342
 3214W        W62959  22.039  41.821   3.863
 3215W        W62960  19.696  15.602   2.883
 3216W        W62961  33.031  37.911   0.943
 3217W        W62962  33.117   6.398  14.857
 3218W        W62963  16.806  28.487  12.412
 3219W        W62964  44.871   9.159  14.821
 3220W        W62965  41.535  25.659  13.320
 3221W        W62966  26.136  39.938   3.280
 3222W        W62967  38.029  14.661   1.776
 3223W        W62968  43.907   7.686  14.764
 3224W        W62969   9.823  24.708  11.043
 3225W        W62970   3.216   8.220  13.508
 3226W        W62971  38.529  25.217   4.784
 3227W        W62972   5.882  15.808   1.758
 3228W        W62973  35.523  38.940  12.037
 3229W        W62974  28.638  10.253   1.349
 3230W        W62975  12.362   3.262   0.434
 3231W        W62976  26.702  39.909  11.378
 3232W        W62977  13.344  25.219   0.278
 3233W        W62978  31.993  32.045  11.895
 3234W        W62979  30.585  17.607   4.181
 3235W        W62980  22.519  17.089   0.950
 3236W        W62981  18.714  15.300  12.981
 3237W        W62982  32.961  29.945  14.409
 3238W        W62983  35.967  36.587   4.238
 3239W        W62984   7.899  26.990   4.134
 3240W        W62985  31.518  10.719   3.319
 3241W        W62986  29.972   7.738   3.642
 3242W        W62987  30.989  15.155  11.443
 3243W        W62988  22.119  30.000   3.379
 3244W        W62989  16.780  14.662   3.240
 3245W        W62990  44.981  28.990   3.276
 3246W        W62991  16.669  14.245  10.952
 3247W        W62992  10.761  36.898  10.994
 3248W        W62993  11.309  17.162   0.841
 3249W        W62994  37.898  16.282  12.579
 3250W        W62995  12.669  22.555   0.472
 3251W        W62996  42.335  27.682  14.020
 3252W        W62997  20.195  29.486  11.089
 3253W        W62998  24.055  14.188  11.964
 3254W        W62999  36.969  28.950   2.394
 3255W        W63000   0.327   2.313   4.803
 3256W        W63001  34.582  36.065   4.734
 3257W        W63002   9.770   5.928   4.133
 3258W        W63003   5.427  29.951  11.097
 3259W        W63004   9.270  42.307  10.577
 3260W        W63005  44.335   5.204   3.817
 3261W        W63006  35.001  20.524  12.505
 3262W        W63007  16.763  39.515   3.685
 3263W        W63008  13.132   7.814  14.882
 3264W        W63009  25.577  31.046  12.557
 3265W        W63010  34.083   4.738  14.884
 3266W        W63011   2.779  18.705   0.829
 3267W        W63012  30.962  36.999  11.075
 3268W        W63013  42.511  10.171  13.006
 3269W        W63014  23.012  18.736  10.114
 3270W        W63015   3.908   6.342  14.897
 3271W        W63016  33.470   2.910  12.868
 3272W        W63017  17.792  20.689  11.383
 3273W        W63018   2.278   0.811  11.902
 3274W        W63019   2.435  44.904  14.835
 3275W        W63020   7.303  12.257  12.383
 3276W        W63021  36.552  31.464   0.929
 3277W        W63022   8.224  13.108   0.736
 3278W        W63023   1.364  32.937   4.341
 3279W        W63024  24.146  19.079  11.000
 3280W        W63025  28.435  14.319   2.233
 3281W        W63026   2.337  15.214   0.748
 3282W        W63027  19.055  32.988   4.300
 3283W        W63028  24.592  36.566   0.781
 3284W        W63029  16.808  28.616   4.721
 3285W        W63030   6.244   9.225  13.884
 3286W        W63031  17.197  26.646   0.745
 3287W        W63032  41.424  16.744   1.712
 3288W        W63033  11.322  34.404   4.281
 3289W        W63034  12.630  43.937   1.231
 3290W        W63035  36.038  15.820  12.872
 3291W        W63036  38.883  41.313   1.415
 3292W        W63037   8.366   5.356  12.355
 3293W        W63038  44.849  25.094  14.955
 3294W        W63039  17.257  35.426   4.695
 3295W        W63040   0.316  13.784   1.905
 3296W        W63041  23.682  13.813  14.993
 3297W        W63042  22.174  26.471   4.298
 3298W        W63043  44.362  27.046  14.469
 3299W        W63044   6.182  28.185   0.469
 3300W        W63045  44.879  28.952   2.334
 3301W        W63046  29.608  12.131   2.306
 3302W        W63047  12.756   7.272   0.954
 3303W        W63048  35.943   6.744  13.346
 3304W        W63049  17.748  43.509  10.524
 3305W        W63050  19.669  20.069  14.770
 3306W        W63051  43.936  38.018  13.414
 3307W        W63052   1.856  30.151  12.544
 3308W        W63053   4.258  39.383  13.411
 3309W        W63054  20.578  35.952  10.487
 3310W        W63055  21.167   5.722   4.648
 3311W        W63056   3.315  33.052  12.544
 3312W        W63057  30.912  20.135   3.321
 3313W        W63058   7.679  28.515   3.148
 3314W        W63059   2.872  26.546  11.565
 3315W        W63060  37.060  12.162  10.534
 3316W        W63061  40.849   7.231  14.500
 3317W        W63062   4.931   8.292   4.709
 3318W        W63063  42.984   2.235  10.527
 3319W        W63064  40.451  12.343  14.862
 3320W        W63065  18.170  43.311   1.918
 3321W        W63066   1.369  38.072   1.352
 3322W        W63067  13.667   3.869   3.172
 3323W        W63068  16.716  32.511   3.218
 3324W        W63069  39.429  44.903   2.821
 3325W        W63070  18.597  31.550   3.379
 3326W        W63071  34.921  35.558  12.874
 3327W        W63072  11.357  13.730  13.983
 3328W        W63073  24.055  26.104  14.827
 3329W        W63074  26.465  15.714  13.978
 3330W        W63075   8.788  44.399   3.697
 3331W        W63076  37.536   2.301   1.433
 3332W        W63077  18.072  16.235  12.940
 3333W        W63078  16.655  15.125   3.372
 3334W        W63079   5.240  28.940   2.892
 3335W        W63080  28.983  32.081  14.976
 3336W        W63081  23.722  26.623  10.999
 3337W        W63082  21.535  41.495  11.507
 3338W        W63083  22.609  40.814   1.737
 3339W        W63084  37.509   5.799   4.280
 3340W        W63085  37.412  18.600  13.921
 3341W        W63086  20.089  17.292   1.713
 3342W        W63087  33.875  32.064   4.312
 3343W        W63088   8.689  41.486   4.327
 3344W        W63089  32.572  43.308  12.865
 3345W        W63090  25.113  31.020  12.034
 3346W        W63091  35.483  29.530   3.699
 3347W        W63092  15.717  36.538  12.528
 3348W        W63093  41.319  27.968  11.611
 3349W        W63094   4.288  26.057   1.408
 3350W        W63095  33.035  32.988   0.799
 3351W        W63096  40.513  22.008  14.798
 3352W        W63097  20.532  32.085  11.994
 3353W        W63098  31.083  16.129   1.419
 3354W        W63099  30.629  38.015  13.875
 3355W        W63100   2.306  25.150  11.488
 3356W        W63101   0.937  38.842  14.441
 3357W        W63102  40.813  10.671   2.336
 3358W        W63103  17.640  26.005   0.896
 3359W        W63104   6.751  34.040   2.892
 3360W        W63105  22.118  21.262  11.593
 3361W        W63106  34.055  33.103   1.878
 3362W        W63107  14.281  43.006   3.386
 3363W        W63108   0.366  36.403   2.331
 3364W        W63109   2.350  13.771  14.341
 3365W        W63110  18.555  32.439   3.867
 3366W        W63111  38.553  24.519   4.617
 3367W        W63112  20.212  21.513  14.012
 3368W        W63113  30.157  11.183   1.875
 3369W        W63114   5.696  28.087  12.824
 3370W        W63115  13.739  18.176   2.669
 3371W        W63116   0.946  19.080   3.238
 3372W        W63117  32.418  29.574  13.391
 3373W        W63118  12.681  28.592   3.679
 3374W        W63119  44.765   4.217  13.869
 3375W        W63120  40.940  35.569  11.992
 3376W        W63121  40.850  28.018   3.786
 3377W        W63122  34.950  32.404   0.795
 3378W        W63123  24.076  31.134   3.252
 3379W        W63124  18.791  35.859  14.829
 3380W        W63125  35.022  32.568   0.283
 3381W        W63126  13.221  21.258   5.161
 3382W        W63127  27.947  35.091  10.466
 3383W        W63128  27.501  38.858  11.567
 3384W        W63129  16.580  30.502   3.829
 3385W        W63130  34.523   8.182   2.328
 3386W        W63131  38.023  15.807   4.342
 3387W        W63132  32.616  42.401  10.942
 3388W        W63133  30.074   9.842  14.457
 3389W        W63134  41.811  32.137  13.470
 3390W        W63135   9.805  24.089  12.077
 3391W        W63136  29.935   1.358  13.406
 3392W        W63137   8.368  10.779  12.939
 3393W        W63138   8.222  42.296   3.351
 3394W        W63139   9.834  31.910   3.795
 3395W        W63140   1.862  25.656   3.356
 3396W        W63141  19.069  18.285   0.412
 3397W        W63142   5.401  29.646  12.849
 3398W        W63143  32.566  10.657  14.443
 3399W        W63144  40.443  25.632  13.487
 3400W        W63145  25.638   7.345   4.126
 3401W        W63146  44.341   6.781  11.520
 3402W        W63147   4.784  39.854  13.800
 3403W        W63148   2.360  33.623   0.954
 3404W        W63149  43.441   0.386  13.830
 3405W        W63150  33.083  26.156   0.915
 3406W        W63151  32.585  11.659   4.313
 3407W        W63152  29.582  24.567  13.885
 3408W        W63153  11.730  26.138   2.286
 3409W        W63154  11.854  12.732  14.465
 3410W        W63155  30.912  20.265  12.096
 3411W        W63156  23.181   4.909  11.962
 3412W        W63157  26.506  40.866   1.401
 3413W        W63158  16.300  20.053   3.755
 3414W        W63159  40.397   6.765   3.179
 3415W        W63160  15.253   8.331  13.038
 3416W        W63161  25.029  29.173   3.300
 3417W        W63162  36.588  33.536   3.168
 3418W        W63163  10.849   4.233   4.188
 3419W        W63164  19.773  13.610  13.396
 3420W        W63165  40.304  43.441  10.609
 3421W        W63166  43.832   3.821  14.865
 3422W        W63167  33.592  14.622  14.958
 3423W        W63168  43.909  36.368   1.329
 3424W        W63169  37.013  29.667   3.169
 3425W        W63170  31.009   8.241  12.448
 3426W        W63171  37.418  39.984   3.341
 3427W        W63172  32.550   1.404  12.067
 3428W        W63173  15.687   5.313   1.824
 3429W        W63174  44.768  40.020   2.803
 3430W        W63175  27.997  26.669  11.409
 3431W        W63176  34.110  13.166  13.469
 3432W        W63177  17.792  30.158   4.338
 3433W        W63178   5.277   6.417  14.408
 3434W        W63179   2.743  16.136  14.946
 3435W        W63180   8.213   8.766   4.245
 3436W        W63181  34.077  29.991  13.395
 3437W        W63182  37.417  36.546   2.827
 3438W        W63183   8.298  41.013   3.152
 3439W        W63184  17.668  19.199  14.012
 3440W        W63185  12.615  32.885   5.233
 3441W        W63186  34.375  29.653   3.283
 3442W        W63187  22.072   2.928  12.906
 3443W        W63188  13.605  39.858   2.813
 3444W        W63189  17.084   9.348   3.211
 3445W        W63190  27.529  27.124   2.335
 3446W        W63191  18.251  10.144  10.132
 3447W        W63192  12.121  42.457   1.434
 3448W        W63193  25.182  22.121   0.880
 3449W        W63194  16.305  35.987  13.904
 3450W        W63195  36.434  25.654   3.670
 3451W        W63196  11.200  31.439  13.389
 3452W        W63197  32.901  36.004   3.238
 3453W        W63198  30.141  35.028   4.337
 3454W        W63199  39.004   8.655  10.564
 3455W        W63200  27.084  29.535  14.857
 3456W        W63201  41.300  16.620  14.495
 3457W        W63202   0.468  14.131  14.513
 3458W        W63203   1.385  22.655   0.442
 3459W        W63204  17.689  15.278   4.754
 3460W        W63205  37.558  10.853  10.598
 3461W        W63206  13.326   9.725   3.180
 3462W        W63207   1.949  14.126  11.586
 3463W        W63208  15.671  26.610  12.966
 3464W        W63209   0.295  40.900  12.484
 3465W        W63210  17.284  15.598  12.442
 3466W        W63211  14.169   6.274  10.567
 3467W        W63212  36.432  11.211  12.905
 3468W        W63213  41.410  28.963  14.430
 3469W        W63214  23.537  19.167   3.373
 3470W        W63215  33.003  15.769   1.328
 3471W        W63216  15.221  10.762  13.852
 3472W        W63217   3.292  41.804  13.317
 3473W        W63218  28.942  10.168   3.264
 3474W        W63219   5.812  34.543   3.155
 3475W        W63220   9.864  23.110   0.421
 3476W        W63221   8.222  10.284  10.916
 3477W        W63222  19.060  33.506   3.672
 3478W        W63223   1.305  25.104   4.274
 3479W        W63224  44.955  28.631  14.962
 3480W        W63225  37.553  38.913  13.424
 3481W        W63226  29.999  29.098   2.297
 3482W        W63227  36.915  23.052   2.386
 3483W        W63228  11.629  27.141   3.265
 3484W        W63229  42.393   9.859   0.835
 3485W        W63230  34.582  10.270  11.458
 3486W        W63231  11.275  25.160   4.712
 3487W        W63232   6.887   9.667  12.492
 3488W        W63233  44.483   4.306   1.318
 3489W        W63234  25.006  12.352   0.917
 3490W        W63235  39.930   7.887  10.500
 3491W        W63236   7.343  37.897   4.123
 3492W        W63237  17.565  22.184   0.820
 3493W        W63238  19.714  28.140   4.343
 3494W        W63239  36.541  19.259  14.880
 3495W        W63240  15.730   6.237   4.718
 3496W        W63241  11.711  14.279   3.685
 3497W        W63242  26.657  10.801   0.790
 3498W        W63243  16.148   4.936  13.862
 3499W        W63244  41.886  36.057  12.382
 3500W        W63245   6.285   6.233  11.452
 3501W        W63246  36.508   9.715   4.162
 3502W        W63247  42.357  37.830  12.543
 3503W        W63248  19.277  38.852  13.367
 3504W        W63249  10.346  18.627  10.964
 3505W        W63250  23.224  33.434   4.233
 3506W        W63251   8.317  41.805   0.868
 3507W        W63252  40.816  43.947  11.500
 3508W        W63253  21.753   0.973   9.436
 3509W        W63254  19.135  36.877  13.365
 3510W        W63255   4.740  28.073  12.067
 3511W        W63256  29.075  28.471   9.947
 3512W        W63257  11.630  11.237   1.340
 3513W        W63258  38.865  37.086  12.509
 3514W        W63259   3.404  10.252  11.421
 3515W        W63260  23.993  26.659  12.357
 3516W        W63261   5.780  36.525   2.824
 3517W        W63262  44.863   3.908   0.785
 3518W        W63263   6.307   9.663   0.329
 3519W        W63264  39.486  26.202  12.953
 3520W        W63265  41.971   5.902  13.314
 3521W        W63266  18.110   4.394   4.815
 3522W        W63267  22.154   2.895   3.269
 3523W        W63268  29.429  13.124  12.828
 3524W        W63269  15.633  10.318  13.479
 3525W        W63270   8.370  35.527  12.472
 3526W        W63271  36.068  33.588  10.975
 3527W        W63272  25.679  35.037  14.021
 3528W        W63273  25.602  34.974  11.510
 3529W        W63274  43.933  20.747  14.836
 3530W        W63275  26.549  20.105  12.984
 3531W        W63276  42.453   1.935   1.805
 3532W        W63277  12.323  13.178   4.123
 3533W        W63278   6.900  12.328  10.444
 3534W        W63279  22.724   6.363   0.826
 3535W        W63280  12.200  39.003   1.306
 3536W        W63281  25.669   3.709  11.062
 3537W        W63282   6.293  32.530  11.996
 3538W        W63283  27.498  31.510   3.662
 3539W        W63284  31.075   7.199  14.934
 3540W        W63285  30.585  24.008   2.288
 3541W        W63286  42.517  34.875   2.399
 3542W        W63287  12.851   7.237  11.486
 3543W        W63288   3.323  12.259   3.372
 3544W        W63289   0.766  15.686  11.529
 3545W        W63290  19.124  24.645   2.740
 3546W        W63291   4.317  34.514  10.487
 3547W        W63292   1.977   1.480   1.340
 3548W        W63293  44.470  30.525   2.692
 3549W        W63294  42.802   3.455   9.931
 3550W        W63295   5.275  11.149   4.201
 3551W        W63296  19.228  18.595   3.668
 3552W        W63297   5.198   0.469  11.019
 3553W        W63298  36.900   5.786   1.382
 3554W        W63299  26.978  39.856  14.007
 3555W        W63300  33.541   2.930   1.930
 3556W        W63301  43.996  15.098   1.889
 3557W        W63302   4.861  17.230   2.759
 3558W        W63303   4.430  14.340   0.449
 3559W        W63304  11.174  19.553   3.648
 3560W        W63305  26.064  13.774   1.264
 3561W        W63306  44.952   6.410   4.144
 3562W        W63307  43.890   4.839  10.509
 3563W        W63308  44.794  41.006  12.544
 3564W        W63309   9.171  36.424   0.775
 3565W        W63310  32.440  32.567   1.716
 3566W        W63311  36.977  35.460   4.680
 3567W        W63312  23.598  22.726  11.561
 3568W        W63313   2.344  30.027  14.921
 3569W        W63314   0.806  26.144   3.280
 3570W        W63315  21.063   5.283  13.392
 3571W        W63316   2.943   4.774  13.908
 3572W        W63317  43.368  36.090   0.416
 3573W        W63318  10.182  12.282   0.322
 3574W        W63319   4.398  33.994   1.907
 3575W        W63320   8.208  24.987   3.356
 3576W        W63321  44.949   0.367   3.784
 3577W        W63322  22.217  33.500  12.373
 3578W        W63323  15.776  23.025  13.829
 3579W        W63324  33.579   3.725   1.772
 3580W        W63325  16.310  26.558  14.830
 3581W        W63326   8.352  22.154  13.515
 3582W        W63327   7.402  32.991   4.700
 3583W        W63328  34.968  20.071  12.548
 3584W        W63329  41.797  10.196  10.992
 3585W        W63330  19.569  15.637   0.416
 3586W        W63331  12.649   0.493   2.260
 3587W        W63332  13.776  28.017   2.302
 3588W        W63333  12.124   9.860  13.508
 3589W        W63334  26.027   4.210   1.879
 3590W        W63335  28.120  23.536  13.813
 3591W        W63336  16.139   9.653   3.645
 3592W        W63337  15.653  30.130  12.571
 3593W        W63338   5.725  26.589  11.524
 3594W        W63339   9.176  37.996  10.450
 3595W        W63340   6.400   4.793   4.131
 3596W        W63341  19.736   9.792   0.311
 3597W        W63342  16.155  28.639   2.828
 3598W        W63343  35.106  27.616  12.879
 3599W        W63344  29.648  21.539   0.767
 3600W        W63345  40.918  10.768  12.439
 3601W        W63346  42.975  41.390   4.826
 3602W        W63347  22.180   6.385   0.341
 3603W        W63348  24.638  34.473  14.437
 3604W        W63349  37.889  16.258   2.828
 3605W        W63350   8.702  34.894  10.960
 3606W        W63351  12.777  43.293   1.863
 3607W        W63352  11.287  18.138   0.873
 3608W        W63353  43.286  13.138  14.768
 3609W        W63354  14.234  30.536  12.339
 3610W        W63355  43.454  11.764   3.803
 3611W        W63356   8.262   4.402   2.671
 3612W        W63357   0.480  42.824  13.979
 3613W        W63358  42.381  15.106   2.418
 3614W        W63359   1.816   6.792   3.738
 3615W        W63360  21.220  25.636  10.558
 3616W        W63361  35.944  11.680  14.309
 3617W        W63362  12.856  26.096  13.032
 3618W        W63363  20.645  35.990  12.355
 3619W        W63364   6.889  21.516   0.830
 3620W        W63365  33.022   1.904  10.964
 3621W        W63366  11.812  22.238   2.677
 3622W        W63367  41.914  23.112  14.474
 3623W        W63368  16.300  21.593  14.339
 3624W        W63369  22.746  38.483   2.330
 3625W        W63370  36.384  44.825   3.289
 3626W        W63371   6.676   6.713   2.787
 3627W        W63372  24.007  33.901   3.640
 3628W        W63373  20.610  38.389   4.789
 3629W        W63374   2.254  35.461   1.931
 3630W        W63375  23.057  15.303  13.341
 3631W        W63376  26.621   6.827   3.290
 3632W        W63377  31.477  18.152   1.419
 3633W        W63378  27.688  30.645  14.293
 3634W        W63379   1.299  30.101  11.574
 3635W        W63380  16.617  26.495  11.422
 3636W        W63381  40.470  39.903  12.929
 3637W        W63382   6.313   4.247   1.232
 3638W        W63383  32.600  14.726   4.806
 3639W        W63384  24.622  23.671  12.546
 3640W        W63385   3.388  17.245  10.890
 3641W        W63386  17.585  21.180   3.265
 3642W        W63387   5.437  15.586   9.992
 3643W        W63388  11.640  38.361   1.445
 3644W        W63389   6.346   6.755   0.268
 3645W        W63390  30.653  17.245  11.587
 3646W        W63391   1.786  34.965   4.793
 3647W        W63392  27.007  29.539   1.823
 3648W        W63393  24.040  32.613  13.976
 3649W        W63394  30.929   1.432   0.819
 3650W        W63395   4.848  24.485   3.377
 3651W        W63396  31.087   7.236   0.847
 3652W        W63397  24.992  24.187  11.119
 3653W        W63398  36.966  34.015   2.721
 3654W        W63399  25.565  34.384   4.218
 3655W        W63400   8.865  36.096  12.825
 3656W        W63401  22.136  42.032  11.514
 3657W        W63402  30.648  30.600   0.277
 3658W        W63403   8.663  25.633  14.497
 3659W        W63404  40.390  30.620   3.183
 3660W        W63405   1.833  26.682   1.898
 3661W        W63406  41.901  13.133   1.772
 3662W        W63407  38.547  31.131  11.473
 3663W        W63408  25.529  22.710  13.339
 3664W        W63409  36.432  17.262  13.540
 3665W        W63410   5.759  41.947   1.327
 3666W        W63411  19.713  36.877   2.820
 3667W        W63412  32.970   7.315  11.505
 3668W        W63413  35.050  37.960   2.397
 3669W        W63414  27.085  44.775  14.341
 3670W        W63415  10.644  33.549  13.515
 3671W        W63416  42.840  29.098   5.093
 3672W        W63417  43.491  43.967  14.994
 3673W        W63418   7.670  30.083   0.303
 3674W        W63419   9.335   5.243  10.605
 3675W        W63420  20.198  25.063  11.427
 3676W        W63421  41.859   6.257  12.526
 3677W        W63422  13.190  15.776  13.353
 3678W        W63423  28.509  35.418  12.468
 3679W        W63424  27.583   4.272  13.481
 3680W        W63425  28.656  26.682  10.580
 3681W        W63426   4.855  17.286   4.310
 3682W        W63427  24.598  34.513   1.762
 3683W        W63428  31.023  19.256  11.536
 3684W        W63429  32.550   4.351  14.970
 3685W        W63430  39.401  27.099  10.619
 3686W        W63431  36.397  38.845  12.947
 3687W        W63432  29.070  35.548  13.415
 3688W        W63433   8.748  41.353  10.439
 3689W        W63434  33.002  16.566  12.497
 3690W        W63435   5.193   5.741   4.227
 3691W        W63436  27.026   8.243   1.361
 3692W        W63437  20.624   6.232  12.837
 3693W        W63438  14.758  24.662   2.727
 3694W        W63439  14.116  24.183  12.852
 3695W        W63440   5.910  14.198   3.760
 3696W        W63441  20.134  18.683  12.968
 3697W        W63442  27.034  22.551  13.953
 3698W        W63443  37.458  22.099  13.399
 3699W        W63444   9.765   1.367  12.436
 3700W        W63445  40.546  10.858   3.645
 3701W        W63446  42.497  10.829   0.933
 3702W        W63447   2.836  23.106   3.329
 3703W        W63448  40.490  23.106  12.866
 3704W        W63449   4.732   5.402  14.465
 3705W        W63450   7.708   1.740  12.040
 3706W        W63451  28.007   5.876  12.467
 3707W        W63452  35.361  15.707  14.468
 3708W        W63453  17.756  29.100  13.992
 3709W        W63454   9.234  32.990   1.409
 3710W        W63455  10.718  32.996  12.857
 3711W        W63456  30.654  28.992  12.440
 3712W        W63457  13.113  21.649  12.391
 3713W        W63458   5.265  31.078   4.312
 3714W        W63459  43.330  32.405   0.785
 3715W        W63460   5.884   8.830  10.446
 3716W        W63461  33.502  38.456   3.255
 3717W        W63462  25.685   4.846   1.718
 3718W        W63463   5.384  32.031  11.102
 3719W        W63464  40.975  17.623  11.056
 3720W        W63465  21.680  34.035   9.573
 3721W        W63466   0.834   4.258  11.073
 3722W        W63467   5.888  11.725  12.863
 3723W        W63468  14.167   3.373   4.190
 3724W        W63469  13.178  44.454  13.005
 3725W        W63470  33.964  19.097   0.270
 3726W        W63471  42.822  43.362  10.986
 3727W        W63472  38.006  38.853  12.873
 3728W        W63473  12.270  37.065  12.975
 3729W        W63474  13.744  10.855   0.747
 3730W        W63475  43.937   4.724  10.906
 3731W        W63476  36.088   9.179  12.034
 3732W        W63477  37.861  12.319  11.535
 3733W        W63478  28.584  21.640  11.086
 3734W        W63479  30.480  11.362   3.688
 3735W        W63480  28.492   7.336  11.984
 3736W        W63481  33.429  24.213  13.517
 3737W        W63482  37.925  18.098  11.597
 3738W        W63483   1.435   9.251   3.670
 3739W        W63484  34.029  34.936  10.536
 3740W        W63485  11.801  10.271   0.776
 3741W        W63486  25.553  32.049   2.798
 3742W        W63487  38.825  18.079   1.352
 3743W        W63488  27.550   5.865   1.903
 3744W        W63489  39.526   6.212  10.035
 3745W        W63490  42.969  31.032   0.893
 3746W        W63491   7.388  12.665   3.753
 3747W        W63492   7.326  20.598  13.382
 3748W        W63493  29.931  12.126   3.649
 3749W        W63494  38.020  34.553  10.412
 3750W        W63495  20.648  35.065   1.388
 3751W        W63496  18.654  17.283  14.906
 3752W        W63497  31.916   2.283  11.987
 3753W        W63498  29.454  10.334   3.164
 3754W        W63499  32.450  37.469  13.544
 3755W        W63500  22.172   3.942  14.320
 3756W        W63501  11.270   6.923   1.215
 3757W        W63502  36.497  26.496   0.925
 3758W        W63503  33.557   7.204  10.902
 3759W        W63504  24.503  13.335  11.457
 3760W        W63505  11.319  21.684  11.455
 3761W        W63506  35.894  21.742  12.996
 3762W        W63507  24.719  32.960   1.272
 3763W        W63508  40.954  28.984   1.231
 3764W        W63509  14.116  18.050  12.852
 3765W        W63510  38.044  19.227  13.794
 3766W        W63511  24.031  14.317  12.842
 3767W        W63512  33.555  43.767   2.868
 3768W        W63513  10.185  14.769  14.805
 3769W        W63514  33.490  17.208   4.766
 3770W        W63515   3.815  41.403  14.001
 3771W        W63516  41.425  19.686  11.006
 3772W        W63517   0.438  23.149  10.642
 3773W        W63518   4.436   1.318  14.759
 3774W        W63519  10.642  35.571  13.885
 3775W        W63520   3.277  11.644  14.494
 3776W        W63521   7.264   4.263   2.223
 3777W        W63522   1.238  26.678  11.426
 3778W        W63523  30.106  35.041   0.949
 3779W        W63524  18.053  37.009  10.930
 3780W        W63525  41.015   8.754   2.813
 3781W        W63526   5.222   1.283   1.452
 3782W        W63527  37.949  38.936   0.410
 3783W        W63528  41.954  43.839   3.233
 3784W        W63529  14.624  23.149   3.848
 3785W        W63530   3.239   7.356  12.865
 3786W        W63531  36.911  20.755  14.454
 3787W        W63532   0.886  40.377  11.079
 3788W        W63533  41.319  17.632  13.387
 3789W        W63534  44.907  17.746  14.958
 3790W        W63535  13.721  28.502  11.991
 3791W        W63536  36.975  18.268  11.904
 3792W        W63537  25.213  13.807  12.823
 3793W        W63538   1.358  39.910   2.818
 3794W        W63539  29.602  31.032   1.844
 3795W        W63540  36.041  44.945   2.278
 3796W        W63541  34.061  16.688  14.961
 3797W        W63542  29.566  39.978   4.323
 3798W        W63543   6.233  34.000   1.890
 3799W        W63544  31.436   2.961  12.459
 3800W        W63545  24.049  26.654  10.018
 3801W        W63546   8.681  41.805  14.965
 3802W        W63547  12.230  43.407  11.914
 3803W        W63548  41.889  40.445  10.596
 3804W        W63549  19.112  10.162   0.314
 3805W        W63550  40.385   3.858  11.002
 3806W        W63551  33.620  10.299  13.972
 3807W        W63552   1.362  43.462   0.747
 3808W        W63553  21.535  33.939  13.365
 3809W        W63554  24.198  23.544   1.307
 3810W        W63555  33.598  26.163  11.535
 3811W        W63556  27.085  36.990   4.691
 3812W        W63557  23.021  19.092   0.474
 3813W        W63558   2.418  28.989   0.284
 3814W        W63559   4.254   5.214   0.413
 3815W        W63560  24.590  10.232  12.375
 3816W        W63561  25.675  38.470  12.969
 3817W        W63562  25.512  30.593   3.324
 3818W        W63563  13.722  25.610   4.199
 3819W        W63564  41.401  40.883   1.266
 3820W        W63565  16.197  31.066   4.245
 3821W        W63566  41.984  21.709  13.315
 3822W        W63567  21.041  24.980   1.740
 3823W        W63568  25.702  40.504  11.445
 3824W        W63569  37.521  34.913   0.801
 3825W        W63570  15.590  18.103  14.368
 3826W        W63571  10.696  24.986  14.984
 3827W        W63572  14.191  44.988   4.643
 3828W        W63573  34.071   2.910   1.790
 3829W        W63574  24.058   1.746   3.215
 3830W        W63575  22.010  28.027  14.029
 3831W        W63576  19.614  41.845  13.471
 3832W        W63577  22.741   3.338   5.146
 3833W        W63578   1.364  22.029   1.383
 3834W        W63579   5.405   3.286  13.386
 3835W        W63580  28.512  41.959   4.753
 3836W        W63581   3.268  37.447   0.300
 3837W        W63582  23.583  32.587  13.838
 3838W        W63583  32.969   3.955   2.773
 3839W        W63584  34.496   4.299  12.088
 3840W        W63585   9.697  34.418   4.249
 3841W        W63586  24.548   9.842  13.422
 3842W        W63587  14.760  33.459   0.361
 3843W        W63588  21.616  17.650   0.758
 3844W        W63589   8.308  39.324  13.888
 3845W        W63590   7.414  40.478  13.027
 3846W        W63591  42.880  32.488  11.903
 3847W        W63592  14.201   3.838  13.983
 3848W        W63593  26.014  39.506   0.276
 3849W        W63594  28.573  40.976   4.796
 3850W        W63595  18.663  22.605   0.847
 3851W        W63596  41.407  37.012  11.472
 3852W        W63597  30.913   7.684  11.943
 3853W        W63598  26.523  24.987   2.203
 3854W        W63599  22.217   8.785  12.397
 3855W        W63600   8.393  13.608  14.869
 3856W        W63601   1.318   7.416  13.327
 3857W        W63602  15.120  23.091  11.580
 3858W        W63603   6.749  15.804  13.006
 3859W        W63604   3.733  20.742  11.073
 3860W        W63605   2.832  19.108  12.499
 3861W        W63606  16.659   7.369  10.905
 3862W        W63607  27.470  15.288   0.369
 3863W        W63608  24.059  28.677  12.040
 3864W        W63609  27.150  44.918   0.367
 3865W        W63610  28.610  44.794   1.702
 3866W        W63611   6.914  27.015  13.914
 3867W        W63612  22.551  17.098  10.155
 3868W        W63613  19.582  29.587   0.271
 3869W        W63614  30.962  43.820  14.440
 3870W        W63615   7.269   9.241  10.427
 3871W        W63616  26.567  43.382   3.317
 3872W        W63617   0.876  31.482  10.607
 3873W        W63618  10.355  36.980   0.903
 3874W        W63619   3.341  22.238   0.842
 3875W        W63620  13.791   6.908  12.344
 3876W        W63621  18.166  37.881   4.237
 3877W        W63622   2.342  28.450   0.281
 3878W        W63623  37.487  40.305   2.230
 3879W        W63624  36.348  32.520   0.440
 3880W        W63625  14.662  42.946  12.449
 3881W        W63626  13.217  14.740   2.323
 3882W        W63627  24.062  18.788   3.861
 3883W        W63628   2.393  32.099   1.873
 3884W        W63629  11.216  22.570  13.366
 3885W        W63630  13.728  10.643  12.395
 3886W        W63631  14.304  14.752  11.456
 3887W        W63632  39.971  28.986  14.960
 3888W        W63633  13.803  15.763   3.632
 3889W        W63634  20.769  44.459  13.421
 3890W        W63635  40.934  20.170   2.236
 3891W        W63636  18.254  17.065  13.900
 3892W        W63637  36.361   3.347   0.358
 3893W        W63638  43.452  21.700   0.901
 3894W        W63639  27.947  42.434  12.006
 3895W        W63640  33.496  13.223   0.940
 3896W        W63641  28.037  29.597  14.939
 3897W        W63642   2.730  30.547  10.104
 3898W        W63643  24.030  36.913  10.594
 3899W        W63644  13.212  18.120  10.044
 3900W        W63645  20.032  13.348   4.709
 3901W        W63646   0.982  22.246  10.072
 3902W        W63647  18.086   0.285  13.346
 3903W        W63648   6.885  22.543  13.047
 3904W        W63649  44.825  10.840   3.762
 3905W        W63650  41.862  36.442  10.436
 3906W        W63651   9.358  12.661   0.293
 3907W        W63652  39.022  37.901   0.424
 3908W        W63653  44.775   0.880   2.830
 3909W        W63654  29.590  18.632   1.365
 3910W        W63655  31.131   5.251  12.850
 3911W        W63656   9.220  37.520   2.876
 3912W        W63657  36.878  26.595  14.870
 3913W        W63658  44.300  16.072  12.472
 3914W        W63659  44.900   4.297   1.730
 3915W        W63660  37.438  34.995  13.860
 3916W        W63661   6.894   8.796   1.354
 3917W        W63662  17.706  25.638   0.432
 3918W        W63663   3.230  27.045  11.071
 3919W        W63664  14.744   3.787  13.493
 3920W        W63665  29.087  36.906   3.808
 3921W        W63666   7.247   2.808  11.028
 3922W        W63667  16.249  20.527   4.286
 3923W        W63668  24.594  25.216   1.404
 3924W        W63669  30.101  32.056  10.438
 3925W        W63670   9.824  28.620  10.514
 3926W        W63671  24.117  44.382   2.257
 3927W        W63672   4.822  38.439  14.291
 3928W        W63673   6.252  24.157   4.731
 3929W        W63674  12.837  20.090   3.322
 3930W        W63675  29.051  36.036   0.462
 3931W        W63676  31.005  29.098  14.381
 3932W        W63677  24.028  40.334  13.880
 3933W        W63678  12.753   0.293   4.351
 3934W        W63679  19.221  32.945  11.372
 3935W        W63680  27.542   6.775   5.307
 3936W        W63681  40.457   4.359  13.324
 3937W        W63682  19.103  22.567  11.585
 3938W        W63683  25.683  13.752  14.360
 3939W        W63684  22.601  23.170   3.870
 3940W        W63685   0.433  35.576   3.355
 3941W        W63686  30.011  29.525   1.212
 3942W        W63687  40.934  13.131  13.813
 3943W        W63688  32.418  25.620   4.158
 3944W        W63689   8.384   0.328  13.493
 3945W        W63690   9.329  29.990  14.283
 3946W        W63691  21.743   3.932  12.933
 3947W        W63692  39.490  37.011  10.930
 3948W        W63693  24.612  37.528   3.245
 3949W        W63694  14.253   6.906   4.794
 3950W        W63695   9.768  34.494  12.547
 3951W        W63696  29.949  22.547  13.040
 3952W        W63697  15.772  31.929  11.007
 3953W        W63698   6.244  14.753  11.068
 3954W        W63699  16.694  18.116  14.933
 3955W        W63700  40.543  13.165  10.894
 3956W        W63701  32.563  35.403  12.568
 3957W        W63702  29.081   3.309  11.971
 3958W        W63703  43.475   1.340   2.344
 3959W        W63704  37.571   0.825   5.174
 3960W        W63705  30.624   0.876  12.906
 3961W        W63706   6.686  38.034  10.933
 3962W        W63707  38.066  43.501   2.871
 3963W        W63708  30.001   8.192   1.871
 3964W        W63709  15.619  10.267  13.909
 3965W        W63710  13.105   2.434  11.986
 3966W        W63711  29.636  26.665   4.284
 3967W        W63712  34.959  22.160  11.532
 3968W        W63713  19.158  30.593   4.218
 3969W        W63714  36.901  15.282  12.543
 3970W        W63715  42.423  30.557  14.856
 3971W        W63716  35.855  44.768  11.979
 3972W        W63717  27.684   6.213   3.361
 3973W        W63718  26.624  37.027  14.889
 3974W        W63719  27.166  43.890  13.988
 3975W        W63720  39.885  30.123  13.421
 3976W        W63721  27.558  18.663  11.392
 3977W        W63722  20.670  42.941   4.327
 3978W        W63723  33.573  36.557   1.259
 3979W        W63724  31.943  33.896   2.663
 3980W        W63725  27.689  34.470  11.869
 3981W        W63726  15.641  39.925  11.911
 3982W        W63727  33.499   1.456   4.314
 3983W        W63728  34.026   0.870   0.757
 3984W        W63729  40.878  20.166   3.764
 3985W        W63730   9.347  41.337   5.297
 3986W        W63731  14.221  27.589   1.249
 3987W        W63732  18.591  11.196   4.722
 3988W        W63733  14.742  30.051  12.569
 3989W        W63734  12.630  15.757  11.451
 3990W        W63735  34.481  24.579   4.766
 3991W        W63736  11.297  22.622  14.975
 3992W        W63737  12.779  11.318   0.303
 3993W        W63738   5.856  20.097  13.822
 3994W        W63739  31.441  30.574   5.193
 3995W        W63740  34.576  21.057  14.339
 3996W        W63741  23.620  12.248  14.947
 3997W        W63742   8.657  12.660   4.831
 3998W        W63743   8.812  17.183  13.342
 3999W        W63744  34.111  21.648   3.761
 4000W        W63745  43.420  22.163  14.906
 4001W        W63746  39.471  28.517   3.708
 4002W        W63747  16.127  27.002   2.310
 4003W        W63748  34.099  38.377  14.019
 4004W        W63749  12.736  27.166   1.749
 4005W        W63750  39.523  41.470   1.372
 4006W        W63751  38.369  30.642   1.772
 4007W        W63752   5.810  38.474  11.992
 4008W        W63753  27.130  38.502   1.434
 4009W        W63754  29.143  39.524   2.331
 4010W        W63755   1.834  40.501   4.142
 4011W        W63756  25.094   6.283  10.558
 4012W        W63757  24.125  28.115  13.548
 4013W        W63758  24.526   9.226   0.731
 4014W        W63759  22.711  19.129   3.256
 4015W        W63760  43.885  41.398   4.154
 4016W        W63761  11.168  34.488  11.127
 4017W        W63762  14.681   1.311  12.086
 4018W        W63763  23.507   6.914   3.292
 4019W        W63764  40.525  32.596   4.776
 4020W        W63765  39.947  25.974  11.093
 4021W        W63766  35.560  35.856  11.909
 4022W        W63767  11.622  28.122   3.212
 4023W        W63768  41.797  20.246  14.394
 4024W        W63769   2.952  25.205   3.719
 4025W        W63770  22.728  25.139  12.838
 4026W        W63771   1.381   4.851   2.370
 4027W        W63772  30.116  13.336  11.578
 4028W        W63773   9.178  33.957   1.826
 4029W        W63774  42.365  22.204  13.356
 4030W        W63775  43.876  20.132  14.988
 4031W        W63776   6.228   6.203   1.379
 4032W        W63777  22.686  24.532  12.855
 4033W        W63778   2.362  33.584   4.277
 4034W        W63779  32.586   4.921   1.328
 4035W        W63780  43.832   7.255  14.956
 4036W        W63781  18.665  14.710  10.636
 4037W        W63782  12.652  19.762   4.336
 4038W        W63783   6.192  10.831  14.372
 4039W        W63784   6.228  20.688  11.019
 4040W        W63785  21.731  25.692   2.861
 4041W        W63786  43.979  13.120  11.930
 4042W        W63787  26.595  16.697   0.363
 4043W        W63788  33.510  11.847  13.426
 4044W        W63789   3.257  44.855  12.861
 4045W        W63790   9.693  17.230   4.750
 4046W        W63791  16.208  30.574   4.659
 4047W        W63792   0.353  32.584   2.269
 4048W        W63793  18.100  23.195  11.972
 4049W        W63794  43.908  17.245  12.575
 4050W        W63795  23.586  14.671  13.361
 4051W        W63796   6.844  28.458   3.279
 4052W        W63797  31.483  17.271   1.304
 4053W        W63798   8.356   1.779  11.531
 4054W        W63799  42.514  21.724  13.360
 4055W        W63800  43.773  25.700   1.427
 4056W        W63801  23.617   6.270  11.502
 4057W        W63802  26.975  39.385  10.627
 4058W        W63803  20.746  22.183   1.361
 4059W        W63804  23.143  32.938  10.474
 4060W        W63805  33.077  33.995   3.167
 4061W        W63806  21.675  10.200  12.378
 4062W        W63807   5.375  36.083   2.685
 4063W        W63808  43.289  37.507   1.263
 4064W        W63809  34.475  18.772   1.772
 4065W        W63810  13.697  40.522  11.493
 4066W        W63811  28.945  13.257  14.860
 4067W        W63812   8.702   4.913  12.468
 4068W        W63813  22.626  27.536  11.397
 4069W        W63814  30.507  30.970  13.949
 4070W        W63815  26.612  38.870  12.072
 4071W        W63816  14.771  31.031  12.008
 4072W        W63817  11.811   1.479   4.164
 4073W        W63818   8.745  15.120  11.030
 4074W        W63819   4.243  21.148   4.325
 4075W        W63820  18.635  29.089  10.549
 4076W        W63821  42.029  14.735   2.697
 4077W        W63822  43.823   3.875   1.345
 4078W        W63823  35.403  10.226  10.115
 4079W        W63824   3.809  27.692   1.210
 4080W        W63825  39.496  14.693   0.931
 4081W        W63826  16.124  17.624   0.406
 4082W        W63827   2.412  35.401   3.167
 4083W        W63828  30.588  29.458  13.496
 4084W        W63829  43.348  19.245   2.335
 4085W        W63830  34.954   9.208   2.364
 4086W        W63831   6.415  17.139   4.648
 4087W        W63832  28.017  16.123   4.148
 4088W        W63833  27.543  28.091  10.924
 4089W        W63834   8.328  11.818  14.437
 4090W        W63835  20.761   8.264  15.000
 4091W        W63836  24.644  37.453  13.530
 4092W        W63837  18.092  27.079  11.054
 4093W        W63838  40.481  29.537   2.877
 4094W        W63839  40.952  30.999  11.913
 4095W        W63840  33.076  37.836  14.869
 4096W        W63841  39.994  34.970   4.602
 4097W        W63842   1.958   6.223   2.850
 4098W        W63843  38.913  27.549  11.606
 4099W        W63844  17.285  29.006  11.882
 4100W        W63845  12.125  11.161  11.512
 4101W        W63846   7.406  16.796  11.034
 4102W        W63847   6.725  17.243  14.371
 4103W        W63848  36.057   8.170  11.084
 4104W        W63849  30.969  12.725  10.633
 4105W        W63850  14.298  37.399   2.185
 4106W        W63851  30.541  33.081   1.763
 4107W        W63852  29.015   9.202  11.057
 4108W        W63853   0.973  24.213   1.214
 4109W        W63854  21.553  26.046  14.486
 4110W        W63855   8.173  34.015   4.837
 4111W        W63856   0.264  17.605  10.531
 4112W        W63857  43.484  27.191   0.813
 4113W        W63858   1.278   6.380   1.346
 4114W        W63859  35.065  25.595   1.271
 4115W        W63860  31.900  41.514   4.315
 4116W        W63861  34.513  33.967   3.651
 4117W        W63862  22.628  16.179   2.825
 4118W        W63863  39.986  41.797  13.798
 4119W        W63864  35.444   2.855  14.999
 4120W        W63865  15.268  18.789   2.322
 4121W        W63866   2.267   8.681  10.411
 4122W        W63867   9.647  31.512   0.894
 4123W        W63868  17.750   0.884  12.924
 4124W        W63869  20.094   2.358  14.902
 4125W        W63870  12.291  13.626  14.827
 4126W        W63871  32.585  22.145   3.168
 4127W        W63872  12.794  43.021  11.001
 4128W        W63873  11.237   9.250   1.856
 4129W        W63874  30.054  34.877   3.679
 4130W        W63875  37.964  18.213   3.283
 4131W        W63876  37.549  37.501   2.662
 4132W        W63877  15.124  44.435   1.239
 4133W        W63878  41.874   4.821  10.022
 4134W        W63879  14.132  44.376   3.368
 4135W        W63880  36.370  25.152  12.029
 4136W        W63881  31.044  36.480  12.561
 4137W        W63882  24.028  14.250  13.435
 4138W        W63883   5.216  28.140  11.018
 4139W        W63884  17.088  19.100   4.769
 4140W        W63885  24.015   9.717  14.465
 4141W        W63886   7.729  28.041  14.000
 4142W        W63887  26.056  14.328   2.300
 4143W        W63888  40.865  26.041   3.362
 4144W        W63889   7.683  29.583   4.826
 4145W        W63890  16.707  44.457   2.404
 4146W        W63891  35.986  15.691  12.480
 4147W        W63892  37.020   9.293  10.512
 4148W        W63893  36.478  35.883   2.203
 4149W        W63894  41.474  40.952  12.407
 4150W        W63895  26.056  10.737  10.589
 4151W        W63896  25.007   2.449   2.198
 4152W        W63897  18.260   5.194   1.867
 4153W        W63898  26.577  41.798  13.800
 4154W        W63899  42.391  29.424   0.744
 4155W        W63900  12.658  21.664   4.609
 4156W        W63901  17.061   0.445  14.762
 4157W        W63902  42.785   0.885  11.398
 4158W        W63903  28.629  28.625   5.233
 4159W        W63904  25.965   8.732   3.745
 4160W        W63905  18.588  27.992   1.395
 4161W        W63906  30.634  41.848  12.453
 4162W        W63907   3.403  35.912  11.057
 4163W        W63908  10.167  22.151   3.824
 4164W        W63909  33.412  29.552  13.016
 4165W        W63910  24.629   8.729  13.432
 4166W        W63911   1.328  32.551   1.239
 4167W        W63912  13.678   9.159  13.997
 4168W        W63913  18.055   1.344  12.554
 4169W        W63914  23.680  32.463  12.344
 4170W        W63915  17.565   6.383  13.021
 4171W        W63916  40.503   2.817  11.016
 4172W        W63917   0.355   1.902   1.429
 4173W        W63918   5.307   4.726   4.731
 4174W        W63919  26.610  24.678   1.869
 4175W        W63920  37.030  29.126  14.491
 4176W        W63921  34.891  44.794   3.321
 4177W        W63922  22.537   6.305   0.267
 4178W        W63923  29.669  34.115  13.321
 4179W        W63924  39.895  37.851   0.933
 4180W        W63925  40.531  18.176  11.392
 4181W        W63926  30.591  29.533  12.075
 4182W        W63927   7.836  40.025   2.748
 4183W        W63928  30.969  31.631   2.709
 4184W        W63929   0.374   9.809  14.490
 4185W        W63930  42.973  28.597  14.941
 4186W        W63931   2.809  34.582   4.148
 4187W        W63932  23.139  40.829   1.813
 4188W        W63933  14.608  35.977   2.901
 4189W        W63934  31.109   2.357  13.939
 4190W        W63935   4.406  20.709   2.664
 4191W        W63936   1.968  41.806  11.103
 4192W        W63937  28.111  30.420   0.333
 4193W        W63938  18.666   0.824   4.730
 4194W        W63939  41.519  25.627  12.420
 4195W        W63940  41.390  28.020   1.411
 4196W        W63941  20.042  27.096  13.403
 4197W        W63942   5.418  17.265   9.985
 4198W        W63943  31.139  13.643   4.224
 4199W        W63944  28.638  23.724  14.001
 4200W        W63945   1.932  40.997   0.376
 4201W        W63946  23.999  32.984   4.181
 4202W        W63947  17.619  20.561   4.265
 4203W        W63948   2.751  10.782  10.963
 4204W        W63949  22.715  21.564   4.194
 4205W        W63950  44.984  17.611   4.323
 4206W        W63951  30.032  30.945   0.889
 4207W        W63952  35.372  16.183  14.002
 4208W        W63953  12.729  17.122   5.108
 4209W        W63954  19.754  20.268  10.580
 4210W        W63955  29.618  20.553   2.812
 4211W        W63956  33.084  20.609  12.899
 4212W        W63957  42.861  32.889  14.843
 4213W        W63958  22.659   4.719   4.254
 4214W        W63959  44.317   4.778   1.345
 4215W        W63960  21.116  33.881   1.317
 4216W        W63961   8.795  38.536   4.798
 4217W        W63962  43.323  40.489   1.247
 4218W        W63963  26.679  35.032  13.361
 4219W        W63964  27.583  38.543   4.604
 4220W        W63965  42.450  33.435   2.334
 4221W        W63966  36.436  21.129   9.979
 4222W        W63967   2.339   6.678   3.277
 4223W        W63968  35.967   6.315   4.749
 4224W        W63969  32.050  20.693  11.032
 4225W        W63970  17.219  19.640   0.310
 4226W        W63971  34.457  12.261  13.378
 4227W        W63972   0.981  24.674   2.713
 4228W        W63973  25.010  21.723   4.676
 4229W        W63974  14.784  39.474  10.971
 4230W        W63975  17.751  28.673  11.923
 4231W        W63976  14.805  43.768   0.847
 4232W        W63977  10.691   0.941   1.246
 4233W        W63978   7.193  27.011   0.257
 4234W        W63979   6.407  35.446   3.765
 4235W        W63980  25.100  43.327   1.909
 4236W        W63981  32.443  37.991  14.400
 4237W        W63982  29.962  32.536  13.967
 4238W        W63983  44.948   5.287  13.326
 4239W        W63984  34.963   5.724   0.950
 4240W        W63985  38.472   3.781   2.257
 4241W        W63986   7.853  12.807   4.696
 4242W        W63987   1.800  31.545   2.839
 4243W        W63988  30.068  22.734  12.546
 4244W        W63989  12.293  32.426   4.162
 4245W        W63990  19.169  13.704   4.653
 4246W        W63991  22.030   4.802   3.803
 4247W        W63992  30.111  16.204  14.356
 4248W        W63993  34.096  36.527   1.925
 4249W        W63994  12.308  10.775  14.323
 4250W        W63995  37.354  23.707   3.637
 4251W        W63996  32.950  20.260   3.650
 4252W        W63997  11.787   8.864   1.779
 4253W        W63998   7.344  34.108  10.482
 4254W        W63999  33.612  24.226  14.286
 4255W        W64000   8.852   1.807  14.371
 4256W        W64001  22.589  38.053   0.897
 4257W        W64002  24.616   0.789   0.918
 4258W        W64003  10.793  11.661  11.082
 4259W        W64004  42.394  39.834   0.451
 4260W        W64005  35.432  21.725   3.385
 4261W        W64006  10.158  16.260   0.929
 4262W        W64007  25.038  31.955  10.987
 4263W        W64008  40.492   4.868   2.321
 4264W        W64009  27.162  15.669  12.836
 4265W        W64010   4.868   5.927  12.926
 4266W        W64011  38.563   3.910  10.629
 4267W        W64012   7.827   7.878   1.784
 4268W        W64013  43.964  37.415   1.389
 4269W        W64014  29.116  35.050   1.324
 4270W        W64015  41.873  41.792  12.046
 4271W        W64016   4.418  30.540  10.488
 4272W        W64017  19.756  11.359  12.043
 4273W        W64018  33.507  25.038  10.496
 4274W        W64019  10.206  38.971  11.467
 4275W        W64020  37.850  24.566   3.843
 4276W        W64021  18.736  18.177  11.001
 4277W        W64022  40.377   0.481  14.420
 4278W        W64023  24.629  42.342   4.239
 4279W        W64024  43.775  15.659  10.927
 4280W        W64025   0.744   2.422  13.959
 4281W        W64026   9.721  29.027  12.563
 4282W        W64027  23.213  38.406  12.353
 4283W        W64028  16.168  38.397  12.040
 4284W        W64029  34.991  33.434  11.050
 4285W        W64030  43.815  33.529  11.979
 4286W        W64031   0.372   2.265  10.637
 4287W        W64032  15.157  42.515   0.833
 4288W        W64033  41.032  28.136  10.482
 4289W        W64034  34.888  43.363   4.123
 4290W        W64035  34.005  36.947  10.920
 4291W        W64036  40.994  35.418   4.210
 4292W        W64037   4.312  26.603  11.445
 4293W        W64038  19.082  15.631  11.040
 4294W        W64039  24.109   3.402  11.420
 4295W        W64040  23.686  35.602   0.276
 4296W        W64041  28.588  12.794  12.966
 4297W        W64042  15.612   4.375   3.854
 4298W        W64043   8.192  16.633   3.800
 4299W        W64044  38.540  31.047   2.214
 4300W        W64045  17.151  13.785   2.790
 4301W        W64046   2.948  26.575   0.283
 4302W        W64047  21.170  16.300   3.764
 4303W        W64048  26.598  31.040   5.630
 4304W        W64049  17.228  18.079   3.146
 4305W        W64050  39.466   8.381   0.962
 4306W        W64051  18.636  25.099  13.323
 4307W        W64052  13.709  10.227  10.973
 4308W        W64053  44.986  14.218   3.375
 4309W        W64054   1.805  18.254  10.506
 4310W        W64055  35.576  10.811   1.868
 4311W        W64056  30.959  13.775  13.347
 4312W        W64057  34.992  11.651   4.824
 4313W        W64058  38.437  41.807   0.817
 4314W        W64059  24.173  22.718  13.837
 4315W        W64060  14.772   0.456   3.387
 4316W        W64061   2.730  37.344   1.698
 4317W        W64062  32.600  23.675   2.891
 4318W        W64063  39.528   4.306  12.935
 4319W        W64064  29.465  13.600   3.827
 4320W        W64065  34.031  24.061  14.470
 4321W        W64066  19.242  37.509  11.073
 4322W        W64067  36.581   4.364   1.425
 4323W        W64068  24.700   6.219   4.728
 4324W        W64069  33.501  22.167   4.720
 4325W        W64070  22.575  44.497  14.784
 4326W        W64071  22.042  11.243  14.382
 4327W        W64072  20.090  33.909   3.183
 4328W        W64073  42.429  43.493  11.399
 4329W        W64074  24.987  25.603   4.322
 4330W        W64075  19.173  20.203  11.122
 4331W        W64076  37.409  44.980  13.307
 4332W        W64077  26.619  39.023   1.889
 4333W        W64078   7.708   5.393   4.250
 4334W        W64079  11.682  44.442   4.334
 4335W        W64080  36.411   4.343  14.312
 4336W        W64081  19.108  24.501  11.453
 4337W        W64082  25.971  40.447   0.797
 4338W        W64083  18.190  43.015  10.544
 4339W        W64084  13.765  11.641  12.992
 4340W        W64085  15.582   1.361   3.355
 4341W        W64086  36.575  16.672   3.781
 4342W        W64087  21.556  15.197  12.346
 4343W        W64088   5.733   4.378  12.028
 4344W        W64089  29.087  30.070  13.047
 4345W        W64090  12.263  25.499   2.312
 4346W        W64091  21.721  15.634   1.317
 4347W        W64092  26.628  37.875   2.317
 4348W        W64093  44.334  35.585  13.900
 4349W        W64094  21.680   0.419  12.434
 4350W        W64095  11.850  12.838   4.179
 4351W        W64096   4.413  18.075   1.706
 4352W        W64097   0.366  11.641   0.753
 4353W        W64098   1.482  42.475  11.554
 4354W        W64099  29.503  40.533  14.275
 4355W        W64100  35.416  27.661   0.779
 4356W        W64101  30.119  35.098   1.425
 4357W        W64102  24.018   7.815  13.427
 4358W        W64103  44.340   1.437   0.919
 4359W        W64104  31.543  28.158  10.455
 4360W        W64105   8.328  13.828  14.503
 4361W        W64106  31.530  36.440   3.272
 4362W        W64107  24.572  38.332   1.881
 4363W        W64108   1.821   0.791   2.821
 4364W        W64109  23.003  28.989  11.542
 4365W        W64110  26.524  19.163  12.367
 4366W        W64111   8.798   7.744  11.543
 4367W        W64112  41.462  20.536  14.792
 4368W        W64113   0.431  21.208  14.491
 4369W        W64114  21.248  36.059  10.462
 4370W        W64115  38.543  21.152   4.604
 4371W        W64116  34.504  14.208   4.186
 4372W        W64117   8.672   2.459  12.828
 4373W        W64118  14.637  36.462  10.537
 4374W        W64119  44.871  13.248  11.553
 4375W        W64120  40.351  30.438  11.392
 4376W        W64121   1.370  39.506   2.368
 4377W        W64122  11.325  16.776   1.762
 4378W        W64123  20.043  17.253   0.383
 4379W        W64124  23.117  44.997  11.416
 4380W        W64125  40.878  21.600  10.983
 4381W        W64126  19.277  42.788   2.745
 4382W        W64127  16.150  40.313   1.279
 4383W        W64128  26.670  38.335  12.874
 4384W        W64129  22.057  11.370   3.750
 4385W        W64130  13.123  15.122   0.745
 4386W        W64131  23.707  42.425   4.197
 4387W        W64132   1.322  24.702  12.371
 4388W        W64133  44.295  38.471   4.347
 4389W        W64134  33.081   8.846   5.302
 4390W        W64135   6.278  17.802   0.922
 4391W        W64136  32.545  18.743  11.045
 4392W        W64137  11.284  19.767   3.306
 4393W        W64138   5.289  12.705  10.961
 4394W        W64139  40.548  17.662  13.893
 4395W        W64140  19.142   8.698   4.803
 4396W        W64141  24.056  13.234  14.438
 4397W        W64142  14.254   3.741   0.846
 4398W        W64143   8.824  25.707   4.768
 4399W        W64144  13.235   6.300   9.963
 4400W        W64145   6.822   2.457   1.772
 4401W        W64146   3.359   5.334   3.214
 4402W        W64147  12.658  29.669  13.839
 4403W        W64148   8.310  14.776   2.721
 4404W        W64149  16.213  27.064  14.962
 4405W        W64150   6.283   9.700   2.795
 4406W        W64151   3.268   5.906   4.779
 4407W        W64152  32.622   7.719  10.436
 4408W        W64153  26.615  21.223   1.894
 4409W        W64154  36.561   2.332   4.178
 4410W        W64155  30.944   4.711  13.331
 4411W        W64156   5.227   2.255  11.051
 4412W        W64157   7.738  12.671  13.441
 4413W        W64158  21.689  25.113  11.586
 4414W        W64159  31.927  21.572  12.093
 4415W        W64160  17.745  43.896   3.190
 4416W        W64161  12.799  42.401   0.421
 4417W        W64162  35.993  43.368  12.986
 4418W        W64163  13.720   0.970   2.831
 4419W        W64164   9.741  40.323   1.745
 4420W        W64165  30.043  29.647   3.229
 4421W        W64166  30.435  10.267   2.817
 4422W        W64167  24.551  28.507  10.042
 4423W        W64168   8.288  16.187  14.854
 4424W        W64169  41.404  36.989  14.992
 4425W        W64170   7.820  42.860   0.803
 4426W        W64171  34.874  31.028   3.782
 4427W        W64172  38.922   6.423  11.981
 4428W        W64173  17.093  37.432  13.048
 4429W        W64174  16.312  23.987   4.762
 4430W        W64175  43.270  26.022   3.350
 4431W        W64176  43.946  21.738   1.802
 4432W        W64177  43.833   9.330   1.390
 4433W        W64178   0.758   4.827  12.358
 4434W        W64179   5.932  25.123   2.236
 4435W        W64180   0.281  41.301   4.826
 4436W        W64181  20.081  42.801  10.583
 4437W        W64182   3.835  14.767   0.465
 4438W        W64183  34.014  29.974   0.290
 4439W        W64184  31.920   2.315  14.498
 4440W        W64185  16.719  23.205  13.373
 4441W        W64186   9.817  37.084  13.904
 4442W        W64187  43.896  43.988   4.813
 4443W        W64188  27.663  26.521   1.827
 4444W        W64189  34.101   0.395   2.278
 4445W        W64190  43.427  12.699  11.020
 4446W        W64191  38.983   7.196  12.378
 4447W        W64192   4.316  22.122   3.823
 4448W        W64193  18.149  21.060   2.836
 4449W        W64194  30.925   3.373   5.175
 4450W        W64195   6.325  44.008   1.366
 4451W        W64196  15.824  19.705  11.567
 4452W        W64197  38.979   5.747  14.954
 4453W        W64198  30.963  37.461  10.497
 4454W        W64199  19.628  34.474   3.382
 4455W        W64200  29.004  12.242   3.668
 4456W        W64201   3.954  28.648  14.849
 4457W        W64202  13.618  44.861   0.347
 4458W        W64203   7.697   7.316  14.294
 4459W        W64204  27.101   7.331  14.515
 4460W        W64205  10.229  38.539  10.505
 4461W        W64206  34.552  38.472   1.387
 4462W        W64207  31.606  44.784   3.678
 4463W        W64208  18.077  43.310  13.033
 4464W        W64209  29.015  14.790   4.332
 4465W        W64210  39.010   9.848   2.389
 4466W        W64211  33.063  37.566  10.954
 4467W        W64212  19.211  21.748   2.707
 4468W        W64213  11.334  10.309   4.730
 4469W        W64214   9.876  21.094  11.468
 4470W        W64215  12.214   4.721  11.547
 4471W        W64216  10.672  22.157   3.688
 4472W        W64217   0.784  24.028  12.035
 4473W        W64218  14.665  43.274  13.445
 4474W        W64219   6.324   0.430  13.958
 4475W        W64220  25.509  16.630  11.431
 4476W        W64221   6.801  36.353   2.328
 4477W        W64222   5.391   1.760   5.239
 4478W        W64223  36.481  43.989  13.434
 4479W        W64224  17.245  14.643  12.392
 4480W        W64225  20.261  38.413  11.048
 4481W        W64226  19.714   2.911   1.251
 4482W        W64227   4.277  24.513  10.594
 4483W        W64228  15.765  43.853  11.119
 4484W        W64229  33.405  44.499   0.291
 4485W        W64230  33.438  41.411  14.424
 4486W        W64231   9.652  31.103   4.731
 4487W        W64232  13.844  13.332  10.447
 4488W        W64233  38.384  31.037   1.212
 4489W        W64234  30.108   6.737  13.430
 4490W        W64235   1.407  24.663  11.986
 4491W        W64236  17.067  24.658  12.462
 4492W        W64237   6.304   4.806  10.961
 4493W        W64238  25.212   1.753  11.515
 4494W        W64239  15.085  36.960   2.365
 4495W        W64240  29.597  31.899  13.405
 4496W        W64241  44.379  21.240   2.737
 4497W        W64242   8.167  17.237   4.635
 4498W        W64243  42.003   9.831  10.974
 4499W        W64244   2.871  42.388   4.620
 4500W        W64245  18.565  11.160  10.630
 4501W        W64246  30.142  27.151  14.408
 4502W        W64247  18.191  43.877  12.014
 4503W        W64248   4.376  12.794   2.359
 4504W        W64249  22.745  35.107  10.004
 4505W        W64250  17.160  33.453   2.248
 4506W        W64251  16.619  21.703   4.773
 4507W        W64252  34.876  34.479   4.326
 4508W        W64253  22.538  38.358  11.004
 4509W        W64254  28.110  36.372  14.776
 4510W        W64255  28.929   3.456   1.430
 4511W        W64256  24.532  23.635   1.324
 4512W        W64257  18.116  20.631  12.037
 4513W        W64258  38.012   9.225   3.783
 4514W        W64259  42.291  32.623   1.229
 4515W        W64260   2.911  29.471  12.910
 4516W        W64261  32.581  15.588  13.945
 4517W        W64262  22.600  14.822  12.519
 4518W        W64263  41.015  17.592   1.225
 4519W        W64264  40.313   9.864  14.852
 4520W        W64265  12.831  17.306  10.579
 4521W        W64266   3.931  39.842  10.442
 4522W        W64267  15.177  15.690   3.708
 4523W        W64268   1.767  33.386   2.717
 4524W        W64269  14.667   4.904  10.542
 4525W        W64270  13.744  32.988  11.986
 4526W        W64271   4.286  25.520  10.932
 4527W        W64272  33.507  14.184  14.876
 4528W        W64273   3.925  21.625   0.802
 4529W        W64274  10.875  19.070   3.850
 4530W        W64275  22.687   4.210  11.955
 4531W        W64276  17.256  29.542  11.574
 4532W        W64277   4.308  42.372   4.654
 4533W        W64278   5.923  32.574   2.404
 4534W        W64279  34.871   0.344  13.956
 4535W        W64280  42.324   7.783   4.197
 4536W        W64281  19.264   2.929   4.608
 4537W        W64282  35.458  27.974   2.196
 4538W        W64283  20.253   9.185   1.396
 4539W        W64284   9.260   1.409  12.067
 4540W        W64285  29.096  25.635  12.416
 4541W        W64286  11.651  44.788   1.436
 4542W        W64287  16.307  28.548   0.839
 4543W        W64288  12.163  24.229  14.990
 4544W        W64289   2.397  10.809  14.865
 4545W        W64290  30.430  40.473   5.293
 4546W        W64291   0.426  15.650   0.764
 4547W        W64292  35.429  39.984  13.964
 4548W        W64293  16.574  23.494   0.950
 4549W        W64294  40.990  23.067   1.857
 4550W        W64295  16.231   2.415  14.483
 4551W        W64296   5.367  27.076  13.336
 4552W        W64297  23.000   4.352   0.314
 4553W        W64298  28.641  14.774  13.006
 4554W        W64299  44.397  11.654  13.808
 4555W        W64300  23.733  10.756   3.349
 4556W        W64301  41.459  29.533   0.774
 4557W        W64302  22.632   7.771  10.468
 4558W        W64303  16.617  37.343   1.880
 4559W        W64304  29.449  24.192  14.955
 4560W        W64305  31.102  11.792   3.258
 4561W        W64306   0.395  31.049   4.651
 4562W        W64307  31.945  12.616  11.112
 4563W        W64308  17.567  37.996  11.884
 4564W        W64309   0.439  21.050   1.397
 4565W        W64310  32.041  28.983   0.365
 4566W        W64311  28.663  40.323   2.863
 4567W        W64312   8.815  17.610  12.346
 4568W        W64313  43.966  14.166  11.939
 4569W        W64314  11.731  35.559   3.856
 4570W        W64315  36.421   7.744  14.840
 4571W        W64316  34.449  17.188  14.413
 4572W        W64317  20.561  42.894  13.881
 4573W        W64318  38.424   3.779  14.909
 4574W        W64319  14.813  33.939   0.792
 4575W        W64320  42.520  40.429   4.684
 4576W        W64321  18.558  16.225  14.372
 4577W        W64322  32.403  23.104  12.450
 4578W        W64323  15.084  21.610  11.533
 4579W        W64324  40.357  39.820  10.424
 4580W        W64325  25.081  22.707   1.426
 4581W        W64326  23.113  29.055   1.804
 4582W        W64327  42.503  20.255  11.488
 4583W        W64328  41.998  25.520  14.515
 4584W        W64329  42.015   3.813   4.627
 4585W        W64330  30.989  27.037   1.345
 4586W        W64331  36.457  26.061   0.914
 4587W        W64332  13.774  18.647  14.971
 4588W        W64333  43.425  42.895  13.023
 4589W        W64334  38.888  36.393   4.720
 4590W        W64335  20.727  19.201   2.776
 4591W        W64336  24.126  14.258   3.214
 4592W        W64337  32.459  30.554  10.564
 4593W        W64338  35.949  25.690   1.424
 4594W        W64339   9.840  34.022  13.893
 4595W        W64340  17.746  16.626  12.008
 4596W        W64341  32.087  23.527   0.398
 4597W        W64342  22.240  22.053   4.808
 4598W        W64343  43.363  42.031   0.306
 4599W        W64344   6.853  35.870  12.356
 4600W        W64345  17.685  28.510  12.532
 4601W        W64346  44.475   2.733  11.902
 4602W        W64347   8.376  31.039  12.021
 4603W        W64348  14.708   3.922   1.377
 4604W        W64349  21.688  24.007   1.882
 4605W        W64350  21.573   7.352  12.433
 4606W        W64351  15.121  13.178  14.852
 4607W        W64352  27.572  28.533  11.556
 4608W        W64353   9.377  21.689  14.871
 4609W        W64354  38.517  24.989  11.609
 4610W        W64355  17.123  13.637   3.751
 4611W        W64356  27.529  26.118  12.012
 4612W        W64357  23.053  16.162  11.443
 4613W        W64358   4.324  40.020   2.189
 4614W        W64359  31.082  41.404   2.770
 4615W        W64360  38.476  22.690  13.361
 4616W        W64361  23.210  43.973   2.889
 4617W        W64362  17.215  25.608   4.681
 4618W        W64363  36.572  23.191   0.728
 4619W        W64364  30.038   5.227   2.667
 4620W        W64365   7.268  16.764  10.409
 4621W        W64366  16.643  36.567  14.302
 4622W        W64367  38.437  23.722   3.800
 4623W        W64368  10.162  12.825  14.918
 4624W        W64369  28.458  20.721  13.376
 4625W        W64370  20.054  10.214   5.319
 4626W        W64371  37.369   4.776  14.315
 4627W        W64372  39.814  42.796   3.634
 4628W        W64373  44.811  33.968   2.776
 4629W        W64374   0.944  21.133  14.359
 4630W        W64375  42.932  23.030  12.840
 4631W        W64376  15.796  21.669  11.933
 4632W        W64377   3.375   9.662  14.820
 4633W        W64378  33.588  28.440  10.951
 4634W        W64379  39.484   6.353  11.570
 4635W        W64380   1.948  22.180  10.976
 4636W        W64381  42.975  18.222   2.260
 4637W        W64382  36.483  21.717   0.265
 4638W        W64383  11.834   7.814   2.381
 4639W        W64384  38.923  16.197   1.267
 4640W        W64385  31.564  34.032   2.198
 4641W        W64386  33.898  43.343  11.519
 4642W        W64387  25.662   4.698  11.466
 4643W        W64388   0.894   3.224  11.855
 4644W        W64389  35.974   9.859  12.573
 4645W        W64390   5.749  30.546  10.899
 4646W        W64391  21.135   3.801  12.871
 4647W        W64392  41.384  33.608  11.925
 4648W        W64393  33.019  25.151   0.268
 4649W        W64394  24.489  15.153   9.965
 4650W        W64395  43.794  32.118   4.332
 4651W        W64396  33.961  22.505  14.988
 4652W        W64397  12.683  31.914  14.461
 4653W        W64398  33.935  15.083   2.196
 4654W        W64399  17.731  35.484   2.238
 4655W        W64400  26.538  33.551   2.414
 4656W        W64401  42.948   3.943   0.728
 4657W        W64402  38.952  25.217   2.763
 4658W        W64403  32.129  13.126   2.404
 4659W        W64404  23.553  39.447  10.645
 4660W        W64405  21.074  15.325   2.812
 4661W        W64406  17.771   2.959  10.623
 4662W        W64407  19.611  31.407  13.541
 4663W        W64408  32.036  40.922  11.001
 4664W        W64409  14.679  28.482  14.843
 4665W        W64410  20.719  21.619   4.259
 4666W        W64411   0.885  27.117  12.867
 4667W        W64412  20.659  26.960   1.352
 4668W        W64413  38.527  32.902   0.304
 4669W        W64414   1.343  16.256   4.348
 4670W        W64415  22.522  41.800   3.341
 4671W        W64416  29.926  15.734  10.449
 4672W        W64417  44.391  18.073   0.797
 4673W        W64418  20.669  33.912  12.369
 4674W        W64419  16.268  23.696   2.855
 4675W        W64420  25.578  30.522  14.891
 4676W        W64421  25.169   4.742  10.154
 4677W        W64422  13.783  12.814  10.448
 4678W        W64423   3.288   5.869  14.900
 4679W        W64424  38.334  20.546  12.500
 4680W        W64425   1.781  20.578  10.062
 4681W        W64426   8.361  23.006  10.635
 4682W        W64427  40.421  32.605   1.745
 4683W        W64428  21.558   5.800  14.312
 4684W        W64429   4.890  32.112   9.974
 4685W        W64430  21.749  26.023   1.926
 4686W        W64431   6.285  21.147  10.552
 4687W        W64432   4.205  39.314   1.697
 4688W        W64433  19.566   6.194   4.644
 4689W        W64434  32.947   7.212   1.714
 4690W        W64435  17.566  33.950  13.371
 4691W        W64436  30.043  14.807  11.088
 4692W        W64437  13.300  27.450  13.537
 4693W        W64438   8.661   4.344   2.271
 4694W        W64439  44.893  34.394   3.858
 4695W        W64440  41.891  29.523  11.460
 4696W        W64441  26.126  10.313  12.448
 4697W        W64442  39.436  18.691  13.324
 4698W        W64443  27.492  40.528   1.927
 4699W        W64444  30.577  25.172  11.422
 4700W        W64445   2.790  41.395  13.034
 4701W        W64446  43.834  19.648   0.820
 4702W        W64447  13.348  44.304   4.228
 4703W        W64448  32.103  21.200  13.401
 4704W        W64449  44.270  20.238  10.419
 4705W        W64450   7.295  17.097   1.448
 4706W        W64451  38.461  25.211  12.478
 4707W        W64452   4.347  17.677   2.219
 4708W        W64453   4.433  10.705  13.396
 4709W        W64454   3.883  37.338   4.773
 4710W        W64455  30.159  23.595  12.942
 4711W        W64456  30.574  15.178   1.716
 4712W        W64457  26.555   6.907   4.351
 4713W        W64458  25.155  24.678  14.834
 4714W        W64459  15.662  10.804  10.623
 4715W        W64460   0.814  20.146  14.811
 4716W        W64461  24.999  22.553   4.807
 4717W        W64462  41.474  18.745  12.038
 4718W        W64463  36.533  27.096  14.963
 4719W        W64464  30.019  21.619  12.861
 4720W        W64465   9.851  19.608   3.716
 4721W        W64466  16.617  39.451  12.927
 4722W        W64467   5.302  36.036   0.870
 4723W        W64468   5.256  42.489   4.219
 4724W        W64469  41.935  29.666   0.756
 4725W        W64470  24.658   3.725   3.340
 4726W        W64471  34.012  23.506   3.850
 4727W        W64472  31.090  17.686  13.801
 4728W        W64473  33.036  15.592   4.692
 4729W        W64474   7.795   8.844   1.801
 4730W        W64475   9.199   3.930  13.388
 4731W        W64476  30.993  14.323  14.481
 4732W        W64477  15.221   6.427   2.705
 4733W        W64478  34.048  33.478   1.237
 4734W        W64479  38.448   7.408   2.314
 4735W        W64480  28.589  16.781   2.800
 4736W        W64481  44.906  11.224   2.343
 4737W        W64482  23.667  16.689  13.949
 4738W        W64483   9.183  10.786  11.923
 4739W        W64484   5.402  40.308   1.382
 4740W        W64485   0.751  27.540   2.359
 4741W        W64486  36.582  40.519   3.279
 4742W        W64487   0.847  41.371  14.421
 4743W        W64488  43.000  10.291   4.304
 4744W        W64489  40.478   5.374   4.628
 4745W        W64490  33.564  16.112  13.027
 4746W        W64491  13.324  33.538  13.416
 4747W        W64492  22.010  32.109  13.047
 4748W        W64493  40.342  10.765  12.065
 4749W        W64494  42.352  13.793   2.663
 4750W        W64495  18.678   7.778  12.983
 4751W        W64496  17.635  15.202   0.819
 4752W        W64497  39.029  34.615   2.672
 4753W        W64498  22.577   9.188   4.235
 4754W        W64499   4.757  22.182   3.159
 4755W        W64500  31.640  23.998  12.476
 4756W        W64501   0.846  25.712   3.708
 4757W        W64502   0.884  12.646   5.171
 4758W        W64503  38.969  25.679  13.896
 4759W        W64504  24.993   8.379   4.219
 4760W        W64505   8.176  24.207  13.533
 4761W        W64506   9.156  21.570  10.624
 4762W        W64507  24.590  23.137  11.090
 4763W        W64508  37.576  16.629   0.887
 4764W        W64509  21.687  20.695   3.306
 4765W        W64510  26.085  11.190  12.351
 4766W        W64511  10.638   9.370   2.204
 4767W        W64512  21.045  36.069   4.707
 4768W        W64513   8.239  43.269  13.456
 4769W        W64514  21.630  43.445  11.908
 4770W        W64515  28.124  32.520  14.305
 4771W        W64516  16.792   2.243  12.497
 4772W        W64517  44.941   1.239   1.292
 4773W        W64518  14.688  10.750  12.579
 4774W        W64519   4.331  11.164  13.792
 4775W        W64520   5.205  34.119  11.465
 4776W        W64521   3.804  11.208   1.277
 4777W        W64522  32.600  14.827   2.349
 4778W        W64523  38.856  43.927   0.341
 4779W        W64524  31.035  10.652  10.482
 4780W        W64525  29.447  22.084  12.991
 4781W        W64526  34.085  14.663  13.064
 4782W        W64527  21.106  17.568  12.434
 4783W        W64528   1.815  30.096   1.854
 4784W        W64529  33.515  18.089   2.786
 4785W        W64530  18.099  21.257  10.489
 4786W        W64531  28.029  23.001   1.301
 4787W        W64532  25.613  11.740   1.855
 4788W        W64533  10.745  27.119   2.400
 4789W        W64534  29.605  24.996  14.336
 4790W        W64535  31.429  33.110  14.907
 4791W        W64536  21.220  42.413   1.711
 4792W        W64537  40.444  26.671  14.853
 4793W        W64538  24.977  43.283   4.677
 4794W        W64539  44.894  28.458   2.682
 4795W        W64540   4.756  17.790   4.794
 4796W        W64541   1.816  39.818  10.519
 4797W        W64542   3.935   0.982  10.501
 4798W        W64543  37.360  23.006  10.588
 4799W        W64544  12.790   0.288   0.473
 4800W        W64545  20.675  15.759   2.397
 4801W        W64546  27.125  36.446  14.337
 4802W        W64547   4.259  40.950  14.774
 4803W        W64548  25.691   8.266   3.327
 4804W        W64549  37.559  34.560   4.262
 4805W        W64550  30.581  17.734  10.588
 4806W        W64551  32.528  23.004   4.233
 4807W        W64552  34.061  20.251   2.412
 4808W        W64553  30.010  24.705   1.812
 4809W        W64554  31.570   5.205  11.008
 4810W        W64555  16.788  15.587  13.924
 4811W        W64556  40.004  14.773  14.767
 4812W        W64557  21.044  19.143   5.081
 4813W        W64558  39.039  10.202   1.890
 4814W        W64559   3.252   9.735  14.482
 4815W        W64560   1.795  40.540  14.907
 4816W        W64561   3.420  10.844  14.430
 4817W        W64562  23.059  10.229   5.246
 4818W        W64563  44.438   8.845  13.804
 4819W        W64564  32.084  10.157  11.972
 4820W        W64565  39.031  29.923  14.834
 4821W        W64566   6.355  36.543  14.386
 4822W        W64567  39.007  39.953   5.113
 4823W        W64568  15.140  21.211  13.874
 4824W        W64569  42.297  37.490  11.958
 4825W        W64570  33.900   0.486  11.983
 4826W        W64571  25.175   0.974  11.471
 4827W        W64572   3.412  18.053  12.508
 4828W        W64573  19.744  43.373   4.245
 4829W        W64574  28.960  41.857  11.382
 4830W        W64575  18.566  35.028  12.018
 4831W        W64576  36.965  24.546  13.391
 4832W        W64577   6.687  23.594   1.402
 4833W        W64578  27.462  14.780  10.415
 4834W        W64579  31.456  18.218  11.032
 4835W        W64580  11.201  30.974  13.821
 4836W        W64581  38.406  40.055  13.958
 4837W        W64582   3.846  44.499  13.962
 4838W        W64583  21.581  28.498  13.422
 4839W        W64584  34.977   9.679  10.467
 4840W        W64585  24.025  32.572  12.881
 4841W        W64586  10.792   6.837  14.332
 4842W        W64587  15.243  24.512  12.855
 4843W        W64588  37.524  15.152  10.642
 4844W        W64589  18.094  28.453   0.361
 4845W        W64590  12.642  37.042   4.598
 4846W        W64591  23.565  38.540  13.807
 4847W        W64592  11.367   1.292   2.273
 4848W        W64593   2.926  36.562   0.797
 4849W        W64594  28.598  24.675  14.978
 4850W        W64595  38.967  23.567   4.707
 4851W        W64596  11.332  43.272  11.440
 4852W        W64597  16.294  44.265   0.728
 4853W        W64598  41.428  31.516   4.252
 4854W        W64599  33.948  38.065   4.607
 4855W        W64600  27.090  20.539   2.275
 4856W        W64601  19.754  15.306   3.744
 4857W        W64602  14.830   2.297   2.412
 4858W        W64603   7.172  10.835  14.905
 4859W        W64604  30.974  41.486   5.159
 4860W        W64605  34.899  12.764  13.889
 4861W        W64606   4.702  39.027   3.759
 4862W        W64607  31.993  41.999   5.196
 4863W        W64608  34.902   7.881   3.266
 4864W        W64609  17.177  23.103  11.939
 4865W        W64610   1.901  40.370   4.603
 4866W        W64611  19.192  42.032  14.351
 4867W        W64612  31.998  27.598  11.569
 4868W        W64613   3.329   2.859   1.859
 4869W        W64614  36.965  26.601  11.858
 4870W        W64615  20.710  31.902  12.879
 4871W        W64616  15.120  40.859   4.660
 4872W        W64617  10.146  34.413  10.120
 4873W        W64618  31.634  33.878  14.925
 4874W        W64619  13.296  16.278  10.913
 4875W        W64620  28.464   0.822   1.231
 4876W        W64621  24.182   7.776  11.070
 4877W        W64622  40.968  15.128   4.799
 4878W        W64623  38.872  26.036   4.686
 4879W        W64624  42.502  10.330   3.286
 4880W        W64625  43.302  20.192  10.580
 4881W        W64626   5.875  43.964   3.162
 4882W        W64627  36.439  40.888   3.780
 4883W        W64628  43.963  23.646   1.435
 4884W        W64629  34.368   8.301  14.963
 4885W        W64630   8.234  24.623  14.917
 4886W        W64631  40.408  34.460   4.155
 4887W        W64632  28.959  25.689   1.390
 4888W        W64633  12.344  30.027   4.233
 4889W        W64634  39.882  28.573   2.767
 4890W        W64635  18.718  41.811   2.888
 4891W        W64636  33.081  27.571  14.311
 4892W        W64637  22.139   9.727  13.389
 4893W        W64638  22.652  26.990  14.368
 4894W        W64639  23.047  13.253   4.273
 4895W        W64640  11.184  30.008   2.662
 4896W        W64641   4.384  33.413   2.897
 4897W        W64642  24.627  22.076  13.544
 4898W        W64643   4.273  37.431   4.233
 4899W        W64644   4.922  16.661   0.823
 4900W        W64645   3.937  44.815  13.995
 4901W        W64646  41.351   4.869   1.334
 4902W        W64647  19.198  36.860  14.894
 4903W        W64648   3.934  28.177  14.344
 4904W        W64649  14.222  16.202  13.900
 4905W        W64650  25.541  25.110  11.592
 4906W        W64651  44.895   3.876   4.759
 4907W        W64652  37.920  35.105   3.312
 4908W        W64653  41.932  37.846  11.473
 4909W        W64654  28.582  25.639  11.001
 4910W        W64655  16.259  43.496   1.282
 4911W        W64656  17.118  34.515  12.465
 4912W        W64657  36.900  19.606   1.902
 4913W        W64658  43.013  26.994   5.320
 4914W        W64659  32.904  19.239   3.835
 4915W        W64660  41.407  31.554   0.928
 4916W        W64661  23.640   3.849  14.494
 4917W        W64662  40.402  16.178   3.722
 4918W        W64663  12.312  42.424   2.194
 4919W        W64664  35.881   6.818  14.946
 4920W        W64665  18.590  19.195  12.553
 4921W        W64666   4.319  39.044   3.867
 4922W        W64667  17.566  26.164   3.205
 4923W        W64668  15.175   3.224   2.845
 4924W        W64669  18.089  16.603  12.015
 4925W        W64670  33.479  39.854  14.446
 4926W        W64671  44.797   9.692  12.569
 4927W        W64672  35.574  40.343  11.545
 4928W        W64673  26.968   6.355  12.359
 4929W        W64674  15.744  10.298   3.337
 4930W        W64675   8.341  38.432  14.462
 4931W        W64676  18.600  10.181   1.826
 4932W        W64677   2.394  44.806  13.935
 4933W        W64678  20.754  40.418   0.258
 4934W        W64679  43.360  31.997   0.866
 4935W        W64680  19.049  36.351  13.428
 4936W        W64681  17.756  15.647  12.006
 4937W        W64682  26.558   9.664   1.354
 4938W        W64683  39.870  40.441   1.432
 4939W        W64684  40.018   6.885   2.696
 4940W        W64685  36.023   6.185  12.938
 4941W        W64686  13.197  36.380  12.830
 4942W        W64687  33.915  10.712  13.858
 4943W        W64688  37.509  31.629  12.495
 4944W        W64689  25.131  13.133   1.790
 4945W        W64690  15.307  32.436   3.151
 4946W        W64691  16.296  41.945  12.405
 4947W        W64692  42.924  33.570  12.510
 4948W        W64693  33.020  27.015   3.295
 4949W        W64694  28.057  40.463  11.397
 4950W        W64695   6.877   1.870   3.270
 4951W        W64696  15.814  10.838   2.321
 4952W        W64697  22.551  14.240   1.779
 4953W        W64698   5.262  16.261  12.095
 4954W        W64699   0.834  10.677   4.142
 4955W        W64700  22.099  16.215   3.312
 4956W        W64701  24.144  10.847  11.587
 4957W        W64702  28.066  44.947   4.317
 4958W        W64703  14.314  28.938   1.811
 4959W        W64704  24.120  34.417   1.768
 4960W        W64705  36.411  28.168   0.399
 4961W        W64706   3.842   8.717  14.295
 4962W        W64707  32.637  30.984  14.913
 4963W        W64708   9.187  40.956  14.887
 4964W        W64709  32.607  19.732  13.035
 4965W        W64710   2.412  17.097  12.852
 4966W        W64711  23.055  23.034   1.779
 4967W        W64712  40.923  21.216  14.004
 4968W        W64713  37.473   1.470   3.650
 4969W        W64714  18.097  33.506  13.020
 4970W        W64715  39.382  20.666  12.056
 4971W        W64716  44.790  19.565   0.328
 4972W        W64717  34.383  12.616   1.245
 4973W        W64718  36.046  44.318   4.254
 4974W        W64719   0.477  38.449  13.964
 4975W        W64720  38.872  30.138   1.709
 4976W        W64721  30.136  36.531  14.332
 4977W        W64722   2.303  18.208   3.278
 4978W        W64723   6.694  31.599   3.754
 4979W        W64724   0.272  13.690  13.009
 4980W        W64725  25.184  41.336   3.764
 4981W        W64726   8.725  26.505   2.721
 4982W        W64727   9.746  40.544  13.899
 4983W        W64728  12.145  42.474   0.244
 4984W        W64729  38.039  24.110  13.525
 4985W        W64730  32.608  39.514   0.421
 4986W        W64731  43.956   9.793  13.340
 4987W        W64732  27.465  25.031   0.419
 4988W        W64733  43.490  22.176  12.848
 4989W        W64734  33.898   2.454   3.386
 4990W        W64735  21.061  41.874   4.665
 4991W        W64736  41.856  29.488   2.836
 4992W        W64737  16.231  39.822   4.728
 4993W        W64738  19.738  12.746   2.739
 4994W        W64739  40.458   8.340  12.409
 4995W        W64740  34.064   1.421   2.684
 4996W        W64741  18.706  34.417   0.254
 4997W        W64742  37.387  36.908  11.912
 4998W        W64743  37.837   3.268   1.703
 4999W        W64744  33.381   9.830  14.457
 5000W        W64745  18.247  28.013  10.634
 5001W        W64746   6.745   6.812  12.955
 5002W        W64747   4.901  32.435   2.315
 5003W        W64748  34.499  44.292  12.513
 5004W        W64749  31.535  27.582  12.575
 5005W        W64750  39.450   1.823   2.263
 5006W        W64751  22.651  44.343   0.443
 5007W        W64752  42.319  40.003   0.799
 5008W        W64753  41.874  35.371  12.949
 5009W        W64754  23.705  26.633  14.473
 5010W        W64755  13.270   8.351  13.472
 5011W        W64756  28.667  33.972  11.097
 5012W        W64757  29.461  29.963   2.815
 5013W        W64758  32.453  30.576  11.566
 5014W        W64759  20.091  24.115  10.460
 5015W        W64760  16.743  19.621  13.430
 5016W        W64761  38.444  21.225   1.888
 5017W        W64762  26.688  38.928  14.329
 5018W        W64763  44.895  14.197   2.857
 5019W        W64764  41.365  37.940  14.345
 5020W        W64765  21.578  10.318   0.450
 5021W        W64766  10.252   5.396   5.201
 5022W        W64767  29.464   5.312   3.248
 5023W        W64768   0.277  36.056   3.693
 5024W        W64769  13.665  33.949  13.953
 5025W        W64770   4.338  17.650  12.912
 5026W        W64771  40.999  16.568  14.346
 5027W        W64772  31.102  29.567   4.222
 5028W        W64773  42.422  16.230   2.846
 5029W        W64774  11.149  24.131   2.718
 5030W        W64775  34.004  35.986  11.915
 5031W        W64776  35.893  33.573   5.158
 5032W        W64777  31.065   2.726  13.310
 5033W        W64778  39.038  16.227  14.003
 5034W        W64779  26.605  44.831   0.913
 5035W        W64780  35.872  18.291   3.256
 5036W        W64781   5.817  10.341   1.320
 5037W        W64782  18.050  36.885  13.404
 5038W        W64783  36.051  10.750  12.398
 5039W        W64784  44.268   9.676  11.926
 5040W        W64785  23.001  21.045   1.367
 5041W        W64786  33.088   3.302  14.888
 5042W        W64787  35.507  39.512  11.077
 5043W        W64788  24.520  33.876  10.915
 5044W        W64789  18.606   6.328   4.287
 5045W        W64790  23.652  35.363   1.423
 5046W        W64791  12.290   1.446  10.985
 5047W        W64792  36.893  43.322   4.306
 5048W        W64793  26.097   8.226   3.805
 5049W        W64794   4.255   0.386   0.900
 5050W        W64795   0.358  36.983   0.893
 5051W        W64796  42.905   8.243   3.362
 5052W        W64797  16.634  41.009   2.402
 5053W        W64798  36.007  14.265   0.397
 5054W        W64799  43.359  17.574   4.690
 5055W        W64800  34.033  22.014   1.311
 5056W        W64801   6.747   8.813  14.764
 5057W        W64802  44.434  40.900  10.636
 5058W        W64803  32.507  10.271  13.825
 5059W        W64804  13.289  33.399   4.606
 5060W        W64805  28.605  10.381   0.881
 5061W        W64806  10.831  33.960  13.860
 5062W        W64807  37.900  24.059  10.527
 5063W        W64808  19.057  32.451  11.472
 5064W        W64809  44.312   4.748   1.778
 5065W        W64810  43.822  24.523   3.770
 5066W        W64811   6.840  29.014   4.314
 5067W        W64812  35.566  44.891  14.776
 5068W        W64813  23.168  25.549   0.868
 5069W        W64814   9.378  24.062  12.031
 5070W        W64815   4.893  40.379   3.823
 5071W        W64816   3.308  40.884  12.851
 5072W        W64817  31.529  42.855   4.137
 5073W        W64818  24.085  33.965   3.155
 5074W        W64819   3.711  36.516  11.887
 5075W        W64820  31.131  21.043   0.805
 5076W        W64821  15.249  26.039   4.123
 5077W        W64822  34.415  16.300   0.863
 5078W        W64823  43.824  32.610   0.890
 5079W        W64824   6.751   7.407   4.165
 5080W        W64825  28.455  40.045   3.694
 5081W        W64826   2.398  20.199  14.873
 5082W        W64827  22.145  39.918  13.807
 5083W        W64828   2.258  10.785   0.280
 5084W        W64829  43.901  16.754   3.181
 5085W        W64830  14.205  19.050  14.360
 5086W        W64831  41.333  23.512   1.805
 5087W        W64832   0.353   1.395   4.249
 5088W        W64833  21.751   7.188   1.742
 5089W        W64834  31.093   0.298   2.871
 5090W        W64835  23.109   4.249  11.997
 5091W        W64836   6.779  35.001  11.404
 5092W        W64837  14.168  15.163  12.907
 5093W        W64838  10.722  10.284  10.440
 5094W        W64839  27.489   9.649  14.383
 5095W        W64840  19.631  43.899   0.891
 5096W        W64841  44.914  15.654   4.147
 5097W        W64842  17.671  15.604  11.389
 5098W        W64843  21.609  34.549   4.124
 5099W        W64844  14.227   5.877  14.875
 5100W        W64845  24.557  28.019  12.467
 5101W        W64846  18.734   9.745   3.677
 5102W        W64847   2.837  24.703   3.335
 5103W        W64848  14.260  17.722  14.469
 5104W        W64849  42.028  25.983  10.958
 5105W        W64850   8.862  23.232   2.719
 5106W        W64851  36.922   3.228  11.553
 5107W        W64852  31.588   5.279   1.901
 5108W        W64853  34.975  33.037  13.402
 5109W        W64854  16.605  32.049   5.093
 5110W        W64855  12.251  37.009  13.456
 5111W        W64856  40.337  34.609   4.708
 5112W        W64857  35.086   9.802   2.302
 5113W        W64858  16.229  39.883   3.227
 5114W        W64859  19.645   4.908  14.021
 5115W        W64860  36.542  13.618  14.006
 5116W        W64861  43.299  32.904  11.046
 5117W        W64862  19.665  18.070  10.906
 5118W        W64863  29.969  35.104  13.032
 5119W        W64864  33.949  40.520  10.590
 5120W        W64865   9.261  31.921  13.852
 5121W        W64866  29.524  10.868  12.016
 5122W        W64867  34.894  10.347   4.666
 5123W        W64868  14.203  21.141   1.900
 5124W        W64869  28.010   9.803  12.457
 5125W        W64870  32.580   6.858   3.267
 5126W        W64871  44.958  15.220  12.378
 5127W        W64872   6.355  37.422   2.324
 5128W        W64873  40.914   5.307   4.780
 5129W        W64874  17.781  32.521  11.514
 5130W        W64875  41.461  34.934  14.921
 5131W        W64876  31.047  10.848   1.323
 5132W        W64877  28.585  14.194   1.824
 5133W        W64878  13.294  38.512   0.329
 5134W        W64879  37.022  20.045  13.017
 5135W        W64880  15.329  27.520  14.403
 5136W        W64881   0.317  38.890  10.527
 5137W        W64882   8.901  13.301   4.139
 5138W        W64883  23.053   6.907  13.353
 5139W        W64884  41.959  19.234  13.817
 5140W        W64885  23.204  11.354   0.847
 5141W        W64886  36.061  33.437  10.534
 5142W        W64887  17.739  28.146  11.612
 5143W        W64888  11.743  14.190  11.046
 5144W        W64889  13.820  38.490  10.030
 5145W        W64890  25.480  16.683   4.184
 5146W        W64891  14.766  20.254  14.958
 5147W        W64892  41.490  18.108   1.295
 5148W        W64893  44.992  16.701   1.228
 5149W        W64894  17.282  34.911   1.919
 5150W        W64895  13.340  41.386   4.818
 5151W        W64896  33.445  24.619   1.733
 5152W        W64897  38.364  12.692  12.411
 5153W        W64898  33.478  31.063   3.268
 5154W        W64899  18.765  12.279   3.822
 5155W        W64900  35.480  34.989  13.377
 5156W        W64901  11.347  31.957   3.763
 5157W        W64902  28.556   2.735   4.747
 5158W        W64903  18.739  17.790  10.603
 5159W        W64904  10.253   2.251  13.015
 5160W        W64905   6.847  26.630  11.946
 5161W        W64906  21.156  38.990   1.353
 5162W        W64907   5.714  24.091   1.710
 5163W        W64908   3.296  37.076  13.382
 5164W        W64909  34.394  13.210  13.322
 5165W        W64910  16.740  17.681  13.381
 5166W        W64911  31.488  33.951  11.923
 5167W        W64912  10.248   3.282   1.298
 5168W        W64913   0.945  39.948  10.122
 5169W        W64914  11.289   1.389  11.880
 5170W        W64915  15.129  12.680   3.375
 5171W        W64916  16.288  43.384  14.464
 5172W        W64917  18.732  41.324   2.240
 5173W        W64918  42.931  15.318  12.521
 5174W        W64919  22.735  32.080  14.947
 5175W        W64920  29.559  31.961   2.275
 5176W        W64921  38.532  19.230  13.049
 5177W        W64922  11.759   6.772  11.040
 5178W        W64923  33.909   7.313  14.376
 5179W        W64924  34.916  17.299   1.231
 5180W        W64925  24.165  24.669  12.992
 5181W        W64926  11.777  15.275  14.821
 5182W        W64927  20.133  18.282   4.173
 5183W        W64928   4.794  14.142   1.327
 5184W        W64929  26.164  28.058  10.467
 5185W        W64930  36.915  35.977   0.817
 5186W        W64931   8.201  21.718   1.911
 5187W        W64932  40.456  40.832   2.228
 5188W        W64933  20.047  28.622  11.909
 5189W        W64934   5.357  12.710   4.806
 5190W        W64935  36.984  38.499   0.951
 5191W        W64936  23.580  30.593   0.812
 5192W        W64937  44.483   9.710  12.408
 5193W        W64938  19.107  27.167   1.793
 5194W        W64939  34.592  29.174   4.773
 5195W        W64940  18.700  30.141   4.824
 5196W        W64941  27.512   8.170  10.579
 5197W        W64942  25.208   3.291   9.921
 5198W        W64943  39.532  32.025   2.377
 5199W        W64944  41.904   6.422   2.887
 5200W        W64945  31.609  10.220  10.992
 5201W        W64946  43.925  39.816   3.673
 5202W        W64947   3.747   9.344   2.303
 5203W        W64948  31.143   6.747   2.288
 5204W        W64949  13.132   1.747  13.059
 5205W        W64950  23.093   6.342  13.508
 5206W        W64951  43.838  10.805   3.739
 5207W        W64952  44.434  26.619  10.008
 5208W        W64953  35.918   7.304  13.982
 5209W        W64954   1.453  17.598   3.649
 5210W        W64955   7.280  21.723  10.513
 5211W        W64956  14.647  38.041   9.567
 5212W        W64957  13.654  12.766   1.737
 5213W        W64958  21.660  32.553  14.958
 5214W        W64959  16.236   7.335   1.235
 5215W        W64960  25.530  17.257   2.230
 5216W        W64961  11.186  32.607   0.334
 5217W        W64962  13.705  43.875   1.881
 5218W        W64963   0.863  35.545   5.279
 5219W        W64964  38.878  19.693   4.693
 5220W        W64965   7.885  21.119  10.458
 5221W        W64966   8.657  39.323  12.854
 5222W        W64967   7.330  11.223   0.750
 5223W        W64968  33.585  44.995  11.893
 5224W        W64969  36.011  23.600   2.728
 5225W        W64970  25.994  34.063  10.118
 5226W        W64971  38.921  36.876   0.472
 5227W        W64972  41.300   4.443   3.781
 5228W        W64973  28.487  24.975  13.422
 5229W        W64974  22.729  41.004   0.757
 5230W        W64975  37.447  13.823  10.513
 5231W        W64976  10.254  33.956   1.696
 5232W        W64977  20.761  27.985  11.463
 5233W        W64978  23.573   7.224  10.552
 5234W        W64979  14.220  38.874   4.165
 5235W        W64980  39.949   6.361  14.404
 5236W        W64981  43.960   6.191   3.708
 5237W        W64982   2.287  26.022  12.854
 5238W        W64983  41.036   1.743   3.353
 5239W        W64984   8.293  18.174   2.310
 5240W        W64985   2.846  31.419   2.724
 5241W        W64986  30.460  35.855  10.937
 5242W        W64987   0.423  43.829  11.881
 5243W        W64988  39.949   4.905  10.958
 5244W        W64989  10.637  41.928   4.293
 5245W        W64990  13.659  41.471   3.243
 5246W        W64991  31.946  33.047  12.368
 5247W        W64992  19.750  44.488  14.001
 5248W        W64993  10.228   0.450  11.595
 5249W        W64994  28.527  19.746   0.870
 5250W        W64995  33.073  24.520   3.719
 5251W        W64996  17.787   5.318   2.178
 5252W        W64997  23.211  12.802  10.552
 5253W        W64998  24.039  36.575   1.694
 5254W        W64999   0.743   4.268  11.373
 5255W        W65000  27.070  23.552  13.966
 5256W        W65001  40.395  36.561   0.391
 5257W        W65002  39.499  12.708  11.095
 5258W        W65003   9.254  31.601   2.837
 5259W        W65004   8.312  41.991  11.474
 5260W        W65005   1.913  38.842   1.782
 5261W        W65006  34.031  44.858  10.435
 5262W        W65007   8.178  33.589  12.018
 5263W        W65008  32.079  44.827  11.933
 5264W        W65009  27.561  29.595   2.871
 5265W        W65010  19.632  36.568  13.379
 5266W        W65011  14.197  11.845   0.252
 5267W        W65012   4.888   2.963  12.355
 5268W        W65013   8.811  26.477   2.183
 5269W        W65014  23.132  13.836   0.812
 5270W        W65015  31.091  28.593  12.525
 5271W        W65016  20.563   0.324  14.361
 5272W        W65017  41.501  37.350   4.151
 5273W        W65018  12.184  40.454   1.307
 5274W        W65019   3.283  41.890  14.816
 5275W        W65020   0.972  35.996  14.511
 5276W        W65021  35.985   2.745   0.261
 5277W        W65022  24.117   8.346   0.274
 5278W        W65023  36.941  12.262   0.877
 5279W        W65024  14.753  12.756  14.392
 5280W        W65025  34.445   0.889   1.423
 5281W        W65026  11.836  22.015   0.949
 5282W        W65027  37.913  22.558  11.050
 5283W        W65028  18.068  38.985  14.943
 5284W        W65029   8.345   7.276   2.813
 5285W        W65030  38.960  18.765  14.857
 5286W        W65031  26.002  10.689  11.514
 5287W        W65032  43.475  40.317   3.195
 5288W        W65033  34.442  27.952   1.901
 5289W        W65034  31.446   6.679   4.206
 5290W        W65035  15.776  32.949   4.201
 5291W        W65036  22.089  10.712   4.190
 5292W        W65037  26.570  26.968   0.891
 5293W        W65038  15.297  20.615  14.838
 5294W        W65039  18.119  31.592  10.411
 5295W        W65040  33.462  20.054   0.318
 5296W        W65041  14.689   0.881   4.777
 5297W        W65042  39.007  23.030  12.405
 5298W        W65043  18.167  34.386  12.049
 5299W        W65044  43.868  23.682   3.304
 5300W        W65045  28.515  39.901   0.965
 5301W        W65046  20.238   5.904  14.999
 5302W        W65047  18.078  21.208   0.248
 5303W        W65048   0.440  21.091   3.861
 5304W        W65049   0.493  27.955   3.819
 5305W        W65050  25.005  22.006   1.728
 5306W        W65051   3.229  44.451   1.794
 5307W        W65052  39.484  40.421  11.580
 5308W        W65053   2.838  26.472  12.366
 5309W        W65054   2.443  36.377   2.295
 5310W        W65055  18.290  14.274  13.838
 5311W        W65056  18.279  12.831  11.477
 5312W        W65057  30.162  13.836   4.603
 5313W        W65058   3.804   1.934  12.921
 5314W        W65059  43.338  18.118  10.122
 5315W        W65060  28.959  43.921   4.651
 5316W        W65061  28.652  29.444   0.339
 5317W        W65062  36.032   4.850   3.722
 5318W        W65063  40.427   6.906   1.391
 5319W        W65064  34.443  35.385   2.718
 5320W        W65065  19.210  38.872  11.909
 5321W        W65066  10.261   8.360  13.821
 5322W        W65067  39.524   0.334  11.427
 5323W        W65068  18.575  22.706  10.554
 5324W        W65069  10.684   3.410   4.146
 5325W        W65070  26.145  35.584  13.440
 5326W        W65071  42.467  20.707  11.580
 5327W        W65072   9.838  27.012  10.544
 5328W        W65073  37.995  16.190   2.245
 5329W        W65074  18.191  25.619   0.938
 5330W        W65075  44.864   0.354  10.532
 5331W        W65076  32.995  24.997   2.808
 5332W        W65077  31.954  10.274   4.315
 5333W        W65078  35.554  13.670   0.289
 5334W        W65079  24.717  43.795   4.762
 5335W        W65080  42.524  17.149  10.591
 5336W        W65081  29.446  10.333   1.435
 5337W        W65082  17.698  36.591   0.263
 5338W        W65083  42.826  34.078   1.337
 5339W        W65084  22.117  14.724  12.411
 5340W        W65085  43.462  14.199  12.454
 5341W        W65086  30.527   1.438  12.890
 5342W        W65087   6.388  21.077   0.295
 5343W        W65088   1.876  41.968  11.934
 5344W        W65089  15.718  39.343   4.727
 5345W        W65090  25.184  35.569  14.833
 5346W        W65091   5.341  33.404   0.345
 5347W        W65092  13.612  39.940   5.607
 5348W        W65093  34.041  17.212   4.154
 5349W        W65094  20.684  38.504  13.838
 5350W        W65095  16.590  43.396  11.945
 5351W        W65096  34.502  27.541  14.448
 5352W        W65097  39.345  37.529   3.763
 5353W        W65098  16.760  12.703   3.681
 5354W        W65099  42.907  10.758  10.961
 5355W        W65100  18.553  22.567   1.236
 5356W        W65101  34.946   0.423  12.355
 5357W        W65102  42.016  38.992  12.854
 5358W        W65103  21.214  18.140   1.277
 5359W        W65104  16.720  10.711  13.448
 5360W        W65105   1.285  22.160  14.010
 5361W        W65106   5.350  33.510  11.448
 5362W        W65107  18.650   4.707  14.363
 5363W        W65108  14.791   0.264  11.978
 5364W        W65109  14.279  33.887  12.357
 5365W        W65110  38.962  26.026   2.394
 5366W        W65111  37.541   2.771  14.989
 5367W        W65112  43.995   4.320   0.755
 5368W        W65113   4.435   3.453  13.387
 5369W        W65114  26.116  32.085   3.149
 5370W        W65115   2.959  25.553   3.145
 5371W        W65116   4.326   6.676   0.820
 5372W        W65117  11.807  36.996  14.397
 5373W        W65118  19.268  29.028   2.680
 5374W        W65119  28.086  12.679   4.696
 5375W        W65120  25.036  38.462   1.897
 5376W        W65121  27.610  37.961   4.615
 5377W        W65122   6.805  22.041   3.247
 5378W        W65123   8.687  44.988  13.872
 5379W        W65124  23.997  13.832   0.942
 5380W        W65125   7.335  13.661   3.247
 5381W        W65126  44.369  12.818   9.952
 5382W        W65127  25.091  17.797   4.262
 5383W        W65128   2.762  37.423  12.979
 5384W        W65129  11.325  26.137  14.442
 5385W        W65130  16.160  42.978  11.496
 5386W        W65131  20.195  22.204   3.237
 5387W        W65132  40.048  25.606   2.270
 5388W        W65133  43.470   2.453  14.375
 5389W        W65134  40.861  35.486   1.226
 5390W        W65135  23.095  15.816  13.536
 5391W        W65136  30.597   2.454  10.632
 5392W        W65137  18.708  22.743  14.346
 5393W        W65138  29.944  14.766   2.366
 5394W        W65139  26.615  44.791  12.435
 5395W        W65140   6.841  34.866   3.280
 5396W        W65141  43.455  19.121  13.433
 5397W        W65142  20.053   1.394  13.419
 5398W        W65143  42.324  19.658  11.087
 5399W        W65144  31.909  12.735   0.833
 5400W        W65145  13.755  28.174  11.521
 5401W        W65146  31.432   8.726   3.761
 5402W        W65147  13.175   1.353   2.309
 5403W        W65148  17.612   4.826  12.434
 5404W        W65149   0.351  27.091   0.377
 5405W        W65150  29.432   5.886   4.710
 5406W        W65151  21.678  36.872   4.329
 5407W        W65152  12.632   5.425  13.936
 5408W        W65153  41.038  11.321  11.575
 5409W        W65154  44.872  35.459  14.334
 5410W        W65155  29.480   9.807   2.869
 5411W        W65156  17.283  11.757  11.918
 5412W        W65157  21.116  23.618   3.730
 5413W        W65158   0.939   5.697  14.855
 5414W        W65159  20.671  27.666   2.354
 5415W        W65160  11.140  18.688  11.443
 5416W        W65161  24.222  36.558  12.493
 5417W        W65162  12.227  38.417  13.513
 5418W        W65163  35.927  20.646   3.151
 5419W        W65164  30.542  29.121  14.838
 5420W        W65165  16.098  18.238   2.664
 5421W        W65166  32.045  10.267   2.260
 5422W        W65167  13.835  32.630  12.429
 5423W        W65168   7.717  19.094   4.829
 5424W        W65169  30.520  38.999   3.285
 5425W        W65170  23.557  27.119  12.065
 5426W        W65171  38.026  19.079   2.291
 5427W        W65172  40.323  21.202   4.154
 5428W        W65173  27.055  14.785  11.943
 5429W        W65174   3.868   7.807   2.253
 5430W        W65175  26.603  34.017   1.808
 5431W        W65176  18.087  22.006   3.760
 5432W        W65177  39.477  10.879  11.075
 5433W        W65178  33.053  11.166  12.472
 5434W        W65179  36.859  14.797  12.059
 5435W        W65180  27.570  17.564  11.605
 5436W        W65181   0.892   7.777  14.418
 5437W        W65182  41.337  22.084  13.874
 5438W        W65183  29.452  19.775   2.836
 5439W        W65184   3.813  26.951   1.785
 5440W        W65185   2.251  26.526  11.877
 5441W        W65186  43.489  11.760   1.238
 5442W        W65187  18.167  37.409   4.644
 5443W        W65188  20.268   6.853   0.742
 5444W        W65189  22.104  21.692   2.336
 5445W        W65190  24.542  14.145  14.397
 5446W        W65191  27.608  27.013  13.475
 5447W        W65192  23.155  12.288   2.260
 5448W        W65193  26.123  37.942  14.845
 5449W        W65194  20.753  31.023  11.023
 5450W        W65195  28.533  12.814   3.243
 5451W        W65196  34.378  15.295   1.226
 5452W        W65197  20.598  22.192   3.653
 5453W        W65198  31.436  20.046   4.692
 5454W        W65199  37.359  35.953   3.276
 5455W        W65200  44.806   9.877  14.866
 5456W        W65201  22.007  24.147  14.479
 5457W        W65202  35.498  11.735  14.385
 5458W        W65203  16.120  12.627   4.619
 5459W        W65204  10.780  27.563   3.174
 5460W        W65205  39.821  21.167  11.510
 5461W        W65206   0.376   7.859   3.691
 5462W        W65207   7.674  13.297  13.829
 5463W        W65208  34.996  34.953   4.198
 5464W        W65209  35.089  25.168  13.403
 5465W        W65210   5.366  12.750   2.680
 5466W        W65211   4.818  40.394   0.372
 5467W        W65212  21.524  14.702   0.338
 5468W        W65213  27.657  24.496  11.951
 5469W        W65214  36.888  41.516  14.858
 5470W        W65215  26.560   5.919   2.180
 5471W        W65216  22.671  25.170   0.786
 5472W        W65217   7.228  42.820  13.917
 5473W        W65218  18.104   5.272   0.814
 5474W        W65219  18.196  16.135   1.826
 5475W        W65220  23.718  30.519   4.138
 5476W        W65221  34.556   4.218   2.405
 5477W        W65222  24.993  33.498  14.965
 5478W        W65223  17.790  26.513  10.416
 5479W        W65224  30.608  19.051   5.652
 5480W        W65225  27.034   3.310  13.820
 5481W        W65226  11.643  32.971   0.836
 5482W        W65227  28.998  15.248  14.467
 5483W        W65228  42.328   7.259  12.000
 5484W        W65229  37.462  17.088  14.993
 5485W        W65230  26.536   2.262   3.287
 5486W        W65231  37.387   4.753  10.571
 5487W        W65232   4.331  42.907   0.460
 5488W        W65233  23.560  22.659  11.124
 5489W        W65234  23.575  40.384   2.754
 5490W        W65235  17.595  31.571   2.195
 5491W        W65236  41.496  44.414   3.306
 5492W        W65237   4.742  43.771  11.075
 5493W        W65238  13.788  33.920   2.228
 5494W        W65239  36.919   2.876   4.135
 5495W        W65240  30.093  39.460  11.129
 5496W        W65241  44.825  36.922   2.717
 5497W        W65242  33.981   9.311   3.669
 5498W        W65243  18.610   6.768  13.872
 5499W        W65244  11.227  41.503   0.787
 5500W        W65245  31.014  13.179  14.460
 5501W        W65246  22.040  17.264   1.392
 5502W        W65247  30.059   5.893  13.452
 5503W        W65248  44.460   2.853   4.689
 5504W        W65249  40.879  39.811  10.522
 5505W        W65250  34.015  19.216   2.366
 5506W        W65251  41.336   7.692  12.837
 5507W        W65252  34.475  43.968  14.028
 5508W        W65253  29.569  44.990  13.904
 5509W        W65254  36.452  40.399   0.880
 5510W        W65255  26.987  34.005  13.518
 5511W        W65256  24.622  25.115   2.349
 5512W        W65257  43.479  20.169  11.494
 5513W        W65258  22.661  33.054  12.343
 5514W        W65259   1.379   1.817   2.321
 5515W        W65260   4.906  32.966   5.114
 5516W        W65261  33.011   8.808  14.809
 5517W        W65262   6.719   6.278   2.373
 5518W        W65263  14.645  43.403   3.846
 5519W        W65264  17.730  27.967  13.893
 5520W        W65265  23.095  33.607   2.890
 5521W        W65266  10.173  44.951   3.381
 5522W        W65267  11.153  30.429  13.924
 5523W        W65268  31.462  38.437   4.210
 5524W        W65269  28.971  23.695  10.463
 5525W        W65270  34.083  18.552   0.756
 5526W        W65271  11.803   9.324   1.444
 5527W        W65272  12.129   6.721   1.840
 5528W        W65273  12.192  40.356   3.203
 5529W        W65274   6.426  31.902  12.079
 5530W        W65275  23.676  16.115  11.949
 5531W        W65276  10.803  40.041   2.237
 5532W        W65277   9.345  39.913  11.935
 5533W        W65278  43.377  34.915  12.965
 5534W        W65279  30.050  29.068  13.896
 5535W        W65280  41.945  33.534  11.590
 5536W        W65281  26.634  38.923  13.388
 5537W        W65282   7.295  12.639  13.421
 5538W        W65283   7.729  41.954  12.952
 5539W        W65284  43.884  30.926  10.533
 5540W        W65285  28.657  26.026   0.852
 5541W        W65286  24.539  12.192  13.465
 5542W        W65287  44.409  16.679  11.929
 5543W        W65288  17.557  30.057   1.314
 5544W        W65289  20.096  38.325  11.564
 5545W        W65290  18.702   4.850  12.060
 5546W        W65291  22.105  41.871  14.383
 5547W        W65292  24.487  43.360   0.812
 5548W        W65293  36.077  30.958   1.435
 5549W        W65294  34.053  14.711   3.358
 5550W        W65295  29.624  35.404  11.020
 5551W        W65296   4.837  24.501  12.945
 5552W        W65297  26.122   5.248  11.862
 5553W        W65298  32.137   9.742   1.914
 5554W        W65299  37.452  37.921  11.054
 5555W        W65300  44.992  32.914   1.778
 5556W        W65301  32.941  28.636   4.195
 5557W        W65302  19.716   5.877  13.872
 5558W        W65303   4.905  11.702  12.401
 5559W        W65304  44.390  18.166  10.510
 5560W        W65305   3.916   2.870   3.192
 5561W        W65306   0.913  37.020  11.935
 5562W        W65307  35.570  40.870  12.054
 5563W        W65308   3.907  15.264   1.911
 5564W        W65309  18.739  30.044  11.584
 5565W        W65310   1.281  38.913   0.405
 5566W        W65311  44.997  14.767   2.712
 5567W        W65312  33.464  32.620  12.058
 5568W        W65313  42.905  24.595  14.873
 5569W        W65314  39.390  32.995   2.823
 5570W        W65315  18.103  32.391  11.458
 5571W        W65316   7.370   2.745  11.559
 5572W        W65317  37.896  24.975  14.413
 5573W        W65318  34.537  28.032  11.031
 5574W        W65319  26.156  18.667  14.890
 5575W        W65320  35.075  32.105   0.963
 5576W        W65321   5.393  33.589   4.655
 5577W        W65322   1.315  22.664   2.902
 5578W        W65323  34.430   9.664   2.798
 5579W        W65324  44.858  31.541  14.410
 5580W        W65325  33.906  28.018   9.593
 5581W        W65326  32.400   7.816   9.491
 5582W        W65327  35.954  11.831   2.679
 5583W        W65328   8.350  10.382  12.862
 5584W        W65329   3.876  22.083  14.020
 5585W        W65330  15.265   2.268   4.155
 5586W        W65331   9.759  36.355  12.467
 5587W        W65332  41.431   2.781   0.324
 5588W        W65333   2.911   7.909  13.987
 5589W        W65334   3.383   6.805   4.745
 5590W        W65335  28.597  24.555   1.374
 5591W        W65336  44.471  27.094  12.425
 5592W        W65337  35.560  28.051   1.374
 5593W        W65338  16.627  29.614  10.930
 5594W        W65339   0.265  32.528   4.237
 5595W        W65340   0.251  11.727   4.194
 5596W        W65341  43.464   6.292   0.913
 5597W        W65342   3.250  22.598   4.753
 5598W        W65343  37.397   7.216  13.875
 5599W        W65344   2.293   2.294   1.232
 5600W        W65345  17.589  36.401  14.830
 5601W        W65346  25.171  28.477   2.789
 5602W        W65347  42.848  41.884  11.109
 5603W        W65348  24.195  17.231  12.052
 5604W        W65349  36.924  19.683   3.233
 5605W        W65350   4.833   1.774  11.600
 5606W        W65351  13.677   0.294  13.021
 5607W        W65352  26.194   1.788  14.415
 5608W        W65353  36.579  28.953  14.276
 5609W        W65354   4.700  42.387  11.390
 5610W        W65355  16.812  18.566  13.452
 5611W        W65356  40.048  39.856  14.457
 5612W        W65357  43.325   7.185  11.015
 5613W        W65358  20.706   1.461  13.955
 5614W        W65359  31.038  42.981  13.814
 5615W        W65360  15.660  16.740   0.804
 5616W        W65361  39.325  39.516  10.483
 5617W        W65362  29.635  36.042   0.278
 5618W        W65363  42.832   5.326   0.316
 5619W        W65364   1.967  18.051  14.384
 5620W        W65365  23.165  29.939   0.356
 5621W        W65366  19.761  17.112  11.957
 5622W        W65367  26.610  10.770   0.452
 5623W        W65368  33.389  28.475   1.808
 5624W        W65369  26.621  13.116  12.546
 5625W        W65370  13.295  33.458  10.111
 5626W        W65371   1.752  14.265   1.261
 5627W        W65372  26.466  34.543   2.416
 5628W        W65373  10.640  21.732  11.563
 5629W        W65374  40.894   8.881  14.951
 5630W        W65375   5.791   4.881   3.857
 5631W        W65376  32.928  25.045   3.821
 5632W        W65377  27.453  12.142   1.741
 5633W        W65378  43.946   0.932  11.519
 5634W        W65379  41.302  42.937   1.278
 5635W        W65380  26.137   9.279  11.504
 5636W        W65381   8.182  22.567  14.292
 5637W        W65382  28.666   2.265   2.738
 5638W        W65383  42.381   3.950   2.386
 5639W        W65384  36.888  13.284   4.676
 5640W        W65385  38.546  17.223   3.217
 5641W        W65386   2.908  34.063  13.377
 5642W        W65387   0.487  37.904   2.718
 5643W        W65388   4.411  30.560  11.968
 5644W        W65389   6.412  18.273  10.513
 5645W        W65390  34.121  10.223   4.810
 5646W        W65391  35.011  10.713  11.997
 5647W        W65392  26.561  33.910  13.893
 5648W        W65393  24.076  30.057  11.903
 5649W        W65394  42.340  26.609   3.709
 5650W        W65395  18.790  35.467  13.881
 5651W        W65396  14.642  27.639  14.342
 5652W        W65397  37.030  30.592  10.466
 5653W        W65398  27.034  18.102   0.253
 5654W        W65399  11.737   2.451   4.810
 5655W        W65400  18.777  43.990   0.372
 5656W        W65401  44.817  20.623  13.855
 5657W        W65402   4.755   9.819   3.815
 5658W        W65403  27.591  36.980  13.406
 5659W        W65404  38.507  39.369  14.316
 5660W        W65405  42.873   0.952  14.816
 5661W        W65406  17.185  43.453   1.324
 5662W        W65407   7.311  14.649   1.351
 5663W        W65408  10.751  32.110   1.696
 5664W        W65409  11.206  14.749  14.981
 5665W        W65410  33.098  34.500  13.868
 5666W        W65411  41.923  35.550  10.461
 5667W        W65412  18.683  34.089   4.690
 5668W        W65413   3.792  34.954  10.528
 5669W        W65414  10.791  23.716   1.784
 5670W        W65415   2.965  14.186  12.021
 5671W        W65416   3.723   4.752  13.524
 5672W        W65417   2.287  21.684  14.994
 5673W        W65418  23.706  37.446  14.821
 5674W        W65419  20.046  40.004  14.317
 5675W        W65420   5.794  16.808  13.805
 5676W        W65421  23.075   7.723  10.458
 5677W        W65422  19.766   9.308  13.543
 5678W        W65423  18.724  28.152  11.376
 5679W        W65424  17.578  40.026  11.889
 5680W        W65425  30.160  12.788   2.715
 5681W        W65426  24.033  25.014  14.418
 5682W        W65427  18.259  38.456  14.981
 5683W        W65428  33.531  11.127  12.480
 5684W        W65429  41.350  12.720   2.276
 5685W        W65430  31.034  33.497  10.927
 5686W        W65431  17.612  12.773  13.501
 5687W        W65432  42.457  31.025   4.274
 5688W        W65433  43.894  37.397   2.786
 5689W        W65434  27.577  12.330   0.849
 5690W        W65435   1.810   8.822   2.264
 5691W        W65436  20.105  13.347   4.340
 5692W        W65437   3.292   8.704  11.061
 5693W        W65438  31.053  30.413  11.454
 5694W        W65439  36.089   3.244   2.877
 5695W        W65440  36.074  27.148  11.480
 5696W        W65441   5.818  32.089  13.031
 5697W        W65442  41.859  33.006   3.829
 5698W        W65443   1.284   6.905  12.349
 5699W        W65444  32.601  44.883   3.274
 5700W        W65445   1.771   4.233  10.480
 5701W        W65446  17.738  40.819   1.302
 5702W        W65447  27.529  40.004   2.218
 5703W        W65448   5.735  32.580   3.786
 5704W        W65449   4.705   0.372  10.068
 5705W        W65450  16.571  32.020  10.637
 5706W        W65451   1.427  13.272  13.331
 5707W        W65452  41.320  37.412  13.014
 5708W        W65453  15.813  32.588   4.613
 5709W        W65454   3.724  43.502   1.744
 5710W        W65455   1.820  41.300  10.143
 5711W        W65456  19.251  39.999  12.860
 5712W        W65457  13.306  43.447  12.999
 5713W        W65458  34.585  24.976   0.755
 5714W        W65459  31.916  27.543  12.972
 5715W        W65460  21.161  11.861  14.919
 5716W        W65461  36.397  40.363  12.042
 5717W        W65462  35.374   6.395  10.615
 5718W        W65463  15.741  44.344   2.757
 5719W        W65464  26.049  33.123   3.676
 5720W        W65465  35.979  18.094  12.362
 5721W        W65466  38.362  40.896   0.368
 5722W        W65467  11.767  37.397   2.388
 5723W        W65468  11.821   2.325  14.972
 5724W        W65469   7.698  33.615  13.528
 5725W        W65470  12.143   5.890   1.239
 5726W        W65471  39.458  32.087   1.322
 5727W        W65472  44.876  24.046   2.382
 5728W        W65473   7.176  44.383  11.376
 5729W        W65474  18.215  44.358   1.433
 5730W        W65475   1.479  16.784  12.994
 5731W        W65476  20.041  11.820   0.394
 5732W        W65477  35.050  23.520  10.440
 5733W        W65478  17.731  14.656  14.799
 5734W        W65479   5.380  22.107   2.345
 5735W        W65480   2.846  28.958  11.996
 5736W        W65481  26.609  18.099   3.649
 5737W        W65482   0.402  17.130   2.233
 5738W        W65483  31.504  19.544   1.850
 5739W        W65484  40.503   8.255   1.379
 5740W        W65485  13.761   0.274   0.270
 5741W        W65486  39.433   1.309   2.235
 5742W        W65487   6.355  28.486  11.962
 5743W        W65488  40.053  17.648   2.704
 5744W        W65489  38.976   1.922   0.870
 5745W        W65490  34.061   1.275   3.340
 5746W        W65491  15.163  22.707   3.652
 5747W        W65492  27.170  44.895  11.052
 5748W        W65493   6.183  35.095  12.508
 5749W        W65494  28.057   8.160   1.439
 5750W        W65495  15.318   9.285   4.664
 5751W        W65496  38.010  22.727   9.957
 5752W        W65497  35.016  36.980  12.842
 5753W        W65498  17.605  41.909   3.322
 5754W        W65499   2.316  18.153   2.821
 5755W        W65500  10.757  33.454   2.383
 5756W        W65501  35.096  40.477   1.385
 5757W        W65502  43.444  27.081   4.634
 5758W        W65503  28.022  18.060   1.345
 5759W        W65504   4.410  13.775  12.545
 5760W        W65505   6.836  13.760  11.088
 5761W        W65506  39.380  11.281   4.672
 5762W        W65507  35.079  36.092   3.266
 5763W        W65508  21.071  32.989  14.456
 5764W        W65509   2.847  43.774  14.493
 5765W        W65510  23.063  40.358   3.385
 5766W        W65511  36.926  11.778   0.356
 5767W        W65512  39.530   7.855  12.073
 5768W        W65513  17.647  43.353   0.808
 5769W        W65514  23.211  10.773   2.700
 5770W        W65515  38.862  23.063   0.754
 5771W        W65516  31.423  26.514  11.972
 5772W        W65517  31.635   7.409  10.114
 5773W        W65518  38.822  21.110   5.239
 5774W        W65519   8.401  42.868   0.303
 5775W        W65520  37.471  32.116  14.462
 5776W        W65521  42.798   5.779   3.381
 5777W        W65522   4.295   3.794  13.826
 5778W        W65523  30.098   3.374   2.689
 5779W        W65524  28.606   0.857   4.602
 5780W        W65525  10.712  16.106  14.919
 5781W        W65526  23.630  41.966  11.003
 5782W        W65527  21.744  20.656  10.492
 5783W        W65528  28.936  33.893   4.792
 5784W        W65529  42.360  32.089  13.064
 5785W        W65530  28.654  23.719  14.306
 5786W        W65531  31.100  25.162  11.441
 5787W        W65532  16.784  27.541  12.001
 5788W        W65533  22.174  18.059  14.983
 5789W        W65534  33.415  25.138   5.322
 5790W        W65535  26.962  42.421   0.885
 5791W        W65536  29.991  35.981  10.558
 5792W        W65537  28.455  16.114   1.295
 5793W        W65538   7.867  15.610   4.167
 5794W        W65539  40.338  44.988   1.735
 5795W        W65540   9.754   4.442  13.844
 5796W        W65541  20.537  31.465   1.796
 5797W        W65542  40.372  14.688  10.601
 5798W        W65543  38.521  35.107   2.288
 5799W        W65544  16.681  20.612  11.085
 5800W        W65545  24.025  40.381   1.886
 5801W        W65546   4.304  40.356  10.639
 5802W        W65547  36.903  39.949  13.524
 5803W        W65548  32.445  26.959  11.505
 5804W        W65549  31.932   9.324   4.146
 5805W        W65550   3.363  24.635   0.474
 5806W        W65551  23.611  12.270   3.161
 5807W        W65552   6.767  25.031   4.308
 5808W        W65553  41.813  12.739   4.200
 5809W        W65554  21.587  39.457   4.738
 5810W        W65555  14.141   0.333   2.238
 5811W        W65556  25.616  35.872   0.369
 5812W        W65557  26.131  18.545  14.028
 5813W        W65558  35.377  34.043   4.137
 5814W        W65559   8.210  21.219   0.285
 5815W        W65560  14.310  23.729   3.711
 5816W        W65561  44.350  40.901  14.328
 5817W        W65562  10.365   9.670   1.782
 5818W        W65563  30.141  15.165  12.358
 5819W        W65564  17.068  37.350   0.280
 5820W        W65565  33.955   9.888   3.856
 5821W        W65566  22.199  21.602  11.018
 5822W        W65567  40.446  35.876  10.563
 5823W        W65568  11.250  12.198   3.362
 5824W        W65569  18.109  35.398  13.416
 5825W        W65570   1.336   9.186  14.348
 5826W        W65571   8.720  15.252   1.861
 5827W        W65572  39.066  10.845  14.785
 5828W        W65573  17.800   9.152  12.425
 5829W        W65574   9.804   5.769   1.304
 5830W        W65575  23.079  29.664  10.434
 5831W        W65576  34.507  26.981   0.808
 5832W        W65577  22.640  10.367   4.601
 5833W        W65578  10.850  15.613   4.120
 5834W        W65579  38.834   4.210  13.874
 5835W        W65580   9.799  34.385  14.294
 5836W        W65581  31.599  19.554  14.499
 5837W        W65582  41.417  23.669  14.992
 5838W        W65583   8.681  14.121  10.407
 5839W        W65584  10.381  26.516   3.328
 5840W        W65585  20.161  24.181   1.759
 5841W        W65586   7.178  10.220   2.713
 5842W        W65587  27.128  25.033  14.289
 5843W        W65588  43.767   1.254   3.160
 5844W        W65589  38.546  41.314  12.913
 5845W        W65590  29.524  21.115  13.942
 5846W        W65591   5.843  18.211  13.968
 5847W        W65592  13.191   5.252   4.718
 5848W        W65593  35.434  27.107  13.387
 5849W        W65594  32.538  40.893   4.827
 5850W        W65595   0.473  32.027   1.842
 5851W        W65596  44.794   5.819  12.506
 5852W        W65597  12.331  14.650   2.305
 5853W        W65598  14.235  27.074  12.339
 5854W        W65599   9.314  30.148   4.261
 5855W        W65600   7.393   3.408  10.962
 5856W        W65601   0.351   6.886  14.017
 5857W        W65602  39.015  37.845  13.048
 5858W        W65603   9.243  36.000  11.415
 5859W        W65604  42.407  21.054  10.035
 5860W        W65605  17.595  16.238   1.332
 5861W        W65606  24.591   9.822  11.443
 5862W        W65607  23.671  24.179  12.395
 5863W        W65608   3.806   7.204   4.739
 5864W        W65609  34.898  36.013  14.990
 5865W        W65610  36.982  27.064   2.686
 5866W        W65611  40.938  21.224   3.788
 5867W        W65612  17.735  30.598   4.308
 5868W        W65613  40.329  17.061  11.001
 5869W        W65614   6.916  28.507  11.388
 5870W        W65615  36.950  39.366  13.909
 5871W        W65616   2.316  13.746  13.989
 5872W        W65617  11.757  15.616  10.985
 5873W        W65618  13.609  27.533  14.373
 5874W        W65619  17.579   4.726   3.385
 5875W        W65620  41.018  32.112   2.353
 5876W        W65621  25.571  11.232  11.997
 5877W        W65622  32.136  11.764  10.897
 5878W        W65623  30.962  36.521   0.837
 5879W        W65624  43.880  36.561   9.999
 5880W        W65625  20.713  25.614   2.251
 5881W        W65626  25.552  35.051   0.378
 5882W        W65627  22.999  10.279   0.928
 5883W        W65628  42.971  43.782   2.344
 5884W        W65629  36.494  31.145  14.869
 5885W        W65630   6.897  42.971  11.463
 5886W        W65631   9.787  10.273  14.465
 5887W        W65632   7.404  31.582  14.304
 5888W        W65633  14.121  21.020  11.439
 5889W        W65634  36.914  31.579  12.977
 5890W        W65635  28.103  35.990  14.347
 5891W        W65636   1.877  27.678   1.422
 5892W        W65637  33.068  17.588   0.914
 5893W        W65638  37.907  42.785   3.794
 5894W        W65639  11.239  32.429   2.667
 5895W        W65640  39.343   5.870  13.025
 5896W        W65641   0.955  38.055  13.916
 5897W        W65642   5.745  12.163  10.482
 5898W        W65643  41.954  30.583   2.206
 5899W        W65644  42.008  16.802  10.529
 5900W        W65645  11.840  31.515  10.623
 5901W        W65646  20.055  11.733   4.621
 5902W        W65647   8.205   8.837  13.392
 5903W        W65648  27.481  42.014   1.423
 5904W        W65649   5.872  13.610  12.526
 5905W        W65650   9.766  37.555  13.804
 5906W        W65651  40.337  28.945  11.583
 5907W        W65652  37.918  26.580  14.810
 5908W        W65653  32.949  17.685  12.030
 5909W        W65654  34.526   5.742   5.768
 5910W        W65655  17.698  13.136   2.345
 5911W        W65656  28.555  29.004  12.485
 5912W        W65657  29.586   2.237   2.706
 5913W        W65658  21.117  41.915  11.967
 5914W        W65659  18.058   5.882   4.173
 5915W        W65660   9.286  38.918   0.303
 5916W        W65661   8.350  42.410  14.294
 5917W        W65662  26.013  41.427   2.229
 5918W        W65663  28.129   9.701  10.629
 5919W        W65664  11.292   4.783  14.791
 5920W        W65665   0.799  14.137  11.485
 5921W        W65666  43.450  26.659  13.812
 5922W        W65667  37.881  15.154   4.295
 5923W        W65668  31.143   6.799   1.416
 5924W        W65669   2.439  30.078   2.790
 5925W        W65670  12.176  41.873  14.461
 5926W        W65671   7.854  34.865   4.636
 5927W        W65672   4.816   2.737  14.366
 5928W        W65673  22.515   3.437  14.298
 5929W        W65674  17.126  30.924   4.250
 5930W        W65675  13.149  40.018   2.313
 5931W        W65676  11.651   0.413   2.847
 5932W        W65677   4.289  26.049   1.784
 5933W        W65678   8.737  24.134  13.417
 5934W        W65679  30.621  36.869   0.405
 5935W        W65680  23.580   7.811  11.559
 5936W        W65681  31.505  15.710  10.160
 5937W        W65682  38.871  14.722   2.241
 5938W        W65683  38.000  35.434   4.324
 5939W        W65684  22.165   0.329   4.185
 5940W        W65685  13.822  22.158  14.505
 5941W        W65686  41.429  19.111   4.182
 5942W        W65687   0.872  26.657  10.634
 5943W        W65688   8.675  32.469  11.455
 5944W        W65689  34.034  18.715  14.833
 5945W        W65690  17.110  32.583  12.353
 5946W        W65691  25.526  26.553  11.054
 5947W        W65692  34.926  14.334  11.053
 5948W        W65693  17.283  28.945   3.863
 5949W        W65694  36.964   6.913  11.482
 5950W        W65695  13.835  25.531   1.434
 5951W        W65696  35.876  27.562  14.421
 5952W        W65697  39.383  31.040   4.300
 5953W        W65698  44.842  34.904   3.227
 5954W        W65699  29.990  14.148   4.134
 5955W        W65700  10.194  33.984   0.446
 5956W        W65701  39.538   3.352   5.253
 5957W        W65702  42.491  32.465   4.623
 5958W        W65703  27.155  24.622  13.328
 5959W        W65704  26.476  13.715   3.221
 5960W        W65705  26.982  31.079  10.643
 5961W        W65706  32.432  23.494   3.224
 5962W        W65707   1.472  12.297   3.704
 5963W        W65708  37.524  42.495  12.038
 5964W        W65709  13.622  28.004   4.748
 5965W        W65710  14.177   9.152   4.276
 5966W        W65711  21.541  25.596   3.300
 5967W        W65712   8.348  15.097  10.502
 5968W        W65713   9.657   3.926   4.687
 5969W        W65714  40.352  14.126  12.519
 5970W        W65715   5.386  33.516  13.044
 5971W        W65716   8.186  18.748  12.043
 5972W        W65717  42.471   3.420   2.204
 5973W        W65718   4.288  10.765   2.795
 5974W        W65719   0.769  28.574  13.411
 5975W        W65720   3.936  41.008   1.813
 5976W        W65721  16.128  12.176  13.854
 5977W        W65722  31.604  38.438   2.260
 5978W        W65723  16.802  44.841   2.200
 5979W        W65724   3.394  37.903   0.844
 5980W        W65725  21.692  25.507  13.848
 5981W        W65726   8.711  16.801   4.217
 5982W        W65727  36.377  31.134   1.850
 5983W        W65728  41.441  31.615   3.262
 5984W        W65729  12.215   0.489   4.670
 5985W        W65730  12.237   7.180  13.455
 5986W        W65731  18.568  36.933  14.386
 5987W        W65732  18.080  31.412   1.833
 5988W        W65733  40.036  30.539   2.723
 5989W        W65734   6.684  15.295  10.908
 5990W        W65735  34.430  14.296   2.734
 5991W        W65736   8.277  35.858   0.820
 5992W        W65737   2.844  15.796  10.508
 5993W        W65738  25.523   7.222   1.713
 5994W        W65739  30.603  40.468  13.424
 5995W        W65740   7.245   4.233  10.984
 5996W        W65741   1.405  35.377   9.592
 5997W        W65742  12.766  13.629   4.229
 5998W        W65743   6.286  13.214  12.861
 5999W        W65744   4.357  33.430   1.923
 6000W        W65745  11.815  15.127  13.408
 6001W        W65746  34.921  28.636  13.372
 6002W        W65747  33.944  30.096  12.429
 6003W        W65748   4.860  13.615   1.911
 6004W        W65749  14.809  15.328  11.481
 6005W        W65750  16.078  10.758  11.859
 6006W        W65751  24.008  12.312  10.508
 6007W        W65752  44.818  25.549  12.036
 6008W        W65753  17.719   8.274  11.874
 6009W        W65754  10.222   7.377   2.321
 6010W        W65755  27.090  39.432   1.239
 6011W        W65756  37.540  35.920   1.315
 6012W        W65757  29.576  24.084  11.125
 6013W        W65758  43.014  21.164  12.888
 6014W        W65759  28.067   9.840   2.262
 6015W        W65760   5.342   7.844   3.233
 6016W        W65761  27.622  44.491  14.285
 6017W        W65762  24.158   4.907   2.414
 6018W        W65763  27.020   3.432   5.303
 6019W        W65764  13.197  37.448   3.682
 6020W        W65765  25.703  23.596   5.118
 6021W        W65766  34.109  40.948  12.340
 6022W        W65767   4.718  30.147   5.192
 6023W        W65768  28.043  44.774   0.355
 6024W        W65769  29.121  26.551  13.872
 6025W        W65770  11.729  44.462   1.804
 6026W        W65771  24.677   5.306   2.371
 6027W        W65772  44.993   6.274   3.782
 6028W        W65773  11.824  17.173  11.095
 6029W        W65774  23.679   2.937   3.860
 6030W        W65775   2.300   9.674  12.470
 6031W        W65776  22.572  11.208   4.836
 6032W        W65777   4.919  35.934   1.719
 6033W        W65778  14.190  34.952  14.480
 6034W        W65779  27.505   6.374   0.456
 6035W        W65780  42.886  44.754   4.717
 6036W        W65781  22.562   6.403  13.378
 6037W        W65782  35.579  10.169   4.702
 6038W        W65783  41.885  13.742  11.905
 6039W        W65784  29.607  19.253   0.279
 6040W        W65785  25.109  38.377  12.982
 6041W        W65786  25.964  10.859  11.964
 6042W        W65787  38.839  26.158   0.252
 6043W        W65788  26.994  15.738  11.434
 6044W        W65789  39.464  33.114  10.420
 6045W        W65790  22.077   2.376  14.386
 6046W        W65791  32.116  33.955   1.384
 6047W        W65792  27.001  44.882   3.304
 6048W        W65793  38.406  26.985  14.976
 6049W        W65794  27.612  11.352   3.778
 6050W        W65795  36.584  20.618   1.882
 6051W        W65796   9.669   0.376   2.816
 6052W        W65797  33.405  26.090  10.896
 6053W        W65798  30.509  33.068  14.763
 6054W        W65799  17.644  37.841   4.787
 6055W        W65800  44.464  18.655   4.748
 6056W        W65801  12.827  14.715  10.540
 6057W        W65802  28.530   4.801  13.909
 6058W        W65803  33.975  43.326   1.366
 6059W        W65804   5.743  13.225  12.519
 6060W        W65805   5.904  35.365  14.428
 6061W        W65806  34.498  24.089   1.239
 6062W        W65807  16.744  28.555   3.382
 6063W        W65808  27.563   3.429  11.521
 6064W        W65809  28.499  40.326   3.724
 6065W        W65810   3.940  24.988  10.464
 6066W        W65811   4.297  24.542   1.823
 6067W        W65812  17.607  17.085   0.333
 6068W        W65813  34.916   7.405   1.763
 6069W        W65814  12.631  36.391   5.252
 6070W        W65815   0.306   2.259  11.468
 6071W        W65816  27.139  42.989  14.417
 6072W        W65817  29.151   0.827   3.299
 6073W        W65818   9.355  20.168   0.446
 6074W        W65819  43.941  30.909   2.191
 6075W        W65820  34.573  14.312   4.813
 6076W        W65821  13.118  22.593  13.801
 6077W        W65822  21.720   5.301  12.381
 6078W        W65823  33.881  37.365   0.825
 6079W        W65824  14.611   1.421   4.130
 6080W        W65825   6.753   3.816   3.810
 6081W        W65826  22.516   9.240   3.362
 6082W        W65827   4.768   9.234  11.954
 6083W        W65828   1.244  17.704   0.831
 6084W        W65829   1.356  25.625   1.922
 6085W        W65830   7.752  40.452   1.720
 6086W        W65831   1.423  32.554  11.527
 6087W        W65832  36.544   1.370   0.363
 6088W        W65833   6.214   8.784   5.124
 6089W        W65834   7.777  27.061  12.434
 6090W        W65835  13.117  26.685   1.253
 6091W        W65836  20.729   7.846   0.861
 6092W        W65837   0.760   2.341   2.292
 6093W        W65838  35.366  24.664   2.818
 6094W        W65839  16.301  43.366  14.899
 6095W        W65840  35.455  25.105   1.410
 6096W        W65841  41.034  17.610  13.803
 6097W        W65842   1.762   5.236   1.309
 6098W        W65843  21.165   0.342   5.774
 6099W        W65844  12.188   5.818  11.943
 6100W        W65845  40.009  35.597  12.349
 6101W        W65846  32.466  35.573  10.986
 6102W        W65847   1.468  36.457   3.814
 6103W        W65848  29.564  12.305   1.295
 6104W        W65849  18.136  42.300  10.991
 6105W        W65850   4.822  27.133  12.864
 6106W        W65851  44.849  11.361  11.865
 6107W        W65852  26.621   4.271   3.830
 6108W        W65853   1.380  13.810   2.869
 6109W        W65854  17.660  12.281  12.437
 6110W        W65855  43.923  42.781   3.340
 6111W        W65856  19.710   2.745   9.958
 6112W        W65857  35.387   1.457  12.039
 6113W        W65858  43.504  42.913  13.316
 6114W        W65859   4.355  19.672   4.138
 6115W        W65860  34.508   6.397  14.834
 6116W        W65861  23.645  37.489  13.429
 6117W        W65862  25.182   9.691  12.470
 6118W        W65863  32.907  14.712  13.322
 6119W        W65864  25.115  19.244  11.077
 6120W        W65865   4.392  25.172   0.467
 6121W        W65866  19.643  13.821   2.310
 6122W        W65867  29.118  19.748   0.789
 6123W        W65868  31.049  11.715  11.924
 6124W        W65869   5.931   2.781  10.978
 6125W        W65870   2.850  27.071  14.820
 6126W        W65871  33.007  26.101  12.344
 6127W        W65872  44.001  25.138  13.027
 6128W        W65873  44.980   1.342  11.385
 6129W        W65874  39.854  20.544  14.336
 6130W        W65875  24.101  40.858  12.901
 6131W        W65876  21.251  39.853  14.028
 6132W        W65877   2.794  41.357   3.270
 6133W        W65878  15.092  27.626   1.416
 6134W        W65879  16.714  15.324   0.410
 6135W        W65880  18.257  42.956  14.337
 6136W        W65881  40.935  33.106   4.671
 6137W        W65882  29.594  18.611   0.928
 6138W        W65883   4.342  33.423  10.407
 6139W        W65884  24.028  41.019  10.417
 6140W        W65885   8.215  11.841   1.891
 6141W        W65886  19.063  32.489   4.222
 6142W        W65887  36.519   8.365  14.469
 6143W        W65888  30.029  41.303   1.934
 6144W        W65889  15.677  42.018  10.036
 6145W        W65890  40.463  34.441   2.272
 6146W        W65891  42.872  15.091  14.515
 6147W        W65892  39.439  17.678  13.023
 6148W        W65893  33.559  24.158  12.442
 6149W        W65894  32.014  34.103   1.848
 6150W        W65895  13.222   6.326  12.069
 6151W        W65896  36.071  25.548   1.781
 6152W        W65897   8.808  25.004   4.168
 6153W        W65898  40.419  43.285   2.719
 6154W        W65899  23.706  10.355   0.345
 6155W        W65900  10.290  21.178  11.544
 6156W        W65901  13.781   6.709   0.759
 6157W        W65902  23.655  15.823   5.797
 6158W        W65903   8.896  32.912   1.267
 6159W        W65904   6.214  29.109   2.390
 6160W        W65905  37.340  44.005  14.800
 6161W        W65906  10.811  24.589  14.442
 6162W        W65907  11.160  43.478  14.319
 6163W        W65908   3.391  23.024  13.940
 6164W        W65909  36.020  21.186  13.000
 6165W        W65910  44.941  21.101   0.726
 6166W        W65911   7.314  28.565   4.179
 6167W        W65912   1.876   6.234  11.127
 6168W        W65913  35.403  13.720   2.338
 6169W        W65914  41.951  21.697   1.775
 6170W        W65915  20.668  18.217  14.324
 6171W        W65916  32.566  21.234  12.538
 6172W        W65917  36.843   1.844  13.836
 6173W        W65918  18.712  24.507  13.922
 6174W        W65919  23.614   9.306   3.380
 6175W        W65920  38.995  17.581  13.017
 6176W        W65921   5.428  39.342  14.760
 6177W        W65922  43.333  26.525   2.402
 6178W        W65923  40.973  43.915   0.926
 6179W        W65924   1.480  18.678  13.383
 6180W        W65925  37.916   3.368   3.355
 6181W        W65926  21.586  44.917  11.527
 6182W        W65927  13.170  38.904   1.790
 6183W        W65928  23.586   9.196  11.116
 6184W        W65929  40.320  25.038  13.476
 6185W        W65930   2.899  22.051  13.395
 6186W        W65931   0.479  10.699   0.909
 6187W        W65932  20.164  14.273  10.010
 6188W        W65933  33.030  29.163  14.332
 6189W        W65934  43.826  24.485  10.414
 6190W        W65935  19.109  30.423   0.470
 6191W        W65936  14.299  28.014   0.858
 6192W        W65937   8.181  40.888   3.837
 6193W        W65938  31.127   0.391  12.347
 6194W        W65939  36.958  27.064  13.908
 6195W        W65940  44.435  30.136  12.917
 6196W        W65941   4.410  13.330  13.795
 6197W        W65942  36.886  12.132  13.434
 6198W        W65943   4.754  38.555   3.212
 6199W        W65944  37.014  24.141  12.353
 6200W        W65945  44.006  37.888   3.355
 6201W        W65946  41.419  19.143  13.426
 6202W        W65947  17.699  19.047  14.805
 6203W        W65948  34.459   3.921   3.152
 6204W        W65949   4.840  35.385   3.274
 6205W        W65950  13.342  34.553   1.834
 6206W        W65951  18.169   4.764   1.420
 6207W        W65952   8.837  13.308   4.791
 6208W        W65953  41.971  31.597  10.474
 6209W        W65954  19.745  10.794   0.815
 6210W        W65955  30.025  16.782  12.395
 6211W        W65956  29.539  14.224  10.941
 6212W        W65957  20.111  19.187   2.714
 6213W        W65958  27.973   7.890   2.304
 6214W        W65959  33.483   8.402  11.469
 6215W        W65960   4.424  21.707  13.437
 6216W        W65961  30.513   0.893  13.948
 6217W        W65962  27.673   3.417   4.692
 6218W        W65963  17.758  15.101   3.867
 6219W        W65964  17.587   9.198  11.126
 6220W        W65965  28.124   5.794  12.044
 6221W        W65966  26.994  30.441  13.050
 6222W        W65967   4.704  40.526   2.212
 6223W        W65968   8.280  15.608   1.380
 6224W        W65969  27.620  44.759   0.265
 6225W        W65970  10.224   5.337  13.986
 6226W        W65971  40.334  39.486  14.832
 6227W        W65972  32.605  12.348   2.693
 6228W        W65973  14.682   2.815  11.480
 6229W        W65974   3.370  13.214   4.274
 6230W        W65975  22.608  40.497  10.435
 6231W        W65976  25.001  44.781  11.995
 6232W        W65977  14.823   4.325   0.356
 6233W        W65978  13.320  41.352  12.488
 6234W        W65979  29.027  35.515  13.885
 6235W        W65980  44.440  29.425  12.881
 6236W        W65981  39.431  39.939  14.861
 6237W        W65982  44.764  19.169  12.849
 6238W        W65983  12.641   3.856   1.788
 6239W        W65984   5.309  16.256  11.446
 6240W        W65985  35.078  29.097   1.857
 6241W        W65986   3.709  43.278  12.519
 6242W        W65987  24.703  29.656   1.238
 6243W        W65988  40.385  23.604   0.789
 6244W        W65989  16.316  30.961  11.574
 6245W        W65990  30.569  22.739  13.856
 6246W        W65991  43.407  40.974  12.057
 6247W        W65992  20.184  25.591   4.188
 6248W        W65993  15.252  17.160   2.705
 6249W        W65994   8.404  14.749  11.879
 6250W        W65995  36.067  34.100  11.513
 6251W        W65996  16.102  42.915   4.181
 6252W        W65997  33.074   1.773   1.711
 6253W        W65998  37.533   9.156   0.434
 6254W        W65999  10.277  18.098  10.000
 6255W        W66000  36.514   7.407   4.793
 6256W        W66001  13.334  38.484   1.701
 6257W        W66002   4.926  24.127  10.433
 6258W        W66003  37.064  38.506   2.884
 6259W        W66004   5.411  10.177  14.974
 6260W        W66005  36.842   7.757  14.800
 6261W        W66006  13.769  37.510   9.982
 6262W        W66007  27.998  33.604  14.375
 6263W        W66008  36.971  28.451  13.013
 6264W        W66009  18.712  17.215  14.510
 6265W        W66010  11.268  36.970  11.920
 6266W        W66011   2.939  28.491  10.558
 6267W        W66012  34.521   0.305   3.230
 6268W        W66013   8.799  33.037  13.057
 6269W        W66014  32.904   1.846   2.373
 6270W        W66015  23.996  44.795   2.837
 6271W        W66016  41.021  40.423   2.279
 6272W        W66017  41.536  31.454  11.089
 6273W        W66018  43.926  19.734   1.719
 6274W        W66019  29.089   4.263  14.872
 6275W        W66020  40.511   3.910   3.649
 6276W        W66021  28.948  13.775   1.255
 6277W        W66022   4.348   9.876   1.845
 6278W        W66023  12.753  19.603  13.817
 6279W        W66024  10.687  13.203  12.415
 6280W        W66025  31.498   2.460  10.904
 6281W        W66026  15.098  25.984  12.992
 6282W        W66027   6.387  37.468   1.916
 6283W        W66028  31.458  28.498   0.943
 6284W        W66029   5.705  26.693  10.020
 6285W        W66030   8.817  24.098  13.983
 6286W        W66031  19.189  23.184   1.723
 6287W        W66032  11.631  27.180   4.805
 6288W        W66033  39.467  40.361  13.825
 6289W        W66034   9.858  32.020  12.056
 6290W        W66035   1.387  44.828  12.920
 6291W        W66036  23.710  42.812   0.874
 6292W        W66037  25.584  24.152   1.796
 6293W        W66038  16.119  28.507  10.550
 6294W        W66039  17.660  14.601   3.632
 6295W        W66040   8.191  30.446  13.928
 6296W        W66041  30.154   7.387   2.241
 6297W        W66042  25.055  19.747   1.754
 6298W        W66043   5.700  29.015   1.719
 6299W        W66044  34.103  40.004  13.526
 6300W        W66045   2.364  10.315  14.820
 6301W        W66046  39.512   3.327   4.831
 6302W        W66047  24.123  16.601   5.208
 6303W        W66048  30.427  24.617  14.482
 6304W        W66049   7.278  19.221  13.321
 6305W        W66050  24.190   0.292   0.742
 6306W        W66051   0.866  23.614  11.881
 6307W        W66052  19.664  44.994   2.694
 6308W        W66053  34.939  41.530  14.403
 6309W        W66054  39.479  38.433   1.350
 6310W        W66055  27.559  13.245   2.368
 6311W        W66056  38.351   1.736   3.869
 6312W        W66057  26.462   8.347  13.429
 6313W        W66058  25.131  19.641   3.843
 6314W        W66059  19.169  33.513  12.363
 6315W        W66060   5.731  30.531   0.352
 6316W        W66061  42.322   7.312  12.943
 6317W        W66062   0.963  21.715  13.440
 6318W        W66063   9.241   3.869   4.352
 6319W        W66064  25.540   2.442  10.426
 6320W        W66065  25.216  44.957   0.442
 6321W        W66066  12.142  38.989  13.546
 6322W        W66067  33.931  31.523   1.856
 6323W        W66068   8.806  38.938   1.862
 6324W        W66069  26.098   9.279   2.285
 6325W        W66070  11.141  16.606  12.951
 6326W        W66071   1.923  43.967  10.897
 6327W        W66072  40.915  31.631   4.613
 6328W        W66073   0.275   0.315  14.955
 6329W        W66074   6.186  10.847   2.854
 6330W        W66075  24.722  23.652  13.463
 6331W        W66076   7.863  35.475   2.854
 6332W        W66077  11.646  11.724  12.073
 6333W        W66078   8.171  16.253   3.299
 6334W        W66079  36.432  39.808  13.404
 6335W        W66080  24.696   6.738  14.461
 6336W        W66081  26.678  19.225   3.254
 6337W        W66082  21.102  35.036   0.481
 6338W        W66083  14.165   5.927   1.850
 6339W        W66084  40.849  26.677  11.066
 6340W        W66085  41.501  13.351   2.743
 6341W        W66086  34.590  28.141  10.410
 6342W        W66087   5.435  39.423   4.289
 6343W        W66088  39.459   7.870   4.640
 6344W        W66089  21.236  38.913  13.806
 6345W        W66090  37.388  19.232   0.402
 6346W        W66091  14.099  17.127  12.517
 6347W        W66092  42.842  16.180   2.246
 6348W        W66093   5.384  35.013  10.913
 6349W        W66094   7.312   6.782   4.184
 6350W        W66095  29.613  10.693   4.723
 6351W        W66096  34.878   6.756   1.399
 6352W        W66097  42.872   7.393   0.306
 6353W        W66098  44.010  43.883   0.928
 6354W        W66099  34.050  28.014  10.567
 6355W        W66100  43.319   1.904   4.331
 6356W        W66101   7.766  10.142   2.832
 6357W        W66102   0.311  22.676  13.440
 6358W        W66103  37.369  28.027   3.313
 6359W        W66104   7.869  18.756  14.019
 6360W        W66105  37.338  29.922  12.483
 6361W        W66106  13.710  10.151  10.568
 6362W        W66107  18.158  28.097  13.408
 6363W        W66108   7.363   1.375  13.064
 6364W        W66109  27.657  34.579  12.524
 6365W        W66110  40.810  30.603  13.445
 6366W        W66111  30.153   4.868   0.909
 6367W        W66112  38.885   1.737   0.326
 6368W        W66113   6.827   3.238   0.483
 6369W        W66114  16.715  30.914   1.747
 6370W        W66115  38.069  23.585  13.365
 6371W        W66116   2.375  27.562  11.003
 6372W        W66117  12.681  14.295  11.597
 6373W        W66118  24.166  38.933  12.923
 6374W        W66119   8.854  43.824   2.349
 6375W        W66120   4.804  41.332  10.591
 6376W        W66121  30.140  31.532   3.183
 6377W        W66122  19.200  43.349   2.393
 6378W        W66123   2.373  20.113   3.280
 6379W        W66124  38.543  25.513   1.750
 6380W        W66125  44.926  13.174  11.897
 6381W        W66126   0.842  42.974  13.811
 6382W        W66127   1.256  34.512  11.573
 6383W        W66128  41.834  33.916   0.960
 6384W        W66129  43.278  33.427   1.849
 6385W        W66130   9.295   4.743   3.650
 6386W        W66131  33.966  33.587   1.844
 6387W        W66132  34.876  27.501  13.852
 6388W        W66133  13.186  26.968  10.447
 6389W        W66134  39.393   9.772   1.357
 6390W        W66135  44.838  15.274  13.529
 6391W        W66136  34.887  34.892  12.914
 6392W        W66137  13.781  36.081  14.804
 6393W        W66138  34.495  31.605  12.559
 6394W        W66139  24.084   0.463   3.633
 6395W        W66140  39.484  14.653  14.935
 6396W        W66141  29.049  40.440  12.379
 6397W        W66142  34.935   6.920   0.798
 6398W        W66143   5.707  41.913   3.161
 6399W        W66144  33.433  12.762   2.879
 6400W        W66145   2.408  29.610   2.878
 6401W        W66146  31.514  40.453  10.501
 6402W        W66147  44.762   1.959  11.099
 6403W        W66148   5.356  34.026   0.303
 6404W        W66149  22.200  19.570   1.759
 6405W        W66150  30.130  33.553  10.913
 6406W        W66151  10.698  37.457   4.738
 6407W        W66152   3.371  31.559  13.327
 6408W        W66153  28.050  24.618  11.592
 6409W        W66154   1.441  37.556  11.413
 6410W        W66155   4.243  37.014  12.989
 6411W        W66156  18.245  30.065   3.775
 6412W        W66157   5.435  19.772  10.476
 6413W        W66158  32.911  25.562   0.839
 6414W        W66159  24.500  20.203   1.697
 6415W        W66160  27.958  12.659   4.345
 6416W        W66161  14.759   5.819   0.260
 6417W        W66162   0.906   9.743   1.399
 6418W        W66163  32.624  21.684  11.451
 6419W        W66164  37.936  30.518  12.938
 6420W        W66165  27.636  27.642  14.380
 6421W        W66166  22.635  34.399  12.980
 6422W        W66167  13.750   7.282   2.418
 6423W        W66168  11.829  25.210  13.454
 6424W        W66169  27.000   9.846   4.247
 6425W        W66170  10.334  24.539   1.286
 6426W        W66171  43.014  14.724  11.857
 6427W        W66172  26.664  27.546  10.522
 6428W        W66173  40.393  44.263   3.792
 6429W        W66174  24.679  10.877  12.474
 6430W        W66175  11.312  10.354  13.487
 6431W        W66176  33.546  14.305  11.904
 6432W        W66177  42.005  34.917   3.315
 6433W        W66178  17.254  37.550  10.638
 6434W        W66179  36.396   1.839  12.971
 6435W        W66180  16.749   9.849  11.560
 6436W        W66181   1.901  28.554  10.060
 6437W        W66182  25.999  20.091   1.752
 6438W        W66183  11.373   0.907   2.283
 6439W        W66184   5.737   6.288   0.415
 6440W        W66185  14.812  29.032  11.383
 6441W        W66186  33.044   4.717  14.991
 6442W        W66187  36.097  30.468   0.748
 6443W        W66188  42.434  23.014   1.452
 6444W        W66189  10.703  23.653  13.421
 6445W        W66190  42.881  24.017  10.991
 6446W        W66191   3.292  17.210  12.476
 6447W        W66192  33.438   7.365   3.761
 6448W        W66193   7.767  22.117   1.795
 6449W        W66194  15.808  39.325   2.188
 6450W        W66195  13.323  25.664   1.769
 6451W        W66196  22.133  29.661   4.153
 6452W        W66197  22.627  39.909   2.352
 6453W        W66198   4.288  41.025   2.394
 6454W        W66199   3.452  38.041  13.471
 6455W        W66200  12.226  39.944   0.894
 6456W        W66201  26.630  27.046  12.059
 6457W        W66202   2.926  39.834  13.940
 6458W        W66203  40.431  13.683  14.810
 6459W        W66204  41.523  37.380  13.921
 6460W        W66205  34.926  20.534   1.862
 6461W        W66206  36.349  24.502  11.973
 6462W        W66207   6.259  25.991   0.386
 6463W        W66208  20.685   8.265   2.397
 6464W        W66209  14.210  26.036  14.387
 6465W        W66210  13.670  36.516  14.367
 6466W        W66211  42.490  40.040  14.466
 6467W        W66212  44.437  41.318   2.888
 6468W        W66213   2.741  25.207  10.563
 6469W        W66214  23.073  31.514   0.289
 6470W        W66215  27.560  18.222  10.602
 6471W        W66216  36.873  10.806   4.328
 6472W        W66217   7.333  26.557  14.809
 6473W        W66218  37.938  26.488   1.930
 6474W        W66219  19.211  40.316   1.397
 6475W        W66220  11.660  12.261  13.504
 6476W        W66221  12.164   9.709  13.885
 6477W        W66222  28.592  29.115   5.122
 6478W        W66223  43.387  33.385  14.838
 6479W        W66224  40.957   5.395  11.520
 6480W        W66225  17.234  28.117   1.792
 6481W        W66226  31.527  10.230  14.918
 6482W        W66227  44.289  15.690  10.493
 6483W        W66228  22.686  26.987  10.524
 6484W        W66229  43.840  32.439  13.848
 6485W        W66230  40.963  36.989   1.411
 6486W        W66231  11.217  21.741  10.420
 6487W        W66232  34.459  14.726   0.261
 6488W        W66233  14.134  20.231   0.853
 6489W        W66234  39.987   4.417  11.573
 6490W        W66235  11.341  11.799   0.454
 6491W        W66236  35.909  10.736   3.322
 6492W        W66237  42.448   5.812   1.723
 6493W        W66238  28.680   0.789  11.086
 6494W        W66239   8.203  21.551   0.956
 6495W        W66240  40.004  13.627  12.066
 6496W        W66241  18.229   0.826  11.524
 6497W        W66242  43.775  42.001   3.862
 6498W        W66243  35.477  39.503   2.382
 6499W        W66244  19.721  21.708  12.924
 6500W        W66245  21.619   2.390   2.840
 6501W        W66246  33.459  43.816   4.295
 6502W        W66247  27.193  10.172   4.679
 6503W        W66248  44.870  12.211  14.940
 6504W        W66249  22.509   0.326  14.998
 6505W        W66250  36.473  18.775   2.824
 6506W        W66251  23.546  14.103   3.154
 6507W        W66252  11.316  23.233   2.766
 6508W        W66253  35.894   1.318  12.966
 6509W        W66254  32.096  16.714   4.288
 6510W        W66255  20.723  41.986   1.421
 6511W        W66256   0.413  44.835   0.282
 6512W        W66257   5.402  23.203  10.417
 6513W        W66258   2.765   3.215   0.362
 6514W        W66259  10.855  14.102   1.849
 6515W        W66260  34.009  26.607   3.260
 6516W        W66261  19.192  43.298   3.707
 6517W        W66262   7.879  35.933   4.281
 6518W        W66263  16.587  19.132  14.911
 6519W        W66264   5.688   1.256   4.699
 6520W        W66265  18.666   7.316  12.380
 6521W        W66266   2.259  39.553   0.877
 6522W        W66267  11.229  32.131  11.925
 6523W        W66268  22.041   1.392  12.923
 6524W        W66269   1.274  39.478   0.473
 6525W        W66270  32.128  16.649  12.051
 6526W        W66271  15.777  15.121   3.247
 6527W        W66272  23.986  32.584   2.819
 6528W        W66273  37.435  16.713   4.262
 6529W        W66274  33.089  20.065  12.492
 6530W        W66275  14.178  25.109   0.358
 6531W        W66276  21.034   0.949  14.939
 6532W        W66277  23.706  33.435  11.583
 6533W        W66278  44.496  25.187  14.431
 6534W        W66279  36.458  17.090   4.225
 6535W        W66280  39.870  18.764  13.963
 6536W        W66281  41.370  18.781   3.756
 6537W        W66282  36.504  12.253   1.220
 6538W        W66283  40.485  24.170  12.340
 6539W        W66284  22.121  24.041  13.000
 6540W        W66285  34.600   9.754   4.625
 6541W        W66286  38.072  22.676   4.188
 6542W        W66287  36.955  14.118  11.035
 6543W        W66288  40.899   0.323  12.465
 6544W        W66289  41.890   0.920   2.361
 6545W        W66290  23.987  16.243   5.257
 6546W        W66291  23.218  23.069   2.375
 6547W        W66292  28.080  18.728  13.883
 6548W        W66293   6.247   7.217  10.040
 6549W        W66294  31.028  40.543  10.161
 6550W        W66295  24.010   6.218   4.211
 6551W        W66296  16.614  29.606  12.857
 6552W        W66297  15.312  19.230   2.837
 6553W        W66298  16.805  38.356  12.020
 6554W        W66299  35.603  30.023   2.815
 6555W        W66300  29.025  18.103   1.256
 6556W        W66301  20.042  28.066   2.784
 6557W        W66302  35.440  14.763   1.317
 6558W        W66303  37.478  33.524   0.387
 6559W        W66304  40.350  39.923  10.888
 6560W        W66305   6.286  33.080   1.428
 6561W        W66306   1.432  25.029  11.865
 6562W        W66307  10.782  29.537  10.958
 6563W        W66308  36.046  23.647   4.212
 6564W        W66309  32.526  22.228   1.403
 6565W        W66310  43.932  19.149   4.808
 6566W        W66311  12.202  12.665  13.925
 6567W        W66312  22.537  41.513  11.439
 6568W        W66313  40.317  19.710   5.274
 6569W        W66314  17.706   1.974   3.713
 6570W        W66315   6.732  26.685  12.883
 6571W        W66316  11.702  26.679  12.841
 6572W        W66317  14.147   0.889   4.800
 6573W        W66318  40.385  15.813  13.849
 6574W        W66319  15.180  20.116  11.592
 6575W        W66320  40.438  32.455  12.030
 6576W        W66321  26.081  12.720  14.975
 6577W        W66322  23.214  37.959   3.829
 6578W        W66323  30.603  26.140  13.508
 6579W        W66324  19.212  21.242   3.376
 6580W        W66325  30.910   4.338   1.321
 6581W        W66326  31.990  18.592  14.468
 6582W        W66327   6.727   0.958  12.945
 6583W        W66328   5.850  37.578   0.398
 6584W        W66329  19.763  19.534   3.227
 6585W        W66330  44.828  19.552  13.339
 6586W        W66331   4.813   7.282   1.345
 6587W        W66332  44.497  26.559  13.998
 6588W        W66333   2.456   7.681  13.826
 6589W        W66334  17.104   0.453   3.770
 6590W        W66335   0.264  35.556  13.963
 6591W        W66336  41.843  24.987   3.669
 6592W        W66337  29.565   8.871  14.974
 6593W        W66338   9.152   7.781   4.117
 6594W        W66339  25.687  43.954   0.784
 6595W        W66340  27.532  34.996   1.876
 6596W        W66341  35.363  29.556  13.392
 6597W        W66342  14.703   1.930  13.443
 6598W        W66343  15.155  16.257   2.665
 6599W        W66344  30.052  41.522  10.913
 6600W        W66345  23.140   0.965   0.286
 6601W        W66346  34.118  43.316   3.251
 6602W        W66347   6.201  27.140   3.758
 6603W        W66348  37.890   0.807   2.244
 6604W        W66349  23.107  25.968   4.211
 6605W        W66350  28.495  33.501  14.008
 6606W        W66351  36.983  32.481   3.191
 6607W        W66352  36.927  42.327  11.540
 6608W        W66353  11.264  33.012  14.918
 6609W        W66354   3.322   0.279  12.412
 6610W        W66355  25.041  20.255  14.336
 6611W        W66356  34.021   7.907   0.371
 6612W        W66357  24.215   9.181  14.015
 6613W        W66358  28.048  17.132  11.608
 6614W        W66359  24.076   2.768   1.408
 6615W        W66360  41.006  13.289  13.015
 6616W        W66361  14.318   2.421   2.772
 6617W        W66362   1.479  40.025   1.217
 6618W        W66363  32.922   3.250   3.306
 6619W        W66364  16.148   6.767   3.829
 6620W        W66365  12.194  43.847   3.307
 6621W        W66366  21.714  18.640  13.053
 6622W        W66367  21.125  24.610   4.816
 6623W        W66368   9.709  25.987   0.258
 6624W        W66369  42.398  14.222  14.861
 6625W        W66370   6.781  34.022  12.370
 6626W        W66371  33.593  33.461  13.018
 6627W        W66372  27.962  29.135   0.847
 6628W        W66373  42.016   6.881  10.545
 6629W        W66374   0.342   4.300   4.169
 6630W        W66375  44.379  43.447  12.460
 6631W        W66376   9.180  32.529  11.112
 6632W        W66377  18.225  42.332   1.856
 6633W        W66378  40.006  16.148   2.211
 6634W        W66379  25.501   3.376  14.988
 6635W        W66380  17.779   7.261   0.876
 6636W        W66381  13.128  12.149  12.569
 6637W        W66382  26.175  13.267   1.880
 6638W        W66383  18.698   2.854   3.173
 6639W        W66384   0.398  35.996  11.371
 6640W        W66385  33.596  29.000   3.833
 6641W        W66386   4.259  33.084  14.300
 6642W        W66387   3.375  23.201  13.310
 6643W        W66388  23.736   3.382  13.369
 6644W        W66389  16.674  43.937  13.929
 6645W        W66390  43.825  25.491   1.775
 6646W        W66391  39.931   4.724  11.387
 6647W        W66392  39.380  42.509  11.062
 6648W        W66393  11.675  41.016   2.767
 6649W        W66394   5.805  27.477  10.429
 6650W        W66395  17.239  17.569  12.961
 6651W        W66396  25.539   6.712  12.837
 6652W        W66397   1.323  43.017   2.724
 6653W        W66398  38.897   9.662   1.748
 6654W        W66399  13.757   1.974   1.214
 6655W        W66400  30.132  36.953   2.312
 6656W        W66401  17.558   5.300  10.638
 6657W        W66402  12.138  22.199   1.850
 6658W        W66403  41.906  42.402   0.896
 6659W        W66404  34.064   9.765  14.386
 6660W        W66405  21.150  35.931   3.355
 6661W        W66406  41.372  39.008   0.263
 6662W        W66407  27.975  16.698   4.749
 6663W        W66408  16.700   3.797   0.420
 6664W        W66409  22.639  17.087   2.826
 6665W        W66410  23.121   1.407   0.854
 6666W        W66411  21.734  15.799   1.795
 6667W        W66412  24.227  44.284  12.368
 6668W        W66413   4.235  37.054  14.413
 6669W        W66414   2.903  15.149   5.668
 6670W        W66415  22.116  27.129   4.762
 6671W        W66416  23.142  21.141   1.860
 6672W        W66417  42.830  18.250  13.314
 6673W        W66418  40.477   3.938   0.932
 6674W        W66419  35.077  42.962   3.763
 6675W        W66420  36.493   8.748   4.689
 6676W        W66421   5.227  26.138  11.397
 6677W        W66422  16.143  30.013  12.840
 6678W        W66423   9.284  36.934  11.376
 6679W        W66424   0.407  13.147   2.841
 6680W        W66425  26.180   2.930  13.850
 6681W        W66426  17.261  21.718  13.017
 6682W        W66427  37.085  29.967   2.830
 6683W        W66428   9.842  19.604  14.959
 6684W        W66429  34.472  34.998   2.208
 6685W        W66430  27.043  40.941  12.017
 6686W        W66431  35.477  36.541  14.344
 6687W        W66432  19.111   0.280  11.026
 6688W        W66433  23.037   3.822  12.997
 6689W        W66434  10.768   6.340   0.768
 6690W        W66435  37.384  35.433   0.474
 6691W        W66436  13.826  25.194  12.359
 6692W        W66437  13.111  29.582   2.806
 6693W        W66438  44.338   0.411  14.996
 6694W        W66439  42.468  38.967   0.347
 6695W        W66440  27.467  39.009  10.994
 6696W        W66441  33.488   6.690   2.752
 6697W        W66442  29.547   1.758   4.226
 6698W        W66443  20.189  28.108   9.944
 6699W        W66444   1.280  35.908  11.869
 6700W        W66445  10.862  28.559  13.492
 6701W        W66446   1.887  44.344   3.246
 6702W        W66447   2.422   8.840   3.382
 6703W        W66448   6.264  41.930   2.889
 6704W        W66449  35.549  12.793   1.889
 6705W        W66450  11.709  38.564  14.300
 6706W        W66451  11.818  16.705  11.080
 6707W        W66452  11.242  26.552   4.716
 6708W        W66453   3.257  14.731  11.384
 6709W        W66454  35.991  19.604  12.082
 6710W        W66455  14.684  30.421   3.718
 6711W        W66456  41.529   7.895   3.307
 6712W        W66457  22.513  41.852  10.935
 6713W        W66458  29.588  11.651   4.142
 6714W        W66459  19.270  37.936   0.280
 6715W        W66460  13.800  19.155  12.500
 6716W        W66461   7.229  36.019  13.506
 6717W        W66462  22.040  12.126  13.872
 6718W        W66463  40.534  22.998   2.674
 6719W        W66464  43.417  26.957   3.255
 6720W        W66465  14.276  30.012   1.839
 6721W        W66466  38.948  40.992   1.399
 6722W        W66467  32.089   0.965  10.914
 6723W        W66468  37.536  38.025  13.545
 6724W        W66469   4.919  20.073  10.484
 6725W        W66470  43.923  26.643   2.678
 6726W        W66471  18.619  40.397   5.299
 6727W        W66472  20.749  26.524  13.315
 6728W        W66473  37.489  14.748  11.953
 6729W        W66474  12.116  28.960   2.867
 6730W        W66475   6.243  26.078   2.200
 6731W        W66476  29.641  13.120   4.204
 6732W        W66477  31.016   8.707  14.340
 6733W        W66478  29.643   5.248   2.822
 6734W        W66479  35.564   2.324  13.311
 6735W        W66480  33.060  37.502  12.371
 6736W        W66481   5.410  36.591  14.982
 6737W        W66482   3.852   8.206  12.357
 6738W        W66483  35.987  19.720   3.269
 6739W        W66484  27.540  22.737  11.107
 6740W        W66485  37.435  30.065   1.745
 6741W        W66486  14.651   8.795  13.308
 6742W        W66487  33.619  10.796  12.973
 6743W        W66488  13.624  28.569  10.932
 6744W        W66489  38.021  29.595  13.510
 6745W        W66490   7.741   0.985  13.060
 6746W        W66491  22.739  43.007  12.541
 6747W        W66492   8.322  35.978  10.520
 6748W        W66493  37.058   7.254  13.480
 6749W        W66494  24.609   0.263  10.537
 6750W        W66495  13.316   3.728   1.700
 6751W        W66496  15.291  36.027  13.916
 6752W        W66497  26.493  36.369  13.360
 6753W        W66498   1.830  18.296  12.011
 6754W        W66499  39.366  24.543   4.600
 6755W        W66500   7.892   3.255   1.871
 6756W        W66501   9.200  28.004   1.837
 6757W        W66502  27.516  22.180   1.831
 6758W        W66503  34.091  38.013  12.388
 6759W        W66504  21.075  10.246  14.289
 6760W        W66505   5.312  25.085   4.648
 6761W        W66506   7.850  10.644  10.466
 6762W        W66507  19.736  41.943   4.754
 6763W        W66508  39.410   8.162  12.005
 6764W        W66509   5.851  37.357   3.370
 6765W        W66510  19.631  35.868  12.997
 6766W        W66511  26.132  43.304  13.485
 6767W        W66512   0.359  14.198   2.394
 6768W        W66513  36.449  30.927  14.010
 6769W        W66514  39.336  21.174   4.327
 6770W        W66515   4.393  14.245  10.498
 6771W        W66516  40.465  29.562  10.954
 6772W        W66517  31.452  39.817   4.120
 6773W        W66518   7.673   0.857  10.485
 6774W        W66519  44.281  35.581   2.808
 6775W        W66520   3.387  10.677  14.823
 6776W        W66521  41.901  12.349  10.900
 6777W        W66522  42.001  40.443   4.621
 6778W        W66523   8.180  22.609  12.470
 6779W        W66524   9.708   3.459   4.698
 6780W        W66525  17.723  27.072  14.879
 6781W        W66526  44.376  27.085   4.333
 6782W        W66527   2.332   9.357   3.348
 6783W        W66528  15.709  23.611   3.688
 6784W        W66529   1.396   3.893   0.902
 6785W        W66530  33.451   7.337   0.785
 6786W        W66531  21.695  10.804   2.415
 6787W        W66532  24.515  12.716  13.508
 6788W        W66533  32.999  42.844  10.424
 6789W        W66534  19.258  21.719  11.526
 6790W        W66535  23.496  41.298   4.203
 6791W        W66536   6.685  44.367  14.312
 6792W        W66537  37.403  20.119   0.415
 6793W        W66538   6.212   5.301   4.302
 6794W        W66539   8.794  15.102   3.275
 6795W        W66540  16.595  33.447  13.930
 6796W        W66541  32.031  34.453   0.365
 6797W        W66542  33.055  23.502   0.272
 6798W        W66543  26.965   4.261   4.824
 6799W        W66544   0.977  29.609  11.918
 6800W        W66545   8.392  40.872   2.858
 6801W        W66546  21.541  44.797   4.736
 6802W        W66547   2.424  39.014  12.445
 6803W        W66548  39.413   2.373   1.396
 6804W        W66549  25.535   8.319  12.927
 6805W        W66550  30.982  44.876  13.480
 6806W        W66551  39.490   9.768   2.763
 6807W        W66552  37.494  30.545   3.733
 6808W        W66553  36.365  26.176  10.933
 6809W        W66554   4.420  33.606   0.895
 6810W        W66555  40.817  44.320   1.424
 6811W        W66556  24.494  10.657  11.930
 6812W        W66557   7.172   2.348   2.891
 6813W        W66558  23.097  16.205   2.895
 6814W        W66559  42.520  34.528  12.378
 6815W        W66560   2.763  12.664   3.356
 6816W        W66561   3.314   3.952   3.741
 6817W        W66562   5.335  20.060  14.360
 6818W        W66563  26.179  15.152   3.257
 6819W        W66564  35.529  22.625  14.367
 6820W        W66565  13.826  26.166   2.249
 6821W        W66566   9.242  32.122   1.450
 6822W        W66567  23.548   4.938   1.236
 6823W        W66568   1.355  44.435   2.212
 6824W        W66569   5.384  16.782  10.590
 6825W        W66570   4.797  15.213  14.417
 6826W        W66571  18.657  18.671   3.743
 6827W        W66572  11.837  16.216   1.813
 6828W        W66573  32.533  18.748   4.130
 6829W        W66574  37.973  37.032   3.360
 6830W        W66575  19.161  23.621  12.980
 6831W        W66576  13.609  41.989  12.405
 6832W        W66577  21.092  18.268   2.242
 6833W        W66578  44.471  25.182  10.443
 6834W        W66579  33.498  31.591  13.347
 6835W        W66580  37.491  19.263  10.952
 6836W        W66581  38.871  39.340   2.322
 6837W        W66582  12.253  44.926   0.455
 6838W        W66583  30.959  28.007  10.623
 6839W        W66584  24.031   5.893   4.769
 6840W        W66585  23.638  43.970   0.961
 6841W        W66586   3.916  44.790   1.733
 6842W        W66587  26.477  12.712  10.077
 6843W        W66588  10.701   0.985   1.740
 6844W        W66589   3.303   4.424  10.963
 6845W        W66590   5.697  27.058   4.209
 6846W        W66591  37.065  27.689  14.909
 6847W        W66592  19.246  42.869   1.834
 6848W        W66593   1.309  39.496   4.140
 6849W        W66594   9.733   3.751   0.331
 6850W        W66595  17.693  28.513  11.486
 6851W        W66596  20.246   7.279  11.087
 6852W        W66597  38.328   9.322  13.969
 6853W        W66598  15.091  41.923  14.411
 6854W        W66599  15.232  39.940  12.009
 6855W        W66600   7.286   7.894   3.163
 6856W        W66601   2.774   5.281   3.347
 6857W        W66602  29.520  26.052   0.294
 6858W        W66603  24.493   7.186  11.022
 6859W        W66604  44.834  17.172  14.450
 6860W        W66605  11.196   8.168  14.392
 6861W        W66606   2.799   5.276  13.842
 6862W        W66607  13.769  28.462  13.474
 6863W        W66608   0.491  16.201   1.244
 6864W        W66609  29.538  39.824  11.991
 6865W        W66610  29.931  23.629  10.442
 6866W        W66611  40.926  15.776  10.588
 6867W        W66612  35.029  36.495   4.642
 6868W        W66613  44.782  30.113  14.002
 6869W        W66614   1.789  34.423   2.311
 6870W        W66615  14.310  42.328   2.196
 6871W        W66616   8.269  16.595   3.217
 6872W        W66617   9.159   9.352   0.864
 6873W        W66618  42.309  37.362   1.419
 6874W        W66619  17.731  11.731   2.406
 6875W        W66620   1.434  22.616  14.430
 6876W        W66621  36.023   8.335   0.808
 6877W        W66622  10.774  30.957   2.857
 6878W        W66623  11.661   6.311  13.041
 6879W        W66624  40.438  28.524   0.962
 6880W        W66625  35.101   1.880  12.850
 6881W        W66626  26.622  12.161   2.781
 6882W        W66627  34.521   2.789  13.795
 6883W        W66628  18.287  36.416   1.708
 6884W        W66629  18.092  42.340  13.957
 6885W        W66630   7.396   6.359  12.390
 6886W        W66631  15.779  20.756   4.255
 6887W        W66632  35.578  36.088   0.932
 6888W        W66633  12.222  21.204  14.405
 6889W        W66634  36.056  10.174   2.253
 6890W        W66635  33.877   8.660  12.419
 6891W        W66636  22.245  21.106  14.333
 6892W        W66637  22.065  24.138  14.930
 6893W        W66638  36.852  21.104   3.254
 6894W        W66639  22.066  38.874   2.708
 6895W        W66640  24.017  37.054  11.100
 6896W        W66641  26.488  31.050   2.322
 6897W        W66642   4.894  32.992   1.289
 6898W        W66643  10.144  24.056   4.324
 6899W        W66644  15.591   3.754   2.412
 6900W        W66645   7.297  41.966  13.320
 6901W        W66646  13.614  40.799  14.961
 6902W        W66647  20.689  44.452  14.963
 6903W        W66648  38.064  14.268   1.421
 6904W        W66649  15.321   5.719   0.952
 6905W        W66650  28.948  14.196   4.629
 6906W        W66651  29.667  26.567  12.557
 6907W        W66652   5.856  40.855  12.456
 6908W        W66653  15.158  14.732   3.660
 6909W        W66654  29.965  25.590   2.704
 6910W        W66655  23.656  44.502  11.551
 6911W        W66656  17.222   9.730   4.326
 6912W        W66657  34.442   0.780   0.408
 6913W        W66658  17.635  15.169   2.902
 6914W        W66659  10.178  17.153  13.313
 6915W        W66660  16.121  28.554   3.255
 6916W        W66661  17.725  18.194  13.827
 6917W        W66662  30.618   0.825  10.629
 6918W        W66663  37.951  43.943  12.435
 6919W        W66664  13.800  38.033   4.201
 6920W        W66665  37.393  41.959  14.952
 6921W        W66666   2.373  36.552  11.868
 6922W        W66667  15.589  35.857   2.818
 6923W        W66668  12.690   2.903   4.704
 6924W        W66669   2.884  25.689   4.617
 6925W        W66670  41.430   9.314   4.630
 6926W        W66671  14.129   3.761   3.181
 6927W        W66672  16.589   2.911   2.683
 6928W        W66673  41.930  19.608  10.555
 6929W        W66674  15.241  13.157  11.493
 6930W        W66675  23.733  31.067   3.764
 6931W        W66676  43.952  18.669   4.318
 6932W        W66677   8.224   6.893  11.470
 6933W        W66678   3.790  15.805   3.645
 6934W        W66679  39.481  37.433   2.666
 6935W        W66680  38.908  16.131  12.931
 6936W        W66681  22.714  28.125  12.431
 6937W        W66682  14.241  16.293   4.308
 6938W        W66683   5.764  17.626   3.192
 6939W        W66684   1.901   2.768   3.707
 6940W        W66685  18.069  18.610   0.921
 6941W        W66686   1.449  38.886  10.922
 6942W        W66687  26.632  10.873  12.062
 6943W        W66688  17.197  30.512   1.316
 6944W        W66689  18.071   7.825   2.738
 6945W        W66690  14.623  40.931  11.952
 6946W        W66691  18.287  36.048  14.443
 6947W        W66692  38.475  37.880  13.440
 6948W        W66693  32.483  42.801   1.357
 6949W        W66694  19.233  18.195   4.637
 6950W        W66695  37.418  18.243  14.311
 6951W        W66696   3.746  19.258   0.468
 6952W        W66697  40.874  10.255   0.940
 6953W        W66698  36.098  13.292  11.079
 6954W        W66699  33.561  22.589  11.115
 6955W        W66700  34.576   5.880   1.698
 6956W        W66701  31.014   8.344   2.402
 6957W        W66702  27.686   6.218   0.757
 6958W        W66703  33.457   5.306   5.164
 6959W        W66704   5.393  15.137  10.973
 6960W        W66705   6.309  13.616   2.368
 6961W        W66706  14.751   9.765  13.493
 6962W        W66707  34.540  28.513   4.120
 6963W        W66708  29.549  34.534   4.165
 6964W        W66709  25.219  34.544   1.929
 6965W        W66710  12.202  27.491   1.403
 6966W        W66711  32.595  23.683   5.170
 6967W        W66712  15.244  38.046  13.942
 6968W        W66713  15.595  17.298   2.203
 6969W        W66714   4.755   5.872  13.412
 6970W        W66715  22.105  36.096  11.502
 6971W        W66716   5.214  42.377  10.569
 6972W        W66717  12.658  13.695  11.025
 6973W        W66718  22.197  43.356  10.897
 6974W        W66719  33.563  28.989   0.802
 6975W        W66720  29.047   5.363   0.779
 6976W        W66721  27.183  30.970   4.624
 6977W        W66722  36.095  18.791   5.710
 6978W        W66723  42.323   2.421  14.403
 6979W        W66724  34.940  16.123   2.813
 6980W        W66725   4.322  36.422   2.251
 6981W        W66726  26.498  29.599   1.843
 6982W        W66727  18.140  38.515   2.199
 6983W        W66728  42.823  39.983   2.273
 6984W        W66729  15.717  10.369   5.216
 6985W        W66730  30.146  25.476  14.890
 6986W        W66731  21.571  34.955   5.108
 6987W        W66732  43.469  16.279   4.119
 6988W        W66733  35.871  26.540   0.435
 6989W        W66734  41.423  35.450   1.297
 6990W        W66735   3.440  18.603  13.885
 6991W        W66736   1.786  23.054   3.634
 6992W        W66737  22.596  18.642   3.230
 6993W        W66738  23.705  25.047   2.788
 6994W        W66739  14.327  26.536  13.378
 6995W        W66740  10.333   1.399   3.752
 6996W        W66741  36.079  20.234  10.151
 6997W        W66742  42.340  29.987  11.857
 6998W        W66743  42.967   3.441   1.330
 6999W        W66744  21.516  39.498  14.976
 7000W        W66745  42.425  16.225  14.296
 7001W        W66746  32.899  32.123  11.373
 7002W        W66747  13.735   0.384   0.772
 7003W        W66748  35.504  14.273   2.702
 7004W        W66749  22.161   6.682  11.401
 7005W        W66750  11.219   3.346   3.647
 7006W        W66751  11.171   3.411  12.383
 7007W        W66752  32.979  21.204   1.443
 7008W        W66753  14.649   3.739   3.783
 7009W        W66754  43.004  12.351   0.924
 7010W        W66755   5.719  40.491   1.785
 7011W        W66756  27.118   6.786  11.491
 7012W        W66757  43.935  22.561  12.494
 7013W        W66758   7.206  34.499  11.378
 7014W        W66759  27.654  29.100   4.754
 7015W        W66760   5.869   0.489  11.409
 7016W        W66761  33.567  22.130  13.933
 7017W        W66762  37.479  13.643  13.319
 7018W        W66763   0.308  42.500   0.747
 7019W        W66764  15.236  24.534  11.037
 7020W        W66765   5.228  35.068   2.696
 7021W        W66766  44.299  24.683   2.756
 7022W        W66767   5.232   3.757  14.475
 7023W        W66768  36.445  31.529   2.898
 7024W        W66769  36.501   8.663   4.155
 7025W        W66770  27.533  44.412  14.840
 7026W        W66771   6.313   0.986  14.472
 7027W        W66772  29.427  39.864   3.318
 7028W        W66773  27.527   5.253   3.374
 7029W        W66774  10.245  35.934   2.366
 7030W        W66775  11.803   5.879  13.831
 7031W        W66776   2.286  35.409  10.982
 7032W        W66777  11.329   4.786  13.387
 7033W        W66778  11.658  14.710  14.276
 7034W        W66779  39.945   4.341   3.152
 7035W        W66780   9.843  28.168   4.707
 7036W        W66781   0.488  35.965  11.896
 7037W        W66782  34.913   3.761  13.041
 7038W        W66783   8.848  13.791  11.084
 7039W        W66784  31.015  43.463   1.833
 7040W        W66785  35.853  36.091   0.862
 7041W        W66786  44.946   1.811  12.017
 7042W        W66787  15.109  37.937   1.345
 7043W        W66788  39.971  28.443  12.000
 7044W        W66789   1.843  15.674   2.786
 7045W        W66790   4.745  33.962   1.450
 7046W        W66791  40.424  34.894   1.902
 7047W        W66792  22.575   9.858  14.882
 7048W        W66793  37.528  15.740   5.257
 7049W        W66794  18.714  25.095   2.673
 7050W        W66795  38.484   7.721  10.594
 7051W        W66796  17.631  10.154   3.742
 7052W        W66797  18.709   8.820  13.453
 7053W        W66798  30.100  26.117  12.915
 7054W        W66799  40.370  12.233  13.362
 7055W        W66800  37.562  20.201  14.414
 7056W        W66801  22.550  40.858  11.554
 7057W        W66802   9.850  34.389   0.884
 7058W        W66803  14.222  15.129  12.437
 7059W        W66804  32.915  43.828   4.209
 7060W        W66805  16.155   5.314  14.892
 7061W        W66806  33.097   2.796  12.969
 7062W        W66807  38.939  27.482   4.764
 7063W        W66808  37.462  11.340   1.432
 7064W        W66809  32.914  15.801   3.832
 7065W        W66810  15.653  39.010   2.741
 7066W        W66811  19.090  30.552  14.803
 7067W        W66812  11.648  12.147  11.520
 7068W        W66813  44.419  26.472  13.343
 7069W        W66814  34.872   5.268  13.456
 7070W        W66815   8.347  16.749  10.619
 7071W        W66816  30.548  22.701  14.320
 7072W        W66817   9.243  32.910  13.058
 7073W        W66818  36.533  36.347  10.932
 7074W        W66819  22.719  41.373  12.990
 7075W        W66820  18.718   1.771   5.082
 7076W        W66821  26.126  10.836   0.871
 7077W        W66822  24.102   7.197  12.853
 7078W        W66823  41.427  20.711   2.680
 7079W        W66824   4.822  23.193   2.726
 7080W        W66825  27.585  29.451  12.896
 7081W        W66826  26.175  15.712   0.908
 7082W        W66827  33.474  21.627  12.374
 7083W        W66828  21.667  12.706   2.753
 7084W        W66829  31.089   6.774   5.297
 7085W        W66830  40.980  26.574  10.406
 7086W        W66831   0.258  14.640  13.916
 7087W        W66832  10.165   1.894   3.808
 7088W        W66833  29.008  40.497   3.365
 7089W        W66834  44.502  34.881  11.997
 7090W        W66835  30.084  20.031  13.825
 7091W        W66836  38.369  29.570  10.966
 7092W        W66837  13.680   8.292   4.676
 7093W        W66838   3.401  23.654   9.964
 7094W        W66839  40.820  17.093   1.909
 7095W        W66840  13.738  21.190  14.825
 7096W        W66841  12.624   1.822  14.821
 7097W        W66842  24.019   4.777   4.197
 7098W        W66843  42.859  39.342  10.573
 7099W        W66844  24.679  26.090   1.365
 7100W        W66845  29.666  32.477   2.833
 7101W        W66846  37.470  34.897  11.411
 7102W        W66847  42.434  24.183   3.190
 7103W        W66848  36.575  39.496   4.822
 7104W        W66849  19.226  13.672  12.996
 7105W        W66850  18.156  34.429  10.592
 7106W        W66851   1.374  44.916  13.504
 7107W        W66852  41.836  31.088  12.380
 7108W        W66853  10.215  19.167  10.930
 7109W        W66854  38.334  29.975   4.615
 7110W        W66855  30.041  26.526   4.285
 7111W        W66856  32.079  35.109   0.874
 7112W        W66857  15.795  20.626  13.856
 7113W        W66858  34.890  27.014  13.463
 7114W        W66859  25.621  13.105  11.892
 7115W        W66860  24.230  30.551   0.864
 7116W        W66861  32.508  21.119   5.301
 7117W        W66862  40.863  33.382  10.952
 7118W        W66863  32.465  24.106   2.266
 7119W        W66864  23.211   6.685  12.355
 7120W        W66865  37.489  34.899   2.319
 7121W        W66866  39.408  35.528   4.117
 7122W        W66867  14.215  15.178   1.711
 7123W        W66868  20.705  12.203   0.789
 7124W        W66869  18.734  37.078   3.261
 7125W        W66870  43.363  43.930  10.612
 7126W        W66871  41.893   5.336   0.467
 7127W        W66872  32.980  44.361   0.418
 7128W        W66873  34.913  16.589  13.832
 7129W        W66874  13.186  10.384  12.020
 7130W        W66875  14.783  26.493   2.663
 7131W        W66876  15.662  32.623  13.795
 7132W        W66877  34.612  12.727  10.477
 7133W        W66878   7.899  32.104  13.037
 7134W        W66879  19.087  31.448   3.799
 7135W        W66880  25.662  25.162   4.700
 7136W        W66881  29.436  44.814  12.897
 7137W        W66882  42.019  32.059   0.768
 7138W        W66883  37.567  16.206   0.939
 7139W        W66884  30.615  37.882   4.797
 7140W        W66885  38.998  34.561  13.546
 7141W        W66886  11.624  38.389   0.276
 7142W        W66887  16.256  39.520   3.229
 7143W        W66888   9.802  17.123   3.339
 7144W        W66889  19.625  40.950   3.332
 7145W        W66890   7.192  26.572   2.768
 7146W        W66891   9.342  14.699  13.440
 7147W        W66892  24.489  25.019   0.960
 7148W        W66893   1.326   1.813   4.627
 7149W        W66894  33.974  21.112   0.924
 7150W        W66895  15.273  12.293  10.501
 7151W        W66896  11.353  32.944   3.377
 7152W        W66897  21.238  31.080   1.408
 7153W        W66898   4.232  30.022  10.450
 7154W        W66899   1.811  39.873  13.864
 7155W        W66900  11.129  33.587   0.478
 7156W        W66901   0.960  20.070  10.507
 7157W        W66902  36.895  42.444  12.041
 7158W        W66903  25.108  15.242  13.424
 7159W        W66904  44.975  15.767   2.691
 7160W        W66905  18.150  17.161  11.439
 7161W        W66906  12.811  37.398  12.343
 7162W        W66907  40.353  28.646   4.220
 7163W        W66908  15.190  43.302  10.902
 7164W        W66909  19.214  43.916  13.962
 7165W        W66910  15.695   7.207   2.811
 7166W        W66911  30.001  23.199  14.335
 7167W        W66912  34.946  36.909  12.368
 7168W        W66913   2.830  32.496  13.923
 7169W        W66914  37.994  14.106   0.912
 7170W        W66915  10.681  14.226  12.973
 7171W        W66916  29.460   4.794  12.881
 7172W        W66917  26.079  38.914   2.355
 7173W        W66918   1.249   9.820  13.539
 7174W        W66919  27.521   8.718  11.576
 7175W        W66920  35.497   0.770   4.352
 7176W        W66921  15.123   3.850  13.311
 7177W        W66922   3.327  10.270  12.886
 7178W        W66923  19.639  10.852  14.024
 7179W        W66924  10.695  28.172   0.401
 7180W        W66925  12.265  35.517  12.922
 7181W        W66926  23.674  18.575  10.591
 7182W        W66927  34.513  17.132   2.787
 7183W        W66928  26.086  25.212  11.522
 7184W        W66929   9.735  27.478  14.338
 7185W        W66930  26.126  37.544   3.217
 7186W        W66931  18.233  43.298  10.452
 7187W        W66932  18.058   3.378  11.937
 7188W        W66933  19.725  19.148   2.356
 7189W        W66934  24.516  24.996   4.782
 7190W        W66935  36.543   1.463   2.356
 7191W        W66936   6.390  13.278  11.039
 7192W        W66937   7.184  18.251  12.398
 7193W        W66938  17.720  36.083  12.427
 7194W        W66939  28.519  28.614   3.313
 7195W        W66940   0.753  14.243   0.907
 7196W        W66941  30.083  35.499   0.288
 7197W        W66942  39.433  22.500  12.514
 7198W        W66943  31.429  14.662  12.468
 7199W        W66944  19.186  26.674  11.978
 7200W        W66945  11.219  25.121  12.423
 7201W        W66946   7.320  34.880  13.479
 7202W        W66947   8.240  27.628   2.333
 7203W        W66948  27.169  37.951   3.842
 7204W        W66949  40.405  42.936   0.795
 7205W        W66950  28.142  16.699   1.247
 7206W        W66951  13.220  27.072   1.701
 7207W        W66952  26.486  15.803   4.765
 7208W        W66953  17.245  12.153   2.826
 7209W        W66954  31.134  19.175   2.816
 7210W        W66955  29.563  24.020   3.765
 7211W        W66956   8.664  10.154   0.872
 7212W        W66957  18.203  29.573  12.496
 7213W        W66958   0.897  26.673  11.476
 7214W        W66959  40.489  33.411   5.114
 7215W        W66960  38.994  43.969   2.825
 7216W        W66961   6.243   9.849   4.118
 7217W        W66962  27.972   1.273  13.792
 7218W        W66963  40.007  13.771  11.577
 7219W        W66964  37.394  26.457  10.479
 7220W        W66965  26.100  19.552  12.083
 7221W        W66966   7.214  44.473   4.274
 7222W        W66967  38.570  28.602   0.775
 7223W        W66968  35.981   9.394   1.848
 7224W        W66969  13.656   5.766   0.309
 7225W        W66970  12.824   7.294  12.863
 7226W        W66971   5.878  11.821  12.042
 7227W        W66972  29.660  31.607  11.910
 7228W        W66973  12.765  10.679  13.949
 7229W        W66974   8.778  19.122  13.035
 7230W        W66975  36.917  31.450   3.253
 7231W        W66976  37.419  17.663  12.388
 7232W        W66977   1.323  40.317  14.411
 7233W        W66978  35.109  12.810   2.404
 7234W        W66979  16.674  13.233  10.481
 7235W        W66980  31.079  38.932   0.314
 7236W        W66981  31.625   2.918   5.296
 7237W        W66982  27.525  29.458  13.510
 7238W        W66983  37.380  29.994   3.163
 7239W        W66984   6.833  23.689  11.517
 7240W        W66985   0.440   7.290  11.128
 7241W        W66986  42.495  39.980   2.299
 7242W        W66987  42.970  40.982  13.019
 7243W        W66988  23.162  40.829   0.356
 7244W        W66989   6.189  13.267   1.429
 7245W        W66990   5.404  21.754  13.365
 7246W        W66991  35.027  29.505   2.797
 7247W        W66992  33.056  18.742  13.980
 7248W        W66993  25.086  42.847  13.988
 7249W        W66994  42.463  20.670   4.630
 7250W        W66995   2.913  44.952  11.932
 7251W        W66996  15.594   8.222   0.451
 7252W        W66997  17.799  32.962  14.943
 7253W        W66998   9.878  21.209  13.326
 7254W        W66999  24.144  39.986  12.445
 7255W        W67000   6.735  28.437   4.139
 7256W        W67001  16.755  14.639   1.894
 7257W        W67002  33.974  42.872  11.402
 7258W        W67003  12.794  33.019  11.400
 7259W        W67004  11.699  39.414  13.054
 7260W        W67005   2.822  34.524   2.394
 7261W        W67006  13.198  12.671  11.425
 7262W        W67007  19.546  22.698   0.949
 7263W        W67008  33.474  12.298  14.797
 7264W        W67009  27.127   4.291   2.392
 7265W        W67010  23.574  41.043   4.252
 7266W        W67011  34.438  21.576  12.027
 7267W        W67012  31.512  23.533  13.312
 7268W        W67013   9.791   4.737  12.342
 7269W        W67014  11.646  41.333   3.798
 7270W        W67015  35.531   1.945  11.596
 7271W        W67016  26.978  15.222  14.842
 7272W        W67017  25.139  10.284  10.909
 7273W        W67018  21.135  38.342  13.951
 7274W        W67019  28.059  36.560   2.824
 7275W        W67020   3.783  31.992   4.600
 7276W        W67021   5.808  29.963   2.215
 7277W        W67022  15.092   3.368  12.549
 7278W        W67023   1.823  27.560  14.378
 7279W        W67024  24.221   4.289   1.253
 7280W        W67025  21.521  21.123   1.745
 7281W        W67026  26.052  28.072   3.276
 7282W        W67027  10.251   7.294  13.859
 7283W        W67028   4.896  13.108   4.352
 7284W        W67029  19.068  23.139  10.575
 7285W        W67030  10.773  32.478  13.424
 7286W        W67031  15.821   5.413   2.700
 7287W        W67032   5.831  11.809   3.656
 7288W        W67033  11.738  41.830   1.270
 7289W        W67034  12.349  28.559  12.553
 7290W        W67035  33.534  42.884  12.495
 7291W        W67036  39.499  38.999   3.297
 7292W        W67037  12.125  29.991  14.008
 7293W        W67038   8.677  36.542  10.589
 7294W        W67039  18.721  44.307  12.383
 7295W        W67040  20.077  26.606  13.398
 7296W        W67041  17.066  41.810   1.832
 7297W        W67042  29.491  12.774  14.893
 7298W        W67043  40.473  21.217   0.931
 7299W        W67044   1.428  11.838   4.264
 7300W        W67045  22.034  15.669  10.492
 7301W        W67046  31.955  38.824  12.432
 7302W        W67047  24.128  20.749  14.514
 7303W        W67048   8.773  28.011  14.863
 7304W        W67049  32.477   5.197  14.781
 7305W        W67050   9.714   8.736  12.073
 7306W        W67051  21.145  17.589   9.986
 7307W        W67052  44.850   0.466  14.848
 7308W        W67053  12.181   8.760  11.583
 7309W        W67054  18.552  32.480   4.171
 7310W        W67055  31.610  41.327  12.490
 7311W        W67056  10.738  20.049  14.862
 7312W        W67057   1.396   9.845  12.578
 7313W        W67058  21.160  41.332   2.188
 7314W        W67059  18.728   1.761  10.504
 7315W        W67060  12.617   1.918  13.466
 7316W        W67061   9.170  12.322  14.759
 7317W        W67062   7.208  36.406  12.537
 7318W        W67063  33.115  27.475  13.943
 7319W        W67064  36.480  44.319   4.305
 7320W        W67065  29.145  22.722   4.338
 7321W        W67066  39.364  26.150  13.390
 7322W        W67067  15.285  20.630   2.269
 7323W        W67068  26.461   2.417   5.288
 7324W        W67069  34.967   8.361   1.870
 7325W        W67070  41.861  37.972   4.727
 7326W        W67071  14.327  39.481   0.966
 7327W        W67072  12.218  10.675  13.031
 7328W        W67073  38.981   9.225   0.925
 7329W        W67074  32.086  11.270  13.365
 7330W        W67075  10.700  18.780   0.820
 7331W        W67076  33.122   2.937  13.831
 7332W        W67077  26.494  28.647   3.799
 7333W        W67078  11.801  18.609  12.473
 7334W        W67079  42.907  13.648   2.210
 7335W        W67080  36.990  22.040   1.795
 7336W        W67081  29.547  44.496  13.415
 7337W        W67082   2.344  15.608  12.935
 7338W        W67083  28.992   7.775   2.683
 7339W        W67084  25.172  23.664  14.977
 7340W        W67085  44.483   5.719  14.401
 7341W        W67086  19.078  31.980  12.927
 7342W        W67087  11.707  30.412   0.270
 7343W        W67088  29.457  35.437  12.399
 7344W        W67089  20.758  31.131   9.567
 7345W        W67090  42.909  19.766   4.320
 7346W        W67091  21.263  14.159   3.325
 7347W        W67092  36.893  40.322  14.320
 7348W        W67093  25.206  37.955  11.079
 7349W        W67094   5.801  33.089   2.353
 7350W        W67095  27.010  39.553   2.886
 7351W        W67096  14.131  22.529  14.974
 7352W        W67097  10.299   5.297  11.956
 7353W        W67098  35.858  13.830  13.434
 7354W        W67099  26.166   8.406   2.266
 7355W        W67100  11.723  36.450   0.374
 7356W        W67101  22.591  30.446  14.872
 7357W        W67102  40.529  10.151   3.739
 7358W        W67103  11.295  27.169   4.665
 7359W        W67104  14.696  15.649   4.638
 7360W        W67105  29.446  14.595   0.887
 7361W        W67106  44.315   8.704  11.596
 7362W        W67107  34.470  33.972  10.440
 7363W        W67108   6.200   1.817  11.531
 7364W        W67109  14.126   2.814   3.830
 7365W        W67110  20.226  12.818  10.617
 7366W        W67111  19.624  27.686  14.793
 7367W        W67112  34.526   4.275  12.894
 7368W        W67113  25.084  32.476   1.791
 7369W        W67114  44.401   8.179   2.872
 7370W        W67115  16.145  18.588   0.803
 7371W        W67116  26.598  34.990  14.802
 7372W        W67117  16.658  21.582  11.931
 7373W        W67118  42.824  25.539   4.740
 7374W        W67119   2.326   2.411   1.704
 7375W        W67120  26.003  32.607  12.538
 7376W        W67121  36.041  20.718   0.342
 7377W        W67122   5.893   7.794  10.433
 7378W        W67123   7.182   4.924   0.434
 7379W        W67124  18.567  33.032   0.425
 7380W        W67125  13.653  35.494  13.858
 7381W        W67126  28.106  16.166   3.380
 7382W        W67127  21.031  38.564  12.041
 7383W        W67128   1.732  20.039   3.827
 7384W        W67129  21.544   1.329  14.282
 7385W        W67130   7.331  25.988  13.979
 7386W        W67131  42.787   6.912  13.063
 7387W        W67132  12.714   0.376   4.787
 7388W        W67133  41.414  43.352   1.730
 7389W        W67134   6.407  30.503   0.942
 7390W        W67135   8.165   3.332  11.978
 7391W        W67136   5.349  20.200  11.577
 7392W        W67137  30.046  27.196   4.216
 7393W        W67138   7.413  35.365   0.947
 7394W        W67139   1.264  28.099   0.913
 7395W        W67140   5.751  14.317  12.415
 7396W        W67141  13.837  42.990   0.796
 7397W        W67142  15.254  43.824  14.368
 7398W        W67143  43.412   3.748   3.798
 7399W        W67144   6.789   8.229  12.533
 7400W        W67145  32.514   0.424   3.643
 7401W        W67146  36.587  34.599   1.896
 7402W        W67147  13.285  24.507  10.931
 7403W        W67148  31.928  24.720   3.747
 7404W        W67149  33.495  34.502   4.170
 7405W        W67150   0.408  25.136  14.992
 7406W        W67151  21.158   9.727   4.190
 7407W        W67152  18.601  29.938   2.728
 7408W        W67153  44.316  15.806   1.883
 7409W        W67154  16.635  26.497   2.836
 7410W        W67155   5.272  19.260   1.763
 7411W        W67156  31.050  36.446  10.637
 7412W        W67157  10.256  14.806   4.225
 7413W        W67158  28.033  24.181   3.218
 7414W        W67159  34.957  42.480   1.713
 7415W        W67160  21.640  20.753  12.086
 7416W        W67161  15.111  38.464   3.348
 7417W        W67162  28.523  38.900  10.014
 7418W        W67163  41.002  18.743   0.899
 7419W        W67164  17.563  20.109   2.360
 7420W        W67165   0.898  29.928   2.253
 7421W        W67166  43.341  25.567  12.960
 7422W        W67167  30.635  21.017   1.243
 7423W        W67168   5.307   7.253   1.449
 7424W        W67169  21.257  34.970  12.023
 7425W        W67170  38.981   7.759   0.420
 7426W        W67171   4.798  35.070  12.414
 7427W        W67172  32.443   2.410  12.352
 7428W        W67173  24.076   6.741  14.909
 7429W        W67174  25.150  25.188   1.927
 7430W        W67175  30.446  24.209   0.432
 7431W        W67176   1.313  40.864   1.812
 7432W        W67177   3.718  39.827  14.022
 7433W        W67178  35.061  19.192   2.891
 7434W        W67179  13.839  28.137  10.552
 7435W        W67180   9.262  28.448  14.515
 7436W        W67181  10.296  15.612   2.736
 7437W        W67182  14.623  20.588   3.708
 7438W        W67183  11.361  37.996  12.495
 7439W        W67184   7.195  43.930  11.562
 7440W        W67185  11.658  13.331   2.737
 7441W        W67186  42.879   1.928  13.051
 7442W        W67187   4.309   9.890  11.414
 7443W        W67188   1.752  43.990   2.738
 7444W        W67189  14.651   1.466   2.781
 7445W        W67190  10.821  40.014   1.927
 7446W        W67191  35.508  23.601   1.718
 7447W        W67192  40.916  11.714  11.053
 7448W        W67193   7.241  20.072   4.309
 7449W        W67194  10.253   8.163  14.947
 7450W        W67195  32.922  43.380   3.771
 7451W        W67196  13.826  10.717  11.893
 7452W        W67197  31.071  12.287   3.366
 7453W        W67198  14.661  11.703   4.216
 7454W        W67199  29.665  26.127   4.282
 7455W        W67200   0.743  12.718  10.961
 7456W        W67201  34.555  15.646   2.380
 7457W        W67202  36.392  24.127  13.991
 7458W        W67203   4.885  41.369   3.360
 7459W        W67204  35.092  34.895  12.035
 7460W        W67205  33.552  26.488  13.794
 7461W        W67206  25.596  28.063  13.447
 7462W        W67207   0.860  38.462   2.275
 7463W        W67208  20.544  32.470  11.476
 7464W        W67209   5.295   6.282  10.507
 7465W        W67210  22.007  15.217   0.811
 7466W        W67211   6.680   4.242  12.437
 7467W        W67212   7.754  39.962   1.884
 7468W        W67213  34.908  42.326   4.338
 7469W        W67214  25.655  39.543   3.187
 7470W        W67215  33.464  35.950  13.517
 7471W        W67216  18.723   9.188  12.362
 7472W        W67217  28.172  28.120  13.405
 7473W        W67218   1.368  26.162   0.386
 7474W        W67219  23.570  14.717  12.955
 7475W        W67220  16.805   0.421   0.381
 7476W        W67221  26.697  13.612   9.989
 7477W        W67222  20.183  27.664  11.419
 7478W        W67223  33.547  22.577   3.720
 7479W        W67224  24.017   0.780  11.400
 7480W        W67225   6.193  17.296   5.182
 7481W        W67226   1.752  33.120  10.981
 7482W        W67227  34.865  43.962  14.453
 7483W        W67228  43.962  30.949   2.867
 7484W        W67229  29.064  15.667   3.280
 7485W        W67230  32.982  43.824   3.764
 7486W        W67231   6.224  16.240   3.226
 7487W        W67232  36.548  36.439   1.698
 7488W        W67233  29.668  20.258  14.932
 7489W        W67234  23.147  23.124  12.888
 7490W        W67235  35.410  43.819   4.804
 7491W        W67236  21.215   7.786  14.398
 7492W        W67237  18.206  15.154  13.379
 7493W        W67238   9.647  43.895  14.450
 7494W        W67239  31.067  12.813   4.617
 7495W        W67240   7.340  41.008  12.473
 7496W        W67241  28.488   8.352  11.970
 7497W        W67242  41.898  14.786   4.744
 7498W        W67243  14.605  30.937   2.763
 7499W        W67244  23.060  26.503   3.370
 7500W        W67245  32.491   9.759   1.709
 7501W        W67246  15.818   2.328  13.471
 7502W        W67247  11.866  43.483   4.320
 7503W        W67248  38.031  34.452   2.192
 7504W        W67249  41.326  18.132   4.758
 7505W        W67250  13.695  44.957   4.155
 7506W        W67251   4.329  12.128  14.504
 7507W        W67252   3.738  27.101  14.338
 7508W        W67253  43.304  33.547  12.964
 7509W        W67254  24.084  30.123  13.893
 7510W        W67255  41.302   0.783  11.066
 7511W        W67256  26.023  23.153   2.197
 7512W        W67257  40.823  43.329   0.958
 7513W        W67258  11.777  29.128   3.277
 7514W        W67259  16.690  33.907   3.839
 7515W        W67260  11.294  39.473   3.801
 7516W        W67261  43.967  41.822  13.337
 7517W        W67262  25.562  15.097  13.367
 7518W        W67263  34.064   0.754  12.553
 7519W        W67264   2.377  33.612   3.348
 7520W        W67265  37.986  28.459  14.923
 7521W        W67266  17.284  20.259  13.053
 7522W        W67267   0.318  36.565   0.451
 7523W        W67268  21.726  41.488   5.203
 7524W        W67269   8.281   3.401  13.392
 7525W        W67270  12.221  30.625  14.995
 7526W        W67271  35.971  12.153   2.807
 7527W        W67272  18.225   4.396  13.426
 7528W        W67273  15.284   9.796   3.358
 7529W        W67274  34.525  12.285  14.919
 7530W        W67275   6.888   7.172  10.475
 7531W        W67276  10.633  24.577  14.865
 7532W        W67277  21.735  12.776  13.935
 7533W        W67278   4.336  16.786   3.236
 7534W        W67279  14.797  16.290  14.311
 7535W        W67280  43.429  29.941  11.991
 7536W        W67281  14.230  27.682  13.345
 7537W        W67282  33.518  10.161   2.757
 7538W        W67283  10.199   1.973  11.094
 7539W        W67284  27.074  22.548  12.018
 7540W        W67285  23.681  27.526   1.338
 7541W        W67286  28.452   1.934  12.565
 7542W        W67287  20.193  41.320  11.385
 7543W        W67288   4.928  20.574  13.918
 7544W        W67289   2.269  13.218   3.383
 7545W        W67290  15.095  20.124   1.722
 7546W        W67291  18.157  12.816  10.927
 7547W        W67292  38.919  16.646   2.662
 7548W        W67293   1.767  15.176   4.151
 7549W        W67294  11.286  11.829   4.743
 7550W        W67295   9.872  12.712  10.478
 7551W        W67296   9.869  31.437  11.423
 7552W        W67297  25.650   4.413   0.959
 7553W        W67298  23.155   4.898   1.847
 7554W        W67299  18.674  14.763  12.452
 7555W        W67300  33.001  21.193  14.358
 7556W        W67301  26.169   3.944  11.903
 7557W        W67302  14.810  23.682   0.781
 7558W        W67303  10.844  37.942  11.402
 7559W        W67304  36.079  11.842  12.367
 7560W        W67305  31.632  42.938   2.872
 7561W        W67306  24.218   4.251  12.978
 7562W        W67307  11.843  27.087  11.599
 7563W        W67308   6.700  29.659  11.063
 7564W        W67309  19.093   8.177   3.297
 7565W        W67310  17.589  43.892   4.316
 7566W        W67311  16.102  22.715   1.257
 7567W        W67312  44.922  42.943  11.862
 7568W        W67313  21.155  34.916   1.872
 7569W        W67314  19.622  33.886   3.809
 7570W        W67315  12.701  26.629  10.025
 7571W        W67316   1.847  31.937   2.349
 7572W        W67317  19.577  43.003   2.256
 7573W        W67318   9.375  41.530  14.918
 7574W        W67319   7.331  18.177  10.602
 7575W        W67320  38.929  31.916   0.356
 7576W        W67321  14.098  40.987  11.994
 7577W        W67322  36.028  24.478  12.421
 7578W        W67323  32.952  34.977  14.328
 7579W        W67324  26.697  18.738  11.557
 7580W        W67325  12.692  32.621   5.292
 7581W        W67326  22.524   3.911   0.949
 7582W        W67327  23.620  33.445   0.932
 7583W        W67328   9.230  43.793  11.557
 7584W        W67329  17.070  40.996  14.922
 7585W        W67330  44.860  36.461  12.850
 7586W        W67331  34.428  38.879   2.690
 7587W        W67332  17.195  13.134  11.108
 7588W        W67333  16.182  10.160   4.170
 7589W        W67334  18.620  40.463  11.926
 7590W        W67335  17.125  10.175   3.247
 7591W        W67336   9.854  19.175   4.604
 7592W        W67337   4.269  12.702   1.245
 7593W        W67338  28.440  40.926  14.276
 7594W        W67339   0.959  29.001  11.004
 7595W        W67340  11.728  23.733  12.955
 7596W        W67341  23.683  26.154   0.262
 7597W        W67342  15.177  28.450   2.385
 7598W        W67343  42.805  11.323   4.683
 7599W        W67344   7.672  15.793  13.971
 7600W        W67345  43.467  14.283   5.139
 7601W        W67346   9.657  37.035   3.727
 7602W        W67347  28.938  33.560  11.075
 7603W        W67348  23.210  20.160  14.489
 7604W        W67349   1.253  21.155   1.248
 7605W        W67350   9.672  19.744   4.284
 7606W        W67351  13.653  33.913  11.373
 7607W        W67352  14.298  21.577   4.202
 7608W        W67353  37.502  23.108  13.489
 7609W        W67354  29.489  27.455   2.228
 7610W        W67355  31.556  35.503  13.965
 7611W        W67356  20.146   3.865   1.428
 7612W        W67357  14.121  30.643   4.783
 7613W        W67358  34.535  26.632   3.290
 7614W        W67359  21.559  30.472  12.360
 7615W        W67360  28.102  22.154   3.764
 7616W        W67361  37.062   7.288   3.362
 7617W        W67362  16.662   3.899  12.948
 7618W        W67363  12.675  40.446   0.419
 7619W        W67364   9.664  28.959   2.326
 7620W        W67365  19.210  42.847   4.803
 7621W        W67366  10.275  35.087  12.090
 7622W        W67367  42.309  26.049   1.716
 7623W        W67368  32.054  39.937  13.408
 7624W        W67369  42.378  40.544   2.296
 7625W        W67370  38.542  31.971   3.164
 7626W        W67371  32.095  20.528   0.806
 7627W        W67372  38.868  21.219  12.940
 7628W        W67373   2.362  12.670  13.867
 7629W        W67374   2.935   8.789   4.235
 7630W        W67375   2.418  10.158   4.727
 7631W        W67376  22.737   6.867  14.321
 7632W        W67377  21.637  27.542  14.429
 7633W        W67378  10.346  14.689  13.003
 7634W        W67379  29.450  27.052   4.184
 7635W        W67380   7.823  22.594  10.419
 7636W        W67381   8.834   8.861   2.756
 7637W        W67382  25.599  38.033   1.333
 7638W        W67383  19.557  17.185   0.288
 7639W        W67384  33.504  32.040   4.670
 7640W        W67385   5.281  11.681   1.308
 7641W        W67386   6.259  34.510  13.038
 7642W        W67387   3.735  32.999  14.499
 7643W        W67388  30.441  43.504   1.876
 7644W        W67389  24.518   6.759  12.021
 7645W        W67390   8.339  11.731  11.485
 7646W        W67391  10.860   4.330  10.513
 7647W        W67392  25.692  30.437  10.581
 7648W        W67393   2.264  18.780   0.844
 7649W        W67394  25.150  19.270   2.841
 7650W        W67395  12.346  39.506  11.094
 7651W        W67396  44.803   6.205   2.677
 7652W        W67397  32.080  16.653   0.751
 7653W        W67398  25.196  18.715  11.567
 7654W        W67399  35.049   9.648  11.526
 7655W        W67400  26.068  36.029   2.759
 7656W        W67401  16.282  22.086  14.844
 7657W        W67402  24.607   8.669  12.360
 7658W        W67403  20.070   8.297   1.276
 7659W        W67404  13.165  19.168  13.817
 7660W        W67405  34.974  10.142  11.065
 7661W        W67406  24.077  26.606   1.299
 7662W        W67407  31.010  42.319   4.770
 7663W        W67408  19.724  27.109  12.859
 7664W        W67409  39.822  38.920  11.488
 7665W        W67410  16.582  20.754   1.417
 7666W        W67411  42.924  18.162   4.694
 7667W        W67412  12.235  32.943   3.640
 7668W        W67413   5.294  44.896   3.327
 7669W        W67414  27.577   4.367   1.777
 7670W        W67415  42.298  15.807  13.931
 7671W        W67416   9.236  37.015   0.932
 7672W        W67417   8.780  29.114   2.247
 7673W        W67418   2.824  23.586  11.580
 7674W        W67419  20.242   7.401   9.950
 7675W        W67420  40.044  36.077  10.601
 7676W        W67421   3.436   9.376   2.298
 7677W        W67422  18.709  36.495  12.831
 7678W        W67423  39.372  43.475   1.884
 7679W        W67424   6.195  11.190   1.793
 7680W        W67425  13.350  22.525  12.063
 7681W        W67426   3.243  16.609  10.964
 7682W        W67427  17.094  43.354   1.888
 7683W        W67428   4.829   0.873  13.901
 7684W        W67429  23.727  14.639   0.953
 7685W        W67430   7.332  36.945  13.931
 7686W        W67431  10.264   5.846  10.437
 7687W        W67432  20.539  28.546  10.965
 7688W        W67433  12.131   3.844  14.901
 7689W        W67434  11.288  23.034   0.343
 7690W        W67435  26.062  27.197   1.436
 7691W        W67436   0.438  21.704   1.234
 7692W        W67437  16.771  13.813   3.156
 7693W        W67438  44.820  27.943   3.633
 7694W        W67439  14.735  25.668  12.993
 7695W        W67440   8.815  11.729   2.836
 7696W        W67441   0.420   8.165  12.065
 7697W        W67442  43.953   0.373   4.601
 7698W        W67443  12.211  33.565   2.375
 7699W        W67444   7.886  31.942   2.767
 7700W        W67445  16.794  28.109  11.581
 7701W        W67446  14.143  17.249  10.591
 7702W        W67447  40.803  18.682  10.423
 7703W        W67448  23.026  23.555  13.817
 7704W        W67449  40.976  39.463   0.836
 7705W        W67450  15.207  42.824   0.280
 7706W        W67451   9.811  39.392   4.833
 7707W        W67452   5.765  26.478   0.367
 7708W        W67453   6.790  31.063  12.004
 7709W        W67454   3.716   6.853  12.928
 7710W        W67455  22.103  33.623   4.621
 7711W        W67456  24.702  38.430  10.934
 7712W        W67457  23.630  36.562   3.646
 7713W        W67458  13.821  41.330   1.751
 7714W        W67459  39.029  26.613   3.823
 7715W        W67460  42.906  17.618  13.805
 7716W        W67461   0.985  34.398  10.581
 7717W        W67462  19.274  39.445   3.759
 7718W        W67463  17.295  41.509  12.023
 7719W        W67464  11.254  41.373  14.349
 7720W        W67465  40.345  25.090  12.951
 7721W        W67466  17.713  12.853   4.334
 7722W        W67467  30.505  35.518  14.875
 7723W        W67468   1.911  31.094   3.269
 7724W        W67469  12.707  13.233   3.747
 7725W        W67470   5.853  17.179   1.841
 7726W        W67471  27.560  32.953   1.212
 7727W        W67472   7.722  25.630  14.779
 7728W        W67473  39.330  40.507   3.758
 7729W        W67474  38.927   4.726  13.958
 7730W        W67475   7.325   9.314   1.700
 7731W        W67476  29.552  42.823  10.477
 7732W        W67477  12.767  37.885   2.408
 7733W        W67478  24.696  38.332   2.320
 7734W        W67479  44.813  19.198   0.767
 7735W        W67480  17.766  30.470   0.949
 7736W        W67481  44.490  10.338  12.379
 7737W        W67482  41.341  13.805   3.154
 7738W        W67483  25.526  26.615  14.829
 7739W        W67484   9.677  42.781   4.229
 7740W        W67485  17.694  24.638  13.028
 7741W        W67486  14.192   9.722   4.796
 7742W        W67487   5.726  21.652   2.302
 7743W        W67488  39.859  42.360   0.480
 7744W        W67489  42.888  36.006   2.295
 7745W        W67490  32.037   8.669   4.746
 7746W        W67491   5.782  43.466  10.996
 7747W        W67492  40.826  15.133  12.829
 7748W        W67493  23.155   1.359   3.830
 7749W        W67494  22.017  39.014  13.476
 7750W        W67495  21.138  26.493  14.007
 7751W        W67496  43.977  11.197   4.265
 7752W        W67497  20.710  42.373   3.701
 7753W        W67498  23.726   2.325   3.861
 7754W        W67499  21.612  38.977  12.997
 7755W        W67500  31.973  41.524  11.955
 7756W        W67501  35.421  44.873   0.341
 7757W        W67502  22.723  22.011   1.356
 7758W        W67503  40.437  43.861   4.354
 7759W        W67504  21.556  44.340   1.231
 7760W        W67505  11.795  32.127  11.952
 7761W        W67506  15.312   9.160  13.444
 7762W        W67507  42.957  30.102  10.430
 7763W        W67508  14.724  34.915   1.803
 7764W        W67509  12.280  26.694   1.775
 7765W        W67510  15.295  22.602  12.438
 7766W        W67511  25.111  27.492   4.727
 7767W        W67512  26.599  29.433  14.980
 7768W        W67513  21.217  43.397  13.327
 7769W        W67514   4.875  13.616   3.630
 7770W        W67515  38.964  24.511   4.295
 7771W        W67516  12.337  21.249  13.906
 7772W        W67517  29.620   3.251   2.684
 7773W        W67518  43.943  21.723  14.826
 7774W        W67519  17.174  29.009  12.539
 7775W        W67520  32.124  24.063  11.445
 7776W        W67521  32.971  22.615   1.697
 7777W        W67522   7.675  40.929  13.336
 7778W        W67523  42.379  19.711   0.471
 7779W        W67524  15.316  10.274   4.187
 7780W        W67525   1.965  26.547   2.809
 7781W        W67526  37.416  12.710  14.909
 7782W        W67527  31.037  29.943   3.865
 7783W        W67528  20.081  18.629   0.775
 7784W        W67529  41.331  36.371  13.333
 7785W        W67530  23.529   1.960  14.790
 7786W        W67531  27.004  17.166   2.356
 7787W        W67532   5.249   6.702   1.840
 7788W        W67533  17.292  15.243  13.955
 7789W        W67534  24.013  29.656   4.813
 7790W        W67535   7.246   9.686  13.404
 7791W        W67536   3.264   3.372  13.358
 7792W        W67537  20.542  43.340  13.468
 7793W        W67538  44.938   0.354  12.877
 7794W        W67539   1.895   3.325   1.366
 7795W        W67540  10.790  21.662   2.903
 7796W        W67541  22.189  11.790   2.786
 7797W        W67542  20.042  35.083   4.345
 7798W        W67543  23.151  26.639   0.857
 7799W        W67544  21.650   8.346   0.363
 7800W        W67545  35.992   3.250   3.343
 7801W        W67546  33.040   4.203   2.773
 7802W        W67547  30.997  43.833   3.718
 7803W        W67548  39.529  19.643   0.869
 7804W        W67549  31.564  17.095   0.934
 7805W        W67550  19.598   7.315  12.047
 7806W        W67551  10.747  23.635  12.841
 7807W        W67552  18.118  31.136   1.251
 7808W        W67553  27.185   6.821   2.233
 7809W        W67554  20.147  35.479  13.832
 7810W        W67555  11.257  34.378   4.664
 7811W        W67556  28.549  35.361  10.603
 7812W        W67557  28.991  27.070   3.269
 7813W        W67558   6.273  23.237   2.293
 7814W        W67559  31.984  14.098   3.179
 7815W        W67560  16.148  10.759   2.408
 7816W        W67561  28.564  12.205  12.946
 7817W        W67562  23.014  26.615   4.745
 7818W        W67563  24.036   9.848  13.385
 7819W        W67564  23.192  15.771  12.375
 7820W        W67565   8.335   1.389  10.516
 7821W        W67566  25.591  25.166   1.255
 7822W        W67567   5.360  27.975  11.468
 7823W        W67568  16.147   3.238  13.025
 7824W        W67569  43.478   2.392  11.571
 7825W        W67570  16.718  21.622   1.360
 7826W        W67571   0.872  26.102  14.411
 7827W        W67572  29.478   0.851   2.723
 7828W        W67573  39.333  29.597  14.973
 7829W        W67574  15.664   2.276   4.174
 7830W        W67575  40.461  22.676   4.179
 7831W        W67576  37.017  36.864  12.402
 7832W        W67577  13.208  27.070  14.869
 7833W        W67578  20.176  10.310  11.913
 7834W        W67579  38.440  23.527  11.431
 7835W        W67580   2.328   2.455  13.011
 7836W        W67581  28.560  32.478   0.857
 7837W        W67582  23.230   3.347   2.897
 7838W        W67583  10.295  34.532   0.925
 7839W        W67584   0.921  39.369  13.519
 7840W        W67585  21.699  36.098   3.381
 7841W        W67586  17.581   9.710   2.725
 7842W        W67587  22.634  10.371   0.944
 7843W        W67588  43.998   9.696  14.803
 7844W        W67589   5.204  16.181   4.253
 7845W        W67590   8.284  22.677   0.395
 7846W        W67591  37.952   6.824   3.260
 7847W        W67592  21.661  36.039   2.256
 7848W        W67593  13.263  42.455   2.745
 7849W        W67594  44.317  28.112   0.450
 7850W        W67595  42.440  41.518   1.225
 7851W        W67596  31.948  25.535   0.847
 7852W        W67597  20.053   5.857  11.515
 7853W        W67598  12.349   5.825   4.165
 7854W        W67599  10.214  16.770  14.923
 7855W        W67600  28.143  30.561   1.734
 7856W        W67601   5.415   4.241  10.505
 7857W        W67602  44.496  16.616   3.366
 7858W        W67603  24.110  30.127   3.258
 7859W        W67604  41.846  34.600   0.277
 7860W        W67605  33.621  31.461   0.937
 7861W        W67606  19.218  28.504   2.827
 7862W        W67607  38.970   1.367   1.303
 7863W        W67608   3.881  20.101   3.708
 7864W        W67609  29.522   2.359  13.888
 7865W        W67610   8.373  18.137  12.465
 7866W        W67611  17.672  42.833  13.382
 7867W        W67612  34.890  13.296   2.886
 7868W        W67613  29.621  43.811   0.313
 7869W        W67614   1.344  14.713   4.807
 7870W        W67615  27.586  24.571   2.195
 7871W        W67616   7.880   6.284  11.468
 7872W        W67617   3.831  11.853   2.390
 7873W        W67618  17.603  18.094   0.911
 7874W        W67619  12.638  11.653  11.894
 7875W        W67620  33.119  42.479  12.537
 7876W        W67621  27.056  20.715   1.718
 7877W        W67622  38.902  37.539   2.783
 7878W        W67623  12.171   8.784  13.509
 7879W        W67624  14.819   9.842   1.884
 7880W        W67625   9.722   3.770   0.840
 7881W        W67626  41.858  18.166   2.860
 7882W        W67627  44.268  19.203  12.447
 7883W        W67628   0.442  40.798   3.230
 7884W        W67629  15.235  19.679   0.726
 7885W        W67630   2.735  25.156   2.686
 7886W        W67631  43.409  32.033   3.650
 7887W        W67632   8.188   7.896  12.353
 7888W        W67633  10.765  17.293   2.799
 7889W        W67634  28.544  44.265  11.395
 7890W        W67635  43.800  27.567  12.935
 7891W        W67636  28.961  21.247  12.994
 7892W        W67637   0.893  19.596  12.523
 7893W        W67638  44.370   2.881  14.337
 7894W        W67639   6.778  22.672   2.755
 7895W        W67640  30.161  14.295   3.770
 7896W        W67641  27.563  44.263  12.545
 7897W        W67642  26.040   2.944   2.306
 7898W        W67643   7.347  12.273  13.341
 7899W        W67644  29.464   3.736   4.748
 7900W        W67645  34.567  38.943  14.274
 7901W        W67646  44.327  22.199  11.447
 7902W        W67647  35.404  14.168   3.779
 7903W        W67648  30.126  16.098   0.744
 7904W        W67649  16.778  13.757  10.489
 7905W        W67650  11.759  13.282   3.239
 7906W        W67651  24.109  18.160   1.788
 7907W        W67652   6.368   0.458  11.960
 7908W        W67653   3.821  14.182   0.855
 7909W        W67654  30.629  11.786   0.827
 7910W        W67655  10.794   7.892   3.361
 7911W        W67656  10.768   0.478   0.297
 7912W        W67657   2.878  31.022   1.386
 7913W        W67658  26.066  26.658  11.122
 7914W        W67659   4.223  27.574   3.797
 7915W        W67660  17.594   9.858  13.899
 7916W        W67661  26.490  33.593  14.970
 7917W        W67662  13.760   1.331   3.224
 7918W        W67663  25.064   4.873  13.488
 7919W        W67664  23.005   7.298   3.216
 7920W        W67665  38.531   3.744  14.490
 7921W        W67666   0.936  20.057   2.758
 7922W        W67667  11.788  19.765   2.391
 7923W        W67668  23.176  30.439   4.279
 7924W        W67669  10.207  30.058  11.500
 7925W        W67670  21.631  32.993  11.583
 7926W        W67671  19.285  11.206  13.520
 7927W        W67672  19.707  42.798  12.880
 7928W        W67673  14.332  37.902  13.971
 7929W        W67674   5.723   2.267   1.715
 7930W        W67675  14.227  38.912   3.797
 7931W        W67676  23.076  42.797   4.601
 7932W        W67677   8.657  28.100  12.431
 7933W        W67678  13.825  24.542  14.328
 7934W        W67679  30.529   5.325  11.959
 7935W        W67680   7.850  33.958  11.388
 7936W        W67681  12.176  22.240   3.637
 7937W        W67682  16.582  23.083   1.727
 7938W        W67683  13.834  28.127  12.956
 7939W        W67684   8.787  36.895  13.508
 7940W        W67685  25.155  33.114  14.016
 7941W        W67686   3.770  29.127   4.803
 7942W        W67687  21.226  37.506  13.797
 7943W        W67688  30.606  41.492  10.915
 7944W        W67689  12.249  16.702  10.924
 7945W        W67690  30.460   1.901  12.083
 7946W        W67691  14.273  32.915  13.368
 7947W        W67692   9.856  37.061   5.213
 7948W        W67693  25.050   5.694  11.041
 7949W        W67694   9.657  33.614  11.857
 7950W        W67695  26.957  26.692   4.802
 7951W        W67696  16.588  38.337   3.382
 7952W        W67697  32.398  21.663   2.689
 7953W        W67698   9.886  21.744  10.965
 7954W        W67699  17.625  43.991  14.896
 7955W        W67700  11.272  15.098  13.926
 7956W        W67701  23.176   7.697  12.096
 7957W        W67702  31.133  24.670   4.784
 7958W        W67703  22.742   4.402  10.537
 7959W        W67704  12.324  43.995   3.774
 7960W        W67705  28.972  33.620   1.856
 7961W        W67706   8.684   5.793   1.922
 7962W        W67707  30.996   7.676   3.178
 7963W        W67708  44.002  11.326  14.912
 7964W        W67709  19.102  16.203   0.882
 7965W        W67710  28.452   3.921   0.439
 7966W        W67711  13.735  21.041  13.487
 7967W        W67712  24.142  19.260  12.430
 7968W        W67713  34.867  35.985   2.356
 7969W        W67714  32.550   0.328   0.399
 7970W        W67715   0.820  14.163   4.628
 7971W        W67716  21.184   4.923  10.101
 7972W        W67717  43.995  26.657   4.291
 7973W        W67718  31.593  40.542   4.159
 7974W        W67719  11.318  20.604  11.949
 7975W        W67720  25.576  12.128  12.936
 7976W        W67721  26.504  16.087  13.511
 7977W        W67722  14.777  30.101   3.870
 7978W        W67723  17.094  23.518  13.976
 7979W        W67724  10.672   1.457   2.303
 7980W        W67725  13.128  15.683  11.881
 7981W        W67726   2.807  40.323   1.723
 7982W        W67727  26.018   2.742   2.823
 7983W        W67728  17.596  24.089   4.765
 7984W        W67729  35.051   6.414   0.794
 7985W        W67730  28.131  33.981   1.369
 7986W        W67731   4.874   6.199   4.209
 7987W        W67732   5.703   7.337   3.378
 7988W        W67733  10.803  33.024  13.500
 7989W        W67734  16.580  22.162  14.437
 7990W        W67735  22.635  19.186  14.487
 7991W        W67736  21.726  32.059  11.939
 7992W        W67737  22.582  35.986   1.838
 7993W        W67738  28.451   1.370   3.673
 7994W        W67739  18.692  14.169  11.102
 7995W        W67740  42.875  42.930  10.021
 7996W        W67741  11.628  14.633  12.995
 7997W        W67742  25.701  39.408   1.807
 7998W        W67743  16.792  34.039   1.420
 7999W        W67744  40.867   7.805   4.802
 8000W        W67745  34.369  39.502   1.837
 8001W        W67746   7.813  19.158  14.776
 8002W        W67747  13.117  19.671  13.410
 8003W        W67748  31.631  24.510   1.844
 8004W        W67749   7.856   5.228  14.844
 8005W        W67750  19.713  32.004   2.731
 8006W        W67751   8.819  25.543   2.208
 8007W        W67752  14.620  17.573   4.699
 8008W        W67753   5.909  28.521   0.966
 8009W        W67754  21.595  35.440   3.703
 8010W        W67755   3.823  41.522  12.055
 8011W        W67756  40.326  20.690   3.157
 8012W        W67757  13.171  21.693   1.310
 8013W        W67758  44.468  44.317   0.864
 8014W        W67759  31.614   2.789   2.309
 8015W        W67760  38.442  25.178  10.586
 8016W        W67761  35.501   8.258  12.087
 8017W        W67762  31.913  27.638   3.823
 8018W        W67763  24.552  29.528  14.489
 8019W        W67764  43.390  40.500  12.982
 8020W        W67765  18.746   8.800   0.482
 8021W        W67766   1.272   4.413   4.775
 8022W        W67767  10.208  41.474  10.425
 8023W        W67768   3.373  25.213  14.018
 8024W        W67769  38.971   8.321  14.823
 8025W        W67770  23.155  31.136   2.403
 8026W        W67771  17.575  25.711  10.639
 8027W        W67772  44.298  14.146  11.124
 8028W        W67773  33.097  14.253   3.331
 8029W        W67774   9.221  20.675  12.436
 8030W        W67775  10.648  29.562   0.805
 8031W        W67776  20.037   4.277  13.821
 8032W        W67777  40.522  28.025  10.527
 8033W        W67778  26.951   0.760  11.002
 8034W        W67779  38.547   4.926  13.894
 8035W        W67780  15.252  44.330   1.930
 8036W        W67781   0.941  15.738   2.759
 8037W        W67782  39.817  27.530  14.958
 8038W        W67783   6.811  22.593   4.233
 8039W        W67784   6.762  35.547   0.409
 8040W        W67785   4.722   8.862   9.930
 8041W        W67786  25.651  22.521   5.129
 8042W        W67787  43.959  36.871  13.976
 8043W        W67788  21.068  38.517   1.855
 8044W        W67789  17.169  10.715  12.865
 8045W        W67790  38.432   8.183   0.451
 8046W        W67791   1.835  32.055   0.453
 8047W        W67792   6.301   5.786   1.365
 8048W        W67793   0.966  42.783   1.402
 8049W        W67794  38.527   9.343   0.476
 8050W        W67795  31.980  25.985   0.913
 8051W        W67796  41.386   5.883   0.245
 8052W        W67797  13.604  41.951   1.424
 8053W        W67798  30.542  18.275  12.476
 8054W        W67799  24.566   2.387   3.276
 8055W        W67800  15.299  11.678   1.339
 8056W        W67801  23.008  43.406   4.687
 8057W        W67802  22.047  39.017   1.708
 8058W        W67803   7.869  18.581  13.542
 8059W        W67804  13.313  32.886   4.833
 8060W        W67805  30.954  40.451  11.074
 8061W        W67806  10.350  33.928  10.464
 8062W        W67807  20.036  20.183   4.215
 8063W        W67808  18.214  14.626  14.920
 8064W        W67809  39.987  12.639   0.965
 8065W        W67810  10.825  42.886   0.403
 8066W        W67811   2.464  16.272  11.591
 8067W        W67812   6.919   9.255  12.092
 8068W        W67813  32.536  25.112   3.225
 8069W        W67814  35.857  32.075  11.960
 8070W        W67815  34.477  27.184   3.273
 8071W        W67816   3.426  10.743  12.923
 8072W        W67817  41.301  44.493   3.832
 8073W        W67818  10.729  34.085   3.329
 8074W        W67819  44.956  22.212   0.954
 8075W        W67820  41.877  13.675   2.203
 8076W        W67821  41.922  25.007   1.247
 8077W        W67822  24.716  20.038   3.629
 8078W        W67823  33.002  41.532  10.906
 8079W        W67824  37.372  41.984   4.315
 8080W        W67825  21.119  40.547   5.232
 8081W        W67826  32.579  31.454   1.888
 8082W        W67827   9.204  44.978  11.382
 8083W        W67828  33.511  17.714   4.232
 8084W        W67829  22.678   4.800   3.702
 8085W        W67830   4.262  17.768   0.754
 8086W        W67831  28.556  23.119  14.913
 8087W        W67832  11.323  35.397  13.811
 8088W        W67833   1.402  16.229  11.400
 8089W        W67834  27.572  30.934   1.219
 8090W        W67835  22.217  40.880   1.380
 8091W        W67836  24.074  43.872   0.432
 8092W        W67837  34.045  14.802   0.439
 8093W        W67838  19.722  11.242  13.342
 8094W        W67839  42.450  23.159   4.716
 8095W        W67840  15.584  29.076  10.555
 8096W        W67841  44.370   7.727  14.026
 8097W        W67842  15.113  24.028  13.348
 8098W        W67843  19.133  29.654  10.952
 8099W        W67844   2.472   9.280   2.810
 8100W        W67845  27.990  36.455  12.965
 8101W        W67846  42.870  31.006   9.579
 8102W        W67847  19.091  34.931   2.363
 8103W        W67848  34.942   7.847  10.974
 8104W        W67849   9.672   7.414  13.323
 8105W        W67850  31.911  24.680  10.891
 8106W        W67851  43.446  33.057   2.306
 8107W        W67852  16.074  37.878  10.586
 8108W        W67853  18.197  18.200   2.701
 8109W        W67854   0.830  16.215   2.714
 8110W        W67855  34.504  33.533   1.314
 8111W        W67856  39.391  14.714  11.090
 8112W        W67857   1.830  18.729  14.399
 8113W        W67858  10.828  23.705   3.331
 8114W        W67859  37.007   8.324   3.804
 8115W        W67860  23.735  21.071   3.658
 8116W        W67861  26.064   3.229   1.907
 8117W        W67862  10.227  42.920  12.069
 8118W        W67863  19.273  39.493  14.002
 8119W        W67864  42.475  44.913   0.377
 8120W        W67865   8.804  22.175   4.786
 8121W        W67866   8.759  15.236  14.919
 8122W        W67867   8.889   1.441  13.327
 8123W        W67868   8.721  15.621   4.726
 8124W        W67869  30.968  31.490   0.829
 8125W        W67870  18.603  30.606   0.966
 8126W        W67871  24.974  43.385  11.443
 8127W        W67872  32.105  24.981  14.404
 8128W        W67873   0.343  42.023   2.389
 8129W        W67874  40.420  17.277  14.766
 8130W        W67875  35.379  28.453   1.276
 8131W        W67876  16.702  11.641  13.411
 8132W        W67877  44.928  20.091   0.374
 8133W        W67878   3.772  31.564   9.636
 8134W        W67879  19.245  21.098   3.701
 8135W        W67880  43.859  42.865   4.722
 8136W        W67881  25.484  41.362  11.486
 8137W        W67882   3.228  42.924   3.780
 8138W        W67883  36.350  29.002   2.782
 8139W        W67884  25.534  39.064   0.894
 8140W        W67885  11.782   3.283  13.348
 8141W        W67886   0.754   7.773  12.384
 8142W        W67887  25.132  43.015  14.928
 8143W        W67888  10.827  19.742   2.712
 8144W        W67889   2.305  29.559   1.776
 8145W        W67890  10.155  28.615   1.932
 8146W        W67891  21.055   1.795   4.128
 8147W        W67892   2.852   3.352   4.236
 8148W        W67893  17.667  31.506  12.062
 8149W        W67894  38.854  20.659   4.294
 8150W        W67895  23.031  18.638   1.423
 8151W        W67896  13.334  18.236   0.797
 8152W        W67897  18.052  30.592   3.815
 8153W        W67898   8.871  42.319   2.877
 8154W        W67899  32.453  14.827   0.963
 8155W        W67900   3.297  30.569   4.330
 8156W        W67901  24.482  28.981  14.479
 8157W        W67902   3.428   0.837  10.588
 8158W        W67903   1.328  15.179  13.483
 8159W        W67904  24.479  37.861   1.775
 8160W        W67905  24.602  17.744   3.840
 8161W        W67906   2.820  16.678   1.878
 8162W        W67907  23.017  13.300   9.986
 8163W        W67908   1.287  27.483  12.358
 8164W        W67909  25.023   8.781   0.834
 8165W        W67910  31.939  19.206  14.976
 8166W        W67911  12.204  20.208  14.918
 8167W        W67912  43.846  15.761   4.626
 8168W        W67913  28.465  43.823   4.730
 8169W        W67914   3.433  26.999   1.242
 8170W        W67915  23.147  29.161  13.329
 8171W        W67916  41.348  18.589   3.386
 8172W        W67917  20.273   4.732   2.207
 8173W        W67918  38.470   5.859   4.114
 8174W        W67919  28.940  41.832   1.219
 8175W        W67920  17.195  22.696   1.806
 8176W        W67921  41.385  42.901  13.359
 8177W        W67922  33.937  28.936  12.361
 8178W        W67923   7.417  44.826  11.599
 8179W        W67924  15.592  29.664  13.807
 8180W        W67925  11.650   6.223  12.013
 8181W        W67926  12.244  36.525   1.727
 8182W        W67927  40.444   9.370  12.512
 8183W        W67928  28.439  36.037   2.684
 8184W        W67929  43.454  12.827  12.984
 8185W        W67930  40.014  34.441  13.361
 8186W        W67931  43.859  31.441   3.334
 8187W        W67932  33.885  35.060   1.857
 8188W        W67933   1.464  42.332   3.198
 8189W        W67934  38.414  24.999  14.030
 8190W        W67935  14.280   0.765  12.400
 8191W        W67936  41.843  10.365   2.185
 8192W        W67937  22.504  28.558   0.364
 8193W        W67938  11.757  28.126  14.338
 8194W        W67939  31.093  33.964   3.632
 8195W        W67940  27.477  34.002   1.450
 8196W        W67941  16.793  35.469  11.929
 8197W        W67942  20.233  37.998   2.697
 8198W        W67943  10.748  36.404   3.181
 8199W        W67944  41.862  17.719  11.908
 8200W        W67945  23.073  11.858   1.756
 8201W        W67946   3.831  10.236   4.825
 8202W        W67947  25.091  12.171   1.371
 8203W        W67948  18.296  12.773   2.327
 8204W        W67949   2.934  29.534   1.701
 8205W        W67950   7.861  16.781  14.863
 8206W        W67951   4.911  18.757  10.538
 8207W        W67952  33.085  34.445  13.444
 8208W        W67953  25.517   8.268  14.765
 8209W        W67954  17.109   4.784  11.962
 8210W        W67955  24.660  34.615  13.360
 8211W        W67956  39.834  29.971   4.125
 8212W        W67957  32.512  15.739   3.247
 8213W        W67958  18.571  29.925  13.915
 8214W        W67959  44.877  31.636   2.238
 8215W        W67960   1.394  23.026   3.244
 8216W        W67961  22.659   9.316  14.295
 8217W        W67962   3.287   9.238   4.727
 8218W        W67963  39.456  12.332  14.952
 8219W        W67964  22.624  24.060  10.894
 8220W        W67965  29.584  30.995  11.887
 8221W        W67966  11.250  32.571  12.040
 8222W        W67967  44.504   6.892  10.553
 8223W        W67968   3.807  36.094   4.118
 8224W        W67969   1.314   9.236   0.910
 8225W        W67970  18.271  30.004   0.932
 8226W        W67971  36.990  16.638  12.914
 8227W        W67972  15.265  44.323  12.522
 8228W        W67973  32.596   1.466  11.076
 8229W        W67974   7.668   2.802   4.736
 8230W        W67975   5.796  10.288  12.992
 8231W        W67976  11.626  31.436   2.334
 8232W        W67977  39.987  41.900  12.044
 8233W        W67978   5.902  19.283  10.582
 8234W        W67979  26.002  10.338  13.322
 8235W        W67980   9.229  43.922   3.282
 8236W        W67981  27.183  30.437   9.480
 8237W        W67982  25.027  38.894  14.010
 8238W        W67983   2.390  10.709  12.347
 8239W        W67984  28.588  35.900  12.472
 8240W        W67985  26.544  36.423   4.838
 8241W        W67986  15.092  30.530  12.345
 8242W        W67987   5.439   1.794  11.464
 8243W        W67988  20.129  27.483  13.323
 8244W        W67989  28.983  11.833   0.424
 8245W        W67990  14.794   9.798  10.623
 8246W        W67991  29.005   1.943  13.937
 8247W        W67992  24.708  24.986  12.969
 8248W        W67993  43.960  31.423  12.580
 8249W        W67994  27.630  18.554  14.291
 8250W        W67995  16.804   4.711  13.945
 8251W        W67996  38.419  32.392   1.266
 8252W        W67997   2.436  40.979   1.798
 8253W        W67998   1.944  20.054  10.423
 8254W        W67999  16.289  17.224   3.256
 8255W        W68000   0.385  20.653   2.223
 8256W        W68001  20.554   9.304  11.609
 8257W        W68002  28.454  21.649  13.381
 8258W        W68003   5.920  19.162  13.458
 8259W        W68004   5.826   7.863   0.326
 8260W        W68005  21.605   0.974  13.932
 8261W        W68006  42.803  17.125  13.530
 8262W        W68007  20.727  30.129  11.943
 8263W        W68008  13.303  34.074  13.872
 8264W        W68009  13.703  33.875   0.272
 8265W        W68010  12.684  12.825  14.850
 8266W        W68011  21.560  43.941  11.121
 8267W        W68012   4.288  13.183  14.503
 8268W        W68013  20.728  19.735   1.787
 8269W        W68014  44.783  40.953  13.060
 8270W        W68015  42.523  20.665   3.361
 8271W        W68016  14.261  42.779   1.293
 8272W        W68017  22.035  13.745   0.265
 8273W        W68018  32.919   6.402   2.292
 8274W        W68019  32.001  43.811  12.536
 8275W        W68020   8.221  42.406  13.842
 8276W        W68021  44.464  15.722   4.342
 8277W        W68022  33.470   3.776  14.450
 8278W        W68023  34.032  40.051  11.937
 8279W        W68024  34.385   3.784  11.876
 8280W        W68025  42.829  15.638   1.278
 8281W        W68026   5.299  12.722  14.395
 8282W        W68027  23.195   9.185  11.950
 8283W        W68028  44.946  43.333   0.307
 8284W        W68029  27.000   2.304  14.370
 8285W        W68030  22.610   5.261   4.195
 8286W        W68031   9.754  23.991   1.913
 8287W        W68032  25.530  13.120   2.818
 8288W        W68033  29.440  33.126   4.620
 8289W        W68034   9.644  17.120  13.361
 8290W        W68035   0.913  31.909  14.470
 8291W        W68036  35.048  42.398   2.349
 8292W        W68037  16.594  25.469   1.728
 8293W        W68038  44.296  24.690  13.791
 8294W        W68039  41.900  31.450   1.363
 8295W        W68040  20.049  17.192  12.421
 8296W        W68041   0.981   1.958   9.966
 8297W        W68042  12.675  38.519   4.263
 8298W        W68043  21.608   0.321  11.438
 8299W        W68044  29.621  36.430  14.000
 8300W        W68045  17.639  42.299   0.885
 8301W        W68046  32.955  42.288  12.948
 8302W        W68047  24.000   7.371   2.837
 8303W        W68048  13.832  33.435  14.977
 8304W        W68049  24.027  23.008  13.395
 8305W        W68050  17.614  13.162   1.929
 8306W        W68051  38.345  27.998  14.308
 8307W        W68052  31.551   1.304  10.059
 8308W        W68053   8.248  19.576  14.288
 8309W        W68054  20.564  38.922   3.824
 8310W        W68055  14.743   1.242   4.713
 8311W        W68056  30.057   3.867  10.494
 8312W        W68057   7.377  20.528   1.301
 8313W        W68058  43.985  30.969  11.968
 8314W        W68059  29.159  19.111   0.948
 8315W        W68060  19.641  22.043   1.788
 8316W        W68061  29.075   2.419  13.872
 8317W        W68062   2.392  44.768  12.040
 8318W        W68063  23.020   0.920  10.968
 8319W        W68064  10.154  31.500  11.389
 8320W        W68065   0.358   5.224  12.087
 8321W        W68066   5.701   6.834  10.573
 8322W        W68067   6.745   3.275   1.806
 8323W        W68068  11.281  20.117  13.537
 8324W        W68069  32.444  44.293   9.932
 8325W        W68070  25.642  41.466   4.711
 8326W        W68071  25.045  27.987   4.206
 8327W        W68072  12.628  16.699  10.507
 8328W        W68073  37.367  14.803   4.137
 8329W        W68074  30.612  10.690   0.251
 8330W        W68075  33.562  43.820   0.373
 8331W        W68076  22.597  40.879   1.413
 8332W        W68077  21.595  31.448   5.783
 8333W        W68078  41.417  14.724  14.398
 8334W        W68079  24.133  20.183  10.464
 8335W        W68080  34.593  32.394  11.404
 8336W        W68081  18.717  34.952   3.689
 8337W        W68082  25.633  10.374   2.247
 8338W        W68083  32.134  32.467  13.971
 8339W        W68084   6.705   4.805  12.000
 8340W        W68085  35.869  16.236   4.767
 8341W        W68086  14.237   9.301   3.839
 8342W        W68087  36.394   6.692   3.252
 8343W        W68088  28.951  19.603  11.903
 8344W        W68089  35.497  13.622  12.542
 8345W        W68090   2.365  14.677  12.391
 8346W        W68091  13.749   9.678   4.621
 8347W        W68092  42.870  23.229  12.093
 8348W        W68093  27.981  36.098   4.757
 8349W        W68094   6.348   1.897  11.942
 8350W        W68095  37.031  34.522   0.825
 8351W        W68096  42.016  14.687  11.594
 8352W        W68097   2.447  31.146  11.588
 8353W        W68098  20.109  25.141   4.283
 8354W        W68099  41.807  15.731  10.119
 8355W        W68100   9.772  41.991   0.825
 8356W        W68101  43.821  26.456  13.057
 8357W        W68102  43.416  24.189  14.783
 8358W        W68103  37.379  22.023   2.870
 8359W        W68104   7.678  14.620  14.396
 8360W        W68105  17.633  23.034  13.375
 8361W        W68106  13.819   6.830  13.051
 8362W        W68107  19.729  24.493  14.819
 8363W        W68108  35.091  14.809   2.335
 8364W        W68109  31.629   0.350   4.695
 8365W        W68110   2.379  32.528  13.528
 8366W        W68111  11.777  32.637  10.952
 8367W        W68112  20.581   0.912  10.900
 8368W        W68113  12.207  16.790  13.003
 8369W        W68114  36.985  35.865  13.351
 8370W        W68115   5.754  38.357  14.453
 8371W        W68116  14.323  30.511  10.556
 8372W        W68117  19.703  15.170   2.752
 8373W        W68118  23.986  27.458  12.916
 8374W        W68119   8.838  44.282   0.821
 8375W        W68120   4.352  39.479   0.885
 8376W        W68121  31.139   7.233  14.410
 8377W        W68122  17.158   1.321  14.350
 8378W        W68123  21.207  35.478  13.969
 8379W        W68124   6.903   9.865  10.424
 8380W        W68125  21.147  38.348   2.250
 8381W        W68126  40.994  26.202  14.847
 8382W        W68127  31.630  16.726   0.926
 8383W        W68128  22.585   8.822   1.402
 8384W        W68129  14.284   7.334  13.794
 8385W        W68130  42.910  38.538  11.112
 8386W        W68131  38.383   8.688  12.042
 8387W        W68132  18.105  24.480  11.382
 8388W        W68133  36.855  25.573  13.012
 8389W        W68134  33.411  18.177  11.044
 8390W        W68135  38.986  10.292  10.404
 8391W        W68136  11.734  28.437  13.945
 8392W        W68137  31.131   9.880   2.865
 8393W        W68138  13.830  18.579  12.522
 8394W        W68139  20.093  18.742   3.867
 8395W        W68140  26.540  22.186   1.758
 8396W        W68141  19.541   7.869   0.282
 8397W        W68142  19.274  44.884  14.438
 8398W        W68143  16.742  22.101  11.454
 8399W        W68144  23.586  42.448  10.980
 8400W        W68145  23.099   5.733   1.840
 8401W        W68146   1.307  38.503   3.383
 8402W        W68147   8.317   9.872   4.335
 8403W        W68148  13.296  33.419   1.217
 8404W        W68149  22.199  33.904   0.255
 8405W        W68150  41.479  15.213  11.090
 8406W        W68151  18.141  34.600   3.161
 8407W        W68152  34.507  11.207  12.354
 8408W        W68153  28.681  41.502   2.182
 8409W        W68154   3.457  16.691   1.255
 8410W        W68155  13.197   2.766  10.453
 8411W        W68156   5.209  15.102  12.417
 8412W        W68157  36.547  25.563   4.743
 8413W        W68158  26.180   9.298  13.515
 8414W        W68159  12.671   3.312   0.419
 8415W        W68160   7.675  30.087   1.227
 8416W        W68161   6.393  35.073  12.991
 8417W        W68162  34.389   7.885  10.487
 8418W        W68163  37.854  27.658  12.896
 8419W        W68164  14.116  40.047   4.758
 8420W        W68165  37.953  38.990   4.127
 8421W        W68166  14.302  25.654  10.576
 8422W        W68167   6.762   8.344  13.883
 8423W        W68168  27.099   9.354   1.232
 8424W        W68169  39.927  44.333  14.763
 8425W        W68170  41.410  28.532  12.417
 8426W        W68171   7.871  14.747   4.705
 8427W        W68172  26.657   1.930  11.390
 8428W        W68173   6.240  29.500  11.400
 8429W        W68174   0.971  25.131  11.915
 8430W        W68175  25.983  23.998   3.272
 8431W        W68176  11.228  13.159  12.020
 8432W        W68177   9.382  28.561  13.938
 8433W        W68178  34.380  18.257   3.194
 8434W        W68179  27.627  10.138   2.813
 8435W        W68180   7.750  14.600   1.699
 8436W        W68181  17.577   3.245   2.735
 8437W        W68182  17.708  21.708   2.383
 8438W        W68183  11.796  34.972   1.212
 8439W        W68184  36.862   5.329   0.917
 8440W        W68185  26.124  10.374   0.921
 8441W        W68186   4.240  31.902   0.275
 8442W        W68187  41.374   6.390  14.785
 8443W        W68188   8.354  32.044  13.846
 8444W        W68189  30.941   3.954  14.427
 8445W        W68190  11.676  16.087   4.133
 8446W        W68191  11.224  24.511   2.290
 8447W        W68192  26.178  37.969  10.464
 8448W        W68193  44.475  44.904   0.332
 8449W        W68194  15.731  44.458  11.600
 8450W        W68195  44.780  29.100   2.870
 8451W        W68196  42.367   8.684  11.009
 8452W        W68197   1.923  28.654  14.976
 8453W        W68198  31.571  44.408  11.451
 8454W        W68199  28.445  23.176   2.720
 8455W        W68200  18.094  24.138   4.144
 8456W        W68201  24.060  29.947  12.449
 8457W        W68202   5.883  34.024  11.021
 8458W        W68203  12.773  12.327  14.345
 8459W        W68204   5.226  24.575   4.271
 8460W        W68205  31.076  35.368  13.448
 8461W        W68206  18.648  28.940  12.535
 8462W        W68207  33.441   8.802   2.684
 8463W        W68208  13.280  37.559   0.334
 8464W        W68209   8.736  31.911   4.742
 8465W        W68210   3.287   8.760   0.329
 8466W        W68211   7.745   7.903   4.723
 8467W        W68212  22.098  14.145   2.754
 8468W        W68213  22.056  42.373  14.424
 8469W        W68214  13.159  14.699  13.988
 8470W        W68215  16.707  40.842  11.099
 8471W        W68216   0.747  38.838   1.309
 8472W        W68217  44.899  42.855   2.296
 8473W        W68218   4.710  31.033   0.447
 8474W        W68219   4.701  19.144   5.174
 8475W        W68220   5.697  34.568  13.883
 8476W        W68221  31.533  34.973   1.734
 8477W        W68222   1.965   6.309  14.967
 8478W        W68223  28.542  28.599  12.431
 8479W        W68224  38.037  22.079  11.012
 8480W        W68225  28.667   0.858  14.352
 8481W        W68226  12.219  29.068   4.147
 8482W        W68227  26.645  17.585   0.934
 8483W        W68228  12.132  29.584   1.415
 8484W        W68229  31.524  23.540  11.599
 8485W        W68230  29.517  43.450  11.496
 8486W        W68231  31.435  18.217   3.699
 8487W        W68232  19.582  30.495  13.825
 8488W        W68233  16.206  14.161   3.785
 8489W        W68234  12.624  39.455   4.642
 8490W        W68235  20.055  44.864   0.868
 8491W        W68236  29.929  38.828  13.381
 8492W        W68237  43.786  11.829  10.455
 8493W        W68238  34.542  33.531   3.843
 8494W        W68239   7.674   9.863  11.488
 8495W        W68240  11.689  24.134  13.453
 8496W        W68241  14.246   1.783  13.971
 8497W        W68242  32.063  35.965   0.745
 8498W        W68243   2.339  34.082  11.966
 8499W        W68244  44.299  35.967   1.386
 8500W        W68245  36.378  36.554   4.176
 8501W        W68246   2.943   5.235  13.516
 8502W        W68247  33.498  22.010   1.260
 8503W        W68248  35.084  20.242  11.074
 8504W        W68249  13.164  12.362  14.818
 8505W        W68250  19.601   6.869  14.337
 8506W        W68251  41.944  13.225  14.309
 8507W        W68252  16.626   5.870  10.526
 8508W        W68253   0.780   2.859  12.034
 8509W        W68254  17.673  16.165  12.449
 8510W        W68255   3.747   4.208   2.205
 8511W        W68256  28.979  44.797   1.897
 8512W        W68257   8.322  34.458   3.341
 8513W        W68258  18.168  13.196   0.457
 8514W        W68259   3.860  28.465   5.651
 8515W        W68260  21.247  26.517   2.748
 8516W        W68261  11.166  26.614  10.641
 8517W        W68262  26.986  37.896  10.416
 8518W        W68263  18.192   8.257  13.046
 8519W        W68264  11.304  22.662   0.967
 8520W        W68265  24.112  26.549  10.962
 8521W        W68266   7.873  38.414   4.315
 8522W        W68267  28.155  23.613   0.334
 8523W        W68268  18.560  37.010  12.564
 8524W        W68269   9.728  11.664  11.118
 8525W        W68270  29.647  15.229   0.452
 8526W        W68271  14.626  30.960  10.511
 8527W        W68272  14.626   6.812   3.818
 8528W        W68273  12.159  44.260  10.521
 8529W        W68274  18.689  41.319  13.426
 8530W        W68275   6.210  33.951  11.950
 8531W        W68276  23.595  17.276  10.084
 8532W        W68277  41.429  34.400  13.434
 8533W        W68278  15.651  29.940   2.328
 8534W        W68279  15.774   2.953  12.894
 8535W        W68280   7.286  16.637   2.216
 8536W        W68281  40.865  35.903  12.477
 8537W        W68282  25.194  26.009  14.836
 8538W        W68283  30.079  35.864   2.676
 8539W        W68284  35.866   8.191  13.421
 8540W        W68285   1.360  36.588   9.450
 8541W        W68286  28.565   3.872  14.339
 8542W        W68287  21.049  42.513   0.844
 8543W        W68288   1.744  11.259  11.116
 8544W        W68289   2.401  16.152  13.390
 8545W        W68290   5.833  17.102   2.788
 8546W        W68291  28.538   8.192   2.734
 8547W        W68292   8.240   7.900  10.600
 8548W        W68293   6.383  37.999  14.961
 8549W        W68294   0.357  40.836  13.378
 8550W        W68295  22.070   3.348   0.963
 8551W        W68296   0.305  30.447  10.112
 8552W        W68297  14.821  33.570   4.197
 8553W        W68298   3.399  20.654   4.666
 8554W        W68299  23.551  31.900   0.319
 8555W        W68300  15.745  17.785  13.353
 8556W        W68301  10.263  19.113   4.701
 8557W        W68302  32.601  23.018  10.483
 8558W        W68303  38.035   9.307  14.378
 8559W        W68304  41.862  37.394   5.313
 8560W        W68305  18.608  10.382   2.676
 8561W        W68306  33.901  36.373   3.793
 8562W        W68307  12.722  23.504  10.457
 8563W        W68308  43.281  16.313   2.867
 8564W        W68309  44.413  21.079   2.361
 8565W        W68310   0.861  30.063  14.308
 8566W        W68311  17.689   8.864   5.254
 8567W        W68312  31.979  27.687   4.253
 8568W        W68313  21.701  25.169   5.095
 8569W        W68314  27.533   6.268  11.871
 8570W        W68315  41.910  29.442   1.274
 8571W        W68316  24.226   2.899  12.902
 8572W        W68317  41.996   8.389  11.122
 8573W        W68318  17.607  32.557  12.397
 8574W        W68319  26.053  40.397  14.342
 8575W        W68320  28.996  21.626  14.967
 8576W        W68321  23.693  20.271   2.328
 8577W        W68322  35.431  28.963  12.549
 8578W        W68323  29.027  31.504  13.929
 8579W        W68324   7.893  38.967  12.902
 8580W        W68325   2.845  27.531  14.276
 8581W        W68326   6.348  23.015  12.452
 8582W        W68327   0.295  31.557   0.849
 8583W        W68328  44.462  34.114   1.905
 8584W        W68329  21.022  32.043  13.942
 8585W        W68330  25.170  33.617   0.389
 8586W        W68331   8.872  32.046   2.859
 8587W        W68332  19.621  11.185  11.510
 8588W        W68333  37.047  35.075   4.735
 8589W        W68334  14.676  33.452   0.946
 8590W        W68335  13.731   3.787  13.333
 8591W        W68336  34.015  25.109  12.848
 8592W        W68337  22.503  28.163   5.090
 8593W        W68338   6.689  18.633   4.204
 8594W        W68339  15.092  28.531  12.460
 8595W        W68340  20.723  14.148  11.994
 8596W        W68341  16.729   9.681   1.423
 8597W        W68342  36.901  32.588   1.445
 8598W        W68343  37.551   9.721   0.457
 8599W        W68344  36.936   3.261  12.069
 8600W        W68345  42.921   4.925  10.948
 8601W        W68346  21.120  33.566  10.930
 8602W        W68347  42.873  14.765   0.311
 8603W        W68348  26.698  44.872   3.649
 8604W        W68349   3.920  19.152   1.754
 8605W        W68350   0.922  35.089   1.281
 8606W        W68351   5.330   5.292  11.460
 8607W        W68352   5.276  39.342  12.064
 8608W        W68353  39.971  27.571  10.599
 8609W        W68354  44.764  10.264   1.889
 8610W        W68355  37.468  31.578  11.559
 8611W        W68356  26.014  15.262   0.885
 8612W        W68357  37.051  26.493   3.810
 8613W        W68358  23.122   0.956  12.496
 8614W        W68359  18.221  34.072  14.817
 8615W        W68360   5.344  10.352   2.834
 8616W        W68361  27.076  44.930  12.060
 8617W        W68362  10.781  24.151  12.494
 8618W        W68363   0.434  27.942  14.998
 8619W        W68364  16.149  42.355   2.787
 8620W        W68365  20.585  44.837  10.012
 8621W        W68366  34.079  31.510  13.910
 8622W        W68367  36.031  26.067  11.961
 8623W        W68368   8.359   5.906  11.996
 8624W        W68369   7.685  43.276   1.318
 8625W        W68370  17.144  17.594   0.923
 8626W        W68371  36.979  23.668   1.925
 8627W        W68372  38.838  22.142   1.271
 8628W        W68373  32.589  14.658  11.894
 8629W        W68374  10.328   5.872   5.162
 8630W        W68375  39.918  24.671   1.214
 8631W        W68376   4.795   5.403   2.828
 8632W        W68377   8.834  26.669  11.110
 8633W        W68378  37.454  41.307   1.718
 8634W        W68379   3.919  22.053   0.749
 8635W        W68380  10.182  10.162  13.919
 8636W        W68381  42.446  11.635   0.945
 8637W        W68382  42.349  43.813  13.326
 8638W        W68383  43.902  18.615  11.392
 8639W        W68384   4.867  29.549   0.341
 8640W        W68385  29.568  33.079   2.804
 8641W        W68386  17.148   0.476   1.833
 8642W        W68387  41.385  41.931   4.639
 8643W        W68388  35.390  26.088   2.787
 8644W        W68389  20.692  11.852   1.926
 8645W        W68390  13.265   1.302  12.461
 8646W        W68391   9.343  42.416   2.203
 8647W        W68392   5.747  24.162   0.305
 8648W        W68393  18.610  12.750  11.111
 8649W        W68394  35.384  13.655  13.020
 8650W        W68395  38.452  11.636   3.865
 8651W        W68396  27.991  33.089  12.566
 8652W        W68397  15.739   3.797  11.942
 8653W        W68398  32.008  26.111   1.844
 8654W        W68399   1.477  16.247   3.787
 8655W        W68400  43.895  30.083  14.358
 8656W        W68401  19.075  24.987  13.871
 8657W        W68402   6.759   6.708   2.414
 8658W        W68403  13.815   1.369   2.269
 8659W        W68404  34.499   3.219  14.276
 8660W        W68405  17.133  32.927   9.973
 8661W        W68406  16.692  42.460  11.967
 8662W        W68407  33.933  20.637   3.308
 8663W        W68408  41.823  10.265  14.367
 8664W        W68409  10.279   2.742  11.952
 8665W        W68410  21.556  10.765  14.386
 8666W        W68411  11.245   8.821   0.784
 8667W        W68412   0.362  22.204   4.135
 8668W        W68413  35.085  40.525  11.887
 8669W        W68414  18.175   3.798  13.833
 8670W        W68415  17.729  24.191  11.537
 8671W        W68416  40.370  26.181   1.361
 8672W        W68417   9.787   9.371   3.171
 8673W        W68418   7.767  29.487   4.182
 8674W        W68419  15.645  41.485  14.456
 8675W        W68420  13.144  17.716   1.916
 8676W        W68421  28.486   4.781  11.515
 8677W        W68422  31.080  31.525  14.765
 8678W        W68423  25.030  30.115   1.921
 8679W        W68424  43.882  23.159  13.473
 8680W        W68425  27.067  32.543   0.393
 8681W        W68426  26.689  32.960  13.833
 8682W        W68427  20.665  19.754   3.652
 8683W        W68428  18.585  33.611  10.410
 8684W        W68429  40.992  26.166   1.379
 8685W        W68430  11.345  31.573   0.380
 8686W        W68431  33.437   2.227  11.081
 8687W        W68432   4.370  27.521  11.098
 8688W        W68433  35.414  39.445  11.374
 8689W        W68434  38.975  44.467  10.520
 8690W        W68435  26.169   0.494  12.481
 8691W        W68436  22.195  42.415  12.929
 8692W        W68437  13.680  22.642   0.319
 8693W        W68438  28.659  19.642  14.962
 8694W        W68439  39.907  36.569  14.006
 8695W        W68440  31.971  32.975   4.138
 8696W        W68441  29.538  37.055   1.884
 8697W        W68442  10.871  29.493   4.183
 8698W        W68443  28.651  25.001  10.949
 8699W        W68444  41.512  34.486  13.012
 8700W        W68445  36.919  30.558  11.081
 8701W        W68446  35.552  41.007  11.040
 8702W        W68447  13.844  16.171  10.443
 8703W        W68448  26.202   9.705   3.153
 8704W        W68449   4.264  39.528  11.568
 8705W        W68450  34.974  24.099   4.622
 8706W        W68451  43.290  39.560   0.785
 8707W        W68452   8.336  14.764   0.274
 8708W        W68453  15.156   2.754   4.295
 8709W        W68454  42.920  24.164  14.877
 8710W        W68455  43.345  13.240   3.162
 8711W        W68456  25.157  13.801   3.344
 8712W        W68457  44.491  16.203  14.810
 8713W        W68458  43.420  37.853   3.182
 8714W        W68459  25.557   6.904   4.196
 8715W        W68460  35.943  30.085   2.206
 8716W        W68461  20.754  43.338  11.395
 8717W        W68462  13.689  31.100  12.083
 8718W        W68463   0.453  19.262   1.243
 8719W        W68464  27.660  12.674  13.812
 8720W        W68465  25.074   2.296  11.008
 8721W        W68466  31.103  32.447   4.771
 8722W        W68467   2.953   2.728  12.455
 8723W        W68468  42.464   1.338   1.349
 8724W        W68469  17.171  42.474  11.121
 8725W        W68470  36.351  27.084  12.344
 8726W        W68471  44.978  19.234  13.948
 8727W        W68472  31.963  26.119  10.623
 8728W        W68473  15.091  41.486  14.466
 8729W        W68474   0.829  39.042   0.845
 8730W        W68475  40.335   3.832   2.870
 8731W        W68476  29.159  43.340  10.439
 8732W        W68477  40.972  12.754   3.837
 8733W        W68478  18.732  40.303   3.238
 8734W        W68479  24.544  40.926   1.744
 8735W        W68480  16.305   7.785  12.521
 8736W        W68481   6.898  40.950  13.002
 8737W        W68482  27.095  38.391  10.533
 8738W        W68483  10.307   3.258   3.691
 8739W        W68484  42.523   3.870   3.266
 8740W        W68485  22.131  32.533  10.536
 8741W        W68486  38.556   8.340  10.483
 8742W        W68487  22.520  42.004  13.812
 8743W        W68488  29.109  44.282   0.897
 8744W        W68489   2.950  41.025   1.212
 8745W        W68490  12.848  24.189  14.496
 8746W        W68491  18.578  42.011  11.384
 8747W        W68492  36.023   7.804  12.074
 8748W        W68493  17.108   4.408   0.836
 8749W        W68494  13.263  30.425   0.967
 8750W        W68495  15.214   8.656   3.818
 8751W        W68496   6.762  43.433   4.690
 8752W        W68497   1.481  10.637  12.357
 8753W        W68498  31.909  29.441   1.815
 8754W        W68499  10.233   7.271  14.329
 8755W        W68500  20.629   2.726  14.976
 8756W        W68501  24.149  31.012   1.796
 8757W        W68502  42.430   2.899   1.818
 8758W        W68503  15.210   3.888  10.570
 8759W        W68504   7.865  22.168  14.792
 8760W        W68505  37.009   1.268   2.901
 8761W        W68506  20.701   3.865   2.723
 8762W        W68507  37.406   6.339   5.122
 8763W        W68508   4.225  36.988   9.991
 8764W        W68509   6.864  34.102   1.248
 8765W        W68510  16.739  10.774   2.876
 8766W        W68511  35.005  42.023   3.644
 8767W        W68512  18.583  40.392  11.001
 8768W        W68513  43.820   2.338  11.482
 8769W        W68514  20.581  41.518  12.424
 8770W        W68515  10.343   3.361  13.798
 8771W        W68516  16.713   1.272   1.910
 8772W        W68517  41.427   3.246  11.027
 8773W        W68518  22.052   1.367   2.405
 8774W        W68519  44.964  41.937   3.219
 8775W        W68520  16.661  43.944   1.897
 8776W        W68521   1.285   9.797  14.976
 8777W        W68522   2.324  42.952   2.792
 8778W        W68523  33.990  38.345  14.775
 8779W        W68524   4.399  41.805   1.934
 8780W        W68525  38.892   8.314  10.446
 8781W        W68526  39.879  25.591   4.190
 8782W        W68527   1.242  33.382   4.601
 8783W        W68528  35.984  13.299  11.466
 8784W        W68529  41.025  11.273  13.956
 8785W        W68530  17.145  35.434  10.607
 8786W        W68531  27.192  22.665   4.662
 8787W        W68532  30.065  41.313  10.566
 8788W        W68533  33.969  40.900  14.395
 8789W        W68534  26.541  32.897   4.212
 8790W        W68535  19.228  18.243  13.511
 8791W        W68536   7.388   9.737  12.462
 8792W        W68537   2.424  32.574   2.786
 8793W        W68538   2.724  29.074   5.216
 8794W        W68539   1.321  39.388  13.872
 8795W        W68540  11.703  22.038   3.690
 8796W        W68541  27.576  42.363  14.412
 8797W        W68542  21.589  35.897  11.902
 8798W        W68543  44.993  16.105   3.190
 8799W        W68544  12.659   6.277  11.006
 8800W        W68545  32.095   7.806  10.985
 8801W        W68546   6.740  32.426  13.938
 8802W        W68547   7.315   4.807   1.433
 8803W        W68548  42.933  41.848  11.903
 8804W        W68549  32.107  26.107   4.246
 8805W        W68550  26.090  16.175   2.393
 8806W        W68551  39.321  40.390   4.701
 8807W        W68552   3.787  38.539  11.866
 8808W        W68553  42.310  23.122  14.817
 8809W        W68554  27.158  35.508  11.972
 8810W        W68555   8.333  37.339   0.821
 8811W        W68556   9.276  41.996  13.936
 8812W        W68557  32.029  25.086  12.952
 8813W        W68558   9.294  23.144   0.815
 8814W        W68559   7.726  33.545  12.385
 8815W        W68560  26.953   0.758   4.806
 8816W        W68561  44.776  23.050   4.724
 8817W        W68562  34.479  11.305  11.517
 8818W        W68563  42.013  42.410   4.785
 8819W        W68564  18.767  25.706   3.735
 8820W        W68565   2.311  22.531  11.100
 8821W        W68566  25.603  44.994   2.345
 8822W        W68567   9.868  37.454  11.033
 8823W        W68568  22.248  41.024  12.876
 8824W        W68569  35.055  28.078  12.392
 8825W        W68570   7.864  36.532   4.774
 8826W        W68571  14.781   8.859   9.965
 8827W        W68572  21.243  30.977   5.093
 8828W        W68573  27.080  29.142  10.906
 8829W        W68574  43.377  28.004  11.518
 8830W        W68575  41.328  44.957   2.224
 8831W        W68576  44.989  38.863   0.908
 8832W        W68577  20.222  27.178   4.706
 8833W        W68578   2.292  16.687  13.473
 8834W        W68579   7.799   7.289   2.848
 8835W        W68580  17.293  35.018   3.821
 8836W        W68581  37.451  19.079  10.564
 8837W        W68582  12.350  41.418   2.305
 8838W        W68583   2.884   2.811   4.715
 8839W        W68584  22.611  11.342  11.868
 8840W        W68585  38.379   8.820   1.899
 8841W        W68586   8.828   6.741   1.313
 8842W        W68587  20.563  10.791  12.412
 8843W        W68588  29.654   0.485  11.965
 8844W        W68589  18.612  24.001   4.284
 8845W        W68590  39.344  12.278  14.499
 8846W        W68591   9.334  42.287   1.297
 8847W        W68592  31.475   8.679   1.817
 8848W        W68593  25.023  38.500  12.377
 8849W        W68594  11.136   9.788  11.489
 8850W        W68595  14.115  16.157  13.517
 8851W        W68596  38.877   9.371   4.294
 8852W        W68597  26.208  15.582   1.236
 8853W        W68598  41.975   9.164   1.298
 8854W        W68599   5.858   4.743   3.373
 8855W        W68600  24.150  37.509  12.420
 8856W        W68601  15.140  33.563  12.455
 8857W        W68602  25.558  44.763   1.888
 8858W        W68603   7.829  40.988   4.257
 8859W        W68604  34.899  21.688   4.254
 8860W        W68605  35.478   2.777  11.489
 8861W        W68606  25.161  28.968   1.432
 8862W        W68607  18.220  13.273  12.882
 8863W        W68608  28.565  17.302  12.491
 8864W        W68609  20.151   3.218   2.205
 8865W        W68610  22.052  31.499   0.465
 8866W        W68611  12.750  43.850   1.829
 8867W        W68612  10.870  26.055  14.964
 8868W        W68613   3.864  17.717   3.669
 8869W        W68614  16.170   7.753   2.192
 8870W        W68615  42.965  28.065   1.833
 8871W        W68616  35.450  17.115   0.337
 8872W        W68617  33.626  44.913  13.811
 8873W        W68618  36.952  11.210  12.062
 8874W        W68619  31.646  29.433  13.877
 8875W        W68620  11.799  33.878  14.913
 8876W        W68621  11.143   6.398  12.421
 8877W        W68622  16.309  27.479   3.718
 8878W        W68623  25.000  35.010   3.710
 8879W        W68624   1.364  36.433   0.928
 8880W        W68625  15.118  36.374  13.471
 8881W        W68626  21.706   3.268   1.220
 8882W        W68627   3.332  27.060  12.020
 8883W        W68628   3.800  13.257  14.980
 8884W        W68629  36.866   3.711  10.490
 8885W        W68630  31.076   1.270  12.090
 8886W        W68631  22.129  18.595  14.786
 8887W        W68632   6.331  20.184  11.418
 8888W        W68633  27.991   5.337  12.474
 8889W        W68634  12.634  33.972   0.783
 8890W        W68635  40.502  35.886  12.971
 8891W        W68636   3.246  22.043   1.818
 8892W        W68637  20.229  36.923   0.353
 8893W        W68638  42.314   5.920  10.462
 8894W        W68639  26.457  36.050  12.919
 8895W        W68640  44.365   6.791   3.769
 8896W        W68641   5.362  22.034  10.584
 8897W        W68642  27.613  15.254   0.829
 8898W        W68643  41.323   6.205   0.333
 8899W        W68644  12.238  39.826  13.993
 8900W        W68645   7.322  15.206  11.930
 8901W        W68646  21.042  15.177   3.774
 8902W        W68647  44.763  41.505  11.438
 8903W        W68648  18.236  42.431  11.504
 8904W        W68649   1.825  33.608  14.008
 8905W        W68650  44.952  31.484  13.840
 8906W        W68651   8.713  28.659  10.912
 8907W        W68652   2.261  15.756   0.267
 8908W        W68653  28.487  24.045  12.851
 8909W        W68654  12.852  26.652   2.902
 8910W        W68655  28.159   8.366   2.329
 8911W        W68656   0.406   0.896  14.957
 8912W        W68657  37.486  11.136  14.324
 8913W        W68658  13.706  19.119   1.446
 8914W        W68659  39.959  17.242   2.843
 8915W        W68660  35.441  36.914  12.994
 8916W        W68661   7.223  11.868  12.440
 8917W        W68662  13.111  41.868   1.892
 8918W        W68663  41.909   8.247   1.694
 8919W        W68664  11.725  30.085   0.411
 8920W        W68665  14.833  13.832  10.892
 8921W        W68666  19.720  33.599   2.241
 8922W        W68667  18.692   3.457  14.790
 8923W        W68668  25.104   3.815   1.372
 8924W        W68669  28.512  36.558  11.591
 8925W        W68670  27.950  31.063  11.128
 8926W        W68671  15.146  42.909   1.790
 8927W        W68672  17.287  22.546   4.791
 8928W        W68673   1.927   0.388   3.823
 8929W        W68674  20.226  35.970  14.334
 8930W        W68675  39.901   8.814   0.366
 8931W        W68676  16.595  10.791   1.909
 8932W        W68677  31.910   8.171  14.495
 8933W        W68678   4.288   2.762  12.982
 8934W        W68679   8.364  24.672  11.402
 8935W        W68680  26.964  35.424   4.227
 8936W        W68681  12.726  22.034  13.543
 8937W        W68682  24.096  23.581  10.112
 8938W        W68683  34.599  11.670  14.375
 8939W        W68684  36.021   9.806  10.521
 8940W        W68685  22.067   6.882  14.360
 8941W        W68686  39.034  43.489   1.771
 8942W        W68687  32.478  44.002   0.320
 8943W        W68688  13.699  30.981  13.042
 8944W        W68689  34.540  18.772  13.059
 8945W        W68690  43.932  36.016  14.766
 8946W        W68691  18.645  39.053   3.733
 8947W        W68692  19.769  15.760   1.869
 8948W        W68693  12.791  11.356  13.027
 8949W        W68694  23.564  27.594  14.915
 8950W        W68695  26.598  22.526  12.405
 8951W        W68696  34.875  24.119  13.491
 8952W        W68697  33.042  36.017   3.656
 8953W        W68698  23.184   0.957   3.732
 8954W        W68699  41.851  29.162  11.092
 8955W        W68700  27.519  25.968  14.006
 8956W        W68701   0.747  10.838  14.881
 8957W        W68702  36.518  26.170   3.330
 8958W        W68703  25.145   2.943   0.397
 8959W        W68704   8.851   2.864  14.771
 8960W        W68705   9.762  24.563  11.560
 8961W        W68706  21.161   8.872  14.021
 8962W        W68707  43.273  35.388  14.467
 8963W        W68708  13.153  20.173   1.704
 8964W        W68709  39.424  18.640   2.183
 8965W        W68710   9.230  25.586   2.902
 8966W        W68711  10.226  18.198  10.487
 8967W        W68712  38.874  17.211  11.468
 8968W        W68713  43.906   6.832  11.027
 8969W        W68714   6.729   9.845   3.655
 8970W        W68715  35.906  28.157  10.933
 8971W        W68716   1.346  13.657  12.055
 8972W        W68717  26.480  29.509  11.564
 8973W        W68718  14.649  38.504   3.865
 8974W        W68719  40.803  43.384  11.028
 8975W        W68720  12.765  15.709   2.847
 8976W        W68721  28.483   5.729  13.902
 8977W        W68722  38.569  30.921   1.833
 8978W        W68723  13.645   8.699   1.697
 8979W        W68724  13.610  19.277   0.453
 8980W        W68725  23.577   4.291  12.339
 8981W        W68726  30.991  30.062  14.496
 8982W        W68727  19.562  38.547   0.774
 8983W        W68728  40.945  15.239  10.525
 8984W        W68729  34.580  12.129  13.852
 8985W        W68730  21.100  14.282  12.339
 8986W        W68731   6.718  24.162  13.821
 8987W        W68732  25.582  23.088  14.795
 8988W        W68733  21.696   9.681  10.939
 8989W        W68734  32.431  32.560   0.467
 8990W        W68735  40.048  41.323  14.399
 8991W        W68736  11.623   3.270  11.399
 8992W        W68737  39.064  27.074   5.258
 8993W        W68738  44.353  16.640  13.014
 8994W        W68739   8.881  38.419   0.287
 8995W        W68740  17.125  42.406   4.669
 8996W        W68741  19.178  40.838  12.895
 8997W        W68742  34.437  33.579   0.898
 8998W        W68743  29.500  33.592   0.262
 8999W        W68744  26.999  21.656   3.223
 9000W        W68745  34.442  40.373   3.855
 9001W        W68746  38.929  43.307   3.728
 9002W        W68747  12.659   0.449  10.569
 9003W        W68748  38.927   9.370  12.452
 9004W        W68749  43.809  19.212  11.000
 9005W        W68750   8.321  19.096   4.124
 9006W        W68751  15.115   8.807  14.413
 9007W        W68752  38.894   9.667   4.329
 9008W        W68753  18.784  13.205  13.868
 9009W        W68754  33.604   3.364   4.330
 9010W        W68755  37.484  18.680   2.407
 9011W        W68756  34.915  41.869  10.912
 9012W        W68757  10.798  27.944   3.247
 9013W        W68758  35.957  39.004  10.437
 9014W        W68759  44.399  25.005   1.727
 9015W        W68760   1.732  21.079  12.016
 9016W        W68761  36.420  20.674   2.413
 9017W        W68762   1.445   4.891  10.055
 9018W        W68763  16.675  30.536  11.083
 9019W        W68764  42.420  32.076   0.953
 9020W        W68765   2.801   2.418  10.502
 9021W        W68766  28.143   0.871  14.030
 9022W        W68767   2.937  14.655  10.599
 9023W        W68768  32.089  35.070  13.402
 9024W        W68769  25.047  15.681   4.703
 9025W        W68770  29.480  15.267   0.935
 9026W        W68771  36.950   2.730   2.373
 9027W        W68772   9.309  21.690   4.223
 9028W        W68773  29.619  12.762   3.765
 9029W        W68774   9.252  32.429   0.472
 9030W        W68775  43.347  17.106   3.238
 9031W        W68776  36.007   3.743  12.580
 9032W        W68777  38.478  31.932   2.693
 9033W        W68778  43.361  43.401  10.551
 9034W        W68779  33.901  20.766   2.233
 9035W        W68780  15.274   7.316   1.700
 9036W        W68781  34.405  40.914   0.455
 9037W        W68782   1.914  32.401   1.253
 9038W        W68783  24.982  11.825   4.266
 9039W        W68784   8.324  36.353  12.843
 9040W        W68785   5.817  25.467  13.352
 9041W        W68786   1.274   9.188   1.781
 9042W        W68787  38.953  24.556  11.564
 9043W        W68788  34.589   7.859   3.317
 9044W        W68789  37.522   8.324  12.936
 9045W        W68790  31.514  36.987  11.481
 9046W        W68791  23.174  19.598  11.980
 9047W        W68792  10.661  39.530  13.815
 9048W        W68793   4.325  25.480   3.195
 9049W        W68794   7.807  19.759   1.862
 9050W        W68795  10.854  26.030   0.446
 9051W        W68796   3.284   1.364  13.486
 9052W        W68797  22.128  44.417  11.554
 9053W        W68798   2.787  41.428   0.276
 9054W        W68799   2.403  34.914   9.974
 9055W        W68800  20.600  27.497  14.977
 9056W        W68801  29.007   4.834   1.707
 9057W        W68802  18.776  42.916   1.355
 9058W        W68803  39.913  20.263  12.545
 9059W        W68804  11.687  43.004  11.056
 9060W        W68805  33.555   5.826  11.003
 9061W        W68806   4.827  30.619   1.843
 9062W        W68807  14.199  28.033   1.806
 9063W        W68808  40.962  12.230   4.201
 9064W        W68809  44.303  24.576   2.401
 9065W        W68810  29.536   0.326   2.747
 9066W        W68811   4.209  17.116   1.741
 9067W        W68812  33.901  33.972   4.668
 9068W        W68813  12.802  34.938   2.791
 9069W        W68814  11.274  33.501   5.132
 9070W        W68815  24.605  41.934   0.834
 9071W        W68816  19.596  15.257  11.488
 9072W        W68817   1.236  21.253  14.506
 9073W        W68818  27.956   3.848  14.031
 9074W        W68819  20.092  35.904   2.410
 9075W        W68820   2.846  37.052  12.042
 9076W        W68821  23.587  19.558   0.909
 9077W        W68822  22.738  40.841  14.447
 9078W        W68823   3.951  41.811   0.855
 9079W        W68824  41.954  34.471  13.037
 9080W        W68825  30.538   4.415   1.447
 9081W        W68826  34.071  34.557   0.926
 9082W        W68827  25.711  33.465  14.978
 9083W        W68828  15.581  18.689   3.359
 9084W        W68829  20.600  35.391   3.246
 9085W        W68830  39.836  26.474   3.150
 9086W        W68831  44.264  17.200  11.066
 9087W        W68832  39.931  14.593  13.865
 9088W        W68833  32.091  13.180   1.704
 9089W        W68834   1.272  12.183  12.916
 9090W        W68835  20.655  27.469   0.967
 9091W        W68836  28.126   4.299  11.528
 9092W        W68837  18.631  33.388  13.965
 9093W        W68838  13.186  44.305  11.928
 9094W        W68839   7.392  30.912  10.645
 9095W        W68840  39.824   6.834   4.280
 9096W        W68841  26.994  34.969   0.927
 9097W        W68842  19.158  41.957   2.237
 9098W        W68843  19.628  14.748   3.333
 9099W        W68844  30.629  44.913  12.504
 9100W        W68845  38.559   3.327   3.280
 9101W        W68846  28.679  24.586  11.913
 9102W        W68847  36.980  24.132  13.962
 9103W        W68848  40.383  18.767   2.728
 9104W        W68849  33.926  32.986   2.828
 9105W        W68850  43.973   2.229  13.338
 9106W        W68851  26.661  12.714   3.362
 9107W        W68852   4.424  16.603   0.803
 9108W        W68853  17.083  26.018   3.647
 9109W        W68854  44.996  34.610  10.927
 9110W        W68855  40.917  15.592  12.941
 9111W        W68856  40.487  27.611  12.959
 9112W        W68857  19.168  42.814   2.282
 9113W        W68858  27.066  24.180  13.849
 9114W        W68859  40.509   0.471   5.111
 9115W        W68860   3.937  12.687  11.020
 9116W        W68861  15.747   0.421   0.249
 9117W        W68862  13.323  18.215  12.930
 9118W        W68863  35.925   2.271   1.743
 9119W        W68864   9.868  17.683  12.441
 9120W        W68865  31.586  38.463   2.736
 9121W        W68866   5.799   0.870  12.938
 9122W        W68867   5.373  40.484   2.796
 9123W        W68868  19.669  24.120  14.834
 9124W        W68869  25.714   8.848   2.878
 9125W        W68870  26.594  19.773  12.939
 9126W        W68871  43.344  41.310  11.460
 9127W        W68872  36.559   2.461   4.709
 9128W        W68873  28.969  12.645  12.553
 9129W        W68874  39.487  16.254  13.415
 9130W        W68875  17.082  10.338  12.486
 9131W        W68876  41.820  15.231  10.568
 9132W        W68877  42.861  31.527   1.367
 9133W        W68878   4.810  16.246   0.837
 9134W        W68879  42.024  38.481   0.291
 9135W        W68880  15.600  24.481   2.864
 9136W        W68881   6.715  38.348   0.244
 9137W        W68882  40.802  33.888  12.012
 9138W        W68883  38.537  18.708   2.731
 9139W        W68884  29.575  26.460   3.760
 9140W        W68885  36.901   0.337  10.915
 9141W        W68886  43.821  10.742   0.378
 9142W        W68887   0.758  17.169  12.413
 9143W        W68888  21.107  15.096   4.736
 9144W        W68889  23.547   6.423   4.733
 9145W        W68890  21.675  26.611   0.263
 9146W        W68891  41.814  29.587   4.755
 9147W        W68892  22.668  12.354   2.202
 9148W        W68893   4.309  37.395   1.375
 9149W        W68894  17.556   5.890   0.847
 9150W        W68895  42.453  41.017  13.465
 9151W        W68896  33.032  11.173  13.029
 9152W        W68897   8.816   8.281   1.740
 9153W        W68898  44.335  33.915   4.817
 9154W        W68899   7.836  16.789  10.567
 9155W        W68900  15.157  38.389  11.922
 9156W        W68901  27.592   8.854  14.433
 9157W        W68902  30.463  42.465   1.715
 9158W        W68903   9.387  28.944   0.767
 9159W        W68904  37.979  15.293  12.428
 9160W        W68905  38.048   2.743   3.190
 9161W        W68906   9.314   3.805   1.845
 9162W        W68907   6.388  28.509   3.701
 9163W        W68908  21.549   4.754   3.192
 9164W        W68909  19.222  23.164  11.898
 9165W        W68910  28.677  26.683   1.867
 9166W        W68911   9.763  32.999   0.742
 9167W        W68912  22.057  10.361  12.857
 9168W        W68913  41.303  26.061   2.898
 9169W        W68914  36.049   7.852  10.488
 9170W        W68915  12.704  39.509  12.011
 9171W        W68916  22.603   6.828   3.296
 9172W        W68917  42.998  38.039  10.631
 9173W        W68918  30.594  14.258   3.744
 9174W        W68919  21.633  37.451   4.320
 9175W        W68920  30.134   9.335  12.925
 9176W        W68921  40.366  33.107  10.533
 9177W        W68922  12.122   5.283  14.818
 9178W        W68923  24.574  37.382   1.312
 9179W        W68924  22.728  24.009   3.645
 9180W        W68925  19.125   7.219  11.971
 9181W        W68926  13.151  38.888  12.966
 9182W        W68927  29.501  39.542   4.709
 9183W        W68928  37.058  40.845   0.453
 9184W        W68929  29.959   8.813  10.514
 9185W        W68930  23.234  25.962   0.822
 9186W        W68931  27.512  24.579   4.758
 9187W        W68932   6.837  32.500  10.455
 9188W        W68933  26.138  26.183   0.383
 9189W        W68934  32.560  10.805   4.148
 9190W        W68935  42.903  14.594   0.763
 9191W        W68936  11.340  20.240   4.681
 9192W        W68937  27.460  18.622   1.365
 9193W        W68938  42.492  21.553  14.768
 9194W        W68939  36.033  31.123   3.782
 9195W        W68940  13.136  33.046   3.865
 9196W        W68941  39.837  35.492   2.799
 9197W        W68942  25.095  36.350  12.906
 9198W        W68943   0.825  35.363   0.320
 9199W        W68944  38.959  21.746  11.072
 9200W        W68945  31.572   7.256  11.398
 9201W        W68946  26.199   2.298   3.148
 9202W        W68947   6.893  11.622   2.248
 9203W        W68948  44.967  28.047  12.399
 9204W        W68949  43.505  15.115   0.853
 9205W        W68950  11.696   6.682  10.430
 9206W        W68951  19.726  28.657   2.267
 9207W        W68952  32.962  23.615   1.352
 9208W        W68953   7.897   1.879   0.750
 9209W        W68954  23.049  25.082  14.279
 9210W        W68955   0.788  39.489   0.789
 9211W        W68956   8.358  21.148   2.354
 9212W        W68957  18.568  11.140   2.191
 9213W        W68958  33.998  36.002   2.805
 9214W        W68959  44.431  30.464  13.047
 9215W        W68960  20.619  14.722  10.567
 9216W        W68961  16.087  16.140  11.992
 9217W        W68962  19.642  42.427   0.781
 9218W        W68963  33.380  14.767  13.482
 9219W        W68964  38.325  44.765   2.830
 9220W        W68965   3.778  17.747   2.742
 9221W        W68966  17.210   8.330   4.700
 9222W        W68967   8.806  38.414   2.766
 9223W        W68968  18.171  43.499  13.845
 9224W        W68969  29.645  22.601  11.411
 9225W        W68970   5.277  31.595  12.545
 9226W        W68971   2.947  23.230  13.980
 9227W        W68972  13.769  35.946   0.374
 9228W        W68973   6.329  22.532  11.041
 9229W        W68974  38.030   0.469   2.391
 9230W        W68975  39.430  41.810  12.980
 9231W        W68976  32.043  35.449   3.662
 9232W        W68977  25.063  38.052   1.437
 9233W        W68978  15.584  31.917  10.555
 9234W        W68979  25.096   5.744  10.538
 9235W        W68980   1.858  22.078   0.469
 9236W        W68981   5.345  15.675   2.401
 9237W        W68982  34.404  31.623  12.907
 9238W        W68983   0.961  41.314  13.308
 9239W        W68984  42.310   1.256   3.836
 9240W        W68985  13.639  40.390  10.004
 9241W        W68986  30.923  36.460   3.178
 9242W        W68987   6.219  26.512  13.051
 9243W        W68988  21.716  39.871   2.810
 9244W        W68989  21.693  17.746  12.871
 9245W        W68990  33.397  35.572   4.125
 9246W        W68991  31.928  11.279   2.722
 9247W        W68992  42.011  27.124   1.808
 9248W        W68993  18.123  20.215   1.819
 9249W        W68994  23.157   7.703  10.923
 9250W        W68995  44.269  39.908   4.204
 9251W        W68996   1.433  21.241  14.995
 9252W        W68997  24.539  22.147   3.662
 9253W        W68998  10.224  16.569  12.399
 9254W        W68999   0.953  32.408   4.140
 9255W        W69000  14.821   6.741  12.405
 9256W        W69001  32.436   2.288  14.799
 9257W        W69002   5.314   9.832  10.964
 9258W        W69003   1.925  31.067   2.340
 9259W        W69004  24.493   4.440   2.856
 9260W        W69005  35.501  30.055  14.021
 9261W        W69006  12.646  31.404   2.818
 9262W        W69007  28.492   6.799   2.901
 9263W        W69008  17.297  18.547  13.354
 9264W        W69009   9.652   6.250  11.373
 9265W        W69010   1.812  19.694   5.140
 9266W        W69011  25.613  36.014   1.335
 9267W        W69012  12.836  10.733  11.600
 9268W        W69013  36.978  18.650   3.789
 9269W        W69014  23.614  16.163   2.722
 9270W        W69015   0.987  43.485  12.460
 9271W        W69016  15.272   6.201  11.950
 9272W        W69017  27.948  16.312  13.840
 9273W        W69018  25.199  15.612   1.746
 9274W        W69019  21.644  26.137  14.930
 9275W        W69020  15.805  11.360  11.379
 9276W        W69021  13.124  15.708   1.862
 9277W        W69022   3.861   4.255  12.530
 9278W        W69023  27.089  11.732  13.529
 9279W        W69024  41.416  35.066   4.666
 9280W        W69025  13.297  15.270   2.313
 9281W        W69026  40.324  43.844  13.420
 9282W        W69027  24.503  22.720  13.010
 9283W        W69028  43.335  27.634   1.287
 9284W        W69029  25.674  43.494  10.540
 9285W        W69030  15.206  25.532  14.293
 9286W        W69031   4.818  41.471   0.928
 9287W        W69032  19.205  33.599   3.314
 9288W        W69033  30.564  24.170  11.865
 9289W        W69034  39.850  36.090  12.826
 9290W        W69035  38.987   7.716  11.375
 9291W        W69036  19.738  37.341   3.690
 9292W        W69037  15.189  30.492   3.269
 9293W        W69038   9.320   4.221  13.312
 9294W        W69039   9.263  38.060   0.289
 9295W        W69040   0.432  25.665   4.699
 9296W        W69041  16.566  25.113   4.261
 9297W        W69042  21.188  16.316  11.057
 9298W        W69043   1.969   1.927  13.545
 9299W        W69044   4.823   8.301   5.098
 9300W        W69045  10.367  13.218   2.389
 9301W        W69046  28.517   5.703   5.624
 9302W        W69047  34.518  38.331   3.783
 9303W        W69048  17.166  40.797  11.525
 9304W        W69049   5.837   0.852   2.874
 9305W        W69050  36.548  11.129   2.295
 9306W        W69051   4.944  23.181  12.363
 9307W        W69052   3.930  33.606  10.119
 9308W        W69053  18.685  37.449  12.523
 9309W        W69054  40.527  25.469   0.730
 9310W        W69055  38.423  23.101   2.216
 9311W        W69056  16.292  35.464   1.390
 9312W        W69057   5.409   6.708   1.363
 9313W        W69058  22.034  17.703   4.249
 9314W        W69059   5.822  42.953  12.521
 9315W        W69060  22.044  38.444  12.397
 9316W        W69061  36.524  28.984   3.347
 9317W        W69062  11.840  14.304   2.313
 9318W        W69063  24.164  16.143  13.469
 9319W        W69064  39.809  37.920  11.475
 9320W        W69065  11.193  10.853  12.361
 9321W        W69066   6.823  29.559  13.500
 9322W        W69067  23.491  10.768   1.223
 9323W        W69068  38.556  34.581   4.334
 9324W        W69069  17.077  20.124   0.479
 9325W        W69070  15.614  43.946  14.324
 9326W        W69071  25.185  17.233  13.544
 9327W        W69072  24.530  41.313  13.944
 9328W        W69073  34.599  18.122   4.825
 9329W        W69074  19.673   7.262  10.902
 9330W        W69075  17.636  27.141  12.545
 9331W        W69076   0.426  17.113   3.260
 9332W        W69077   6.305  42.832   4.203
 9333W        W69078   1.927  30.941   4.828
 9334W        W69079   2.841  26.038  13.468
 9335W        W69080  28.951  15.676  14.461
 9336W        W69081   9.173  39.548   3.706
 9337W        W69082  35.865  26.172   1.776
 9338W        W69083  36.904  34.527  14.385
 9339W        W69084   0.280  20.131   2.837
 9340W        W69085  10.863  38.363  10.543
 9341W        W69086  19.545  17.585  14.479
 9342W        W69087  35.911  10.151  13.046
 9343W        W69088  17.278  11.754  10.127
 9344W        W69089  15.639   9.710   3.721
 9345W        W69090  29.609  21.056   0.343
 9346W        W69091  13.270  31.013   1.341
 9347W        W69092  30.157  38.340   2.229
 9348W        W69093  21.209  18.603   1.897
 9349W        W69094  22.017   4.898   4.798
 9350W        W69095  31.645  13.198   0.837
 9351W        W69096  18.184  15.785  12.532
 9352W        W69097  32.048   9.830  12.061
 9353W        W69098   2.397   7.864  13.401
 9354W        W69099  16.591  38.821   3.308
 9355W        W69100  36.397  28.518  14.920
 9356W        W69101  38.496  10.217  12.523
 9357W        W69102  17.143  37.447   3.285
 9358W        W69103  32.142   1.897   2.282
 9359W        W69104  38.435  24.638   0.940
 9360W        W69105  21.088  11.755  12.389
 9361W        W69106  17.227  19.548   5.125
 9362W        W69107  29.088  35.423   2.826
 9363W        W69108  10.797  31.908  11.531
 9364W        W69109  18.222  44.286  11.433
 9365W        W69110   0.283  10.282  12.037
 9366W        W69111  41.440  20.526  12.836
 9367W        W69112  40.394  32.021   9.987
 9368W        W69113   7.781  20.227  14.368
 9369W        W69114  41.829  10.726  12.379
 9370W        W69115  36.966  30.040  13.872
 9371W        W69116  35.565   3.244   3.299
 9372W        W69117  38.039  34.987  14.981
 9373W        W69118  21.180  43.915  10.938
 9374W        W69119  35.446  28.457  13.542
 9375W        W69120  20.223  17.206   2.816
 9376W        W69121   5.749  12.252   4.354
 9377W        W69122   2.456  25.487   0.801
 9378W        W69123  29.638  31.915  13.959
 9379W        W69124  39.445  23.491   3.327
 9380W        W69125  32.571  23.692  10.053
 9381W        W69126  43.894  20.737   1.409
 9382W        W69127  14.240  12.754   2.722
 9383W        W69128   8.216  23.558   2.260
 9384W        W69129  19.094  28.073   3.252
 9385W        W69130  32.509  24.621   2.282
 9386W        W69131  17.619  43.830  10.588
 9387W        W69132  36.087  32.122   3.695
 9388W        W69133  37.365  41.459   4.745
 9389W        W69134  18.639  38.466  12.344
 9390W        W69135  14.272  26.195  13.926
 9391W        W69136   0.845   0.921   2.883
 9392W        W69137  26.977   2.332   1.250
 9393W        W69138   6.819  23.730  13.453
 9394W        W69139  20.198   3.871  12.448
 9395W        W69140  37.419  37.367   1.880
 9396W        W69141  21.174  39.837  14.468
 9397W        W69142  43.340  27.008   2.306
 9398W        W69143  30.001  40.872  14.423
 9399W        W69144  15.582  33.093   2.687
 9400W        W69145  41.997   1.366  13.382
 9401W        W69146  44.359  44.774   4.208
 9402W        W69147  11.745  36.872   0.363
 9403W        W69148  11.644  27.611   0.321
 9404W        W69149  19.199  40.903  11.534
 9405W        W69150  19.587  37.453  14.011
 9406W        W69151  36.530   7.820  13.898
 9407W        W69152  13.721  31.469   0.455
 9408W        W69153  42.479  14.132   4.750
 9409W        W69154  11.797  43.947  13.320
 9410W        W69155  28.056  27.156  12.861
 9411W        W69156  42.894  33.123  12.455
 9412W        W69157  33.113   2.837  12.017
 9413W        W69158  39.869  36.939   0.245
 9414W        W69159   0.866  42.454   1.405
 9415W        W69160  28.939   9.346   4.257
 9416W        W69161  41.013  13.768  12.863
 9417W        W69162  29.523  18.082  10.579
 9418W        W69163  21.148  17.561  13.047
 9419W        W69164  40.459   8.841   2.853
 9420W        W69165   4.801  30.108  12.911
 9421W        W69166   4.270   5.895  14.352
 9422W        W69167  13.199  14.099  11.937
 9423W        W69168  15.163  41.860   3.277
 9424W        W69169  15.305   6.371   3.266
 9425W        W69170  37.442   0.371  12.408
 9426W        W69171   3.725  32.998   1.270
 9427W        W69172  22.514   7.692  11.102
 9428W        W69173  26.524  43.373  13.442
 9429W        W69174  13.144  44.957   3.822
 9430W        W69175  22.533  34.511  13.319
 9431W        W69176  28.163  11.153  13.897
 9432W        W69177  17.651  38.971  13.016
 9433W        W69178   0.487  39.411  14.486
 9434W        W69179   5.334  24.722   1.903
 9435W        W69180  17.142  15.613   2.682
 9436W        W69181   4.422  15.153  11.056
 9437W        W69182  22.539  18.651  12.021
 9438W        W69183  35.376  24.706  11.052
 9439W        W69184  18.228  17.203  12.477
 9440W        W69185  35.944  13.235  12.987
 9441W        W69186  29.134  30.452  12.984
 9442W        W69187  29.075   9.831   0.921
 9443W        W69188  36.006  32.036  10.578
 9444W        W69189  11.815   1.873  11.961
 9445W        W69190  32.548  30.448   0.764
 9446W        W69191   8.183   7.748   0.324
 9447W        W69192  32.485  14.819  10.927
 9448W        W69193  12.180  25.477  11.593
 9449W        W69194   5.203  17.725  12.379
 9450W        W69195  42.374  36.877   4.288
 9451W        W69196  42.384  41.864   3.326
 9452W        W69197  42.394  33.911   3.259
 9453W        W69198  38.365  25.104  14.371
 9454W        W69199   8.672   5.868  12.456
 9455W        W69200  37.080  41.421   1.237
 9456W        W69201  29.062  33.551   0.374
 9457W        W69202  35.479   3.251   4.829
 9458W        W69203  31.128  24.647  11.376
 9459W        W69204   8.883  32.022  12.365
 9460W        W69205  23.649  29.511  11.559
 9461W        W69206   3.780  37.402   2.351
 9462W        W69207  44.380  10.815   2.318
 9463W        W69208   0.479  25.620  12.974
 9464W        W69209  44.446  29.492  14.806
 9465W        W69210  11.766  42.934  14.845
 9466W        W69211   4.427  30.536   1.866
 9467W        W69212  36.447  30.580  13.447
 9468W        W69213  31.123   5.401   1.798
 9469W        W69214   6.354  17.600   2.754
 9470W        W69215   4.742  32.109  14.907
 9471W        W69216  44.820  12.618   1.356
 9472W        W69217   0.857  25.515   0.326
 9473W        W69218   0.799  38.063   0.409
 9474W        W69219  36.347  18.679   3.309
 9475W        W69220  20.233   7.891  12.993
 9476W        W69221   1.247   3.460   3.287
 9477W        W69222  11.763  42.438   3.255
 9478W        W69223  27.516   3.842  10.473
 9479W        W69224  26.580  32.003   1.821
 9480W        W69225  35.003  29.962  14.491
 9481W        W69226  29.450  41.521   1.341
 9482W        W69227  42.960  15.281   1.784
 9483W        W69228  30.918  25.543   3.822
 9484W        W69229  16.805  17.261  13.484
 9485W        W69230  18.772  24.616   1.779
 9486W        W69231  25.588  41.885   4.243
 9487W        W69232  36.587  26.652  13.991
 9488W        W69233  28.579  25.179  12.552
 9489W        W69234   3.943  17.706   0.779
 9490W        W69235  41.906  43.418  13.041
 9491W        W69236   0.882  11.780  11.998
 9492W        W69237  44.841  30.431   9.930
 9493W        W69238  43.001   9.196   2.754
 9494W        W69239  35.579  26.123  12.068
 9495W        W69240   3.861  29.647   2.770
 9496W        W69241  13.252  42.864  12.870
 9497W        W69242  23.636  20.054  14.307
 9498W        W69243  25.691  21.060   4.675
 9499W        W69244  11.265  37.984   1.806
 9500W        W69245  22.673   0.958   5.237
 9501W        W69246  37.987  10.338  11.995
 9502W        W69247  42.377  42.506  11.459
 9503W        W69248   0.425  44.935  13.005
 9504W        W69249  11.210  23.699  11.554
 9505W        W69250   5.721  18.258  12.392
 9506W        W69251  38.536  16.304  12.390
 9507W        W69252  32.060  15.232   0.283
 9508W        W69253  12.237  30.501   1.426
 9509W        W69254  29.072   7.379  13.439
 9510W        W69255  22.157  26.085  10.908
 9511W        W69256  13.120  42.883   2.805
 9512W        W69257   4.239  18.128  11.391
 9513W        W69258  26.614   9.753   0.786
 9514W        W69259   2.373  18.727  14.295
 9515W        W69260  24.504   5.756   0.424
 9516W        W69261  24.501  34.405  11.931
 9517W        W69262  11.292  27.961   1.368
 9518W        W69263   8.245  15.718   2.882
 9519W        W69264   7.713   5.342   1.785
 9520W        W69265  34.958  41.469  10.948
 9521W        W69266  35.444   0.333   4.743
 9522W        W69267  23.706   4.447   2.224
 9523W        W69268  40.525  11.327   4.740
 9524W        W69269   4.713  30.083  13.396
 9525W        W69270  11.756  11.788   0.409
 9526W        W69271  26.700  43.300   0.277
 9527W        W69272   8.695   6.245  10.636
 9528W        W69273   1.821   2.241   1.855
 9529W        W69274  15.210   1.908  11.484
 9530W        W69275  12.812  34.999   1.376
 9531W        W69276  31.110   2.804   1.365
 9532W        W69277  26.117  26.982  12.542
 9533W        W69278  11.679  24.988   0.338
 9534W        W69279  20.640  42.864  11.000
 9535W        W69280  13.263   2.276   4.836
 9536W        W69281  27.563  20.183  12.528
 9537W        W69282  32.585   1.958  11.949
 9538W        W69283  24.499  32.024  14.803
 9539W        W69284   0.370  34.991  14.282
 9540W        W69285  44.993  32.052   2.673
 9541W        W69286   9.839   5.778  11.980
 9542W        W69287  29.957  14.631  13.978
 9543W        W69288  24.535  43.394   1.242
 9544W        W69289   7.804  14.255  12.442
 9545W        W69290   0.941  11.695   9.959
 9546W        W69291  31.484   2.870   5.603
 9547W        W69292  30.051  25.596   0.400
 9548W        W69293  33.131  23.010  14.385
 9549W        W69294  12.610  17.734   3.746
 9550W        W69295   2.759   0.921  13.984
 9551W        W69296  42.848  12.169   2.249
 9552W        W69297  39.980  16.690  14.303
 9553W        W69298  25.188  20.061   0.290
 9554W        W69299  26.635  39.449   0.456
 9555W        W69300  44.472   9.325   4.137
 9556W        W69301  29.012  10.855   3.714
 9557W        W69302   7.379  10.211  11.405
 9558W        W69303  16.693  38.872  12.986
 9559W        W69304  22.742  39.453   1.929
 9560W        W69305  24.229  29.590   5.266
 9561W        W69306  39.930  32.062  11.909
 9562W        W69307   4.206  19.065   5.097
 9563W        W69308   4.359  35.467   3.339
 9564W        W69309  25.169  15.205  10.445
 9565W        W69310  11.216  24.096  13.484
 9566W        W69311  22.633  33.561   4.679
 9567W        W69312   6.912   5.758  13.496
 9568W        W69313  31.976  22.637  12.007
 9569W        W69314   3.854   4.361   3.347
 9570W        W69315   4.698  11.306   3.662
 9571W        W69316  14.723   6.357   3.773
 9572W        W69317  12.789  40.899   3.667
 9573W        W69318  37.853  30.469   0.394
 9574W        W69319  26.484   3.217  11.429
 9575W        W69320  42.448  17.304  12.438
 9576W        W69321  33.065  34.511   0.921
 9577W        W69322  24.674   4.325   0.413
 9578W        W69323  10.779  20.069   1.860
 9579W        W69324  13.747  41.455   0.815
 9580W        W69325  17.153  10.187   0.377
 9581W        W69326   0.788  10.652   0.893
 9582W        W69327  10.363   7.852   3.244
 9583W        W69328  15.777  34.514  12.039
 9584W        W69329  15.669  27.558  13.956
 9585W        W69330  37.529  32.403   1.243
 9586W        W69331  31.149   2.457   1.274
 9587W        W69332   9.267  10.367   4.706
 9588W        W69333  21.255  27.650  13.834
 9589W        W69334  10.357  23.515  14.514
 9590W        W69335   9.884  15.655  12.946
 9591W        W69336  32.505  42.515   3.386
 9592W        W69337  44.444   3.406  11.939
 9593W        W69338  44.400  12.140   1.763
 9594W        W69339  43.859  25.110   4.245
 9595W        W69340  37.955  18.101   0.302
 9596W        W69341  39.341  30.603  13.823
 9597W        W69342  34.604  24.064   4.655
 9598W        W69343   1.470  27.578   3.222
 9599W        W69344  11.680  13.245  13.921
 9600W        W69345   5.284  21.572   0.465
 9601W        W69346  41.978  19.114   0.894
 9602W        W69347   5.437  43.826   0.785
 9603W        W69348   4.378  14.141   0.858
 9604W        W69349   7.788  35.927  12.852
 9605W        W69350  34.056   5.837   0.777
 9606W        W69351  18.783  14.618   3.213
 9607W        W69352  18.739  28.665  11.449
 9608W        W69353  12.721  33.583  11.996
 9609W        W69354  38.454  39.958   1.419
 9610W        W69355  34.475  25.505  12.364
 9611W        W69356   7.323   2.393  10.478
 9612W        W69357  42.842  35.476  13.384
 9613W        W69358  26.179  37.497  11.394
 9614W        W69359  37.062  41.514  13.370
 9615W        W69360  10.352   9.272   2.185
 9616W        W69361  14.275  26.039   2.871
 9617W        W69362  41.486  43.421  11.029
 9618W        W69363  29.016  40.861   1.278
 9619W        W69364  43.460  40.840  14.336
 9620W        W69365  14.331   4.389  13.322
 9621W        W69366  32.030   9.160   4.742
 9622W        W69367  38.039  26.531   3.383
 9623W        W69368  42.515  14.594  12.347
 9624W        W69369  20.245  31.646   0.414
 9625W        W69370  22.072  32.432  11.127
 9626W        W69371  29.570  20.272  10.550
 9627W        W69372   5.218  20.618  13.542
 9628W        W69373  37.412  12.234   0.738
 9629W        W69374  16.800   8.334  11.877
 9630W        W69375  26.619  27.974  12.528
 9631W        W69376  27.141  31.410   3.701
 9632W        W69377  25.544  19.539  10.640
 9633W        W69378  20.562  32.016  12.561
 9634W        W69379   1.455  22.191   3.716
 9635W        W69380  42.393   8.339   0.819
 9636W        W69381  24.161  29.126   1.847
 9637W        W69382  33.007  42.951   4.171
 9638W        W69383   5.415  30.078  11.875
 9639W        W69384  33.995   3.897  11.924
 9640W        W69385   3.334  40.434  11.059
 9641W        W69386  36.858  26.585   2.350
 9642W        W69387  28.648  36.906  14.888
 9643W        W69388  11.294  25.970   4.770
 9644W        W69389  15.279  16.243   0.801
 9645W        W69390  10.176  20.761   3.148
 9646W        W69391  14.215  44.434   2.709
 9647W        W69392  33.583  31.540  11.922
 9648W        W69393   4.340  20.645  10.471
 9649W        W69394   8.806  38.969   4.292
 9650W        W69395  30.928  24.566   1.877
 9651W        W69396  14.726  19.284   1.326
 9652W        W69397  24.223  40.314  10.909
 9653W        W69398  44.854  11.221   3.648
 9654W        W69399  33.086  14.705   4.819
 9655W        W69400  26.966  40.466   1.719
 9656W        W69401  23.499  22.697   0.421
 9657W        W69402  36.063   3.914   1.715
 9658W        W69403  12.762  10.237  12.918
 9659W        W69404  32.522  27.565  13.919
 9660W        W69405   3.297  38.555   4.637
 9661W        W69406  33.952  17.164   2.297
 9662W        W69407  12.316  24.530   3.387
 9663W        W69408  26.971  41.368  13.912
 9664W        W69409  17.208  35.875  12.858
 9665W        W69410  40.047   1.425   0.883
 9666W        W69411  30.151  21.106  10.959
 9667W        W69412  39.490  10.748   3.356
 9668W        W69413  11.709  36.551  12.888
 9669W        W69414  29.446  10.139   0.794
 9670W        W69415  28.679  26.981  14.869
 9671W        W69416  33.883  20.588  12.510
 9672W        W69417  16.192  38.878   3.839
 9673W        W69418  24.651  19.043   1.281
 9674W        W69419  19.121  39.862   1.849
 9675W        W69420  23.193  43.878   4.280
 9676W        W69421  22.084   5.688   4.728
 9677W        W69422   4.248  18.180  13.932
 9678W        W69423  24.126   6.815   4.234
 9679W        W69424  44.006  28.559   4.715
 9680W        W69425  25.657   3.726   1.394
 9681W        W69426  15.711   2.309  13.841
 9682W        W69427   3.397   3.778   4.738
 9683W        W69428  12.323  33.107  12.094
 9684W        W69429  13.638   6.232  11.995
 9685W        W69430  44.814  42.891   0.314
 9686W        W69431  29.576  28.127  11.414
 9687W        W69432  38.008   2.921   4.638
 9688W        W69433  39.478   4.314  10.585
 9689W        W69434  15.799   9.836  12.956
 9690W        W69435  22.136  19.084   1.808
 9691W        W69436   3.718  15.732   4.298
 9692W        W69437   0.910   8.860   3.374
 9693W        W69438  24.692  13.309   2.222
 9694W        W69439  17.279  26.178   0.347
 9695W        W69440   2.320  32.568  14.398
 9696W        W69441  31.551   4.830  14.297
 9697W        W69442  41.831   5.330   1.425
 9698W        W69443  10.383  26.560   1.227
 9699W        W69444  24.581  43.895  10.943
 9700W        W69445  22.590   2.923  12.504
 9701W        W69446  36.876  17.682  13.406
 9702W        W69447  31.560  16.682  14.297
 9703W        W69448  41.391  20.183  11.464
 9704W        W69449  25.564  39.551   4.709
 9705W        W69450  24.607  26.114   0.437
 9706W        W69451  27.524  44.972  12.388
 9707W        W69452  26.159  13.302  12.038
 9708W        W69453   8.696   7.348  14.997
 9709W        W69454   9.787  23.581  13.940
 9710W        W69455  39.488  43.452   4.605
 9711W        W69456   2.233  36.441   5.780
 9712W        W69457  37.373  32.074  10.459
 9713W        W69458  28.127  21.147   4.168
 9714W        W69459  25.647  28.161  14.815
 9715W        W69460   2.859   4.820  14.913
 9716W        W69461  17.565  39.037   0.948
 9717W        W69462  13.116   1.327  10.522
 9718W        W69463  34.532   5.876   0.383
 9719W        W69464  28.067  16.314  10.521
 9720W        W69465  11.845  31.121   0.795
 9721W        W69466   8.824  38.402   4.262
 9722W        W69467  24.019  18.178   5.673
 9723W        W69468  13.208  27.175  11.984
 9724W        W69469   4.235  40.321  12.339
 9725W        W69470   0.813  18.273   0.771
 9726W        W69471  43.502  34.052  12.847
 9727W        W69472  31.129  38.901  10.427
 9728W        W69473  43.888  15.591   0.470
 9729W        W69474  29.129   0.367   1.832
 9730W        W69475   3.845  42.897   2.276
 9731W        W69476  27.052   7.826   1.723
 9732W        W69477  22.650  16.250   4.695
 9733W        W69478  32.073  10.262  10.522
 9734W        W69479  32.099  16.154   5.202
 9735W        W69480  34.953   5.723  13.046
 9736W        W69481  36.868  44.898  11.483
 9737W        W69482   5.799   4.854   4.602
 9738W        W69483  22.640  38.512  11.994
 9739W        W69484  25.152   7.684  14.278
 9740W        W69485   4.840  20.062  10.930
 9741W        W69486  29.540  36.998  12.904
 9742W        W69487  16.631  12.331   4.599
 9743W        W69488  30.507   4.741   0.332
 9744W        W69489  13.737   0.820   1.863
 9745W        W69490  44.998  38.941   0.442
 9746W        W69491  29.639  43.965   3.152
 9747W        W69492  38.823   3.935   4.196
 9748W        W69493  14.828   1.271  10.552
 9749W        W69494  34.948   6.790   2.252
 9750W        W69495  20.621  20.106  11.611
 9751W        W69496   7.321  26.092   3.783
 9752W        W69497  19.656  23.086   2.709
 9753W        W69498  29.051   8.829  14.394
 9754W        W69499  26.011  15.147   4.744
 9755W        W69500  11.238   9.787  10.521
 9756W        W69501   9.837  42.872  11.027
 9757W        W69502  37.381  12.622  10.475
 9758W        W69503  30.540  37.394  10.440
 9759W        W69504  16.776  43.831  11.576
 9760W        W69505   7.279  15.811   2.277
 9761W        W69506  29.634  27.953  10.634
 9762W        W69507  25.694  11.728   2.221
 9763W        W69508   3.903   1.924  10.579
 9764W        W69509  21.753  38.560   1.368
 9765W        W69510   0.494  12.245  10.911
 9766W        W69511  42.440  27.071  14.433
 9767W        W69512  39.911  33.006   1.245
 9768W        W69513  24.593  43.884  10.468
 9769W        W69514  41.994  29.520  13.458
 9770W        W69515  27.189  17.561   3.299
 9771W        W69516  13.709  37.835   2.207
 9772W        W69517  14.156  36.065  14.798
 9773W        W69518  11.862  21.542  10.411
 9774W        W69519  29.936  15.622   2.257
 9775W        W69520  28.079  42.855   2.359
 9776W        W69521  15.100  12.719   3.831
 9777W        W69522   8.850   4.712  11.073
 9778W        W69523  29.054  26.113  11.037
 9779W        W69524  19.105  18.283   3.177
 9780W        W69525  21.646   7.173  13.868
 9781W        W69526  38.987  28.977  14.385
 9782W        W69527  27.120   0.828  11.604
 9783W        W69528  34.019  43.303  13.352
 9784W        W69529  20.231  17.662  13.473
 9785W        W69530  29.087  42.892   1.795
 9786W        W69531  40.811  33.100  10.588
 9787W        W69532  24.514   1.373  13.369
 9788W        W69533   2.411  13.217   0.315
 9789W        W69534  23.700  32.624  11.034
 9790W        W69535   3.306  26.135  12.495
 9791W        W69536  44.903  38.492   5.149
 9792W        W69537  32.633   2.471   4.209
 9793W        W69538  27.692  37.358  11.042
 9794W        W69539   4.922   3.270  13.061
 9795W        W69540  16.227  32.568  14.298
 9796W        W69541  27.123  42.303  12.433
 9797W        W69542  36.393   7.388   3.867
 9798W        W69543  43.905  38.993   0.447
 9799W        W69544  31.150  26.201   3.844
 9800W        W69545   4.892  27.081   1.750
 9801W        W69546  12.810  16.308   4.234
 9802W        W69547  39.027   2.453   2.850
 9803W        W69548  10.705  21.629   0.758
 9804W        W69549  30.983  15.318  13.815
 9805W        W69550  41.458  23.240   0.330
 9806W        W69551  26.620  43.280  10.972
 9807W        W69552  32.010   1.910  14.001
 9808W        W69553  17.081  12.689  12.482
 9809W        W69554  31.507  23.083  11.373
 9810W        W69555  33.985  11.278   2.859
 9811W        W69556   0.917   1.934   3.229
 9812W        W69557  17.571  15.821  13.336
 9813W        W69558  43.474  11.341   2.870
 9814W        W69559  30.057  37.529  13.536
 9815W        W69560  21.708  27.448   0.803
 9816W        W69561  15.637  32.077  13.990
 9817W        W69562  37.949  30.055   3.377
 9818W        W69563  12.729  16.109  12.364
 9819W        W69564  23.575   3.849  11.929
 9820W        W69565  43.878   3.812  12.985
 9821W        W69566   6.286  11.806   1.413
 9822W        W69567  44.503  31.511  14.384
 9823W        W69568  33.617  23.144   2.761
 9824W        W69569   8.194   7.724  13.467
 9825W        W69570  25.144  24.991  11.572
 9826W        W69571  33.440  35.505   0.349
 9827W        W69572  15.186  41.869  14.819
 9828W        W69573  20.215  35.403   4.286
 9829W        W69574  24.021  29.665   9.621
 9830W        W69575  13.266  42.841   9.959
 9831W        W69576  43.884   4.210  11.924
 9832W        W69577  28.058  19.683   3.322
 9833W        W69578  19.278  19.178   2.900
 9834W        W69579  26.063   4.895  14.767
 9835W        W69580   5.262  42.003   1.299
 9836W        W69581  40.963  26.575   3.363
 9837W        W69582  33.980  32.997  13.450
 9838W        W69583  11.213  23.203   4.299
 9839W        W69584  33.876  42.336   2.223
 9840W        W69585  21.683  10.772  12.056
 9841W        W69586  31.504  26.672  13.966
 9842W        W69587  28.104  35.465   3.731
 9843W        W69588   9.656  29.945   4.667
 9844W        W69589  31.014  21.082   3.313
 9845W        W69590   4.237  40.870  14.329
 9846W        W69591  27.650  39.398  12.059
 9847W        W69592  22.226   0.897  10.091
 9848W        W69593  38.901  26.650  10.068
 9849W        W69594  43.933  33.551  11.081
 9850W        W69595  37.830   1.734   2.415
 9851W        W69596   6.874   0.294  11.522
 9852W        W69597  38.020  42.463  11.935
 9853W        W69598  35.039   8.244  11.046
 9854W        W69599   8.681  21.574   4.708
 9855W        W69600   4.211  25.662  12.944
 9856W        W69601   3.754   2.386   2.413
 9857W        W69602  21.087  35.018   3.347
 9858W        W69603   8.164   1.833   1.840
 9859W        W69604  44.395  25.155   0.928
 9860W        W69605  36.073  15.098   0.856
 9861W        W69606  33.516  19.570  14.309
 9862W        W69607  24.678   3.765   4.645
 9863W        W69608  34.416   3.711   4.632
 9864W        W69609  17.598  21.223  13.017
 9865W        W69610  32.414  30.489   4.239
 9866W        W69611  35.083  29.514   4.635
 9867W        W69612  12.786  17.788  11.037
 9868W        W69613   7.410   9.833   1.334
 9869W        W69614  41.964  17.189   3.298
 9870W        W69615  24.071  18.785  10.527
 9871W        W69616  31.086  34.886  11.124
 9872W        W69617   6.419   1.970   2.859
 9873W        W69618  15.128  12.644   0.864
 9874W        W69619  20.165  34.936   0.399
 9875W        W69620  14.723  32.605  12.516
 9876W        W69621  23.555  29.090  13.886
 9877W        W69622  41.814  11.646   1.770
 9878W        W69623  41.367  17.774  12.027
 9879W        W69624  15.717  36.458  11.006
 9880W        W69625  29.001  27.992   4.721
 9881W        W69626  32.936  36.419   1.450
 9882W        W69627  34.565  43.846  10.487
 9883W        W69628  19.247  43.482   4.778
 9884W        W69629  25.649  41.994   0.467
 9885W        W69630  23.672  42.816   1.229
 9886W        W69631  43.948  33.428   1.307
 9887W        W69632   2.848  39.056   4.835
 9888W        W69633  40.000  39.972   2.384
 9889W        W69634  27.162   7.897   4.756
 9890W        W69635   1.842  32.498  10.632
 9891W        W69636  14.136  14.327   0.930
 9892W        W69637  10.317  19.685  10.476
 9893W        W69638  24.559   4.766   4.724
 9894W        W69639  31.057  34.505  11.056
 9895W        W69640   5.878   8.308   2.183
 9896W        W69641   4.904  29.554  11.575
 9897W        W69642  28.624  18.182   3.363
 9898W        W69643  36.438  35.359  11.439
 9899W        W69644  10.876  10.675  14.028
 9900W        W69645   3.766  35.590   9.595
 9901W        W69646  26.107  29.069   0.828
 9902W        W69647  26.977  11.333  11.864
 9903W        W69648  27.017  24.124  10.032
 9904W        W69649  33.503  14.620   2.837
 9905W        W69650  16.782  40.024   4.798
 9906W        W69651  19.229  24.019   2.227
 9907W        W69652  26.552  30.919   9.983
 9908W        W69653  28.126  14.588  10.468
 9909W        W69654  37.022   2.449   4.788
 9910W        W69655  24.046  17.757  14.478
 9911W        W69656   0.743  33.399   0.294
 9912W        W69657  41.435  11.813  12.003
 9913W        W69658   0.789  13.622  13.958
 9914W        W69659   4.444  40.948   3.164
 9915W        W69660  13.816  11.147  10.429
 9916W        W69661  39.358  36.442   3.269
 9917W        W69662  29.148  14.208  12.089
 9918W        W69663  30.120  31.996   4.134
 9919W        W69664  28.972  29.930  11.884
 9920W        W69665   1.380  29.947  12.093
 9921W        W69666  33.614   6.873  14.409
 9922W        W69667  19.247   8.259  14.866
 9923W        W69668  23.015  27.074   2.674
 9924W        W69669  29.979   2.446  12.477
 9925W        W69670  41.315   1.744   3.205
 9926W        W69671  17.233  14.674  13.434
 9927W        W69672  24.672  14.737  14.353
 9928W        W69673  39.829  43.932   4.292
 9929W        W69674  42.507  33.459  10.625
 9930W        W69675  39.534   5.828  11.942
 9931W        W69676  33.075   8.864  12.359
 9932W        W69677  30.037  21.091  12.955
 9933W        W69678  14.670  24.556   4.209
 9934W        W69679  24.134  33.956   5.220
 9935W        W69680  30.016  32.121   1.868
 9936W        W69681  42.847  19.146  12.043
 9937W        W69682  27.519  44.936   1.728
 9938W        W69683  18.645  18.098  10.443
 9939W        W69684  39.012  22.068   1.935
 9940W        W69685  24.154  38.935   3.852
 9941W        W69686   1.364  24.543  11.492
 9942W        W69687   8.241  30.658   3.865
 9943W        W69688  41.454  18.135   2.369
 9944W        W69689  34.010  37.871  14.435
 9945W        W69690  17.062  39.878  10.600
 9946W        W69691   6.242  11.858   3.711
 9947W        W69692  38.984  16.721   1.933
 9948W        W69693  44.967   9.794  11.026
 9949W        W69694  35.542  24.192   0.857
 9950W        W69695   4.944  39.333   5.255
 9951W        W69696  16.756  14.759  10.961
 9952W        W69697  12.836  21.179  12.981
 9953W        W69698  12.821  20.622  13.958
 9954W        W69699  30.433   5.715   2.302
 9955W        W69700  26.084  34.070   4.191
 9956W        W69701  35.388   1.398   1.312
 9957W        W69702   9.166  29.939  12.048
 9958W        W69703  19.577  39.824  14.918
 9959W        W69704   1.369  31.117   4.702
 9960W        W69705  22.697  20.543  12.514
 9961W        W69706   1.817  34.612  13.967
 9962W        W69707   9.656  12.678   2.301
 9963W        W69708  11.752   7.236  10.457
 9964W        W69709  14.135  35.005   2.376
 9965W        W69710  17.229  28.504  13.486
 9966W        W69711  26.678  42.383  12.410
 9967W        W69712  24.675  31.439   0.325
 9968W        W69713  37.011  31.471   4.233
 9969W        W69714  29.430  33.034  13.527
 9970W        W69715  34.874  30.907  13.485
 9971W        W69716  40.327  34.092  11.436
 9972W        W69717  22.019  35.474  13.364
 9973W        W69718   6.718   4.269   3.166
 9974W        W69719  31.496  26.085   5.319
 9975W        W69720  40.835  25.509   3.860
 9976W        W69721  30.081  25.599  13.995
 9977W        W69722  17.291  12.319   0.409
 9978W        W69723  11.686  26.115  11.953
 9979W        W69724  40.457  42.321   3.841
 9980W        W69725  35.479  31.579  11.480
 9981W        W69726   2.728  15.261   4.165
 9982W        W69727  13.109   4.357   0.885
 9983W        W69728  24.587   1.841  12.957
 9984W        W69729   5.830   8.895   1.858
 9985W        W69730   2.456  31.004   0.274
 9986W        W69731  11.264  12.642   4.259
 9987W        W69732   4.942   6.797  12.836
 9988W        W69733   9.275   9.863  13.870
 9989W        W69734  35.460  15.163   2.742
 9990W        W69735  34.385   6.211  11.920
 9991W        W69736  24.016  11.747   2.730
 9992W        W69737   9.750  21.126  14.411
 9993W        W69738   0.790  32.125   0.922
 9994W        W69739   2.961  42.834  11.928
 9995W        W69740  19.653  27.183  12.485
 9996W        W69741   4.292  16.083   2.383
 9997W        W69742  31.538  39.371  11.993
 9998W        W69743  27.023  33.057  12.091
 9999W        W69744  15.157  37.955  14.796
10000W        W69745  11.236  44.281  13.330
10001W        W69746  14.230  31.525  10.511
10002W        W69747  11.698  24.182   1.752
10003W        W69748  25.195   2.288   4.835
10004W        W69749  27.962  15.142   3.218
10005W        W69750  44.983  25.545   0.951
10006W        W69751   9.809  26.456  12.577
10007W        W69752   4.848  33.901   1.869
10008W        W69753  18.626  26.964  11.993
10009W        W69754  17.600  43.419   1.246
10010W        W69755  35.451   5.879   0.756
10011W        W69756  13.328  34.374  14.324
10012W        W69757   8.690  30.458  13.307
10013W        W69758  38.541  38.826   2.411
10014W        W69759  30.586  33.038  12.387
10015W        W69760  15.237  17.205  12.349
10016W        W69761   2.430  29.918  10.060
10017W        W69762  10.827  29.145   4.670
10018W        W69763  20.243   4.841  12.567
10019W        W69764  19.234  32.025  14.906
10020W        W69765  21.597   8.745  12.580
10021W        W69766  10.789  17.557  11.439
10022W        W69767  31.057  41.376   1.877
10023W        W69768  39.022  31.911   4.137
10024W        W69769  26.118   6.724   2.834
10025W        W69770  41.436  37.042   4.687
10026W        W69771   2.408  13.626   0.824
10027W        W69772  21.133  38.356   0.794
10028W        W69773  24.556  17.261   5.667
10029W        W69774  31.448  36.365   0.952
10030W        W69775   1.944  27.475   0.244
10031W        W69776  26.040   3.367   1.414
10032W        W69777   2.414  33.470   3.737
10033W        W69778  36.413  36.441   0.844
10034W        W69779  37.893  38.939  10.470
10035W        W69780  34.991  30.154  10.909
10036W        W69781  35.031  39.050   4.604
10037W        W69782  19.071  28.989   3.632
10038W        W69783   5.361  26.130   3.745
10039W        W69784  14.317  42.961  13.865
10040W        W69785  12.749  18.564   1.346
10041W        W69786  21.200   3.762   4.669
10042W        W69787  18.095   3.898  11.122
10043W        W69788  22.718  25.581  11.082
10044W        W69789   4.308  26.700  13.035
10045W        W69790  21.243  44.923  13.900
10046W        W69791   7.222  34.403  12.527
10047W        W69792  32.004  22.215  12.075
10048W        W69793  22.653   6.784   0.413
10049W        W69794   5.269   5.314  12.503
10050W        W69795   6.910   1.833   1.404
10051W        W69796  21.754  42.286  14.424
10052W        W69797  18.637  24.518   4.655
10053W        W69798  11.150  44.769   3.386
10054W        W69799  11.868  36.952  10.428
10055W        W69800  18.755  44.385  11.928
10056W        W69801   6.321  26.049   1.746
10057W        W69802   5.799  15.169   3.361
10058W        W69803  18.668  10.164  13.427
10059W        W69804  31.566  37.873  12.037
10060W        W69805   6.385   8.330   0.873
10061W        W69806  38.350  36.096   1.391
10062W        W69807  39.848   9.795   3.815
10063W        W69808   6.233  36.032   1.904
10064W        W69809   3.298  38.904   1.787
10065W        W69810  19.625  12.205   1.812
10066W        W69811   7.793  44.342  10.571
10067W        W69812  18.659  29.996  10.520
10068W        W69813  31.146   9.865  10.938
10069W        W69814  27.543  19.667   0.299
10070W        W69815  24.696  16.571   5.726
10071W        W69816  36.849  33.384   4.336
10072W        W69817  17.301  10.871   4.717
10073W        W69818  34.940  17.562   4.164
10074W        W69819  26.014  35.895   3.328
10075W        W69820  14.671  15.721  10.429
10076W        W69821  39.930  26.567  12.922
10077W        W69822  24.564  27.598  10.435
10078W        W69823   5.370  43.767   4.347
10079W        W69824  11.299  14.728   1.290
10080W        W69825  27.507  44.937   2.678
10081W        W69826  29.004  42.285   0.910
10082W        W69827  29.557   4.307   4.131
10083W        W69828  30.567  14.138   1.872
10084W        W69829  34.597   5.303   4.332
10085W        W69830   2.759  32.470   2.674
10086W        W69831  14.222  29.032  11.464
10087W        W69832  27.650  29.489  13.960
10088W        W69833   4.772   2.242   2.296
10089W        W69834  36.012  35.858  11.029
10090W        W69835   4.205   0.982  12.011
10091W        W69836  15.587  10.827  13.320
10092W        W69837   2.359  43.352  12.914
10093W        W69838  40.426  36.579   4.711
10094W        W69839  32.531  42.416  13.791
10095W        W69840  15.255  43.777   1.393
10096W        W69841  40.426  23.635   4.121
10097W        W69842  31.442   4.782   1.308
10098W        W69843   4.419  13.156   4.313
10099W        W69844  34.416   8.816  14.941
10100W        W69845  33.094  24.719  13.495
10101W        W69846  24.023  43.435   3.161
10102W        W69847   5.905  39.868   4.716
10103W        W69848   6.394  39.822  12.022
10104W        W69849   4.326  33.129  11.437
10105W        W69850  22.646  32.468  11.990
10106W        W69851  18.164  42.936   0.891
10107W        W69852  17.662  36.529   2.728
10108W        W69853  40.042  28.668   0.432
10109W        W69854  36.489  13.136  11.549
10110W        W69855  42.812  30.069   0.405
10111W        W69856  26.967  10.233  14.923
10112W        W69857  28.610  22.247  12.347
10113W        W69858  18.215   0.269   2.198
10114W        W69859  10.847   6.761   1.211
10115W        W69860  20.654  22.640  11.094
10116W        W69861  34.973   3.402  10.984
10117W        W69862  30.988  25.596   3.215
10118W        W69863  33.050  23.182  12.088
10119W        W69864  26.476  33.550  13.979
10120W        W69865  37.983  19.687  12.885
10121W        W69866  29.136  24.979   1.856
10122W        W69867  33.937   1.366   4.149
10123W        W69868  42.364  44.848  10.469
10124W        W69869   5.260  20.686   0.302
10125W        W69870  23.203  35.110  11.947
10126W        W69871  30.538  17.167   4.261
10127W        W69872  42.958  39.864   0.730
10128W        W69873  36.922  30.037   1.719
10129W        W69874  33.962  17.598   4.307
10130W        W69875  32.944  17.184   0.451
10131W        W69876   2.816  22.034  12.552
10132W        W69877   4.442  44.304   0.952
10133W        W69878  33.113  16.149   4.763
10134W        W69879  12.705  36.429   3.241
10135W        W69880   9.823   7.828   2.349
10136W        W69881  43.344  17.193   0.810
10137W        W69882  28.438  27.526  12.557
10138W        W69883   9.286  35.463  13.807
10139W        W69884   2.402  36.577   3.744
10140W        W69885  25.989  42.017   0.456
10141W        W69886  41.843  16.693  12.852
10142W        W69887  35.550   4.376   4.307
10143W        W69888  37.051  32.915  11.025
10144W        W69889  31.582   2.895   9.960
10145W        W69890   1.290  22.627  14.962
10146W        W69891  40.375  13.213   4.720
10147W        W69892  36.443  32.426  12.883
10148W        W69893  38.480   4.402   2.294
10149W        W69894  25.580   0.944   2.326
10150W        W69895  18.677  33.897  13.941
10151W        W69896  27.040  43.943  13.440
10152W        W69897   2.273  35.089   3.379
10153W        W69898  37.398  24.170   4.231
10154W        W69899   4.275  33.896  12.935
10155W        W69900  13.629  26.036   1.349
10156W        W69901  30.639  13.349   1.231
10157W        W69902  10.300  37.010  12.867
10158W        W69903  34.954  28.668  11.081
10159W        W69904  35.935  43.969  14.926
10160W        W69905   5.231  26.103   4.659
10161W        W69906   4.747  10.148   1.250
10162W        W69907  27.469   2.901  12.502
10163W        W69908   0.331  15.226   0.878
10164W        W69909  43.857  15.783  14.434
10165W        W69910   2.468   4.223  10.639
10166W        W69911  12.217  32.611  12.886
10167W        W69912  14.304  25.670  14.443
10168W        W69913  35.576  28.022  11.473
10169W        W69914  32.103  12.154   0.961
10170W        W69915   0.935   3.808  14.953
10171W        W69916  29.923   3.251  12.902
10172W        W69917   0.834  31.640   5.656
10173W        W69918  32.515  18.199   5.749
10174W        W69919  34.927  19.242   2.338
10175W        W69920  32.460  41.985  10.514
10176W        W69921  16.170  43.819  14.799
10177W        W69922   9.262  24.072  13.995
10178W        W69923   2.960   2.835  14.427
10179W        W69924  42.790  22.643  11.451
10180W        W69925  30.421  44.817  11.080
10181W        W69926  42.910  22.202   2.712
10182W        W69927  36.583  24.655  12.826
10183W        W69928  21.250  29.072   1.849
10184W        W69929   0.754  23.604   1.284
10185W        W69930  43.372  27.590  10.916
10186W        W69931   9.647   3.419   3.321
10187W        W69932   3.405  16.073  12.955
10188W        W69933  32.958   3.336  11.920
10189W        W69934  30.461  20.671  13.408
10190W        W69935  40.918   9.784   4.349
10191W        W69936   9.169  44.494   4.759
10192W        W69937  13.810  20.533  13.434
10193W        W69938  34.015   8.894   4.158
10194W        W69939  22.116  40.849  13.534
10195W        W69940  31.938   0.766  10.575
10196W        W69941  27.084  32.618  10.131
10197W        W69942  21.167  40.993   4.347
10198W        W69943  13.225   7.387   1.366
10199W        W69944  24.577   6.314  12.451
10200W        W69945  24.161  38.861   2.345
10201W        W69946  31.415  34.397  12.351
10202W        W69947  23.612  21.227  14.890
10203W        W69948  28.635   4.741   2.887
10204W        W69949  10.153  23.049  10.144
10205W        W69950   5.306  32.951  13.530
10206W        W69951  18.167  20.631   1.260
10207W        W69952   3.349  12.781  14.964
10208W        W69953  35.427  11.282  13.807
10209W        W69954  34.482  13.207   3.312
10210W        W69955  23.240  44.424  11.482
10211W        W69956  44.875  20.696  12.475
10212W        W69957   1.871  40.378   2.382
10213W        W69958  24.206  30.483   1.910
10214W        W69959  18.277   3.879   4.203
10215W        W69960  23.115  37.360   0.853
10216W        W69961  25.033  17.749   3.241
10217W        W69962   9.681  44.968  14.850
10218W        W69963  35.053  27.043  11.463
10219W        W69964  38.994  22.208   9.999
10220W        W69965  19.279  37.462  13.400
10221W        W69966   6.900  35.910   2.744
10222W        W69967  40.051  22.701  13.326
10223W        W69968  39.825   1.265  12.495
10224W        W69969  19.640  14.113   2.688
10225W        W69970  41.292  32.629   3.387
10226W        W69971  21.525  16.282  12.526
10227W        W69972  42.032  16.204   4.202
10228W        W69973  35.526  14.707  13.544
10229W        W69974   1.271  23.620   3.278
10230W        W69975  38.335   9.780   0.910
10231W        W69976  30.562  13.832  14.378
10232W        W69977  31.034  43.452   2.410
10233W        W69978  21.047  30.095  10.406
10234W        W69979  29.569   3.895  13.847
10235W        W69980  20.074   5.398  11.098
10236W        W69981  12.123  33.116  11.013
10237W        W69982  33.012  37.393  10.534
10238W        W69983  12.839  17.238  12.876
10239W        W69984  30.498  38.451  14.446
10240W        W69985  11.739  25.711   2.778
10241W        W69986   5.892   7.744  12.372
10242W        W69987   7.731  24.710   1.335
10243W        W69988  24.115   0.274  10.413
10244W        W69989  31.559  15.095   3.235
10245W        W69990  41.385  10.764  12.485
10246W        W69991  38.999  15.173   2.852
10247W        W69992  24.556   7.891  10.495
10248W        W69993  19.283  16.669   2.203
10249W        W69994  28.564  22.642   0.792
10250W        W69995   6.919  33.450   4.724
10251W        W69996  26.679  13.637   2.680
10252W        W69997  20.747  32.493  13.540
10253W        W69998  13.294  26.164  11.107
10254W        W69999   2.883   0.967  11.508
10255W        W70000  29.978  22.535   1.751
10256W        W70001  17.113  10.359   0.742
10257W        W70002   5.295  27.550  12.854
10258W        W70003  43.363  26.564  14.348
10259W        W70004  38.016  31.562   3.723
10260W        W70005   8.780  33.886  13.323
10261W        W70006  28.550  18.245   2.206
10262W        W70007  42.777   8.660   1.851
10263W        W70008  23.092  12.797  14.391
10264W        W70009  10.634  11.286   0.306
10265W        W70010   9.306  21.047   4.291
10266W        W70011   5.430  23.014  13.511
10267W        W70012  31.077  35.023   0.318
10268W        W70013  29.091   8.321  10.913
10269W        W70014  34.951   3.217   2.672
10270W        W70015  30.458   2.803   2.303
10271W        W70016  17.256   6.855  12.888
10272W        W70017  22.215  23.144   0.471
10273W        W70018  36.520  19.138   0.392
10274W        W70019  17.177  43.375   4.139
10275W        W70020   7.886  42.319   3.758
10276W        W70021  41.831  14.766   1.860
10277W        W70022  15.623  44.871  13.541
10278W        W70023  39.998  32.597  14.858
10279W        W70024  14.254  12.836   2.269
10280W        W70025  24.610  21.593   0.850
10281W        W70026  18.147   1.365  13.818
10282W        W70027  37.553  23.627   3.372
10283W        W70028   5.692  43.962  11.069
10284W        W70029  23.562   7.683  14.010
10285W        W70030   1.799  15.241  10.413
10286W        W70031  35.875  18.093   3.725
10287W        W70032  16.620  29.509  14.796
10288W        W70033   4.311   7.728   0.792
10289W        W70034  18.635  15.733   3.291
10290W        W70035  35.944  29.945  10.911
10291W        W70036  24.676  41.341  10.458
10292W        W70037  15.793  20.252   3.741
10293W        W70038  44.434   7.264   0.375
10294W        W70039   4.733   2.890  10.611
10295W        W70040   6.365   7.874  10.439
10296W        W70041   7.846   1.431   3.181
10297W        W70042   4.265  27.058   4.341
10298W        W70043  35.419  13.130  10.544
10299W        W70044  39.341  27.943   3.734
10300W        W70045   9.287  41.863   1.799
10301W        W70046  13.185   3.809  14.492
10302W        W70047   4.315  25.531  12.030
10303W        W70048   0.260  43.477   3.758
10304W        W70049  13.781   8.237  14.759
10305W        W70050  15.268  29.001   1.798
10306W        W70051  19.161  41.377   2.312
10307W        W70052  42.937  11.716  11.037
10308W        W70053  27.528  23.229  11.016
10309W        W70054  32.589  11.684   1.245
10310W        W70055  43.489   8.382   2.723
10311W        W70056  40.396  15.797  14.907
10312W        W70057  19.640  32.411   1.441
10313W        W70058  14.286   4.833   4.302
10314W        W70059   7.229  25.127  13.795
10315W        W70060  35.447  44.455  12.517
10316W        W70061  36.926  39.996  12.902
10317W        W70062  38.523  31.485   1.908
10318W        W70063  10.821  26.585  10.606
10319W        W70064  24.635  37.067   2.697
10320W        W70065  23.148  29.614  11.423
10321W        W70066  35.575  26.986   3.319
10322W        W70067   9.843  24.174   0.287
10323W        W70068  28.672  30.609  11.601
10324W        W70069  42.286  26.171   2.271
10325W        W70070  13.668  21.615   0.776
10326W        W70071  41.421  36.460  12.908
10327W        W70072  18.778  22.147   3.810
10328W        W70073  42.808   6.812  12.086
10329W        W70074  19.738  17.656  10.585
10330W        W70075  19.260  40.001   1.371
10331W        W70076  26.953   2.252   3.856
10332W        W70077  21.159  28.974  10.512
10333W        W70078  37.850  12.835   3.734
10334W        W70079  25.084  36.897  11.894
10335W        W70080  33.405   2.936   3.853
10336W        W70081  28.945  29.168  13.980
10337W        W70082  12.837  31.068   0.450
10338W        W70083  30.528  24.151   0.823
10339W        W70084  30.157  11.314   4.175
10340W        W70085  26.578  39.501  13.473
10341W        W70086  44.374  12.334   0.253
10342W        W70087  34.926  41.372   2.351
10343W        W70088  31.544  30.491  11.901
10344W        W70089  38.491  40.382   3.731
10345W        W70090  12.783   5.213   0.296
10346W        W70091   6.829   0.906  12.431
10347W        W70092  21.056  42.857  13.486
10348W        W70093   3.262   2.843   2.724
10349W        W70094   6.305  32.933  10.478
10350W        W70095   4.936  18.054  10.571
10351W        W70096  39.037  26.122  12.496
10352W        W70097  30.121   8.839   3.298
10353W        W70098  17.223  24.982  14.454
10354W        W70099  28.599  44.324  12.474
10355W        W70100  38.382   4.767   2.809
10356W        W70101  37.913  29.063   4.271
10357W        W70102  42.815  34.063   3.866
10358W        W70103   3.441  43.431   4.828
10359W        W70104   4.848  31.056   1.891
10360W        W70105  24.145  37.000   4.603
10361W        W70106   7.835  29.477   3.683
10362W        W70107   0.345  34.523   1.327
10363W        W70108  16.749   6.413  12.045
10364W        W70109  17.555  35.927  10.960
10365W        W70110  40.438  27.520  10.414
10366W        W70111  11.243   0.930   1.931
10367W        W70112  16.309  12.189  11.049
10368W        W70113   6.212   6.424  10.000
10369W        W70114   5.776  41.932  13.033
10370W        W70115  42.308   3.252  13.041
10371W        W70116   0.424  40.498  13.013
10372W        W70117  26.090  25.617  14.793
10373W        W70118  18.187  27.618   0.757
10374W        W70119  13.638   8.890  10.500
10375W        W70120  39.946   6.269   3.857
10376W        W70121   9.200  27.110   2.273
10377W        W70122  22.545   4.303   5.254
10378W        W70123  41.317   5.400   2.289
10379W        W70124  17.713  34.436  12.385
10380W        W70125  26.117  15.150  13.047
10381W        W70126  10.215  20.122  11.485
10382W        W70127  20.079  42.356  11.873
10383W        W70128   5.693  32.488   3.177
10384W        W70129  37.876  42.911   1.400
10385W        W70130   0.444  33.071   1.748
10386W        W70131  25.596   6.208  12.043
10387W        W70132  19.180  36.545   3.157
10388W        W70133  13.665   5.247  12.351
10389W        W70134   9.280  10.176   0.846
10390W        W70135  33.489  10.753   0.906
10391W        W70136   6.187  34.047  14.894
10392W        W70137  13.346  17.669  10.429
10393W        W70138  23.023   8.223   4.291
10394W        W70139   6.831  29.128  13.958
10395W        W70140   4.402   4.280  13.407
10396W        W70141   2.257  25.615  11.566
10397W        W70142  15.817  29.430   3.696
10398W        W70143  12.229  37.457   2.319
10399W        W70144   8.198  37.087  12.090
10400W        W70145   3.223  36.030   1.351
10401W        W70146  36.874  31.111  12.525
10402W        W70147  27.643  12.657  11.487
10403W        W70148  20.266  42.471  11.054
10404W        W70149  11.647  14.778  12.417
10405W        W70150  16.708  23.501   2.742
10406W        W70151  26.032  33.011  13.844
10407W        W70152  36.040  34.467   3.346
10408W        W70153  25.650  27.196  10.644
10409W        W70154  40.480  30.441  13.804
10410W        W70155   6.732  19.608   2.203
10411W        W70156  19.274  33.040  14.432
10412W        W70157  20.169  41.423   0.930
10413W        W70158  35.090  15.679  10.606
10414W        W70159  24.104  30.961  13.480
10415W        W70160  44.896  41.475  10.939
10416W        W70161  29.518   6.751  12.026
10417W        W70162  17.173  16.583   1.332
10418W        W70163  44.947  13.259  13.427
10419W        W70164   2.424  16.729  14.004
10420W        W70165  10.645   3.246  11.472
10421W        W70166  38.880  21.724   3.770
10422W        W70167  40.461  37.071   2.850
10423W        W70168  31.514  28.153   5.258
10424W        W70169  16.631  12.350  13.403
10425W        W70170  24.544   4.398  10.624
10426W        W70171  43.981  40.013   1.232
10427W        W70172  10.186   6.684  14.765
10428W        W70173  13.834  44.807  11.098
10429W        W70174  22.006  28.034   0.248
10430W        W70175   0.803  41.506   2.316
10431W        W70176  28.980  18.063  13.864
10432W        W70177  39.529   3.282  10.451
10433W        W70178   5.693  22.050  14.782
10434W        W70179   5.322  41.823   3.265
10435W        W70180  37.445  12.823  14.368
10436W        W70181  44.424  18.120   9.579
10437W        W70182  18.685  19.572  11.491
10438W        W70183  30.938  21.079   0.248
10439W        W70184  43.822  14.639  14.883
10440W        W70185  14.652   8.723  10.640
10441W        W70186  24.043  15.697   3.200
10442W        W70187  42.483  38.480  12.397
10443W        W70188  17.151  37.872   1.308
10444W        W70189  13.213  16.247   2.667
10445W        W70190   9.298   1.923   0.258
10446W        W70191  31.611  31.968  13.061
10447W        W70192   2.889  35.893   3.339
10448W        W70193  30.569  41.915   0.748
10449W        W70194  10.343  35.947  10.160
10450W        W70195  22.999  41.945   3.340
10451W        W70196  21.744  13.688   3.383
10452W        W70197  11.330  30.019  14.958
10453W        W70198  31.048  29.074  11.037
10454W        W70199  40.394  32.395   2.220
10455W        W70200   5.783  26.104  11.056
10456W        W70201  15.720  19.686   0.285
10457W        W70202  44.991  30.919  11.069
10458W        W70203  20.029  44.266   2.873
10459W        W70204  40.475  26.975  11.448
10460W        W70205  38.480  11.279   4.829
10461W        W70206   9.347  30.928  13.475
10462W        W70207  12.242  13.733   2.715
10463W        W70208  23.530  34.000  10.470
10464W        W70209  38.569  34.596  14.801
10465W        W70210  39.553   5.386   3.817
10466W        W70211  21.229  15.171  14.310
10467W        W70212  44.863  18.221   2.829
10468W        W70213  41.002  37.027  14.813
10469W        W70214  34.936   2.242   2.739
10470W        W70215   4.355  12.171  10.958
10471W        W70216  33.439  11.645   3.684
10472W        W70217  19.684  40.990  12.983
10473W        W70218  10.824  20.079   2.374
10474W        W70219  42.320   7.739  10.482
10475W        W70220  29.009  42.951   0.875
10476W        W70221  23.502  20.070   3.148
10477W        W70222   2.940   6.908   3.857
10478W        W70223  13.746  35.398   0.406
10479W        W70224  18.634  41.352  11.986
10480W        W70225   4.855  12.146  11.599
10481W        W70226   8.326  26.668   1.825
10482W        W70227  35.540  23.571  11.881
10483W        W70228  35.572  43.940  12.064
10484W        W70229  11.330  27.085  12.527
10485W        W70230   9.687   6.310   2.825
10486W        W70231  40.434  29.124   4.270
10487W        W70232  40.958  24.672  12.377
10488W        W70233  42.472  36.439  13.833
10489W        W70234  31.438  21.639  14.971
10490W        W70235  41.849  20.043   0.745
10491W        W70236  22.048  28.084  11.073
10492W        W70237  18.181  31.150  13.544
10493W        W70238  15.756  12.799  10.012
10494W        W70239  37.432  21.232   1.247
10495W        W70240   4.444  15.176   2.238
10496W        W70241  20.158  31.088   0.450
10497W        W70242  29.961  25.698   2.256
10498W        W70243  23.636  32.521   2.178
10499W        W70244   0.978  16.665   1.335
10500W        W70245   0.272  23.718   4.629
10501W        W70246  17.630  30.055   4.610
10502W        W70247  10.805  28.092  11.979
10503W        W70248  38.359   6.688   1.435
10504W        W70249   2.781  33.386   3.150
10505W        W70250  25.155  22.066   0.470
10506W        W70251   7.846  32.538  13.383
10507W        W70252  36.978  22.669  13.839
10508W        W70253  13.695  28.473   2.822
10509W        W70254  41.416  38.932  14.990
10510W        W70255  20.659  14.207   9.479
10511W        W70256  19.235   4.848  10.451
10512W        W70257  23.533  23.601  13.380
10513W        W70258   2.388  33.565  13.874
10514W        W70259  24.498  40.442   1.405
10515W        W70260  43.963   6.831   1.771
10516W        W70261   9.317  35.549   4.793
10517W        W70262  10.259  17.200   3.784
10518W        W70263  27.454  40.800   4.333
10519W        W70264  26.649  32.943   1.749
10520W        W70265   2.952  14.621   2.204
10521W        W70266  33.897   8.740  13.817
10522W        W70267  14.673   0.262  13.485
10523W        W70268   2.742  16.186  12.975
10524W        W70269  38.891  41.934  14.786
10525W        W70270  16.204  36.920  14.935
10526W        W70271   8.877  42.778   1.837
10527W        W70272   2.857  24.642  11.508
10528W        W70273  10.179   9.381   0.776
10529W        W70274  25.586  42.500   0.834
10530W        W70275   6.258  30.560   2.692
10531W        W70276  21.080  32.432  13.513
10532W        W70277  44.998   6.188   0.890
10533W        W70278   9.651   0.762   2.196
10534W        W70279  20.610  43.989   0.919
10535W        W70280  41.465  42.308   0.958
10536W        W70281  21.059  44.326  14.006
10537W        W70282   5.439  25.536  12.029
10538W        W70283  33.008  40.426  14.016
10539W        W70284  23.177  32.460   3.308
10540W        W70285  31.637  35.953   2.727
10541W        W70286  15.595  10.357  10.909
10542W        W70287  32.485  35.998  14.887
10543W        W70288   4.931  19.183  14.444
10544W        W70289  20.151  24.574  11.448
10545W        W70290   7.825   4.868  11.874
10546W        W70291  28.122  19.543  14.302
10547W        W70292   8.270   5.749  11.110
10548W        W70293  21.112  24.601  13.861
10549W        W70294  19.624  14.634   0.912
10550W        W70295  11.170  19.583   1.399
10551W        W70296  15.706  38.456   3.661
10552W        W70297   4.390  15.147  13.852
10553W        W70298  28.661  37.566   2.237
10554W        W70299  29.141  34.403  10.947
10555W        W70300  18.716   5.741   0.875
10556W        W70301   9.154  23.241   2.324
10557W        W70302  12.321   6.353   4.304
10558W        W70303  16.581   0.986  13.352
10559W        W70304  26.459  13.285   0.786
10560W        W70305  30.521  38.001   2.375
10561W        W70306  31.919  35.417  11.971
10562W        W70307   2.731   5.908  13.418
10563W        W70308   1.290  38.901  14.904
10564W        W70309  30.616   0.472  10.947
10565W        W70310  16.707   8.243   3.228
10566W        W70311  12.303  17.302  14.943
10567W        W70312  14.812  14.806  12.927
10568W        W70313  32.132  37.398  11.484
10569W        W70314  11.828  21.216   2.721
10570W        W70315  13.657   5.213   4.726
10571W        W70316  15.152   1.395  12.845
10572W        W70317   6.826  24.085  13.451
10573W        W70318  16.764  18.722   3.150
10574W        W70319  27.060  18.549  14.029
10575W        W70320  18.790  13.341   4.727
10576W        W70321  37.405   5.698  13.409
10577W        W70322  39.351  42.283   4.184
10578W        W70323  23.143  21.534   2.901
10579W        W70324   2.368  11.854   3.154
10580W        W70325  30.591  32.470  12.361
10581W        W70326  41.933  32.998  11.570
10582W        W70327   8.238  15.294  11.113
10583W        W70328  27.194  12.755   2.258
10584W        W70329  13.289  31.063   1.729
10585W        W70330  15.262   2.886   1.416
10586W        W70331  23.527   7.274  14.307
10587W        W70332  16.315  18.065  10.618
10588W        W70333  17.769  30.641  10.939
10589W        W70334   6.340  21.511  14.416
10590W        W70335  33.980   4.313   9.621
10591W        W70336   8.212   6.907   1.740
10592W        W70337  37.004  29.609  12.897
10593W        W70338  15.632   1.345   4.697
10594W        W70339  14.819  27.177   0.862
10595W        W70340  11.746  33.053   2.707
10596W        W70341  16.725  37.429  11.600
10597W        W70342  34.116  42.483  12.563
10598W        W70343  24.596  36.425  13.399
10599W        W70344  14.690  17.568   0.363
10600W        W70345  36.013   4.783   4.734
10601W        W70346  18.671   6.347   4.748
10602W        W70347   1.259  41.295   4.666
10603W        W70348  14.125  32.090  12.430
10604W        W70349  12.817   7.182   4.224
10605W        W70350  25.690  12.285  14.334
10606W        W70351  13.243  21.758  14.785
10607W        W70352   6.723  37.934  13.514
10608W        W70353   0.460  28.623  14.778
10609W        W70354  24.713  36.580   3.341
10610W        W70355  12.135  30.423   4.283
10611W        W70356  15.655  22.235   2.181
10612W        W70357  12.622   9.345  13.892
10613W        W70358  34.925  35.477  12.482
10614W        W70359   1.735  23.093   2.293
10615W        W70360  22.541   7.826  12.580
10616W        W70361  38.439  13.228  13.988
10617W        W70362   4.375  25.664  11.505
10618W        W70363  15.668  21.716  14.941
10619W        W70364  32.456  39.424  13.334
10620W        W70365  26.499  18.749   0.389
10621W        W70366  21.209  12.674   0.833
10622W        W70367   5.903  22.100   4.647
10623W        W70368  42.880  34.372  14.948
10624W        W70369  24.548  42.500  13.446
10625W        W70370  36.021  14.155   4.320
10626W        W70371  44.853  29.530  12.513
10627W        W70372  13.703  44.817  14.514
10628W        W70373  25.184  40.372   1.247
10629W        W70374   5.395  12.330   0.279
10630W        W70375  40.867  28.179   2.262
10631W        W70376  27.645  33.583  14.908
10632W        W70377  31.492  33.622  14.384
10633W        W70378  42.008   8.676  14.473
10634W        W70379  11.806   1.342  11.374
10635W        W70380  15.298  39.032   1.217
10636W        W70381  31.130   7.414   0.439
10637W        W70382  23.605  10.307   3.201
10638W        W70383   2.756  39.425  13.995
10639W        W70384  32.546  33.991   4.280
10640W        W70385  42.796  11.236   0.274
10641W        W70386  16.681  21.612  14.784
10642W        W70387  31.573   2.829   3.384
10643W        W70388  35.376  22.583   2.269
10644W        W70389  38.017  43.448   4.342
10645W        W70390   8.873  40.494  13.517
10646W        W70391  33.445  13.736   4.220
10647W        W70392  30.999  40.440   4.245
10648W        W70393   4.850   7.668  14.305
10649W        W70394  28.097  37.542  12.981
10650W        W70395  27.476   3.332  12.858
10651W        W70396  23.564   8.368   3.805
10652W        W70397  29.164  38.361  13.918
10653W        W70398   6.811   1.908   2.182
10654W        W70399   1.883   5.209  13.913
10655W        W70400  25.672  43.513  10.958
10656W        W70401  34.417  32.496   2.697
10657W        W70402  14.190  12.267   0.802
10658W        W70403  10.656  27.491  13.881
10659W        W70404   4.906  15.327   2.850
10660W        W70405  41.433  11.373  10.434
10661W        W70406   7.321  10.637   2.810
10662W        W70407  32.438  14.105  13.041
10663W        W70408  44.423  19.086   5.210
10664W        W70409  28.121   3.761   1.746
10665W        W70410  23.573  15.304  13.429
10666W        W70411  14.162  12.736  13.460
10667W        W70412  29.482  34.610  12.910
10668W        W70413  38.413  22.085  13.968
10669W        W70414  42.003  16.190   2.301
10670W        W70415  38.397  17.725   3.869
10671W        W70416  40.486  39.894   3.729
10672W        W70417   4.827  42.465  13.498
10673W        W70418  27.668  41.008  13.466
10674W        W70419  23.511   7.907  12.922
10675W        W70420  27.963  28.008   2.330
10676W        W70421  41.323  15.259  12.366
10677W        W70422  14.176   6.403  13.316
10678W        W70423  33.909  28.529  14.431
10679W        W70424  24.635  27.541   1.309
10680W        W70425  36.864  16.597   3.761
10681W        W70426  31.114  37.572  12.956
10682W        W70427  21.719  40.373  10.431
10683W        W70428  44.500  43.461   1.443
10684W        W70429  25.187   8.837  13.442
10685W        W70430  40.334  15.632  11.495
10686W        W70431  38.531  27.037  10.569
10687W        W70432  35.507   6.276   0.762
10688W        W70433  40.980  20.608   4.306
10689W        W70434  38.053  41.297   3.151
10690W        W70435  11.223  31.022   3.791
10691W        W70436   8.322  31.460   2.708
10692W        W70437  25.699  40.837   1.766
10693W        W70438  24.565  10.286   4.616
10694W        W70439  21.229  38.819  14.301
10695W        W70440   1.755  29.424   0.936
10696W        W70441   8.271   7.311   2.301
10697W        W70442  43.428  10.169  11.113
10698W        W70443   3.283  10.273  13.487
10699W        W70444  34.424   2.255  14.277
10700W        W70445  13.341  19.764   4.349
10701W        W70446  26.499   4.916   1.233
10702W        W70447   0.284   3.827  13.910
10703W        W70448  21.750   8.717  11.561
10704W        W70449  16.798  18.177  11.992
10705W        W70450  15.590  38.898  11.105
10706W        W70451  40.396   2.747  14.290
10707W        W70452  34.882   9.385   1.891
10708W        W70453  22.102  41.454   4.185
10709W        W70454  35.497  30.637  12.978
10710W        W70455  20.740  12.765  11.444
10711W        W70456   1.966   5.279   2.318
10712W        W70457  11.215  39.845  12.830
10713W        W70458  20.607  29.026  11.435
10714W        W70459   0.329  18.211   3.843
10715W        W70460  23.151  19.157  14.977
10716W        W70461  15.241  20.144   4.780
10717W        W70462  31.901  17.754  11.865
10718W        W70463  22.585  20.709   3.214
10719W        W70464  43.361  38.886   4.792
10720W        W70465   1.240   5.883  11.391
10721W        W70466  40.379  38.541   2.672
10722W        W70467  31.950  21.532   2.216
10723W        W70468  13.340  43.888  11.117
10724W        W70469  18.244  41.407   4.342
10725W        W70470   3.400  20.737  13.816
10726W        W70471  17.601  43.429  12.035
10727W        W70472  18.733   7.198   3.372
10728W        W70473   6.307  12.250   3.796
10729W        W70474  37.366  12.742   2.298
10730W        W70475  17.651  15.781  12.576
10731W        W70476  21.196   1.480   3.348
10732W        W70477  31.423  17.672  13.352
10733W        W70478   2.282  20.534  14.387
10734W        W70479  34.434   0.450   0.828
10735W        W70480  25.660  12.290   2.275
10736W        W70481  28.529  24.555   2.819
10737W        W70482  18.128   4.347  14.851
10738W        W70483  26.046  38.989   3.164
10739W        W70484  35.080  15.614  14.765
10740W        W70485  37.439  10.161  14.507
10741W        W70486  34.041  35.516  11.605
10742W        W70487  12.265  30.157   0.731
10743W        W70488   2.258  37.854   1.292
10744W        W70489  35.090  37.502   0.963
10745W        W70490  15.714   8.842  14.829
10746W        W70491   8.806  36.408   0.762
10747W        W70492  24.015  16.177   4.353
10748W        W70493   4.236  26.197   2.322
10749W        W70494   0.897  22.043  11.519
10750W        W70495   5.894  14.787  13.006
10751W        W70496  26.157  40.328   3.723
10752W        W70497  18.675   3.390  14.323
10753W        W70498  32.091   8.880  12.859
10754W        W70499  40.401  30.041   1.763
10755W        W70500  14.756  43.984  14.296
10756W        W70501  19.664  22.065   4.613
10757W        W70502   9.376   7.739  11.086
10758W        W70503   1.841  22.141  10.591
10759W        W70504  30.639  23.531  13.536
10760W        W70505  38.474   1.742  12.370
10761W        W70506   1.453  42.448  13.848
10762W        W70507   9.200   1.319  12.984
10763W        W70508  30.108  17.592  11.523
10764W        W70509  42.785  29.056   5.623
10765W        W70510  15.748  10.656  11.095
10766W        W70511   7.354   8.396  12.904
10767W        W70512  17.221   4.823   0.385
10768W        W70513   4.795  40.533  11.057
10769W        W70514   6.374   7.688   4.751
10770W        W70515  38.539   5.282   1.330
10771W        W70516  36.390   6.769   4.732
10772W        W70517  25.966  32.958   4.329
10773W        W70518  31.930   1.894  11.472
10774W        W70519  30.002  11.335   0.890
10775W        W70520  11.661   7.711   3.793
10776W        W70521  40.544  28.030   0.800
10777W        W70522  40.876  10.293   3.202
10778W        W70523  44.833   5.286   1.289
10779W        W70524  32.435  44.371   4.749
10780W        W70525  19.168  24.071   4.307
10781W        W70526  34.890  30.452   0.769
10782W        W70527  36.521  19.142   4.244
10783W        W70528  15.781  14.725   4.203
10784W        W70529  29.475  25.604   2.228
10785W        W70530  13.739   5.406   1.894
10786W        W70531  33.526  12.703  11.472
10787W        W70532  10.762  24.149   3.765
10788W        W70533  40.027  25.213  11.493
10789W        W70534  26.205   5.360  11.097
10790W        W70535  28.457  17.073   4.290
10791W        W70536  26.960   8.658   1.834
10792W        W70537  42.823   7.308  10.409
10793W        W70538  36.993  20.104   2.756
10794W        W70539  39.892  28.531  13.469
10795W        W70540  14.648   4.837   0.915
10796W        W70541   7.784  23.644  12.363
10797W        W70542  14.662  22.138  14.793
10798W        W70543  12.257  23.608  12.460
10799W        W70544  29.622  38.385   3.763
10800W        W70545   9.382  39.982  11.008
10801W        W70546   2.229   2.898   1.869
10802W        W70547  25.136   6.328   2.807
10803W        W70548   2.235  18.236   1.722
10804W        W70549   8.196  13.796  10.467
10805W        W70550   7.207  34.975  14.846
10806W        W70551   1.441  44.827  14.763
10807W        W70552   5.845   7.353  11.372
10808W        W70553  29.466   0.468  14.000
10809W        W70554  17.751  16.593   0.809
10810W        W70555   9.356   4.317  11.042
10811W        W70556  30.471  43.392  14.336
10812W        W70557  38.417  34.430   3.340
10813W        W70558  43.888  36.974   9.945
10814W        W70559  34.374  33.994   3.158
10815W        W70560  19.235  32.094  10.910
10816W        W70561   9.381  31.128  14.441
10817W        W70562  23.721  13.308  14.326
10818W        W70563  32.408  21.608  14.383
10819W        W70564  12.685   4.859   5.306
10820W        W70565  10.245  16.792  10.950
10821W        W70566  16.077  33.953   3.308
10822W        W70567  26.654  43.500  11.437
10823W        W70568  29.040   5.277  13.840
10824W        W70569  20.659   2.433   1.717
10825W        W70570   2.954  38.004  13.909
10826W        W70571  27.572  30.625   5.321
10827W        W70572  40.868  14.195  12.451
10828W        W70573  19.571  44.441   0.268
10829W        W70574  25.080  42.391   4.234
10830W        W70575  38.420  37.045   3.835
10831W        W70576   8.203  33.880  12.343
10832W        W70577  14.273  35.924   2.197
10833W        W70578  24.483   3.428  10.152
10834W        W70579   1.335  38.475  11.127
10835W        W70580  29.634  28.598  12.464
10836W        W70581  16.197  24.185   3.177
10837W        W70582  11.309  34.968   1.901
10838W        W70583  34.877  31.980   1.219
10839W        W70584  42.361  32.912  11.492
10840W        W70585  19.598  13.305   3.384
10841W        W70586  36.025  38.510  13.460
10842W        W70587  22.701  27.995   2.737
10843W        W70588  39.885  26.687   0.962
10844W        W70589  18.552   2.397  11.447
10845W        W70590   7.869   9.698  12.039
10846W        W70591  26.648  23.639  13.858
10847W        W70592  42.901  36.348   2.819
10848W        W70593   2.775  16.151  14.450
10849W        W70594   0.442   6.395  14.955
10850W        W70595  32.415  35.023   3.331
10851W        W70596  44.282   3.937  12.490
10852W        W70597  25.594  19.132   0.890
10853W        W70598  33.969  28.619   1.391
10854W        W70599  20.619   0.286   0.827
10855W        W70600  19.149  43.472  12.976
10856W        W70601  18.143  21.689   2.383
10857W        W70602  30.615  28.168   2.199
10858W        W70603  36.365   5.369   2.775
10859W        W70604  35.962  23.097  10.493
10860W        W70605  30.035  17.559   1.870
10861W        W70606  43.963  22.665  10.897
10862W        W70607  43.910  11.150   0.927
10863W        W70608  27.047   5.721  13.013
10864W        W70609  23.140  36.478   2.299
10865W        W70610  21.158  41.890   1.907
10866W        W70611  43.854  34.057   3.274
10867W        W70612   0.399  16.581   4.117
10868W        W70613   3.727  13.802   4.759
10869W        W70614   9.728  10.694   3.775
10870W        W70615  25.059   1.815   2.864
10871W        W70616  10.832  27.114  14.907
10872W        W70617   3.270  35.900  14.410
10873W        W70618   6.770  22.729   0.782
10874W        W70619  30.535   1.285  14.017
10875W        W70620  42.020  15.239   3.702
10876W        W70621  21.529  16.812   2.242
10877W        W70622  44.463  41.936  14.471
10878W        W70623  31.152  42.029   0.331
10879W        W70624   0.892  19.697   3.210
10880W        W70625  41.989  19.188  14.871
10881W        W70626   0.921  22.229   3.273
10882W        W70627  31.572  23.717   3.185
10883W        W70628  21.603  25.057  13.834
10884W        W70629  31.899  41.824  12.371
10885W        W70630  28.127  29.441  11.508
10886W        W70631  32.554  27.464  12.939
10887W        W70632  17.123  15.217  11.109
10888W        W70633  38.404   1.474   4.175
10889W        W70634   7.229  23.704  13.460
10890W        W70635  17.290  25.170   5.289
10891W        W70636  31.645  43.783   0.440
10892W        W70637  14.712   7.286  11.409
10893W        W70638   8.219   7.765   4.701
10894W        W70639  31.465  21.745   2.342
10895W        W70640  28.621  16.797   4.143
10896W        W70641  43.771  41.026   2.811
10897W        W70642  17.219  34.011   4.651
10898W        W70643  37.839  30.467   4.621
10899W        W70644  26.660  12.831   9.535
10900W        W70645  29.643   6.913   0.804
10901W        W70646  17.579  20.681  10.573
10902W        W70647   1.912  34.985  14.816
10903W        W70648  20.148   7.397   1.351
10904W        W70649   9.694  25.080   1.829
10905W        W70650   8.292  23.549  13.913
10906W        W70651  33.487   2.827  12.028
10907W        W70652   0.926   0.829   3.310
10908W        W70653  14.189  30.015  13.864
10909W        W70654  25.643  15.644  13.375
10910W        W70655  10.697  32.083   2.695
10911W        W70656  23.594  21.664   3.810
10912W        W70657  10.865  26.520  14.446
10913W        W70658  36.568  25.653  14.359
10914W        W70659  30.963  30.091  11.518
10915W        W70660  39.956  37.895  12.916
10916W        W70661  22.648  24.007   3.241
10917W        W70662  26.575  36.506   3.242
10918W        W70663  40.528  43.860   1.868
10919W        W70664   6.183   2.950   0.243
10920W        W70665   8.689  36.536  11.441
10921W        W70666  10.306  36.357  14.332
10922W        W70667   5.702  23.648  10.566
10923W        W70668  33.096  40.515   3.758
10924W        W70669   5.238   0.363   1.257
10925W        W70670   1.848  30.941   3.728
10926W        W70671  37.012   2.812   3.700
10927W        W70672  28.524  13.193  12.392
10928W        W70673  43.887   4.424  14.465
10929W        W70674  17.109  38.998  14.282
10930W        W70675   8.713  16.130   2.296
10931W        W70676  37.568  18.181   3.644
10932W        W70677  38.053  14.794  14.886
10933W        W70678  14.311  17.217  12.824
10934W        W70679  38.894  20.573  10.083
10935W        W70680  17.253   5.723   1.727
10936W        W70681   8.333   3.235   2.179
10937W        W70682   6.263  18.279   1.224
10938W        W70683  21.519  12.319   3.759
10939W        W70684  10.223  33.938  14.902
10940W        W70685  44.758  35.968  14.969
10941W        W70686  39.025   9.234   2.686
10942W        W70687  36.414  22.502   0.898
10943W        W70688  23.625  30.604  13.438
10944W        W70689   6.743  32.415  12.068
10945W        W70690  30.119  17.699  13.987
10946W        W70691  19.163   2.286  12.047
10947W        W70692   7.853   9.283  14.000
10948W        W70693  27.136  20.653   3.851
10949W        W70694   0.945  37.063   0.869
10950W        W70695  42.289   0.342  14.415
10951W        W70696  14.253   3.251  13.970
10952W        W70697  36.395  30.504   0.264
10953W        W70698  25.128  13.810   5.727
10954W        W70699  16.662   8.832  10.425
10955W        W70700  32.117  44.274   4.315
10956W        W70701  25.126  35.101   1.309
10957W        W70702  36.016  36.569   3.293
10958W        W70703  32.474  17.717   1.784
10959W        W70704  10.195  17.765  13.542
10960W        W70705  31.608  33.959  11.127
10961W        W70706  30.482  18.250   2.261
10962W        W70707  44.923  18.110  12.403
10963W        W70708  36.401  23.514   2.365
10964W        W70709   7.398   5.706   4.267
10965W        W70710  21.036  28.078   1.277
10966W        W70711  30.570   3.767  13.987
10967W        W70712  44.826  27.004  11.086
10968W        W70713  36.849  39.932   1.374
10969W        W70714  17.106  28.991  10.161
10970W        W70715  40.844  21.206   3.358
10971W        W70716  13.270  35.590   0.276
10972W        W70717  40.811  38.509  12.354
10973W        W70718  44.773  19.764   1.899
10974W        W70719  17.198   7.706  12.039
10975W        W70720  32.943   6.310  12.488
10976W        W70721  43.432  35.932   2.187
10977W        W70722  25.145  11.657  10.900
10978W        W70723  41.454   2.740  12.511
10979W        W70724  20.084   8.225  11.431
10980W        W70725  30.153  11.799   2.214
10981W        W70726  40.319  37.009   4.236
10982W        W70727   9.319  16.598   2.192
10983W        W70728   6.776   3.749  13.975
10984W        W70729  31.452  37.064  14.472
10985W        W70730  33.569  42.860   4.794
10986W        W70731  16.184  23.493   1.448
10987W        W70732   5.320   9.378   2.232
10988W        W70733  26.532   7.729  13.458
10989W        W70734   3.308   6.905   2.847
10990W        W70735  43.353  15.301  13.856
10991W        W70736  43.801   4.243  12.825
10992W        W70737  11.810  17.182  13.939
10993W        W70738  25.187  42.793   1.393
10994W        W70739  27.481  35.448  12.926
10995W        W70740  34.581  34.992  10.910
10996W        W70741  39.870  11.788  13.328
10997W        W70742  13.620  11.742   4.607
10998W        W70743  41.323  25.681  14.966
10999W        W70744  24.136  10.249   4.162
11000W        W70745  17.123  32.108  14.026
11001W        W70746  13.705  39.452   4.727
11002W        W70747   1.277   9.770   4.659
11003W        W70748  41.896  38.414  11.425
11004W        W70749   4.891  22.730   3.386
11005W        W70750  20.233  42.489   2.390
11006W        W70751  16.584  41.401   3.208
11007W        W70752  40.405  25.117   9.972
11008W        W70753  22.059  16.758  13.845
11009W        W70754  43.389  18.557   0.328
11010W        W70755  42.289  22.527   3.776
11011W        W70756  39.953  38.505   0.463
11012W        W70757  28.611   1.306   2.299
11013W        W70758   1.794   6.771  12.069
11014W        W70759  32.467  19.717   1.741
11015W        W70760  13.235  42.860   4.747
11016W        W70761  17.278  28.133  14.463
11017W        W70762   1.779  34.504  11.393
11018W        W70763  12.137  44.796  12.853
11019W        W70764   6.829  22.652  11.950
11020W        W70765  11.805  28.466   0.912
11021W        W70766  38.041  23.723   3.747
11022W        W70767  39.365  35.502   3.145
11023W        W70768  38.335  23.693  11.881
11024W        W70769  27.627  26.015   0.361
11025W        W70770   3.848  22.160  10.972
11026W        W70771  11.320   7.815   3.146
11027W        W70772  22.575  34.883  12.517
11028W        W70773   7.687  36.010  13.484
11029W        W70774  15.270  14.688  13.411
11030W        W70775   6.684  13.230  10.474
11031W        W70776   3.854   5.884   1.819
11032W        W70777  41.917  30.025  11.575
11033W        W70778  31.646  16.248   0.945
11034W        W70779  22.174  25.065   4.709
11035W        W70780  41.419  40.850   4.677
11036W        W70781  10.137  27.176  11.381
11037W        W70782  37.345  20.756   4.636
11038W        W70783  21.654   9.757   4.662
11039W        W70784  14.822  31.981   4.231
11040W        W70785   5.826  21.232   0.426
11041W        W70786  19.664  31.453  11.591
11042W        W70787  16.800  32.066  12.878
11043W        W70788  14.170   8.327  14.457
11044W        W70789  24.005  39.516  14.867
11045W        W70790  16.583  17.628   4.762
11046W        W70791  30.490  35.409  10.425
11047W        W70792   9.743  18.130   2.882
11048W        W70793   9.250   0.447  11.563
11049W        W70794  22.685  38.497  13.984
11050W        W70795  40.440   7.351  13.444
11051W        W70796  37.979  29.157   4.825
11052W        W70797  18.275  28.500  11.058
11053W        W70798  29.115  43.467   0.824
11054W        W70799  11.282  35.537  10.932
11055W        W70800  36.004  23.068   0.849
11056W        W70801  11.729  31.026  11.056
11057W        W70802  27.114  29.135   0.356
11058W        W70803  15.669  32.957  12.036
11059W        W70804  24.681  32.078   3.196
11060W        W70805  15.655  18.782  13.965
11061W        W70806   5.689  40.043  14.403
11062W        W70807  42.950  43.798   0.375
11063W        W70808  13.844  32.069   3.657
11064W        W70809  21.726   3.843  10.619
11065W        W70810  12.211  39.324  14.782
11066W        W70811  18.639   0.316   4.118
11067W        W70812  18.056  30.416  10.442
11068W        W70813  23.710  16.194   1.860
11069W        W70814  24.725  11.170  11.064
11070W        W70815  36.590   3.293  13.058
11071W        W70816  37.085  29.473   0.792
11072W        W70817  11.236  44.946  10.562
11073W        W70818  19.275  40.887   4.726
11074W        W70819   5.370  22.687   1.362
11075W        W70820  13.764  11.662   3.818
11076W        W70821   9.764  32.935  13.925
11077W        W70822  21.642   9.270   0.792
11078W        W70823   9.865  29.993   2.178
11079W        W70824  13.342  11.358  11.482
11080W        W70825  39.993  37.387   2.218
11081W        W70826   2.244   2.381   4.722
11082W        W70827   3.889   4.375   3.859
11083W        W70828  16.106  17.740   1.895
11084W        W70829  38.492  24.087   3.173
11085W        W70830  31.922  20.267   2.329
11086W        W70831  38.927  26.674  10.551
11087W        W70832  43.861  14.771   3.245
11088W        W70833  41.293  24.536  13.038
11089W        W70834  10.357  11.257  10.548
11090W        W70835  23.633  13.654  14.292
11091W        W70836  39.990   1.740  11.112
11092W        W70837  22.590  22.251  13.456
11093W        W70838  12.285   1.338   1.435
11094W        W70839  41.818  40.481   2.880
11095W        W70840   5.706  15.084   3.629
11096W        W70841  30.008  12.273   1.724
11097W        W70842  31.504  35.475  14.513
11098W        W70843  30.625   2.349   3.344
11099W        W70844  38.025  29.155   2.198
11100W        W70845  43.824  24.976  11.482
11101W        W70846  40.836  26.135  13.054
11102W        W70847  26.035   1.417  12.512
11103W        W70848   6.836  43.423   1.441
11104W        W70849  14.158  39.403  13.026
11105W        W70850  40.933   1.914   2.386
11106W        W70851  28.606  26.458  10.001
11107W        W70852   3.766  37.858  10.428
11108W        W70853  34.012   8.312   4.314
11109W        W70854  34.587  39.358   3.655
11110W        W70855  39.002   8.365  12.987
11111W        W70856  40.496  28.478   2.737
11112W        W70857   4.390  15.093  12.840
11113W        W70858  16.643  19.165  11.997
11114W        W70859  22.738  15.594  14.278
11115W        W70860  12.642  13.755  12.369
11116W        W70861  41.792  18.089   1.867
11117W        W70862  17.702  40.875   3.734
11118W        W70863  22.232  16.286  10.968
11119W        W70864  16.680   2.301   4.234
11120W        W70865  26.141  26.490  10.055
11121W        W70866  33.451   3.733  10.982
11122W        W70867  31.436   5.415   4.235
11123W        W70868  11.238  38.442  13.909
11124W        W70869  22.574  15.256  11.894
11125W        W70870  20.542   1.940   1.363
11126W        W70871   6.193   8.362   0.345
11127W        W70872  35.440  34.037  12.043
11128W        W70873  29.034  40.022  14.979
11129W        W70874  23.185   3.406  14.891
11130W        W70875  11.259  16.247  11.421
11131W        W70876  14.191  42.987   0.356
11132W        W70877  26.143  13.722  13.530
11133W        W70878  28.579  15.771  13.938
11134W        W70879   6.403  24.167  12.364
11135W        W70880  11.239  34.939   5.166
11136W        W70881  36.481  33.051  10.897
11137W        W70882  16.677  27.463   0.891
11138W        W70883  33.984   4.863   2.212
11139W        W70884   6.405   1.245   1.910
11140W        W70885  15.762  32.586   2.777
11141W        W70886   0.918   3.284   3.766
11142W        W70887  17.259  33.552   3.308
11143W        W70888  36.406  17.259   3.860
11144W        W70889  39.987  17.582  13.995
11145W        W70890  30.983  23.601  10.006
11146W        W70891  43.884  16.274   1.298
11147W        W70892  20.259  23.087  10.458
11148W        W70893  39.870   9.741   0.309
11149W        W70894  38.385   2.929   1.235
11150W        W70895  17.101  31.632   3.366
11151W        W70896  32.541  43.878   3.856
11152W        W70897  36.583  25.138   2.226
11153W        W70898  30.976  41.836  10.583
11154W        W70899  41.975  41.002  12.497
11155W        W70900   1.887  44.378  14.493
11156W        W70901  20.593  21.057  12.956
11157W        W70902  44.412   1.956  11.877
11158W        W70903  39.002  25.036  10.567
11159W        W70904   3.239  24.521   2.251
11160W        W70905  27.970  33.517   3.167
11161W        W70906  25.664  26.979  14.019
11162W        W70907  28.044  31.461   0.252
11163W        W70908  25.180  15.715   3.644
11164W        W70909   7.684  14.770   0.883
11165W        W70910  17.729   5.283   1.753
11166W        W70911  17.152  11.269  13.010
11167W        W70912   6.749  36.465  12.490
11168W        W70913  41.008  38.527  14.342
11169W        W70914   1.477  24.517   4.172
11170W        W70915   3.783  13.713  12.414
11171W        W70916  14.168  14.777   0.396
11172W        W70917   1.803  32.574   4.735
11173W        W70918  41.517  11.780   1.301
11174W        W70919  30.582  12.343  13.923
11175W        W70920   7.197  29.479   1.889
11176W        W70921  44.294  26.666   1.824
11177W        W70922  25.165  10.857   0.912
11178W        W70923   3.864  31.621  11.903
11179W        W70924  29.117  26.029   0.457
11180W        W70925   9.844  18.224   0.348
11181W        W70926  44.981  39.026  11.083
11182W        W70927   5.877  42.844  11.516
11183W        W70928  36.443  11.770  12.066
11184W        W70929  13.678  27.538   3.833
11185W        W70930   0.441   4.884  12.490
11186W        W70931   5.229  33.607   3.171
11187W        W70932  19.220  29.021   0.262
11188W        W70933  18.687  37.460  14.408
11189W        W70934   4.803  18.594   5.250
11190W        W70935  16.598   1.818  10.962
11191W        W70936  28.992   3.712   3.760
11192W        W70937  31.916  23.542   1.782
11193W        W70938   0.436  42.953  13.452
11194W        W70939  11.846  41.474  13.471
11195W        W70940  17.619   8.257   3.310
11196W        W70941  15.790  15.814  11.605
11197W        W70942   3.317  38.396   4.341
11198W        W70943  40.838  37.417  12.499
11199W        W70944   3.365  37.504  14.852
11200W        W70945  38.934   7.216  12.871
11201W        W70946  11.353  40.536   4.736
11202W        W70947   6.320   4.404   1.829
11203W        W70948  25.614   7.346   0.305
11204W        W70949  24.212   7.361   0.423
11205W        W70950  44.269  31.112  14.366
11206W        W70951  41.953  41.376   2.356
11207W        W70952  14.749  32.490  14.303
11208W        W70953  23.597  17.063  14.905
11209W        W70954  32.487   8.659  10.072
11210W        W70955   7.893   4.255   4.774
11211W        W70956  32.479  16.696  13.509
11212W        W70957  12.359  30.136  13.376
11213W        W70958  20.639  42.361   1.227
11214W        W70959  23.182  10.682   1.388
11215W        W70960  35.422  19.181  12.034
11216W        W70961  27.667   7.316   1.342
11217W        W70962  32.600  33.574   0.366
11218W        W70963  23.718  30.511   1.846
11219W        W70964  13.333  11.779   1.772
11220W        W70965  12.340  16.242  13.036
11221W        W70966  38.348  12.809  14.924
11222W        W70967  35.525  22.529  13.009
11223W        W70968  33.547  10.731   4.675
11224W        W70969  19.133  30.560   0.951
11225W        W70970  43.910  32.526   3.820
11226W        W70971  33.604  24.192  10.486
11227W        W70972  27.665  44.406   4.322
11228W        W70973  19.193  40.519   0.858
11229W        W70974  11.133   8.872   1.790
11230W        W70975  30.070  44.358  11.384
11231W        W70976   6.754  37.994  12.891
11232W        W70977  11.299   2.256  14.838
11233W        W70978   6.186  17.293   1.322
11234W        W70979  24.694  34.083  12.555
11235W        W70980  11.734  22.175   1.914
11236W        W70981   1.357  30.988   1.776
11237W        W70982  44.448   9.223  11.462
11238W        W70983  34.880  31.507   4.312
11239W        W70984  44.408   2.817   2.249
11240W        W70985  42.352  13.649  13.417
11241W        W70986  13.150  33.124   2.201
11242W        W70987  43.432  42.906  13.924
11243W        W70988  38.849   0.747  12.563
11244W        W70989   5.344  38.942   2.408
11245W        W70990  35.010   3.877   2.180
11246W        W70991  35.057  10.770  13.512
11247W        W70992  23.186   3.319   0.813
11248W        W70993   3.438   8.187   2.776
11249W        W70994  13.648   5.402   3.387
11250W        W70995   8.271  41.375  10.596
11251W        W70996  42.428  33.598  11.117
11252W        W70997   1.855  38.967   0.955
11253W        W70998  25.070   7.417   1.763
11254W        W70999  37.954  35.977   3.829
11255W        W71000  17.296  28.662  10.950
11256W        W71001  31.625   7.204   4.649
11257W        W71002  27.152  12.718  10.575
11258W        W71003  36.099  20.585   4.139
11259W        W71004  14.262  43.407   1.779
11260W        W71005  38.373  17.128   4.173
11261W        W71006   9.854  23.561  11.593
11262W        W71007  39.472  10.155  14.782
11263W        W71008  15.606  31.448  14.893
11264W        W71009  33.541  36.358   4.707
11265W        W71010  11.632   0.905   4.311
11266W        W71011  12.656  39.822   3.862
11267W        W71012  27.680  28.967   0.261
11268W        W71013  29.975   3.217   3.211
11269W        W71014  16.713  31.523   4.119
11270W        W71015  39.375  26.525  14.931
11271W        W71016  19.570  20.079  13.506
11272W        W71017  29.592  26.170  13.837
11273W        W71018  26.564  41.298   1.854
11274W        W71019  38.943  19.209   3.662
11275W        W71020  12.353  44.496   3.742
11276W        W71021   0.747  27.968  11.110
11277W        W71022  40.303  20.694  12.358
11278W        W71023  40.809  22.013   4.743
11279W        W71024  24.181  15.210   0.334
11280W        W71025  13.319   6.676   4.187
11281W        W71026  11.651  16.234  12.468
11282W        W71027   5.270  40.526   2.352
11283W        W71028  26.108   1.976   0.465
11284W        W71029  27.567   8.784  12.916
11285W        W71030  14.620  43.458   1.785
11286W        W71031  17.146  16.769   2.733
11287W        W71032  31.029   5.360   2.806
11288W        W71033  20.230  36.577  11.588
11289W        W71034   5.907  21.142  11.880
11290W        W71035  44.877  39.055   4.633
11291W        W71036  36.384   9.689  14.332
11292W        W71037  27.508   5.866   4.689
11293W        W71038  43.355  32.069   4.706
11294W        W71039  25.666  36.994   4.703
11295W        W71040   6.209   3.356  14.893
11296W        W71041  20.698  42.828   2.217
11297W        W71042   5.417  28.542   0.965
11298W        W71043  27.639  44.309  14.019
11299W        W71044   2.431  36.561   0.888
11300W        W71045   6.892  25.504  12.078
11301W        W71046   9.225  32.962   3.381
11302W        W71047  32.114  38.825   4.293
11303W        W71048  29.019   8.264   0.450
11304W        W71049  36.911  12.763   3.753
11305W        W71050  30.125  41.430  12.494
11306W        W71051  28.943  14.211   0.962
11307W        W71052   1.947  26.189  14.356
11308W        W71053  17.150   5.767   2.367
11309W        W71054  41.457  33.452  13.798
11310W        W71055  33.464  29.465   0.322
11311W        W71056  14.686   1.773  12.496
11312W        W71057  30.922  44.973   4.260
11313W        W71058  24.084  35.460  14.956
11314W        W71059  34.914  14.599   4.763
11315W        W71060  30.588   7.256  12.407
11316W        W71061  27.162  32.465   9.533
11317W        W71062  25.636  34.013   2.688
11318W        W71063  27.613  10.361   3.726
11319W        W71064  22.126  17.688  13.006
11320W        W71065  10.770  11.142  11.491
11321W        W71066  42.800   5.272   4.718
11322W        W71067   3.818   7.891   0.301
11323W        W71068  22.687  44.362  12.958
11324W        W71069  16.605  18.218  10.943
11325W        W71070  20.153   9.151  14.367
11326W        W71071  36.863  21.104   0.741
11327W        W71072   9.161  15.287  10.633
11328W        W71073  17.657  41.851   1.260
11329W        W71074  35.490  25.601   4.737
11330W        W71075   5.811  29.664   3.763
11331W        W71076  41.471   8.806   3.170
11332W        W71077  11.830  13.605   4.307
11333W        W71078  39.482  20.568  12.984
11334W        W71079   0.266  40.479   1.435
11335W        W71080  14.601   7.220  10.505
11336W        W71081  15.097  43.881  10.910
11337W        W71082   5.822  20.079  14.478
11338W        W71083  19.682  37.936   0.401
11339W        W71084  13.673  23.168   2.282
11340W        W71085  26.624   2.428   0.840
11341W        W71086  43.821  28.654  12.951
11342W        W71087  28.090  19.641  10.973
11343W        W71088  30.482  13.736   4.608
11344W        W71089  38.010  33.024  13.798
11345W        W71090  40.823  23.519   1.859
11346W        W71091  41.517   4.872  10.422
11347W        W71092  23.548  33.615   0.474
11348W        W71093  18.625  20.030   2.350
11349W        W71094  25.656  19.703   0.271
11350W        W71095  19.116  25.132   4.278
11351W        W71096  27.009  39.369   4.717
11352W        W71097  18.687  29.166   1.828
11353W        W71098  16.767   8.828  10.108
11354W        W71099   4.206   9.793  12.963
11355W        W71100   9.336   1.882   5.160
11356W        W71101  17.741   9.849  14.345
11357W        W71102  16.766  26.118   2.763
11358W        W71103  12.162  38.430   0.379
11359W        W71104  36.475  29.440   3.150
11360W        W71105  22.650  31.591   0.934
11361W        W71106   9.392  42.447   0.848
11362W        W71107   4.779   4.360   2.836
11363W        W71108   4.720  21.571  11.379
11364W        W71109  35.491  25.578  14.842
11365W        W71110   5.241   8.293  11.907
11366W        W71111  15.604  20.530  11.505
11367W        W71112  41.851  29.473  13.943
11368W        W71113   9.165   1.409   4.168
11369W        W71114  10.368  23.223   2.194
11370W        W71115  23.595   5.875  14.967
11371W        W71116  32.473  11.799   1.780
11372W        W71117  26.993  32.106  12.558
11373W        W71118  15.673  27.037  12.913
11374W        W71119  29.945  33.091   1.899
11375W        W71120  31.432  41.511   1.759
11376W        W71121  41.436   3.216  14.425
11377W        W71122  15.635  42.011   2.903
11378W        W71123  35.437  20.532  14.854
11379W        W71124  42.940  19.589   9.922
11380W        W71125   7.742  36.030   3.223
11381W        W71126  44.934  30.097   2.708
11382W        W71127  10.729  21.182   0.390
11383W        W71128  41.015  27.582   2.671
11384W        W71129   7.261   3.805  13.444
11385W        W71130  17.153  15.715  11.475
11386W        W71131  39.518  21.254   2.220
11387W        W71132   7.701  18.176   2.200
11388W        W71133   2.271  39.828  11.373
11389W        W71134  24.032  10.754   3.718
11390W        W71135  16.601  16.722   1.371
11391W        W71136  41.931  40.410  12.353
11392W        W71137   3.454  24.032   1.790
11393W        W71138  30.555  10.364  14.956
11394W        W71139  33.919  38.944  13.005
11395W        W71140  30.446   4.943   2.298
11396W        W71141  43.825  37.014   5.081
11397W        W71142  27.581   0.857  11.101
11398W        W71143  33.098  27.554   2.203
11399W        W71144  21.039  36.364  12.983
11400W        W71145  39.855  33.381   2.812
11401W        W71146  18.774  10.376  14.437
11402W        W71147   3.936  28.516   0.415
11403W        W71148  10.308  44.755  13.455
11404W        W71149  19.182   0.987  14.897
11405W        W71150  14.301  30.649   0.806
11406W        W71151  10.295   0.428  13.866
11407W        W71152   6.302  38.051   2.737
11408W        W71153   3.254  41.479  12.554
11409W        W71154   3.728  32.927  10.952
11410W        W71155   4.884  28.437  11.460
11411W        W71156  32.604  35.454  11.382
11412W        W71157   9.813   7.367  10.555
11413W        W71158   4.766  12.810  12.911
11414W        W71159  38.388  18.670   2.399
11415W        W71160  25.561  18.176  13.922
11416W        W71161  44.007  39.942  11.870
11417W        W71162   2.243   8.343   0.479
11418W        W71163  10.214  23.027   3.688
11419W        W71164  44.272   5.805  11.053
11420W        W71165  31.572  31.478  12.468
11421W        W71166  32.979  26.095  12.995
11422W        W71167  22.166   4.391  13.524
11423W        W71168   5.313  36.953   1.295
11424W        W71169   9.810   2.398   2.820
11425W        W71170  33.593   7.776   4.352
11426W        W71171  42.315   9.253   1.738
11427W        W71172  35.915  17.722   2.834
11428W        W71173  31.542  22.556   4.801
11429W        W71174  16.224  21.120  10.641
11430W        W71175  39.464  40.961   2.822
11431W        W71176  27.140  16.303   1.866
11432W        W71177  42.783  38.027  14.483
11433W        W71178   2.739  27.103   3.351
11434W        W71179  17.606  19.756   0.306
11435W        W71180  36.570  22.251   1.279
11436W        W71181   8.256  34.869  11.443
11437W        W71182  25.972  14.152   0.884
11438W        W71183  28.561  43.873  11.076
11439W        W71184  23.647  44.339   3.228
11440W        W71185  39.886  36.417  11.118
11441W        W71186  24.717  34.094   5.230
11442W        W71187   7.881  23.598   1.819
11443W        W71188  31.629  42.941  11.903
11444W        W71189  39.417   0.386  12.929
11445W        W71190  15.260  28.146   2.337
11446W        W71191   3.290  29.961  10.601
11447W        W71192  36.434  39.931  11.891
11448W        W71193  32.007  17.690  10.540
11449W        W71194   0.358  18.605   3.212
11450W        W71195  43.781  20.710   0.398
11451W        W71196  26.955   6.744   0.729
11452W        W71197   9.310  33.557   3.346
11453W        W71198  17.089  12.648  11.506
11454W        W71199  42.793  43.785   4.673
11455W        W71200  23.504  30.531  12.093
11456W        W71201  34.893  17.568   4.661
11457W        W71202  20.564  20.137   3.257
11458W        W71203   5.233  10.190  10.503
11459W        W71204  34.046   3.729  10.612
11460W        W71205  12.299   9.824  10.626
11461W        W71206  22.079  44.840  12.499
11462W        W71207  29.976  20.627   4.329
11463W        W71208  30.617  43.907  14.319
11464W        W71209   1.410  10.823   4.194
11465W        W71210  19.165   9.800   3.256
11466W        W71211  41.505  17.185   4.651
11467W        W71212   8.184  39.825  14.458
11468W        W71213  31.504  34.599   2.730
11469W        W71214  27.065  12.622   4.181
11470W        W71215  36.032  43.010  12.480
11471W        W71216  12.645  11.320  12.571
11472W        W71217  22.220  13.139   2.321
11473W        W71218  27.943  40.940  11.450
11474W        W71219  14.291   3.448  12.977
11475W        W71220   8.185  17.646   2.191
11476W        W71221  26.544   2.894  12.492
11477W        W71222   1.461   1.478   4.704
11478W        W71223   9.670  32.053   5.139
11479W        W71224  15.208   2.743   2.739
11480W        W71225  20.767  39.958  12.347
11481W        W71226  31.042  12.132   1.743
11482W        W71227  30.483  21.215   4.136
11483W        W71228  28.160  35.367  14.777
11484W        W71229  19.661  40.423  14.369
11485W        W71230  11.170   6.710  14.427
11486W        W71231  44.822  31.102   3.823
11487W        W71232  32.403  28.641  12.448
11488W        W71233   5.233  17.163   4.346
11489W        W71234   3.818  32.448  13.966
11490W        W71235  33.408  16.226  14.458
11491W        W71236  27.492   9.849  13.948
11492W        W71237  37.872  28.029  10.950
11493W        W71238  41.443  19.267  11.947
11494W        W71239  14.659   8.374   2.227
11495W        W71240  25.173  16.752  13.981
11496W        W71241  34.871  42.926  12.009
11497W        W71242  31.458  28.610   2.212
11498W        W71243   7.407  25.053  14.876
11499W        W71244  30.091  23.717  11.439
11500W        W71245  13.614   4.723  10.642
11501W        W71246  19.266  38.395   0.356
11502W        W71247  44.832  33.586  11.122
11503W        W71248  40.967  25.504   0.452
11504W        W71249  37.553  18.273  10.076
11505W        W71250  17.130  39.511  14.285
11506W        W71251  32.512  19.648   3.639
11507W        W71252  26.999   2.351   2.775
11508W        W71253  24.591   8.367  10.561
11509W        W71254  14.655   2.817   1.281
11510W        W71255   2.472  40.544  11.571
11511W        W71256  38.460  16.707  10.893
11512W        W71257  15.823  39.835  11.562
11513W        W71258  25.026  23.103  13.794
11514W        W71259  39.891   7.332  14.473
11515W        W71260  28.129  37.344  14.839
11516W        W71261  44.852  12.764   3.305
11517W        W71262   1.463  20.250  13.848
11518W        W71263  12.218   3.874   1.438
11519W        W71264  10.685  19.558   4.658
11520W        W71265  37.041   7.284   2.239
11521W        W71266  30.987  15.278  13.003
11522W        W71267  30.134  35.014  14.401
11523W        W71268  11.837  17.105   5.255
11524W        W71269  25.123  10.672  12.914
11525W        W71270  28.020  44.298   5.094
11526W        W71271  27.136  14.793  13.883
11527W        W71272  18.552   1.374   0.862
11528W        W71273   8.891  27.502  11.909
11529W        W71274  34.018  42.981  13.472
11530W        W71275  25.116  42.430   2.848
11531W        W71276  41.312  24.217   4.189
11532W        W71277  38.004   4.233   2.198
11533W        W71278  32.993  33.879   3.729
11534W        W71279  11.204  43.282  14.009
11535W        W71280  40.476   1.404   4.609
11536W        W71281  13.121   7.825  13.499
11537W        W71282  37.053  43.887   1.356
11538W        W71283  20.267  21.623   0.757
11539W        W71284  34.984   6.306  12.445
11540W        W71285   1.841   2.225   2.844
11541W        W71286  27.030   8.840   4.165
11542W        W71287   8.704  22.602  13.014
11543W        W71288   4.845  25.677   1.787
11544W        W71289   5.400  22.698  10.105
11545W        W71290  36.897  19.253   3.323
11546W        W71291  10.274  38.547   2.383
11547W        W71292   9.776  39.330  12.856
11548W        W71293  22.610  21.524  10.623
11549W        W71294  40.307  10.366   4.806
11550W        W71295   6.739  32.414  13.408
11551W        W71296  14.290  29.503   3.756
11552W        W71297  20.235  43.438   2.285
11553W        W71298   1.387   3.377   1.933
11554W        W71299  36.448  43.012  12.900
11555W        W71300  22.549  28.617   3.329
11556W        W71301  20.237  24.164  13.863
11557W        W71302  26.132  30.059   1.902
11558W        W71303  41.302   1.359   4.270
11559W        W71304  34.597  43.974   0.302
11560W        W71305   1.420  40.512   3.250
11561W        W71306  32.132  36.978  12.394
11562W        W71307  33.042  38.511  11.588
11563W        W71308  25.560   0.415   0.336
11564W        W71309   1.425   9.306   1.228
11565W        W71310  35.994   8.675   1.239
11566W        W71311  31.439  14.612   1.903
11567W        W71312   2.412   9.351   4.759
11568W        W71313  41.901   8.366   2.337
11569W        W71314  31.501  43.773  14.801
11570W        W71315   0.863   5.359  10.416
11571W        W71316  12.805  42.403   1.280
11572W        W71317   3.752  40.919   2.707
11573W        W71318  31.551   0.947  13.926
11574W        W71319  19.681   7.901  12.915
11575W        W71320  30.111  41.036  11.513
11576W        W71321  41.902  43.847   2.285
11577W        W71322  41.347   4.712  11.037
11578W        W71323  10.150   0.838  12.489
11579W        W71324  11.227  11.167  14.460
11580W        W71325  39.886  37.031   4.220
11581W        W71326  33.943  26.175   1.244
11582W        W71327  23.551  10.170  13.840
11583W        W71328   1.429  28.988   2.250
11584W        W71329   2.332  15.799   3.360
11585W        W71330  33.386   1.977   3.341
11586W        W71331  10.714   1.792   1.316
11587W        W71332   2.722  20.655   4.133
11588W        W71333  16.093  22.623   0.806
11589W        W71334  34.597  40.389   0.851
11590W        W71335  34.931  11.251   4.651
11591W        W71336  19.676   9.169   0.882
11592W        W71337  30.469  44.974   4.134
11593W        W71338  13.207   7.875   4.276
11594W        W71339  23.024  24.643   1.309
11595W        W71340  37.350  21.527   0.728
11596W        W71341   2.788  30.114  13.460
11597W        W71342   9.882   1.453  12.864
11598W        W71343   6.876  40.843   4.298
11599W        W71344  35.951  43.275  14.867
11600W        W71345  41.934  20.628  10.958
11601W        W71346   8.395  44.905   2.312
11602W        W71347  33.099  44.475   1.768
11603W        W71348  36.850  32.428   2.385
11604W        W71349   0.815  11.191  12.064
11605W        W71350  33.944  31.053  13.494
11606W        W71351  21.145  37.878  12.357
11607W        W71352  10.207  37.964   1.876
11608W        W71353  39.857  10.783  10.468
11609W        W71354  44.999  30.160  14.292
11610W        W71355  30.044   0.447   2.898
11611W        W71356  12.225   0.961   0.930
11612W        W71357  28.530   0.252   2.893
11613W        W71358  44.946  41.491  12.876
11614W        W71359  33.614  32.064   1.268
11615W        W71360  43.998  31.544   9.453
11616W        W71361  16.593  44.939   4.350
11617W        W71362  16.687  37.088   4.725
11618W        W71363   9.669   2.881  14.472
11619W        W71364  26.138  29.510  14.353
11620W        W71365  27.136  17.248   1.284
11621W        W71366  20.153  19.123  11.578
11622W        W71367  37.392  18.231   2.194
11623W        W71368  28.991  10.337  14.861
11624W        W71369   2.320  21.130  10.632
11625W        W71370   8.783   6.851   1.715
11626W        W71371  37.475   1.737   9.977
11627W        W71372  34.090  32.432   2.894
11628W        W71373  16.741   9.851   1.832
11629W        W71374  25.092  19.620   2.268
11630W        W71375  38.857  28.123   2.333
11631W        W71376  10.756  32.961   4.308
11632W        W71377  43.287  20.265   4.753
11633W        W71378  10.151  26.168  14.501
11634W        W71379   5.780   5.842   3.369
11635W        W71380  28.005   9.217   0.267
11636W        W71381  33.452  11.240  11.072
11637W        W71382  42.504   8.817  14.466
11638W        W71383  21.586  18.062   1.826
11639W        W71384  39.905  38.485  11.994
11640W        W71385  15.760  22.019  11.503
11641W        W71386   7.881  13.238   2.839
11642W        W71387  43.300  12.846   0.385
11643W        W71388   1.966  36.538  14.430
11644W        W71389  13.822  37.959   4.705
11645W        W71390   8.292   2.238   3.362
11646W        W71391  17.070  11.762   5.258
11647W        W71392  19.045   9.743   3.759
11648W        W71393  22.623  19.194   2.213
11649W        W71394   1.880  37.359  13.899
11650W        W71395   1.934   8.681   3.746
11651W        W71396  39.369  27.189   4.267
11652W        W71397  22.586  44.823  13.307
11653W        W71398  33.500  22.699  12.031
11654W        W71399   0.425  14.746  12.077
11655W        W71400   3.384  14.207   1.842
11656W        W71401  30.971  16.225   4.119
11657W        W71402  14.098  13.288  10.938
11658W        W71403  38.969  21.165   3.286
11659W        W71404  41.915   1.893  12.851
11660W        W71405  19.059  21.242   4.668
11661W        W71406  26.162  28.669  14.494
11662W        W71407  21.069  23.211   0.428
11663W        W71408  21.674   4.906  10.558
11664W        W71409  41.950   9.853   1.429
11665W        W71410  42.321  18.052  11.413
11666W        W71411  34.967  31.480   3.209
11667W        W71412   5.295   1.413   3.266
11668W        W71413   2.333  26.958  13.896
11669W        W71414  19.716  19.680  12.420
11670W        W71415  16.804  40.970  14.762
11671W        W71416  23.112  11.127  13.547
11672W        W71417  13.763  14.835   2.831
11673W        W71418  12.647   0.355   2.742
11674W        W71419   9.838   4.826  10.512
11675W        W71420  33.606  14.212  10.932
11676W        W71421  25.489  11.860  13.885
11677W        W71422  13.754  22.565   1.780
11678W        W71423  28.035  29.435   3.385
11679W        W71424  34.511  15.662  14.861
11680W        W71425  37.405  19.644  12.411
11681W        W71426  16.104  14.734   3.311
11682W        W71427  39.842  11.321   0.907
11683W        W71428   0.489   5.238   1.265
11684W        W71429   0.862  16.748  14.414
11685W        W71430  40.495  24.552  11.952
11686W        W71431  23.654  30.643   5.247
11687W        W71432  40.947  26.459   1.768
11688W        W71433  27.182  37.987   2.739
11689W        W71434  15.188   4.363  13.310
11690W        W71435  40.548  16.813  10.461
11691W        W71436  25.054  27.952  11.009
11692W        W71437  20.557  36.503  13.823
11693W        W71438  25.683   7.754   2.180
11694W        W71439  33.599  25.708  14.023
11695W        W71440  34.964  30.113   1.847
11696W        W71441   9.374  32.021   4.649
11697W        W71442  14.327  23.183  11.957
11698W        W71443  34.448  10.224  13.410
11699W        W71444  43.801  35.859   4.707
11700W        W71445  25.615  27.024   2.179
11701W        W71446  33.883   8.278  10.903
11702W        W71447  36.548  31.089  14.367
11703W        W71448  19.062   3.321  14.762
11704W        W71449   8.361   5.921   2.230
11705W        W71450  11.801  18.663   4.335
11706W        W71451  38.493  22.251  14.433
11707W        W71452  16.302  34.042   0.337
11708W        W71453  38.494  32.978   2.343
11709W        W71454  15.110   9.381  13.981
11710W        W71455   9.343   0.332  14.844
11711W        W71456  30.622  36.940   2.697
11712W        W71457  43.270   0.319  12.367
11713W        W71458  40.887  14.682   3.183
11714W        W71459  36.517  26.513  13.407
11715W        W71460  19.266   5.800  14.924
11716W        W71461  39.996  14.275  13.517
11717W        W71462   8.239  31.143   3.165
11718W        W71463   2.917  42.988  14.812
11719W        W71464  40.334  32.409  14.465
11720W        W71465  23.718  36.955   1.303
11721W        W71466  31.012  13.747   1.212
11722W        W71467  38.824   5.737   0.875
11723W        W71468  42.346  30.045  12.580
11724W        W71469   0.339  41.322   4.335
11725W        W71470  17.675  18.783   1.327
11726W        W71471  22.059   9.172   1.271
11727W        W71472  29.174  13.654  11.409
11728W        W71473  32.070  14.243  14.913
11729W        W71474  27.503  17.123   2.772
11730W        W71475  40.907   5.904   0.940
11731W        W71476  31.461   1.840  11.407
11732W        W71477  42.797  14.624   2.209
11733W        W71478  29.499   0.848  11.437
11734W        W71479  24.565  42.464  12.893
11735W        W71480   8.797  10.220  12.897
11736W        W71481  17.598  20.049   0.360
11737W        W71482  25.595  24.596   1.435
11738W        W71483  42.917  24.604  11.929
11739W        W71484  36.922  17.573  13.039
11740W        W71485  20.585  25.127   3.376
11741W        W71486  37.516   3.283   1.726
11742W        W71487   4.392  36.588   0.268
11743W        W71488  23.082  13.107  13.501
11744W        W71489   3.436   7.178   1.741
11745W        W71490  34.892  17.640  11.076
11746W        W71491  23.722  33.959  11.971
11747W        W71492  25.484  26.083  12.578
11748W        W71493   5.766  19.123  11.922
11749W        W71494  36.446  43.456   3.650
11750W        W71495   2.256  21.199   1.424
11751W        W71496  22.664  27.689  10.134
11752W        W71497  32.404  33.428  14.872
11753W        W71498  30.986  39.991   3.247
11754W        W71499  28.157  21.589   1.803
11755W        W71500  38.505  36.372  13.463
11756W        W71501  19.041  43.270  13.496
11757W        W71502  20.260   7.213  11.393
11758W        W71503  37.991   6.230  10.093
11759W        W71504  25.711   2.306  12.387
11760W        W71505   5.378  40.823   3.226
11761W        W71506   9.734  42.920   2.817
11762W        W71507  35.493   4.340   4.837
11763W        W71508  33.569  11.831   0.477
11764W        W71509  23.534  33.109   2.728
11765W        W71510  14.794  22.652   3.361
11766W        W71511  42.292   1.355   2.223
11767W        W71512  36.406  40.902   0.293
11768W        W71513  35.454  18.209  13.819
11769W        W71514  31.027  32.075   5.308
11770W        W71515  42.526  39.941  11.415
11771W        W71516  19.635  41.900  13.991
11772W        W71517  42.402  23.176   2.399
11773W        W71518  31.507   7.826   2.766
11774W        W71519  27.611  32.100   2.379
11775W        W71520  22.047  27.518   2.416
11776W        W71521  37.032   3.857  10.927
11777W        W71522  43.780   1.242  11.954
11778W        W71523  44.792  13.728  12.368
11779W        W71524  40.409   4.783   5.239
11780W        W71525   7.196  43.824   0.881
11781W        W71526  29.618   7.685   2.879
11782W        W71527  35.501  19.276   0.956
11783W        W71528  27.597   0.261  10.423
11784W        W71529  38.487  26.131  13.827
11785W        W71530  35.860  41.370   0.355
11786W        W71531  27.147  14.337   2.234
11787W        W71532  18.143  33.877  13.468
11788W        W71533  38.570  13.702  13.342
11789W        W71534  19.058  26.636  12.411
11790W        W71535  21.060  25.035  13.987
11791W        W71536  10.694  12.663   3.202
11792W        W71537  13.773  36.845  11.962
11793W        W71538  35.414  43.411  12.501
11794W        W71539  27.608  22.104  11.064
11795W        W71540  43.869  27.446  10.893
11796W        W71541  19.177  38.927   3.796
11797W        W71542  24.508  12.703   2.891
11798W        W71543  17.573  11.697  10.562
11799W        W71544  37.968   0.809   1.363
11800W        W71545  28.098  26.542  11.072
11801W        W71546  16.636  29.140  12.571
11802W        W71547   2.462  32.020  11.568
11803W        W71548  16.142  21.082   0.381
11804W        W71549  24.125   5.377  11.012
11805W        W71550   9.654  10.712  12.004
11806W        W71551  38.826  32.909   4.792
11807W        W71552  15.778   5.260   3.688
11808W        W71553   3.311  20.644  12.984
11809W        W71554  18.686  32.988  10.975
11810W        W71555  35.414  26.996   1.823
11811W        W71556  44.784  34.918  14.290
11812W        W71557  44.331   4.698   4.788
11813W        W71558  10.233  30.981  12.953
11814W        W71559  42.332  39.038   1.872
11815W        W71560  18.759  43.835  10.437
11816W        W71561  23.163  32.080  12.032
11817W        W71562  22.722  38.826   2.316
11818W        W71563  11.687   6.710   3.350
11819W        W71564  16.636  22.244  12.013
11820W        W71565  20.525  28.966  10.419
11821W        W71566  28.973  24.076   0.780
11822W        W71567  11.318  34.431  14.031
11823W        W71568  28.943   5.705  12.919
11824W        W71569  43.374  21.231   0.366
11825W        W71570  33.610  25.572   0.290
11826W        W71571  15.191  31.991  14.848
11827W        W71572   5.689  32.624  13.456
11828W        W71573  18.622  31.046   1.841
11829W        W71574  13.835  20.745   2.758
11830W        W71575  11.842  12.851  11.909
11831W        W71576  17.568   6.203   3.693
11832W        W71577  28.990  10.376  13.956
11833W        W71578  22.027   6.760  11.980
11834W        W71579  11.654  34.514   4.266
11835W        W71580  37.870  22.506  10.573
11836W        W71581  35.104  44.318  12.430
11837W        W71582  44.342   3.769  13.062
11838W        W71583  15.617  27.585   2.842
11839W        W71584   1.735  12.844  13.871
11840W        W71585  22.184  42.855  11.021
11841W        W71586   8.240  28.067   4.685
11842W        W71587   7.174  19.750   4.682
11843W        W71588  44.487   6.324  14.495
11844W        W71589   4.273  20.603   0.924
11845W        W71590   7.891  15.087   2.223
11846W        W71591   1.378  12.193   2.350
11847W        W71592   2.885  33.614   4.202
11848W        W71593  39.840   8.806  11.554
11849W        W71594  33.619  28.172   4.283
11850W        W71595  42.807  29.654   5.709
11851W        W71596  38.880  31.608  13.437
11852W        W71597  38.987  40.417   3.279
11853W        W71598  23.626  28.940  12.423
11854W        W71599  38.876  40.953  14.322
11855W        W71600  11.163   4.373   1.738
11856W        W71601  21.105   0.317   0.416
11857W        W71602  34.924  43.371  14.424
11858W        W71603  20.686  37.007  14.884
11859W        W71604  33.510   4.805  12.093
11860W        W71605  41.327   4.726   3.371
11861W        W71606  18.770   7.302  12.049
11862W        W71607  35.584  27.170  14.002
11863W        W71608  27.480  30.656   9.989
11864W        W71609  35.368   3.797   0.250
11865W        W71610  29.566  36.586   1.829
11866W        W71611   0.866  20.110   4.790
11867W        W71612  15.708  34.490  14.493
11868W        W71613  34.940   2.448   0.374
11869W        W71614   0.850   5.220  14.509
11870W        W71615  22.027   0.272   2.704
11871W        W71616   6.722   7.370  14.442
11872W        W71617  42.855  15.285   0.892
11873W        W71618  32.495  26.143  13.795
11874W        W71619   5.246  18.660  12.864
11875W        W71620  13.112  31.897   1.283
11876W        W71621   2.877  24.571   3.815
11877W        W71622  33.017  19.168  13.519
11878W        W71623  37.552  10.803   4.154
11879W        W71624  44.361   0.390   4.599
11880W        W71625  41.962  37.890  12.026
11881W        W71626  34.481   6.804  12.995
11882W        W71627  12.823  27.946   2.184
11883W        W71628  24.508   6.259   2.861
11884W        W71629  40.441  23.630  14.766
11885W        W71630  26.671  38.465  12.046
11886W        W71631   5.792   6.426  11.095
11887W        W71632  10.354  13.763  12.544
11888W        W71633  30.968  19.149   1.361
11889W        W71634  28.143   4.343  10.487
11890W        W71635  28.597  24.497  13.962
11891W        W71636  21.069  20.595   2.705
11892W        W71637   8.814  19.700  11.058
11893W        W71638   6.362  28.610  13.396
11894W        W71639  36.913  28.171   0.946
11895W        W71640   7.293  36.468  14.907
11896W        W71641  13.283   5.845   3.368
11897W        W71642  11.837   7.763  13.839
11898W        W71643   9.269   7.817  11.905
11899W        W71644  31.952  38.491  11.565
11900W        W71645   7.212  40.541   2.738
11901W        W71646  16.670   2.927  13.832
11902W        W71647   2.336  44.427  14.386
11903W        W71648  25.107  12.635   1.440
11904W        W71649  43.513  15.821  11.861
11905W        W71650  15.128  10.667  12.018
11906W        W71651   0.749  14.186  14.310
11907W        W71652  13.834  10.256  14.932
11908W        W71653  29.615   2.838  11.862
11909W        W71654  17.070  19.569  14.907
11910W        W71655  28.519  19.673   4.335
11911W        W71656   3.434  35.403  10.552
11912W        W71657  27.044  32.577   1.226
11913W        W71658  40.934   9.269  13.916
11914W        W71659  13.118  28.999  12.566
11915W        W71660  14.277  44.933  10.445
11916W        W71661  20.728  34.038  14.974
11917W        W71662  38.384  43.860   0.869
11918W        W71663  43.372   0.809  11.016
11919W        W71664  17.799   5.706  13.336
11920W        W71665  25.091  26.531  10.990
11921W        W71666  11.338  29.984   0.468
11922W        W71667  13.725  43.296  11.916
11923W        W71668  10.373  40.933   1.408
11924W        W71669  38.074  24.078  14.276
11925W        W71670   4.742  19.724  10.599
11926W        W71671  38.324  29.514  11.544
11927W        W71672   1.901  23.198   1.697
11928W        W71673  30.651   7.856  11.534
11929W        W71674  26.558  13.814  14.453
11930W        W71675  20.698  33.102   1.312
11931W        W71676  10.718  42.849  13.378
11932W        W71677  33.886  21.658  11.085
11933W        W71678  32.893  40.842  12.068
11934W        W71679   6.336   7.767  12.550
11935W        W71680  36.976   4.327   2.896
11936W        W71681  12.649  18.200   0.729
11937W        W71682  17.138  27.640   4.814
11938W        W71683  11.300   8.816  14.765
11939W        W71684  29.431  23.700  10.155
11940W        W71685  39.932  16.782   3.738
11941W        W71686  31.931  14.693   1.907
11942W        W71687  20.100  14.757  10.643
11943W        W71688  17.576  33.543  13.005
11944W        W71689  13.163  29.527  14.812
11945W        W71690   7.668   5.310  11.961
11946W        W71691  34.106  21.632   5.806
11947W        W71692  30.624  11.151  11.113
11948W        W71693  28.987  43.338  12.547
11949W        W71694  31.561  40.038  11.521
11950W        W71695   7.898  10.245   4.233
11951W        W71696  44.893   0.961  11.021
11952W        W71697   8.682  18.646  14.847
11953W        W71698  28.552   5.252  10.411
11954W        W71699  40.369  36.580   4.260
11955W        W71700  13.834  22.562   3.149
11956W        W71701   7.325   8.773  11.992
11957W        W71702  10.213  28.548   0.912
11958W        W71703  24.675  30.567  13.927
11959W        W71704  39.419  27.631  14.980
11960W        W71705  24.647  22.622  13.983
11961W        W71706   2.453  19.272   2.803
11962W        W71707  44.808  20.241  14.769
11963W        W71708   9.817  27.629   4.274
11964W        W71709  36.942  27.475   2.895
11965W        W71710  13.662  36.365   2.844
11966W        W71711  37.395  36.462  10.514
11967W        W71712  26.091  24.160  11.405
11968W        W71713   1.882  33.511  12.462
11969W        W71714  17.601  42.355   2.398
11970W        W71715  39.957  21.052  14.886
11971W        W71716  20.184  28.551  14.376
11972W        W71717  14.781  20.260   4.654
11973W        W71718  16.160  37.489  13.999
11974W        W71719  37.431   6.385   3.703
11975W        W71720  18.783  36.053  14.371
11976W        W71721  24.524  29.980   2.208
11977W        W71722  10.791  21.744  12.923
11978W        W71723  32.434  31.127  12.998
11979W        W71724  30.911  32.444   2.716
11980W        W71725  16.674   7.801   2.197
11981W        W71726  31.111  11.189  14.817
11982W        W71727   9.706  12.652   0.419
11983W        W71728  25.665  30.142  12.955
11984W        W71729  30.104  43.841   0.387
11985W        W71730  35.899  32.424  12.972
11986W        W71731  27.980   5.225   3.688
11987W        W71732  29.485   6.876   3.242
11988W        W71733  34.426   3.246   0.329
11989W        W71734  16.600   6.319   3.345
11990W        W71735  15.591  25.602   1.299
11991W        W71736  40.326  11.237  12.406
11992W        W71737  29.039  39.452  14.826
11993W        W71738  30.162   0.988   3.162
11994W        W71739  35.388  11.305  14.835
11995W        W71740  31.604   7.782   1.752
11996W        W71741  32.393  20.065  13.357
11997W        W71742  25.561  14.254   0.940
11998W        W71743  26.458   7.709  14.973
11999W        W71744  17.274   2.751   3.304
12000W        W71745  33.123   6.721   2.897
12001W        W71746  12.833  33.529  14.894
12002W        W71747  41.962  37.023   0.376
12003W        W71748  21.140  36.971  10.539
12004W        W71749  24.124  39.438  11.999
12005W        W71750  31.619  32.941   3.182
12006W        W71751   2.295  25.981   4.114
12007W        W71752  38.378   0.888  13.376
12008W        W71753   1.419  42.297   2.867
12009W        W71754  29.918  21.677  11.126
12010W        W71755  37.440  10.198   3.252
12011W        W71756  22.521  24.688   0.253
12012W        W71757  33.036  15.325  14.818
12013W        W71758  21.541  25.081   4.340
12014W        W71759  39.898  36.867   0.782
12015W        W71760  31.591  40.946  11.965
12016W        W71761  21.698   2.448   4.636
12017W        W71762  10.318   8.304   1.343
12018W        W71763  29.512  41.424   3.806
12019W        W71764   9.843  20.195  14.854
12020W        W71765  42.300  39.978   1.836
12021W        W71766  40.329  44.850   4.168
12022W        W71767  39.383  10.232  11.545
12023W        W71768  44.388  25.622  10.517
12024W        W71769  35.406  32.895   0.483
12025W        W71770   7.870  35.986   2.237
12026W        W71771  26.465  41.941  10.418
12027W        W71772   3.371  42.886  11.018
12028W        W71773  24.186   1.866  11.955
12029W        W71774  30.618  36.991   1.927
12030W        W71775  32.117  34.073   0.296
12031W        W71776  23.183   4.325   1.364
12032W        W71777  20.527  15.620   0.788
12033W        W71778   4.362   2.413  11.428
12034W        W71779  36.496  13.131   1.227
12035W        W71780   6.400   6.301  14.289
12036W        W71781  25.520  23.051   4.798
12037W        W71782  10.285  30.438   1.434
12038W        W71783   7.271  11.664   0.767
12039W        W71784  15.088  43.500  11.572
12040W        W71785  43.443  36.486  13.950
12041W        W71786  13.209  13.338  12.541
12042W        W71787  36.446  41.894  13.044
12043W        W71788  19.204   1.241   2.354
12044W        W71789   3.945  27.446  12.987
12045W        W71790   5.331  17.705   4.697
12046W        W71791  10.720   1.268  14.911
12047W        W71792  37.036   0.260   4.294
12048W        W71793  24.201  15.823  14.007
12049W        W71794  15.668  30.502   2.203
12050W        W71795  21.235  18.240   2.813
12051W        W71796  12.300   3.763  14.483
12052W        W71797  28.534  24.621  13.539
12053W        W71798  23.502  21.115  11.066
12054W        W71799  43.951   7.333  14.358
12055W        W71800  33.097  32.431   2.704
12056W        W71801   5.247   4.835   0.735
12057W        W71802  33.945  28.643   0.967
12058W        W71803  36.078  29.945   4.336
12059W        W71804  21.246   8.778   4.707
12060W        W71805   7.324  35.549   4.630
12061W        W71806  21.667   3.293   0.731
12062W        W71807   1.347  38.063   9.473
12063W        W71808  30.049   3.446  13.378
12064W        W71809  15.325  34.966   2.867
12065W        W71810  20.065   4.861   1.355
12066W        W71811  34.877   8.863   4.652
12067W        W71812   5.430  30.958   1.899
12068W        W71813   9.303  37.404  11.023
12069W        W71814   5.857   1.319  13.956
12070W        W71815  23.726   8.799   4.641
12071W        W71816  17.276  24.504  11.482
12072W        W71817   2.443  41.989  10.914
12073W        W71818  16.278  11.774   3.365
12074W        W71819  26.610   1.308   3.686
12075W        W71820  38.958  30.052  12.453
12076W        W71821  24.633   8.890   1.776
12077W        W71822   0.897  25.070   4.721
12078W        W71823  28.464  26.013   1.411
12079W        W71824  25.057  22.582  12.087
12080W        W71825  27.510  44.801  11.494
12081W        W71826  17.766  18.720  13.347
12082W        W71827  15.229  25.646   3.292
12083W        W71828  43.885  31.598   2.732
12084W        W71829  31.003  18.185   2.179
12085W        W71830   2.748  29.010  13.365
12086W        W71831   3.370   8.830  13.535
12087W        W71832  26.994  15.677  10.630
12088W        W71833  28.965  15.178  11.115
12089W        W71834  38.903   5.416  13.430
12090W        W71835  33.096   2.751   3.729
12091W        W71836  40.441  31.943   0.885
12092W        W71837  22.062  24.519  11.382
12093W        W71838  15.744  21.577   1.725
12094W        W71839   8.887  13.301   0.770
12095W        W71840  22.653   9.248  11.440
12096W        W71841   3.955  27.958   0.851
12097W        W71842   8.735  13.293   3.260
12098W        W71843   1.404  14.200  10.405
12099W        W71844   6.205  25.639  11.057
12100W        W71845  13.677   5.809   3.194
12101W        W71846  36.946  14.221  13.003
12102W        W71847   6.240  12.698   3.721
12103W        W71848  27.957  25.119  11.855
12104W        W71849  24.541   3.730  13.008
12105W        W71850  19.212  28.074  11.496
12106W        W71851  20.758  38.863   2.670
12107W        W71852  21.135  29.529   1.864
12108W        W71853  20.631  43.817   0.441
12109W        W71854  44.956  33.478   3.689
12110W        W71855  32.508  12.116   1.290
12111W        W71856  26.030  27.628  14.799
12112W        W71857  24.572  16.073   1.815
12113W        W71858  24.487   8.755   2.218
12114W        W71859  24.588  27.487  13.051
12115W        W71860   6.370  42.496   2.804
12116W        W71861  28.930  27.652  14.463
12117W        W71862  35.062  30.909   0.767
12118W        W71863   6.290  16.666   0.365
12119W        W71864   3.802  38.044   5.153
12120W        W71865  41.328  24.555  14.505
12121W        W71866  32.613  40.340   0.890
12122W        W71867  15.818  42.798  14.311
12123W        W71868  33.104   6.687   0.430
12124W        W71869  15.101  40.844  11.498
12125W        W71870   3.278   1.269   0.455
12126W        W71871  26.129  42.964   3.165
12127W        W71872  24.590   6.872  11.046
12128W        W71873  11.670   3.850  10.550
12129W        W71874  42.402  28.099  14.919
12130W        W71875   8.875  20.232   2.288
12131W        W71876  33.441  28.080  14.916
12132W        W71877   2.431  30.926  12.832
12133W        W71878  20.206  40.341   3.317
12134W        W71879  38.446  23.084  14.509
12135W        W71880  15.146   0.903   1.781
12136W        W71881  44.990  37.458   1.869
12137W        W71882  34.034  25.496   1.290
12138W        W71883  11.797  39.015  11.585
12139W        W71884  19.091  15.154  12.348
12140W        W71885   0.481  33.072   1.397
12141W        W71886  16.626   4.392   1.755
12142W        W71887  17.297  24.649  11.961
12143W        W71888   1.286  44.298  14.349
12144W        W71889  39.062  21.178  10.598
12145W        W71890  34.992   3.745   0.963
12146W        W71891  15.731  13.266  10.989
12147W        W71892  17.157  42.384   4.267
12148W        W71893   2.781  22.644   0.864
12149W        W71894  21.694  33.989   4.258
12150W        W71895  39.829  32.897  12.023
12151W        W71896  38.912  24.569   0.411
12152W        W71897  40.809   0.472   1.750
12153W        W71898   8.771  44.787   2.291
12154W        W71899  21.535  29.629   1.421
12155W        W71900  30.993  18.145  14.506
12156W        W71901  33.451  34.452  12.892
12157W        W71902   2.966  16.207  11.064
12158W        W71903  40.828  13.177  11.989
12159W        W71904  42.997  20.552   3.342
12160W        W71905  30.112  28.528  13.352
12161W        W71906  17.195  41.402   3.665
12162W        W71907  28.021  19.757  14.772
12163W        W71908  27.070  16.698   2.838
12164W        W71909  29.630   8.737  11.382
12165W        W71910  20.264  41.978   4.800
12166W        W71911   6.894  16.773   3.255
12167W        W71912   9.325  40.507  13.317
12168W        W71913  35.526  22.243  10.893
12169W        W71914  10.753   3.286  11.038
12170W        W71915  13.273  39.885  12.432
12171W        W71916  29.070  22.223   1.929
12172W        W71917  31.440   6.385  14.331
12173W        W71918  17.250  13.824   3.294
12174W        W71919  28.117   0.414  10.941
12175W        W71920  17.245   3.278  10.435
12176W        W71921   9.685  25.978   2.404
12177W        W71922  28.947  29.652  13.896
12178W        W71923  23.023  37.921   0.435
12179W        W71924  18.264  24.063   2.301
12180W        W71925  42.984  29.553   0.445
12181W        W71926   3.877  24.674  12.062
12182W        W71927  30.061  24.668  12.420
12183W        W71928  26.093   4.826   4.806
12184W        W71929  38.381   2.345  13.543
12185W        W71930  34.483  21.102   0.843
12186W        W71931   3.855  33.414  12.095
12187W        W71932  20.707   0.945   0.768
12188W        W71933  42.497  23.548  10.428
12189W        W71934  29.465   3.796  14.882
12190W        W71935  26.488  38.562  13.865
12191W        W71936   3.363  27.601  13.937
12192W        W71937   6.325   0.266  13.537
12193W        W71938  17.664  37.944  13.859
12194W        W71939  39.355  41.409   2.768
12195W        W71940  23.494  39.920  13.818
12196W        W71941  28.598   3.404  13.425
12197W        W71942   8.398  11.191  13.958
12198W        W71943  18.051  44.438  12.512
12199W        W71944   7.911  17.747  10.915
12200W        W71945  35.387  14.821  12.487
12201W        W71946  18.242  37.514   1.797
12202W        W71947   8.353  13.705   0.380
12203W        W71948  44.486  39.980   3.350
12204W        W71949  36.852  13.811  14.782
12205W        W71950  27.596  19.593  10.962
12206W        W71951  12.798  26.127  12.059
12207W        W71952  26.127  31.911   0.931
12208W        W71953   0.428  31.432  11.499
12209W        W71954  27.631  19.756  13.433
12210W        W71955  29.167  13.288   4.155
12211W        W71956  27.650  25.639   1.735
12212W        W71957   4.859   1.288   2.196
12213W        W71958   6.715   1.963   4.120
12214W        W71959  18.088  21.742   3.661
12215W        W71960  20.195  41.838  12.041
12216W        W71961  16.624  27.672  13.369
12217W        W71962  30.450  14.795  14.402
12218W        W71963  14.770  36.475   0.795
12219W        W71964  27.618  17.061  14.328
12220W        W71965  42.490  40.436   1.784
12221W        W71966  30.551  26.106   2.864
12222W        W71967  33.617  42.903   1.797
12223W        W71968  24.617  16.696   9.550
12224W        W71969  14.195  35.027  13.365
12225W        W71970  21.575   3.279  13.495
12226W        W71971  19.560  27.163   1.431
12227W        W71972  20.588  16.089   2.898
12228W        W71973  26.097  14.650  12.474
12229W        W71974   6.740  35.446  10.982
12230W        W71975  39.969   0.908  12.365
12231W        W71976  31.063  42.778   4.290
12232W        W71977  42.526  38.395  11.895
12233W        W71978  43.835  20.051  12.088
12234W        W71979   1.900  11.830  13.906
12235W        W71980  21.656  13.149   2.387
12236W        W71981   3.317  33.051  13.027
12237W        W71982  40.455  22.663  14.919
12238W        W71983  17.692  39.003   2.300
12239W        W71984  22.207  18.076  12.057
12240W        W71985   1.892  12.786   3.199
12241W        W71986  27.466  17.587  13.850
12242W        W71987  16.176  18.113   0.453
12243W        W71988  37.041  42.453  12.837
12244W        W71989  17.707  37.494  11.123
12245W        W71990  42.331   7.710   2.866
12246W        W71991  44.476   9.236  12.416
12247W        W71992   2.416  21.100  11.868
12248W        W71993  32.498  35.934   2.848
12249W        W71994  31.954  14.590   4.274
12250W        W71995  15.315  28.940   2.403
12251W        W71996  28.502  44.431   2.419
12252W        W71997   1.363  21.621  13.359
12253W        W71998   0.982  10.864  14.418
12254W        W71999  32.098   0.446   9.952
12255W        W72000  32.992  18.141  10.063
12256W        W72001  12.294   1.912   3.865
12257W        W72002  34.596  41.964  14.935
12258W        W72003   2.814  32.512  12.898
12259W        W72004  16.704  41.952  10.480
12260W        W72005   2.421   1.889   4.266
12261W        W72006  38.905  17.796  11.866
12262W        W72007  11.319  18.729   1.835
12263W        W72008  34.104   6.238   1.728
12264W        W72009  10.865  10.815   3.748
12265W        W72010  30.536  27.575   0.868
12266W        W72011  31.932   1.853   1.710
12267W        W72012  20.641   9.831  10.636
12268W        W72013  42.015   3.325  10.986
12269W        W72014  17.799  17.218   0.896
12270W        W72015  44.271   1.851   3.338
12271W        W72016  34.011  15.596  14.340
12272W        W72017  26.696  16.165   2.284
12273W        W72018  32.482  44.802  13.899
12274W        W72019   2.867   4.330   2.746
12275W        W72020   0.883   8.164  13.520
12276W        W72021  33.424  14.798   4.251
12277W        W72022  42.310  27.947   2.700
12278W        W72023  39.460  12.795   3.273
12279W        W72024  44.414  43.993   1.380
12280W        W72025  30.058  35.602  14.514
12281W        W72026  13.321  33.124   1.862
12282W        W72027   6.696   5.865  12.462
12283W        W72028  22.563  33.005  13.833
12284W        W72029  34.096   8.230  11.887
12285W        W72030  44.954  41.900   1.435
12286W        W72031   5.229  30.925  13.472
12287W        W72032  39.044  10.375  13.375
12288W        W72033  33.939  30.649  10.527
12289W        W72034  13.609  30.550  11.507
12290W        W72035  43.508  30.925   1.853
12291W        W72036  21.119  32.485  12.833
12292W        W72037  37.381   6.741   1.213
12293W        W72038  16.629   6.855   2.815
12294W        W72039  29.437  41.335  10.146
12295W        W72040  17.670  36.056  11.545
12296W        W72041  39.414   3.918  14.927
12297W        W72042   4.220  12.234  10.562
12298W        W72043   6.778   3.869  12.549
12299W        W72044  38.931  31.924  12.863
12300W        W72045  41.340  10.787   4.714
12301W        W72046   0.493  20.529   3.337
12302W        W72047   0.872   3.902   4.260
12303W        W72048  28.166  23.705   2.789
12304W        W72049   0.943   1.943   2.804
12305W        W72050  12.808   5.739  14.863
12306W        W72051  12.195  34.998   4.240
12307W        W72052  29.600  19.618  12.962
12308W        W72053  24.707  17.777   2.810
12309W        W72054  16.786  28.619   3.866
12310W        W72055  20.630  20.267  13.320
12311W        W72056  43.373  42.414   3.833
12312W        W72057  44.493  13.293  14.837
12313W        W72058  18.229  28.032  11.110
12314W        W72059  17.106  17.201   1.863
12315W        W72060   4.859  36.888   4.649
12316W        W72061   5.862  43.504   3.669
12317W        W72062  11.776  44.432   0.296
12318W        W72063  20.767   9.241  12.921
12319W        W72064   2.333  34.111  13.357
12320W        W72065  11.331  35.561   5.682
12321W        W72066   5.201  40.897   4.714
12322W        W72067  34.426  44.320   1.375
12323W        W72068  39.844   5.274   4.146
12324W        W72069  40.899  14.748   4.134
12325W        W72070  31.077  38.495  14.404
12326W        W72071  32.432  27.465  13.475
12327W        W72072  17.567  25.655   3.643
12328W        W72073  41.382  32.531   3.782
12329W        W72074  11.268  35.545  10.043
12330W        W72075   3.752   0.981   1.709
12331W        W72076  27.177  16.272   5.665
12332W        W72077   7.249  40.452   3.737
12333W        W72078   9.256  40.509  11.951
12334W        W72079  40.009  33.931   0.396
12335W        W72080  14.673  38.957  14.435
12336W        W72081  43.388  30.438   1.744
12337W        W72082  28.473  30.054  12.430
12338W        W72083  31.540  24.123   0.879
12339W        W72084  37.942  24.530   3.280
12340W        W72085  24.539  20.661  12.971
12341W        W72086  39.052  37.979  14.298
12342W        W72087  24.649   4.406  14.420
12343W        W72088   5.208  29.459   0.782
12344W        W72089  37.997  20.182   4.148
12345W        W72090  17.297  38.552  12.836
12346W        W72091  27.555  31.997  12.369
12347W        W72092  27.497  24.068   1.934
12348W        W72093  32.023   6.311   3.333
12349W        W72094   4.778  39.965  10.628
12350W        W72095  43.849   4.808   0.890
12351W        W72096  10.655  32.405  14.865
12352W        W72097  36.444  22.148   4.233
12353W        W72098  28.130  41.389   4.346
12354W        W72099  21.028  17.657   0.427
12355W        W72100  13.158  43.011  12.461
12356W        W72101   2.945  41.982  11.100
12357W        W72102   0.763  26.630  10.943
12358W        W72103  28.659  19.167  12.030
12359W        W72104   3.333   5.341   1.401
12360W        W72105  16.201  27.118   0.372
12361W        W72106  27.464  25.195  14.469
12362W        W72107  18.652  32.560  12.860
12363W        W72108  34.487  27.971   4.735
12364W        W72109  21.591  24.204  13.840
12365W        W72110  16.196   7.838  12.841
12366W        W72111  24.512  23.111   4.208
12367W        W72112  10.781  43.768  13.495
12368W        W72113  35.877  10.202  11.864
12369W        W72114   9.854   8.675   1.696
12370W        W72115  23.581  20.753   1.859
12371W        W72116  36.429  19.646   4.803
12372W        W72117  12.218   0.847   4.811
12373W        W72118  14.651  20.064  13.924
12374W        W72119   5.316   4.391  14.991
12375W        W72120  33.570  39.858   9.999
12376W        W72121  19.778  43.506  14.774
12377W        W72122  25.203  31.031   3.167
12378W        W72123  18.598  12.635  13.485
12379W        W72124  30.951   9.245   0.277
12380W        W72125  18.761  17.255  13.041
12381W        W72126   2.921  18.262  14.491
12382W        W72127  19.273  32.000  13.994
12383W        W72128  39.927  32.505  12.575
12384W        W72129  20.146  26.469  14.443
12385W        W72130  23.048  11.770  12.091
12386W        W72131  43.865  12.756   1.428
12387W        W72132  30.986   9.296   4.767
12388W        W72133  44.977  16.638  13.539
12389W        W72134  37.388  37.399   2.409
12390W        W72135  11.664  24.691   4.262
12391W        W72136  41.396  38.531  13.505
12392W        W72137   5.199  12.340   2.756
12393W        W72138  26.505  12.767  13.327
12394W        W72139  40.447   9.345   2.416
12395W        W72140  12.681  44.938  11.448
12396W        W72141  41.833  28.483  11.904
12397W        W72142  13.145  11.767   4.329
12398W        W72143  20.267  14.746  12.380
12399W        W72144   1.847   6.394  13.541
12400W        W72145   0.901  15.690   2.415
12401W        W72146  38.918  21.700  13.968
12402W        W72147  22.126  36.955   0.828
12403W        W72148  36.985  13.309  13.812
12404W        W72149  40.877  16.587   3.333
12405W        W72150   1.239  40.368   0.808
12406W        W72151  25.012  17.251  13.856
12407W        W72152  18.253  25.151  14.874
12408W        W72153   8.781   6.681  14.303
12409W        W72154  11.266   5.327  12.873
12410W        W72155   7.403  17.282   2.681
12411W        W72156  23.572   8.871  12.421
12412W        W72157  37.087  29.513  11.391
12413W        W72158  14.596   4.316   2.324
12414W        W72159  23.725  10.721   2.679
12415W        W72160  18.605  44.878  13.548
12416W        W72161  25.170  42.925   0.768
12417W        W72162  34.922   9.391  14.454
12418W        W72163   8.750  28.006  11.110
12419W        W72164  44.458   1.300   2.730
12420W        W72165  13.659   5.764   3.671
12421W        W72166  21.733  18.740  10.958
12422W        W72167  19.650   7.380  14.967
12423W        W72168   3.710  26.646   0.284
12424W        W72169  43.785  32.033  13.851
12425W        W72170  40.900  36.989   3.869
12426W        W72171  38.373  38.847   0.415
12427W        W72172  32.942  11.372  14.826
12428W        W72173   3.241  24.661   4.129
12429W        W72174  13.221  25.179   2.194
12430W        W72175   6.856   7.899   0.481
12431W        W72176   8.354  39.820   2.286
12432W        W72177  28.017  40.453  10.031
12433W        W72178  17.217  29.072   0.471
12434W        W72179  31.575  31.485  13.369
12435W        W72180  15.175   2.733  11.405
12436W        W72181  21.594  12.221  11.978
12437W        W72182  21.162  21.206   4.730
12438W        W72183   6.337  31.153   3.722
12439W        W72184  19.067  15.702  12.931
12440W        W72185  18.657   7.772  14.826
12441W        W72186  30.583  41.342  13.055
12442W        W72187   9.259  18.131  14.854
12443W        W72188  19.624  43.494   1.747
12444W        W72189  28.510  34.868  12.028
12445W        W72190  26.173   7.718   1.313
12446W        W72191  42.319   7.253  14.359
12447W        W72192   8.164  21.643   4.161
12448W        W72193  35.583   8.201   3.758
12449W        W72194   8.764  14.695  13.322
12450W        W72195  32.935  27.472  11.099
12451W        W72196  35.852  18.709   4.338
12452W        W72197   2.237  34.477   1.737
12453W        W72198   4.391  21.513  10.062
12454W        W72199  24.003   7.384   9.945
12455W        W72200   9.252   5.273  14.301
12456W        W72201  38.551  29.650   1.873
12457W        W72202  13.330  23.183  14.363
12458W        W72203  31.508  40.408  12.964
12459W        W72204  12.147   3.383  14.477
12460W        W72205  32.607  21.655   3.325
12461W        W72206  26.022  29.568  13.322
12462W        W72207  13.137   1.750   0.350
12463W        W72208   6.244   5.692  13.887
12464W        W72209   5.301   8.240   4.204
12465W        W72210   3.368  14.815  12.968
12466W        W72211  14.663   4.873  14.858
12467W        W72212  13.188  10.787  10.640
12468W        W72213   5.836  27.128   3.843
12469W        W72214   8.712  35.589  13.431
12470W        W72215   7.323  42.408  13.965
12471W        W72216  21.560  40.932   0.376
12472W        W72217   5.223  25.201  13.381
12473W        W72218   7.413  32.049   2.338
12474W        W72219   4.882   7.291  13.388
12475W        W72220  31.557  28.105  11.004
12476W        W72221  37.389  42.307   4.690
12477W        W72222  37.912  24.499  14.364
12478W        W72223  31.441  21.019  11.465
12479W        W72224  31.599  32.979  14.366
12480W        W72225  28.476  23.173   1.844
12481W        W72226  37.397   0.982  10.925
12482W        W72227  10.744  19.623  12.886
12483W        W72228  19.255  28.945   0.892
12484W        W72229  13.833  23.557  14.974
12485W        W72230   0.830  26.960  11.936
12486W        W72231  39.928  10.865   3.838
12487W        W72232   6.752  31.972   3.730
12488W        W72233  39.867  34.994  14.865
12489W        W72234  18.157  35.002  11.400
12490W        W72235   4.281  30.494   0.322
12491W        W72236  24.029  37.341  11.591
12492W        W72237  32.070  13.799   0.317
12493W        W72238   0.445  22.223   3.175
12494W        W72239  14.181   8.859  10.513
12495W        W72240  41.803   1.877   1.874
12496W        W72241  43.485  38.351   3.764
12497W        W72242  38.926  17.743  10.143
12498W        W72243  28.071  13.168   3.669
12499W        W72244   7.729  19.278  11.018
12500W        W72245  15.134   5.327  13.331
12501W        W72246  38.535  38.032  13.851
12502W        W72247  14.794  12.771   1.380
12503W        W72248  44.824  34.957  11.111
12504W        W72249  15.590  28.954  14.928
12505W        W72250  12.679   5.794  10.458
12506W        W72251   5.750  27.560  13.350
12507W        W72252   7.828  33.119  14.872
12508W        W72253   2.301  40.455   3.687
12509W        W72254  23.491  25.518  14.938
12510W        W72255  26.457   8.179   0.767
12511W        W72256  21.758  42.496   1.917
12512W        W72257  43.995  19.617  11.026
12513W        W72258  25.174  37.848  10.564
12514W        W72259  14.190  16.725  10.157
12515W        W72260  35.456   2.379   0.429
12516W        W72261  44.343  19.705  10.592
12517W        W72262  37.440  28.510  14.491
12518W        W72263  17.213  11.637  14.989
12519W        W72264  26.203  23.726  11.072
12520W        W72265  16.281  16.612   0.808
12521W        W72266  11.211  23.189   3.778
12522W        W72267  12.192  15.816  10.460
12523W        W72268  18.625   3.259   4.823
12524W        W72269  34.893  38.965   2.257
12525W        W72270  44.931   8.716   0.801
12526W        W72271  25.076  35.874  11.435
12527W        W72272  13.774   7.716   4.263
12528W        W72273  15.155  33.050  13.824
12529W        W72274  32.423   2.346  12.866
12530W        W72275  10.279  32.969  12.413
12531W        W72276  12.139   5.838   2.369
12532W        W72277   3.432   4.813  13.386
12533W        W72278  30.962  23.089   3.204
12534W        W72279  42.936  15.212  12.874
12535W        W72280  29.065  28.437  10.982
12536W        W72281  19.578  24.682   0.925
12537W        W72282  43.836   6.249   2.736
12538W        W72283  38.956  39.928  12.086
12539W        W72284   1.473  43.439  12.445
12540W        W72285  44.771  36.583   0.856
12541W        W72286  43.888  39.508   0.870
12542W        W72287  37.016  13.178  11.974
12543W        W72288  31.931   7.781  12.427
12544W        W72289  19.215  18.261   0.851
12545W        W72290  42.009  36.590   1.804
12546W        W72291  34.979  18.639   0.357
12547W        W72292  44.889   4.831  11.567
12548W        W72293  23.119  42.527  14.374
12549W        W72294   8.343  23.060   3.208
12550W        W72295   3.257   2.367   3.791
12551W        W72296  31.439  41.513   3.372
12552W        W72297   6.328  24.630  10.507
12553W        W72298  13.256  30.968   4.244
12554W        W72299  28.534  16.693   0.283
12555W        W72300   1.301  32.061  12.925
12556W        W72301  42.881  38.481  13.422
12557W        W72302  17.695   6.738   0.962
12558W        W72303  34.514  34.089  11.414
12559W        W72304   3.838   0.274  11.414
12560W        W72305  44.819  13.107   0.869
12561W        W72306   7.810  20.093  12.549
12562W        W72307  21.068  41.039  12.924
12563W        W72308   0.870  33.401  14.900
12564W        W72309  38.945  29.014   2.854
12565W        W72310  33.464  21.664   3.775
12566W        W72311   6.216  29.475   0.863
12567W        W72312   7.274   7.205   2.893
12568W        W72313  21.537  39.465  11.998
12569W        W72314  20.210  40.948  13.941
12570W        W72315  28.616  38.529  14.937
12571W        W72316   6.796  11.247   4.802
12572W        W72317  41.384  10.366   5.304
12573W        W72318  18.054  33.004   4.313
12574W        W72319  44.962  38.877   1.781
12575W        W72320   5.391  44.401  11.041
12576W        W72321  40.922  44.457  10.595
12577W        W72322   5.358   6.881  14.785
12578W        W72323  33.904  11.213  10.927
12579W        W72324   5.842  33.958  13.353
12580W        W72325   0.469  29.450   0.852
12581W        W72326   3.299   4.803  10.616
12582W        W72327  17.184   7.332   4.607
12583W        W72328  43.971  40.313  10.513
12584W        W72329  20.136   5.884  12.474
12585W        W72330  40.496  18.057  10.107
12586W        W72331  28.584   6.183  12.066
12587W        W72332  23.227  40.956  13.935
12588W        W72333  43.968  43.314  13.980
12589W        W72334  18.072  44.393   2.416
12590W        W72335  39.990  27.141  10.486
12591W        W72336  23.564  10.818  12.857
12592W        W72337   9.311   1.340  12.406
12593W        W72338   7.231  32.048  12.061
12594W        W72339  11.199  35.009   4.835
12595W        W72340  31.447  17.272   1.722
12596W        W72341  37.416  31.924   0.334
12597W        W72342   1.875  15.245  12.529
12598W        W72343  33.094  21.588   0.367
12599W        W72344  17.685   7.769   3.180
12600W        W72345  22.659  33.073   0.890
12601W        W72346   8.162  40.482  12.497
12602W        W72347   1.882  11.744  11.033
12603W        W72348  23.543  19.697  12.905
12604W        W72349  15.729  39.354  11.109
12605W        W72350  34.491  28.094   4.299
12606W        W72351  23.559  21.058   2.862
12607W        W72352  43.286  23.233   2.343
12608W        W72353  23.096   5.426   0.286
12609W        W72354  43.869  40.433   0.242
12610W        W72355  21.553  24.223  12.896
12611W        W72356  28.460  26.115  10.457
12612W        W72357  12.719  41.858   4.177
12613W        W72358  23.695  12.768   4.206
12614W        W72359  33.898  28.623   9.564
12615W        W72360  33.583   2.392  13.438
12616W        W72361  13.303   6.793  13.794
12617W        W72362  23.501   7.256  13.838
12618W        W72363  22.029  44.993   0.878
12619W        W72364  29.011  44.944  13.483
12620W        W72365  25.197   9.233  11.596
12621W        W72366   5.307  29.151  13.336
12622W        W72367  27.612   3.264  12.064
12623W        W72368  33.428  31.552  12.422
12624W        W72369  30.115  10.693   1.824
12625W        W72370  36.358  32.946   4.620
12626W        W72371  10.745  41.517  13.457
12627W        W72372  35.992  32.472   3.274
12628W        W72373  20.209   5.891   1.350
12629W        W72374  20.151  28.986   1.250
12630W        W72375  23.120  16.596  12.953
12631W        W72376  10.305  43.464  10.608
12632W        W72377  10.333  35.393   4.604
12633W        W72378   4.327  29.152   4.192
12634W        W72379  15.288  15.607  10.976
12635W        W72380  12.624  33.613   1.345
12636W        W72381  20.561  23.728   0.255
12637W        W72382  16.812  17.689  11.372
12638W        W72383  20.537  14.096   3.757
12639W        W72384   3.836  27.564   1.890
12640W        W72385  32.893  15.191  14.416
12641W        W72386  13.333  17.723  14.905
12642W        W72387  24.204  10.168   2.293
12643W        W72388  37.371   8.754  13.507
12644W        W72389  25.086  21.609  12.542
12645W        W72390  28.939  31.137   0.835
12646W        W72391  38.445   1.346   0.895
12647W        W72392  36.910   0.296   2.885
12648W        W72393  17.114   2.930   1.714
12649W        W72394  32.448  32.126  14.463
12650W        W72395   6.348  15.726  13.312
12651W        W72396   2.430   7.686   1.342
12652W        W72397  21.063  34.526   5.320
12653W        W72398  38.472   2.947   4.782
12654W        W72399  28.957  16.645  14.323
12655W        W72400  29.065  27.976   2.873
12656W        W72401   7.268  23.551  11.438
12657W        W72402  34.488   6.408   2.724
12658W        W72403   6.227   3.914  13.395
12659W        W72404  33.488  32.918  11.885
12660W        W72405  20.063  16.615   1.763
12661W        W72406   0.320  23.494   1.854
12662W        W72407  43.478  26.183  11.106
12663W        W72408   1.757  19.120   2.400
12664W        W72409  34.465   7.288  12.421
12665W        W72410  36.522  42.302   2.811
12666W        W72411  29.606  19.617  12.485
12667W        W72412  12.819  32.587  13.805
12668W        W72413  35.409  18.069   2.663
12669W        W72414  28.536  22.718  11.421
12670W        W72415  29.064   7.876  13.916
12671W        W72416  19.241  13.167   1.782
12672W        W72417   7.883  12.719   2.675
12673W        W72418  32.955  19.150  12.020
12674W        W72419  13.818  37.388  12.441
12675W        W72420  12.844  18.070   1.751
12676W        W72421  22.058  33.580   0.247
12677W        W72422  37.071  12.753   1.324
12678W        W72423  18.581  29.467  10.419
12679W        W72424  22.520  14.781  14.855
12680W        W72425  19.683  14.261  10.046
12681W        W72426  32.978  34.592  12.511
12682W        W72427  19.111  29.613  12.375
12683W        W72428  15.767  21.119   0.845
12684W        W72429   1.876  18.715   1.884
12685W        W72430  33.056  30.129   5.293
12686W        W72431   5.369  25.626  13.859
12687W        W72432  27.494  31.073  10.645
12688W        W72433   6.822  10.251  10.544
12689W        W72434   3.925  28.506   2.865
12690W        W72435  21.639  14.204   2.263
12691W        W72436  39.452   1.753  14.782
12692W        W72437  21.531  25.535  11.545
12693W        W72438  44.479   9.680   2.393
12694W        W72439  37.492  27.059  11.056
12695W        W72440  17.173  35.602   0.356
12696W        W72441  35.556  32.396   4.240
12697W        W72442  38.936   1.394   9.940
12698W        W72443  22.574  11.674  10.552
12699W        W72444   6.393  14.600  12.062
12700W        W72445  35.063  11.221   0.483
12701W        W72446  25.988  44.913  13.863
12702W        W72447   2.721  35.539   2.223
12703W        W72448   0.971  33.121   0.758
12704W        W72449  39.497  26.702  11.394
12705W        W72450  38.495  44.408   2.828
12706W        W72451  39.524  21.715  10.995
12707W        W72452  30.036   1.377  14.329
12708W        W72453  31.976  17.638   4.690
12709W        W72454  43.989  42.860   0.915
12710W        W72455  31.049   6.695  12.880
12711W        W72456  10.779  33.386   0.465
12712W        W72457   0.949  27.624  14.451
12713W        W72458   4.318  23.032   4.656
12714W        W72459  39.355   5.276  11.512
12715W        W72460  43.291  16.303  12.847
12716W        W72461  27.148   0.958  13.492
12717W        W72462  10.716  10.837  11.899
12718W        W72463  17.557  28.570   0.294
12719W        W72464   1.807  35.095   1.749
12720W        W72465  34.962  20.191  13.019
12721W        W72466  27.976   2.402  12.424
12722W        W72467  39.042   4.311  11.562
12723W        W72468  30.480  11.303   3.258
12724W        W72469  21.072  20.030   2.217
12725W        W72470  27.972  41.000  13.057
12726W        W72471  35.093  19.649   5.312
12727W        W72472  28.112  43.988  11.053
12728W        W72473  41.826  39.345  11.499
12729W        W72474  16.582   5.829  12.878
12730W        W72475   5.701   0.466  13.401
12731W        W72476  44.814  23.237  14.319
12732W        W72477  12.804  16.112   2.868
12733W        W72478  30.518  27.998  11.065
12734W        W72479  21.175  29.982  12.025
12735W        W72480  42.333  13.644  12.862
12736W        W72481  30.077   9.314   4.208
12737W        W72482  36.996  43.338  13.060
12738W        W72483  36.955   1.299  12.065
12739W        W72484  12.790  41.504   4.673
12740W        W72485  24.199  18.753   9.955
12741W        W72486  38.361   6.806  11.020
12742W        W72487  39.354  33.470   2.306
12743W        W72488   2.767  21.703  14.950
12744W        W72489  21.533  19.271   2.414
12745W        W72490  31.114   8.399  11.032
12746W        W72491  36.987  39.034   1.872
12747W        W72492  31.516  21.595  10.946
12748W        W72493   1.821  41.794   3.382
12749W        W72494  27.062  20.670  11.431
12750W        W72495   6.815  32.045   4.639
12751W        W72496  32.016  16.628  10.994
12752W        W72497  35.983  40.842   3.827
12753W        W72498  26.484  37.342  13.441
12754W        W72499  20.171  31.029  11.459
12755W        W72500  22.195  14.272   3.195
12756W        W72501  36.405   9.856  13.506
12757W        W72502  26.495  23.544  14.474
12758W        W72503  41.537  10.288  12.975
12759W        W72504  12.760  28.452   2.233
12760W        W72505  33.443  34.497   1.737
12761W        W72506  38.542  27.155   4.747
12762W        W72507  32.051   1.818  12.357
12763W        W72508   6.187  12.835  10.556
12764W        W72509  35.023  32.120  11.865
12765W        W72510  25.561  26.583  10.465
12766W        W72511  15.197  38.949   4.836
12767W        W72512  17.105  42.919  13.986
12768W        W72513   3.862  34.566  10.131
12769W        W72514  25.030   7.680   4.266
12770W        W72515  13.297  38.429   0.868
12771W        W72516  12.741  35.390   1.892
12772W        W72517   5.325  28.605  11.039
12773W        W72518   4.843  41.486  13.981
12774W        W72519  33.947  10.757   4.123
12775W        W72520  36.862   5.902  14.824
12776W        W72521   2.447  14.195   2.809
12777W        W72522  36.078   8.373  11.886
12778W        W72523   6.771  30.593   1.298
12779W        W72524  35.923   6.914   2.296
12780W        W72525  29.576  27.049  11.931
12781W        W72526  30.087  19.565   0.452
12782W        W72527  27.617  44.270   3.706
12783W        W72528  28.680  11.164  13.454
12784W        W72529  17.257  21.654  11.081
12785W        W72530   8.268  13.649   2.893
12786W        W72531  18.789  42.789  14.001
12787W        W72532  25.006   9.771   2.836
12788W        W72533  31.592  12.811  11.515
12789W        W72534  25.192  16.595   1.855
12790W        W72535  12.251  17.069   0.425
12791W        W72536  16.220  18.282  14.880
12792W        W72537   9.312  41.300   1.761
12793W        W72538  43.961  16.764  10.425
12794W        W72539  21.108  20.603  14.294
12795W        W72540  40.492  11.642  11.582
12796W        W72541  21.613   4.747  14.356
12797W        W72542  38.054   0.746   0.474
12798W        W72543  34.533  11.786  12.339
12799W        W72544  41.299  32.908   1.259
12800W        W72545   9.667  10.174  14.835
12801W        W72546  24.598  18.236   1.335
12802W        W72547  44.313  37.041  12.493
12803W        W72548   5.358  20.255   5.667
12804W        W72549   3.822  43.486   4.597
12805W        W72550  15.798  12.664   2.362
12806W        W72551  20.626  26.031   1.357
12807W        W72552  32.929  10.796   1.759
12808W        W72553  41.519  24.071   0.395
12809W        W72554  35.422  13.343  11.104
12810W        W72555  32.428  16.622  13.898
12811W        W72556  15.631   3.313  12.862
12812W        W72557  14.217   3.779   1.239
12813W        W72558  14.729   1.378   0.847
12814W        W72559  39.831   2.881  11.495
12815W        W72560  28.017  31.544  12.428
12816W        W72561   0.467  22.026  14.276
12817W        W72562  30.160  26.974   3.647
12818W        W72563  40.020  42.018  10.915
12819W        W72564  11.160  43.001   0.313
12820W        W72565  39.865  40.828   1.340
12821W        W72566  41.855  44.490   3.173
12822W        W72567   6.203  19.113  10.964
12823W        W72568  17.226   9.255   0.284
12824W        W72569  18.767   1.347   4.268
12825W        W72570  16.812  13.819  14.860
12826W        W72571   8.168   8.848   0.735
12827W        W72572  39.004  36.580  13.537
12828W        W72573   6.383  41.932   2.389
12829W        W72574  17.729  21.543  14.472
12830W        W72575  41.894  20.197   4.723
12831W        W72576  38.539   1.912  13.906
12832W        W72577  28.667  41.821  10.461
12833W        W72578  38.915   9.662   3.316
12834W        W72579  44.885   7.794  14.937
12835W        W72580  34.463  14.658   3.146
12836W        W72581   8.698  40.884  10.449
12837W        W72582  14.211  34.056   3.355
12838W        W72583  35.521  36.393  13.943
12839W        W72584  43.873  18.123  13.877
12840W        W72585  33.589  24.127   3.293
12841W        W72586  17.576  36.051   4.758
12842W        W72587  24.481   9.840   0.861
12843W        W72588  37.908  32.593  13.020
12844W        W72589  32.077   2.826  10.588
12845W        W72590  14.725  24.633  10.567
12846W        W72591  24.701  18.172  14.993
12847W        W72592   1.368  13.106  12.943
12848W        W72593  10.301  19.157  14.342
12849W        W72594   0.325  34.613  10.918
12850W        W72595  44.986   2.955  13.030
12851W        W72596  42.364   4.825  11.401
12852W        W72597  11.658  43.018  11.862
12853W        W72598  29.119   5.400   5.777
12854W        W72599  21.657   0.291   3.785
12855W        W72600  34.975  25.003   1.702
12856W        W72601   3.317  42.374   1.308
12857W        W72602  16.801  11.193   2.220
12858W        W72603  13.846  16.775   2.317
12859W        W72604   9.826  11.720   3.259
12860W        W72605  44.804  20.073  12.064
12861W        W72606   0.320   1.866  11.870
12862W        W72607   8.201  24.629   2.314
12863W        W72608   6.898  31.058  11.442
12864W        W72609  26.527  34.915   5.131
12865W        W72610  21.758  27.682   1.918
12866W        W72611  37.024  42.877  10.903
12867W        W72612  19.761  23.607   1.430
12868W        W72613   9.697  14.742   1.767
12869W        W72614  13.224  18.710  11.493
12870W        W72615  35.473  14.633   1.738
12871W        W72616  39.558   0.442  14.346
12872W        W72617  14.746  14.694  13.435
12873W        W72618   0.288  33.093  11.571
12874W        W72619  42.328  42.853   3.835
12875W        W72620  21.185   9.772   4.600
12876W        W72621  31.527  23.589   2.668
12877W        W72622  21.142   1.848  11.893
12878W        W72623  37.970  13.240   4.649
12879W        W72624  17.253   9.889  13.894
12880W        W72625  21.605  16.303  11.430
12881W        W72626   9.697  27.132   3.361
12882W        W72627  44.388   3.940   0.346
12883W        W72628  37.442  29.925  10.465
12884W        W72629  37.864  15.580  12.981
12885W        W72630  38.821  30.657   4.775
12886W        W72631  38.938   1.460  12.344
12887W        W72632  42.325   6.364  12.851
12888W        W72633   7.805  23.538  14.434
12889W        W72634   5.828   6.407   1.330
12890W        W72635  15.766  33.113   1.826
12891W        W72636  16.646  43.902  13.447
12892W        W72637   3.736  12.739   3.844
12893W        W72638  40.843  39.052  10.417
12894W        W72639  19.749  23.186   3.640
12895W        W72640  20.759  16.143   1.312
12896W        W72641   7.396  32.478  13.898
12897W        W72642   2.457   7.718  10.534
12898W        W72643  26.069  21.665  14.392
12899W        W72644  20.526  36.958   0.730
12900W        W72645   2.785  20.048   1.908
12901W        W72646   9.336  29.438   0.319
12902W        W72647  40.944  35.075   1.800
12903W        W72648  18.247  28.656   4.251
12904W        W72649  21.662  30.164   4.297
12905W        W72650  27.513  13.688   0.390
12906W        W72651  10.708  30.116  10.559
12907W        W72652  16.804  30.097  11.456
12908W        W72653   2.390  35.379  12.473
12909W        W72654  12.221  32.134  10.906
12910W        W72655  42.509  28.107  12.372
12911W        W72656  43.940  17.192  14.942
12912W        W72657  16.275  34.018  10.950
12913W        W72658   7.861  37.363   4.326
12914W        W72659   3.353  17.185  14.937
12915W        W72660   0.812   3.807   0.834
12916W        W72661   7.880   5.868   0.315
12917W        W72662   3.915  11.323  14.901
12918W        W72663   4.874  11.657   1.218
12919W        W72664   9.259  22.149  12.083
12920W        W72665  18.156   5.894   2.702
12921W        W72666  40.873  43.945  10.620
12922W        W72667  39.385  16.143  14.917
12923W        W72668  21.655  37.567  13.905
12924W        W72669  39.513  12.653  14.976
12925W        W72670   0.893  27.653   3.168
12926W        W72671  19.185   1.881  10.455
12927W        W72672  28.037   3.216  14.889
12928W        W72673  38.907  33.119  10.997
12929W        W72674  17.711  33.392   0.376
12930W        W72675  34.011  22.655  14.339
12931W        W72676  34.501  29.079   3.334
12932W        W72677  42.831  38.339   0.750
12933W        W72678  23.000  29.576  14.393
12934W        W72679  25.014   0.837  12.879
12935W        W72680   4.412  11.285  11.064
12936W        W72681  11.173  33.926   0.735
12937W        W72682  38.515  34.606   0.806
12938W        W72683  33.565   7.229  12.401
12939W        W72684  14.127  21.756  12.931
12940W        W72685  27.633   5.835  12.992
12941W        W72686  35.515  30.102  10.499
12942W        W72687   2.908   4.871   2.389
12943W        W72688  12.758  43.807  10.954
12944W        W72689  42.433  32.400   0.432
12945W        W72690  13.819  36.526  12.533
12946W        W72691  33.942   0.270  11.490
12947W        W72692  23.228  23.183   4.748
12948W        W72693   9.292  23.733  11.112
12949W        W72694   7.730  22.728   3.732
12950W        W72695  34.935  12.648  12.940
12951W        W72696   0.341  39.441   4.197
12952W        W72697   7.819  40.842  13.841
12953W        W72698  28.135  34.917   2.662
12954W        W72699   5.397  41.309  14.385
12955W        W72700   5.927  26.028  14.339
12956W        W72701   4.358   5.300  12.385
12957W        W72702  19.255  41.340  10.443
12958W        W72703  33.409  13.294  14.301
12959W        W72704  11.257   3.916   4.170
12960W        W72705  10.654  35.961   0.945
12961W        W72706  42.878  41.414   1.774
12962W        W72707  11.714  31.045   4.712
12963W        W72708   0.852  28.667   4.299
12964W        W72709  20.558  34.104  11.514
12965W        W72710  26.643  35.550   3.354
12966W        W72711  33.045  26.625   3.290
12967W        W72712  14.171  28.536  13.969
12968W        W72713   6.869  27.164  11.412
12969W        W72714  40.971  18.148   1.287
12970W        W72715  16.242   8.896   2.236
12971W        W72716  16.646  27.168  12.424
12972W        W72717   5.315  40.345  14.480
12973W        W72718  43.392  18.584   5.216
12974W        W72719  35.517  27.481   1.886
12975W        W72720  13.293  11.286  12.841
12976W        W72721   0.255   5.378  14.836
12977W        W72722  34.049  40.876  10.473
12978W        W72723   6.833  44.980  14.975
12979W        W72724  29.036  41.499  11.495
12980W        W72725  41.020  21.650  14.505
12981W        W72726  17.567   2.458   0.749
12982W        W72727  18.741  16.238   1.407
12983W        W72728   9.390  20.552   2.777
12984W        W72729   2.809  43.507  11.890
12985W        W72730  16.245  22.510  13.423
12986W        W72731  41.044   0.456   3.693
12987W        W72732  21.685  20.079  14.920
12988W        W72733  32.444  12.165  11.442
12989W        W72734  25.035  34.994  14.008
12990W        W72735  19.039  29.983   3.723
12991W        W72736   2.251  27.048  14.957
12992W        W72737  13.178  39.424  13.416
12993W        W72738   4.939  27.134   0.942
12994W        W72739  41.982  28.173   9.929
12995W        W72740  41.460  10.765  12.833
12996W        W72741  33.381  10.139  11.538
12997W        W72742  31.575  10.724  13.450
12998W        W72743  13.164   0.457   4.701
12999W        W72744   7.369  34.934   1.408
13000W        W72745  26.603  44.459  11.477
13001W        W72746   7.358   5.917   1.822
13002W        W72747   5.697  13.207   1.752
13003W        W72748  36.486  34.542   0.863
13004W        W72749  43.295  18.174  11.394
13005W        W72750  37.873   4.710  14.400
13006W        W72751  39.511  10.797  12.825
13007W        W72752  42.987  44.779   0.296
13008W        W72753  13.124  43.922   0.867
13009W        W72754  21.666  15.662   0.909
13010W        W72755   6.229  38.894  13.968
13011W        W72756  35.585  39.447  14.817
13012W        W72757  35.993  22.997   2.330
13013W        W72758  17.234  11.751  14.349
13014W        W72759  28.539  13.843   2.875
13015W        W72760   5.393  17.129  13.862
13016W        W72761  39.462  41.384  13.830
13017W        W72762  12.188  25.545  11.016
13018W        W72763   8.188  43.338   1.432
13019W        W72764  44.335  38.833  10.567
13020W        W72765  10.691   9.262   2.739
13021W        W72766  18.753  12.214  14.514
13022W        W72767  17.205  40.370   2.294
13023W        W72768  20.245  27.196   0.319
13024W        W72769   5.319  38.364   0.391
13025W        W72770   6.870  36.376   1.846
13026W        W72771   7.704  44.415   4.271
13027W        W72772  20.568  13.272   4.147
13028W        W72773  31.976  18.135  12.085
13029W        W72774  16.673  11.728   4.255
13030W        W72775   1.798   9.331  11.598
13031W        W72776  14.128  29.066  11.898
13032W        W72777  23.152   5.703  10.622
13033W        W72778  30.543  43.455   0.895
13034W        W72779  39.531  18.757   3.158
13035W        W72780  21.703  12.845   3.727
13036W        W72781  39.552  35.435  14.778
13037W        W72782  28.171  24.641   1.896
13038W        W72783   8.250  27.021  10.999
13039W        W72784  20.261  26.189   3.186
13040W        W72785  16.164  38.459  12.862
13041W        W72786  15.274  37.961  12.092
13042W        W72787  19.177  34.864   3.206
13043W        W72788   3.312  19.258   5.280
13044W        W72789  22.063   6.355  10.540
13045W        W72790  26.532  11.332   1.934
13046W        W72791  36.536  11.203  12.397
13047W        W72792  23.101  28.970  10.569
13048W        W72793  13.182  27.542  13.847
13049W        W72794  21.714  25.978  11.544
13050W        W72795  42.869   3.893   1.744
13051W        W72796  13.129   0.398   3.172
13052W        W72797  38.464  20.557  11.077
13053W        W72798   3.743  36.869  10.939
13054W        W72799  37.461  41.356   2.189
13055W        W72800  33.478  35.022  14.837
13056W        W72801   1.878  22.718   0.320
13057W        W72802  44.504  27.537  11.579
13058W        W72803  44.501   9.857  10.001
13059W        W72804  28.970  41.321   1.384
13060W        W72805  19.134  43.435  10.640
13061W        W72806   0.965  17.231  10.551
13062W        W72807  42.288  33.937  11.933
13063W        W72808   7.771  36.590  14.934
13064W        W72809  31.507  32.003  14.351
13065W        W72810  12.762   3.723   4.219
13066W        W72811  36.967  37.388  12.344
13067W        W72812  13.621   9.731  14.788
13068W        W72813  21.079  35.936  13.530
13069W        W72814  30.099  25.136  11.609
13070W        W72815   2.272  41.333   2.751
13071W        W72816  43.835  43.945  12.552
13072W        W72817  34.397   6.737  14.451
13073W        W72818   0.888  30.534   5.278
13074W        W72819  41.885   2.336   1.896
13075W        W72820  37.342  40.941  13.914
13076W        W72821  26.011  26.700  11.562
13077W        W72822  14.819  21.634   2.323
13078W        W72823  11.674  16.701  11.563
13079W        W72824  33.449  29.469  11.942
13080W        W72825  29.604  23.162  11.377
13081W        W72826   5.246  24.503   4.757
13082W        W72827   6.782  19.751  14.779
13083W        W72828   9.644   7.334  14.837
13084W        W72829   2.809  14.108   4.739
13085W        W72830   8.753  15.601  11.970
13086W        W72831  44.804  13.646  10.409
13087W        W72832   4.299   6.754   2.732
13088W        W72833  30.909   0.492   3.261
13089W        W72834   1.767  15.109   1.860
13090W        W72835  10.346   2.937  10.963
13091W        W72836   1.767   0.857   3.326
13092W        W72837  15.799  20.585   4.731
13093W        W72838  13.273   8.361  12.992
13094W        W72839  41.490  43.321   1.431
13095W        W72840  17.714   1.320   3.273
13096W        W72841   6.712  42.976   2.763
13097W        W72842  25.213  22.079  13.318
13098W        W72843  38.331   1.830   0.897
13099W        W72844  41.836  24.219   2.209
13100W        W72845   0.917  15.155   2.395
13101W        W72846  21.611  34.064  13.995
13102W        W72847  25.081  12.330  12.454
13103W        W72848  38.521  34.080  12.477
13104W        W72849  11.236  17.281  11.954
13105W        W72850  21.638  31.100   9.441
13106W        W72851  17.593   1.268   1.875
13107W        W72852  29.435  27.541  12.018
13108W        W72853  43.335  37.377   0.452
13109W        W72854   4.293  31.533   3.242
13110W        W72855  37.534  12.696   4.670
13111W        W72856  30.921  32.989  11.020
13112W        W72857  44.281   2.277   3.315
13113W        W72858  39.885   5.265  12.424
13114W        W72859   1.817   3.449  14.512
13115W        W72860  23.189   4.788   1.398
13116W        W72861  43.963  26.064  13.841
13117W        W72862  16.680  23.091   4.160
13118W        W72863  25.573  13.794  11.059
13119W        W72864  11.803  44.363   2.818
13120W        W72865   4.420  10.199   2.882
13121W        W72866  31.111  42.410  12.951
13122W        W72867  17.062  22.073  14.885
13123W        W72868  42.948  41.904   4.790
13124W        W72869   3.853  44.983   3.828
13125W        W72870  15.672  43.846  12.480
13126W        W72871  12.339  29.133  12.043
13127W        W72872  22.620  18.260  13.001
13128W        W72873   8.830  30.507   0.893
13129W        W72874  33.569  30.636  14.499
13130W        W72875  24.211  29.439  13.940
13131W        W72876  30.033   0.274  14.400
13132W        W72877  33.930  25.142   3.650
13133W        W72878  37.013  26.003   2.383
13134W        W72879   8.218  30.444   1.423
13135W        W72880   9.205   0.441   1.427
13136W        W72881  31.478  42.828   1.770
13137W        W72882  21.149  36.881  11.447
13138W        W72883  29.037  20.688  12.914
13139W        W72884  19.697  39.050   2.209
13140W        W72885  43.823  29.515   3.356
13141W        W72886  28.489  40.841  12.903
13142W        W72887  19.282   1.279  13.494
13143W        W72888  24.161  25.035   0.323
13144W        W72889  13.734  25.471   1.777
13145W        W72890  13.685  35.110   9.484
13146W        W72891   4.888  12.312   2.318
13147W        W72892  31.501  44.843   2.330
13148W        W72893   8.248   8.190   1.431
13149W        W72894  37.018  36.945  12.919
13150W        W72895  38.516  16.240   0.301
13151W        W72896  27.507  42.792   1.434
13152W        W72897  23.165  35.108   2.858
13153W        W72898  19.174  23.503  14.482
13154W        W72899  23.235  18.101   3.366
13155W        W72900  27.629  34.392  11.434
13156W        W72901  29.628   7.385  12.349
13157W        W72902  13.628  32.495   3.160
13158W        W72903   5.929  20.211   0.750
13159W        W72904  35.567  19.134   2.242
13160W        W72905  43.931  20.094  10.415
13161W        W72906   3.939  24.085   2.764
13162W        W72907  29.521  16.099  14.397
13163W        W72908  20.653  16.271   1.909
13164W        W72909  27.652   6.909   3.657
13165W        W72910  39.443  44.387   3.773
13166W        W72911  21.660  38.030   1.290
13167W        W72912  39.326  30.020  12.890
13168W        W72913  10.241  36.972   3.807
13169W        W72914  19.165  27.138   4.354
13170W        W72915  20.155  34.897   3.210
13171W        W72916  33.437   9.668   3.230
13172W        W72917  38.842  10.346  10.952
13173W        W72918  14.152  30.436  14.825
13174W        W72919   8.750  27.108   4.270
13175W        W72920   1.964  17.108  14.826
13176W        W72921  42.521   8.865   2.890
13177W        W72922   8.220  27.181  12.846
13178W        W72923  21.675  22.191   3.329
13179W        W72924  18.087   0.316  10.534
13180W        W72925  39.464  34.529   4.688
13181W        W72926  27.954  27.147   4.776
13182W        W72927  27.466  42.408   3.790
13183W        W72928  17.622  40.803   4.665
13184W        W72929  39.496   3.871  10.586
13185W        W72930  14.681  11.796   5.252
13186W        W72931  28.181  42.005   2.891
13187W        W72932  40.368  30.991   4.344
13188W        W72933   4.744  29.589  14.911
13189W        W72934  42.990  30.492  14.911
13190W        W72935  28.640   5.879  10.428
13191W        W72936  43.821  18.635   2.292
13192W        W72937   2.419   7.803   3.202
13193W        W72938  21.167   0.346  14.848
13194W        W72939  17.115  18.273   1.257
13195W        W72940  29.513  15.668   0.857
13196W        W72941  24.654  30.585  12.924
13197W        W72942  11.808  35.972   1.745
13198W        W72943  36.944  36.948   4.174
13199W        W72944  37.957  15.286   0.375
13200W        W72945  33.605   7.404   4.293
13201W        W72946  23.605   8.244   0.329
13202W        W72947  24.985  12.302  13.991
13203W        W72948   9.378   5.782   1.765
13204W        W72949  14.726  19.267   3.176
13205W        W72950   1.844   9.672  10.418
13206W        W72951  40.426  34.944  12.524
13207W        W72952  24.586  10.237   0.740
13208W        W72953  35.546   4.712   9.993
13209W        W72954  17.104  35.557  10.927
13210W        W72955   1.408  44.763   1.865
13211W        W72956  15.584   3.401   2.903
13212W        W72957  25.022  23.701  13.814
13213W        W72958  17.638   3.325  13.439
13214W        W72959   7.736  38.989   0.802
13215W        W72960  31.045   3.936  13.486
13216W        W72961  34.016  25.577  10.533
13217W        W72962  40.479  18.257  11.099
13218W        W72963  44.926  43.834   4.652
13219W        W72964  38.946  44.990  13.504
13220W        W72965   6.359  12.135   4.236
13221W        W72966  12.216  32.927   0.432
13222W        W72967  40.804  37.344  13.014
13223W        W72968  27.080  16.781   3.146
13224W        W72969  14.724  10.811  12.993
13225W        W72970  39.011  16.281  13.327
13226W        W72971  36.093  16.661   2.330
13227W        W72972  39.453  29.654   1.408
13228W        W72973  28.549  16.670  14.466
13229W        W72974  35.594  39.851   1.326
13230W        W72975  24.629  39.965   3.747
13231W        W72976   3.750   3.373   2.898
13232W        W72977   6.217   1.297   4.627
13233W        W72978  39.921  24.023   4.630
13234W        W72979  13.235  13.711  10.523
13235W        W72980  41.881  17.163  14.838
13236W        W72981  23.174  10.802   4.633
13237W        W72982  32.094  27.028  12.858
13238W        W72983  27.077  34.087   4.714
13239W        W72984  27.017  35.425   0.775
13240W        W72985  10.314  25.558   2.222
13241W        W72986  35.544   6.906  11.397
13242W        W72987  19.701   8.848   0.359
13243W        W72988  26.206  43.466   0.873
13244W        W72989  26.986  10.229   2.851
13245W        W72990  18.611  34.456  11.612
13246W        W72991  13.762  34.003   2.795
13247W        W72992   5.763   0.902  13.882
13248W        W72993  39.371  38.342  11.548
13249W        W72994  15.729   7.691   2.185
13250W        W72995  33.393  29.981  14.827
13251W        W72996  23.999  26.677  12.041
13252W        W72997   3.282   4.920  11.065
13253W        W72998   1.835  21.048  12.831
13254W        W72999  25.161   7.377  11.941
13255W        W73000  22.517  26.977   3.365
13256W        W73001  43.947  43.483   1.712
13257W        W73002  31.075   5.688   2.376
13258W        W73003  32.629  23.121   1.449
13259W        W73004  40.358  14.692  13.348
13260W        W73005  16.636   5.831   2.185
13261W        W73006  20.747  25.493  10.997
13262W        W73007  37.459  24.568  14.388
13263W        W73008  11.647  17.080  13.398
13264W        W73009  37.346   8.228   4.823
13265W        W73010   3.283  35.514  13.987
13266W        W73011  44.450  16.598   4.309
13267W        W73012  17.073  25.569  11.602
13268W        W73013  30.149  14.119  13.324
13269W        W73014  15.820  25.559   3.235
13270W        W73015  32.977  26.675   3.734
13271W        W73016  20.548   0.256   9.667
13272W        W73017   0.911  37.843   2.307
13273W        W73018   6.337  33.986   4.628
13274W        W73019  27.952  17.627   3.867
13275W        W73020  20.752  29.061   0.441
13276W        W73021  39.935  12.203   2.281
13277W        W73022  41.035  25.216   2.187
13278W        W73023  17.762  22.037   3.843
13279W        W73024  22.062  42.015   0.858
13280W        W73025  19.729   8.725  12.573
13281W        W73026  15.581  42.500  14.446
13282W        W73027  23.088  33.095  11.075
13283W        W73028  22.595  27.142   3.745
13284W        W73029  23.585  39.446   4.318
13285W        W73030  27.972   5.745  10.138
13286W        W73031  19.198  27.565  14.330
13287W        W73032  37.870  38.522   4.314
13288W        W73033   6.293  28.596  14.935
13289W        W73034  30.924   8.349  13.939
13290W        W73035  31.020  31.932   1.230
13291W        W73036  32.504  44.826   1.424
13292W        W73037   5.732  33.465   3.658
13293W        W73038  25.548  17.651  11.051
13294W        W73039  32.428   2.303   3.821
13295W        W73040  22.681   5.755   3.870
13296W        W73041  30.087  24.537   3.766
13297W        W73042   5.262  11.371   4.829
13298W        W73043  11.271  34.569  13.040
13299W        W73044  31.611   7.802   4.739
13300W        W73045  41.367   9.649   2.880
13301W        W73046  29.477  34.994  12.849
13302W        W73047   3.874  20.560   3.845
13303W        W73048  38.894  43.402  14.811
13304W        W73049  28.126   5.858  10.565
13305W        W73050  26.098  44.978   4.173
13306W        W73051  11.138   4.874   0.764
13307W        W73052  16.785  34.927   4.190
13308W        W73053  39.924  15.295  14.876
13309W        W73054  19.159   0.304   2.227
13310W        W73055  13.329  12.791   4.328
13311W        W73056  22.206  11.640   1.409
13312W        W73057  25.974  24.206   0.745
13313W        W73058  35.994  15.260   2.831
13314W        W73059  12.223  40.454  14.372
13315W        W73060  21.212  23.681  14.290
13316W        W73061  31.906  36.489  11.013
13317W        W73062  15.293  15.623   1.709
13318W        W73063  29.438  18.594  10.453
13319W        W73064  19.562  37.338   0.409
13320W        W73065  19.250  38.053  10.567
13321W        W73066  16.734  35.085   0.740
13322W        W73067  17.733  42.879  13.797
13323W        W73068  31.493   3.792   9.479
13324W        W73069  24.016  40.386  14.843
13325W        W73070  30.944   7.363  13.998
13326W        W73071  25.105  25.638  10.645
13327W        W73072   0.489  39.030   3.804
13328W        W73073  13.244  24.209  12.867
13329W        W73074  34.496   0.493   4.115
13330W        W73075  10.791  16.760  10.455
13331W        W73076  17.097  21.518  13.391
13332W        W73077  18.699  39.002  11.399
13333W        W73078  36.848  12.201  11.483
13334W        W73079  25.627  31.925  14.443
13335W        W73080  26.528  23.498  14.825
13336W        W73081  22.015  26.619  11.939
13337W        W73082   1.413  36.459  10.413
13338W        W73083  21.588  11.241   0.338
13339W        W73084  43.915  44.905   0.779
13340W        W73085  34.501   4.941   3.261
13341W        W73086  43.017  25.197   2.857
13342W        W73087  44.808  31.117   1.214
13343W        W73088  36.072   5.394  11.585
13344W        W73089  39.003  37.036   2.258
13345W        W73090  11.149  30.998  14.995
13346W        W73091  31.011  34.040   1.874
13347W        W73092   5.232  20.667   2.410
13348W        W73093  31.487   1.818   3.200
13349W        W73094  29.033  31.035  11.513
13350W        W73095  41.981  19.698   2.213
13351W        W73096  12.765  41.937   1.291
13352W        W73097   3.337  27.634   1.809
13353W        W73098  11.275  16.787   4.164
13354W        W73099  25.529  43.905   1.898
13355W        W73100   0.359  27.150   1.253
13356W        W73101  30.099  21.201   4.188
13357W        W73102  39.406  18.235   2.719
13358W        W73103  39.940  32.969   0.470
13359W        W73104  30.541   5.384   0.313
13360W        W73105  23.552  18.065   4.288
13361W        W73106  15.283  21.644  14.911
13362W        W73107  38.978  28.941  11.474
13363W        W73108  41.346   1.928   1.383
13364W        W73109  30.135  37.929  14.317
13365W        W73110  43.308  43.913   0.768
13366W        W73111   7.288  29.084   1.242
13367W        W73112  40.896  36.927  14.430
13368W        W73113  10.780  33.410   1.799
13369W        W73114  31.562  43.773   3.354
13370W        W73115  30.951  15.712   2.289
13371W        W73116   9.210  25.084   1.271
13372W        W73117  24.203   1.382  13.362
13373W        W73118  32.443  19.555  13.357
13374W        W73119  35.402  11.213   4.274
13375W        W73120  39.513  22.575   2.194
13376W        W73121  31.088  19.224   3.361
13377W        W73122  40.987   6.894   0.745
13378W        W73123  41.963  41.456  13.529
13379W        W73124  38.845  10.303   0.315
13380W        W73125  15.147  39.939   1.711
13381W        W73126   7.741   8.197  12.500
13382W        W73127   9.384  32.101   2.854
13383W        W73128   0.895  25.971   0.364
13384W        W73129  39.359   8.766   0.414
13385W        W73130  16.130  37.516  11.561
13386W        W73131  33.989   0.307   0.340
13387W        W73132  25.991  23.986  13.967
13388W        W73133   1.911  32.445  14.802
13389W        W73134  21.545  38.463   2.400
13390W        W73135  38.508  42.865   3.212
13391W        W73136   4.722  22.645   0.886
13392W        W73137  41.314   1.822   4.661
13393W        W73138   5.333  10.198  12.876
13394W        W73139  41.028   8.839  13.525
13395W        W73140  29.001  11.210  13.523
13396W        W73141   8.758  11.831  11.577
13397W        W73142  40.054  13.122   4.191
13398W        W73143  40.317  12.187  12.368
13399W        W73144  10.849   4.725   3.770
13400W        W73145  23.130   3.774  10.907
13401W        W73146  42.515  12.327   0.411
13402W        W73147  23.530  36.908  10.422
13403W        W73148  11.308  16.268   3.744
13404W        W73149   6.290  39.063  13.497
13405W        W73150  43.277  22.614  12.467
13406W        W73151  18.631  14.159   3.703
13407W        W73152  25.183   7.335  11.476
13408W        W73153   2.875  41.020   4.201
13409W        W73154   4.880  19.164   1.717
13410W        W73155  20.039  22.658  11.948
13411W        W73156  21.037  28.952  11.513
13412W        W73157  18.723  15.725   0.852
13413W        W73158   7.768  16.790  12.364
13414W        W73159  36.381  30.440   2.836
13415W        W73160  31.962   7.202   3.303
13416W        W73161  35.889  36.498   0.838
13417W        W73162  27.961  31.145   2.749
13418W        W73163  13.136  30.010   2.791
13419W        W73164  26.640  42.444   1.767
13420W        W73165  15.577   8.772   2.225
13421W        W73166  42.963  19.576  11.379
13422W        W73167  38.561  41.840  13.856
13423W        W73168  21.250  38.014   2.740
13424W        W73169  26.035  26.195  12.935
13425W        W73170  11.776  26.961  12.082
13426W        W73171  33.120  40.972  14.858
13427W        W73172  30.986  38.878  10.064
13428W        W73173  28.505  14.714   1.871
13429W        W73174  28.141  34.555   1.821
13430W        W73175   6.427  42.479  12.032
13431W        W73176  36.471  24.071  10.546
13432W        W73177  10.147  44.320   3.148
13433W        W73178  43.411  29.150   9.449
13434W        W73179  14.603   9.175   2.299
13435W        W73180  43.293  39.837   0.304
13436W        W73181  39.062   8.756  14.855
13437W        W73182  21.161  32.533   3.206
13438W        W73183  44.466  22.060   2.349
13439W        W73184  17.720  44.305  10.999
13440W        W73185   4.728  26.628  12.923
13441W        W73186  37.950  12.799  11.454
13442W        W73187  36.979  17.242  11.889
13443W        W73188   4.717  17.185   1.235
13444W        W73189  43.331  38.549  14.334
13445W        W73190  17.100   1.470   0.427
13446W        W73191   8.790  44.957  13.438
13447W        W73192  30.064   6.286  10.912
13448W        W73193  42.501  13.215  10.616
13449W        W73194  23.710   6.213  12.469
13450W        W73195  33.934   2.368   4.340
13451W        W73196  22.210  30.602   4.609
13452W        W73197  28.168   5.882   3.816
13453W        W73198   4.895  33.535  12.037
13454W        W73199  26.033   4.221  11.884
13455W        W73200  35.951  19.652   1.738
13456W        W73201  41.802   7.724   4.253
13457W        W73202   9.159  42.819   3.313
13458W        W73203  35.378   6.402   4.241
13459W        W73204  34.533  17.651  13.980
13460W        W73205   0.435  32.886   3.805
13461W        W73206  29.119   0.482  10.979
13462W        W73207  31.034  24.189  14.909
13463W        W73208  44.299   5.414  10.062
13464W        W73209   8.844   0.782  12.491
13465W        W73210  16.080  35.969   5.165
13466W        W73211  29.936  34.104   1.762
13467W        W73212  42.466  34.492  13.956
13468W        W73213  39.033  31.587   0.895
13469W        W73214  11.310  14.785   2.757
13470W        W73215   9.349  38.541   3.374
13471W        W73216  26.539  22.224  11.414
13472W        W73217  34.507   6.798   0.767
13473W        W73218  20.708   1.749   2.267
13474W        W73219  21.617   0.441  12.006
13475W        W73220   3.822  27.517  11.402
13476W        W73221  11.317  10.826  14.315
13477W        W73222   5.285  10.195   1.788
13478W        W73223  18.119  27.480  12.954
13479W        W73224   4.796   6.407  10.632
13480W        W73225  43.334   9.764  13.541
13481W        W73226   1.452  40.506   1.291
13482W        W73227  26.631  33.557  14.499
13483W        W73228  16.189  39.017  13.918
13484W        W73229  27.495  29.637  11.909
13485W        W73230   4.716  26.107  12.987
13486W        W73231  13.303  24.108   1.813
13487W        W73232  24.710  27.978   0.294
13488W        W73233  33.501  26.038  13.048
13489W        W73234  22.054  30.154  12.890
13490W        W73235   9.874  32.485  14.368
13491W        W73236  38.567  27.466  12.016
13492W        W73237   1.401   9.362  12.860
13493W        W73238  15.720   8.310   1.327
13494W        W73239  31.899  22.557  10.595
13495W        W73240  10.205  33.578  13.466
13496W        W73241   8.655  38.074   2.325
13497W        W73242  35.972  17.130   2.244
13498W        W73243  10.268  31.483  14.994
13499W        W73244  41.848  33.892   1.874
13500W        W73245  43.467  33.895  10.517
13501W        W73246  21.591  13.140   4.619
13502W        W73247  43.446  36.879   1.905
13503W        W73248  40.526  26.951   1.223
13504W        W73249  16.104  27.193   0.752
13505W        W73250  32.007  27.056   4.321
13506W        W73251  36.854  11.837  14.798
13507W        W73252   2.807  20.586  13.324
13508W        W73253  31.965  42.387  14.509
13509W        W73254  22.723  41.866   4.653
13510W        W73255   4.816  32.995   9.931
13511W        W73256  24.033   8.208  12.416
13512W        W73257  32.492  41.355  14.978
13513W        W73258   5.812   4.355   0.951
13514W        W73259  38.006   4.324  13.058
13515W        W73260  33.090  13.621  11.390
13516W        W73261  42.951   9.392  14.286
13517W        W73262  13.113  43.406  11.921
13518W        W73263   8.361  39.880   3.265
13519W        W73264   1.458  10.141  10.427
13520W        W73265  21.249  30.648  10.452
13521W        W73266   9.810   9.252   4.203
13522W        W73267  31.568  19.697  13.881
13523W        W73268  16.739  11.240  14.473
13524W        W73269  25.966  31.111   4.740
13525W        W73270   7.294  44.496   3.828
13526W        W73271  22.597  27.075  13.828
13527W        W73272   3.305   7.698   2.372
13528W        W73273  40.317  11.185  10.560
13529W        W73274  33.097  35.934  14.339
13530W        W73275  31.904  15.727   0.814
13531W        W73276  32.007  26.132   4.741
13532W        W73277   9.888  39.897   3.211
13533W        W73278  37.858  40.843   3.180
13534W        W73279  44.425  33.529   3.263
13535W        W73280  12.657  33.546   1.841
13536W        W73281  38.037   1.380  10.924
13537W        W73282  32.952  13.254   2.352
13538W        W73283  31.977  32.106  10.927
13539W        W73284  28.050   9.308  14.949
13540W        W73285  16.567  15.732   0.834
13541W        W73286   2.720  25.067   3.362
13542W        W73287  12.227   4.923   2.374
13543W        W73288  32.939   5.770  12.555
13544W        W73289  42.823  35.945   3.203
13545W        W73290  17.785  24.614   2.264
13546W        W73291  14.804  21.098   3.779
13547W        W73292  31.409  33.051   3.734
13548W        W73293  20.634  22.708  12.403
13549W        W73294   7.281  14.641   3.658
13550W        W73295   0.482  44.910   1.333
13551W        W73296  41.925   7.900  13.530
13552W        W73297  21.736  18.157   3.295
13553W        W73298  13.346  13.775   2.829
13554W        W73299  36.031  21.232   1.822
13555W        W73300  42.850  36.984  12.097
13556W        W73301  36.544  30.622   3.353
13557W        W73302  36.503  41.390  11.065
13558W        W73303   3.380  33.524  13.423
13559W        W73304   4.711   5.329   3.787
13560W        W73305   2.348  38.057   3.215
13561W        W73306  31.977  25.012  10.443
13562W        W73307  41.366   4.330   2.880
13563W        W73308   7.389  34.010  11.953
13564W        W73309  28.059   0.859   5.163
13565W        W73310   7.368  27.458   0.826
13566W        W73311  20.216  24.654   1.741
13567W        W73312  29.482  24.521  14.923
13568W        W73313  41.430  22.682  13.050
13569W        W73314  13.332  31.147   3.203
13570W        W73315   2.899  42.413  13.907
13571W        W73316  26.503  30.934  11.977
13572W        W73317  31.621  22.599   3.799
13573W        W73318  42.889   3.396   2.385
13574W        W73319  23.234  43.828  11.581
13575W        W73320   4.795  39.486   3.374
13576W        W73321  30.417   7.867   3.754
13577W        W73322  22.110  14.593  13.363
13578W        W73323   8.705   8.226  14.369
13579W        W73324  28.181  40.433  13.980
13580W        W73325  20.626  39.398  14.513
13581W        W73326  16.591  10.380   4.817
13582W        W73327  30.593  36.370   0.827
13583W        W73328  32.923  20.624   0.292
13584W        W73329  40.416  21.178   4.682
13585W        W73330  22.165  36.576   2.413
13586W        W73331  19.573  14.198  14.896
13587W        W73332  22.577  12.244  10.141
13588W        W73333   5.760  28.467   4.772
13589W        W73334  39.918  40.391   3.157
13590W        W73335  27.488  41.991   3.682
13591W        W73336  32.965  33.539  12.049
13592W        W73337  38.554  16.165  11.969
13593W        W73338   5.775  28.001   4.288
13594W        W73339  21.133  28.596   2.272
13595W        W73340  30.541  36.927   0.869
13596W        W73341  32.102  35.104  10.554
13597W        W73342  16.306  21.197  10.003
13598W        W73343  10.684   2.789   0.337
13599W        W73344   8.778  17.659  14.287
13600W        W73345  35.054  37.083   2.288
13601W        W73346  40.534   6.293   4.346
13602W        W73347  39.044  37.834  10.643
13603W        W73348  35.413   3.882   4.323
13604W        W73349   8.662  39.514  14.278
13605W        W73350   6.273   6.326   5.129
13606W        W73351   7.373  13.184  12.342
13607W        W73352  16.270  13.624   4.687
13608W        W73353  11.235  25.485   4.157
13609W        W73354  39.833  22.070   3.752
13610W        W73355  37.976   5.724  12.340
13611W        W73356  19.083  24.170   3.742
13612W        W73357  14.094  38.013   0.333
13613W        W73358  35.011  31.109   4.197
13614W        W73359   7.221   1.945  14.840
13615W        W73360  39.829  37.968  12.545
13616W        W73361  13.118  20.108  14.410
13617W        W73362  31.644  16.805   3.763
13618W        W73363  39.933  19.279   1.268
13619W        W73364  43.307  12.772   2.182
13620W        W73365  20.113  14.641  10.929
13621W        W73366  34.033  22.731   0.872
13622W        W73367  36.982  22.169  10.569
13623W        W73368  34.509  24.209   0.396
13624W        W73369  30.059   0.329   2.254
13625W        W73370  28.580  18.664  12.359
13626W        W73371   2.756  27.083  11.435
13627W        W73372  20.548   6.790  10.563
13628W        W73373  39.519  35.460   0.840
13629W        W73374   2.756  32.926   0.845
13630W        W73375  42.032  14.604   1.257
13631W        W73376   9.708  37.481   0.779
13632W        W73377  20.172  22.678   5.305
13633W        W73378  35.405  16.655   4.658
13634W        W73379  24.667   7.843   0.867
13635W        W73380  39.490   2.352   1.846
13636W        W73381  29.545  15.235  14.500
13637W        W73382  26.066  25.078   3.250
13638W        W73383  13.615  17.260  14.403
13639W        W73384  35.099  12.219  10.413
13640W        W73385  34.930  10.220   5.114
13641W        W73386   2.411  16.098   1.363
13642W        W73387  30.137  22.090  10.407
13643W        W73388  16.181  10.833   0.378
13644W        W73389  11.369  24.518  13.899
13645W        W73390  16.093  12.747   1.785
13646W        W73391   4.336  10.789  14.891
13647W        W73392  27.596  41.434  10.929
13648W        W73393  29.478  23.675   3.799
13649W        W73394  20.090  11.796  12.415
13650W        W73395  25.010  30.052   3.702
13651W        W73396  14.743  27.142  13.533
13652W        W73397  42.400   2.285   0.844
13653W        W73398  15.282  33.529  12.924
13654W        W73399  32.626   2.946   3.250
13655W        W73400  35.903   4.881  11.396
13656W        W73401  41.435  12.328   0.450
13657W        W73402  38.455  32.134   1.861
13658W        W73403  30.054  24.513  12.834
13659W        W73404  18.733  33.103  12.953
13660W        W73405  32.982  43.961  11.012
13661W        W73406  36.521  30.907  11.479
13662W        W73407  16.701  12.753   0.262
13663W        W73408   9.230  14.324  10.618
13664W        W73409  28.625   7.332   3.669
13665W        W73410  32.515  17.585  13.330
13666W        W73411  36.929  28.961   0.866
13667W        W73412  29.028   7.674   3.683
13668W        W73413   5.811  36.539  13.491
13669W        W73414  18.181  28.141   0.938
13670W        W73415  42.451  22.688  11.102
13671W        W73416  42.870  22.128  10.478
13672W        W73417  39.396  10.144   3.845
13673W        W73418  35.515  18.595   0.732
13674W        W73419   4.293  42.894   2.828
13675W        W73420  40.461  20.557  10.504
13676W        W73421   3.315  26.533  13.512
13677W        W73422  39.864  38.517   4.117
13678W        W73423  39.061  13.266  13.052
13679W        W73424  28.669  11.289   3.677
13680W        W73425   7.799  10.759  12.459
13681W        W73426  22.087  44.969   4.769
13682W        W73427  23.032  41.021   4.155
13683W        W73428  23.119  21.694  12.359
13684W        W73429  17.106   7.276  14.839
13685W        W73430  25.513   7.783  14.007
13686W        W73431  22.601   0.325   4.254
13687W        W73432  11.652   6.391  14.797
13688W        W73433  32.442  21.136   1.363
13689W        W73434  39.442   5.329  11.899
13690W        W73435  25.029  21.579   2.808
13691W        W73436   9.304  18.051   1.769
13692W        W73437  40.413  38.913   3.791
13693W        W73438  32.079  41.422  10.038
13694W        W73439  16.097  40.936  11.543
13695W        W73440  44.968  27.496   5.322
13696W        W73441  34.454   1.362  12.919
13697W        W73442  42.846   2.748   0.916
13698W        W73443   5.245  42.328   1.280
13699W        W73444  24.712  37.444   1.711
13700W        W73445   1.443  31.141  13.793
13701W        W73446  35.999  32.993  14.025
13702W        W73447  16.224  14.695   2.756
13703W        W73448  42.967  15.740   0.347
13704W        W73449  43.852  33.917  14.395
13705W        W73450  27.952   4.346  14.504
13706W        W73451   6.376  36.358   1.912
13707W        W73452  16.182  34.997   3.740
13708W        W73453  23.652   2.803   2.684
13709W        W73454   7.896  21.520  14.858
13710W        W73455  27.642  43.803   4.189
13711W        W73456   5.202   1.854  10.444
13712W        W73457  24.022  33.881  11.044
13713W        W73458  10.348  12.629  12.992
13714W        W73459  36.585   6.361  11.567
13715W        W73460  18.146  38.857   1.895
13716W        W73461  31.615  10.208   2.346
13717W        W73462  37.830  16.289   3.704
13718W        W73463  32.014  29.940   3.379
13719W        W73464  15.142  12.342   0.779
13720W        W73465  11.749  21.251   3.811
13721W        W73466  17.801  30.045  11.065
13722W        W73467   9.249  13.130   2.338
13723W        W73468  11.128  17.108   1.864
13724W        W73469  28.454  17.627   0.388
13725W        W73470  31.431  27.017   4.643
13726W        W73471  33.604  28.980  12.449
13727W        W73472  41.796   6.417  10.065
13728W        W73473  44.438  35.057  10.605
13729W        W73474  40.322  11.650  10.032
13730W        W73475  38.856  42.358   2.837
13731W        W73476  31.540  44.766  12.958
13732W        W73477  27.667  40.353  10.994
13733W        W73478   1.348  34.958  12.447
13734W        W73479   6.312   2.232   1.376
13735W        W73480  16.101   9.666  12.097
13736W        W73481   2.263  15.193  14.433
13737W        W73482  17.780  37.064  10.091
13738W        W73483  20.219  37.021  13.955
13739W        W73484  19.628  11.839   4.732
13740W        W73485  28.548  21.144  10.531
13741W        W73486  44.270  15.791  10.994
13742W        W73487  14.203  16.773   0.341
13743W        W73488   1.957  17.728  13.411
13744W        W73489   9.213  21.161  11.963
13745W        W73490  22.570  14.813   0.726
13746W        W73491   2.905  33.537  11.129
13747W        W73492   9.388  32.133   0.386
13748W        W73493   5.737  32.536   2.751
13749W        W73494  44.384  25.586   0.824
13750W        W73495   7.886  14.192   2.293
13751W        W73496  11.347  42.370   0.404
13752W        W73497  41.332  19.671  11.931
13753W        W73498   1.939  31.915   3.352
13754W        W73499  40.543  44.771   2.356
13755W        W73500  37.522  33.875   1.407
13756W        W73501   5.205  36.433  13.443
13757W        W73502  22.213  26.044   4.667
13758W        W73503  39.914  41.451  14.979
13759W        W73504  17.205  25.962   3.352
13760W        W73505  42.958  20.209  10.941
13761W        W73506  29.143  25.629   4.250
13762W        W73507  41.812  18.642  14.802
13763W        W73508  36.884  24.579  11.855
13764W        W73509  18.060  20.203   2.354
13765W        W73510  11.189  11.194  10.984
13766W        W73511  13.175   4.785  13.498
13767W        W73512  13.261   2.888   2.668
13768W        W73513   1.899  28.512  12.395
13769W        W73514  24.146  35.359   3.145
13770W        W73515  12.351   6.753  14.322
13771W        W73516  39.841  28.611   4.187
13772W        W73517   5.419  24.625   3.818
13773W        W73518  31.133  30.578   3.634
13774W        W73519   9.394  32.999   3.823
13775W        W73520  12.702   9.686  11.932
13776W        W73521   2.448   9.357   1.259
13777W        W73522  26.053  13.146   4.279
13778W        W73523  31.554  33.884   4.650
13779W        W73524   7.209   5.281  12.867
13780W        W73525  20.146   3.366  13.006
13781W        W73526  25.167  20.595   3.171
13782W        W73527   2.281  18.259   0.321
13783W        W73528   0.796  38.983   2.186
13784W        W73529  23.143  15.290   2.863
13785W        W73530  32.565  24.021   0.773
13786W        W73531  31.057  35.014   4.737
13787W        W73532  12.213  18.771  13.849
13788W        W73533  27.566  40.942   2.670
13789W        W73534  21.246  32.903   0.465
13790W        W73535  20.077  16.117   4.744
13791W        W73536   6.774   4.940   0.764
13792W        W73537  18.579  29.510   3.338
13793W        W73538  32.955  32.077   1.760
13794W        W73539  42.811  38.979   1.765
13795W        W73540  22.613   1.849  13.387
13796W        W73541   1.968  21.655   5.195
13797W        W73542  27.127   6.822  13.393
13798W        W73543  18.571  43.004   2.783
13799W        W73544  32.404   6.295   1.902
13800W        W73545  44.810  44.976  13.366
13801W        W73546   6.288  32.473   0.752
13802W        W73547  15.244  23.528  13.396
13803W        W73548  17.624  17.725   2.416
13804W        W73549  12.236  24.679   0.782
13805W        W73550   8.704  16.696   0.303
13806W        W73551   9.191  32.544   3.642
13807W        W73552  10.707   0.250  10.933
13808W        W73553   8.662  23.510   4.165
13809W        W73554  43.937  42.839  13.541
13810W        W73555   4.267   3.852  11.929
13811W        W73556  43.773  42.320  10.937
13812W        W73557   9.864  43.000   0.861
13813W        W73558  17.734   7.775  14.024
13814W        W73559  16.757  12.320   0.383
13815W        W73560  18.152  10.234   2.356
13816W        W73561  22.548  24.690  14.419
13817W        W73562   6.247  18.706  12.571
13818W        W73563  37.366   6.781  14.410
13819W        W73564  42.936  19.073  10.490
13820W        W73565  36.444  19.743  10.966
13821W        W73566  14.790  23.668  11.118
13822W        W73567  38.376   7.733  13.471
13823W        W73568  22.117  42.024  12.050
13824W        W73569  18.656  35.414   4.755
13825W        W73570  13.718  15.206  14.358
13826W        W73571  38.409  43.406  12.383
13827W        W73572  34.001  20.696   0.801
13828W        W73573  31.443   6.783   1.763
13829W        W73574  19.749   9.307   4.118
13830W        W73575  44.475  13.647   3.321
13831W        W73576   8.354  19.204   4.606
13832W        W73577  23.689  15.119   3.251
13833W        W73578  38.435  28.488   4.348
13834W        W73579  28.075   4.439   9.932
13835W        W73580  42.420   4.926   1.868
13836W        W73581   4.356  29.168  13.455
13837W        W73582  21.566  27.992   4.246
13838W        W73583  17.239  36.382   1.751
13839W        W73584  24.998  42.775   3.165
13840W        W73585  33.015  33.528   1.795
13841W        W73586  22.666  19.115   2.848
13842W        W73587  12.285  19.683  11.906
13843W        W73588  39.954  38.359  14.323
13844W        W73589  33.571  16.205   3.218
13845W        W73590  26.536  31.576   0.376
13846W        W73591  24.658  29.059  13.481
13847W        W73592  35.032  44.311  13.794
13848W        W73593  29.437  12.324  13.447
13849W        W73594   8.172  33.964   1.270
13850W        W73595  29.548  22.015  14.025
13851W        W73596  11.162  14.130  11.971
13852W        W73597  21.117  29.072  10.121
13853W        W73598  33.443  43.437   1.766
13854W        W73599  21.200  25.070  14.839
13855W        W73600  31.145  34.070   4.669
13856W        W73601  19.757  42.384   4.264
13857W        W73602  38.365   8.792  13.063
13858W        W73603  25.583   5.826  14.298
13859W        W73604  41.994   0.363   2.322
13860W        W73605  20.236  19.113   4.192
13861W        W73606   8.857   2.348   0.401
13862W        W73607  25.209   3.243  13.862
13863W        W73608  25.188  12.737   2.349
13864W        W73609  26.965  26.701   0.467
13865W        W73610  17.282   1.299   3.709
13866W        W73611  20.736  27.519  13.444
13867W        W73612  34.010  40.020  14.440
13868W        W73613  17.719   8.276   3.683
13869W        W73614   3.461  12.640  13.444
13870W        W73615  16.635  38.504  12.570
13871W        W73616  20.681  14.123   5.265
13872W        W73617  26.514   1.249   1.388
13873W        W73618  42.016  15.667   0.888
13874W        W73619  14.101   1.787  14.316
13875W        W73620  35.861  10.318  14.808
13876W        W73621  13.630   4.288   1.213
13877W        W73622  23.641  25.146   3.696
13878W        W73623  19.121  10.757  14.385
13879W        W73624   3.356  26.554  11.055
13880W        W73625  43.784   5.774   4.265
13881W        W73626  17.678  36.914  10.420
13882W        W73627  15.641  25.620   4.678
13883W        W73628  21.061   0.978  10.905
13884W        W73629  10.261  16.586  10.565
13885W        W73630  16.739   9.863   4.660
13886W        W73631   8.351  27.021  10.570
13887W        W73632  30.424   9.227  12.457
13888W        W73633  35.041  40.498  13.943
13889W        W73634  20.536  33.059   9.661
13890W        W73635   1.303  37.538  14.997
13891W        W73636  35.511  17.760  14.788
13892W        W73637  10.221   3.794   3.239
13893W        W73638  21.644   7.361   3.695
13894W        W73639  43.954   8.847  10.409
13895W        W73640  34.472  15.602  11.871
13896W        W73641  25.087  42.837   2.849
13897W        W73642   1.315   4.357  13.446
13898W        W73643  34.942  19.268   3.324
13899W        W73644  22.672  23.045  14.456
13900W        W73645   5.889   8.167   2.900
13901W        W73646  15.659  26.520  11.392
13902W        W73647  43.347   2.756   2.805
13903W        W73648  11.336   1.439   3.363
13904W        W73649  28.934  43.280   4.702
13905W        W73650  28.060  27.465   0.433
13906W        W73651  27.628  28.524   3.697
13907W        W73652  31.630   4.877  11.122
13908W        W73653  17.099  21.076   1.824
13909W        W73654   8.257  43.397  12.962
13910W        W73655  44.911  44.855  14.980
13911W        W73656   3.772  30.606  14.357
13912W        W73657  37.879  13.723   1.818
13913W        W73658   4.217  16.711   4.199
13914W        W73659  15.216  40.439  14.776
13915W        W73660  44.315  23.136   0.460
13916W        W73661   9.768  19.220  11.100
13917W        W73662  38.888   4.360   3.235
13918W        W73663  15.579  41.822   0.358
13919W        W73664  11.213  10.278   0.352
13920W        W73665  29.093  32.591   4.297
13921W        W73666  21.111   3.402  11.076
13922W        W73667  42.305  25.693   2.277
13923W        W73668  29.475  44.009  11.116
13924W        W73669  29.546   3.272  11.529
13925W        W73670  14.338  11.636   0.929
13926W        W73671  42.894   3.908   1.211
13927W        W73672  15.288   1.847  11.111
13928W        W73673   7.375  43.434   4.352
13929W        W73674  24.168  18.074  14.863
13930W        W73675  40.902  11.178   3.204
13931W        W73676  22.583   5.213  12.520
13932W        W73677   6.258  24.973  12.417
13933W        W73678  10.383  28.936  11.574
13934W        W73679   6.766  17.078  12.927
13935W        W73680  34.501  19.106   1.809
13936W        W73681  31.922  44.838   1.847
13937W        W73682  29.001   4.917  13.057
13938W        W73683  18.185  16.230   4.751
13939W        W73684  22.044  29.169  13.888
13940W        W73685  38.939  26.043  11.576
13941W        W73686  34.512   9.187  12.459
13942W        W73687  32.496  27.130   4.324
13943W        W73688  13.745  12.679  14.017
13944W        W73689   1.302  12.729  14.796
13945W        W73690  22.561  12.295   4.121
13946W        W73691   1.748  18.717  10.491
13947W        W73692   1.291  34.429  13.811
13948W        W73693   5.727  32.596  12.550
13949W        W73694   6.849  44.005   2.377
13950W        W73695   5.391  42.522   0.965
13951W        W73696  16.736   0.352  14.928
13952W        W73697  37.830   6.207  11.546
13953W        W73698  15.155  13.116   3.268
13954W        W73699   9.710  38.360   4.346
13955W        W73700  41.868  12.642  12.008
13956W        W73701   1.756  32.951  14.795
13957W        W73702   7.402  43.371   0.853
13958W        W73703  35.036  30.608   1.430
13959W        W73704   2.861  36.055  14.015
13960W        W73705   0.442  36.573  11.501
13961W        W73706  18.631  31.136   0.255
13962W        W73707  17.759  29.619   2.376
13963W        W73708   6.203   9.155  12.380
13964W        W73709   5.271  11.141  11.938
13965W        W73710  20.666  19.616   2.903
13966W        W73711  10.726  38.940   0.785
13967W        W73712  40.401  32.498   2.770
13968W        W73713   7.303  15.286   2.837
13969W        W73714   2.407  22.069   3.363
13970W        W73715  25.005  36.056  11.960
13971W        W73716  19.550  29.142   2.387
13972W        W73717  29.050  12.116  11.907
13973W        W73718   7.295  37.506  12.505
13974W        W73719   2.850  29.947   2.242
13975W        W73720  41.833   9.194  11.567
13976W        W73721  36.526  14.112  14.889
13977W        W73722  13.632  11.766  12.094
13978W        W73723   4.446  31.611  13.033
13979W        W73724  42.365  11.294   2.896
13980W        W73725  44.363   5.804   2.664
13981W        W73726   8.332  24.521   0.867
13982W        W73727  40.350  16.106  14.284
13983W        W73728  36.582  33.915  10.558
13984W        W73729  39.335   7.330  11.096
13985W        W73730  22.150  31.026   2.314
13986W        W73731   6.218  36.866  14.788
13987W        W73732  21.666  29.114  11.046
13988W        W73733  33.530  28.154   1.819
13989W        W73734  11.662  10.325  10.608
13990W        W73735   3.749   1.369  14.478
13991W        W73736   5.312  34.415  12.987
13992W        W73737  19.047  30.119  13.354
13993W        W73738  21.059  23.218  13.875
13994W        W73739   9.279   1.958  13.362
13995W        W73740   6.864  42.989   4.173
13996W        W73741  12.168  11.796   3.145
13997W        W73742  16.586  34.957   3.709
13998W        W73743   5.776  25.645   2.874
13999W        W73744  35.487  33.011   3.861
14000W        W73745  39.060  21.251   4.238
14001W        W73746  11.250  32.458  10.538
14002W        W73747  39.549  21.650   3.759
14003W        W73748   8.686   9.291   0.453
14004W        W73749  24.513  13.317  13.467
14005W        W73750  24.705  37.422  11.126
14006W        W73751  39.389  30.950  10.496
14007W        W73752  13.774   3.942   2.874
14008W        W73753  20.137   7.234  14.961
14009W        W73754  33.389  43.287   3.165
14010W        W73755  28.574  35.532  11.397
14011W        W73756  26.067  29.440  10.429
14012W        W73757   0.376  32.406   4.605
14013W        W73758  17.586  12.134  10.984
14014W        W73759   6.201   1.860  14.318
14015W        W73760  21.567  40.830  11.899
14016W        W73761  10.208  41.372  12.506
14017W        W73762  21.722  18.089  13.006
14018W        W73763   0.289  19.600   1.267
14019W        W73764  28.655  22.205   0.752
14020W        W73765  40.053  37.037  12.511
14021W        W73766  13.688  39.451   3.834
14022W        W73767  20.098   7.236   3.679
14023W        W73768  22.091  12.704   0.878
14024W        W73769  29.023  23.187   1.246
14025W        W73770  32.435  32.092   3.292
14026W        W73771  11.252  22.562   4.113
14027W        W73772  13.209  37.870   0.760
14028W        W73773  12.309  20.581  12.913
14029W        W73774  12.630   3.388  13.827
14030W        W73775  15.260   5.405   1.881
14031W        W73776  16.659  41.955  12.502
14032W        W73777  33.402   0.945  12.555
14033W        W73778   6.256  18.250   4.723
14034W        W73779  18.279  11.716   4.666
14035W        W73780   7.848   4.923   4.224
14036W        W73781  11.191   1.952  14.462
14037W        W73782  35.519  14.818  10.996
14038W        W73783  11.314  41.534   2.754
14039W        W73784  11.831   6.746   1.244
14040W        W73785  30.614  28.451   3.330
14041W        W73786  10.695  27.056   1.819
14042W        W73787   4.237  14.788  13.356
14043W        W73788  35.564  13.258   3.363
14044W        W73789  38.071  37.033   2.384
14045W        W73790  21.713  19.555  14.319
14046W        W73791  14.286  22.206  12.447
14047W        W73792  20.760  31.563   1.320
14048W        W73793   5.251  30.919  14.462
14049W        W73794  18.560  31.636  11.554
14050W        W73795   4.409  24.128   3.247
14051W        W73796   5.380  16.791  13.891
14052W        W73797   4.296  29.474   1.717
14053W        W73798   0.396   8.766  12.956
14054W        W73799  15.234   8.884   3.252
14055W        W73800  38.551  35.970   2.718
14056W        W73801   6.200  41.496   3.280
14057W        W73802   0.947   1.296  14.968
14058W        W73803  39.037  18.607   1.869
14059W        W73804   7.391  41.393  10.639
14060W        W73805  43.467  26.701  12.431
14061W        W73806  22.038  15.249  12.454
14062W        W73807  13.837  41.459   2.383
14063W        W73808  18.748   6.383  12.395
14064W        W73809  42.812  21.188   3.763
14065W        W73810   3.869  41.859  13.996
14066W        W73811  29.140  21.544   3.362
14067W        W73812  39.530  28.991   4.738
14068W        W73813  40.996  25.081  11.504
14069W        W73814  12.118  34.513   0.441
14070W        W73815  20.679  12.295   0.401
14071W        W73816  13.350  34.049  11.427
14072W        W73817  12.763   4.340   0.394
14073W        W73818  21.063   3.953   3.358
14074W        W73819  40.487  43.466  13.463
14075W        W73820  31.524  37.054  13.059
14076W        W73821   2.845  17.211  13.833
14077W        W73822  27.473  33.560   4.727
14078W        W73823  41.477   4.916  13.517
14079W        W73824  35.454  29.031   3.220
14080W        W73825  14.804  18.635  12.432
14081W        W73826  40.869  43.819  14.449
14082W        W73827  38.571  13.273   1.312
14083W        W73828  18.607   6.421   0.839
14084W        W73829   6.727   9.299   0.292
14085W        W73830   6.818  10.227  12.982
14086W        W73831  39.044  39.328  13.360
14087W        W73832  39.445  31.545  13.543
14088W        W73833   8.198  10.692  14.793
14089W        W73834  18.773  42.290  14.383
14090W        W73835  26.593  12.746  10.405
14091W        W73836  26.169   1.733   3.741
14092W        W73837   6.391  42.386   3.231
14093W        W73838  16.096  32.928   2.355
14094W        W73839   6.333  20.718  11.454
14095W        W73840   2.842  10.822  11.994
14096W        W73841  28.456  36.848   4.632
14097W        W73842  25.684   9.362   2.756
14098W        W73843  36.392  11.821   2.340
14099W        W73844  36.036  36.505  11.423
14100W        W73845  17.072  41.498  13.424
14101W        W73846  23.152   7.875  13.921
14102W        W73847  12.617  16.754   3.722
14103W        W73848  37.482   2.734   4.279
14104W        W73849  44.773  16.093  12.882
14105W        W73850   6.714  39.408   1.425
14106W        W73851  44.001  34.591   2.765
14107W        W73852  33.882  17.219   0.322
14108W        W73853  34.414   5.372   1.418
14109W        W73854  42.404  11.136  14.003
14110W        W73855  23.597  31.490  11.070
14111W        W73856  41.913   1.800   4.308
14112W        W73857  37.884  17.199  11.928
14113W        W73858  28.163  25.045   9.939
14114W        W73859  37.439  29.493   1.901
14115W        W73860  16.149  26.702  10.507
14116W        W73861  17.603  21.530  14.776
14117W        W73862  10.289  23.210  11.979
14118W        W73863  16.652  26.035  12.547
14119W        W73864  27.002   0.778   1.413
14120W        W73865  24.089  42.975   3.703
14121W        W73866  35.106   9.168   0.294
14122W        W73867   1.437  38.351  13.398
14123W        W73868  31.150  31.622  13.831
14124W        W73869  11.858  29.039  11.107
14125W        W73870   9.777  39.402  13.931
14126W        W73871   4.891  44.432   5.205
14127W        W73872  17.649  19.704   3.683
14128W        W73873  10.217  11.823   4.718
14129W        W73874  10.336  28.465  11.958
14130W        W73875  36.578  13.108   5.168
14131W        W73876  21.514  34.504  10.155
14132W        W73877  24.197  33.561  11.857
14133W        W73878  12.310  36.376   5.136
14134W        W73879  20.082   2.296  13.323
14135W        W73880  34.061   0.454  12.918
14136W        W73881  22.144  25.545  14.966
14137W        W73882  44.998  40.883   9.932
14138W        W73883  16.633  19.572  10.478
14139W        W73884  37.369   7.733  13.039
14140W        W73885  37.837  31.432  14.005
14141W        W73886  14.599   3.263   0.837
14142W        W73887  10.191   3.435  14.468
14143W        W73888  29.469  42.383   1.425
14144W        W73889   8.779  43.954  12.355
14145W        W73890  27.136  41.036  13.053
14146W        W73891  21.254  34.934  11.051
14147W        W73892  14.315  36.461   2.408
14148W        W73893  23.641   7.316   3.692
14149W        W73894  32.131  30.030  12.966
14150W        W73895  14.284  19.780   4.731
14151W        W73896  16.203  14.143   2.737
14152W        W73897  25.637  41.347  10.455
14153W        W73898  11.342  41.442  10.999
14154W        W73899  28.003   2.276  11.048
14155W        W73900  32.583  24.484  14.994
14156W        W73901  44.298  28.037  12.997
14157W        W73902  44.407  44.986   1.413
14158W        W73903  18.209  15.294   3.244
14159W        W73904  12.130  19.739   1.868
14160W        W73905  15.773  27.992  14.953
14161W        W73906  18.200   9.812  12.830
14162W        W73907  18.558  18.723  14.006
14163W        W73908  42.982  38.364   4.170
14164W        W73909  28.639  15.163   1.281
14165W        W73910  42.289  27.987   4.222
14166W        W73911  34.522  28.590  11.012
14167W        W73912  12.333  38.380   2.380
14168W        W73913  13.768  34.380   3.355
14169W        W73914  40.437  18.589  13.866
14170W        W73915  40.818  30.609  10.409
14171W        W73916   7.721  44.895  12.496
14172W        W73917  11.815  11.740   4.257
14173W        W73918  11.756  21.133   3.287
14174W        W73919  22.197  25.525   2.352
14175W        W73920  30.922  25.661  10.560
14176W        W73921  32.064  26.598  11.006
14177W        W73922  12.125  20.630  14.464
14178W        W73923  10.287  14.321   3.864
14179W        W73924  40.926   9.763  11.545
14180W        W73925  31.519  38.953  10.996
14181W        W73926  25.714  22.532   9.958
14182W        W73927   7.272  35.945   4.228
14183W        W73928  44.935   0.950  11.397
14184W        W73929  36.508  26.049  11.919
14185W        W73930  26.996  11.155   4.244
14186W        W73931   2.721  42.468  14.975
14187W        W73932   4.869   4.244  10.042
14188W        W73933   5.785  17.718  14.984
14189W        W73934  29.516  39.386   3.294
14190W        W73935  37.995  28.163   3.151
14191W        W73936   5.784   1.868   3.801
14192W        W73937  33.510  33.875  13.959
14193W        W73938  31.473  16.576   5.183
14194W        W73939  41.494  33.990  13.941
14195W        W73940  12.832  28.043   3.662
14196W        W73941  43.789  28.435  14.782
14197W        W73942  16.752  31.041   2.681
14198W        W73943  28.073   0.861  11.576
14199W        W73944  23.588  24.584   0.764
14200W        W73945   2.304  41.840   2.413
14201W        W73946  17.666  41.968  14.785
14202W        W73947  24.694  23.534  12.080
14203W        W73948  19.048  29.933  13.818
14204W        W73949  28.573  14.224   1.420
14205W        W73950  16.585  42.472   3.665
14206W        W73951   8.741  33.891   2.353
14207W        W73952   6.886  11.325   2.200
14208W        W73953  28.571  37.405  12.495
14209W        W73954  37.416  30.651   3.225
14210W        W73955  39.013  33.083   1.922
14211W        W73956   7.236  42.962   3.291
14212W        W73957  33.566  43.818   3.358
14213W        W73958  16.183  33.108  12.517
14214W        W73959  25.216  40.519   4.682
14215W        W73960  29.608  31.524   1.345
14216W        W73961  31.131  14.787   3.747
14217W        W73962  20.704  24.178   3.274
14218W        W73963  24.212  11.707  14.916
14219W        W73964  34.369   5.417   3.362
14220W        W73965  12.191  15.619  11.413
14221W        W73966  29.962  28.028   0.758
14222W        W73967  10.848   6.871   2.813
14223W        W73968   6.832  36.531  12.906
14224W        W73969  22.624  30.113  11.073
14225W        W73970  11.695  21.131   2.271
14226W        W73971  17.212  21.069  11.125
14227W        W73972  24.230  44.786   3.859
14228W        W73973  31.117  15.690  14.380
14229W        W73974  20.578  15.329  10.916
14230W        W73975  13.671  41.842  10.515
14231W        W73976  19.766  41.831  14.352
14232W        W73977   9.172  38.015  13.831
14233W        W73978  40.819  31.930  11.008
14234W        W73979  23.679  17.776  13.057
14235W        W73980  12.797  30.121  14.355
14236W        W73981   9.245  15.704   1.730
14237W        W73982  14.680  30.487  13.383
14238W        W73983   0.971  21.095  11.562
14239W        W73984  38.422  16.108  11.113
14240W        W73985   6.387  43.376  13.362
14241W        W73986   4.870  23.134   0.945
14242W        W73987   4.918  11.273  11.860
14243W        W73988   7.273  19.162   0.279
14244W        W73989  36.097  31.005   1.931
14245W        W73990   1.741  30.099  14.941
14246W        W73991   0.956  40.921  13.012
14247W        W73992   2.877  44.952  13.434
14248W        W73993  25.639  17.740  13.463
14249W        W73994  33.999  11.821  13.363
14250W        W73995  19.583  37.946  13.433
14251W        W73996  18.205  29.476   3.308
14252W        W73997  44.785  15.288   4.286
14253W        W73998  10.247  35.535   1.331
14254W        W73999  24.725  25.187   2.899
14255W        W74000   8.670   7.225  10.545
14256W        W74001   8.775  39.058  12.527
14257W        W74002  15.734  17.789   3.250
14258W        W74003  10.740  10.358   1.399
14259W        W74004  33.879  12.182  11.494
14260W        W74005  23.042  20.224  11.592
14261W        W74006   8.342  41.974  14.804
14262W        W74007   7.784  23.066   0.288
14263W        W74008  28.466  15.724   0.399
14264W        W74009  38.905   9.706   4.714
14265W        W74010  41.791   0.328  12.954
14266W        W74011   6.306  23.237  14.778
14267W        W74012  30.489  20.636   2.380
14268W        W74013  20.692  32.459   2.237
14269W        W74014  29.450  40.531   3.776
14270W        W74015   1.851  12.144  14.960
14271W        W74016  18.549  28.969  13.322
14272W        W74017  25.107  39.420   4.141
14273W        W74018  32.550  12.776   2.836
14274W        W74019  33.085  17.707  12.470
14275W        W74020  42.800  20.169  14.019
14276W        W74021  37.948  16.677   1.254
14277W        W74022  28.023  14.659   0.275
14278W        W74023  30.562  11.720   4.216
14279W        W74024  33.532  31.439   0.262
14280W        W74025  42.784  28.977   4.739
14281W        W74026  29.927  25.560  13.362
14282W        W74027   8.213  42.971   4.239
14283W        W74028  12.132  17.261  11.933
14284W        W74029  30.038   9.242   1.929
14285W        W74030  13.275  31.599   3.849
14286W        W74031  12.641  38.471  14.820
14287W        W74032  17.621  35.084  11.062
14288W        W74033   7.192  26.151   0.901
14289W        W74034  34.556  13.248   1.281
14290W        W74035  24.715  26.057  13.391
14291W        W74036  18.544   9.761  12.064
14292W        W74037  40.368  31.406   4.353
14293W        W74038  25.153  30.498   3.647
14294W        W74039  40.389  41.494   4.323
14295W        W74040  27.610   5.286  11.057
14296W        W74041  21.564  17.596   1.360
14297W        W74042  29.023  22.175   3.364
14298W        W74043  20.147  16.250  14.431
14299W        W74044  41.940  14.723   0.472
14300W        W74045   9.853  29.666   3.694
14301W        W74046  43.478  32.014   2.837
14302W        W74047  36.999  14.106  11.510
14303W        W74048   7.190  39.052  13.391
14304W        W74049   9.188  39.404  10.426
14305W        W74050  19.131  38.071  11.862
14306W        W74051  11.738  14.300   4.318
14307W        W74052   5.313  24.723  14.977
14308W        W74053  32.634  12.839   1.910
14309W        W74054  18.273  24.707  10.454
14310W        W74055  10.255  24.114  12.090
14311W        W74056  25.709  41.373   0.908
14312W        W74057  38.033  23.040  11.406
14313W        W74058  41.883  41.329   3.690
14314W        W74059  26.046  43.372   4.265
14315W        W74060  35.048  36.851   4.665
14316W        W74061  27.097  22.647   2.828
14317W        W74062  35.412  19.727   1.778
14318W        W74063  26.659  20.055   4.162
14319W        W74064   0.399  39.494  12.442
14320W        W74065  36.415  33.067   2.884
14321W        W74066  26.516  21.135  13.946
14322W        W74067  18.656   6.901  14.496
14323W        W74068  23.496  44.386  12.405
14324W        W74069  35.469  28.601  14.761
14325W        W74070  21.524  44.964   9.951
14326W        W74071  18.238   4.804   0.371
14327W        W74072  16.740  12.844  11.391
14328W        W74073  21.727  43.852   3.330
14329W        W74074   8.238  37.083  13.507
14330W        W74075  24.619   3.723  12.561
14331W        W74076   7.906   0.776  10.088
14332W        W74077   0.284  16.204   0.806
14333W        W74078   0.389  27.651   0.446
14334W        W74079   4.838  25.697  14.031
14335W        W74080  15.728   1.736   3.776
14336W        W74081  40.835  29.973   2.291
14337W        W74082  16.658   8.265  12.867
14338W        W74083  30.100  21.186   2.363
14339W        W74084  44.459  11.143  11.405
14340W        W74085  27.045  31.589  11.475
14341W        W74086  10.283  40.974   1.719
14342W        W74087  28.989   4.775   3.649
14343W        W74088   1.906   0.794   4.807
14344W        W74089  34.096   4.335   4.218
14345W        W74090  40.451   7.348   1.918
14346W        W74091  34.921  25.633  10.435
14347W        W74092  43.412  33.080  14.369
14348W        W74093  16.153  16.669  11.116
14349W        W74094  22.184  38.349  11.405
14350W        W74095  30.570  41.390  14.013
14351W        W74096  13.683   0.947   3.645
14352W        W74097   9.268  19.704  13.045
14353W        W74098   4.871  30.075   4.233
14354W        W74099  33.435  30.589   0.303
14355W        W74100   7.260  29.942   2.336
14356W        W74101   5.705  42.409   4.776
14357W        W74102  29.048  19.538  13.044
14358W        W74103  40.948  20.766   2.816
14359W        W74104  42.309  25.182   4.264
14360W        W74105  30.517  39.056   0.300
14361W        W74106  30.092  22.119  14.450
14362W        W74107  28.974  41.375  13.467
14363W        W74108  21.066  21.174  12.533
14364W        W74109  13.629  24.108  14.003
14365W        W74110   1.733  11.329  12.362
14366W        W74111  38.908  20.144  13.383
14367W        W74112  13.275   3.373  10.609
14368W        W74113  22.178  33.467  14.783
14369W        W74114  22.058  29.992   3.736
14370W        W74115  24.166   1.466   0.450
14371W        W74116  34.398  22.080   2.765
14372W        W74117  29.087  14.328  11.087
14373W        W74118  29.115  12.755   0.865
14374W        W74119  31.102   7.907  12.394
14375W        W74120   4.315  44.892   2.832
14376W        W74121  28.477   2.784   4.227
14377W        W74122  40.486  25.175  12.489
14378W        W74123  40.362  33.467   2.856
14379W        W74124   7.748   2.896   1.789
14380W        W74125  33.559  37.020   3.168
14381W        W74126   1.977  22.688  12.927
14382W        W74127  20.135  40.035  13.475
14383W        W74128  13.644  42.904   5.145
14384W        W74129  24.613   3.785  11.481
14385W        W74130  43.991  38.965  13.340
14386W        W74131  26.007  40.502   2.777
14387W        W74132  25.109  20.182   4.213
14388W        W74133   3.844  19.635   2.344
14389W        W74134  42.512  40.033   3.330
14390W        W74135  10.177  26.576  13.361
14391W        W74136   5.837  29.102  13.361
14392W        W74137  18.782  17.610  12.346
14393W        W74138   4.369  35.475   1.373
14394W        W74139  40.335  44.883   0.737
14395W        W74140   3.815  26.202  10.555
14396W        W74141  32.926  44.894  14.793
14397W        W74142   9.167  39.989  13.380
14398W        W74143  19.168   9.265   1.706
14399W        W74144  12.138  18.742   4.227
14400W        W74145  32.963  29.115   1.807
14401W        W74146   4.438   2.745   1.262
14402W        W74147  41.458  12.350  11.002
14403W        W74148  24.558  23.207   0.896
14404W        W74149  16.686  31.107  13.838
14405W        W74150  36.863  42.487   4.337
14406W        W74151  12.269  40.335  14.945
14407W        W74152  44.498  31.932  13.938
14408W        W74153  34.876  27.610  14.403
14409W        W74154  15.620  10.273   0.796
14410W        W74155  17.715  26.676   2.236
14411W        W74156  42.470  36.967  13.006
14412W        W74157   6.244  31.475   0.476
14413W        W74158  35.062  15.596  10.926
14414W        W74159   2.226  44.999   1.360
14415W        W74160  33.475  34.429  14.489
14416W        W74161   7.816  23.535   1.426
14417W        W74162   6.396   9.715   4.800
14418W        W74163  26.665  32.122   3.251
14419W        W74164  43.320  38.994  13.989
14420W        W74165  39.914  42.342  12.389
14421W        W74166  20.226  10.798  10.448
14422W        W74167  41.877  27.107  11.610
14423W        W74168  31.491  25.073   4.611
14424W        W74169  13.732  22.016  14.028
14425W        W74170  33.570  38.884   3.285
14426W        W74171  25.979  43.424   3.859
14427W        W74172  34.943  23.704   4.784
14428W        W74173  19.586  10.815  10.994
14429W        W74174  25.131  43.016  12.023
14430W        W74175  17.650  14.664   1.869
14431W        W74176  39.952   3.265   1.415
14432W        W74177  11.715  26.457   0.256
14433W        W74178  42.390  35.022   1.922
14434W        W74179  17.569  41.312  13.399
14435W        W74180  15.636  25.677   2.415
14436W        W74181  44.266   5.910  14.019
14437W        W74182   0.822  24.580  12.569
14438W        W74183  28.988  30.036  13.830
14439W        W74184   8.357  14.175   0.403
14440W        W74185  20.203  41.876   3.630
14441W        W74186  12.843  12.800   3.846
14442W        W74187  13.682  34.508   9.956
14443W        W74188  38.405  13.602  12.009
14444W        W74189  12.266  24.185   4.243
14445W        W74190  30.144   5.238  13.023
14446W        W74191  29.156  11.854  12.358
14447W        W74192   3.429  23.548  13.923
14448W        W74193  33.440  43.927   3.652
14449W        W74194  24.215  38.013   4.819
14450W        W74195   7.724  34.026  14.964
14451W        W74196   5.834  13.178   2.389
14452W        W74197  41.360   7.763   4.764
14453W        W74198   0.862   2.908   4.792
14454W        W74199  17.286  43.978   3.233
14455W        W74200  34.581  20.227   2.773
14456W        W74201  15.133  13.251   2.292
14457W        W74202  18.226   6.852  12.928
14458W        W74203   1.249  20.179   1.255
14459W        W74204  43.305  41.300   2.406
14460W        W74205   7.196   5.198   2.203
14461W        W74206   6.315  14.130  10.048
14462W        W74207   8.850  44.375   3.217
14463W        W74208   3.424  21.529   4.291
14464W        W74209  43.450  35.525  14.939
14465W        W74210   6.278   2.470   5.130
14466W        W74211  27.449   7.392   3.225
14467W        W74212  25.523  33.507   2.310
14468W        W74213  22.533  43.496   2.808
14469W        W74214   7.693  23.212   0.776
14470W        W74215   7.357  14.248  13.429
14471W        W74216   6.226  41.973   3.376
14472W        W74217  15.175  18.227  11.952
14473W        W74218   3.398  41.421  14.840
14474W        W74219  21.527  14.769   3.287
14475W        W74220  25.645  27.506  12.073
14476W        W74221  10.705  40.034   4.822
14477W        W74222  27.072  11.708   0.272
14478W        W74223  13.822   9.820   0.302
14479W        W74224  13.826  13.660   1.281
14480W        W74225  35.582  31.964  12.080
14481W        W74226  24.562   8.374  11.927
14482W        W74227  29.977  21.113  13.319
14483W        W74228   3.791   8.245   3.225
14484W        W74229  39.955  22.657   2.353
14485W        W74230  25.581   5.395   4.288
14486W        W74231   4.435  35.558  14.990
14487W        W74232  18.623  24.096   0.324
14488W        W74233  35.086  16.584   5.302
14489W        W74234  19.711  34.608  12.557
14490W        W74235  14.327   4.785   5.164
14491W        W74236   8.215  40.376  11.602
14492W        W74237  24.058   5.227   2.902
14493W        W74238  22.688  11.745   2.869
14494W        W74239   3.449  44.858  12.017
14495W        W74240  34.919  39.548  11.060
14496W        W74241  33.566  34.537  10.457
14497W        W74242  44.382  35.977  11.386
14498W        W74243   9.846  10.722   0.352
14499W        W74244  16.291  41.965   2.270
14500W        W74245  11.655  43.509  14.963
14501W        W74246  12.190  29.989   3.724
14502W        W74247  15.611  11.176  11.068
14503W        W74248  36.006  27.041   4.156
14504W        W74249  16.169  32.958   0.284
14505W        W74250  24.993   2.860   3.365
14506W        W74251   9.763  41.467  11.018
14507W        W74252  29.618   2.447   4.751
14508W        W74253   9.326  38.826  10.158
14509W        W74254  18.595  18.142   3.676
14510W        W74255  43.765   1.417   4.134
14511W        W74256  33.985  24.010   2.827
14512W        W74257  40.466  11.735   4.316
14513W        W74258  25.676  39.937   0.323
14514W        W74259  20.075   2.933  10.524
14515W        W74260   4.236  14.243  14.967
14516W        W74261  12.270  29.920   2.339
14517W        W74262  13.826  28.129  10.924
14518W        W74263  32.607  42.950  12.467
14519W        W74264  31.913  41.000  11.490
14520W        W74265  32.972   5.292  13.936
14521W        W74266  11.839   5.368  12.411
14522W        W74267   5.299  37.021  11.079
14523W        W74268  17.284   1.764   1.231
14524W        W74269  34.042  24.528  11.556
14525W        W74270   8.280  40.463  12.919
14526W        W74271  10.169  26.024   2.741
14527W        W74272   8.224  18.222   3.224
14528W        W74273  37.968  23.114   3.206
14529W        W74274   8.857  15.151  11.922
14530W        W74275   2.732   2.837  10.635
14531W        W74276   9.884  36.947   2.335
14532W        W74277  25.160  38.925  10.903
14533W        W74278  40.522  38.830  11.892
14534W        W74279  21.634  11.289  11.061
14535W        W74280  36.902  10.289   4.300
14536W        W74281  20.043   9.665   3.246
14537W        W74282  27.673   1.943  12.955
14538W        W74283  27.677  24.047  11.970
14539W        W74284  42.428   6.312  12.504
14540W        W74285  44.463   1.807   0.925
14541W        W74286  11.738  11.786   3.383
14542W        W74287   4.278  20.241  14.822
14543W        W74288  19.217  31.547   4.270
14544W        W74289   3.305  27.634  12.430
14545W        W74290   0.917   8.707   1.297
14546W        W74291  42.293  35.050  11.545
14547W        W74292  24.128   8.712   1.722
14548W        W74293  29.599  26.177  12.397
14549W        W74294  38.427  29.456  12.481
14550W        W74295  28.951  12.724  11.975
14551W        W74296  23.192  20.644   2.786
14552W        W74297  20.679  33.057   3.348
14553W        W74298  41.513   3.322   1.440
14554W        W74299  34.883  36.449  13.537
14555W        W74300  20.120  30.924  14.415
14556W        W74301   2.849  22.712   3.222
14557W        W74302  18.239  24.118   1.411
14558W        W74303  40.013  12.610   3.655
14559W        W74304   5.275  43.784   1.832
14560W        W74305  37.994  31.002  13.919
14561W        W74306  30.599  20.623   3.307
14562W        W74307  35.896  30.433  14.795
14563W        W74308   7.667  35.965  11.010
14564W        W74309   1.362  25.700  13.861
14565W        W74310   7.311  12.788   3.177
14566W        W74311   7.365  42.391  14.901
14567W        W74312  36.081   2.857   3.204
14568W        W74313  26.196   7.182   1.327
14569W        W74314  18.134   3.858   0.924
14570W        W74315  25.075  35.023  10.519
14571W        W74316  41.911  25.982  13.922
14572W        W74317  14.591  18.208   3.698
14573W        W74318  25.122  42.442   2.209
14574W        W74319  43.514   7.874   1.756
14575W        W74320  32.441  16.126  12.054
14576W        W74321  40.891  18.090  13.536
14577W        W74322  42.471  17.613   3.632
14578W        W74323  37.388  28.587   2.894
14579W        W74324  34.927  15.649   0.947
14580W        W74325  26.137   8.184   3.351
14581W        W74326   6.380   2.306   0.304
14582W        W74327  28.003  24.596   2.283
14583W        W74328  29.052  18.148  10.531
14584W        W74329  37.049  38.917  11.948
14585W        W74330  22.506  11.327  10.530
14586W        W74331  23.067  33.129  13.825
14587W        W74332  21.236  41.454  11.543
14588W        W74333  36.582  42.967  11.382
14589W        W74334  38.487  20.181  11.597
14590W        W74335   6.308  40.362  11.878
14591W        W74336   6.885  14.125  12.486
14592W        W74337  24.146  30.589  11.572
14593W        W74338  14.259   4.253  14.765
14594W        W74339   3.393  13.816   2.769
14595W        W74340  37.556  33.467   4.155
14596W        W74341  37.041  23.180  14.839
14597W        W74342  38.531  29.943   1.878
14598W        W74343  25.485  35.926  10.995
14599W        W74344  34.549  40.864  11.891
14600W        W74345  17.298  38.941   2.678
14601W        W74346   3.878  15.605   9.980
14602W        W74347  15.646   8.778  11.090
14603W        W74348   4.739   6.731   1.279
14604W        W74349  39.949   9.708  14.299
14605W        W74350   5.743  35.942  14.479
14606W        W74351  19.200  36.521   1.327
14607W        W74352  11.359  19.617   4.702
14608W        W74353   4.260  36.553   4.171
14609W        W74354  20.049  17.660  10.466
14610W        W74355  41.827  22.574  13.839
14611W        W74356   3.924   9.726   1.833
14612W        W74357  13.127   4.891   0.934
14613W        W74358   1.434  31.533   4.714
14614W        W74359   6.198  30.502   3.275
14615W        W74360  10.327  14.322  14.426
14616W        W74361  30.912   8.240  14.460
14617W        W74362  41.886  24.996   1.918
14618W        W74363  44.798  31.502   3.146
14619W        W74364   0.328  12.322  14.884
14620W        W74365   6.707  32.592  14.793
14621W        W74366  39.964  27.673   4.635
14622W        W74367  37.907  38.054   0.832
14623W        W74368  40.535  40.530   4.156
14624W        W74369  40.920  14.150   0.484
14625W        W74370  42.801  29.624   3.742
14626W        W74371  25.662  27.004  12.866
14627W        W74372   1.444   5.306   3.739
14628W        W74373  29.470  20.685   0.916
14629W        W74374  29.434  28.014   3.286
14630W        W74375   1.401  29.986   2.301
14631W        W74376  30.558  30.625   5.087
14632W        W74377  41.326  38.063  13.310
14633W        W74378  21.118  27.659   3.793
14634W        W74379  44.376  18.244  12.088
14635W        W74380  30.483   9.793   1.257
14636W        W74381  43.349  32.948  14.952
14637W        W74382   4.246  24.046   0.796
14638W        W74383   0.802   3.307  14.382
14639W        W74384  34.405  35.952  11.041
14640W        W74385  42.843  28.966  11.382
14641W        W74386   9.739   9.236   1.445
14642W        W74387   4.891  36.482   0.787
14643W        W74388  28.092  23.500  12.524
14644W        W74389  36.866   3.844   2.188
14645W        W74390  26.667  37.894   3.289
14646W        W74391  31.141  20.756  12.984
14647W        W74392  36.550  18.764   0.454
14648W        W74393   9.799  20.068   1.934
14649W        W74394  32.926  20.220  12.056
14650W        W74395  40.510  11.312   2.282
14651W        W74396  31.563  40.051   3.721
14652W        W74397  24.156  16.759  10.525
14653W        W74398   2.226  10.186  11.466
14654W        W74399  36.070  34.450   4.288
14655W        W74400  24.675  20.617   4.298
14656W        W74401  10.872   8.278   1.341
14657W        W74402  34.420  13.165  13.025
14658W        W74403  27.045  43.377  14.416
14659W        W74404  44.934  12.184  11.470
14660W        W74405  15.087  12.258  12.087
14661W        W74406  44.357  10.229  14.892
14662W        W74407  22.251  23.544  14.442
14663W        W74408  33.009  37.362  11.459
14664W        W74409  32.408  44.369  12.907
14665W        W74410  10.758  19.229   2.377
14666W        W74411  24.123  11.162   3.227
14667W        W74412  27.132  24.584   3.231
14668W        W74413  24.125  35.363  12.940
14669W        W74414   8.336   9.694  14.393
14670W        W74415  11.689  33.457   0.796
14671W        W74416  14.112  41.852  10.590
14672W        W74417  25.554   8.745   3.754
14673W        W74418   7.831   8.766   2.760
14674W        W74419  12.283  37.877   3.673
14675W        W74420  35.369  42.300   0.284
14676W        W74421  39.560  42.364  12.958
14677W        W74422  18.737  17.613  11.074
14678W        W74423   6.427  21.237   2.259
14679W        W74424  22.671  37.354  11.552
14680W        W74425  27.582   4.762  12.042
14681W        W74426   0.357  40.328  10.125
14682W        W74427   0.329  16.240  12.354
14683W        W74428   0.459  14.309  10.955
14684W        W74429  10.729  34.552  14.394
14685W        W74430  39.476  43.926  10.994
14686W        W74431  12.290   8.318  12.823
14687W        W74432  31.139  21.629   0.398
14688W        W74433  18.229  18.175  14.279
14689W        W74434  43.000   6.282  14.453
14690W        W74435  23.555  40.506   3.355
14691W        W74436  13.130  38.822   3.296
14692W        W74437  28.158  22.204  11.378
14693W        W74438  12.803  22.998   3.762
14694W        W74439  25.623  14.719   3.216
14695W        W74440  42.921   2.820  12.931
14696W        W74441  29.555  27.947   1.739
14697W        W74442  13.248  22.114  10.515
14698W        W74443  27.535   3.283   3.280
14699W        W74444  33.396  15.584  11.426
14700W        W74445   0.472  25.166  13.398
14701W        W74446  26.473  19.542   0.376
14702W        W74447  25.105   2.867  11.459
14703W        W74448  22.059   8.329  11.106
14704W        W74449  17.796  38.943   4.314
14705W        W74450  26.996   9.386   2.237
14706W        W74451   6.242   5.788  14.418
14707W        W74452   0.789   1.411  12.467
14708W        W74453  31.117   3.345   4.310
14709W        W74454  38.458  33.412  11.441
14710W        W74455  38.062  11.306   4.681
14711W        W74456  44.298  35.047  13.869
14712W        W74457  22.212  38.340   2.772
14713W        W74458  22.661  33.573  11.985
14714W        W74459  31.055  37.048  11.400
14715W        W74460  33.405  32.920  14.429
14716W        W74461  13.791  39.003  13.948
14717W        W74462  27.121  18.746  12.005
14718W        W74463  20.549  10.328  14.975
14719W        W74464  34.028  35.027   3.631
14720W        W74465   1.890  13.807   2.234
14721W        W74466  43.009  20.750  11.009
14722W        W74467   7.842  11.665   1.744
14723W        W74468  44.451  40.430   3.842
14724W        W74469  20.147  44.443  14.799
14725W        W74470   1.938   2.745   0.917
14726W        W74471   2.313  35.956   3.708
14727W        W74472  33.538  29.664   2.898
14728W        W74473  38.999   9.743  14.473
14729W        W74474   6.835  10.356   4.685
14730W        W74475  41.902  35.894   3.672
14731W        W74476  13.242   2.329   2.792
14732W        W74477   8.699   9.831   2.717
14733W        W74478  23.112  26.460  12.086
14734W        W74479  33.428  38.357   2.206
14735W        W74480   9.255  25.006   0.355
14736W        W74481  23.984  33.973   1.220
14737W        W74482   4.298  33.529  11.423
14738W        W74483  10.283   4.767   3.715
14739W        W74484  25.053   7.204  10.929
14740W        W74485  15.696  21.080   4.617
14741W        W74486  41.042  31.940   0.792
14742W        W74487  40.979  39.444  10.999
14743W        W74488  18.203  26.000   2.738
14744W        W74489  39.003  21.217  12.543
14745W        W74490  10.177  21.064  12.094
14746W        W74491  18.255   1.769   5.116
14747W        W74492  42.480   7.193  10.459
14748W        W74493  21.616  36.904   2.781
14749W        W74494   6.863  14.206  12.928
14750W        W74495   4.225   5.229   2.269
14751W        W74496  22.586  18.617  11.374
14752W        W74497   4.253  40.903  11.047
14753W        W74498   5.702  12.173   0.396
14754W        W74499   1.927  42.431   1.411
14755W        W74500  31.071  40.429   4.734
14756W        W74501  42.966  33.115  13.047
14757W        W74502  15.809  41.346  13.388
14758W        W74503  38.878  18.159   2.672
14759W        W74504  38.530  32.071  11.414
14760W        W74505  22.092  19.750  12.444
14761W        W74506   0.492  15.686  13.909
14762W        W74507  35.986  16.277   2.806
14763W        W74508   2.845  28.643  11.873
14764W        W74509   0.492  33.043   4.794
14765W        W74510   9.729   4.392  10.635
14766W        W74511  11.134  21.063   2.387
14767W        W74512  32.105  24.647   2.898
14768W        W74513  22.583   0.750  10.406
14769W        W74514  16.134  10.139  12.527
14770W        W74515   4.859  12.316   4.834
14771W        W74516  34.881  18.192   4.249
14772W        W74517  39.365  16.251   0.324
14773W        W74518  19.175   3.795   1.903
14774W        W74519   8.829  10.297   5.087
14775W        W74520  16.752  23.496  12.472
14776W        W74521   7.328  44.293   2.810
14777W        W74522  29.974  22.574   3.294
14778W        W74523  10.176   3.909   2.696
14779W        W74524  22.591  25.075  11.401
14780W        W74525  16.699  39.468   2.226
14781W        W74526  22.665  12.684   4.754
14782W        W74527  28.484  18.561  10.906
14783W        W74528  10.227  26.028  11.096
14784W        W74529  22.606   3.727   1.713
14785W        W74530  35.572  17.592  11.578
14786W        W74531  44.962  32.004  12.495
14787W        W74532  37.035  37.039   1.261
14788W        W74533  30.650  44.812  11.917
14789W        W74534   3.224  27.118   0.256
14790W        W74535   3.350  43.803  14.356
14791W        W74536  27.021  40.939   2.238
14792W        W74537  37.494  17.740   1.428
14793W        W74538  15.183  18.136   1.848
14794W        W74539  19.680   8.206   4.605
14795W        W74540  29.443  42.834  11.115
14796W        W74541  19.724  21.096   0.943
14797W        W74542  42.407  15.096  12.026
14798W        W74543   4.430  28.983   2.788
14799W        W74544  35.019  11.655   1.434
14800W        W74545   9.650  40.851   0.753
14801W        W74546   3.786  35.517   4.230
14802W        W74547  35.532  17.277  13.034
14803W        W74548  22.593  14.645   0.440
14804W        W74549   6.824  23.019  13.456
14805W        W74550  14.700  18.087   1.727
14806W        W74551  22.110  41.445  12.878
14807W        W74552   7.677  16.314  12.459
14808W        W74553  39.985  26.528   4.114
14809W        W74554  10.208  36.519   1.895
14810W        W74555  19.643   4.309   0.308
14811W        W74556  38.916   4.410  14.764
14812W        W74557  31.087  13.610  12.921
14813W        W74558  18.110  40.818   4.793
14814W        W74559  44.283  31.046   4.168
14815W        W74560   4.319  20.105   0.317
14816W        W74561   0.815  44.818   2.411
14817W        W74562   7.255  15.133   4.691
14818W        W74563  18.674  24.696  10.904
14819W        W74564  32.454  32.628   4.719
14820W        W74565  22.659  22.119   4.832
14821W        W74566  32.497   4.304   3.225
14822W        W74567  22.656  32.016   3.632
14823W        W74568  43.867   5.297  14.999
14824W        W74569  35.414  36.378  10.522
14825W        W74570   3.232   7.373  11.019
14826W        W74571  17.171   1.827   4.137
14827W        W74572   7.223   5.388   0.450
14828W        W74573  30.417   7.895  10.999
14829W        W74574  22.240  12.326   0.856
14830W        W74575  34.084  41.941   2.886
14831W        W74576  13.770   4.856   4.832
14832W        W74577  35.106  26.641  12.387
14833W        W74578  26.574  27.627   3.716
14834W        W74579  33.515  44.876   3.750
14835W        W74580   9.152  29.998   1.826
14836W        W74581  16.592  15.117  13.453
14837W        W74582  32.907  19.654   1.913
14838W        W74583   5.887  31.447   4.122
14839W        W74584  43.420   3.921   0.835
14840W        W74585  17.307  31.984   0.900
14841W        W74586  15.758  26.602   9.929
14842W        W74587  18.786  24.687   1.291
14843W        W74588  38.383   5.910  14.031
14844W        W74589   6.345   8.774  14.815
14845W        W74590  17.224  17.723  10.585
14846W        W74591  14.592   0.841  13.416
14847W        W74592  20.623  20.165  14.845
14848W        W74593  41.983  37.894   1.779
14849W        W74594   8.329   4.249   0.456
14850W        W74595  27.960  33.053  13.032
14851W        W74596   7.300  11.659   4.622
14852W        W74597  14.826  12.778  14.870
14853W        W74598  41.473  14.224  13.349
14854W        W74599  44.313  26.148   0.323
14855W        W74600   9.744   1.284   3.306
14856W        W74601  17.590  33.516   2.802
14857W        W74602  41.297  25.657   4.748
14858W        W74603   4.888  29.143   0.306
14859W        W74604  40.348  12.712   1.324
14860W        W74605   5.712   1.841  12.926
14861W        W74606  10.753  18.262  14.875
14862W        W74607  41.374  37.966   2.870
14863W        W74608  34.903  21.702  12.534
14864W        W74609   7.747  39.527   0.328
14865W        W74610  14.314  38.533   0.363
14866W        W74611   0.491  25.683   1.256
14867W        W74612  16.577  16.638   2.869
14868W        W74613  43.782  26.534   3.281
14869W        W74614  24.606  20.749   0.371
14870W        W74615   2.316  24.009  13.401
14871W        W74616  14.737   8.402  12.941
14872W        W74617   7.784  21.202   2.266
14873W        W74618  23.698   5.407  12.352
14874W        W74619  43.808  28.656   4.343
14875W        W74620  35.417   8.348   0.934
14876W        W74621  22.670   0.897   1.210
14877W        W74622  12.235  15.322  14.888
14878W        W74623  44.316   8.817   3.772
14879W        W74624  23.083   6.767  14.970
14880W        W74625   9.158  17.704   2.195
14881W        W74626  33.930  27.112   4.683
14882W        W74627  30.048  36.481  13.914
14883W        W74628  38.933  25.553   3.173
14884W        W74629  20.713  33.568   0.760
14885W        W74630  30.465  32.555   1.425
14886W        W74631  22.738  35.394   3.206
14887W        W74632   5.375  27.569   4.306
14888W        W74633  12.291  42.946  12.847
14889W        W74634   5.879  44.869  14.303
14890W        W74635   6.267   7.313  10.548
14891W        W74636  36.943  10.215   1.815
14892W        W74637  43.341  17.304  12.054
14893W        W74638   0.264   2.836  14.411
14894W        W74639  38.968  26.110   0.754
14895W        W74640   1.274  17.163  12.447
14896W        W74641   0.456  24.093   0.913
14897W        W74642  20.554  44.496   2.753
14898W        W74643   0.806  30.442   2.787
14899W        W74644  35.964  43.419  11.060
14900W        W74645  28.073  42.979   4.629
14901W        W74646  25.035  17.218  11.988
14902W        W74647  11.673   4.835   5.164
14903W        W74648  18.171  42.803  13.533
14904W        W74649   8.656  15.115  12.983
14905W        W74650  11.646  31.906  12.891
14906W        W74651  15.295  15.641  12.838
14907W        W74652  38.877  41.421   4.792
14908W        W74653  11.797  16.726  13.512
14909W        W74654  37.019  10.187   0.949
14910W        W74655  31.066   3.749   5.747
14911W        W74656   5.422  29.164  12.424
14912W        W74657   2.347  30.558   2.814
14913W        W74658  42.821  23.228   0.274
14914W        W74659  20.631   8.231  13.470
14915W        W74660  18.258  11.772   2.678
14916W        W74661  24.152  29.446   1.849
14917W        W74662  41.329  16.704  13.008
14918W        W74663  19.648  35.910   1.766
14919W        W74664  39.518  36.064   0.767
14920W        W74665  44.939  21.541   4.184
14921W        W74666  34.475  13.339   0.407
14922W        W74667   7.244  35.864  13.885
14923W        W74668  43.869   0.309  11.086
14924W        W74669  28.536  36.560   0.726
14925W        W74670   9.806  28.476   3.701
14926W        W74671  11.722  43.802  11.955
14927W        W74672   3.801  15.295  10.552
14928W        W74673  11.743  18.175  12.528
14929W        W74674  44.319   5.872  11.472
14930W        W74675  24.566  21.140   3.693
14931W        W74676  42.363  21.570   0.469
14932W        W74677  34.918  22.168  13.990
14933W        W74678  27.023  16.235  11.547
14934W        W74679   5.718  39.359   2.349
14935W        W74680   4.426  38.528   4.266
14936W        W74681  15.232  36.462   0.431
14937W        W74682   8.251  37.834   1.388
14938W        W74683  27.108  15.226   2.661
14939W        W74684  38.882   2.306   2.330
14940W        W74685  44.883  14.139  11.598
14941W        W74686  33.400   3.834   2.336
14942W        W74687  30.129  40.407   4.252
14943W        W74688  33.091  24.571   1.265
14944W        W74689  26.484  10.672  12.522
14945W        W74690  26.508  37.017  11.076
14946W        W74691  36.965  35.530   4.347
14947W        W74692  41.430  31.968  13.909
14948W        W74693  37.906   1.761  13.451
14949W        W74694   1.787  35.510  13.399
14950W        W74695  21.072  32.548   4.321
14951W        W74696   8.681   8.364  11.613
14952W        W74697  36.480  38.378  13.344
14953W        W74698  29.046  18.272   2.819
14954W        W74699   7.827  22.170   3.745
14955W        W74700   2.248  23.521  13.931
14956W        W74701  12.737   5.367  11.865
14957W        W74702  21.186   4.898   2.812
14958W        W74703  25.654  44.347   3.269
14959W        W74704  29.426  25.126   2.700
14960W        W74705  18.621  15.747   0.314
14961W        W74706  39.976  23.504   0.952
14962W        W74707  42.989  11.830   4.676
14963W        W74708  43.367   7.224   1.230
14964W        W74709  14.794  18.662   0.459
14965W        W74710  27.953  18.724   1.709
14966W        W74711  28.666  10.763  13.450
14967W        W74712  32.940  29.521  13.960
14968W        W74713  21.023  44.816   2.664
14969W        W74714  10.290  37.863  13.879
14970W        W74715   1.357   3.793  11.464
14971W        W74716  22.250   2.257  10.136
14972W        W74717  40.823  35.380  13.335
14973W        W74718   8.802  18.139   1.816
14974W        W74719  21.606  15.726   2.902
14975W        W74720  43.422  23.138   2.736
14976W        W74721  17.085  19.763  12.067
14977W        W74722  22.083  38.468   2.334
14978W        W74723  14.268   7.250   0.357
14979W        W74724  14.600   0.440  12.934
14980W        W74725  43.954  33.997  10.938
14981W        W74726  41.450  38.913   1.413
14982W        W74727  17.203  36.061   2.808
14983W        W74728   3.907  42.455  13.852
14984W        W74729  16.208  19.548  11.430
14985W        W74730  30.526  16.682   4.707
14986W        W74731  31.443  26.667  10.038
14987W        W74732  16.156  11.747  13.489
14988W        W74733  16.698  11.236   1.335
14989W        W74734  26.003  32.071   2.415
14990W        W74735   2.798  36.077  14.332
14991W        W74736  31.561  15.133  13.911
14992W        W74737  22.538  43.371   1.312
14993W        W74738  26.179   4.277   4.291
14994W        W74739  28.960  41.482   3.322
14995W        W74740  17.091  43.976  10.571
14996W        W74741   5.747  22.640   4.208
14997W        W74742   4.890  21.045  12.456
14998W        W74743  22.165   4.929  10.060
14999W        W74744   7.752   3.718  13.374
15000W        W74745   8.837  43.834  10.932
15001W        W74746  33.473  36.365  12.064
15002W        W74747   5.226  43.467   0.824
15003W        W74748  12.308  41.983   2.850
15004W        W74749  42.805  21.216  11.546
15005W        W74750  33.944  28.479  11.530
15006W        W74751  13.819  40.435  14.935
15007W        W74752  29.539  19.223  13.834
15008W        W74753  10.637  35.479   2.838
15009W        W74754  11.768  26.150   0.944
15010W        W74755   0.418  23.046   3.277
15011W        W74756  28.949  23.223  13.489
15012W        W74757   3.270  40.988   3.235
15013W        W74758  30.478  21.588  10.595
15014W        W74759   7.717   5.931  14.491
15015W        W74760  34.377  27.472   3.732
15016W        W74761  31.532  35.456  13.416
15017W        W74762  30.008  28.152   3.654
15018W        W74763  25.569  26.972  12.032
15019W        W74764  39.453  43.287   2.710
15020W        W74765  44.269  28.035  14.919
15021W        W74766   7.404  12.847  12.347
15022W        W74767  23.556   6.369   2.702
15023W        W74768  33.382   6.249  10.495
15024W        W74769   2.387  43.002  11.588
15025W        W74770  26.598  33.097   3.235
15026W        W74771  27.154  10.829   0.469
15027W        W74772  35.395  35.033  14.283
15028W        W74773  28.670  17.106   3.727
15029W        W74774  41.976  20.056  10.561
15030W        W74775  36.036  20.635   3.833
15031W        W74776  12.280  23.196  13.466
15032W        W74777  12.143  26.622  10.438
15033W        W74778   0.471   6.781   2.716
15034W        W74779  32.458  41.402  13.797
15035W        W74780  30.030  20.729   2.834
15036W        W74781  22.696  11.225   4.189
15037W        W74782  12.806  21.630  13.944
15038W        W74783  15.261  33.053  10.961
15039W        W74784  35.020   5.808   1.235
15040W        W74785  35.476  33.083  11.400
15041W        W74786   9.364  15.643  14.950
15042W        W74787  13.141   5.319  11.380
15043W        W74788  11.690  42.313  14.460
15044W        W74789   6.871  14.196   4.801
15045W        W74790   4.237   3.366   1.324
15046W        W74791  43.815  35.035  12.091
15047W        W74792  24.185  23.619  11.025
15048W        W74793  23.154  44.910   0.299
15049W        W74794  42.395  36.856   4.785
15050W        W74795   2.339   6.228  10.957
15051W        W74796   2.265   8.390  13.816
15052W        W74797   0.878  20.066  12.479
15053W        W74798  36.498  33.037  13.371
15054W        W74799  12.179  18.598   2.265
15055W        W74800   9.831  38.333  14.446
15056W        W74801  39.969  38.857  11.044
15057W        W74802  33.563  30.466  11.051
15058W        W74803  12.767  35.987  14.954
15059W        W74804  28.145   1.763   2.260
15060W        W74805   2.341  21.642   2.688
15061W        W74806  34.031   9.286   0.312
15062W        W74807   8.216  25.025  10.516
15063W        W74808   3.264  26.655  12.410
15064W        W74809  14.665  32.002   4.647
15065W        W74810   8.333  27.664   3.792
15066W        W74811   8.308  39.461   3.630
15067W        W74812  25.514  42.941  12.880
15068W        W74813  20.656   4.223  10.987
15069W        W74814  40.930   1.447  14.890
15070W        W74815  39.808  14.182  10.947
15071W        W74816  14.785  41.294  14.442
15072W        W74817  15.160  34.866   5.206
15073W        W74818  16.649  39.968  14.501
15074W        W74819  29.059  41.352   3.704
15075W        W74820  30.070  44.889   3.847
15076W        W74821  18.138  37.985  12.406
15077W        W74822   2.836  14.734  11.575
15078W        W74823  27.563  19.677  14.907
15079W        W74824   0.986  44.986   4.298
15080W        W74825  33.597  35.569   2.184
15081W        W74826  10.314  11.194  10.960
15082W        W74827  19.152   9.809  10.429
15083W        W74828  15.130   7.903   2.897
15084W        W74829  23.046  22.189   2.412
15085W        W74830  34.532  35.868  11.586
15086W        W74831  21.125   3.302  13.460
15087W        W74832  22.676   6.751  12.919
15088W        W74833   3.856   5.296   2.804
15089W        W74834  40.982   1.327   0.862
15090W        W74835  33.392  25.692  11.435
15091W        W74836  27.958   9.820  14.505
15092W        W74837  37.539  21.605  12.909
15093W        W74838  31.558  14.189  14.978
15094W        W74839  32.563  35.486   1.897
15095W        W74840   3.396  35.889  13.820
15096W        W74841  34.875   2.416  12.531
15097W        W74842  12.200  12.306  10.976
15098W        W74843  26.540  18.720  11.856
15099W        W74844  37.965  35.589   4.815
15100W        W74845  22.537  21.049   3.662
15101W        W74846   4.872  43.286   0.948
15102W        W74847   8.198  36.404   1.286
15103W        W74848  39.042  22.215  11.384
15104W        W74849  13.686  17.158   2.694
15105W        W74850  35.932  22.743   5.122
15106W        W74851   6.292  43.850   0.467
15107W        W74852  43.376  25.649  14.760
15108W        W74853  12.689  11.368   3.696
15109W        W74854  12.614  31.406   1.278
15110W        W74855  20.104  43.820   1.432
15111W        W74856  38.823  30.093  10.026
15112W        W74857   0.477  25.060  14.391
15113W        W74858  44.325  24.088   1.210
15114W        W74859   2.289  41.306   0.395
15115W        W74860   5.394  42.452  11.610
15116W        W74861  13.182  37.071  14.808
15117W        W74862   1.351  38.507   2.397
15118W        W74863   7.273  23.031  10.549
15119W        W74864   2.226  22.149   0.418
15120W        W74865  15.812   4.698   5.155
15121W        W74866   6.196  39.955  11.035
15122W        W74867  22.687  41.401   3.251
15123W        W74868  36.091  15.213   2.234
15124W        W74869  14.797  21.592  12.934
15125W        W74870  15.724  25.592  11.539
15126W        W74871  28.576   2.283  12.923
15127W        W74872  29.570   7.726  14.839
15128W        W74873   4.277  26.458  10.615
15129W        W74874   3.791  21.528   2.289
15130W        W74875  32.955  14.644  14.885
15131W        W74876   7.743  17.136  13.459
15132W        W74877  31.059   0.791   1.784
15133W        W74878  39.041  29.520  14.832
15134W        W74879  39.426  28.118  14.963
15135W        W74880   7.186  17.662   3.334
15136W        W74881  11.670  29.573  11.552
15137W        W74882  16.175   2.770   0.270
15138W        W74883  32.626  23.697  12.440
15139W        W74884  14.277  42.942   4.235
15140W        W74885   0.323  43.457   4.269
15141W        W74886  25.528  37.947   0.891
15142W        W74887   5.319  11.175   3.151
15143W        W74888   6.266   5.294  14.978
15144W        W74889  24.218  10.276   1.360
15145W        W74890  12.241  38.415  13.933
15146W        W74891   7.339  29.107  10.597
15147W        W74892   9.174  40.922   0.381
15148W        W74893  13.299  34.530  14.930
15149W        W74894  12.346   3.447   5.146
15150W        W74895  44.443  41.973   1.441
15151W        W74896  16.794  44.380  13.399
15152W        W74897  15.114  16.811   0.858
15153W        W74898  29.503   9.342   0.821
15154W        W74899  41.405  39.451  13.473
15155W        W74900  10.177   1.332  14.783
15156W        W74901  37.065  27.152   3.757
15157W        W74902   4.715  27.175  14.030
15158W        W74903   0.843  10.169   0.821
15159W        W74904  31.141  33.876   2.350
15160W        W74905  36.938   4.872   2.688
15161W        W74906   5.396  26.975  14.283
15162W        W74907   5.870  20.178   0.403
15163W        W74908   5.706   5.795   1.394
15164W        W74909  38.918  15.207  11.446
15165W        W74910  24.660  14.786  14.972
15166W        W74911  20.720   4.393   3.314
15167W        W74912  44.812   0.983  12.525
15168W        W74913  33.516  42.849   2.781
15169W        W74914  37.044  37.394   0.243
15170W        W74915  10.255   4.789  14.450
15171W        W74916  16.123  37.569  12.943
15172W        W74917  22.011  10.220   2.756
15173W        W74918  16.108  35.488   0.478
15174W        W74919  21.614  34.542  13.356
15175W        W74920  35.937   2.864   1.331
15176W        W74921  26.662  38.944  11.519
15177W        W74922  14.629  10.749   3.156
15178W        W74923   7.861   1.254   1.708
15179W        W74924   6.783  26.541  14.438
15180W        W74925   0.777  21.127   2.264
15181W        W74926  22.707  16.780  13.852
15182W        W74927  27.680  31.413   2.250
15183W        W74928  24.701  21.020  11.579
15184W        W74929  44.302  17.676  12.935
15185W        W74930  39.003  22.740   5.219
15186W        W74931  14.823  31.597   1.801
15187W        W74932   2.890  44.266   2.877
15188W        W74933  11.237  28.489  12.531
15189W        W74934  33.043   7.688  10.980
15190W        W74935  35.472   1.347  14.467
15191W        W74936  18.266  28.987  11.101
15192W        W74937  25.657  42.009   1.317
15193W        W74938  24.615   1.475   1.245
15194W        W74939  24.079  37.369   2.750
15195W        W74940  23.032   0.868  12.030
15196W        W74941  33.506  37.498  14.511
15197W        W74942  40.429  38.938   1.751
15198W        W74943  25.217  26.558  14.455
15199W        W74944   7.348  24.530  14.939
15200W        W74945   9.747   9.738   1.409
15201W        W74946   0.314  40.828   4.799
15202W        W74947   9.843  17.597   4.151
15203W        W74948  37.976  20.615  11.897
15204W        W74949  21.519  29.511   1.887
15205W        W74950   4.206  27.585  12.954
15206W        W74951  28.487   5.695   3.187
15207W        W74952  16.644   5.382   0.877
15208W        W74953   1.794  32.991   3.282
15209W        W74954  10.765   3.343   1.239
15210W        W74955  44.905  40.325   3.297
15211W        W74956  13.845  30.609  11.071
15212W        W74957   6.387   2.853   2.324
15213W        W74958  28.072  31.635  14.493
15214W        W74959  36.962  42.399   0.751
15215W        W74960  16.266   5.267   3.255
15216W        W74961   6.718  30.096  11.096
15217W        W74962  37.384  29.919   1.295
15218W        W74963  15.684  24.506   4.192
15219W        W74964  11.707  19.690   2.745
15220W        W74965  36.442  15.262   4.791
15221W        W74966  13.196  11.729  11.539
15222W        W74967   9.889  28.107  12.993
15223W        W74968  29.162  40.490   0.819
15224W        W74969  43.472  29.432  12.396
15225W        W74970  33.418  34.934   5.248
15226W        W74971  41.328  36.392   0.312
15227W        W74972  42.481   7.770  12.881
15228W        W74973  30.474  12.722   2.286
15229W        W74974  26.191   1.463   3.810
15230W        W74975  28.568  30.925   1.391
15231W        W74976   0.327  31.572  14.424
15232W        W74977  17.073  22.593  12.418
15233W        W74978  28.631   6.714   0.473
15234W        W74979  16.596  39.433   4.333
15235W        W74980   4.367  33.081   3.274
15236W        W74981  39.836   2.769   3.859
15237W        W74982  27.061  26.020   1.694
15238W        W74983  16.272   1.396   4.838
15239W        W74984  11.186   6.904   0.243
15240W        W74985  14.146   8.169   0.367
15241W        W74986  28.540  25.589  11.998
15242W        W74987   1.448  32.901   3.377
15243W        W74988  40.377  14.187   1.327
15244W        W74989  22.194  20.056   2.371
15245W        W74990  20.056  23.206   0.874
15246W        W74991  13.244   2.846  11.559
15247W        W74992  32.942  13.694   1.774
15248W        W74993  35.945  28.986   4.348
15249W        W74994  26.058  44.497  11.871
15250W        W74995  27.620  10.753  14.398
15251W        W74996  33.597   0.776   4.257
15252W        W74997  26.696  19.235   4.135
15253W        W74998  32.926  12.706   3.806
15254W        W74999  40.510  39.395   1.411
15255W        W75000  44.885  31.427  14.805
15256W        W75001   0.836  12.190   3.701
15257W        W75002   2.307  13.665   2.223
15258W        W75003  37.917  17.228   1.311
15259W        W75004  19.222  14.666   3.870
15260W        W75005  15.142  29.986  10.982
15261W        W75006   2.829   4.704  10.982
15262W        W75007  25.025  22.553   2.879
15263W        W75008   0.950  12.659  10.627
15264W        W75009  23.102  17.718  14.027
15265W        W75010   1.745  15.617   0.430
15266W        W75011  27.505  41.436  14.393
15267W        W75012  30.110  27.687   5.567
15268W        W75013   0.910  16.311   0.449
15269W        W75014  32.895  38.918  11.893
15270W        W75015   4.754   3.887   1.272
15271W        W75016  17.748  22.159  13.846
15272W        W75017  39.881  26.128   3.700
15273W        W75018  12.194  34.404   1.852
15274W        W75019  20.092  31.466  11.060
15275W        W75020   2.268   4.410   1.430
15276W        W75021  37.015   8.866  10.454
15277W        W75022  37.478  31.645  12.930
15278W        W75023  13.157  25.676  13.921
15279W        W75024   4.408  15.581   4.627
15280W        W75025  40.318   1.335   1.756
15281W        W75026  31.085  44.996  12.535
15282W        W75027  41.327  33.911  11.905
15283W        W75028  23.513  41.022  13.954
15284W        W75029  12.854  19.178  13.515
15285W        W75030  36.980  13.288  10.619
15286W        W75031   8.900   7.350   4.696
15287W        W75032   7.318  44.854  10.948
15288W        W75033  19.186  22.726   3.349
15289W        W75034  11.234  44.759   0.332
15290W        W75035  27.554   0.280  11.589
15291W        W75036  40.485  28.949  12.372
15292W        W75037  10.728  34.449   3.319
15293W        W75038  31.584  16.747  11.588
15294W        W75039  30.457  13.656  12.527
15295W        W75040  43.317  24.504   2.270
15296W        W75041  14.611   2.801  10.911
15297W        W75042   4.721   1.253   4.632
15298W        W75043  24.582  40.321  13.340
15299W        W75044  42.297   6.357   3.256
15300W        W75045  37.077  23.152   3.334
15301W        W75046  25.624  36.033  14.776
15302W        W75047  26.634  22.184   4.188
15303W        W75048  17.660   6.755  10.959
15304W        W75049   5.381   4.272  12.392
15305W        W75050  35.598  41.993  14.454
15306W        W75051  44.458   5.215  12.460
15307W        W75052   2.860  17.088  14.320
15308W        W75053  11.182  34.903  13.796
15309W        W75054   1.286  11.742   3.221
15310W        W75055   1.834   4.762  13.391
15311W        W75056  11.792   0.453   0.894
15312W        W75057  14.597  14.333   1.854
15313W        W75058  38.974  14.214   1.340
15314W        W75059  36.958  32.020   4.658
15315W        W75060  39.483  28.560  10.949
15316W        W75061  10.297   5.728  13.880
15317W        W75062  13.312  39.354   0.752
15318W        W75063  38.571  20.161  11.014
15319W        W75064  41.350   8.168   4.178
15320W        W75065  32.963  30.994   2.663
15321W        W75066  19.690   7.263   2.744
15322W        W75067  43.500   7.866   4.693
15323W        W75068  29.488   0.774  10.584
15324W        W75069  34.479   7.825   0.733
15325W        W75070  22.072  30.477  10.461
15326W        W75071  15.190  17.157   2.202
15327W        W75072   7.365  12.360  10.538
15328W        W75073  22.214  31.908  13.938
15329W        W75074  41.881  10.709  11.967
15330W        W75075  31.120  26.645   3.383
15331W        W75076  12.333  26.618  13.536
15332W        W75077  26.129   2.896   0.792
15333W        W75078  33.117  41.926  13.380
15334W        W75079  18.651  28.107   1.895
15335W        W75080   0.259  25.093   4.655
15336W        W75081   3.833  30.556  11.917
15337W        W75082  13.299  43.471  12.343
15338W        W75083   8.857  31.899   1.362
15339W        W75084  20.186   0.900   0.269
15340W        W75085  21.544  34.603   1.923
15341W        W75086  22.086   8.280  12.575
15342W        W75087  14.621  40.965   3.207
15343W        W75088  19.670  11.687  13.400
15344W        W75089  17.723  14.651  14.418
15345W        W75090   0.321   3.300   2.229
15346W        W75091  18.561  31.473  13.476
15347W        W75092  31.534  37.510  12.973
15348W        W75093  38.934   7.214  14.370
15349W        W75094  35.907  15.763  13.543
15350W        W75095  29.061   1.874   0.332
15351W        W75096  33.099   3.890   4.324
15352W        W75097  14.236  23.165  12.546
15353W        W75098  19.710  31.424  10.107
15354W        W75099   5.427  23.012   0.852
15355W        W75100  14.173  43.401   2.693
15356W        W75101  36.535  18.232  12.566
15357W        W75102   1.290   7.797  10.487
15358W        W75103  32.094  13.788   3.184
15359W        W75104  37.074   2.906  14.385
15360W        W75105  34.012  43.424  12.864
15361W        W75106  26.156  33.887  12.975
15362W        W75107  23.691  44.308   9.955
15363W        W75108  32.077  37.059   1.316
15364W        W75109   1.452   3.367  12.412
15365W        W75110  11.644  17.795  12.388
15366W        W75111  16.569   3.821   4.707
15367W        W75112  28.659   6.768   3.740
15368W        W75113  28.627  12.168  14.828
15369W        W75114  16.221  22.654  11.561
15370W        W75115  11.678   7.347   1.343
15371W        W75116  44.998  26.979  10.538
15372W        W75117  20.594  23.503  12.939
15373W        W75118  27.673  33.066   3.861
15374W        W75119   6.299  39.833   3.647
15375W        W75120  27.560  24.646   1.383
15376W        W75121  35.537  17.745   2.295
15377W        W75122   7.342   4.871  10.032
15378W        W75123  43.368  13.149   1.809
15379W        W75124  17.717   3.750  13.968
15380W        W75125  22.151  25.088  13.444
15381W        W75126  33.898   4.817  13.522
15382W        W75127  41.842  39.526   4.353
15383W        W75128  12.134  30.988  10.981
15384W        W75129   5.904   0.329  14.367
15385W        W75130  17.707  14.314  13.941
15386W        W75131  41.444  11.244  10.911
15387W        W75132  10.718  21.218   0.754
15388W        W75133  23.492  42.821   1.697
15389W        W75134  23.529   4.866  13.496
15390W        W75135  21.169  44.455  12.530
15391W        W75136  11.751  41.501   2.673
15392W        W75137  13.234  40.927   0.424
15393W        W75138  35.470  41.320  10.483
15394W        W75139  25.111  43.314   1.272
15395W        W75140  42.310  37.870   0.903
15396W        W75141  42.838  39.026  11.384
15397W        W75142  17.725   4.844  13.911
15398W        W75143  42.422   1.762  11.487
15399W        W75144   9.856  22.043  12.989
15400W        W75145  24.643  17.288  13.442
15401W        W75146  31.046  27.456  14.934
15402W        W75147  12.769   8.688  13.510
15403W        W75148  37.856   8.332   1.440
15404W        W75149  39.941  37.439  14.338
15405W        W75150  10.357  43.402  12.848
15406W        W75151  13.603   5.781  10.490
15407W        W75152  28.533  36.380  10.484
15408W        W75153  19.186   8.319  13.440
15409W        W75154  36.991  15.181   1.728
15410W        W75155   3.377  30.071  12.993
15411W        W75156  27.620  31.057   3.276
15412W        W75157  37.937  26.681  13.332
15413W        W75158  27.986  23.178   3.699
15414W        W75159  16.197  19.230  13.346
15415W        W75160  38.984   0.850   2.361
15416W        W75161  10.167  10.677   4.345
15417W        W75162  35.962  28.112  12.498
15418W        W75163  14.822  24.142  10.638
15419W        W75164   7.702  31.474   1.714
15420W        W75165  15.226  13.843   0.405
15421W        W75166  16.312  43.998   4.807
15422W        W75167   2.442  30.155  11.858
15423W        W75168  14.230   9.361   0.940
15424W        W75169  23.082  25.158   2.875
15425W        W75170  31.945  21.219   0.896
15426W        W75171   2.360  39.878   0.268
15427W        W75172  19.733  37.555  12.896
15428W        W75173  40.307  34.573  14.877
15429W        W75174   8.709  39.854   3.712
15430W        W75175  34.963   9.317  13.331
15431W        W75176  24.183   6.771  13.000
15432W        W75177   1.970  38.829   2.687
15433W        W75178  18.241  36.879   1.244
15434W        W75179   9.816  17.291   3.859
15435W        W75180  35.363   0.435   1.794
15436W        W75181  14.720   6.288   0.293
15437W        W75182  19.173  13.301  14.306
15438W        W75183  24.217  43.326  14.314
15439W        W75184  24.523  13.706   1.375
15440W        W75185  34.917  21.596  12.826
15441W        W75186  32.956  17.672   1.424
15442W        W75187  42.502  40.502  14.870
15443W        W75188  39.901   0.851   0.950
15444W        W75189  36.844  23.048   0.926
15445W        W75190  39.504  30.082  14.801
15446W        W75191  37.416  30.504   2.251
15447W        W75192  26.552  12.327  13.814
15448W        W75193  32.460  17.738   9.639
15449W        W75194  44.397  42.312   0.886
15450W        W75195  28.581  19.646   1.249
15451W        W75196  19.663  40.806   3.641
15452W        W75197  38.942  38.396   4.660
15453W        W75198  21.176  22.058   3.191
15454W        W75199  38.998  41.413  12.467
15455W        W75200  35.960  39.818  11.498
15456W        W75201  38.848  35.360  11.860
15457W        W75202  35.391   0.439  11.385
15458W        W75203   9.307  32.525   1.801
15459W        W75204   4.802  21.129  14.454
15460W        W75205  43.405  21.628  11.590
15461W        W75206  39.874  18.789  13.362
15462W        W75207  20.529   0.454  10.932
15463W        W75208  40.930   1.815   3.808
15464W        W75209  33.105  16.158  12.354
15465W        W75210  31.037  31.989  14.782
15466W        W75211  14.828  44.780   2.680
15467W        W75212  39.933  43.912  13.415
15468W        W75213  21.071  12.200  14.470
15469W        W75214  14.242  36.028   3.193
15470W        W75215   3.217  20.591   3.770
15471W        W75216   5.756  39.839  13.534
15472W        W75217  44.753  31.897  10.982
15473W        W75218  19.700  43.904   0.296
15474W        W75219   1.741  42.355  12.846
15475W        W75220  26.033  22.177   3.168
15476W        W75221   9.664  39.495   3.197
15477W        W75222  33.993   9.360   4.125
15478W        W75223  19.118  18.681  12.848
15479W        W75224  43.407   5.731   1.784
15480W        W75225  34.932   6.319  10.922
15481W        W75226   4.823  35.375   0.910
15482W        W75227  25.522  29.650  11.105
15483W        W75228  42.934   2.293   5.130
15484W        W75229  20.168  12.230   4.197
15485W        W75230  14.725   1.479   0.461
15486W        W75231   8.779  42.031  13.478
15487W        W75232  14.276  11.659  10.605
15488W        W75233  42.848  34.397   4.334
15489W        W75234  26.601  38.467   3.848
15490W        W75235  30.466  36.563  13.993
15491W        W75236  18.093  11.258  14.413
15492W        W75237   1.458   7.857  11.534
15493W        W75238  11.134  42.853  11.948
15494W        W75239  20.630   1.347   2.370
15495W        W75240  33.571  35.499  12.073
15496W        W75241  14.322  43.503  13.398
15497W        W75242   7.240   1.904  13.838
15498W        W75243   2.317  27.459   2.861
15499W        W75244   8.814  18.576  13.823
15500W        W75245  19.762  16.762  12.919
15501W        W75246  31.060  32.035  12.825
15502W        W75247  37.981  30.062  10.589
15503W        W75248  25.597   8.393  12.490
15504W        W75249  27.584   0.432  13.006
15505W        W75250  20.223  37.498   1.241
15506W        W75251   3.837  25.094   2.893
15507W        W75252  26.067  22.044  11.014
15508W        W75253  26.489  17.626   4.128
15509W        W75254   4.403   9.297   2.195
15510W        W75255   6.773  41.523   0.813
15511W        W75256  38.862  28.971  14.015
15512W        W75257  26.530  30.595   1.423
15513W        W75258  36.485  33.972  12.051
15514W        W75259   7.279  32.924   4.253
15515W        W75260  32.454  38.900   2.203
15516W        W75261  40.947  31.141  14.343
15517W        W75262  34.540  35.482   0.856
15518W        W75263  27.034  32.992   9.920
15519W        W75264  43.466  23.651  13.510
15520W        W75265  15.720  37.491   3.843
15521W        W75266  41.401  42.493  11.534
15522W        W75267  40.313  35.902  12.064
15523W        W75268  17.711  39.500   0.748
15524W        W75269  41.009  40.873   0.774
15525W        W75270  31.497  18.192   0.935
15526W        W75271  29.095  19.599  14.969
15527W        W75272  15.805  12.205   3.158
15528W        W75273  32.958  11.838  13.352
15529W        W75274   5.883   2.393   3.239
15530W        W75275   5.380  31.599  14.376
15531W        W75276  39.349   1.832  11.866
15532W        W75277  27.081  42.303   2.794
15533W        W75278  28.043  34.489   5.298
15534W        W75279  33.393  28.666   4.822
15535W        W75280  15.726  20.166  12.871
15536W        W75281  33.468   9.739  12.993
15537W        W75282  33.514   9.763   4.340
15538W        W75283  16.656  39.985  13.487
15539W        W75284  15.245  21.736  12.937
15540W        W75285   7.680  39.372   3.705
15541W        W75286  29.440  32.615   1.433
15542W        W75287  38.839   7.299   0.846
15543W        W75288   2.930  17.137   1.823
15544W        W75289  40.053  15.329   3.756
15545W        W75290  42.884  41.442   2.793
15546W        W75291  36.979  37.362   2.387
15547W        W75292  20.559  42.985   3.647
15548W        W75293  26.116  27.606  11.878
15549W        W75294  25.113  23.687   0.411
15550W        W75295  31.068   7.836  11.041
15551W        W75296  25.674   6.202  14.495
15552W        W75297  27.132  20.665  13.440
15553W        W75298   6.343   8.770  12.931
15554W        W75299  11.293  32.069  14.318
15555W        W75300  33.527  12.238   2.876
15556W        W75301  29.994   4.829  14.991
15557W        W75302  34.910  14.292  10.611
15558W        W75303  42.910  24.014   0.806
15559W        W75304  11.789  12.836  14.905
15560W        W75305  13.299  40.955  13.988
15561W        W75306  19.134  29.171  11.010
15562W        W75307  32.611  10.354   0.831
15563W        W75308  14.692  29.019   0.328
15564W        W75309   1.398  27.637   0.764
15565W        W75310  35.428  26.590  13.454
15566W        W75311   0.272   4.260   2.887
15567W        W75312  27.017  28.002  14.831
15568W        W75313  29.549   9.797   3.167
15569W        W75314  15.104  32.408  14.338
15570W        W75315  24.163  35.062  12.489
15571W        W75316   0.363  17.567   4.709
15572W        W75317  43.293  38.522  13.924
15573W        W75318  20.552   4.847   0.839
15574W        W75319  32.037  33.572   3.198
15575W        W75320  44.299  42.325   3.160
15576W        W75321  12.685  14.272  14.773
15577W        W75322   7.689   9.733  14.353
15578W        W75323   4.724  26.660   5.124
15579W        W75324   6.384   9.724   0.808
15580W        W75325  10.232  22.721   1.263
15581W        W75326  22.592  37.987  11.961
15582W        W75327  33.894  24.621   2.281
15583W        W75328   7.751  38.371   3.385
15584W        W75329   5.791  17.560   2.278
15585W        W75330  27.025  32.565  11.475
15586W        W75331  42.498  11.327  11.878
15587W        W75332   2.783  42.361   2.813
15588W        W75333  11.845  19.586  10.971
15589W        W75334  32.045  27.608   2.271
15590W        W75335  31.505  43.965  11.572
15591W        W75336  40.509  18.278   0.292
15592W        W75337  30.482   1.874   5.114
15593W        W75338   2.825   9.294  10.450
15594W        W75339  13.105  18.056  12.085
15595W        W75340  37.473  25.178  13.944
15596W        W75341  36.084  19.072   0.744
15597W        W75342  29.155  32.517  14.406
15598W        W75343  27.002  39.961  12.051
15599W        W75344  28.101  40.832   4.205
15600W        W75345  19.175  15.716  10.496
15601W        W75346  43.979  18.117   2.723
15602W        W75347   4.809  41.816   4.725
15603W        W75348  21.658   1.296  13.865
15604W        W75349  40.848   1.457  13.793
15605W        W75350  28.484  39.872   0.280
15606W        W75351  24.065  27.077  13.423
15607W        W75352  25.701  21.564  13.056
15608W        W75353  34.112  17.585   3.233
15609W        W75354  13.841  26.495   2.776
15610W        W75355   7.731   0.946  12.503
15611W        W75356  19.069  18.126  13.050
15612W        W75357  38.987  42.525   3.860
15613W        W75358  11.136   5.422   2.864
15614W        W75359  26.521  14.614   2.313
15615W        W75360  16.264  36.436   1.366
15616W        W75361  31.114  37.568   4.142
15617W        W75362  14.674  38.400   1.321
15618W        W75363  26.563  17.665  11.375
15619W        W75364   3.288   5.408   2.187
15620W        W75365   9.785  35.057  12.080
15621W        W75366  22.207  19.234   3.650
15622W        W75367  38.056  11.336  12.450
15623W        W75368  14.800  39.424   1.709
15624W        W75369  32.516  39.844   3.220
15625W        W75370  11.334   1.919  12.066
15626W        W75371  26.477  11.728  11.107
15627W        W75372   6.721  26.603   3.290
15628W        W75373   3.939  14.164  12.914
15629W        W75374   1.359  25.006   2.785
15630W        W75375  11.840  29.573   0.263
15631W        W75376  32.114   2.965   1.928
15632W        W75377  32.434   1.404  14.953
15633W        W75378  22.237  39.550  12.948
15634W        W75379  19.152  40.856  11.921
15635W        W75380  38.913  35.054   3.764
15636W        W75381  21.567  19.735  10.448
15637W        W75382  43.779  17.205  10.633
15638W        W75383  18.688  11.683   1.257
15639W        W75384  44.291  18.745  12.526
15640W        W75385  19.659  43.357  12.984
15641W        W75386  10.229  19.618  13.890
15642W        W75387  10.292  17.802  11.413
15643W        W75388  16.236  44.991   4.283
15644W        W75389  43.321  18.080  12.577
15645W        W75390  29.975  17.585   4.157
15646W        W75391  25.199  43.771  11.395
15647W        W75392   9.781  39.900  11.922
15648W        W75393   9.298  28.509   4.203
15649W        W75394  30.475  35.013   1.294
15650W        W75395  26.526  14.631  10.496
15651W        W75396  33.488  32.415  11.373
15652W        W75397  22.708  33.021  14.496
15653W        W75398  19.560  28.016   2.404
15654W        W75399   8.763  39.012   2.816
15655W        W75400   1.298   3.272   2.364
15656W        W75401  31.912   1.832   3.836
15657W        W75402  18.720  26.078   4.681
15658W        W75403  21.608  35.044  10.045
15659W        W75404  40.999  22.719  13.328
15660W        W75405  11.637  37.523  14.942
15661W        W75406   2.762  18.590  13.949
15662W        W75407  12.751  31.625   3.245
15663W        W75408  28.078  37.073   4.132
15664W        W75409  42.315  35.901  12.837
15665W        W75410  33.553  33.500   1.414
15666W        W75411  10.360  28.133   2.337
15667W        W75412  11.833  17.572  10.528
15668W        W75413  10.280  19.050   1.389
15669W        W75414  26.093   9.715   4.250
15670W        W75415  17.661  30.512  13.983
15671W        W75416  24.028  40.350   5.294
15672W        W75417   5.392  31.463  13.029
15673W        W75418  13.133  42.785  13.858
15674W        W75419  38.431  29.663   1.328
15675W        W75420  42.381  41.870   3.721
15676W        W75421   6.794  32.500   1.257
15677W        W75422  28.007  12.837   1.699
15678W        W75423  13.225   2.844  14.496
15679W        W75424  13.663  19.584  14.400
15680W        W75425  44.307  43.972   3.811
15681W        W75426  42.372   8.657   3.248
15682W        W75427  15.208   6.239  13.938
15683W        W75428  40.537  25.492  12.520
15684W        W75429  24.157   4.789   0.290
15685W        W75430  25.132   3.767  11.528
15686W        W75431  18.055  21.572   4.695
15687W        W75432  39.912  16.788  13.899
15688W        W75433  33.432  12.697   0.308
15689W        W75434  28.113  42.424  11.433
15690W        W75435  31.578  39.005   1.301
15691W        W75436  29.651  35.533  13.493
15692W        W75437  15.255  17.296   4.785
15693W        W75438  24.192   5.737   3.229
15694W        W75439   1.769  31.581  14.363
15695W        W75440  26.527  24.038  12.422
15696W        W75441   8.192  35.409  13.889
15697W        W75442  16.704   5.407  13.396
15698W        W75443  32.500  22.606   2.181
15699W        W75444  42.511  21.057   4.598
15700W        W75445  24.502  38.469   3.805
15701W        W75446  37.398  27.585   0.794
15702W        W75447  41.422   6.418  10.455
15703W        W75448  38.506   5.708  12.563
15704W        W75449  28.681   3.923   1.760
15705W        W75450  30.593  31.620   5.291
15706W        W75451  38.896  24.169   2.826
15707W        W75452   8.175  41.919  11.125
15708W        W75453   1.946  25.659  13.404
15709W        W75454  20.083  34.465   3.349
15710W        W75455  20.537  30.087   2.279
15711W        W75456  11.709  21.224   4.770
15712W        W75457   8.807  24.708   1.256
15713W        W75458  34.554  33.112  14.963
15714W        W75459  37.543  14.822  14.862
15715W        W75460  35.031  24.192   2.883
15716W        W75461  19.150  35.893  11.916
15717W        W75462   1.428  11.270  12.439
15718W        W75463  21.255  34.501  13.314
15719W        W75464  26.614  28.528  11.100
15720W        W75465  42.292  14.739   1.293
15721W        W75466   8.794  24.615  13.468
15722W        W75467  20.737   0.938   2.259
15723W        W75468   8.230   6.354  11.894
15724W        W75469  43.384   3.734   4.253
15725W        W75470   9.343  17.225   0.303
15726W        W75471  12.194   5.416  11.517
15727W        W75472  37.345  43.988   3.634
15728W        W75473  21.080   0.399   1.298
15729W        W75474  20.626  42.436   3.253
15730W        W75475  13.684   0.351   2.286
15731W        W75476   6.217   7.873   2.226
15732W        W75477  44.973  44.452   1.374
15733W        W75478   4.732  41.907   3.726
15734W        W75479  34.393  10.743  11.884
15735W        W75480  30.968  27.533   2.895
15736W        W75481  25.105  42.996   4.203
15737W        W75482  26.569  18.562   2.776
15738W        W75483  13.173  27.987  14.979
15739W        W75484  34.912   1.734  12.458
15740W        W75485  35.928   4.295   0.840
15741W        W75486  39.356  37.832  10.469
15742W        W75487  23.010  22.055  10.933
15743W        W75488  30.640  16.092   4.347
15744W        W75489  19.580  23.119   4.292
15745W        W75490  27.496  26.201   3.330
15746W        W75491  33.431  30.046   4.247
15747W        W75492  40.537  39.530  13.904
15748W        W75493   9.748  27.997   4.276
15749W        W75494  34.017  34.451  14.875
15750W        W75495   7.390  43.772   1.251
15751W        W75496  12.212  43.013   0.458
15752W        W75497  35.863   2.741  10.596
15753W        W75498  34.541   4.287  13.864
15754W        W75499  30.413   2.748   4.667
15755W        W75500   3.748  29.644   0.248
15756W        W75501  24.985   6.693   0.789
15757W        W75502  13.304   6.315  11.381
15758W        W75503  36.841  29.017   4.183
15759W        W75504  37.048   9.361  11.491
15760W        W75505  28.591  27.062  10.510
15761W        W75506   5.280  40.000   0.864
15762W        W75507  21.635  30.441   3.219
15763W        W75508  40.804  23.131   4.279
15764W        W75509  33.563  32.541   3.652
15765W        W75510  21.723  40.422  12.358
15766W        W75511  44.780  21.537   0.966
15767W        W75512   0.477  36.904   0.424
15768W        W75513   8.729  13.692  13.442
15769W        W75514  31.150  30.499  10.904
15770W        W75515  21.590  22.235   3.682
15771W        W75516  33.532  37.043   4.223
15772W        W75517  36.976  19.636  12.416
15773W        W75518  26.980  31.150  11.597
15774W        W75519  24.715  25.488  12.562
15775W        W75520  43.412  30.042   3.838
15776W        W75521  21.582   1.769  13.987
15777W        W75522   6.287   5.706  13.403
15778W        W75523   5.744  30.991   2.824
15779W        W75524  13.782   7.293  12.551
15780W        W75525  36.471  14.126   3.290
15781W        W75526  35.480  15.209  11.009
15782W        W75527  23.542  26.611  11.455
15783W        W75528   8.756  34.555   2.271
15784W        W75529  30.609  12.794   0.434
15785W        W75530  27.053  16.210  12.433
15786W        W75531  44.930   1.448   0.936
15787W        W75532  12.806  39.034  10.444
15788W        W75533  22.586  30.545   1.796
15789W        W75534  25.149   6.890  13.947
15790W        W75535  36.926  17.156  14.032
15791W        W75536  44.408  12.744  13.429
15792W        W75537  18.575  42.467  10.916
15793W        W75538   9.656  31.424  12.042
15794W        W75539   1.341  25.069  13.983
15795W        W75540  27.944  43.433  13.864
15796W        W75541  12.723   3.719   3.789
15797W        W75542  12.304  10.357   3.158
15798W        W75543  38.342  31.057  14.788
15799W        W75544  31.053  29.565  14.469
15800W        W75545   2.742  14.208   2.382
15801W        W75546  12.184  36.950  10.488
15802W        W75547  29.465  36.893  11.992
15803W        W75548  40.000   3.901  13.407
15804W        W75549  38.521  17.226  14.758
15805W        W75550   9.762  25.078  13.856
15806W        W75551  34.030  24.054  12.981
15807W        W75552   0.445  38.976  14.355
15808W        W75553  11.757  37.480  13.467
15809W        W75554  14.316  33.568   2.730
15810W        W75555  22.022  23.119  11.086
15811W        W75556  13.718  39.415  13.373
15812W        W75557  23.020  20.224   2.874
15813W        W75558   8.856  23.508  14.797
15814W        W75559  41.864  24.002   0.268
15815W        W75560  28.950  34.612   2.389
15816W        W75561   3.251  29.057  14.969
15817W        W75562  32.886  42.842   4.716
15818W        W75563  27.449  20.186  10.581
15819W        W75564  14.742  25.077   4.813
15820W        W75565  31.423  29.992  10.981
15821W        W75566  39.422  33.907   2.775
15822W        W75567  22.247  17.111   4.199
15823W        W75568  14.804   9.384  13.917
15824W        W75569  24.634   7.721  12.555
15825W        W75570  39.937  39.422  12.432
15826W        W75571  23.078  16.235   4.145
15827W        W75572   0.885  20.198  12.940
15828W        W75573   1.428  38.972  13.431
15829W        W75574  34.897  26.580   1.773
15830W        W75575  23.151  39.339   1.404
15831W        W75576   8.389  25.028   3.651
15832W        W75577  40.016  34.026  13.319
15833W        W75578   7.236  39.876   3.194
15834W        W75579  23.163  30.052   0.900
15835W        W75580  13.271  29.475  12.469
15836W        W75581  33.555  13.687  14.374
15837W        W75582   8.865  44.980   3.315
15838W        W75583  11.853  42.806   1.772
15839W        W75584  11.160  21.719   0.795
15840W        W75585  30.123  12.165  14.438
15841W        W75586  39.957  29.540   2.407
15842W        W75587  37.499   7.389  13.529
15843W        W75588  11.311  25.006  14.507
15844W        W75589  16.168  10.848  11.599
15845W        W75590  32.067  42.030  12.053
15846W        W75591   3.897  36.039   0.463
15847W        W75592  38.873  16.122  12.418
15848W        W75593  40.516  18.583  11.512
15849W        W75594  42.953  25.491   4.273
15850W        W75595  14.237  17.127  13.463
15851W        W75596  23.622   3.884   1.852
15852W        W75597  38.899  44.379  12.539
15853W        W75598   3.266  19.282   0.439
15854W        W75599   8.881  44.830   1.449
15855W        W75600  42.374  16.646  14.809
15856W        W75601  21.669  21.598   4.248
15857W        W75602  14.653   4.325  13.311
15858W        W75603  43.433  23.989  12.962
15859W        W75604  43.849  11.329  12.421
15860W        W75605  27.644  36.581   1.451
15861W        W75606   2.323  11.192  12.844
15862W        W75607  34.968  16.785  11.371
15863W        W75608  27.970  42.459  10.894
15864W        W75609   5.231  38.929   2.897
15865W        W75610  32.898   3.755   0.807
15866W        W75611  20.698  30.972   3.203
15867W        W75612  12.770  44.357   3.699
15868W        W75613  22.521  33.408   1.323
15869W        W75614   5.901   9.308   0.845
15870W        W75615   8.378  12.185   3.380
15871W        W75616  19.614  36.086  14.993
15872W        W75617   5.290   7.755  13.861
15873W        W75618  31.429  32.584  12.572
15874W        W75619  29.139  10.229   1.904
15875W        W75620  26.057  17.277  10.408
15876W        W75621  41.323   9.150  14.856
15877W        W75622   6.753  25.659   2.251
15878W        W75623  41.989  18.614   0.831
15879W        W75624  26.473  22.064  12.091
15880W        W75625  23.233  30.534  13.326
15881W        W75626  18.071  29.485  10.909
15882W        W75627  30.008  20.117   4.126
15883W        W75628   4.392   5.777  13.405
15884W        W75629  19.170  32.920  10.600
15885W        W75630  31.562  24.564  13.384
15886W        W75631  12.231  11.796   2.697
15887W        W75632  22.045  10.637   0.790
15888W        W75633  28.934  22.201   0.266
15889W        W75634  15.283  23.731   2.755
15890W        W75635  29.079  30.573   3.688
15891W        W75636  19.158  35.976   2.884
15892W        W75637  21.243  43.291  10.473
15893W        W75638  38.477  21.206  14.932
15894W        W75639  27.549  17.221  10.495
15895W        W75640  37.363  12.215  11.399
15896W        W75641  14.608  22.031   0.881
15897W        W75642  28.572   6.406   4.694
15898W        W75643  38.848  33.052   1.435
15899W        W75644   4.360   6.224  12.555
15900W        W75645  16.198  44.283  12.086
15901W        W75646  40.924  11.713   1.218
15902W        W75647  14.597  11.726   3.808
15903W        W75648  36.437  21.175   0.952
15904W        W75649   0.970  14.705  12.494
15905W        W75650   1.342  26.058  11.556
15906W        W75651  43.454  44.467  13.486
15907W        W75652  42.984  33.413   3.177
15908W        W75653   0.850   1.437   1.697
15909W        W75654   2.939  16.664   4.220
15910W        W75655  26.040   4.798  13.503
15911W        W75656  44.923  23.572   0.369
15912W        W75657   5.826  33.582  13.923
15913W        W75658  25.047  26.995   0.453
15914W        W75659   4.427  30.469   2.780
15915W        W75660  14.640  25.572   3.767
15916W        W75661  15.318  40.916  14.459
15917W        W75662  36.083  27.009   0.847
15918W        W75663  18.131  10.769  10.955
15919W        W75664   3.377  36.498   1.704
15920W        W75665  42.460   2.445  10.488
15921W        W75666  28.988   8.242  13.850
15922W        W75667  19.717  32.003   0.255
15923W        W75668  15.214  12.744   4.206
15924W        W75669  24.512   5.855   2.412
15925W        W75670  34.113  33.402   2.816
15926W        W75671  38.380  40.864   3.764
15927W        W75672  14.704  39.499  10.581
15928W        W75673  21.205  43.912  14.941
15929W        W75674  41.329   8.305   1.865
15930W        W75675  26.186  27.530   1.269
15931W        W75676   2.902  36.444  13.529
15932W        W75677  23.672  11.188   3.179
15933W        W75678  17.070  16.288  14.341
15934W        W75679  32.399  43.473  10.995
15935W        W75680  43.331  21.190  13.376
15936W        W75681  14.671  40.850  13.438
15937W        W75682  34.042  29.081  12.960
15938W        W75683  33.614  23.000   3.850
15939W        W75684  12.817  14.108   3.336
15940W        W75685   7.833  37.972  10.579
15941W        W75686  29.138  15.748   0.876
15942W        W75687  31.604  20.107  12.016
15943W        W75688  18.257  41.947  14.979
15944W        W75689  32.409   2.856   1.879
15945W        W75690  24.722  28.516   9.479
15946W        W75691  15.211   2.254   3.325
15947W        W75692  28.488  18.251   2.858
15948W        W75693  41.432  20.539  14.421
15949W        W75694   2.896  27.543  12.024
15950W        W75695  30.561  39.921  14.958
15951W        W75696  25.204   9.163  12.542
15952W        W75697  34.005  24.053  11.581
15953W        W75698  35.391  29.446  11.439
15954W        W75699   0.487  17.631  11.544
15955W        W75700   5.258  37.426  13.486
15956W        W75701  14.094  25.681  14.859
15957W        W75702  13.209  19.541   3.301
15958W        W75703  15.178   3.940   0.898
15959W        W75704  20.066   2.438   3.225
15960W        W75705  11.333  24.011  11.067
15961W        W75706  42.904  32.494  10.121
15962W        W75707  16.640  29.044   0.726
15963W        W75708   6.833  19.640   0.401
15964W        W75709  15.760  11.712   4.237
15965W        W75710   4.792  24.707   2.320
15966W        W75711   4.904   3.344  14.841
15967W        W75712  36.531  35.882   4.351
15968W        W75713  35.510  43.944   1.351
15969W        W75714  21.150  35.583   3.661
15970W        W75715  34.091  12.794   0.801
15971W        W75716  23.013  22.018   0.770
15972W        W75717  34.428  39.400  12.566
15973W        W75718   2.264  25.645   3.649
15974W        W75719   2.964  38.385   3.226
15975W        W75720  23.592  35.565  11.119
15976W        W75721  11.360  40.381   3.239
15977W        W75722  32.110  44.357   1.795
15978W        W75723  28.599  44.413  13.793
15979W        W75724   7.297  23.097  13.533
15980W        W75725   0.857  10.228   3.196
15981W        W75726   1.238  14.685  12.827
15982W        W75727  31.900  22.195  11.005
15983W        W75728  11.829   3.432   3.705
15984W        W75729  44.308   4.428  14.292
15985W        W75730   1.799  39.885  14.790
15986W        W75731  43.830  36.547  11.557
15987W        W75732  17.105  37.337  14.914
15988W        W75733  13.689  10.287  13.398
15989W        W75734  19.648  14.274  13.471
15990W        W75735  14.272  12.336  13.469
15991W        W75736  13.242   0.289  14.926
15992W        W75737   1.469  32.480   0.464
15993W        W75738  37.838  17.271  11.456
15994W        W75739  24.509  28.992  10.557
15995W        W75740  29.573  14.154  12.073
15996W        W75741  40.001  13.252   4.830
15997W        W75742   3.232  29.124  10.559
15998W        W75743   2.347  18.785  11.935
15999W        W75744  42.316  17.133   2.863
16000W        W75745  26.082  20.665  14.030
16001W        W75746  15.654  43.429  11.865
16002W        W75747   5.886  19.644   3.685
16003W        W75748  44.488   8.302   0.380
16004W        W75749  42.434   6.418  10.421
16005W        W75750  43.901  21.743   9.657
16006W        W75751   7.340  22.105  10.594
16007W        W75752  36.470  29.660   1.800
16008W        W75753  35.970  15.637   4.606
16009W        W75754  41.493   8.374  10.595
16010W        W75755   8.742  17.124  10.436
16011W        W75756   3.347  13.824   1.901
16012W        W75757  31.993  17.567   2.399
16013W        W75758  18.227  42.412   0.937
16014W        W75759  22.647  37.025  12.417
16015W        W75760  10.376  41.369  11.584
16016W        W75761  19.673  26.628   1.273
16017W        W75762  28.157  25.010  12.839
16018W        W75763  27.108  35.548  11.106
16019W        W75764   3.744  22.731  12.881
16020W        W75765  29.021  11.251  12.846
16021W        W75766  35.591  14.623  14.930
16022W        W75767  19.218  28.538  10.451
16023W        W75768  15.626  19.593   2.267
16024W        W75769  39.970   8.347  14.427
16025W        W75770   1.365   8.211  14.019
16026W        W75771   6.390   9.222   2.880
16027W        W75772   7.204  37.047   1.434
16028W        W75773  31.541  20.716  12.541
16029W        W75774  26.534  11.143  14.811
16030W        W75775  23.553  17.560  14.943
16031W        W75776   7.244  20.603   4.266
16032W        W75777  30.027  19.694   4.260
16033W        W75778  16.584  13.238   0.424
16034W        W75779  16.696  23.193   2.823
16035W        W75780   4.897  42.443   2.242
16036W        W75781  16.613  20.656   2.820
16037W        W75782  21.724  32.576  12.348
16038W        W75783   3.306  29.528   1.303
16039W        W75784  17.184  20.091   2.404
16040W        W75785   8.722  14.619  14.887
16041W        W75786  31.489   9.356   2.808
16042W        W75787  28.643  41.434   1.796
16043W        W75788   2.769  24.562   1.747
16044W        W75789  44.282  11.774  14.327
16045W        W75790  25.201  10.282  10.413
16046W        W75791  15.285  39.362  10.638
16047W        W75792  42.788  17.698   0.450
16048W        W75793  26.039  44.486  11.590
16049W        W75794  34.892  15.647   0.298
16050W        W75795   4.244   5.287  13.500
16051W        W75796  33.484  19.745   1.887
16052W        W75797   2.803  11.244   3.226
16053W        W75798  35.939  31.560  11.945
16054W        W75799   9.322  13.837  14.847
16055W        W75800  36.957  14.262  13.422
16056W        W75801  39.382   6.725  14.995
16057W        W75802  31.424  23.637  10.426
16058W        W75803   5.854   8.208   1.749
16059W        W75804   6.703  29.969   1.219
16060W        W75805  23.061  13.763   4.179
16061W        W75806  27.170  18.131   2.256
16062W        W75807  35.982  20.248  14.786
16063W        W75808  41.324  37.866   2.241
16064W        W75809  30.617  29.029   4.610
16065W        W75810  30.095  20.751   2.287
16066W        W75811  40.437  35.466  11.602
16067W        W75812  42.524  31.152   5.247
16068W        W75813  44.869   7.299  11.417
16069W        W75814  39.491   4.379  11.035
16070W        W75815  23.078  30.049   5.109
16071W        W75816  44.424  36.388   5.203
16072W        W75817  21.134  24.562  11.457
16073W        W75818  21.251  16.776  12.935
16074W        W75819  11.857  43.468   0.362
16075W        W75820  38.890  35.941  13.063
16076W        W75821  26.562  38.900   2.335
16077W        W75822  21.588  27.998  13.018
16078W        W75823   9.890  38.928  11.606
16079W        W75824  14.275  13.284  12.369
16080W        W75825  12.305   6.256  12.517
16081W        W75826  27.952  19.117  12.004
16082W        W75827  15.179   0.831   4.319
16083W        W75828   7.379  44.391   0.467
16084W        W75829  12.160  10.683   1.766
16085W        W75830  20.228   1.409   3.157
16086W        W75831  17.663  35.359  11.041
16087W        W75832  10.264   1.252  14.497
16088W        W75833  37.404  12.850  10.980
16089W        W75834  39.896   3.713   3.369
16090W        W75835   8.163  25.039   1.896
16091W        W75836  33.100   5.418   0.397
16092W        W75837  38.462  34.373   0.379
16093W        W75838  28.167  35.414   4.298
16094W        W75839   7.243  29.452   3.787
16095W        W75840  44.917   6.772  12.093
16096W        W75841  15.675   8.370  12.044
16097W        W75842   4.247  24.576   0.432
16098W        W75843  25.711  27.484  13.515
16099W        W75844  39.971  12.833  10.923
16100W        W75845  41.826  28.540  11.474
16101W        W75846  20.662  27.554  12.971
16102W        W75847   8.356  24.067   3.382
16103W        W75848  33.096  28.934   2.359
16104W        W75849  23.685  27.519   2.378
16105W        W75850   0.473  10.832  12.531
16106W        W75851  19.646  42.441  14.966
16107W        W75852  31.481  11.196   2.854
16108W        W75853  28.676  43.280   4.230
16109W        W75854  14.765  27.966   0.828
16110W        W75855   6.372  11.797  10.005
16111W        W75856  12.264  16.708   1.707
16112W        W75857  13.216  20.602  13.522
16113W        W75858  19.567  37.409   0.934
16114W        W75859  20.237  22.606  12.515
16115W        W75860  19.189  31.478   2.244
16116W        W75861  36.346   3.860   3.838
16117W        W75862  34.550  17.180   1.379
16118W        W75863  31.508  16.636  13.342
16119W        W75864  32.930  20.229   2.869
16120W        W75865  17.137  13.259  11.879
16121W        W75866   9.752   9.332  11.070
16122W        W75867  39.973  33.543  12.372
16123W        W75868   2.839   4.703   1.343
16124W        W75869  42.402  10.172  10.587
16125W        W75870  40.863  31.491  11.592
16126W        W75871  17.706   4.334   0.877
16127W        W75872   7.879  37.515   4.799
16128W        W75873  35.078  29.145  11.091
16129W        W75874  23.672  25.586  14.322
16130W        W75875  33.094  38.564  13.942
16131W        W75876  33.467  36.465   0.384
16132W        W75877  15.308   0.840   3.288
16133W        W75878  17.741  25.669   2.296
16134W        W75879  21.158  35.568  11.983
16135W        W75880   6.337  11.168   2.744
16136W        W75881  14.610  23.158   1.751
16137W        W75882  26.523  25.499  12.357
16138W        W75883  15.751  35.930  14.472
16139W        W75884  35.491  31.519   2.288
16140W        W75885  35.423  22.049   2.206
16141W        W75886  40.053   0.808  14.957
16142W        W75887  33.029  15.302   3.197
16143W        W75888  39.460  32.530   3.353
16144W        W75889  18.105  20.104  14.954
16145W        W75890  23.206  20.248  14.856
16146W        W75891  39.858  44.378  11.377
16147W        W75892   4.276  22.033   0.271
16148W        W75893  19.175   4.225   2.323
16149W        W75894  40.357  18.643  12.011
16150W        W75895   0.817  36.456  14.942
16151W        W75896  21.590   3.219  14.369
16152W        W75897  11.326   8.805   4.343
16153W        W75898   3.918  21.094   2.701
16154W        W75899  27.052  21.232   0.936
16155W        W75900   0.868  29.049   1.908
16156W        W75901  25.130  27.964  13.037
16157W        W75902   0.821  29.076  13.344
16158W        W75903  18.604  13.116  12.980
16159W        W75904  16.806   2.391  12.898
16160W        W75905   4.919  20.257   0.948
16161W        W75906  41.887  31.073   0.284
16162W        W75907  31.543  18.248  10.606
16163W        W75908  14.604  13.347  11.128
16164W        W75909  42.820  18.255   3.710
16165W        W75910  29.099  43.909   2.769
16166W        W75911   2.300  43.968   3.692
16167W        W75912   5.861  30.549  12.561
16168W        W75913  16.722  25.160  14.386
16169W        W75914   4.394  23.144  11.868
16170W        W75915  24.580  28.680  11.906
16171W        W75916  40.474  39.021   3.294
16172W        W75917  36.016  38.415   0.437
16173W        W75918   5.933  27.192  12.866
16174W        W75919  43.790  43.314   0.462
16175W        W75920  40.368   7.338   2.235
16176W        W75921  13.263  35.996   1.428
16177W        W75922  41.365  17.127   1.444
16178W        W75923  36.579  15.275  12.050
16179W        W75924   0.257  34.561   4.275
16180W        W75925  38.439  17.298  13.794
16181W        W75926  40.854  25.148  12.035
16182W        W75927  33.882  29.486  11.085
16183W        W75928  16.580  14.128  14.293
16184W        W75929  25.085  17.305  10.973
16185W        W75930   7.385   2.376  14.320
16186W        W75931  19.269  42.934  12.885
16187W        W75932  39.360  35.465   0.483
16188W        W75933  40.546  26.619  12.979
16189W        W75934  25.210  22.080  13.984
16190W        W75935  29.015  20.543   4.208
16191W        W75936   8.342   8.298   2.275
16192W        W75937  15.699   4.416  12.862
16193W        W75938  23.000  10.715  11.048
16194W        W75939  15.307  43.820  10.429
16195W        W75940  19.054   2.945   0.798
16196W        W75941   8.344  32.985   0.736
16197W        W75942  23.172   0.322  11.022
16198W        W75943  27.458  26.456  11.075
16199W        W75944  16.170  29.615  10.911
16200W        W75945  41.395  28.486  14.425
16201W        W75946  23.686  20.552  12.464
16202W        W75947  43.404  34.010  14.946
16203W        W75948  36.042  27.507   2.272
16204W        W75949  25.191  30.951  14.824
16205W        W75950  28.477  20.178   2.266
16206W        W75951   1.366   2.253   2.408
16207W        W75952  31.538  10.211  10.408
16208W        W75953  42.445  23.711  12.959
16209W        W75954   7.813  34.387   4.722
16210W        W75955   0.833  23.630   2.317
16211W        W75956   1.853  21.243   0.782
16212W        W75957  18.099  15.742   1.854
16213W        W75958  20.655  13.747   3.748
16214W        W75959  28.515   5.216  13.844
16215W        W75960  39.859   7.212  13.319
16216W        W75961  15.197   7.377   0.370
16217W        W75962  10.783  35.425  12.037
16218W        W75963  10.158  43.503  14.465
16219W        W75964  35.491  41.965   2.310
16220W        W75965  39.061  22.175   0.307
16221W        W75966  14.637  23.183   1.373
16222W        W75967   9.393  17.645  14.310
16223W        W75968  19.064  11.313  12.843
16224W        W75969  10.699  14.223  11.490
16225W        W75970  32.508   2.844  11.114
16226W        W75971  22.033  34.984  12.493
16227W        W75972   0.786  32.989   1.358
16228W        W75973  20.138  25.629   4.748
16229W        W75974  41.912   8.898   3.839
16230W        W75975  20.072  27.470   0.829
16231W        W75976  11.297  19.565  13.981
16232W        W75977  30.044   5.808   4.826
16233W        W75978   7.685  17.669   4.164
16234W        W75979   1.839  15.143  11.886
16235W        W75980  44.462  23.069   3.734
16236W        W75981   0.889  15.166   2.846
16237W        W75982  39.391  43.932  13.850
16238W        W75983  42.898  18.735  13.448
16239W        W75984  36.007  38.973   3.214
16240W        W75985  33.398   8.347  14.464
16241W        W75986  43.317  19.616   2.677
16242W        W75987   2.450  22.084   1.297
16243W        W75988  37.014   3.930   3.323
16244W        W75989  28.171   5.833  14.327
16245W        W75990  23.074  42.003   1.250
16246W        W75991  38.452  32.918  11.569
16247W        W75992  10.753  23.999  11.096
16248W        W75993   9.871  34.870  14.901
16249W        W75994  34.490   8.827  11.588
16250W        W75995  38.359  30.142  14.856
16251W        W75996  13.781   4.893   2.821
16252W        W75997   8.730  20.684   1.392
16253W        W75998  11.766   0.440  12.534
16254W        W75999   8.758  32.028  13.380
16255W        W76000  41.326  22.094  14.917
16256W        W76001  34.576  12.854  14.960
16257W        W76002  40.366  26.486  14.406
16258W        W76003  37.998   5.866  11.960
16259W        W76004  15.805   8.827   1.788
16260W        W76005   4.363   0.833  13.964
16261W        W76006   7.743   6.861   3.797
16262W        W76007   5.877  23.658   3.633
16263W        W76008  28.524  20.665   1.761
16264W        W76009  39.421   5.336   2.885
16265W        W76010  29.637  21.196  14.961
16266W        W76011  43.489  26.477   2.843
16267W        W76012  35.462   5.227  14.783
16268W        W76013  19.559  14.655  10.493
16269W        W76014  20.732  44.446   4.730
16270W        W76015   5.272   9.747   1.372
16271W        W76016  38.394  35.375  11.448
16272W        W76017  16.100  30.454  14.933
16273W        W76018  40.400  21.039  12.059
16274W        W76019   3.849  19.055  11.375
16275W        W76020  18.558   1.427  14.765
16276W        W76021   6.711  28.651   1.413
16277W        W76022  42.505  31.607  10.427
16278W        W76023  22.215  25.176   1.798
16279W        W76024  20.034  18.619  14.007
16280W        W76025   9.759  32.522  13.326
16281W        W76026  22.024  24.558   0.328
16282W        W76027  10.147  15.657  13.506
16283W        W76028  17.739  35.102  12.048
16284W        W76029  16.177  22.666  14.805
16285W        W76030  16.074   0.952  11.012
16286W        W76031  16.087  37.444   1.866
16287W        W76032   0.374  26.484  12.989
16288W        W76033  31.092  21.574   2.218
16289W        W76034  24.581  33.478  13.909
16290W        W76035  27.597  33.472   0.789
16291W        W76036  18.767  14.681   1.766
16292W        W76037  11.689  19.149  11.976
16293W        W76038  27.466  25.050   4.172
16294W        W76039   5.921   7.409   0.823
16295W        W76040  31.547  13.223   3.796
16296W        W76041  34.597  39.483   2.702
16297W        W76042   1.949  19.207  11.063
16298W        W76043  13.152  40.924  10.547
16299W        W76044   3.272  35.569  12.063
16300W        W76045   6.203   0.752  10.624
16301W        W76046   2.832  27.032   5.270
16302W        W76047  17.110  35.072   1.344
16303W        W76048   1.251  35.975   2.244
16304W        W76049  18.551  38.941   9.943
16305W        W76050  38.896   6.219  11.419
16306W        W76051  10.270  40.853  12.989
16307W        W76052  31.136  33.985   0.958
16308W        W76053   1.407  37.900  10.496
16309W        W76054  13.151  30.539  14.336
16310W        W76055  18.229   8.394  10.982
16311W        W76056   6.771   6.264  11.892
16312W        W76057  34.402  13.841   2.415
16313W        W76058  40.493  31.973  13.433
16314W        W76059  33.089  17.251  14.993
16315W        W76060   4.699  23.043  13.041
16316W        W76061   9.647  27.509  13.445
16317W        W76062  24.173  34.941  12.898
16318W        W76063  19.091  13.627  13.960
16319W        W76064  25.518   6.239   3.351
16320W        W76065   3.226  36.537  14.898
16321W        W76066  38.474  14.141  13.879
16322W        W76067  27.688   8.692  11.994
16323W        W76068  44.373  36.011  14.017
16324W        W76069  43.454  31.528  12.514
16325W        W76070  42.431  31.122   0.778
16326W        W76071  15.698  33.101  12.345
16327W        W76072  23.198  14.178  12.963
16328W        W76073   8.368  25.997   3.815
16329W        W76074  43.883   9.859  13.884
16330W        W76075   5.392  14.809  14.939
16331W        W76076  30.420  38.329   1.385
16332W        W76077   5.843  11.262  14.360
16333W        W76078  44.958  19.638   3.768
16334W        W76079  35.056  10.648  12.562
16335W        W76080  32.009  38.902  13.925
16336W        W76081  14.198  27.154   0.746
16337W        W76082  17.559   1.426   5.262
16338W        W76083  39.450  21.749   1.779
16339W        W76084  43.819  35.553  12.412
16340W        W76085  26.165  40.388  10.471
16341W        W76086   5.775   5.891  12.093
16342W        W76087  23.680  24.646  11.391
16343W        W76088  35.489  19.661   3.268
16344W        W76089  19.683  16.260   3.282
16345W        W76090  27.146   6.248   3.298
16346W        W76091  19.240  41.856  12.438
16347W        W76092  41.821  26.459  10.076
16348W        W76093  18.592  25.568   1.400
16349W        W76094  40.527   7.744   2.215
16350W        W76095   2.809  13.196   1.915
16351W        W76096  28.039  16.673  13.331
16352W        W76097   0.941  29.598  14.943
16353W        W76098  23.682   6.848  13.999
16354W        W76099  28.966  14.737  11.877
16355W        W76100  30.468  25.687  12.828
16356W        W76101  18.783  22.571  13.428
16357W        W76102   2.359  33.529  12.388
16358W        W76103  16.769  27.969  13.045
16359W        W76104  32.962  41.302   4.665
16360W        W76105  17.067   8.244   2.241
16361W        W76106   2.380  31.605   1.334
16362W        W76107  17.621  18.053  14.393
16363W        W76108   7.372  20.583   2.413
16364W        W76109  36.940  37.431  11.104
16365W        W76110  41.851  15.817  12.425
16366W        W76111  34.057  10.311   1.919
16367W        W76112   1.855  35.946  14.844
16368W        W76113  41.511  42.857  13.979
16369W        W76114  28.671  13.222   2.295
16370W        W76115  28.435   6.267   0.935
16371W        W76116   9.347  37.435  13.884
16372W        W76117  41.473   1.753  10.933
16373W        W76118  16.752   6.240  14.397
16374W        W76119  18.577  39.979  12.905
16375W        W76120  13.276  16.256   3.148
16376W        W76121  13.689  26.065   3.661
16377W        W76122   1.368  44.841  11.540
16378W        W76123  24.040  24.209  12.368
16379W        W76124   7.669  20.163  11.095
16380W        W76125  32.401  29.927  13.933
16381W        W76126  16.583  18.076   0.375
16382W        W76127  14.759   4.772  11.599
16383W        W76128  31.072   4.883  12.519
16384W        W76129  12.658  34.031  12.567
16385W        W76130  31.583   9.375  12.442
16386W        W76131   5.811  34.015  10.594
16387W        W76132  35.852  35.007  13.397
16388W        W76133  32.564  11.191  11.602
16389W        W76134   5.217  21.688   2.828
16390W        W76135  20.173  43.892   3.198
16391W        W76136   7.880  11.258  11.391
16392W        W76137  42.835   5.897  10.493
16393W        W76138  38.375  18.223   2.290
16394W        W76139  22.017  32.053   2.198
16395W        W76140  21.518  11.778  13.036
16396W        W76141   3.863  13.784  14.792
16397W        W76142  16.078   3.794  12.907
16398W        W76143  33.595   2.414   2.309
16399W        W76144  23.513  44.427   4.309
16400W        W76145   7.306  19.054   3.744
16401W        W76146  28.545   7.184   2.715
16402W        W76147  23.672  40.009  11.563
16403W        W76148  14.159   7.911   4.664
16404W        W76149  25.482  39.910   4.664
16405W        W76150  25.200  28.522  10.524
16406W        W76151  16.081  13.739   4.193
16407W        W76152   0.872  36.358   0.763
16408W        W76153  13.682  30.091  10.531
16409W        W76154  39.866  12.208  14.281
16410W        W76155  15.239   9.338   2.280
16411W        W76156  31.489  44.334   4.203
16412W        W76157  14.239  33.002  14.298
16413W        W76158  42.452  28.087  12.054
16414W        W76159  19.609   3.952   0.424
16415W        W76160   1.421  20.732   3.796
16416W        W76161   3.850  32.100  13.440
16417W        W76162  39.390  26.607   4.177
16418W        W76163  25.095  19.616  12.000
16419W        W76164   0.321  23.228   2.808
16420W        W76165  40.434  25.015   2.894
16421W        W76166  14.680  27.965  13.881
16422W        W76167  41.977  17.566   2.358
16423W        W76168  15.819  31.922  14.281
16424W        W76169  19.221  34.477   4.662
16425W        W76170   3.860   3.785  11.540
16426W        W76171  25.145  41.043   0.300
16427W        W76172  31.056   7.756  13.849
16428W        W76173  15.703  15.270  11.563
16429W        W76174   9.669  15.770   0.767
16430W        W76175  36.879   2.885  12.384
16431W        W76176  14.146  32.485   4.788
16432W        W76177  27.137  13.178   0.449
16433W        W76178  33.122  33.932  13.859
16434W        W76179  14.831  38.935  10.472
16435W        W76180   3.901  25.670  13.347
16436W        W76181   3.256  41.397  12.032
16437W        W76182  24.224  16.146  12.365
16438W        W76183  44.951  12.648  12.082
16439W        W76184  43.857  35.576   0.847
16440W        W76185  17.203  39.042   1.799
16441W        W76186  39.427  31.550  14.346
16442W        W76187   9.644  20.621  10.481
16443W        W76188   7.820  27.664  13.520
16444W        W76189  17.303  14.331   4.726
16445W        W76190  17.235  36.541  14.345
16446W        W76191  20.171  12.797  12.416
16447W        W76192  22.509  43.364  14.946
16448W        W76193  16.691  24.975  14.826
16449W        W76194   7.841  22.597  11.011
16450W        W76195  36.001  25.543  10.933
16451W        W76196   9.393  37.558   3.741
16452W        W76197  24.583   9.877  13.833
16453W        W76198  14.205  29.580   0.296
16454W        W76199  26.686  18.090  13.842
16455W        W76200  14.123  19.230   2.815
16456W        W76201  37.847  26.672  10.575
16457W        W76202  35.387  34.461  13.927
16458W        W76203  26.697  22.174  10.088
16459W        W76204  42.458  12.752   2.188
16460W        W76205   6.901  28.112   3.148
16461W        W76206  36.085  32.012  13.964
16462W        W76207   7.884  39.853   3.688
16463W        W76208  18.187  17.755  11.491
16464W        W76209  42.865  27.678   4.235
16465W        W76210  44.834  13.793  11.907
16466W        W76211  11.707  21.515  12.511
16467W        W76212  25.628  13.685   3.711
16468W        W76213  32.502   5.280  10.929
16469W        W76214  18.782  17.136   4.733
16470W        W76215  36.873   3.950   4.731
16471W        W76216  37.552  40.437   1.784
16472W        W76217   9.211  22.531  11.048
16473W        W76218  33.012  16.762  14.352
16474W        W76219  11.862   7.686   4.608
16475W        W76220   0.921  38.007  11.942
16476W        W76221  28.629  15.659   0.804
16477W        W76222  38.457   3.379   1.339
16478W        W76223  15.650  38.954  11.588
16479W        W76224  22.032  20.660   0.963
16480W        W76225  23.209  36.067  13.003
16481W        W76226  42.409  14.256  12.865
16482W        W76227   1.907  28.180   4.633
16483W        W76228  32.562  28.463   9.961
16484W        W76229  26.690   5.293   1.278
16485W        W76230  32.437  11.335  13.524
16486W        W76231  26.524  23.081   1.232
16487W        W76232  37.449  41.031  10.631
16488W        W76233  15.704  23.491  14.376
16489W        W76234  32.020  34.992   3.858
16490W        W76235  18.079  17.135   0.245
16491W        W76236  10.295  40.362   0.289
16492W        W76237   2.964  32.999  10.896
16493W        W76238  36.996  16.599   1.881
16494W        W76239  33.437  10.313   3.849
16495W        W76240  15.174   1.365   4.313
16496W        W76241  26.189  32.576   2.386
16497W        W76242   7.295  14.251   4.653
16498W        W76243  40.342  23.565  13.348
16499W        W76244  39.052   5.243   3.278
16500W        W76245  42.988  31.463  12.413
16501W        W76246  44.934  33.975  14.920
16502W        W76247   5.834   9.711  13.336
16503W        W76248   8.742  32.926   0.402
16504W        W76249   5.297   0.335   3.188
16505W        W76250  10.277  43.845   0.249
16506W        W76251  29.427  41.807   1.393
16507W        W76252  14.702  16.706   0.794
16508W        W76253  42.032  28.050   1.382
16509W        W76254  32.961  36.988   4.794
16510W        W76255  41.306  27.478  13.545
16511W        W76256  18.109  20.028  14.373
16512W        W76257  42.009  23.111  11.588
16513W        W76258  11.355  39.978   3.329
16514W        W76259  20.218  39.550   3.155
16515W        W76260  44.404  35.468   0.475
16516W        W76261  44.477  42.784   4.783
16517W        W76262   6.882   7.332   1.248
16518W        W76263  37.388  40.020  11.072
16519W        W76264  22.550  34.542  10.982
16520W        W76265  29.528   3.293   1.792
16521W        W76266   9.771  18.728  14.493
16522W        W76267  33.531  28.126   4.691
16523W        W76268  21.595  28.474   0.342
16524W        W76269  20.153  44.917  12.920
16525W        W76270   2.427  27.185   2.348
16526W        W76271  25.596   4.890   4.838
16527W        W76272  12.673  43.839   4.300
16528W        W76273  17.116  29.577   1.301
16529W        W76274  29.045  32.008  12.074
16530W        W76275  40.365  10.222  10.516
16531W        W76276  39.039  19.094  11.979
16532W        W76277  31.999   0.785  12.447
16533W        W76278  27.108  26.606   3.861
16534W        W76279  23.103  34.385  13.497
16535W        W76280  29.583  44.882   3.708
16536W        W76281  14.771  34.511  12.824
16537W        W76282  22.687  13.626   0.270
16538W        W76283  18.166  39.474  11.897
16539W        W76284  35.385   7.867  14.871
16540W        W76285  11.229  44.314  13.839
16541W        W76286   3.937   1.752  13.950
16542W        W76287  15.583  33.552   1.934
16543W        W76288  24.008   8.785   5.098
16544W        W76289  42.375   5.255   1.812
16545W        W76290  10.841  31.944  12.954
16546W        W76291   8.657   6.734  10.417
16547W        W76292   9.670   1.259  11.426
16548W        W76293  27.070  17.573   0.375
16549W        W76294  31.461  35.365  11.546
16550W        W76295  36.058  39.855   2.887
16551W        W76296  39.063  13.233   1.443
16552W        W76297  26.124  20.569  13.520
16553W        W76298  17.190  17.069   0.367
16554W        W76299  28.608   7.415  11.390
16555W        W76300  16.294  19.127  13.017
16556W        W76301  33.877   9.728  10.889
16557W        W76302  41.820   7.685   1.910
16558W        W76303   2.758   9.749   4.344
16559W        W76304   3.227  12.312  12.856
16560W        W76305  30.006  44.833  12.553
16561W        W76306   2.870   2.963  11.556
16562W        W76307   6.801  24.489  13.870
16563W        W76308   6.395  12.746  11.491
16564W        W76309  32.397   3.241  13.365
16565W        W76310  17.762  17.231  14.411
16566W        W76311  41.003  39.554   2.382
16567W        W76312   8.212  35.997  12.405
16568W        W76313  27.497  23.673   0.399
16569W        W76314  28.125  35.987   2.366
16570W        W76315   3.735  28.012   3.316
16571W        W76316   7.829  42.477   1.704
16572W        W76317   6.368  35.086   4.772
16573W        W76318  39.909  44.858  13.999
16574W        W76319   4.233  14.666   1.813
16575W        W76320  28.968  19.674  12.426
16576W        W76321  20.705  16.769   2.409
16577W        W76322  19.272  24.006  12.417
16578W        W76323   8.837  14.589   1.848
16579W        W76324  25.140  29.594  13.509
16580W        W76325  40.865  14.711  13.860
16581W        W76326  12.296  30.427  10.574
16582W        W76327   8.309   9.761  12.093
16583W        W76328  18.652  24.081  11.418
16584W        W76329  10.199   7.347   0.762
16585W        W76330   8.316  14.175  12.450
16586W        W76331  32.442  22.651  13.823
16587W        W76332  17.701  44.305  14.312
16588W        W76333  23.106  23.655   2.293
16589W        W76334   3.316   6.424   2.404
16590W        W76335  28.069  31.052   2.346
16591W        W76336  23.191  27.575  11.548
16592W        W76337  17.758  36.395   3.245
16593W        W76338  30.504  17.206   0.957
16594W        W76339  20.139  15.723   1.372
16595W        W76340  12.177  22.511  12.010
16596W        W76341  40.842  38.549   3.748
16597W        W76342  30.069   9.729  14.879
16598W        W76343  37.362   1.421  10.428
16599W        W76344  29.050  11.170   4.231
16600W        W76345  34.887  27.093  12.354
16601W        W76346  34.380  35.099   3.781
16602W        W76347  29.448  20.528  11.041
16603W        W76348  29.939   1.463  12.082
16604W        W76349  37.945  12.191  13.326
16605W        W76350  26.602  11.312  14.022
16606W        W76351  30.460  42.906   2.394
16607W        W76352  32.625  29.536  12.344
16608W        W76353  17.703  11.218   2.279
16609W        W76354  11.767  21.023   0.375
16610W        W76355  25.678  21.524  10.555
16611W        W76356   6.865  17.258   4.769
16612W        W76357  34.986  32.103   4.811
16613W        W76358   4.292  44.816   2.418
16614W        W76359  30.110  23.984  10.472
16615W        W76360  40.948  33.428  13.870
16616W        W76361  40.487  26.674   0.318
16617W        W76362  13.323  10.322   1.346
16618W        W76363  30.016  19.609   0.883
16619W        W76364  11.786  18.131  14.019
16620W        W76365   9.711  43.500  13.315
16621W        W76366  13.278  33.088   1.256
16622W        W76367  43.965  11.655  12.575
16623W        W76368  19.703  15.329   1.810
16624W        W76369  43.885  26.690   2.242
16625W        W76370  40.333  20.768  14.381
16626W        W76371  25.001  25.022  14.430
16627W        W76372   2.917   9.842   4.715
16628W        W76373  20.110   4.809  11.548
16629W        W76374  18.719  16.079  10.950
16630W        W76375  40.995  20.074   0.812
16631W        W76376  13.256  30.921  13.939
16632W        W76377  40.914  29.661   3.630
16633W        W76378  42.454   7.195   0.385
16634W        W76379  24.046   1.902   1.219
16635W        W76380  35.084   4.855  13.933
16636W        W76381  19.641  39.532  11.483
16637W        W76382  17.263  11.744   0.286
16638W        W76383  34.083   1.348   4.703
16639W        W76384  16.589  24.638  10.452
16640W        W76385  39.394  16.245   0.808
16641W        W76386  16.687   3.931   3.680
16642W        W76387  14.322  39.500   1.243
16643W        W76388  14.820   3.284   2.901
16644W        W76389  28.108  38.468   3.324
16645W        W76390  14.114  27.151  14.444
16646W        W76391  35.467  23.661   2.408
16647W        W76392  24.112  38.006  11.593
16648W        W76393   2.818  18.113  14.789
16649W        W76394  29.441   4.341   9.545
16650W        W76395  23.182  34.077  12.534
16651W        W76396  22.220   7.375   0.298
16652W        W76397  36.460  44.469  14.953
16653W        W76398  33.919  32.507  11.512
16654W        W76399  13.631  19.771   4.171
16655W        W76400  41.299  42.298   3.245
16656W        W76401  36.959  13.267   3.239
16657W        W76402  28.166  26.532   3.317
16658W        W76403  20.722  34.931  11.043
16659W        W76404  41.998  16.173  13.982
16660W        W76405  34.545  44.397  11.557
16661W        W76406  10.254  35.387   3.635
16662W        W76407  12.628  27.071   2.290
16663W        W76408  17.183  32.903   2.867
16664W        W76409  33.898  41.532  14.319
16665W        W76410   6.878  33.383   3.386
16666W        W76411  35.511  13.254  13.976
16667W        W76412   6.848  34.928   2.757
16668W        W76413  18.666  21.258  11.400
16669W        W76414  33.609  19.598   0.891
16670W        W76415  44.260  28.479  12.399
16671W        W76416   2.304  42.780   3.706
16672W        W76417   3.879  31.536  10.472
16673W        W76418   3.952  21.105  12.493
16674W        W76419   8.846  40.055  13.836
16675W        W76420  27.609  13.780   1.904
16676W        W76421  11.703   3.845   1.354
16677W        W76422  27.015  23.490   4.162
16678W        W76423  44.301  42.923   2.893
16679W        W76424  20.152  21.605   1.750
16680W        W76425  10.280  32.898   0.816
16681W        W76426   7.329  44.908   1.849
16682W        W76427  17.281  11.193   1.763
16683W        W76428  44.296  19.615   3.148
16684W        W76429  34.980   3.871   1.360
16685W        W76430  30.475  33.426  13.382
16686W        W76431  19.246  12.831   4.191
16687W        W76432  38.855  39.453   0.481
16688W        W76433   4.909  11.268   3.150
16689W        W76434   3.780  32.397   1.918
16690W        W76435  25.962   8.392  12.830
16691W        W76436  11.762  10.247  10.124
16692W        W76437  21.056   5.843   2.678
16693W        W76438  38.052  38.924   1.793
16694W        W76439  39.416   6.379   3.771
16695W        W76440  43.337  29.114   2.324
16696W        W76441   4.902  22.038  10.020
16697W        W76442   9.278  33.975  12.561
16698W        W76443  43.449   5.345  14.810
16699W        W76444  17.070  39.380   3.253
16700W        W76445   5.355  26.550  11.486
16701W        W76446  34.907   9.199  11.567
16702W        W76447  25.216  26.633  10.016
16703W        W76448   3.311   9.755  13.801
16704W        W76449  30.480  34.878  12.438
16705W        W76450  41.418  43.871  13.501
16706W        W76451  28.164  38.910   0.395
16707W        W76452  27.574  10.806   1.876
16708W        W76453  24.051  38.964   4.238
16709W        W76454  23.573  25.019   1.844
16710W        W76455   1.274  13.331   1.351
16711W        W76456  37.396  30.572   1.879
16712W        W76457   6.184  18.243  12.993
16713W        W76458  34.069  29.597   1.219
16714W        W76459  28.620  22.686  11.933
16715W        W76460   7.227  29.665  10.997
16716W        W76461  34.941  25.700  12.946
16717W        W76462  21.257  26.560   3.165
16718W        W76463   1.416  27.142   2.719
16719W        W76464  28.508  32.035   3.860
16720W        W76465  38.537  15.670  14.300
16721W        W76466  43.381  33.008  12.830
16722W        W76467  40.961  15.712  13.816
16723W        W76468  29.541  39.364  14.782
16724W        W76469  15.326  37.395   2.811
16725W        W76470   5.846  15.588  13.386
16726W        W76471  26.094  43.423   0.482
16727W        W76472  37.578   2.231  13.028
16728W        W76473  31.420  29.548   2.897
16729W        W76474  36.508  32.474   1.433
16730W        W76475  26.107   4.307   0.435
16731W        W76476  35.464  35.552  10.586
16732W        W76477  31.416  20.532   4.757
16733W        W76478  29.657  19.118  11.612
16734W        W76479  11.366  20.549   4.814
16735W        W76480  44.810  32.408  13.984
16736W        W76481  24.041   6.226   0.835
16737W        W76482  43.352  11.200   0.320
16738W        W76483   1.886  36.357   1.252
16739W        W76484  12.316  40.034   3.674
16740W        W76485   1.483  23.223   3.863
16741W        W76486  14.791   8.729   2.743
16742W        W76487  43.460   1.873  11.994
16743W        W76488   2.869  15.811   0.738
16744W        W76489  35.966   6.727  10.408
16745W        W76490  13.295  38.929   4.667
16746W        W76491  41.948  40.852  11.936
16747W        W76492  15.189  34.910  13.905
16748W        W76493  26.548  34.587  12.442
16749W        W76494   3.747  32.427  13.518
16750W        W76495  38.823   3.406  13.537
16751W        W76496   4.322  17.117   2.888
16752W        W76497  23.552  40.522   4.343
16753W        W76498  25.053  20.671  12.551
16754W        W76499  28.073  38.022   0.454
16755W        W76500  28.980  36.925  13.941
16756W        W76501   7.894   3.876   0.865
16757W        W76502  16.697  36.866   0.268
16758W        W76503  38.407  26.972   4.241
16759W        W76504  26.018  17.580  11.557
16760W        W76505   5.432  28.021  12.402
16761W        W76506   6.803  29.647  14.352
16762W        W76507  16.632  26.588  14.859
16763W        W76508  19.039  35.924  12.342
16764W        W76509  17.609  43.478  11.422
16765W        W76510  10.302  39.053  14.924
16766W        W76511  25.518   2.420  13.308
16767W        W76512   1.406   2.776  13.945
16768W        W76513  12.309   0.755  13.401
16769W        W76514  27.013   0.451   2.878
16770W        W76515  19.555   0.321   3.699
16771W        W76516   2.772  29.604  13.913
16772W        W76517  43.021  14.741  11.114
16773W        W76518   4.361   0.493  13.003
16774W        W76519  38.561  16.079   1.406
16775W        W76520  41.786   1.441   2.687
16776W        W76521  43.799  28.160   3.237
16777W        W76522   1.873  41.911   1.425
16778W        W76523  14.103  19.747   0.384
16779W        W76524  31.614  35.931   4.334
16780W        W76525  21.024  33.037  13.926
16781W        W76526  14.668  37.413  14.974
16782W        W76527  40.398  42.925   3.837
16783W        W76528  37.475   1.781  10.539
16784W        W76529  31.137  39.891  13.044
16785W        W76530   3.719  33.890  10.938
16786W        W76531  31.086  18.765  10.920
16787W        W76532  42.908  27.053   1.246
16788W        W76533  31.099  27.157  14.461
16789W        W76534  42.791  18.715  11.416
16790W        W76535  43.274  31.021   0.956
16791W        W76536   0.408  23.623  11.608
16792W        W76537  29.961  44.437  11.081
16793W        W76538   2.894  11.807   1.373
16794W        W76539  42.285  36.490  14.457
16795W        W76540  20.751   2.807   0.288
16796W        W76541  30.949  30.011  11.896
16797W        W76542   7.381  29.427   0.370
16798W        W76543  42.805  15.086   1.388
16799W        W76544  24.591  24.084   4.658
16800W        W76545  35.597  29.572  10.524
16801W        W76546  23.229  28.956  12.902
16802W        W76547  40.467   2.449  11.870
16803W        W76548  33.438  42.501   0.773
16804W        W76549  32.888  10.833  11.086
16805W        W76550  10.819  22.059  10.495
16806W        W76551  12.293   5.210   0.468
16807W        W76552  16.073  12.327   0.290
16808W        W76553  41.317  38.503   4.268
16809W        W76554  24.131   2.439  13.369
16810W        W76555   4.387  40.540   2.408
16811W        W76556  37.339  39.395  13.395
16812W        W76557  37.407  24.032   1.781
16813W        W76558  27.560   7.220  11.860
16814W        W76559   4.807  25.968   2.182
16815W        W76560   8.317  21.717   3.272
16816W        W76561  29.433  34.018   0.738
16817W        W76562  39.360   4.786   0.333
16818W        W76563  13.167   9.259   4.280
16819W        W76564  22.705  39.817  13.386
16820W        W76565  39.534  16.622  13.510
16821W        W76566  32.499  34.055  12.882
16822W        W76567  19.275  31.455  11.527
16823W        W76568  22.133  14.165   0.843
16824W        W76569  27.031  30.150   3.699
16825W        W76570  38.941  14.774   3.334
16826W        W76571  19.666  12.849  10.446
16827W        W76572  41.409  28.507   1.319
16828W        W76573  16.691  41.331   2.231
16829W        W76574   5.863  36.372   0.373
16830W        W76575  43.970  21.067   1.788
16831W        W76576  42.410  27.570   4.123
16832W        W76577   9.749  44.918  10.959
16833W        W76578  35.908  42.449  12.863
16834W        W76579   3.271  32.438  12.513
16835W        W76580  16.244  33.493   1.713
16836W        W76581   8.212   9.221  14.886
16837W        W76582   6.366  13.224  10.412
16838W        W76583   0.954  18.748  13.507
16839W        W76584  15.810  26.577  14.972
16840W        W76585  42.897  15.683  10.116
16841W        W76586  27.129  13.740  14.894
16842W        W76587  15.261  32.082   2.843
16843W        W76588  21.593  33.383   2.301
16844W        W76589  23.623  13.296  14.836
16845W        W76590  39.365  40.923  11.097
16846W        W76591  23.077  38.846  11.070
16847W        W76592  19.733  19.750  10.956
16848W        W76593  13.187  12.770   4.721
16849W        W76594  37.079   1.804  12.052
16850W        W76595  16.195  11.664  14.422
16851W        W76596  14.789  29.938  12.091
16852W        W76597  34.029  36.064   3.188
16853W        W76598  21.250  31.056   2.418
16854W        W76599  39.450  29.014   0.747
16855W        W76600  40.394  15.794   3.330
16856W        W76601  38.337  37.978  11.928
16857W        W76602  10.151  31.132   3.358
16858W        W76603  27.547  21.590  13.451
16859W        W76604  25.537  18.710   4.692
16860W        W76605  25.025  28.944   4.815
16861W        W76606  22.736   9.175  10.534
16862W        W76607  13.331  40.818   0.734
16863W        W76608  14.680   0.276   4.788
16864W        W76609  22.155  38.054   4.661
16865W        W76610  24.032  23.730  11.524
16866W        W76611  18.276  26.186   0.851
16867W        W76612  18.067   7.884   3.841
16868W        W76613   8.843  24.216  12.073
16869W        W76614  17.577  29.015   1.914
16870W        W76615  35.541   9.843   0.904
16871W        W76616   6.290   0.847  12.847
16872W        W76617   2.887  29.666  11.906
16873W        W76618  28.627   0.967  13.528
16874W        W76619  34.489   2.916   0.411
16875W        W76620  31.150  24.149  10.430
16876W        W76621   5.220  12.214  12.053
16877W        W76622   0.771  15.746   1.287
16878W        W76623  10.791  36.562  11.963
16879W        W76624   6.812   8.306  10.930
16880W        W76625  14.145   3.220  14.302
16881W        W76626  38.956  39.530  12.454
16882W        W76627  24.198  13.149  13.864
16883W        W76628  12.774  33.491   2.385
16884W        W76629  11.831  37.927  11.024
16885W        W76630  17.610   7.239   1.928
16886W        W76631  42.933  19.711  11.118
16887W        W76632  41.468  29.134  11.526
16888W        W76633  17.574  26.527  13.547
16889W        W76634  27.951  29.053   5.204
16890W        W76635  43.321  40.430  10.590
16891W        W76636  28.174  15.674   0.785
16892W        W76637  41.944  15.315  11.434
16893W        W76638  12.793  28.598   4.803
16894W        W76639   7.705  24.588  11.097
16895W        W76640  31.583  42.798  13.460
16896W        W76641  23.507  39.987   2.262
16897W        W76642  30.610  22.584  10.966
16898W        W76643  35.091  29.424  13.843
16899W        W76644   2.279   4.838   5.216
16900W        W76645  40.385   3.373  13.032
16901W        W76646  17.262  13.710  14.418
16902W        W76647  16.161  39.486  14.909
16903W        W76648  20.682  39.558   4.772
16904W        W76649  42.472   9.661  12.411
16905W        W76650  22.157  23.058  10.623
16906W        W76651   3.808  29.943   5.207
16907W        W76652  43.935  35.982  11.990
16908W        W76653  20.768   5.358   4.248
16909W        W76654   7.751  28.938   1.212
16910W        W76655   1.458  27.122  12.576
16911W        W76656  23.586   5.895  11.459
16912W        W76657   0.345  22.182   2.268
16913W        W76658  32.593  15.293   3.746
16914W        W76659  17.659  14.620  11.426
16915W        W76660   5.427   3.769  13.054
16916W        W76661  35.996  34.502   0.244
16917W        W76662  42.813  22.543   0.458
16918W        W76663  20.726  10.656  12.031
16919W        W76664   8.244   7.912   1.450
16920W        W76665  27.451  23.618   2.271
16921W        W76666  44.354   5.431   1.794
16922W        W76667  43.435  15.799  14.863
16923W        W76668  12.811  10.837   0.455
16924W        W76669  25.661  24.187  10.906
16925W        W76670  32.990  19.565   9.618
16926W        W76671  32.094   6.320  14.447
16927W        W76672  41.853  37.528   2.706
16928W        W76673  43.372  42.426  11.036
16929W        W76674  35.402  31.532  12.035
16930W        W76675  23.629  10.711  13.428
16931W        W76676   2.359  23.600   0.427
16932W        W76677  13.797   2.453   0.926
16933W        W76678  38.453  13.616   2.228
16934W        W76679  33.430  25.571  13.532
16935W        W76680  38.059  42.007  14.780
16936W        W76681   9.383  17.087  14.410
16937W        W76682  38.960  34.910  12.845
16938W        W76683  40.504  29.635   0.443
16939W        W76684  18.279  43.883   4.169
16940W        W76685  34.603  42.283  13.415
16941W        W76686  31.553  24.225   4.259
16942W        W76687  28.182  12.289   4.724
16943W        W76688  18.758   8.746  13.064
16944W        W76689   9.696  26.516   2.878
16945W        W76690   6.402  27.486   9.929
16946W        W76691  21.611  15.110  10.627
16947W        W76692  41.808  41.522   4.786
16948W        W76693  21.573  18.767  13.470
16949W        W76694  42.907  15.592  11.024
16950W        W76695   7.253  38.351   3.365
16951W        W76696  20.222  14.134   5.183
16952W        W76697  38.884  31.596  10.549
16953W        W76698  30.128   5.767  10.493
16954W        W76699  43.976  11.169  14.322
16955W        W76700  34.588   7.198   3.288
16956W        W76701  19.077  41.881  14.795
16957W        W76702  14.318  16.156   2.326
16958W        W76703  14.694   1.824   4.831
16959W        W76704  18.772  19.569  14.422
16960W        W76705  32.405   6.218   3.214
16961W        W76706  12.815  22.630   1.317
16962W        W76707  21.105  27.104   0.308
16963W        W76708  30.955   6.677  10.908
16964W        W76709   7.683  18.730  14.778
16965W        W76710  37.993  34.557  13.904
16966W        W76711  34.380  22.215  12.072
16967W        W76712   1.876   2.857  13.490
16968W        W76713   1.373   3.754   2.198
16969W        W76714  27.511  28.439  13.009
16970W        W76715  20.536  36.971  14.449
16971W        W76716  18.638  44.406   0.905
16972W        W76717  43.379  16.097  14.280
16973W        W76718  36.440  14.197   1.872
16974W        W76719   3.321  36.378  11.423
16975W        W76720  32.885  13.141  13.336
16976W        W76721  13.663  24.588  13.950
16977W        W76722  21.182  30.935  13.930
16978W        W76723   3.398  44.981  12.554
16979W        W76724   0.338  23.115  11.503
16980W        W76725  26.042  42.437  13.922
16981W        W76726  19.630   4.770   2.390
16982W        W76727  16.611  39.456   0.849
16983W        W76728  13.819  25.980  13.909
16984W        W76729  20.639   8.818  11.066
16985W        W76730  10.802  26.128  12.061
16986W        W76731  19.599  16.651   2.697
16987W        W76732   3.902  11.325  13.366
16988W        W76733  34.458   1.743  11.527
16989W        W76734  35.068  13.610  11.107
16990W        W76735  14.815  31.614   0.443
16991W        W76736  35.489   5.843  13.010
16992W        W76737  42.301   3.251  11.595
16993W        W76738  31.056  13.336   0.361
16994W        W76739  27.077   6.235  12.960
16995W        W76740  34.864   8.878   3.843
16996W        W76741  12.265  42.423  10.423
16997W        W76742  22.057  39.445   4.765
16998W        W76743   3.309  29.439   2.747
16999W        W76744  33.434  42.285  14.953
17000W        W76745   6.781   4.424   3.812
17001W        W76746  17.634  31.479   0.731
17002W        W76747  14.771  20.722   1.381
17003W        W76748  25.564  37.055   2.255
17004W        W76749  19.667  16.235  10.089
17005W        W76750   3.362   4.342  12.037
17006W        W76751  10.189  25.112  12.417
17007W        W76752  16.588   3.287   0.329
17008W        W76753  25.005   1.448  10.039
17009W        W76754  42.829   1.300   0.966
17010W        W76755  43.835  28.615   3.176
17011W        W76756  16.179   1.427   3.832
17012W        W76757   7.858  13.109   4.148
17013W        W76758  25.214  35.896  14.408
17014W        W76759  23.091  30.587   2.218
17015W        W76760   5.923  40.387   0.771
17016W        W76761   1.819  28.664  12.844
17017W        W76762  31.028   1.830  14.429
17018W        W76763   4.715  31.496   0.346
17019W        W76764  28.984   7.816  14.381
17020W        W76765  25.710  39.818  13.792
17021W        W76766  42.833  39.534   5.226
17022W        W76767  28.460  25.705  11.600
17023W        W76768  34.566  30.125   4.662
17024W        W76769   6.834  35.418  12.546
17025W        W76770  26.198  35.973   1.880
17026W        W76771  23.636   2.872  10.491
17027W        W76772  39.394   6.810   0.420
17028W        W76773   6.919  22.507  13.423
17029W        W76774   1.778  38.821   0.404
17030W        W76775  31.131  20.556  12.432
17031W        W76776  30.965  14.774   0.292
17032W        W76777   2.896   5.765   4.349
17033W        W76778   0.419  21.171   3.233
17034W        W76779  23.614  27.008  13.454
17035W        W76780  28.177  34.034  11.938
17036W        W76781  32.523   8.384   2.245
17037W        W76782  34.517   6.318   1.396
17038W        W76783  25.091  18.771   2.752
17039W        W76784   1.852  36.583  12.949
17040W        W76785  34.603   1.314  13.445
17041W        W76786  35.427  40.915   3.675
17042W        W76787   8.181  39.812  13.495
17043W        W76788   4.371  32.506   2.224
17044W        W76789  37.902   0.921  12.954
17045W        W76790  17.711  35.911   3.373
17046W        W76791  22.520  23.679  12.343
17047W        W76792  44.838  29.053  13.443
17048W        W76793  23.624  16.729  11.529
17049W        W76794   8.387   9.773  10.977
17050W        W76795  10.830   2.316  11.425
17051W        W76796  27.182   7.325   3.147
17052W        W76797  44.403  36.043   3.748
17053W        W76798  29.431   6.852  10.446
17054W        W76799  11.261   2.743   0.909
17055W        W76800  11.709  40.908  13.049
17056W        W76801  41.795  32.496  13.482
17057W        W76802  16.768  23.732   4.657
17058W        W76803  37.054   2.234  12.855
17059W        W76804  10.347  44.840  13.895
17060W        W76805  41.024  10.286  12.895
17061W        W76806  32.475  14.233   0.342
17062W        W76807   9.151  17.664   1.701
17063W        W76808  22.547  12.623   3.870
17064W        W76809  43.895  22.589  12.929
17065W        W76810   4.372  12.802  11.489
17066W        W76811  24.561  22.638   2.370
17067W        W76812  21.544   4.735   1.773
17068W        W76813   3.855  31.070   1.869
17069W        W76814  29.562  38.570  12.830
17070W        W76815   5.342   6.709   4.799
17071W        W76816  21.262   3.767  11.951
17072W        W76817   5.253   3.711   0.790
17073W        W76818   2.315  26.083  13.851
17074W        W76819  11.846  34.076   0.833
17075W        W76820  17.683  12.197  14.918
17076W        W76821  28.012   6.708  14.025
17077W        W76822  42.489  34.030   3.813
17078W        W76823   4.434   2.745   0.368
17079W        W76824  41.873   3.244  14.798
17080W        W76825  10.191  12.194   0.865
17081W        W76826  36.961  25.118  10.945
17082W        W76827  42.940  28.154  14.020
17083W        W76828  26.181  25.188  12.474
17084W        W76829  17.578  33.618   2.407
17085W        W76830  10.225   6.244  11.918
17086W        W76831  15.127  12.766   0.316
17087W        W76832   0.300  13.208   2.329
17088W        W76833   2.248   0.474   4.686
17089W        W76834  13.291  14.193  13.969
17090W        W76835  41.321  27.531  12.938
17091W        W76836  43.987  42.905   4.304
17092W        W76837  18.102  40.898  14.822
17093W        W76838   2.940  42.344  12.446
17094W        W76839   4.827  12.296  10.527
17095W        W76840  35.535  19.661  12.386
17096W        W76841  44.877  37.451  12.092
17097W        W76842  10.728  31.420  12.445
17098W        W76843   5.359  27.477  14.364
17099W        W76844  24.162   0.879   2.367
17100W        W76845  18.712   8.794   1.245
17101W        W76846  25.660  40.970  14.861
17102W        W76847  16.696   2.890   3.181
17103W        W76848  17.270  17.240  12.454
17104W        W76849   3.833   9.324   3.774
17105W        W76850   4.291  18.292  14.928
17106W        W76851  13.266  32.049  12.559
17107W        W76852  41.001   0.436  14.920
17108W        W76853  34.406   2.455   1.287
17109W        W76854  21.069  13.733   1.352
17110W        W76855  25.023   0.448  12.028
17111W        W76856  36.085   1.822   4.789
17112W        W76857  20.594  12.726   4.711
17113W        W76858   2.306  18.638  12.924
17114W        W76859  32.945  39.851   4.810
17115W        W76860  17.636   4.378   1.851
17116W        W76861  33.904  28.568  11.075
17117W        W76862  32.570  18.262   5.202
17118W        W76863  28.646   1.262  13.386
17119W        W76864  29.021   0.335  11.580
17120W        W76865  35.529  38.383   1.712
17121W        W76866  27.184   1.941   0.815
17122W        W76867  41.438  43.471  12.430
17123W        W76868   4.445  30.123   1.235
17124W        W76869   3.307  27.999   2.381
17125W        W76870  24.586  19.129  14.814
17126W        W76871  37.999   2.301   1.795
17127W        W76872  26.129  19.619   1.770
17128W        W76873  43.016  14.665  13.501
17129W        W76874  44.341  18.562  11.541
17130W        W76875  31.408  40.492   3.365
17131W        W76876  21.539  30.508  10.531
17132W        W76877  36.515   6.726  12.085
17133W        W76878  17.281   7.180  12.038
17134W        W76879  36.048   5.733  10.442
17135W        W76880  29.468  12.356  12.066
17136W        W76881  25.077  11.342  12.443
17137W        W76882  19.561   6.803  10.631
17138W        W76883  38.457  26.633   3.677
17139W        W76884  11.135  26.067  11.013
17140W        W76885  15.776   1.812  11.976
17141W        W76886  24.718   9.726  13.023
17142W        W76887  35.515  39.992   3.172
17143W        W76888  32.498  35.388  10.500
17144W        W76889  26.644  16.808  14.969
17145W        W76890  38.499  38.005  14.467
17146W        W76891   3.904  25.560   1.310
17147W        W76892  24.140  19.096   1.731
17148W        W76893   1.245  22.154   4.716
17149W        W76894  43.302  16.284   3.654
17150W        W76895  13.209  34.978  12.883
17151W        W76896  20.645  44.377   3.255
17152W        W76897  17.134  17.070   3.326
17153W        W76898  15.602  42.926  11.937
17154W        W76899  40.822   4.257  13.548
17155W        W76900  33.048   9.828   3.721
17156W        W76901  36.478  20.601   2.788
17157W        W76902  17.567  31.120   0.727
17158W        W76903  18.707  37.012  11.406
17159W        W76904  31.120  25.020  12.882
17160W        W76905  13.669  39.871  13.853
17161W        W76906  38.057  19.688   1.900
17162W        W76907  36.574   2.941  10.979
17163W        W76908  21.178   6.700  11.029
17164W        W76909  30.417  44.984  13.020
17165W        W76910   7.841  15.661  14.828
17166W        W76911   6.218  35.945   0.352
17167W        W76912  17.278  18.060   1.765
17168W        W76913  19.139  44.471   1.747
17169W        W76914   0.439  18.295   1.922
17170W        W76915  42.880  35.094  13.531
17171W        W76916  42.023  32.560   0.758
17172W        W76917  21.680  43.499  14.300
17173W        W76918   4.245   6.682   2.324
17174W        W76919  37.848  38.445  12.543
17175W        W76920   8.804  12.810   1.874
17176W        W76921  29.119  12.319  12.895
17177W        W76922  39.390  28.936  12.489
17178W        W76923   6.305  10.341   2.321
17179W        W76924  35.586  39.943   3.656
17180W        W76925   8.829   9.829   3.866
17181W        W76926  20.587  41.454  10.919
17182W        W76927  37.083  28.947   1.865
17183W        W76928  12.794  24.505   4.659
17184W        W76929  31.611  16.599   5.636
17185W        W76930  41.896  36.463   4.145
17186W        W76931   0.969  22.166  14.327
17187W        W76932   1.302  31.984  13.890
17188W        W76933  32.975  19.577   3.287
17189W        W76934  10.324  32.505  14.457
17190W        W76935  43.789  23.637  14.438
17191W        W76936   5.886  18.678  11.984
17192W        W76937  30.950  34.386   0.446
17193W        W76938  18.071  15.326   0.952
17194W        W76939  36.046  22.708  14.947
17195W        W76940   9.194  13.843   2.358
17196W        W76941  25.505  44.991   3.750
17197W        W76942  38.504  42.372   1.447
17198W        W76943  43.508  39.422   3.792
17199W        W76944  27.178   2.808   0.442
17200W        W76945  17.750  35.898   1.396
17201W        W76946  20.263  22.573   0.888
17202W        W76947   5.795  39.021   2.185
17203W        W76948  35.562  25.565   4.177
17204W        W76949   3.315  27.452   4.746
17205W        W76950  19.723  17.061   2.854
17206W        W76951  14.208  11.143  11.048
17207W        W76952  20.713  32.412   1.728
17208W        W76953  25.051   3.890  12.963
17209W        W76954   2.880  17.644   9.574
17210W        W76955  37.338  38.509  13.041
17211W        W76956  33.391   3.371  11.512
17212W        W76957  24.537  42.795   4.599
17213W        W76958  32.594   9.249  14.349
17214W        W76959   1.775  27.941   2.833
17215W        W76960  29.962   1.917   4.783
17216W        W76961  44.433  40.535   2.799
17217W        W76962  33.497   6.381  11.947
17218W        W76963   5.749  36.055  10.611
17219W        W76964  22.216  31.924   0.268
17220W        W76965  11.625  31.950  14.309
17221W        W76966  36.459  31.579  14.949
17222W        W76967   4.308  43.866  14.948
17223W        W76968  28.119  24.204  13.537
17224W        W76969   4.403  24.116   2.214
17225W        W76970   4.321  14.180  13.346
17226W        W76971   2.358  39.459   3.180
17227W        W76972  25.521  34.891   2.691
17228W        W76973  37.544  42.878   3.357
17229W        W76974  23.234  25.593  11.503
17230W        W76975  16.313  30.478   4.317
17231W        W76976  21.104  44.829   3.689
17232W        W76977  36.396  33.508  11.928
17233W        W76978   2.291  21.670   0.758
17234W        W76979  44.880  15.213   4.688
17235W        W76980  14.685   0.868  12.446
17236W        W76981  23.598  12.832   0.385
17237W        W76982   5.693  37.570  10.530
17238W        W76983   5.821   9.789   4.666
17239W        W76984   1.835   9.670   2.665
17240W        W76985  22.230  32.567   1.832
17241W        W76986   0.441  29.070   3.310
17242W        W76987  13.247   2.346   1.821
17243W        W76988  37.452  39.400   4.814
17244W        W76989  18.692  40.439  10.548
17245W        W76990  39.989  11.713   1.398
17246W        W76991  18.240  15.210  13.001
17247W        W76992  22.504  34.567   0.253
17248W        W76993  35.051  17.771  10.552
17249W        W76994   2.354  35.914  14.840
17250W        W76995  10.868  24.511  10.984
17251W        W76996  22.176  19.548   0.454
17252W        W76997  35.010  15.177  13.020
17253W        W76998   7.803  31.471  12.554
17254W        W76999  21.221   3.421  13.960
17255W        W77000  25.714  34.585  14.378
17256W        W77001  17.724  14.281   4.629
17257W        W77002  18.294  14.162  11.457
17258W        W77003  17.074  35.575  11.598
17259W        W77004  20.103  18.585  14.816
17260W        W77005  21.632  13.768  10.466
17261W        W77006  20.701  30.631  11.955
17262W        W77007  14.826   5.778  13.417
17263W        W77008  13.733  11.695   1.285
17264W        W77009   1.356   5.263   2.871
17265W        W77010  30.515  15.174  13.421
17266W        W77011  13.767  37.382   0.358
17267W        W77012  43.479  11.716  13.416
17268W        W77013  12.206  15.821   1.748
17269W        W77014  26.031  25.621   0.367
17270W        W77015  22.140  37.983   0.272
17271W        W77016   3.892   6.336  11.593
17272W        W77017   8.818  12.282  13.528
17273W        W77018  12.664  41.026   4.183
17274W        W77019  43.813  13.114   2.408
17275W        W77020   4.347  29.583  13.543
17276W        W77021  18.204  20.732   2.833
17277W        W77022  18.174   0.446   2.719
17278W        W77023  35.378  17.119  11.433
17279W        W77024  13.214   3.795   0.261
17280W        W77025  18.546  26.039  13.403
17281W        W77026  44.912  22.553   1.706
17282W        W77027   5.391  32.915  13.983
17283W        W77028  35.532  21.660   2.770
17284W        W77029  31.989  27.150   0.849
17285W        W77030  35.431  43.827   2.774
17286W        W77031  42.957  15.724  14.797
17287W        W77032  11.741  40.961  12.374
17288W        W77033  13.277  30.489  12.363
17289W        W77034  26.208  28.444  11.584
17290W        W77035  12.654  15.810   4.660
17291W        W77036  26.961  21.572   4.255
17292W        W77037   5.860   3.449  12.371
17293W        W77038  39.416  30.037  12.047
17294W        W77039  26.672   2.351  14.925
17295W        W77040   9.812  19.251  11.392
17296W        W77041  40.544  33.423   0.865
17297W        W77042   7.374   3.844   2.297
17298W        W77043  12.707  44.918   1.869
17299W        W77044  37.393  44.387  12.030
17300W        W77045  22.685   1.380   0.798
17301W        W77046  19.231  35.499   4.692
17302W        W77047  32.939  43.964   1.708
17303W        W77048  35.549  17.650   0.250
17304W        W77049   6.425   4.420  14.299
17305W        W77050   8.699  21.078   3.700
17306W        W77051  42.442  13.801  12.089
17307W        W77052  38.501   6.811   0.297
17308W        W77053  32.127  29.573   0.824
17309W        W77054  24.586  25.524  13.448
17310W        W77055  16.244   9.198   4.300
17311W        W77056  22.685  25.600   2.896
17312W        W77057   7.824  42.994  14.504
17313W        W77058  39.485  39.939   4.652
17314W        W77059   8.876  28.461  12.537
17315W        W77060  16.142  12.219  12.432
17316W        W77061  26.008  32.990  10.451
17317W        W77062  31.513  32.534   3.265
17318W        W77063  43.916  22.250  12.568
17319W        W77064  33.497  17.259   2.688
17320W        W77065  13.710  38.867   3.218
17321W        W77066  21.076  40.512   4.176
17322W        W77067  37.989  37.843   1.824
17323W        W77068   2.457  32.544   0.479
17324W        W77069  37.580  44.452  11.405
17325W        W77070  25.548  19.684   2.790
17326W        W77071  28.585  41.796  13.901
17327W        W77072  10.158  40.490   2.224
17328W        W77073  11.793  20.245   3.190
17329W        W77074   4.878  26.108  10.566
17330W        W77075  13.686  42.379   4.731
17331W        W77076  25.962  35.915  13.986
17332W        W77077  39.873   6.722   1.805
17333W        W77078   5.399  36.931  11.954
17334W        W77079  15.606  10.328  10.112
17335W        W77080  41.357   3.734  14.928
17336W        W77081  43.901  17.202  11.035
17337W        W77082  13.770  25.965  11.071
17338W        W77083  33.945  27.062   1.422
17339W        W77084  25.208  35.080  11.587
17340W        W77085  41.814  42.888   0.858
17341W        W77086  34.900  22.105   2.884
17342W        W77087  39.527  31.053   3.637
17343W        W77088  42.358  35.525  14.859
17344W        W77089  34.560  30.443  13.327
17345W        W77090   6.754  27.528  14.816
17346W        W77091  43.815  39.487  13.807
17347W        W77092   3.888   6.239   1.449
17348W        W77093   2.398  20.142   2.309
17349W        W77094  39.483  22.245   4.786
17350W        W77095  37.035  21.065   2.724
17351W        W77096   3.358  22.685  11.485
17352W        W77097   9.873  11.162   3.636
17353W        W77098  34.372  15.603  14.489
17354W        W77099  41.888  17.269  10.498
17355W        W77100  16.118  32.136  12.478
17356W        W77101   4.312  40.856  11.422
17357W        W77102  14.769  39.376   5.128
17358W        W77103  18.664  41.014  13.372
17359W        W77104  29.112  27.117   3.864
17360W        W77105   1.442  43.322  13.463
17361W        W77106  35.917   5.286  14.943
17362W        W77107   3.319   9.205   3.243
17363W        W77108  40.360  31.003   1.728
17364W        W77109  32.453  26.998  12.932
17365W        W77110  15.607  13.812   2.339
17366W        W77111   1.941  10.784  11.928
17367W        W77112   5.368  12.622   3.790
17368W        W77113  10.146  32.453   0.308
17369W        W77114   1.396  35.971   3.710
17370W        W77115   5.799  44.459  13.973
17371W        W77116  34.371  12.828  14.339
17372W        W77117   3.732   2.285   0.808
17373W        W77118  16.663  29.558  13.494
17374W        W77119  34.431  30.045  12.035
17375W        W77120  24.122   7.198   1.897
17376W        W77121  27.518   1.257  13.948
17377W        W77122  14.813   3.446  12.423
17378W        W77123  35.929  35.981   1.928
17379W        W77124   5.891  20.722   2.758
17380W        W77125  12.629  22.656  13.021
17381W        W77126  32.077  39.869  12.423
17382W        W77127   2.333   5.852   3.164
17383W        W77128  31.509   1.866   3.769
17384W        W77129   9.739  10.297   3.810
17385W        W77130  37.833   3.380   4.354
17386W        W77131   3.241   3.732   4.176
17387W        W77132  14.734  18.651  11.475
17388W        W77133  26.976  12.742  11.074
17389W        W77134  15.325   6.677   3.693
17390W        W77135  21.643  20.086   3.150
17391W        W77136  11.137  14.269   4.240
17392W        W77137  30.079  18.294   2.247
17393W        W77138  17.269  38.967   3.871
17394W        W77139  35.458  12.725   4.293
17395W        W77140  12.246  13.209  10.520
17396W        W77141  23.555  37.410   3.297
17397W        W77142  37.574  38.493   4.306
17398W        W77143  18.647  32.098   0.852
17399W        W77144  22.730  35.499  11.414
17400W        W77145  16.669   5.867  14.441
17401W        W77146  28.064  41.474  14.836
17402W        W77147  11.269  22.196   4.254
17403W        W77148  10.802  10.383   0.883
17404W        W77149   8.361  30.055   1.728
17405W        W77150   6.220   4.850  10.509
17406W        W77151  10.635  43.904  14.817
17407W        W77152   4.417   3.803   2.701
17408W        W77153  10.195  12.694  10.947
17409W        W77154  29.070  24.586  12.469
17410W        W77155  18.175   9.842   4.714
17411W        W77156  19.132  32.974  12.857
17412W        W77157  40.004  43.935  11.561
17413W        W77158  42.332   3.445   1.723
17414W        W77159   5.329  36.016   4.690
17415W        W77160  27.038  38.440  14.832
17416W        W77161  25.605  42.412  11.018
17417W        W77162  35.036  21.110   1.828
17418W        W77163  12.232   4.345   4.661
17419W        W77164  22.506   7.715   2.751
17420W        W77165  26.157  32.901   0.419
17421W        W77166  16.649  25.022   3.338
17422W        W77167  37.568  16.298  13.854
17423W        W77168  38.494  37.578  13.916
17424W        W77169  42.511   9.750   2.194
17425W        W77170  37.481   7.749  13.810
17426W        W77171  39.049  19.615   2.747
17427W        W77172   0.415  41.486   5.154
17428W        W77173  42.930  29.655  10.048
17429W        W77174  17.559  39.453  13.914
17430W        W77175  28.036  30.145   0.298
17431W        W77176  15.225  20.733   3.696
17432W        W77177  13.719  43.339  10.958
17433W        W77178  14.633  34.384  11.583
17434W        W77179  28.975  43.311  13.017
17435W        W77180  12.127  32.061  14.795
17436W        W77181  22.675  41.885  11.526
17437W        W77182  43.837  35.507  11.057
17438W        W77183  40.510  31.912   4.321
17439W        W77184  27.074  38.043   3.246
17440W        W77185  32.554  44.461   3.357
17441W        W77186   7.674  13.714   1.412
17442W        W77187   5.365  28.555  11.962
17443W        W77188   0.442  29.582  13.336
17444W        W77189  18.647   9.153  10.940
17445W        W77190  29.493   8.258   3.837
17446W        W77191  33.100  31.554  12.030
17447W        W77192  20.575  26.490   3.690
17448W        W77193   0.966  33.897  13.021
17449W        W77194  32.113  21.557  10.915
17450W        W77195   3.896  41.317  11.493
17451W        W77196  30.944  26.967   5.190
17452W        W77197   7.230  30.493  13.837
17453W        W77198  29.089  28.549  13.314
17454W        W77199   2.415  19.041   4.129
17455W        W77200  26.168  16.125   0.870
17456W        W77201  31.456  19.686   2.855
17457W        W77202  39.905  21.118  10.075
17458W        W77203  43.509   4.301  13.386
17459W        W77204  12.688   0.786   0.376
17460W        W77205  19.074  19.228   0.828
17461W        W77206  26.083  31.073   0.286
17462W        W77207  17.687  43.326   3.675
17463W        W77208  26.110  36.021  11.530
17464W        W77209   8.326   7.365   0.478
17465W        W77210  26.158  42.344   1.933
17466W        W77211  26.129   0.953  13.517
17467W        W77212  44.460   8.677  12.537
17468W        W77213  14.678  34.514  14.993
17469W        W77214   1.747  17.689   2.717
17470W        W77215  14.098  14.331   1.261
17471W        W77216  20.083  16.641   9.508
17472W        W77217  40.337  35.380   2.253
17473W        W77218  36.469  12.833   0.306
17474W        W77219  12.261  32.988  14.473
17475W        W77220  44.992   4.273   2.220
17476W        W77221  26.079   3.424   0.322
17477W        W77222  16.710   3.437   1.859
17478W        W77223  14.718   0.926  13.988
17479W        W77224  39.427  32.519  12.907
17480W        W77225  34.396  42.817   0.806
17481W        W77226   2.280   0.860   3.300
17482W        W77227  32.900   0.982   4.749
17483W        W77228  30.949   2.908   1.860
17484W        W77229  44.321  22.691  10.584
17485W        W77230  36.016   1.283   3.798
17486W        W77231  31.524  11.864   1.392
17487W        W77232   9.877  43.841   1.423
17488W        W77233  27.552   3.944   9.478
17489W        W77234  14.679  23.728  14.820
17490W        W77235  28.955  16.655   2.228
17491W        W77236   8.171  15.087   1.835
17492W        W77237   8.326  17.265  11.008
17493W        W77238   2.803  39.512  14.415
17494W        W77239   9.779  39.363   3.758
17495W        W77240  44.957   8.765   3.364
17496W        W77241  31.594  42.816   0.480
17497W        W77242  12.280   2.888   1.285
17498W        W77243  26.603   8.735   5.174
17499W        W77244  44.443  24.090  14.342
17500W        W77245  38.075  39.054  14.441
17501W        W77246  32.001   6.223   1.286
17502W        W77247   5.195   5.418  11.959
17503W        W77248  10.230  42.840   4.152
17504W        W77249  36.567  19.609   2.373
17505W        W77250  11.773  10.829  13.936
17506W        W77251   8.852  11.143  12.401
17507W        W77252  31.499  24.543   0.827
17508W        W77253   3.419  36.913   5.160
17509W        W77254  18.661  36.369  12.402
17510W        W77255  10.845  12.311   0.434
17511W        W77256  10.701  31.062  13.931
17512W        W77257  35.898  16.666   1.253
17513W        W77258  34.397  27.047   4.715
17514W        W77259  23.531   0.300   5.322
17515W        W77260  26.981  15.231  12.082
17516W        W77261  36.033  22.214   1.808
17517W        W77262  25.976  37.043  12.935
17518W        W77263  21.579  24.981   2.741
17519W        W77264  18.116   4.314   1.866
17520W        W77265  36.092  30.082  14.901
17521W        W77266  31.112   2.424   4.277
17522W        W77267  33.950   6.316   3.855
17523W        W77268  15.277  14.127   1.878
17524W        W77269  28.615  42.319  12.989
17525W        W77270  10.823  32.011   4.810
17526W        W77271  19.652  29.058  12.060
17527W        W77272  43.846   0.362  14.907
17528W        W77273  17.302  11.831   1.393
17529W        W77274  35.492  18.126   2.401
17530W        W77275  13.821  24.512   0.936
17531W        W77276   1.786  16.226   0.741
17532W        W77277  34.520  19.085   1.333
17533W        W77278   4.910  20.724  12.982
17534W        W77279   8.849   5.711  13.804
17535W        W77280  38.918  36.578  13.898
17536W        W77281   2.871  26.011   1.395
17537W        W77282   3.269  10.758  11.470
17538W        W77283  10.377   8.722  12.872
17539W        W77284  24.494  40.506  10.466
17540W        W77285  28.571  23.525   0.865
17541W        W77286  40.809   4.763   3.746
17542W        W77287  10.346  23.217  14.475
17543W        W77288  10.862  28.653   2.818
17544W        W77289  11.849  19.269  11.111
17545W        W77290  42.931  19.600   2.676
17546W        W77291  39.819  19.654  12.068
17547W        W77292  26.182  43.326  11.100
17548W        W77293   2.889  34.901   2.403
17549W        W77294  38.357   0.305  14.800
17550W        W77295  20.125   5.356   3.289
17551W        W77296  30.497  27.054   0.471
17552W        W77297   2.965  15.706   5.282
17553W        W77298  17.260   8.312  14.939
17554W        W77299  20.233  22.038  11.422
17555W        W77300  22.610  31.522   2.724
17556W        W77301   5.867  24.583  13.906
17557W        W77302   8.399  37.067   0.920
17558W        W77303  28.184  18.191  12.545
17559W        W77304  13.617   7.857  12.357
17560W        W77305   7.708   1.796  10.152
17561W        W77306  14.181  43.906   1.448
17562W        W77307  43.841  18.202   0.369
17563W        W77308  23.554  43.878  13.973
17564W        W77309  41.317  21.701  13.535
17565W        W77310  40.315   3.294   2.325
17566W        W77311  15.273  22.136   2.213
17567W        W77312  35.083  14.201   5.189
17568W        W77313  11.228  28.545  12.030
17569W        W77314  40.925  44.859  11.982
17570W        W77315  13.781  22.665  12.510
17571W        W77316  44.987   3.891  10.911
17572W        W77317  26.982  11.314  11.430
17573W        W77318  25.154  43.857   0.764
17574W        W77319   4.352   4.742   2.772
17575W        W77320  16.579  24.630   4.799
17576W        W77321  12.709   5.208   2.747
17577W        W77322  21.536  21.651  14.370
17578W        W77323  35.897  16.130   3.344
17579W        W77324  21.513  15.701  10.978
17580W        W77325  27.035  20.065  14.761
17581W        W77326  34.417  15.597  10.142
17582W        W77327  16.168  10.798   3.795
17583W        W77328  36.925  29.049  12.502
17584W        W77329  27.659  19.095   2.854
17585W        W77330  27.575  12.237  13.358
17586W        W77331   9.741  42.839  13.399
17587W        W77332  30.655  40.899   2.295
17588W        W77333  26.487   0.477   9.992
17589W        W77334  18.738  17.281   4.277
17590W        W77335  34.507   7.857  12.029
17591W        W77336  20.570   7.408  10.927
17592W        W77337  38.926  31.592   3.713
17593W        W77338  23.725  15.099  10.155
17594W        W77339  24.553  30.925  14.010
17595W        W77340   7.714  11.782   0.458
17596W        W77341  22.545  22.167  14.414
17597W        W77342  41.820   9.738  14.000
17598W        W77343  42.352  20.211   2.307
17599W        W77344  42.464   8.295   0.472
17600W        W77345  15.253  11.658  10.613
17601W        W77346  36.926  41.042  12.402
17602W        W77347   8.374  31.556   3.359
17603W        W77348  27.083  42.028  11.925
17604W        W77349  20.539  14.299   2.671
17605W        W77350  17.775  28.109  11.959
17606W        W77351   4.441  33.975   3.818
17607W        W77352  18.240   4.430   2.233
17608W        W77353  11.830  15.752   2.777
17609W        W77354  35.085   5.201   2.374
17610W        W77355   4.738  28.981   1.288
17611W        W77356  44.921  44.360  14.337
17612W        W77357  27.019  30.555   9.962
17613W        W77358  29.652  28.450   2.360
17614W        W77359  33.041  24.189   1.250
17615W        W77360  17.159   1.769   2.401
17616W        W77361  18.258  21.536   0.859
17617W        W77362  31.422  24.220  11.430
17618W        W77363  39.820  41.425   1.705
17619W        W77364   9.185  35.882  12.940
17620W        W77365  32.478   1.300  13.547
17621W        W77366  15.633   0.970   2.771
17622W        W77367   8.220  26.682  14.959
17623W        W77368  33.946  36.519   0.345
17624W        W77369  28.578   1.929   2.228
17625W        W77370  12.623   4.422   1.441
17626W        W77371  38.859  20.685  11.954
17627W        W77372   9.161  43.000  12.375
17628W        W77373  34.991  21.540   0.478
17629W        W77374  41.943  37.856  10.490
17630W        W77375  41.926  33.539   4.209
17631W        W77376  35.897  20.140  13.953
17632W        W77377  16.262  37.956   3.272
17633W        W77378  43.897   4.826   2.751
17634W        W77379  23.058  44.351   3.197
17635W        W77380  36.567  36.031  14.464
17636W        W77381   9.326  17.771  14.009
17637W        W77382   6.351  34.526  11.939
17638W        W77383  26.953  36.041   0.949
17639W        W77384  12.829  10.685  11.880
17640W        W77385  35.523   0.931   3.762
17641W        W77386   5.430  26.023   4.253
17642W        W77387  42.781  35.852  12.945
17643W        W77388   7.885  40.002   2.259
17644W        W77389  41.866  23.990  12.866
17645W        W77390  25.677  37.854   0.456
17646W        W77391   9.366  26.205   2.269
17647W        W77392  12.810  21.143   0.314
17648W        W77393  33.894  25.602  12.965
17649W        W77394  31.470  24.679  11.541
17650W        W77395  32.993  38.392  13.041
17651W        W77396  36.034   2.314  11.506
17652W        W77397  39.524   3.738   0.967
17653W        W77398  43.515  35.021   3.278
17654W        W77399  43.921  17.638   4.712
17655W        W77400  26.033  35.468   0.740
17656W        W77401  25.052   1.278   4.598
17657W        W77402  11.269  21.695  14.487
17658W        W77403  10.241  35.988   1.239
17659W        W77404   1.896   2.776  14.358
17660W        W77405  20.533  20.080   1.327
17661W        W77406  37.339  43.901   0.740
17662W        W77407   3.322  41.913   2.696
17663W        W77408  32.622  35.530   4.795
17664W        W77409   0.449  37.512  11.861
17665W        W77410  35.593  20.162   9.508
17666W        W77411  18.749  28.013  14.406
17667W        W77412  16.078   8.666   2.711
17668W        W77413  42.986  25.578   3.347
17669W        W77414  33.907  38.846  11.524
17670W        W77415  11.846  35.450  11.524
17671W        W77416  29.482  16.122  12.468
17672W        W77417  10.159   3.738   2.287
17673W        W77418  17.183  43.294  11.927
17674W        W77419  21.261   8.170   4.275
17675W        W77420  21.249  20.170  14.315
17676W        W77421  40.393  38.333  14.440
17677W        W77422  18.161  21.522  12.428
17678W        W77423  32.587   1.801  13.800
17679W        W77424  10.228  34.519  13.307
17680W        W77425  41.480  22.715   0.889
17681W        W77426   5.423  24.036  11.579
17682W        W77427  18.123   6.207   4.780
17683W        W77428  36.964  23.018  11.972
17684W        W77429  23.732  27.623   0.747
17685W        W77430   5.695  15.787  12.449
17686W        W77431  36.036  31.110  11.090
17687W        W77432  23.517  18.753  11.474
17688W        W77433   4.903  18.050  11.509
17689W        W77434  40.960  12.324   3.326
17690W        W77435  15.105  31.531  12.014
17691W        W77436  12.150  37.352  14.474
17692W        W77437  43.423  33.044  13.339
17693W        W77438  33.391  13.751  10.890
17694W        W77439  38.042  18.739  14.812
17695W        W77440  16.646  20.038   2.409
17696W        W77441  38.408  18.647   3.782
17697W        W77442  22.638  36.536   3.229
17698W        W77443  23.564   9.794  11.128
17699W        W77444  32.626   0.989   4.628
17700W        W77445  31.591  27.604  13.011
17701W        W77446  29.658  19.275   4.155
17702W        W77447  27.609  24.694  12.448
17703W        W77448  14.706   8.319   0.828
17704W        W77449  37.923  19.074   0.389
17705W        W77450   5.917  35.040  11.428
17706W        W77451  39.844  22.252   2.871
17707W        W77452   8.765   9.264  12.451
17708W        W77453   1.971  27.193  14.826
17709W        W77454  29.087  34.075   3.181
17710W        W77455  19.707  14.832   2.326
17711W        W77456   9.735   0.260  12.561
17712W        W77457  38.969  25.139   5.088
17713W        W77458  32.613   1.381   3.713
17714W        W77459   4.256  35.876   2.804
17715W        W77460  33.382  39.501  11.109
17716W        W77461  20.073  14.323  14.881
17717W        W77462   0.394  33.601  11.395
17718W        W77463  19.575   4.407   1.722
17719W        W77464  19.721  30.584   2.700
17720W        W77465  39.849  19.163   2.228
17721W        W77466   0.332  28.020  10.563
17722W        W77467  15.648   4.351   1.720
17723W        W77468  27.587   2.849  11.122
17724W        W77469  33.482  23.611  10.128
17725W        W77470  44.392  23.518  13.037
17726W        W77471  44.446  15.753   5.211
17727W        W77472  36.566   6.191   2.811
17728W        W77473  23.129  41.357  11.876
17729W        W77474   5.370   7.188   2.838
17730W        W77475  25.982  12.286  13.841
17731W        W77476   8.316  23.710   4.718
17732W        W77477  31.092  41.356   3.747
17733W        W77478  16.627  20.119   4.782
17734W        W77479  17.274  42.780   4.619
17735W        W77480  28.538  10.272   2.380
17736W        W77481   1.889  42.931   4.607
17737W        W77482  35.040   9.334   3.149
17738W        W77483  19.746   1.333   2.356
17739W        W77484  25.637  25.127  14.912
17740W        W77485   3.726   4.767   2.192
17741W        W77486  13.214  21.148  10.006
17742W        W77487  29.442   0.433  10.475
17743W        W77488  27.119  41.466  13.466
17744W        W77489   5.798  22.702  12.023
17745W        W77490  36.095   4.424  13.309
17746W        W77491  10.372  38.325  14.424
17747W        W77492  40.973   5.321  14.427
17748W        W77493   8.895  29.449  13.389
17749W        W77494   4.221   1.315  12.575
17750W        W77495  32.027  16.135  13.411
17751W        W77496   5.731   0.985   3.849
17752W        W77497  21.058  37.486   3.354
17753W        W77498  20.166  44.860  12.407
17754W        W77499   0.843  39.940   3.852
17755W        W77500  23.077  22.618   1.295
17756W        W77501  18.145  43.984  12.857
17757W        W77502  42.913   9.151  13.967
17758W        W77503  21.733  36.584   0.341
17759W        W77504   8.309  12.643   2.840
17760W        W77505   6.751  10.854  14.491
17761W        W77506   2.820  10.698   3.189
17762W        W77507  27.145  40.856  14.986
17763W        W77508  35.924  31.555   4.262
17764W        W77509  14.634  21.146   2.862
17765W        W77510  13.116  40.042   5.165
17766W        W77511  31.461   3.777  13.966
17767W        W77512  16.764  41.443  11.378
17768W        W77513   9.337  27.014  11.929
17769W        W77514  21.700  30.130   0.730
17770W        W77515   9.378  16.666  12.845
17771W        W77516  29.496  23.718  11.453
17772W        W77517   9.760  39.963   1.843
17773W        W77518  14.275  21.644  10.441
17774W        W77519  10.839   3.395   3.676
17775W        W77520  15.761   5.425   2.245
17776W        W77521   2.243   4.783  10.525
17777W        W77522  17.250  39.911  11.379
17778W        W77523  42.788   9.355   4.192
17779W        W77524  38.538  37.424  13.408
17780W        W77525  25.651  43.781  10.890
17781W        W77526  32.888  43.896  12.476
17782W        W77527  20.551  19.749  10.463
17783W        W77528  37.924  38.983   0.843
17784W        W77529  16.209  19.622  13.015
17785W        W77530  37.015   9.225   1.788
17786W        W77531  18.284   0.853   3.717
17787W        W77532   4.795   1.869  13.476
17788W        W77533  23.995  32.411   1.239
17789W        W77534  13.757  14.761  12.017
17790W        W77535  35.410  27.147   4.180
17791W        W77536   7.230  42.401   0.902
17792W        W77537  40.984  44.414  13.824
17793W        W77538  12.207  28.648   3.300
17794W        W77539  20.767  27.184  14.456
17795W        W77540  36.973  19.253  11.871
17796W        W77541  22.614  40.050  11.071
17797W        W77542   5.842  10.671  13.878
17798W        W77543   6.191  24.668   4.762
17799W        W77544  20.223  10.348   4.283
17800W        W77545  24.061  31.586   3.825
17801W        W77546  41.801   2.774   0.258
17802W        W77547  44.821  31.094   1.776
17803W        W77548   9.764  10.800   3.190
17804W        W77549  15.147  44.390   2.181
17805W        W77550  27.686  13.669   3.825
17806W        W77551  25.218  34.399   4.186
17807W        W77552  38.358  19.683  14.417
17808W        W77553   7.910   9.260  11.997
17809W        W77554  11.856  15.305   4.242
17810W        W77555  43.842  44.829  11.548
17811W        W77556  30.045  35.880  12.832
17812W        W77557   5.386   8.269  14.870
17813W        W77558  31.511  31.081   4.280
17814W        W77559  25.511   2.358   1.213
17815W        W77560   9.395  31.405  12.415
17816W        W77561  43.506   0.829  13.501
17817W        W77562  40.327  25.626   2.203
17818W        W77563  16.593  16.747  10.970
17819W        W77564  22.071  22.033  11.052
17820W        W77565  43.931  36.910  13.003
17821W        W77566   8.208  28.104   2.271
17822W        W77567  21.633  15.674  12.439
17823W        W77568  22.212   9.783   3.866
17824W        W77569  41.994   5.339   3.180
17825W        W77570   6.267  36.430   1.219
17826W        W77571  38.369  23.176   4.143
17827W        W77572   4.722  10.790   4.235
17828W        W77573  15.809  32.525  14.317
17829W        W77574  13.834   5.340   4.193
17830W        W77575  40.441  31.962   2.890
17831W        W77576   8.688  36.084  12.389
17832W        W77577  14.747  24.678   3.355
17833W        W77578   2.442  35.021   1.222
17834W        W77579  43.879  38.568  10.924
17835W        W77580  26.100  44.440  13.352
17836W        W77581  15.328  27.047  13.441
17837W        W77582  26.975  42.973   3.733
17838W        W77583  27.002  17.254  11.543
17839W        W77584  18.098  44.968   0.762
17840W        W77585  24.024  13.241  10.922
17841W        W77586   5.249  23.235   4.349
17842W        W77587  31.074  35.081  12.058
17843W        W77588  40.054   7.750  14.913
17844W        W77589   4.300  12.154   2.828
17845W        W77590  11.637   8.896  11.964
17846W        W77591   4.765  33.919  12.389
17847W        W77592   7.256  21.635   3.732
17848W        W77593   2.729  11.789  11.558
17849W        W77594  27.065  10.246   1.302
17850W        W77595   1.746  22.093   3.706
17851W        W77596   2.419  38.015   9.951
17852W        W77597  34.879  36.450  13.999
17853W        W77598  36.575  28.978  12.419
17854W        W77599  29.113  39.831  14.407
17855W        W77600  15.705  11.788  12.835
17856W        W77601  39.347  20.667   0.798
17857W        W77602  14.712  15.152   2.662
17858W        W77603  20.587  35.884  12.945
17859W        W77604  25.682  13.752  11.980
17860W        W77605  23.083  10.256  10.894
17861W        W77606  38.418   3.273  14.981
17862W        W77607  38.469  42.354  13.533
17863W        W77608  38.053  18.583  10.412
17864W        W77609   5.854  36.496  14.365
17865W        W77610  35.447  24.984  10.552
17866W        W77611  33.029  26.527  12.496
17867W        W77612  21.256   0.368  14.477
17868W        W77613  38.484   6.372  14.462
17869W        W77614  14.172  38.001  10.938
17870W        W77615  38.342  23.219  11.586
17871W        W77616  20.206  26.632   2.845
17872W        W77617  32.406   8.364  13.529
17873W        W77618  41.030   2.822   2.804
17874W        W77619  25.651  41.882   3.273
17875W        W77620  18.723  24.192   2.709
17876W        W77621   8.372  24.146  13.866
17877W        W77622  26.680   6.794   1.836
17878W        W77623  16.655  42.840  13.064
17879W        W77624  34.382  32.044  11.079
17880W        W77625   5.268  10.321   2.329
17881W        W77626  28.608   1.739   4.139
17882W        W77627  32.028  16.123   3.381
17883W        W77628  28.475   3.226   3.696
17884W        W77629  28.001  16.748   4.166
17885W        W77630  23.547  42.442  14.782
17886W        W77631   6.305  11.764   0.810
17887W        W77632  42.455  23.490  14.373
17888W        W77633  34.012  27.115  11.432
17889W        W77634  25.975  12.715   1.216
17890W        W77635  24.977  33.992  11.967
17891W        W77636  42.510  43.904  12.933
17892W        W77637  30.035  21.170   2.730
17893W        W77638   1.915  25.606  12.370
17894W        W77639   9.668   6.865  13.914
17895W        W77640  25.086  29.436   1.921
17896W        W77641  40.307   9.186  14.029
17897W        W77642  26.525  13.255   5.194
17898W        W77643  30.983   3.791  10.109
17899W        W77644  42.851  36.043   3.686
17900W        W77645  44.447  29.589   2.275
17901W        W77646  26.563  33.484   0.283
17902W        W77647   3.411  35.922  12.940
17903W        W77648  18.183  19.105   4.619
17904W        W77649  36.434  37.511   2.178
17905W        W77650  30.487  14.318  14.282
17906W        W77651  36.009  17.114  14.862
17907W        W77652  44.792   1.342  12.876
17908W        W77653  40.014  10.154  13.525
17909W        W77654  25.707   1.482  13.406
17910W        W77655  11.366  22.154  13.931
17911W        W77656   5.210  41.957   3.701
17912W        W77657  33.114  22.224  14.354
17913W        W77658  19.772  26.164  13.366
17914W        W77659   7.257  33.406  11.996
17915W        W77660  34.553  21.623   4.130
17916W        W77661  14.128  24.168   4.321
17917W        W77662  41.526   3.793   1.792
17918W        W77663  42.811   8.811   3.275
17919W        W77664  10.266  14.787   4.751
17920W        W77665  38.394  20.245   2.224
17921W        W77666   4.915  24.650   4.724
17922W        W77667   3.299  17.228  13.832
17923W        W77668   0.754  30.621   4.662
17924W        W77669  42.864   3.294  13.374
17925W        W77670  20.656  43.489   0.398
17926W        W77671  21.671   9.383   4.236
17927W        W77672  22.157   2.753  10.529
17928W        W77673  13.674  11.839  13.416
17929W        W77674  38.414  44.869   4.210
17930W        W77675   2.913   8.172  12.516
17931W        W77676  19.239  14.284  14.879
17932W        W77677  18.222  36.029   1.392
17933W        W77678  36.531  31.408  11.074
17934W        W77679  31.031  30.153   4.651
17935W        W77680  23.498   2.232  14.991
17936W        W77681  36.095  42.783   4.792
17937W        W77682   5.826   7.766   0.888
17938W        W77683  15.132  43.869  11.484
17939W        W77684   2.429  30.012   0.354
17940W        W77685  22.098  11.688  11.878
17941W        W77686   1.470   4.724  12.476
17942W        W77687  16.227  30.622  14.286
17943W        W77688  39.906   6.385   2.693
17944W        W77689   4.760  19.598  11.129
17945W        W77690  22.567   5.713  13.329
17946W        W77691  40.911   8.883  11.601
17947W        W77692   0.866   5.368   4.608
17948W        W77693  17.298  26.596  10.523
17949W        W77694  17.090  28.577  14.330
17950W        W77695  40.864   8.793  14.025
17951W        W77696  16.574  39.455   0.279
17952W        W77697  40.830  27.497  14.777
17953W        W77698   4.866   4.806   3.715
17954W        W77699  44.408  39.455  13.850
17955W        W77700  21.162   4.428   1.876
17956W        W77701   2.863  38.493   2.710
17957W        W77702   9.374  10.269  12.908
17958W        W77703  40.367  26.076   3.219
17959W        W77704   3.768   0.443  10.592
17960W        W77705  38.962  18.061  10.081
17961W        W77706  26.657  35.572  14.784
17962W        W77707  33.082  21.532  12.435
17963W        W77708  35.365  32.600   1.277
17964W        W77709  34.022  12.179   4.186
17965W        W77710  26.540   5.813   0.349
17966W        W77711  33.526   4.743   9.498
17967W        W77712  40.468  22.564   3.685
17968W        W77713  17.591   1.796  11.376
17969W        W77714  44.004   0.415  11.586
17970W        W77715  20.587  32.902   0.897
17971W        W77716   3.344   8.280  14.862
17972W        W77717  10.206  13.701  13.420
17973W        W77718   9.814  43.285   0.333
17974W        W77719  21.148  19.104  13.918
17975W        W77720  11.242  17.670  12.028
17976W        W77721   8.768  23.649   1.757
17977W        W77722  32.989  13.666   2.259
17978W        W77723  18.755  14.255   5.233
17979W        W77724   4.721  27.497   1.233
17980W        W77725   6.355  33.007   3.259
17981W        W77726  24.704   1.879  12.480
17982W        W77727  16.081  44.262   4.778
17983W        W77728  29.522  24.714   2.786
17984W        W77729  18.293  20.746   4.224
17985W        W77730  22.171  35.020  11.475
17986W        W77731  32.038   2.287   0.823
17987W        W77732  41.502  21.033   1.234
17988W        W77733   8.381   7.702  11.866
17989W        W77734  13.676  17.744  11.451
17990W        W77735  17.626  34.553   3.771
17991W        W77736  38.072   7.345  11.934
17992W        W77737  36.092  12.341   0.808
17993W        W77738  35.554  42.813   0.467
17994W        W77739  31.590   9.280  11.989
17995W        W77740  33.455  34.575   3.802
17996W        W77741  27.189  19.580  11.598
17997W        W77742  35.945  21.211   2.693
17998W        W77743  11.764  24.672  14.449
17999W        W77744  30.953  14.750  11.537
18000W        W77745  15.607  37.343   3.271
18001W        W77746  38.921  36.011  11.974
18002W        W77747  24.506  26.076  12.394
18003W        W77748  39.811   1.939   4.156
18004W        W77749  13.297   1.914  13.455
18005W        W77750  26.110  24.506   3.362
18006W        W77751  15.122   1.325   3.720
18007W        W77752  44.353   7.383   1.724
18008W        W77753  19.679  31.093   3.331
18009W        W77754  23.153  12.749  12.859
18010W        W77755   1.970  13.145  14.484
18011W        W77756   8.227  28.977   1.698
18012W        W77757   6.750   7.235  12.050
18013W        W77758   7.718  17.670  14.026
18014W        W77759  38.529  35.426   0.295
18015W        W77760   1.836  31.007   1.302
18016W        W77761  10.187   2.275  10.985
18017W        W77762  29.530  25.973   0.883
18018W        W77763  39.337   8.163  12.984
18019W        W77764  33.614   4.284   3.729
18020W        W77765  39.921  26.056   3.333
18021W        W77766   6.316   7.863   3.332
18022W        W77767  17.798  37.842   1.821
18023W        W77768  21.634  12.744   2.317
18024W        W77769  34.461  34.089  13.849
18025W        W77770  23.029  31.537   1.846
18026W        W77771  27.197  28.155   1.423
18027W        W77772  41.315  31.476   2.708
18028W        W77773  20.650   7.309   1.315
18029W        W77774  14.634  18.154  10.031
18030W        W77775  20.138  22.237  11.026
18031W        W77776   9.775  39.900  11.413
18032W        W77777  17.103   7.251   1.807
18033W        W77778  41.011  10.763  11.072
18034W        W77779  12.713  42.904   3.344
18035W        W77780  11.657  13.281  11.454
18036W        W77781  41.815  40.812   0.245
18037W        W77782  17.231   7.280   4.239
18038W        W77783  33.019  25.037  14.423
18039W        W77784   4.707  14.768   4.654
18040W        W77785  11.215   1.951   1.825
18041W        W77786  42.029   5.239  11.864
18042W        W77787   6.223   8.402  13.539
18043W        W77788  37.400   3.911  10.981
18044W        W77789  14.787  16.257  10.557
18045W        W77790  39.558  30.504   5.223
18046W        W77791  17.723  35.865   1.907
18047W        W77792   5.280   6.837  10.468
18048W        W77793  31.147   8.825   2.746
18049W        W77794   7.253  12.141  11.575
18050W        W77795  29.495  28.469  13.502
18051W        W77796  38.853  19.151  12.361
18052W        W77797  42.499  34.415   1.756
18053W        W77798  15.251  32.090  14.332
18054W        W77799  27.541  40.346  13.795
18055W        W77800   5.395   6.245  11.976
18056W        W77801  32.122  19.540  13.798
18057W        W77802  22.231  31.639   2.741
18058W        W77803  29.490  40.913  14.934
18059W        W77804  27.517  16.616  10.917
18060W        W77805  26.968   8.874  10.923
18061W        W77806   9.179  27.482   1.807
18062W        W77807  15.578  17.304  10.937
18063W        W77808  35.958   8.838  13.356
18064W        W77809   2.761  11.206   2.362
18065W        W77810  11.744  44.002   0.920
18066W        W77811  14.758  32.439  10.031
18067W        W77812  30.930  36.015  11.413
18068W        W77813  25.468   2.776   3.195
18069W        W77814  10.719  44.419   0.943
18070W        W77815  35.485   5.812  14.023
18071W        W77816  17.254  22.679   5.082
18072W        W77817   1.470  21.575  11.128
18073W        W77818  37.079  28.060   1.797
18074W        W77819  29.921  44.869   0.820
18075W        W77820  30.109  16.784  14.902
18076W        W77821  26.086  34.074  10.457
18077W        W77822  17.648  38.345  12.379
18078W        W77823  15.110  31.974   2.328
18079W        W77824  31.474  25.631  10.406
18080W        W77825  39.432  23.703   2.670
18081W        W77826  13.301  12.687  13.931
18082W        W77827  33.036   3.250   4.241
18083W        W77828  39.380  29.454   0.946
18084W        W77829  14.785   3.733   0.283
18085W        W77830  33.578   5.778   1.879
18086W        W77831  19.085  17.623   2.410
18087W        W77832  10.359  40.425  12.071
18088W        W77833   1.894  31.562   0.952
18089W        W77834  38.406   6.378  12.453
18090W        W77835  28.993  41.501  14.760
18091W        W77836  37.059  10.368  14.323
18092W        W77837   4.306  38.833  14.941
18093W        W77838  29.598  44.451  13.041
18094W        W77839  15.652   9.343  11.036
18095W        W77840  15.739   3.747   0.259
18096W        W77841  22.549  22.696  12.399
18097W        W77842  15.186  16.660  13.860
18098W        W77843  38.406  32.003  12.052
18099W        W77844  27.179   4.279  11.905
18100W        W77845  28.058  13.698  11.079
18101W        W77846  31.510  34.877  13.951
18102W        W77847  38.982  11.858   1.440
18103W        W77848  43.997   9.725   4.645
18104W        W77849  38.943  38.030  14.975
18105W        W77850  32.088  10.730  13.397
18106W        W77851  28.026  27.606  10.466
18107W        W77852  31.132  21.631  13.042
18108W        W77853  39.869   9.264   3.784
18109W        W77854  13.311  26.967   3.652
18110W        W77855   2.310  26.159   2.233
18111W        W77856   5.690  25.674   0.828
18112W        W77857  23.111  34.906  10.941
18113W        W77858   4.286  28.126  11.478
18114W        W77859  13.661  24.611   1.220
18115W        W77860  24.526   0.916  14.453
18116W        W77861  43.826  31.484  12.917
18117W        W77862  37.545  12.685  11.934
18118W        W77863  19.213  28.596   1.884
18119W        W77864  42.437  41.927   1.313
18120W        W77865   3.736   4.379  14.871
18121W        W77866   6.894  31.974   0.446
18122W        W77867   5.336  31.552  14.964
18123W        W77868  18.114  41.795  10.557
18124W        W77869  40.835  40.458   1.901
18125W        W77870  24.163  35.098   3.679
18126W        W77871  21.703  38.856   3.233
18127W        W77872   5.709  28.609  11.037
18128W        W77873   9.189  35.431  10.546
18129W        W77874  15.234  37.087  12.066
18130W        W77875  32.474  27.626   0.464
18131W        W77876  29.538   9.876   3.857
18132W        W77877  28.581  27.099   4.625
18133W        W77878  14.271  15.776   3.271
18134W        W77879   5.859   7.355  12.068
18135W        W77880  12.766  21.197   2.350
18136W        W77881  10.699  35.911  14.838
18137W        W77882  30.633  12.260  11.446
18138W        W77883  16.682  13.830   4.664
18139W        W77884  38.992  36.088   0.930
18140W        W77885  40.804  42.985  13.441
18141W        W77886  40.823   7.903  12.082
18142W        W77887  13.774  10.856  13.859
18143W        W77888  39.466   4.731  12.930
18144W        W77889  16.133  13.345   3.738
18145W        W77890   2.312  21.746  12.492
18146W        W77891  32.930  43.406  14.011
18147W        W77892  17.229  36.528  11.093
18148W        W77893   0.859   3.877   4.803
18149W        W77894   3.796  20.196  13.984
18150W        W77895  23.023  29.640   3.803
18151W        W77896  18.547  37.044   2.255
18152W        W77897  25.520  35.865  10.466
18153W        W77898  24.495  44.881  14.463
18154W        W77899  44.923  17.673  11.481
18155W        W77900  11.230  36.995  14.915
18156W        W77901  44.804   5.734   4.179
18157W        W77902   9.313  20.560  12.090
18158W        W77903  42.315  20.554  10.486
18159W        W77904  41.428  14.246   0.293
18160W        W77905   1.873  21.663  11.448
18161W        W77906  35.385  14.709  12.985
18162W        W77907  12.344  17.100   4.697
18163W        W77908  23.189   4.409  12.482
18164W        W77909  33.923   0.312   3.238
18165W        W77910  27.579   2.382   1.418
18166W        W77911  20.686  17.297  14.440
18167W        W77912  17.263  29.510  10.532
18168W        W77913   7.246  24.139   2.684
18169W        W77914   5.400   8.161   1.911
18170W        W77915  40.830  31.507   0.783
18171W        W77916  31.075   4.931  11.490
18172W        W77917  20.616  21.750   0.842
18173W        W77918  13.133  20.596   4.316
18174W        W77919   1.927   8.274  14.451
18175W        W77920   8.762  37.081   4.255
18176W        W77921  23.146   5.689  11.885
18177W        W77922  22.652  19.187  13.869
18178W        W77923   0.467   4.903   0.306
18179W        W77924  30.039  43.798  13.544
18180W        W77925  23.727  42.946  10.548
18181W        W77926  34.580  16.164   2.292
18182W        W77927  27.572  20.109   0.252
18183W        W77928  22.229  39.489   0.748
18184W        W77929  15.221  35.874   1.792
18185W        W77930  37.083  33.570   0.960
18186W        W77931  31.146  40.979   1.841
18187W        W77932  20.550  34.497   3.778
18188W        W77933  43.333  29.460   0.403
18189W        W77934  42.906   2.238  12.364
18190W        W77935  11.326  28.948  11.946
18191W        W77936  40.956  18.256  10.600
18192W        W77937  28.468  17.680  14.936
18193W        W77938  19.164  33.124  13.432
18194W        W77939  10.302  30.459   1.897
18195W        W77940  12.844  42.449  13.514
18196W        W77941  34.577  38.984   1.817
18197W        W77942  39.035  30.597   4.274
18198W        W77943  35.091  40.485  12.998
18199W        W77944   2.760  26.646   1.714
18200W        W77945   4.782  27.494  10.520
18201W        W77946   5.895   6.791  12.389
18202W        W77947  37.506  43.805   2.761
18203W        W77948  29.118  42.440  12.476
18204W        W77949  31.581  25.052   0.379
18205W        W77950  18.592  13.636  14.401
18206W        W77951  18.232   4.843   4.251
18207W        W77952  36.096  31.563  12.455
18208W        W77953  39.056   6.810  10.514
18209W        W77954  26.634  15.734  10.059
18210W        W77955   5.825  19.261  12.855
18211W        W77956  40.341   5.794  12.026
18212W        W77957  41.393  34.946  10.520
18213W        W77958  43.508   7.280  12.918
18214W        W77959  21.256  28.008  12.076
18215W        W77960   8.286  38.906  12.028
18216W        W77961   3.953  22.057   4.726
18217W        W77962  29.085  34.457  14.365
18218W        W77963  15.264   7.809  10.891
18219W        W77964  29.932  18.581   5.637
18220W        W77965   3.751  14.094   2.682
18221W        W77966   7.411  25.688   1.435
18222W        W77967  12.612  22.152   0.425
18223W        W77968   7.349   4.880  12.437
18224W        W77969  16.101  28.091   1.405
18225W        W77970  27.171  33.891  11.543
18226W        W77971  22.024   8.170  13.043
18227W        W77972  18.076  22.230  13.428
18228W        W77973   3.751  28.048  10.067
18229W        W77974   0.978  36.453  14.356
18230W        W77975  25.481  17.675   3.259
18231W        W77976  36.956  20.259   1.223
18232W        W77977  11.190  21.210  10.980
18233W        W77978   7.696  37.373   1.245
18234W        W77979  10.280  15.320   0.463
18235W        W77980  11.362  11.274  13.950
18236W        W77981   9.855  17.685  14.352
18237W        W77982  43.006   9.371   3.684
18238W        W77983  28.100   6.378   2.809
18239W        W77984  16.666  18.751   4.663
18240W        W77985  20.631  36.927  11.899
18241W        W77986  22.217  26.579  11.118
18242W        W77987   1.941  38.354   5.613
18243W        W77988  33.017  36.096  12.896
18244W        W77989  15.211  18.281  11.075
18245W        W77990   7.779  18.163   0.827
18246W        W77991   4.829   9.697   0.402
18247W        W77992   5.901  37.908   3.688
18248W        W77993  32.409  17.639   2.853
18249W        W77994  14.172  36.464   3.354
18250W        W77995   9.743  14.273  14.499
18251W        W77996  23.659  17.679  12.474
18252W        W77997  28.010  27.648   3.266
18253W        W77998  11.796  34.485  11.125
18254W        W77999  42.916  27.988   1.419
18255W        W78000  16.749   9.185  13.063
18256W        W78001   7.349  41.414   1.246
18257W        W78002  10.748   4.885  13.950
18258W        W78003  31.015  24.620   2.782
18259W        W78004  28.972   1.900  13.546
18260W        W78005  40.429  21.729   4.792
18261W        W78006  37.903  25.531   0.407
18262W        W78007  12.844  30.536  14.937
18263W        W78008  26.039   8.668   2.338
18264W        W78009  22.672   7.244   1.372
18265W        W78010  36.955  11.221  13.433
18266W        W78011  16.619  36.457   0.926
18267W        W78012  26.141  27.125   2.781
18268W        W78013   4.290  14.180  13.037
18269W        W78014  25.541   6.184   1.362
18270W        W78015  37.076  12.348   4.131
18271W        W78016  26.540  17.715  14.304
18272W        W78017   8.405   7.776   3.309
18273W        W78018  15.200  32.406   2.741
18274W        W78019  33.893  27.580  11.513
18275W        W78020  17.088  21.756   1.253
18276W        W78021  42.804  28.937  12.990
18277W        W78022  22.684  40.053   1.436
18278W        W78023  11.770   0.336  14.835
18279W        W78024  42.918  18.262  11.466
18280W        W78025  13.223   0.802   4.257
18281W        W78026  30.459  32.935   0.782
18282W        W78027  32.974  28.577   1.366
18283W        W78028  36.972  15.155   4.174
18284W        W78029  41.398  11.238   2.707
18285W        W78030  38.458  36.589  12.884
18286W        W78031   6.786   2.820  14.421
18287W        W78032  32.919  25.095   4.250
18288W        W78033  17.218   7.389   0.961
18289W        W78034  12.673  11.336   3.360
18290W        W78035  27.987  41.364  11.961
18291W        W78036  18.144   4.832  13.434
18292W        W78037  41.473   6.734  12.489
18293W        W78038  34.054   1.359  11.397
18294W        W78039  21.097   0.870   3.317
18295W        W78040  30.454  36.473  14.278
18296W        W78041  43.981  28.025   0.879
18297W        W78042  21.148  23.164   2.785
18298W        W78043  22.188  40.453  11.609
18299W        W78044   8.811   7.787   3.867
18300W        W78045  28.084   1.460  12.404
18301W        W78046  10.803  42.298  11.473
18302W        W78047  23.187  41.933   0.757
18303W        W78048  10.877  16.806  11.569
18304W        W78049  31.457  43.974  11.997
18305W        W78050  16.771  26.176   0.354
18306W        W78051  27.004  28.438   3.149
18307W        W78052  18.597  39.891  13.489
18308W        W78053  35.420  37.915  14.287
18309W        W78054  11.848  34.920   0.901
18310W        W78055  13.304  18.707  14.507
18311W        W78056  23.652  39.407  12.488
18312W        W78057  15.777  14.588  10.937
18313W        W78058  26.986   0.816   2.769
18314W        W78059   6.258  40.050   4.769
18315W        W78060  38.547  38.450   1.365
18316W        W78061  24.627  36.916   1.318
18317W        W78062   6.772  40.425   3.754
18318W        W78063   0.338  12.805   0.267
18319W        W78064  29.633  27.495  10.462
18320W        W78065  28.179  19.075   4.242
18321W        W78066  38.939  12.237   1.394
18322W        W78067   1.911  25.108   4.271
18323W        W78068  34.059  22.661   3.728
18324W        W78069  27.612  31.579   4.294
18325W        W78070  17.788  43.985  12.361
18326W        W78071   2.390  34.584   4.177
18327W        W78072  11.308   1.879   2.327
18328W        W78073  10.751  22.578  14.851
18329W        W78074  35.485  41.516  13.312
18330W        W78075   9.867  19.654  12.025
18331W        W78076  38.857  44.403   3.806
18332W        W78077  29.953  27.583  13.352
18333W        W78078  29.507   3.294  12.053
18334W        W78079  41.501  39.922   3.773
18335W        W78080  10.332  25.692  14.976
18336W        W78081  19.613  13.721  10.139
18337W        W78082  20.599  28.447   0.476
18338W        W78083   4.862  24.151   0.466
18339W        W78084  11.213  21.140  11.546
18340W        W78085  27.037  40.343   0.806
18341W        W78086  44.366  29.640   3.316
18342W        W78087   7.311  20.573   0.833
18343W        W78088  26.128  26.112  14.377
18344W        W78089  20.034  32.469  10.914
18345W        W78090  13.106  32.073   2.862
18346W        W78091   1.375  10.354   4.776
18347W        W78092  15.141  14.788  11.437
18348W        W78093   4.303  19.220   5.710
18349W        W78094   0.901  25.153   1.886
18350W        W78095  30.507  37.896  12.077
18351W        W78096  40.394  26.074   0.465
18352W        W78097  33.016  40.901  10.558
18353W        W78098  43.806   3.785   2.183
18354W        W78099  38.851   2.395  14.340
18355W        W78100  24.222  44.889   0.423
18356W        W78101   0.423  37.004  12.053
18357W        W78102  38.502  29.095   4.243
18358W        W78103   8.700   7.407   2.387
18359W        W78104   4.367  44.847   3.789
18360W        W78105  41.506  35.555  12.486
18361W        W78106  32.927  42.973   0.321
18362W        W78107  19.047  40.314   0.354
18363W        W78108   6.705  26.116   4.797
18364W        W78109  23.089   9.774   0.460
18365W        W78110   9.810  25.007   0.354
18366W        W78111  39.526  12.138  10.998
18367W        W78112  29.061  29.151  11.467
18368W        W78113  41.423  35.461   0.394
18369W        W78114   6.281  43.892  10.983
18370W        W78115  41.808   1.353  11.390
18371W        W78116  31.420  44.464   3.864
18372W        W78117  12.201  17.299  13.040
18373W        W78118  35.999  34.954   4.326
18374W        W78119  27.040  23.031  12.087
18375W        W78120  12.132   2.939  13.815
18376W        W78121  40.924  41.393  14.285
18377W        W78122   9.180   2.295  14.945
18378W        W78123  23.069  15.744  10.085
18379W        W78124  25.616   3.292   3.828
18380W        W78125  30.134  43.405   2.901
18381W        W78126  35.091  33.577  12.571
18382W        W78127  28.968  32.009  11.415
18383W        W78128  42.861   2.797   1.749
18384W        W78129  39.034   9.716   0.751
18385W        W78130  19.273  24.591  12.000
18386W        W78131  24.663  20.090   0.335
18387W        W78132   3.291   0.292   1.702
18388W        W78133  33.460  24.122   4.742
18389W        W78134  12.193  32.397  13.452
18390W        W78135  36.496  35.528   2.863
18391W        W78136  12.205   3.805  12.539
18392W        W78137  22.551  20.226   4.249
18393W        W78138  19.607   8.202   4.204
18394W        W78139   9.749   9.763  12.051
18395W        W78140  25.022   3.917  14.765
18396W        W78141  44.956  24.220  14.334
18397W        W78142  22.612  28.626   2.214
18398W        W78143  26.472  34.561   1.223
18399W        W78144   8.361  31.978   1.428
18400W        W78145  29.145  33.893  12.032
18401W        W78146   7.730   6.905  13.887
18402W        W78147  15.194   1.810  13.843
18403W        W78148  42.414  43.295   1.861
18404W        W78149  14.724  11.317  12.871
18405W        W78150  34.397   8.806  12.382
18406W        W78151  29.116  14.165  13.400
18407W        W78152  29.087  34.942   2.337
18408W        W78153  38.352  39.022  12.046
18409W        W78154  33.531  26.071  13.871
18410W        W78155  17.605  23.674   3.645
18411W        W78156  40.495  38.048  10.519
18412W        W78157   5.377  21.609  11.942
18413W        W78158  28.485  16.216  11.871
18414W        W78159  10.858  29.628  11.567
18415W        W78160  27.497  36.383   4.322
18416W        W78161   8.825  28.555   2.885
18417W        W78162  31.003  24.699   2.284
18418W        W78163  33.954  33.052  12.908
18419W        W78164  25.017  21.135   2.874
18420W        W78165  41.494  40.438  11.879
18421W        W78166  37.517  26.023   3.263
18422W        W78167  17.673  33.566  10.983
18423W        W78168  19.194  17.748  10.630
18424W        W78169   7.370   9.188  11.905
18425W        W78170  25.084  11.170  13.487
18426W        W78171  28.438   5.230   2.816
18427W        W78172  41.892  14.122   4.127
18428W        W78173  22.533  25.049   3.341
18429W        W78174  11.163  33.597  10.993
18430W        W78175   9.331  10.831  13.057
18431W        W78176  13.623  29.151   0.867
18432W        W78177  36.072  31.444  14.920
18433W        W78178  11.859   3.263  10.949
18434W        W78179  44.409   5.242   4.235
18435W        W78180  29.144   1.308   4.130
18436W        W78181   1.418  11.819   0.872
18437W        W78182  20.232  25.092   0.362
18438W        W78183   4.908  31.001   4.350
18439W        W78184  32.450  43.369   3.843
18440W        W78185   6.387  33.590   4.709
18441W        W78186  15.824  20.085   9.989
18442W        W78187  14.801  42.844  13.356
18443W        W78188  20.259   4.424   2.741
18444W        W78189  10.277  29.551   1.403
18445W        W78190  43.798  14.689   0.402
18446W        W78191  29.094   5.285   1.902
18447W        W78192  14.611  40.394  14.447
18448W        W78193  18.149  29.064   0.891
18449W        W78194  19.157  35.551   1.260
18450W        W78195  38.072  38.047  12.402
18451W        W78196  10.222  40.380  11.449
18452W        W78197   1.453  35.543   2.374
18453W        W78198   5.913  33.396   0.787
18454W        W78199  21.528  35.512   4.690
18455W        W78200  25.602  44.449  10.062
18456W        W78201   2.395   3.833   3.201
18457W        W78202  21.216  21.236  11.073
18458W        W78203  32.441  23.612   3.835
18459W        W78204  32.975   8.356  11.926
18460W        W78205  33.914  26.606  12.407
18461W        W78206  32.989  16.224  10.938
18462W        W78207  37.868  24.091  14.911
18463W        W78208  28.092  17.228   3.846
18464W        W78209  31.031  40.822   0.448
18465W        W78210  28.161  14.762   4.126
18466W        W78211  18.111  40.929  11.376
18467W        W78212  37.416  29.048   2.258
18468W        W78213  29.590  26.687   4.803
18469W        W78214  43.003  18.641   3.685
18470W        W78215  36.008  33.104   3.704
18471W        W78216   8.318   4.908   4.244
18472W        W78217   4.297  40.317   3.314
18473W        W78218  28.933  26.540   2.861
18474W        W78219  26.465  22.086  14.782
18475W        W78220   8.700  11.316  13.898
18476W        W78221  26.530   6.413   4.781
18477W        W78222  27.550   8.170   2.180
18478W        W78223  39.410  31.915  12.423
18479W        W78224   2.243  19.600  12.414
18480W        W78225   0.813  19.582  10.421
18481W        W78226  10.708  40.886  14.898
18482W        W78227  19.202  13.149   4.135
18483W        W78228  19.671  43.986  14.960
18484W        W78229  43.016  16.704   1.926
18485W        W78230  21.524   0.793   2.323
18486W        W78231  15.271  29.160  12.002
18487W        W78232  25.024  22.070   2.285
18488W        W78233  41.990   7.249  10.640
18489W        W78234  26.066   8.178   4.616
18490W        W78235  29.602   9.749  14.354
18491W        W78236  20.708  23.134  10.625
18492W        W78237  22.055  19.255   2.681
18493W        W78238  32.929  26.077  11.472
18494W        W78239  16.633  31.007   3.256
18495W        W78240   7.286  21.100   5.277
18496W        W78241  32.623  36.477  12.892
18497W        W78242  42.519  18.296   4.633
18498W        W78243  29.448   6.197   2.262
18499W        W78244  38.904  13.326   1.792
18500W        W78245  36.972   9.699  13.980
18501W        W78246  24.497   7.858  14.485
18502W        W78247  21.126  10.274  11.385
18503W        W78248   6.224  26.701  14.862
18504W        W78249   8.768  44.453  11.574
18505W        W78250  32.592  15.111  11.018
18506W        W78251  32.118   5.791   5.223
18507W        W78252   6.703  25.474   4.761
18508W        W78253  35.092  44.824  13.498
18509W        W78254   4.789  42.856   2.746
18510W        W78255   1.925  41.449   3.798
18511W        W78256  27.557   8.255  11.413
18512W        W78257  19.780  39.957  12.941
18513W        W78258  35.026  31.054  14.840
18514W        W78259  15.184  17.712  14.421
18515W        W78260  20.174   8.334  11.996
18516W        W78261   4.797  11.639   2.378
18517W        W78262  32.520  20.717  10.963
18518W        W78263  43.874  23.070   1.813
18519W        W78264   5.402  34.070   3.710
18520W        W78265  14.835  21.629   3.801
18521W        W78266  39.023   7.741   1.724
18522W        W78267  41.361  34.454  14.405
18523W        W78268  39.957  43.298   0.418
18524W        W78269   7.368  37.893  10.611
18525W        W78270  27.999   7.908   3.679
18526W        W78271   2.467  30.934  13.414
18527W        W78272  30.474  21.105   2.751
18528W        W78273  13.612  43.768  13.477
18529W        W78274  44.905  26.182  12.028
18530W        W78275  31.500  27.577  12.030
18531W        W78276  31.636  10.166   3.728
18532W        W78277  20.119  13.720   5.173
18533W        W78278  20.661  11.812  14.768
18534W        W78279  40.402  37.989  10.925
18535W        W78280   7.745  38.845   2.858
18536W        W78281  37.521  18.224  11.949
18537W        W78282   4.365  29.106   0.274
18538W        W78283  33.470  43.018   4.347
18539W        W78284  19.614   0.968  14.799
18540W        W78285  11.330   6.375   0.272
18541W        W78286  35.498  38.338   2.418
18542W        W78287  21.560  28.102  11.487
18543W        W78288  37.500  38.846  12.417
18544W        W78289  23.527  43.458   4.150
18545W        W78290   8.881  21.609  12.413
18546W        W78291  19.561  27.189   3.694
18547W        W78292  18.774   8.359  10.991
18548W        W78293   2.371  35.931   0.365
18549W        W78294  33.005  27.636  13.020
18550W        W78295  10.715  19.554   5.083
18551W        W78296  41.464  43.819  11.111
18552W        W78297   5.856  15.125   2.374
18553W        W78298  29.007  10.366   4.709
18554W        W78299  37.928  17.132   4.244
18555W        W78300   8.344  42.286   1.915
18556W        W78301  41.818  44.844  11.515
18557W        W78302  11.638   7.792   3.161
18558W        W78303  14.210  18.114   1.421
18559W        W78304   1.318  39.495  12.084
18560W        W78305  42.523  18.778   1.425
18561W        W78306  37.906  40.367  13.921
18562W        W78307  31.586  22.015  11.972
18563W        W78308  27.958  10.368  11.469
18564W        W78309  10.682   6.767  14.810
18565W        W78310  34.065  40.051   1.731
18566W        W78311   1.857  24.982  13.821
18567W        W78312   9.708  13.618   4.785
18568W        W78313  10.248  11.646   1.811
18569W        W78314   4.430  13.616  10.899
18570W        W78315  19.185  17.098   2.285
18571W        W78316  27.983  35.045  14.790
18572W        W78317  41.790  27.450   1.450
18573W        W78318   2.273   8.357   0.794
18574W        W78319  16.130  29.949  13.399
18575W        W78320  11.294  27.559   0.735
18576W        W78321  15.771   5.390  11.408
18577W        W78322  11.298   9.368  14.451
18578W        W78323  19.100  28.671  13.801
18579W        W78324  28.649  14.227  14.495
18580W        W78325   0.772   5.705   4.724
18581W        W78326  41.916  35.071   2.246
18582W        W78327  29.529   9.255  11.880
18583W        W78328   5.833  32.936   0.387
18584W        W78329  20.527  17.178  13.488
18585W        W78330  43.329  33.592   0.863
18586W        W78331   3.354  38.884   3.314
18587W        W78332  37.885  42.521   3.238
18588W        W78333   7.182  41.329   3.828
18589W        W78334   9.221  18.705  12.042
18590W        W78335  39.812  26.987  12.982
18591W        W78336   0.430   4.699   3.845
18592W        W78337  44.852   6.851   2.326
18593W        W78338  23.061   5.858  11.071
18594W        W78339  41.882  18.216  14.309
18595W        W78340  34.049  36.878   0.905
18596W        W78341  17.593  25.140   1.217
18597W        W78342  40.892  16.112   2.833
18598W        W78343   6.711  18.259   4.241
18599W        W78344   6.817  20.608   1.330
18600W        W78345   4.250  36.528  11.008
18601W        W78346  26.671  40.804  12.438
18602W        W78347  30.117   6.340  14.369
18603W        W78348  30.083   5.927   1.696
18604W        W78349  33.500  34.101   4.699
18605W        W78350  28.933  34.032  13.525
18606W        W78351  21.059  17.566   1.317
18607W        W78352  17.175  14.646   0.933
18608W        W78353   0.852  42.784   0.946
18609W        W78354  37.407  38.331  10.640
18610W        W78355   7.746   4.286   3.849
18611W        W78356  16.698  41.456   4.154
18612W        W78357  24.562  27.041   4.799
18613W        W78358   7.267  27.663  14.967
18614W        W78359  31.458   1.327  13.965
18615W        W78360  36.851  44.856  12.480
18616W        W78361  28.067  32.101   2.876
18617W        W78362  37.405   0.468  11.919
18618W        W78363  44.448  21.552  11.544
18619W        W78364   6.723  13.676  11.399
18620W        W78365  27.639   6.311  13.921
18621W        W78366  37.395   9.391   4.798
18622W        W78367   8.661   3.374  10.458
18623W        W78368  10.247   1.390  12.870
18624W        W78369   5.220  41.025   2.333
18625W        W78370  20.166  37.469   9.943
18626W        W78371  16.696   8.684   1.346
18627W        W78372   5.870   6.188   0.937
18628W        W78373   8.219  15.616  10.574
18629W        W78374  21.221  42.901  13.918
18630W        W78375  40.378  37.466   3.698
18631W        W78376  10.296  42.895   0.867
18632W        W78377  31.556  22.162   2.833
18633W        W78378  27.584  22.230   4.796
18634W        W78379  33.462  44.488   2.879
18635W        W78380   7.737  15.164   4.350
18636W        W78381  35.097  28.170   1.435
18637W        W78382  27.136  21.078  11.983
18638W        W78383   9.649  20.161  14.026
18639W        W78384  36.501  34.082   4.156
18640W        W78385  22.631  29.083  10.415
18641W        W78386  37.864  42.302  11.038
18642W        W78387  40.529  18.582   2.414
18643W        W78388  24.211   4.436  13.997
18644W        W78389  42.310  17.129   4.351
18645W        W78390  20.726   2.354   2.815
18646W        W78391  41.043   9.885   4.609
18647W        W78392  29.515  16.247  13.308
18648W        W78393  17.653  40.937   2.299
18649W        W78394  42.520  32.408  10.909
18650W        W78395  34.582  26.031   0.318
18651W        W78396  34.553   3.815  14.895
18652W        W78397  26.965  11.248  13.024
18653W        W78398  16.731   8.751   2.786
18654W        W78399  20.740   5.918  11.012
18655W        W78400  42.485  30.504   1.337
18656W        W78401  11.759   6.221  10.622
18657W        W78402  14.646  24.119  13.900
18658W        W78403  35.524   1.318  14.783
18659W        W78404  10.362   4.730  12.070
18660W        W78405  28.091  12.637   0.399
18661W        W78406  28.631  43.818  14.019
18662W        W78407   1.309  35.058  14.796
18663W        W78408  14.285  19.266   1.327
18664W        W78409  19.170  15.778  14.426
18665W        W78410   6.816  20.102  14.770
18666W        W78411  22.519  30.106  12.425
18667W        W78412   5.801  27.660   2.827
18668W        W78413  13.117  10.209  12.388
18669W        W78414  43.501   3.433   1.846
18670W        W78415  18.091  20.554   4.825
18671W        W78416  11.812  14.193  13.861
18672W        W78417  36.014  17.799  10.509
18673W        W78418  36.478  44.887   4.217
18674W        W78419  28.526   0.764   3.200
18675W        W78420  16.707  14.271   1.923
18676W        W78421   5.727  34.071  14.448
18677W        W78422  42.432   9.817   1.433
18678W        W78423  30.926  21.224   2.268
18679W        W78424   6.806  32.399   0.840
18680W        W78425   7.818   8.243   3.645
18681W        W78426  38.346  16.657   1.425
18682W        W78427   9.789  19.621  13.524
18683W        W78428  20.756  29.986  13.867
18684W        W78429  24.015  35.886   4.136
18685W        W78430  36.969  34.057  12.000
18686W        W78431  33.433  39.346   4.749
18687W        W78432  32.520   2.355   3.262
18688W        W78433  12.623   1.372  14.413
18689W        W78434   7.902   7.412  12.083
18690W        W78435  19.679  33.470  10.628
18691W        W78436   6.403  38.490   0.483
18692W        W78437  11.766  36.871   3.185
18693W        W78438   2.954   9.828  12.899
18694W        W78439  26.694  36.546  12.515
18695W        W78440  28.507  43.401   2.405
18696W        W78441  19.714  35.941   4.279
18697W        W78442  35.363   2.393   2.277
18698W        W78443   0.349   3.850   0.383
18699W        W78444  38.987   2.440  11.486
18700W        W78445  37.070  26.685   1.263
18701W        W78446   8.835  28.167  12.973
18702W        W78447   7.667   8.778   0.933
18703W        W78448   6.334  27.532  11.068
18704W        W78449  23.226   7.775  14.865
18705W        W78450  21.718  30.912  10.404
18706W        W78451   0.442  26.127   4.803
18707W        W78452  26.683  42.811   2.870
18708W        W78453  38.481  21.059   0.390
18709W        W78454   2.417  12.741   0.814
18710W        W78455  36.485   7.814   1.710
18711W        W78456  13.764   4.845  12.420
18712W        W78457  28.645   1.362   1.699
18713W        W78458  16.702   2.945  11.032
18714W        W78459  10.208  35.574   9.977
18715W        W78460  15.315   5.433  10.408
18716W        W78461   6.723  20.100   1.724
18717W        W78462   9.721  29.980   1.303
18718W        W78463  23.231  17.613  14.995
18719W        W78464   3.916  13.733  14.332
18720W        W78465  36.952  27.166  11.066
18721W        W78466   2.849  24.059   4.254
18722W        W78467  17.606  44.962   4.319
18723W        W78468  17.262  13.337  14.943
18724W        W78469  41.394  36.999  12.509
18725W        W78470  24.000  10.820   3.340
18726W        W78471  24.129  33.874   2.403
18727W        W78472   3.411   3.805   5.239
18728W        W78473  13.118  41.400  13.534
18729W        W78474  15.225  34.569  10.477
18730W        W78475  24.495   5.794   2.810
18731W        W78476  20.147  16.708  11.895
18732W        W78477  25.633  11.658   3.190
18733W        W78478   5.763  36.906  10.633
18734W        W78479  42.900   6.876   2.291
18735W        W78480  35.054  10.302   2.324
18736W        W78481  10.826  28.107   1.340
18737W        W78482  12.224  28.608  11.960
18738W        W78483  10.364  13.763  11.587
18739W        W78484  30.640  17.150  12.003
18740W        W78485  31.072  28.089   3.175
18741W        W78486  17.651  41.513   2.789
18742W        W78487  29.083   9.156   4.637
18743W        W78488  23.722  16.725   2.256
18744W        W78489  44.395  34.088   0.816
18745W        W78490  13.761  33.896  11.014
18746W        W78491  21.702  17.661  11.559
18747W        W78492  35.966   6.813   3.385
18748W        W78493  20.561  27.026   4.822
18749W        W78494  35.574  36.077   4.143
18750W        W78495   5.264  23.489   0.964
18751W        W78496  11.726  31.906  10.563
18752W        W78497  23.727  10.687   4.264
18753W        W78498  24.597  40.311   0.787
18754W        W78499  27.005  43.822  14.870
18755W        W78500  10.802  10.228   2.228
18756W        W78501   5.854  33.094  11.959
18757W        W78502  10.778  16.607  14.950
18758W        W78503   5.340  30.455   0.893
18759W        W78504  19.216   4.237   1.250
18760W        W78505  42.870  10.243  13.931
18761W        W78506   6.384   7.247   0.893
18762W        W78507   1.451   8.863  11.430
18763W        W78508  40.974  21.173  10.968
18764W        W78509  23.160  21.591   3.210
18765W        W78510  25.563  36.092  12.007
18766W        W78511   2.449  21.519   4.177
18767W        W78512  38.874  39.990   1.769
18768W        W78513  35.050  24.667   2.223
18769W        W78514  15.757  31.104  13.062
18770W        W78515  19.039  12.339  13.011
18771W        W78516  36.094  23.732  14.794
18772W        W78517  21.677  44.875   3.311
18773W        W78518  32.523   6.394   4.118
18774W        W78519   6.892   8.353   0.327
18775W        W78520  43.444   9.270   2.794
18776W        W78521  18.553  18.051   1.813
18777W        W78522  20.055   1.291   0.941
18778W        W78523  27.001  10.775   3.673
18779W        W78524  41.447  25.053   4.613
18780W        W78525  36.470  28.179  10.983
18781W        W78526  20.617  13.288  10.934
18782W        W78527  27.191  35.576  13.539
18783W        W78528  31.055  38.397   4.141
18784W        W78529  25.162  16.170  14.438
18785W        W78530  13.172  28.678  11.404
18786W        W78531   1.871  30.541  13.308
18787W        W78532  42.331  22.564   2.326
18788W        W78533   4.726  23.005   2.259
18789W        W78534   8.697  10.849   3.372
18790W        W78535   8.665  19.772  11.942
18791W        W78536  26.685   4.291  11.997
18792W        W78537  11.861   3.452  12.468
18793W        W78538   2.248   5.851  12.351
18794W        W78539  36.914  43.016   1.751
18795W        W78540   0.437   4.777  11.513
18796W        W78541   2.794   6.286  10.952
18797W        W78542   7.805  39.483  13.063
18798W        W78543  24.622  33.490   3.775
18799W        W78544  14.738  38.516   5.252
18800W        W78545  33.943   2.337  13.937
18801W        W78546  39.880  32.418   0.259
18802W        W78547   1.764  44.296  14.871
18803W        W78548  38.362  31.638  13.048
18804W        W78549  20.102  40.036   1.930
18805W        W78550   9.374   3.882  10.903
18806W        W78551  25.042   4.361   4.199
18807W        W78552  10.354  25.172   3.283
18808W        W78553   6.360  44.285   3.301
18809W        W78554  11.173   9.275   4.313
18810W        W78555  29.058   7.867   4.759
18811W        W78556   0.844  14.701  12.033
18812W        W78557  39.349   0.896  14.440
18813W        W78558  10.203  43.880   4.653
18814W        W78559  35.363  15.779  12.490
18815W        W78560  41.311  20.725  11.503
18816W        W78561   9.271  11.644  11.419
18817W        W78562  31.631  16.696   4.121
18818W        W78563  39.552  25.531  13.843
18819W        W78564  13.130   8.186   0.466
18820W        W78565  40.825   5.850   4.335
18821W        W78566  31.141   2.878   0.298
18822W        W78567  36.493   8.809   0.350
18823W        W78568  15.781  44.411  11.098
18824W        W78569   0.932  36.988   1.786
18825W        W78570   0.846  14.613   0.356
18826W        W78571  12.663  29.080   2.237
18827W        W78572  13.306   9.225   3.861
18828W        W78573  39.403   5.231   1.237
18829W        W78574   8.338  32.097   3.782
18830W        W78575  11.814  20.651  14.941
18831W        W78576   7.790   8.813  13.494
18832W        W78577   8.296  42.990  14.331
18833W        W78578  32.900  35.991   4.818
18834W        W78579  17.701   0.820   2.183
18835W        W78580  41.398  13.751   2.800
18836W        W78581  43.403   1.859  10.975
18837W        W78582  24.558  29.065   0.812
18838W        W78583  40.813  40.025   4.241
18839W        W78584  42.903   3.424  14.012
18840W        W78585  37.419  38.511  14.465
18841W        W78586   2.262   7.226  12.019
18842W        W78587  15.164  16.144  12.911
18843W        W78588  39.979  29.425  13.356
18844W        W78589   0.348  19.119  12.386
18845W        W78590  33.890  41.958   4.740
18846W        W78591  16.157  39.911   0.830
18847W        W78592  32.523  27.603   3.248
18848W        W78593  17.189  29.010  14.945
18849W        W78594  10.323   9.807  14.897
18850W        W78595   3.285  10.760  13.940
18851W        W78596  25.682  31.428   1.753
18852W        W78597  18.067  19.056   2.867
18853W        W78598   9.337  20.743   0.323
18854W        W78599  38.389   4.351  14.006
18855W        W78600  11.833   7.889   1.890
18856W        W78601  17.071  30.085  14.800
18857W        W78602  16.168  19.689   3.195
18858W        W78603  21.099  41.871  10.544
18859W        W78604  30.075  32.083   2.856
18860W        W78605  38.472   2.468  13.952
18861W        W78606   6.191  21.081  10.962
18862W        W78607   0.887  14.644  11.454
18863W        W78608  32.414   0.745   3.815
18864W        W78609   2.405  16.619  10.610
18865W        W78610  40.439  11.803   1.444
18866W        W78611  34.900  40.956   1.786
18867W        W78612  21.191  24.193   1.248
18868W        W78613  43.504  42.433  13.404
18869W        W78614  43.893  31.935   0.958
18870W        W78615   2.435  22.628  14.470
18871W        W78616   7.852  35.591  10.412
18872W        W78617  17.293   0.887   0.251
18873W        W78618  24.588  44.952   0.761
18874W        W78619  21.690  28.633  11.594
18875W        W78620  19.212  43.349  14.887
18876W        W78621  29.962   0.325  10.430
18877W        W78622  27.539  23.122   3.278
18878W        W78623  39.379   7.698  10.470
18879W        W78624  10.151   4.357   4.702
18880W        W78625  11.702  26.680  12.448
18881W        W78626  31.958  10.385  11.439
18882W        W78627  14.622  33.575   3.668
18883W        W78628  31.153  17.775  11.874
18884W        W78629  39.820  39.326  13.371
18885W        W78630   1.374  22.652  12.849
18886W        W78631  16.777   8.195  10.575
18887W        W78632  14.179   2.393  13.371
18888W        W78633  41.945   6.213  13.980
18889W        W78634  16.085  10.215  14.414
18890W        W78635  24.538  36.397  12.499
18891W        W78636   5.861  31.514   3.249
18892W        W78637  39.928  38.926   2.391
18893W        W78638  12.316  34.081  13.993
18894W        W78639  21.115  37.367  14.976
18895W        W78640  31.907  43.276   2.876
18896W        W78641  16.198  22.722  11.017
18897W        W78642  25.100  16.701  10.931
18898W        W78643  43.765  36.088  11.414
18899W        W78644  39.946  37.087  10.544
18900W        W78645  41.347   3.832  10.950
18901W        W78646   3.842   4.219  14.317
18902W        W78647  13.240   5.246   2.690
18903W        W78648  10.314  29.655   0.883
18904W        W78649  33.614  16.739  12.474
18905W        W78650  10.704  18.655  11.125
18906W        W78651  40.378   5.800   4.202
18907W        W78652   4.361  30.039   4.329
18908W        W78653  29.104  27.631  13.876
18909W        W78654  21.607  37.887  12.522
18910W        W78655  33.063  12.827  13.827
18911W        W78656  36.847  33.126  12.994
18912W        W78657  10.823   2.401   0.359
18913W        W78658   3.388  28.982  13.867
18914W        W78659  20.580  10.302   0.254
18915W        W78660  23.509  14.787  14.466
18916W        W78661  30.011  26.167  11.962
18917W        W78662  43.515  35.420  14.000
18918W        W78663  22.517  12.134  11.550
18919W        W78664   9.652  12.336  12.341
18920W        W78665  16.596   4.217   2.845
18921W        W78666  29.537  37.349   1.240
18922W        W78667  43.902   8.207  14.883
18923W        W78668  20.651  16.110  14.446
18924W        W78669  23.037  38.383  10.462
18925W        W78670   6.417  31.955   1.915
18926W        W78671  14.104  24.596  13.014
18927W        W78672  29.512   5.817   2.839
18928W        W78673  17.190  41.294   5.091
18929W        W78674  39.010   5.822  12.095
18930W        W78675  42.907   5.319  13.957
18931W        W78676  20.120  29.963  12.901
18932W        W78677   0.890   2.823   0.792
18933W        W78678  31.597  26.498   0.256
18934W        W78679  12.614   3.716   1.359
18935W        W78680  37.367  26.583  10.117
18936W        W78681  43.292   3.220   3.687
18937W        W78682  11.368  41.818   1.781
18938W        W78683  38.919  28.658  11.394
18939W        W78684  22.674   6.817  11.403
18940W        W78685   1.977  42.350   2.306
18941W        W78686   9.151  43.323  13.794
18942W        W78687  13.601   9.204   2.361
18943W        W78688   8.805  40.330   2.715
18944W        W78689  21.057  34.865  13.834
18945W        W78690  15.742   1.866   2.859
18946W        W78691   7.337  44.808  12.469
18947W        W78692  36.959  21.034  11.864
18948W        W78693  19.690  32.990  10.484
18949W        W78694   5.732  44.406   0.745
18950W        W78695  34.563  30.492   3.813
18951W        W78696  35.091  15.687  13.404
18952W        W78697  30.910  18.746   2.903
18953W        W78698  35.106  28.970  12.827
18954W        W78699  42.001  32.486  10.469
18955W        W78700   8.657  43.474  12.389
18956W        W78701  38.442  23.509   1.772
18957W        W78702   0.403  40.479   4.809
18958W        W78703  10.192  19.701   3.709
18959W        W78704  41.811  36.027   4.244
18960W        W78705   4.322  11.863  11.956
18961W        W78706  41.476  35.574   1.850
18962W        W78707  40.962   0.805  11.121
18963W        W78708   6.851  20.608  13.542
18964W        W78709  30.912   0.840   4.616
18965W        W78710   0.909   1.316  11.581
18966W        W78711  21.565  18.080  14.775
18967W        W78712   9.880  25.174   3.373
18968W        W78713  29.121  14.741   1.322
18969W        W78714   1.754  12.641   4.699
18970W        W78715  19.586  17.184  14.438
18971W        W78716  26.060  12.611   1.720
18972W        W78717  41.478  44.474   0.955
18973W        W78718  27.992  22.034   2.816
18974W        W78719  13.835  12.181  11.923
18975W        W78720   5.872  30.469  10.462
18976W        W78721   4.901  39.524  14.844
18977W        W78722   9.366  10.277  12.502
18978W        W78723   6.841  36.956   4.794
18979W        W78724  21.091  25.700   3.869
18980W        W78725  20.238  27.018  14.025
18981W        W78726  35.894  16.284   1.297
18982W        W78727  11.853   8.180   3.228
18983W        W78728  33.096   2.797  11.427
18984W        W78729  34.557  43.954  10.966
18985W        W78730  37.531   0.464   1.391
18986W        W78731   0.743  17.238   3.287
18987W        W78732  28.443   4.221   9.473
18988W        W78733  27.157  24.047   2.729
18989W        W78734  22.198   3.229   5.664
18990W        W78735   9.239  40.483   2.355
18991W        W78736  30.986  43.319  12.569
18992W        W78737   1.813  24.205   1.822
18993W        W78738  37.875  13.640   2.680
18994W        W78739   0.971  19.698   2.874
18995W        W78740  33.949  11.824  14.470
18996W        W78741   5.858   5.927  14.812
18997W        W78742   9.298  35.891  12.535
18998W        W78743   0.314  25.097   1.870
18999W        W78744  13.677  13.271   1.268
19000W        W78745  17.267  42.419   1.362
19001W        W78746  10.796  21.045   2.748
19002W        W78747  44.304   0.976   1.369
19003W        W78748   7.317  18.771  13.863
19004W        W78749  26.152  34.524   1.900
19005W        W78750  40.040  15.644  12.840
19006W        W78751  22.591  17.096   3.853
19007W        W78752  23.040  28.987   1.266
19008W        W78753  28.062  41.949  11.092
19009W        W78754   5.735  36.881   4.610
19010W        W78755  21.609  44.412  12.954
19011W        W78756  14.757  20.033  12.891
19012W        W78757  29.635  27.189  11.115
19013W        W78758   5.351  36.519  11.532
19014W        W78759  21.729  15.649  13.989
19015W        W78760  25.596  44.472   2.382
19016W        W78761  41.387  35.512   2.727
19017W        W78762  25.628  44.910   4.208
19018W        W78763  25.709   0.393   9.958
19019W        W78764  37.365  35.930   2.665
19020W        W78765  15.629  28.156   4.162
19021W        W78766  19.174  17.139   2.853
19022W        W78767  12.257  24.586  12.372
19023W        W78768   6.312  33.523  10.639
19024W        W78769  41.997  19.656   1.897
19025W        W78770   6.891  24.078   1.857
19026W        W78771   3.751  38.378  11.605
19027W        W78772   2.833   6.801  13.872
19028W        W78773  26.631  35.558   1.900
19029W        W78774  37.448   6.298  13.368
19030W        W78775  36.454  17.270  11.549
19031W        W78776  13.333  17.096   4.766
19032W        W78777   5.377  11.320  10.644
19033W        W78778  29.108  37.412  11.874
19034W        W78779  18.295  25.554   2.341
19035W        W78780  16.711   3.335  10.502
19036W        W78781  17.686   7.762  12.571
19037W        W78782  29.557  32.981  13.929
19038W        W78783  32.965  23.529  13.886
19039W        W78784   7.782  37.494  13.496
19040W        W78785   2.952   3.863  12.050
19041W        W78786   2.866  44.917   2.721
19042W        W78787  12.835  32.049   0.957
19043W        W78788  27.607  32.600  11.584
19044W        W78789  37.355  24.125   4.606
19045W        W78790  43.975  27.089   4.221
19046W        W78791  41.462  37.963   1.298
19047W        W78792  32.009   6.748   0.808
19048W        W78793  44.308   7.256  14.451
19049W        W78794  34.456   2.328  14.975
19050W        W78795  13.242  25.551   0.308
19051W        W78796  40.952  14.113   3.861
19052W        W78797  39.507   9.343   0.841
19053W        W78798  15.246  17.167   4.293
19054W        W78799  41.813  19.639   0.821
19055W        W78800   9.233  21.523   0.909
19056W        W78801  30.006  40.471  12.452
19057W        W78802   7.728  26.672   0.873
19058W        W78803  26.086  25.480  10.514
19059W        W78804  17.721  22.175  10.587
19060W        W78805  28.501  27.647   2.730
19061W        W78806   5.226   3.752   1.733
19062W        W78807  11.632   7.264   0.247
19063W        W78808  27.063   7.739  12.894
19064W        W78809   3.280  33.886   2.365
19065W        W78810   2.230  11.733  11.523
19066W        W78811  33.100   5.827  14.761
19067W        W78812   4.891  16.623   4.254
19068W        W78813  20.219  30.007   4.725
19069W        W78814  38.567  36.513   1.902
19070W        W78815  24.603  32.417   3.247
19071W        W78816  26.955  28.019  11.443
19072W        W78817  18.582  36.065  11.605
19073W        W78818  15.645   0.942   4.116
19074W        W78819   6.302  32.953   1.824
19075W        W78820  17.566  20.661   3.684
19076W        W78821  21.537  29.657   0.746
19077W        W78822  16.263  15.696   4.784
19078W        W78823  13.319  28.080   3.224
19079W        W78824   5.875   3.347   3.700
19080W        W78825  19.568   7.827   4.597
19081W        W78826  38.948  41.325  11.456
19082W        W78827  34.885  34.069  14.862
19083W        W78828   6.678  13.732   2.758
19084W        W78829  38.491  20.162  10.411
19085W        W78830  32.625   8.789  13.901
19086W        W78831  24.548   9.275  10.636
19087W        W78832  13.220   6.762  14.489
19088W        W78833  38.841  15.208  14.382
19089W        W78834   4.298   1.911   1.808
19090W        W78835  27.662   3.710   2.773
19091W        W78836  19.691  32.495   2.225
19092W        W78837  26.075  32.976   2.856
19093W        W78838  43.288  22.603   2.383
19094W        W78839  25.091  19.270   4.114
19095W        W78840  30.544  31.109   5.110
19096W        W78841  39.889  28.118  12.989
19097W        W78842  17.209  29.043  14.433
19098W        W78843   6.781  24.624   3.673
19099W        W78844  32.513  20.108  12.957
19100W        W78845  11.326  22.057   0.376
19101W        W78846   7.224  26.480  12.024
19102W        W78847  26.669  15.698   2.888
19103W        W78848  17.184  24.603   4.763
19104W        W78849   6.818  38.967  14.411
19105W        W78850  33.494  28.978   3.330
19106W        W78851  41.920  26.030   4.235
19107W        W78852   1.939  33.978   4.203
19108W        W78853  13.258  37.080   2.808
19109W        W78854   1.415   3.812  14.924
19110W        W78855  24.046   0.915  12.553
19111W        W78856  15.759   2.280  11.901
19112W        W78857  43.924  38.452  12.049
19113W        W78858  24.614  30.058   1.907
19114W        W78859   3.373  38.020  10.125
19115W        W78860  33.099  37.441   4.119
19116W        W78861  44.952  14.667  10.512
19117W        W78862   5.914  44.839  12.825
19118W        W78863  21.027  23.032   3.376
19119W        W78864  12.266  16.197   0.430
19120W        W78865  42.785  29.963  13.327
19121W        W78866  41.042  39.435  12.492
19122W        W78867  31.032  17.725  12.933
19123W        W78868  36.460  16.217  12.419
19124W        W78869  20.749  12.118   5.140
19125W        W78870  24.673  39.959   4.674
19126W        W78871  18.544  28.122  13.011
19127W        W78872   9.838  10.213  10.491
19128W        W78873  43.485  32.501   2.845
19129W        W78874  24.626  16.578  14.500
19130W        W78875  38.391   4.231  10.567
19131W        W78876  10.367  27.583  12.903
19132W        W78877  22.238  36.977  11.460
19133W        W78878   5.249  36.964   0.854
19134W        W78879  22.666  29.133  11.911
19135W        W78880  30.149  18.702   4.742
19136W        W78881  43.482  41.011   3.156
19137W        W78882  34.531  10.331   3.651
19138W        W78883   9.392  18.673  10.913
19139W        W78884  38.933  23.691   4.325
19140W        W78885  40.821  29.118   0.766
19141W        W78886  44.399  39.401   0.282
19142W        W78887  27.593  38.833   4.306
19143W        W78888  41.862   6.744  11.456
19144W        W78889  44.799  23.119   0.246
19145W        W78890  13.135  15.757   3.331
19146W        W78891  26.993  10.211  11.091
19147W        W78892   9.350  43.926   3.664
19148W        W78893  35.857  44.010   4.340
19149W        W78894  41.447  35.535   3.693
19150W        W78895  34.020  42.295  11.477
19151W        W78896   6.347  35.865  14.510
19152W        W78897  23.531  26.060  14.927
19153W        W78898  16.688  29.962   1.300
19154W        W78899  24.656  29.559  13.506
19155W        W78900  30.924  15.300   1.874
19156W        W78901  24.110  21.237  12.006
19157W        W78902   9.185  17.235  10.953
19158W        W78903   0.274  12.812   3.718
19159W        W78904   6.866  20.159  13.444
19160W        W78905  18.681  44.282  14.910
19161W        W78906   5.207  11.726   4.620
19162W        W78907  44.866  10.826   2.397
19163W        W78908  14.805   8.245  12.425
19164W        W78909  38.885   2.910   2.279
19165W        W78910  28.109   0.957  14.922
19166W        W78911  16.594  42.302  10.974
19167W        W78912  18.784  41.419  10.427
19168W        W78913  25.206   4.235  13.892
19169W        W78914  26.644  27.645  14.364
19170W        W78915  31.081  33.525  14.848
19171W        W78916  23.185  15.740  13.060
19172W        W78917  31.563  33.533  13.942
19173W        W78918   8.265  39.954   4.325
19174W        W78919  26.567  39.902  12.834
19175W        W78920  20.620   3.752   3.281
19176W        W78921  34.457   4.756  12.399
19177W        W78922   2.889  25.495   3.799
19178W        W78923  33.457  13.612  13.981
19179W        W78924  10.636  12.835   3.636
19180W        W78925  23.157  18.576   4.620
19181W        W78926  34.550  32.138  10.424
19182W        W78927  30.003  43.948  10.909
19183W        W78928  40.920  44.292  14.984
19184W        W78929   5.353  27.081   2.772
19185W        W78930   5.867  43.309   0.876
19186W        W78931  28.626  18.787  11.927
19187W        W78932  40.901  19.707  14.968
19188W        W78933  41.521   9.839  12.427
19189W        W78934   8.721  37.490  14.797
19190W        W78935  33.511  12.791  12.879
19191W        W78936   8.250  34.564   2.380
19192W        W78937  43.847   5.708   2.676
19193W        W78938  44.446  23.716  10.561
19194W        W78939   4.923   5.272   1.274
19195W        W78940   1.951  11.811   2.187
19196W        W78941  17.774  31.464  14.766
19197W        W78942  35.512  37.027   4.681
19198W        W78943   0.296  31.432   4.792
19199W        W78944  11.204  11.668  10.574
19200W        W78945  40.805  37.935   4.702
19201W        W78946  26.546  35.953  11.969
19202W        W78947   1.355  23.120   4.349
19203W        W78948  14.605  16.142  11.507
19204W        W78949   8.296  34.873   2.264
19205W        W78950  21.117  32.405   1.882
19206W        W78951   5.412   6.272  11.094
19207W        W78952  16.156  29.941  12.422
19208W        W78953  33.108  24.482  11.988
19209W        W78954  21.625  35.906  12.453
19210W        W78955  17.605   1.288  10.425
19211W        W78956   0.391  24.510  14.468
19212W        W78957   8.836   7.230  10.098
19213W        W78958  15.773  24.685   3.755
19214W        W78959  29.560   9.264  14.897
19215W        W78960  15.102  18.576   4.338
19216W        W78961   0.854  25.985  12.893
19217W        W78962  37.057  39.385   0.328
19218W        W78963  22.225  25.101   4.294
19219W        W78964  10.194  17.575   0.811
19220W        W78965  32.120  26.628   1.322
19221W        W78966  34.558  30.979  14.814
19222W        W78967  22.532  33.471   0.798
19223W        W78968  23.657  40.899  12.878
19224W        W78969  11.640  33.131  14.945
19225W        W78970  17.785  43.976  12.006
19226W        W78971  24.210   1.428   3.798
19227W        W78972  35.551   4.820   0.279
19228W        W78973   3.733   5.333  12.851
19229W        W78974  19.249  21.617  11.903
19230W        W78975  27.153  11.318   3.749
19231W        W78976  11.283  25.168  13.811
19232W        W78977  28.083  12.265  14.906
19233W        W78978  10.769  22.702  13.834
19234W        W78979  12.776  33.127   2.707
19235W        W78980  17.671  43.824  12.910
19236W        W78981   3.458  37.487   5.303
19237W        W78982  24.032  31.438  13.980
19238W        W78983  24.671  37.062   2.260
19239W        W78984   4.394  43.990   1.852
19240W        W78985   5.339  38.551   4.191
19241W        W78986   9.703  36.388   4.338
19242W        W78987   4.325  28.529  12.906
19243W        W78988  21.150   1.837  13.045
19244W        W78989  39.928  43.820  13.801
19245W        W78990  15.273  27.129  11.989
19246W        W78991  29.481  11.632   4.699
19247W        W78992  23.025  38.325   0.890
19248W        W78993  13.647  19.053   4.813
19249W        W78994   4.404  30.059   1.803
19250W        W78995  26.644  38.565   2.397
19251W        W78996  10.384  11.643  12.078
19252W        W78997   3.451  36.989   5.579
19253W        W78998  20.630  42.329   1.759
19254W        W78999  29.573   2.436  10.933
19255W        W79000  14.666  37.566  12.987
19256W        W79001   3.735  41.517   3.780
19257W        W79002  10.869  16.165  13.329
19258W        W79003   3.428  44.295   3.826
19259W        W79004   1.953  16.247  14.313
19260W        W79005  28.029  17.305  13.532
19261W        W79006  35.459  40.983   0.285
19262W        W79007   1.457  17.084   3.784
19263W        W79008   4.274  10.746   4.227
19264W        W79009   6.751  19.566  10.523
19265W        W79010  42.977  26.164   1.244
19266W        W79011  11.341   6.417  11.494
19267W        W79012  18.628  17.690  14.383
19268W        W79013  11.217  20.555  11.017
19269W        W79014  15.682  24.042   4.628
19270W        W79015  10.807   5.891   4.715
19271W        W79016  31.534   0.287  13.852
19272W        W79017  40.461  16.093   4.628
19273W        W79018  42.792  32.632   2.342
19274W        W79019  39.439  39.849  11.592
19275W        W79020  35.965  19.052  10.404
19276W        W79021  28.660  36.437   4.753
19277W        W79022  24.489  12.300   0.851
19278W        W79023  23.674  20.202  13.981
19279W        W79024  32.397  11.132  11.028
19280W        W79025   1.480  40.854  14.974
19281W        W79026  29.939   2.238  10.573
19282W        W79027  43.282  31.532   3.339
19283W        W79028   4.836   9.851  13.367
19284W        W79029  26.681   6.822   5.114
19285W        W79030  17.078  18.645   1.919
19286W        W79031  19.064   2.352  14.498
19287W        W79032  32.625  40.020   4.187
19288W        W79033  27.172  35.061   1.439
19289W        W79034  36.973  32.011  11.908
19290W        W79035  15.804   9.649  13.964
19291W        W79036   9.336  36.562   2.204
19292W        W79037  32.464  19.101   0.837
19293W        W79038  26.154  13.719  10.028
19294W        W79039  26.079  10.771  10.974
19295W        W79040  10.240  27.678  14.920
19296W        W79041  31.411   3.408  13.443
19297W        W79042  44.421  12.248  10.941
19298W        W79043   0.284  12.752   2.682
19299W        W79044  43.451  17.067   2.406
19300W        W79045  18.196   2.806  14.023
19301W        W79046  15.151  37.343   4.206
19302W        W79047  30.608  31.480  14.987
19303W        W79048  14.185  35.397   2.220
19304W        W79049  31.507  31.961   1.388
19305W        W79050  35.082  25.044  12.928
19306W        W79051  16.185   0.829   3.185
19307W        W79052  20.555   2.361  13.546
19308W        W79053  20.648  33.512  11.422
19309W        W79054  11.256  37.921   2.365
19310W        W79055  16.749  32.107  12.410
19311W        W79056  18.131  37.916   0.288
19312W        W79057  44.364  34.474  11.478
19313W        W79058  12.264  13.639   3.649
19314W        W79059  39.364  27.170  10.894
19315W        W79060   4.739   1.468  14.940
19316W        W79061   8.794  15.606   3.871
19317W        W79062  43.911  15.684   0.909
19318W        W79063   0.772  15.276  14.016
19319W        W79064  38.387  44.890  10.889
19320W        W79065   4.725  22.705   4.612
19321W        W79066  19.587  42.522   2.251
19322W        W79067  36.059  19.226   3.696
19323W        W79068  20.664   0.371  13.038
19324W        W79069  25.670  43.372  12.060
19325W        W79070   7.788  18.723   1.865
19326W        W79071  23.242  22.528  13.844
19327W        W79072  32.127   4.317  13.458
19328W        W79073  17.727   8.201  14.911
19329W        W79074  20.151   0.317   3.180
19330W        W79075   7.310   7.748   0.818
19331W        W79076  22.726   4.776  14.812
19332W        W79077  30.642  10.762   4.296
19333W        W79078  35.492  36.048  14.919
19334W        W79079  33.006  12.634  11.951
19335W        W79080  35.071  31.620  11.078
19336W        W79081   2.961   3.810   1.434
19337W        W79082  28.636  38.992  13.350
19338W        W79083  33.127  31.932   0.474
19339W        W79084  43.281  39.968   1.449
19340W        W79085  26.016  30.560  14.313
19341W        W79086  36.413  19.680  14.437
19342W        W79087  16.135   2.730  13.444
19343W        W79088   3.252  31.070  13.966
19344W        W79089  25.598   4.248  10.990
19345W        W79090   7.226   3.763   3.238
19346W        W79091  43.778  43.473   1.329
19347W        W79092  30.136  36.450   1.813
19348W        W79093  13.139  41.404   1.892
19349W        W79094   3.287  36.897   1.775
19350W        W79095   5.271  16.598   2.207
19351W        W79096  29.931   8.364   0.454
19352W        W79097   6.273  12.266  13.011
19353W        W79098  25.492  20.604  11.407
19354W        W79099  43.934  24.166  11.050
19355W        W79100  21.511  16.150   2.854
19356W        W79101  25.601  32.066   3.320
19357W        W79102  38.331  12.138   2.357
19358W        W79103  31.085  38.435  11.394
19359W        W79104  44.989  36.443   2.800
19360W        W79105   3.725  35.542  12.426
19361W        W79106  19.246  38.917  10.638
19362W        W79107  34.039   9.223  14.461
19363W        W79108  14.727  26.169  13.834
19364W        W79109  38.341  14.308   2.243
19365W        W79110  43.483  37.573  12.430
19366W        W79111  21.596   2.894   3.720
19367W        W79112  17.751   2.326  13.870
19368W        W79113  21.220  28.651  14.948
19369W        W79114   4.813  42.809   3.276
19370W        W79115  16.762  40.361   0.893
19371W        W79116  17.776  17.269   4.133
19372W        W79117  39.061  37.025   1.366
19373W        W79118  21.053  16.160   1.800
19374W        W79119   4.801  31.054   3.174
19375W        W79120  37.367  25.002   1.801
19376W        W79121  32.931   0.836  14.837
19377W        W79122   5.722  20.171   3.850
19378W        W79123  32.621  23.023  10.924
19379W        W79124  39.344  44.983  12.991
19380W        W79125  37.959  36.993  14.027
19381W        W79126   7.239  19.135  10.425
19382W        W79127  43.844  29.099  11.925
19383W        W79128  20.080  14.771  13.415
19384W        W79129   2.944   1.972  12.872
19385W        W79130  43.780  42.453   0.342
19386W        W79131  20.081  12.221  11.120
19387W        W79132  39.900  24.480  13.357
19388W        W79133   4.394  44.345  12.930
19389W        W79134  29.966  23.200   3.801
19390W        W79135  17.750  36.877  14.501
19391W        W79136  42.375  30.967  10.433
19392W        W79137  15.591  25.545   2.790
19393W        W79138   9.687  34.476  13.309
19394W        W79139  42.009  38.519  10.889
19395W        W79140  37.949  31.072   2.870
19396W        W79141  33.089  17.149   2.316
19397W        W79142  39.458  24.513   2.874
19398W        W79143  13.757  40.046   5.126
19399W        W79144  25.482  34.933  10.625
19400W        W79145  26.958  32.579  11.071
19401W        W79146   0.809  26.592  13.364
19402W        W79147  18.549  27.023  13.515
19403W        W79148  42.354  42.793   3.372
19404W        W79149  22.163  42.026  13.390
19405W        W79150  44.921  28.973   1.239
19406W        W79151  15.116  20.221  13.395
19407W        W79152  16.743  40.985  11.428
19408W        W79153  33.106   5.354   1.777
19409W        W79154   5.262  27.645   2.329
19410W        W79155  38.399  38.032   0.890
19411W        W79156  19.606  41.533  14.349
19412W        W79157  27.641  16.312  10.594
19413W        W79158   4.757  26.637   9.929
19414W        W79159   9.194  27.479  11.071
19415W        W79160  32.051  41.364   1.382
19416W        W79161  41.432  39.559   2.697
19417W        W79162   2.411  42.473   0.252
19418W        W79163  39.997  26.173  12.484
19419W        W79164  18.688  33.086   2.744
19420W        W79165  22.534   3.227   4.746
19421W        W79166  44.006  28.100   2.399
19422W        W79167  37.081  15.212   1.265
19423W        W79168  41.516  42.030   2.339
19424W        W79169  40.423  25.025   1.877
19425W        W79170  28.032  38.389  12.070
19426W        W79171  44.312  19.124   0.789
19427W        W79172   6.901  38.047   4.686
19428W        W79173  40.407  29.584   4.647
19429W        W79174  18.062  29.631  11.880
19430W        W79175  34.380  23.010  14.500
19431W        W79176  42.017   7.819  11.968
19432W        W79177  35.390  30.064  13.318
19433W        W79178   8.793  34.035  10.888
19434W        W79179   1.295   6.323   4.625
19435W        W79180  32.609  37.008   4.603
19436W        W79181  41.847  37.044   3.702
19437W        W79182  43.844  31.534  10.956
19438W        W79183   5.852   9.784   4.310
19439W        W79184   6.338  35.543   1.906
19440W        W79185  39.876  20.757  10.599
19441W        W79186   3.224   1.833   4.609
19442W        W79187  18.267  38.447  12.920
19443W        W79188   6.373  22.044   4.743
19444W        W79189  40.442  16.587  11.419
19445W        W79190   0.353  12.190   2.214
19446W        W79191   6.317  20.091   1.364
19447W        W79192  21.162  30.413   3.799
19448W        W79193   6.890  31.934  10.560
19449W        W79194  34.075  12.703   2.677
19450W        W79195   2.812   6.219  13.458
19451W        W79196   1.347  35.072   2.393
19452W        W79197  23.575   3.855   0.437
19453W        W79198  26.141  21.184   1.920
19454W        W79199   2.921  40.031   3.167
19455W        W79200  35.013  39.497   3.692
19456W        W79201  44.403  40.022   0.455
19457W        W79202  26.147  44.434  14.925
19458W        W79203  33.029  14.591  10.487
19459W        W79204  37.847  10.689   2.372
19460W        W79205   9.697  26.182  12.081
19461W        W79206  11.831  26.125   3.200
19462W        W79207  31.583  31.086  14.377
19463W        W79208  16.681  17.240   4.206
19464W        W79209   0.387   4.286  12.905
19465W        W79210  26.506  24.697  13.332
19466W        W79211  25.473  14.768   2.819
19467W        W79212  28.060   9.328  12.886
19468W        W79213  35.005  24.143  10.540
19469W        W79214   0.251   3.883   3.697
19470W        W79215  17.692   9.701  11.126
19471W        W79216  19.613   2.276  13.398
19472W        W79217  24.699  12.286   2.740
19473W        W79218  34.582  12.128   1.935
19474W        W79219   2.944  38.547   1.889
19475W        W79220   1.852  12.282   2.203
19476W        W79221  27.076  15.754  14.328
19477W        W79222  11.227  10.853   1.751
19478W        W79223  15.633  19.151   4.115
19479W        W79224   2.852   5.196   4.723
19480W        W79225  15.296  40.956  13.484
19481W        W79226  25.006  41.790   2.753
19482W        W79227   8.852   5.320   2.775
19483W        W79228  43.397   6.201   4.134
19484W        W79229  32.970   6.291  12.988
19485W        W79230  14.300  24.078  14.990
19486W        W79231  10.357   2.354   3.693
19487W        W79232  37.528  43.985  12.491
19488W        W79233   0.824  14.295   3.194
19489W        W79234  38.363  22.192   3.716
19490W        W79235  38.930  20.138   0.318
19491W        W79236  40.040  16.103   4.317
19492W        W79237  44.381  42.785   3.348
19493W        W79238  38.356  15.811  11.511
19494W        W79239  18.687  27.453  12.384
19495W        W79240  37.927  44.935  13.507
19496W        W79241  37.842   8.699   4.599
19497W        W79242  42.939  10.682   4.830
19498W        W79243  24.544  10.369  11.530
19499W        W79244  19.634  29.578  13.058
19500W        W79245   1.245   9.316  14.962
19501W        W79246  42.473  21.617   4.695
19502W        W79247   3.822  39.831  11.920
19503W        W79248  10.868  43.807   4.652
19504W        W79249  33.962  39.383  14.515
19505W        W79250   4.817  34.968   0.243
19506W        W79251  13.164  19.201  14.960
19507W        W79252  38.060  41.507  10.975
19508W        W79253  18.735  21.227   0.455
19509W        W79254  29.521  44.767   2.323
19510W        W79255   7.684  10.730   1.808
19511W        W79256  16.209  11.211   0.928
19512W        W79257  22.504  42.526   2.897
19513W        W79258   9.318  30.646   2.217
19514W        W79259  10.142   1.824   1.326
19515W        W79260  27.470  16.168  14.022
19516W        W79261  14.734  16.143   4.612
19517W        W79262  31.019  30.603  12.446
19518W        W79263   9.747   7.319  12.967
19519W        W79264   2.338   9.709  10.491
19520W        W79265  29.550  43.496   4.196
19521W        W79266  30.476  26.963   4.761
19522W        W79267  13.300  44.330  10.113
19523W        W79268  30.470  14.148  12.379
19524W        W79269  28.960  24.543   3.277
19525W        W79270  20.091  29.563   3.156
19526W        W79271   0.425  16.654  13.400
19527W        W79272  30.013   3.334   4.622
19528W        W79273   4.721  14.212   0.453
19529W        W79274  23.987   4.360  12.018
19530W        W79275  33.520  38.390   4.711
19531W        W79276   5.242  21.597   4.216
19532W        W79277  12.314  13.276   3.304
19533W        W79278  38.836  11.743  11.447
19534W        W79279  36.039  30.007  10.613
19535W        W79280   4.297   9.652   4.659
19536W        W79281  38.966  27.032   0.266
19537W        W79282  36.532  40.409  10.507
19538W        W79283   4.283  28.584   9.924
19539W        W79284  15.181  10.163  10.623
19540W        W79285  43.349  42.808   2.878
19541W        W79286  29.558  25.469  12.380
19542W        W79287   5.742   3.242   4.298
19543W        W79288  31.466  13.614   4.184
19544W        W79289  36.039  13.635  14.843
19545W        W79290  27.967  40.926  13.404
19546W        W79291  27.121   1.887   4.826
19547W        W79292  35.431   0.755  11.034
19548W        W79293  34.405  14.275   1.314
19549W        W79294  39.948  23.613  14.892
19550W        W79295  25.581  39.897  10.582
19551W        W79296  13.816  34.865  10.977
19552W        W79297  21.089  12.326   0.387
19553W        W79298  12.641  17.124   1.448
19554W        W79299  33.934  24.152  13.445
19555W        W79300  23.589  38.950  12.892
19556W        W79301   7.237  35.474  10.521
19557W        W79302  18.182  25.579  10.454
19558W        W79303  26.028  27.658   2.403
19559W        W79304  44.982   8.251  14.017
19560W        W79305   7.413  16.193  13.801
19561W        W79306  32.606  16.776  10.422
19562W        W79307   6.353   3.262  14.338
19563W        W79308   2.309  30.075   0.820
19564W        W79309  25.658   9.667  13.809
19565W        W79310  22.742   4.363  13.010
19566W        W79311  43.494   7.859  11.913
19567W        W79312  25.541  26.169  11.483
19568W        W79313  22.155  11.346  11.083
19569W        W79314  34.416  33.894   1.829
19570W        W79315  16.633   1.311   0.368
19571W        W79316   6.217  38.898  11.883
19572W        W79317  42.292  19.140   4.776
19573W        W79318   7.310  30.653   1.289
19574W        W79319  11.722  33.506  12.380
19575W        W79320  21.035  44.918  14.938
19576W        W79321  21.035  11.320  10.465
19577W        W79322  23.029  17.239   4.816
19578W        W79323  32.060   0.248  11.124
19579W        W79324  19.733  13.799   4.259
19580W        W79325   1.762  17.591   2.365
19581W        W79326  24.647  19.284  11.581
19582W        W79327  12.336   3.729   4.180
19583W        W79328  43.387  43.849  12.093
19584W        W79329  15.672  39.412   1.766
19585W        W79330   9.275  40.005   0.963
19586W        W79331  12.215   3.392   2.255
19587W        W79332  34.420  26.694   1.763
19588W        W79333   3.836   8.697   1.781
19589W        W79334   2.311  34.614   0.361
19590W        W79335  16.169  13.684   1.705
19591W        W79336  42.449  29.132   5.191
19592W        W79337  27.164  32.912  10.457
19593W        W79338   6.683  11.358   4.250
19594W        W79339  11.854  17.216   0.410
19595W        W79340   3.884  13.621   2.705
19596W        W79341  34.400  15.232  12.495
19597W        W79342  22.601  32.075  14.498
19598W        W79343  39.902  43.287   3.265
19599W        W79344   9.209  11.339   2.900
19600W        W79345  28.014  20.205   3.334
19601W        W79346  31.912   6.759   2.780
19602W        W79347  25.201   7.337   3.783
19603W        W79348  37.483  44.437   0.355
19604W        W79349  15.292  33.531   2.250
19605W        W79350  40.383   3.402  13.536
19606W        W79351   5.829  37.866   0.438
19607W        W79352   5.372  24.146   1.260
19608W        W79353   0.468   6.307  12.448
19609W        W79354   5.896   5.824   0.433
19610W        W79355  25.670  14.701  12.532
19611W        W79356  11.338  36.861   0.955
19612W        W79357  40.443  44.269   4.740
19613W        W79358  30.631  16.233   1.307
19614W        W79359   2.439  28.630   3.703
19615W        W79360  19.182   5.203  14.304
19616W        W79361   2.822  22.638   2.305
19617W        W79362  41.800  18.062   4.140
19618W        W79363  37.374  32.624  14.881
19619W        W79364  44.871  15.757   0.797
19620W        W79365   4.892  42.797   9.957
19621W        W79366  32.557  15.257  11.411
19622W        W79367  23.504  34.416  12.072
19623W        W79368  26.159  37.085  14.459
19624W        W79369  16.182   2.937  12.389
19625W        W79370  37.531  34.981  12.486
19626W        W79371   9.719  11.847  12.926
19627W        W79372   0.494  41.340  13.368
19628W        W79373  10.253  30.429   3.848
19629W        W79374  24.559   5.250  11.899
19630W        W79375   3.407  39.834  12.425
19631W        W79376   3.767   7.396  14.936
19632W        W79377  33.451  29.948  12.482
19633W        W79378  22.046  13.730  14.463
19634W        W79379  43.363  24.719  11.380
19635W        W79380  27.172  29.054  13.952
19636W        W79381  38.385  12.262  11.453
19637W        W79382  26.570   4.755   4.225
19638W        W79383  15.733  25.184   4.693
19639W        W79384  35.496  30.412   2.811
19640W        W79385  35.855  29.555  14.282
19641W        W79386   2.361  17.202   2.365
19642W        W79387   3.925   9.815  12.954
19643W        W79388   7.806  39.441  14.922
19644W        W79389  34.600  41.860  13.527
19645W        W79390  25.036   7.825   0.419
19646W        W79391  35.474   8.793   5.154
19647W        W79392  29.442  35.478  11.462
19648W        W79393  22.726   9.683   2.301
19649W        W79394  28.552  42.828  13.368
19650W        W79395  29.522  16.232   2.801
19651W        W79396   5.249  16.680  13.431
19652W        W79397   3.233  17.733  12.036
19653W        W79398  32.439  33.607  12.429
19654W        W79399  22.739  25.619  11.479
19655W        W79400  28.164  35.967   3.785
19656W        W79401  30.466  20.652   4.241
19657W        W79402  29.158  25.491   4.668
19658W        W79403  10.366  40.999  10.568
19659W        W79404  12.256   8.348  11.431
19660W        W79405  38.480  12.204  10.525
19661W        W79406  28.026  32.521  14.778
19662W        W79407  18.767  33.553   4.805
19663W        W79408  31.975  10.359  12.448
19664W        W79409  31.523  15.293   2.298
19665W        W79410   0.953   8.301   4.184
19666W        W79411   4.257  24.068   2.793
19667W        W79412   5.257  31.137   0.859
19668W        W79413  30.152  42.975   0.775
19669W        W79414   6.704  28.127   3.837
19670W        W79415  31.079  43.777   1.758
19671W        W79416  23.111  26.150  12.381
19672W        W79417  36.398  25.042   4.325
19673W        W79418  15.305  37.408  11.975
19674W        W79419  40.003  31.030  11.101
19675W        W79420  20.066  34.587  10.492
19676W        W79421  11.342  40.339  11.507
19677W        W79422  38.362  14.217   2.881
19678W        W79423  11.238   1.918  11.405
19679W        W79424  22.586  21.689  13.987
19680W        W79425  19.576  42.033  10.520
19681W        W79426  16.768  29.051  14.022
19682W        W79427   8.165  43.951   3.352
19683W        W79428   2.255  20.058  12.576
19684W        W79429   1.957  33.603  12.841
19685W        W79430  39.346  19.264  14.024
19686W        W79431  29.048  39.876   3.735
19687W        W79432  15.651  41.490   4.231
19688W        W79433  10.719   6.741  10.451
19689W        W79434  39.387  12.157  13.881
19690W        W79435  40.540   6.908   3.745
19691W        W79436   5.315  26.119   0.305
19692W        W79437  34.882  38.429   3.341
19693W        W79438  10.279  24.047   4.772
19694W        W79439   4.209  27.638   0.304
19695W        W79440  29.968   2.370   4.324
19696W        W79441  28.148  23.153  13.517
19697W        W79442  37.414  24.518   2.759
19698W        W79443  12.763  39.988   0.258
19699W        W79444  13.117  30.427  13.042
19700W        W79445  13.686  30.144  13.886
19701W        W79446  18.650  15.269   2.214
19702W        W79447  31.420  29.117  14.413
19703W        W79448  24.196  40.855  14.910
19704W        W79449  35.853  39.822   2.276
19705W        W79450  18.154  32.891  14.866
19706W        W79451  19.744   7.703  12.087
19707W        W79452  33.542  22.032   1.737
19708W        W79453  15.646  25.197  11.426
19709W        W79454  23.009  35.905  11.373
19710W        W79455  25.144  17.784   1.902
19711W        W79456  26.973   2.326   4.780
19712W        W79457  33.583  31.015  11.927
19713W        W79458  25.975  12.767   4.295
19714W        W79459  33.098   2.850   0.799
19715W        W79460  15.776  43.407  10.952
19716W        W79461  26.675  23.107  13.383
19717W        W79462  16.787  34.535   4.682
19718W        W79463   8.209  23.183   3.692
19719W        W79464  42.005  37.352  13.429
19720W        W79465  27.691  37.535   0.919
19721W        W79466   2.774  38.037   1.294
19722W        W79467  29.008  40.488   2.348
19723W        W79468  44.919  32.498   2.678
19724W        W79469   2.800  15.186   1.418
19725W        W79470  33.550  37.420   3.706
19726W        W79471   4.850  21.250   3.812
19727W        W79472  10.768   1.285   4.720
19728W        W79473  37.025   2.867  14.812
19729W        W79474  40.496   4.773   1.423
19730W        W79475  30.491   6.182  13.005
19731W        W79476  31.028  40.394  10.574
19732W        W79477  41.426  43.443  14.275
19733W        W79478  11.267  12.705   0.285
19734W        W79479  30.986  32.532  10.598
19735W        W79480  31.402  13.129   3.218
19736W        W79481   0.418  41.960   4.704
19737W        W79482  34.580   9.274  12.829
19738W        W79483   1.263  33.383   0.783
19739W        W79484  20.764  31.133   4.178
19740W        W79485  11.351  32.392   1.920
19741W        W79486  15.167  26.129   1.817
19742W        W79487  35.085   4.867  14.499
19743W        W79488  32.936  13.623  13.018
19744W        W79489  40.035  20.603   0.805
19745W        W79490  26.540  44.334   4.823
19746W        W79491  16.630  36.886  12.377
19747W        W79492   7.761  35.891   3.632
19748W        W79493  32.623  30.921   0.358
19749W        W79494  11.141  43.453   0.367
19750W        W79495   0.950   8.764   5.083
19751W        W79496  43.499   2.387   4.284
19752W        W79497  34.591   9.351   1.297
19753W        W79498   7.764  19.224   0.285
19754W        W79499   2.240  33.939  11.427
19755W        W79500  42.793  14.118  11.499
19756W        W79501  14.191  28.016  11.449
19757W        W79502  12.623  33.070  11.866
19758W        W79503  10.754  42.878   2.689
19759W        W79504  27.490  26.574  12.382
19760W        W79505  14.657  34.956   3.228
19761W        W79506  10.365   7.733   2.687
19762W        W79507  21.668  23.035  10.978
19763W        W79508  29.550  41.381  11.077
19764W        W79509  36.491   3.907   0.765
19765W        W79510   9.243  14.652   3.864
19766W        W79511  43.805   2.907  11.533
19767W        W79512  42.364  35.971  14.297
19768W        W79513  32.476   9.739   2.702
19769W        W79514   7.227  15.648   1.854
19770W        W79515   8.864   5.920  13.330
19771W        W79516   5.912  35.086  14.384
19772W        W79517  38.404  11.853  14.341
19773W        W79518  15.232  43.927   3.742
19774W        W79519  15.608   6.425  11.528
19775W        W79520  34.547  22.998  12.077
19776W        W79521  43.984  42.847  11.527
19777W        W79522   5.846   8.369  13.996
19778W        W79523  26.582   9.213  14.373
19779W        W79524  26.063  20.692   3.148
19780W        W79525  37.874  41.011  11.083
19781W        W79526   0.293   9.790  13.930
19782W        W79527   6.679   1.820  12.535
19783W        W79528  22.062   3.440  11.961
19784W        W79529  36.572  17.234  14.839
19785W        W79530  32.542  24.056   2.851
19786W        W79531   3.740   5.856  14.355
19787W        W79532  36.095   8.379  10.537
19788W        W79533  43.015   3.219   0.826
19789W        W79534  30.538   2.270  12.403
19790W        W79535  28.580  20.598  11.512
19791W        W79536   8.850  25.181  12.449
19792W        W79537  19.635  17.712   1.721
19793W        W79538   5.353  29.157   0.854
19794W        W79539  28.034  40.531   1.426
19795W        W79540  31.608  23.238   0.326
19796W        W79541  18.591  18.149   1.335
19797W        W79542  42.008  27.955  13.972
19798W        W79543  17.755  22.053  11.939
19799W        W79544   9.303  15.597  13.850
19800W        W79545  16.722  36.402   3.202
19801W        W79546  35.990  34.089  13.808
19802W        W79547   7.739  28.662  13.407
19803W        W79548   0.291  10.150   1.913
19804W        W79549  34.468  19.066   0.393
19805W        W79550  31.430  24.569  10.409
19806W        W79551  10.786  28.090   1.783
19807W        W79552   5.405  21.623  11.601
19808W        W79553  22.047  32.902   1.433
19809W        W79554  41.449  27.183   0.476
19810W        W79555  41.991  44.322   1.708
19811W        W79556   0.265  33.553  10.538
19812W        W79557  24.114  25.610  10.441
19813W        W79558  31.076  27.942   2.872
19814W        W79559  12.142  37.417   4.619
19815W        W79560   2.899  26.126  11.020
19816W        W79561  36.056  11.829  13.011
19817W        W79562  17.214   2.257   1.243
19818W        W79563  34.487  20.714   1.261
19819W        W79564  43.402  38.830   2.778
19820W        W79565  10.723  39.824  14.777
19821W        W79566  13.280  24.619  10.644
19822W        W79567  32.394  19.649  13.897
19823W        W79568  32.902  14.770  12.425
19824W        W79569  16.658  10.248   4.342
19825W        W79570  19.152  12.761   3.848
19826W        W79571  43.888  20.150   2.737
19827W        W79572   0.291  43.845  13.343
19828W        W79573  27.132  22.045  13.528
19829W        W79574  23.684  13.622  11.461
19830W        W79575  24.617  20.718  11.086
19831W        W79576   4.931  39.339   0.838
19832W        W79577  43.940  31.472   1.782
19833W        W79578   2.450  19.612   1.789
19834W        W79579  38.438  28.567  14.394
19835W        W79580  11.328   9.185  11.585
19836W        W79581   9.819   1.893   2.739
19837W        W79582  38.377   5.770   1.756
19838W        W79583  34.541  16.596  11.121
19839W        W79584  45.000  22.030   1.720
19840W        W79585  38.890  42.433  11.909
19841W        W79586  44.842  27.941   0.773
19842W        W79587  15.085  11.283   2.678
19843W        W79588   5.387  23.616  14.459
19844W        W79589  25.209   8.242  11.458
19845W        W79590  44.909  19.599   2.778
19846W        W79591  26.004   9.180   2.728
19847W        W79592  15.687  28.541  13.508
19848W        W79593  32.113  19.083   1.288
19849W        W79594  15.300  37.026  13.951
19850W        W79595  34.944  11.637   1.860
19851W        W79596  10.368   6.784  14.314
19852W        W79597   2.424  26.203  12.560
19853W        W79598   2.366   4.746  10.958
19854W        W79599   2.890   7.249  14.299
19855W        W79600   7.898  28.124  11.953
19856W        W79601  40.448  36.970  14.470
19857W        W79602  32.413  22.006   2.350
19858W        W79603  24.118  14.762  10.626
19859W        W79604  19.744   5.293   5.299
19860W        W79605  25.206  38.819   0.748
19861W        W79606  31.571  25.572   3.190
19862W        W79607  17.797  24.061   0.800
19863W        W79608  21.221  10.656   3.718
19864W        W79609  35.045  32.393   4.757
19865W        W79610  42.316  31.501  13.835
19866W        W79611  38.011   0.437   4.665
19867W        W79612   1.772  31.463  10.447
19868W        W79613  43.312  15.121  11.889
19869W        W79614   4.799   3.835   0.902
19870W        W79615  42.443  28.451  13.888
19871W        W79616   1.786  15.099  13.967
19872W        W79617   6.710   0.423  10.614
19873W        W79618  18.618  12.825  14.964
19874W        W79619  42.496  28.158   4.717
19875W        W79620  29.532  16.171  10.983
19876W        W79621  40.994  19.686  13.928
19877W        W79622  12.740  27.104  14.906
19878W        W79623  34.531  27.634  10.471
19879W        W79624   3.216  17.577   3.265
19880W        W79625  31.085  42.377  13.863
19881W        W79626  17.590  20.700   4.626
19882W        W79627  10.313  14.280  10.609
19883W        W79628  41.449  28.963  11.859
19884W        W79629  32.520  32.546  13.945
19885W        W79630  42.297   5.401   3.775
19886W        W79631   9.843  31.004  10.435
19887W        W79632  43.868  19.079   1.846
19888W        W79633  37.891  19.161   4.127
19889W        W79634  37.564   1.773  14.321
19890W        W79635  36.514  38.446   4.779
19891W        W79636  29.131  31.054  13.005
19892W        W79637   5.713  16.580  12.889
19893W        W79638  20.637  40.870   1.434
19894W        W79639  31.474  35.036   3.633
19895W        W79640  37.494   1.385  12.062
19896W        W79641  18.205  10.160   1.930
19897W        W79642  40.457  31.969  12.569
19898W        W79643  22.222  42.876  11.601
19899W        W79644  27.678  22.028   2.855
19900W        W79645  40.443  12.620   1.758
19901W        W79646  17.082  19.141  12.085
19902W        W79647   1.853  31.136  14.780
19903W        W79648   3.391   2.324  10.428
19904W        W79649  28.995  27.479   1.817
19905W        W79650  31.563  13.710   0.728
19906W        W79651  44.420  18.579  11.012
19907W        W79652   9.237  41.975  11.109
19908W        W79653  27.193  43.415   0.357
19909W        W79654   2.232  10.187   9.973
19910W        W79655  43.974  12.295   0.837
19911W        W79656  18.083   2.357   5.275
19912W        W79657  37.852  28.028  12.422
19913W        W79658  28.096  37.450   0.409
19914W        W79659  18.178  11.797   0.267
19915W        W79660  15.807  14.112   0.312
19916W        W79661  36.421  34.472   4.614
19917W        W79662  30.465  29.657  12.512
19918W        W79663   7.390  27.100   4.117
19919W        W79664   5.425  22.010  12.420
19920W        W79665   2.370  26.182   0.867
19921W        W79666  36.925  34.899  12.533
19922W        W79667  30.598  27.967  12.512
19923W        W79668  15.085  13.837  13.385
19924W        W79669   7.681  36.437  10.601
19925W        W79670  24.713  33.522   5.629
19926W        W79671  26.647  18.163   0.726
19927W        W79672  13.153   5.861  14.389
19928W        W79673  31.981  17.626  14.324
19929W        W79674  12.162   3.429   4.665
19930W        W79675  43.516   0.783  14.281
19931W        W79676  40.950  36.454  12.340
19932W        W79677  11.849  22.228  12.939
19933W        W79678  33.575  28.618   0.945
19934W        W79679  38.051  33.111   1.843
19935W        W79680  27.692  32.077   3.846
19936W        W79681  44.916   7.744   1.716
19937W        W79682  20.056  35.926   0.303
19938W        W79683  37.419  16.684  12.926
19939W        W79684   6.921   1.736   4.753
19940W        W79685  24.601  17.174   3.765
19941W        W79686  40.888   5.857   1.300
19942W        W79687  24.009  25.076  12.860
19943W        W79688  12.833   1.418  14.918
19944W        W79689  22.017  40.030   1.905
19945W        W79690  40.309  15.175  14.777
19946W        W79691  11.778  12.843   2.760
19947W        W79692  40.376   0.932  13.019
19948W        W79693  30.656  20.217   0.294
19949W        W79694  34.885  21.072  12.048
19950W        W79695  30.466  25.472  12.053
19951W        W79696   0.962   6.406  13.915
19952W        W79697  33.485   3.824   0.753
19953W        W79698  40.931  15.289   2.800
19954W        W79699   9.204  14.758   4.168
19955W        W79700  34.464  14.111   0.867
19956W        W79701  28.159  22.193  11.064
19957W        W79702   3.327   7.901   4.157
19958W        W79703  13.843   7.397   4.311
19959W        W79704  44.380  36.864   0.310
19960W        W79705   8.874  41.470   1.905
19961W        W79706  36.068  39.934   3.765
19962W        W79707  33.976   5.370   9.960
19963W        W79708  24.038   3.393  13.921
19964W        W79709  21.593   2.269  14.832
19965W        W79710  37.927  39.378   2.873
19966W        W79711  16.295   4.337  10.555
19967W        W79712  33.392   4.767   5.197
19968W        W79713  23.667  11.828   2.179
19969W        W79714   5.849  35.597  12.853
19970W        W79715   5.307  22.105   1.237
19971W        W79716  13.690  33.546   4.740
19972W        W79717  22.169   7.861  13.465
19973W        W79718  27.506   8.879  13.313
19974W        W79719  44.297  28.554  13.454
19975W        W79720  36.983  38.498   1.283
19976W        W79721  14.140  12.737  12.561
19977W        W79722  27.002  12.682  10.025
19978W        W79723  44.443  28.549   9.924
19979W        W79724   4.376  21.664   1.863
19980W        W79725  24.027  35.024   2.403
19981W        W79726  33.083   4.408  10.976
19982W        W79727  27.992  12.176  10.956
19983W        W79728  27.975  26.136   4.224
19984W        W79729  36.004  14.790   4.136
19985W        W79730  37.396  14.592   1.746
19986W        W79731   0.904  43.865  14.279
19987W        W79732  17.237  16.653  11.417
19988W        W79733  28.543  25.017  11.977
19989W        W79734   2.957  32.108  11.519
19990W        W79735  44.459  25.003   2.241
19991W        W79736  40.358   6.808   0.835
19992W        W79737  14.775   7.275   3.700
19993W        W79738   9.359  44.283   3.695
19994W        W79739   0.327  20.647  14.956
19995W        W79740  41.950   3.742   0.299
19996W        W79741  27.454  12.359   2.766
19997W        W79742   3.247  34.457   4.242
19998W        W79743  18.183  27.010   2.323
19999W        W79744  40.052  21.240   0.904
20000W        W79745   2.810   0.479   3.359
20001W        W79746  24.583  43.843   1.255
20002W        W79747  26.617  14.189   2.236
20003W        W79748  30.440  29.520  14.489
20004W        W79749  31.896  35.866   3.380
20005W        W79750  34.950  32.014   3.835
20006W        W79751  17.722  39.937   4.791
20007W        W79752  10.664  12.766  14.826
20008W        W79753  13.820  23.556   0.737
20009W        W79754  18.161   7.308   0.935
20010W        W79755  28.046  12.254  11.998
20011W        W79756   3.234  40.313   3.767
20012W        W79757  43.022  39.039   4.298
20013W        W79758  36.844  27.969   4.712
20014W        W79759  33.607  31.019  12.383
20015W        W79760  17.120   5.389   0.741
20016W        W79761  22.105  40.524  13.517
20017W        W79762  33.117  23.605   2.236
20018W        W79763  14.794  30.422  10.505
20019W        W79764  31.956  32.621  10.487
20020W        W79765  38.450  13.627   3.845
20021W        W79766  43.459  35.871   1.729
20022W        W79767  34.999  35.889  11.938
20023W        W79768  16.302  30.626  13.850
20024W        W79769  28.605   4.799   4.329
20025W        W79770  16.130  41.386  13.358
20026W        W79771  27.463  11.306  13.041
20027W        W79772  10.846  15.266  12.987
20028W        W79773  17.197  42.522   2.898
20029W        W79774  15.627  19.707   1.417
20030W        W79775   7.810  21.157  10.892
20031W        W79776   1.926  38.543   1.233
20032W        W79777  24.214   0.758   1.273
20033W        W79778   9.854   1.824  11.522
20034W        W79779   5.773   4.380  14.933
20035W        W79780  15.674  13.121  12.437
20036W        W79781  35.484  35.093   4.618
20037W        W79782  39.406  17.671  10.517
20038W        W79783  44.274  32.943   0.796
20039W        W79784  44.336  39.396   2.390
20040W        W79785  18.253  10.707  12.893
20041W        W79786  12.726  44.427  13.393
20042W        W79787   4.228  12.217   0.728
20043W        W79788  12.800  20.705  14.813
20044W        W79789  36.380  29.635   4.613
20045W        W79790  31.622  33.004   5.621
20046W        W79791  23.183  19.634  13.025
20047W        W79792  12.202  37.031   4.341
20048W        W79793  25.069  34.422  12.026
20049W        W79794  12.270  14.213   0.306
20050W        W79795   5.702  34.520   4.341
20051W        W79796  23.724  36.398   1.790
20052W        W79797  34.464  10.372   2.235
20053W        W79798  12.191  25.709  12.981
20054W        W79799   3.746  35.484   3.844
20055W        W79800  23.008  27.121   2.184
20056W        W79801  21.261  38.050  13.982
20057W        W79802   6.424  38.527  11.855
20058W        W79803  36.482  33.507  10.891
20059W        W79804  17.597  13.147   4.185
20060W        W79805  17.275  41.826  13.407
20061W        W79806  23.519  36.870  13.019
20062W        W79807  29.639  24.127   2.686
20063W        W79808  31.008   9.213   5.249
20064W        W79809  26.653  25.476   3.284
20065W        W79810  40.883  30.592  13.860
20066W        W79811  27.465  13.616   2.852
20067W        W79812  14.180  30.445  12.980
20068W        W79813  13.342   9.762  10.505
20069W        W79814  39.046  37.385   3.751
20070W        W79815  27.037   5.220   3.746
20071W        W79816  27.156   5.234  12.061
20072W        W79817  15.659  27.951   2.287
20073W        W79818  17.269  15.321  12.829
20074W        W79819   9.352  29.160  11.051
20075W        W79820   8.869  23.530  11.479
20076W        W79821  31.497  40.940  13.794
20077W        W79822  28.972   2.340  13.061
20078W        W79823  17.694   0.799  14.396
20079W        W79824  31.120  43.515  11.997
20080W        W79825  13.668  23.601  13.487
20081W        W79826   3.903  18.152   3.760
20082W        W79827   5.733  15.737  10.925
20083W        W79828  42.435  32.905   3.297
20084W        W79829  37.943  17.698  13.466
20085W        W79830  10.185  41.438  14.479
20086W        W79831  37.938  41.521   3.644
20087W        W79832  43.343   8.762   3.196
20088W        W79833  36.959  29.108  12.844
20089W        W79834   5.774  38.823   0.466
20090W        W79835   4.300  20.122  10.413
20091W        W79836  26.986  17.692   1.829
20092W        W79837  10.234  43.848   0.922
20093W        W79838  30.582   5.917  13.349
20094W        W79839  30.615   0.407  12.908
20095W        W79840  18.700  37.034  10.588
20096W        W79841  27.989   2.894   9.991
20097W        W79842  14.831   7.749   3.284
20098W        W79843  37.845  14.286  12.563
20099W        W79844  40.798  41.388  11.520
20100W        W79845  44.368  14.195   3.730
20101W        W79846  27.676   3.729  12.046
20102W        W79847  12.238  37.392  12.937
20103W        W79848  16.661   6.222  10.598
20104W        W79849  19.579  14.098   5.191
20105W        W79850  35.918  31.038   3.151
20106W        W79851  37.447   1.915  11.921
20107W        W79852   4.266  21.231   3.230
20108W        W79853  30.036   1.428   3.231
20109W        W79854  10.749  37.023   1.884
20110W        W79855  34.111  31.542  12.400
20111W        W79856   6.686  29.987   2.230
20112W        W79857  39.348  31.553  11.540
20113W        W79858  37.079  29.434  10.902
20114W        W79859  23.605  18.293  10.913
20115W        W79860   1.856  18.704   2.365
20116W        W79861   3.267  19.071   2.756
20117W        W79862  32.958  10.366   4.646
20118W        W79863  12.840  33.060  13.982
20119W        W79864  29.447   2.925  11.056
20120W        W79865  18.629  44.395  14.406
20121W        W79866  27.107   0.326   3.298
20122W        W79867  36.082  18.694   4.714
20123W        W79868  14.107  19.604  11.105
20124W        W79869   2.368   9.769   0.940
20125W        W79870  30.097  19.646   3.870
20126W        W79871  36.881  33.513   1.706
20127W        W79872  31.998  44.281  11.860
20128W        W79873  41.393  39.818  10.537
20129W        W79874  16.696  24.041   4.599
20130W        W79875   0.784  39.013  12.389
20131W        W79876   4.818   2.796   5.262
20132W        W79877  25.604  32.564  12.872
20133W        W79878  11.348  11.296   3.683
20134W        W79879  15.326  29.524   4.719
20135W        W79880  24.532  31.015  12.462
20136W        W79881   7.413  20.257   1.413
20137W        W79882  25.072   8.242   3.711
20138W        W79883  11.756  43.420   1.243
20139W        W79884  19.062  17.609  13.377
20140W        W79885  37.477  44.321   4.342
20141W        W79886  21.678   4.370  13.051
20142W        W79887   7.175  37.357  11.434
20143W        W79888  41.340  21.087   3.832
20144W        W79889  19.548  33.449  11.419
20145W        W79890  44.329  16.307   0.347
20146W        W79891   6.833  14.192  11.067
20147W        W79892  26.022  17.579   2.759
20148W        W79893  11.187  10.214   4.163
20149W        W79894  10.643  37.406   2.406
20150W        W79895  13.242  25.630  12.980
20151W        W79896  28.139  27.539  12.504
20152W        W79897   4.889  42.321   4.814
20153W        W79898  38.567  18.179  11.497
20154W        W79899   0.486  32.896  13.351
20155W        W79900  27.950   8.769  13.892
20156W        W79901  13.645  28.654   4.617
20157W        W79902  29.950  44.358  10.502
20158W        W79903   6.711   0.280  13.930
20159W        W79904  35.962  27.488  11.491
20160W        W79905  33.478   6.384  14.417
20161W        W79906  11.131  31.518  10.507
20162W        W79907  25.969   0.889  10.916
20163W        W79908  17.179  34.877   2.249
20164W        W79909  37.016  10.861  10.515
20165W        W79910  22.217  28.579   4.680
20166W        W79911   4.283  39.505  14.818
20167W        W79912  42.374  22.175   3.332
20168W        W79913  15.328  26.566   3.247
20169W        W79914   3.946   7.200  11.051
20170W        W79915  25.587  21.627  12.440
20171W        W79916  24.988   1.470   0.786
20172W        W79917  21.660   1.350  12.931
20173W        W79918  10.361  12.353   4.196
20174W        W79919  38.378  44.803   1.876
20175W        W79920  26.604  38.986   0.851
20176W        W79921   7.342  41.820   5.148
20177W        W79922  38.946   7.695   0.749
20178W        W79923  13.661  34.991  12.079
20179W        W79924  42.982   0.936  14.355
20180W        W79925   4.266   5.333   3.767
20181W        W79926   9.159  23.718  11.546
20182W        W79927  27.571  28.586  14.373
20183W        W79928  24.127  20.704   0.389
20184W        W79929  28.005  11.856  13.960
20185W        W79930  39.891  14.258   4.133
20186W        W79931  23.081   3.321   3.192
20187W        W79932  19.601  38.992   0.956
20188W        W79933   2.431   0.327  12.999
20189W        W79934  34.116  14.778  14.923
20190W        W79935  36.886  23.140  10.632
20191W        W79936  23.153  17.098   1.706
20192W        W79937   3.841  43.463   2.788
20193W        W79938  23.600   6.710  10.563
20194W        W79939  31.532  15.312  14.927
20195W        W79940  29.602   7.399   0.822
20196W        W79941  22.542  12.794   0.245
20197W        W79942   9.735  44.431   0.312
20198W        W79943  24.160  20.677  13.503
20199W        W79944   6.376  24.136  10.624
20200W        W79945  12.824   9.759   4.205
20201W        W79946  26.994  30.963  12.438
20202W        W79947  42.357   5.793   3.785
20203W        W79948   5.329  19.054  10.150
20204W        W79949   9.765  20.663  13.830
20205W        W79950  10.766  43.440   2.680
20206W        W79951  42.348  19.587   4.651
20207W        W79952  40.982  38.041   3.712
20208W        W79953  20.212  12.287  14.391
20209W        W79954  28.169  41.003  13.853
20210W        W79955  25.183   3.338   3.272
20211W        W79956  18.624   2.350   0.900
20212W        W79957  10.762   9.734   3.824
20213W        W79958   8.187   8.709   0.442
20214W        W79959  22.219  15.295  13.042
20215W        W79960  37.389  17.618   3.150
20216W        W79961  42.525  27.963   2.224
20217W        W79962   8.168   5.816   3.354
20218W        W79963  19.563   2.785  14.491
20219W        W79964   9.701  40.473   3.371
20220W        W79965  28.666  26.644   2.712
20221W        W79966  13.235   4.878  11.960
20222W        W79967  30.130  19.226  14.511
20223W        W79968   5.260   1.365  11.933
20224W        W79969   5.739  20.104  13.056
20225W        W79970  38.424  32.515   1.747
20226W        W79971   6.371  28.452   0.751
20227W        W79972  41.972  40.497  14.863
20228W        W79973  21.665  41.854  12.972
20229W        W79974  25.710  18.142  13.404
20230W        W79975   4.802  19.078  13.340
20231W        W79976  17.252  11.235  13.341
20232W        W79977  36.841   3.722  14.930
20233W        W79978  10.847  41.335   2.886
20234W        W79979  15.205  25.534  12.519
20235W        W79980  42.830   6.187   4.168
20236W        W79981  20.101  34.418  14.895
20237W        W79982  12.334   1.804   4.255
20238W        W79983   7.891   3.739   1.359
20239W        W79984  15.119   6.875   4.128
20240W        W79985  26.168  42.397   2.250
20241W        W79986  14.186  13.288   5.221
20242W        W79987  31.570  40.903   1.211
20243W        W79988   6.282  26.052   2.872
20244W        W79989  37.960   4.212  10.537
20245W        W79990  14.687  37.906  13.477
20246W        W79991  28.481  34.423  13.359
20247W        W79992   4.823  37.363   4.715
20248W        W79993  40.031  26.524  11.080
20249W        W79994  27.476  38.544   2.872
20250W        W79995  20.524  17.645  11.105
20251W        W79996   7.218  29.938  10.938
20252W        W79997  24.547  19.752   4.674
20253W        W79998   7.171  10.688  13.503
20254W        W79999  43.852  33.902   1.816
20255W        W80000   4.215  31.068   9.497
20256W        W80001  22.127  20.195  13.407
20257W        W80002  21.625  39.850  14.819
20258W        W80003   7.708  38.831   9.956
20259W        W80004  32.517  15.329   2.271
20260W        W80005  28.535  21.052  14.332
20261W        W80006  23.562  26.022   0.746
20262W        W80007  12.697  31.075   4.193
20263W        W80008  18.115  14.800   4.728
20264W        W80009  24.508   4.400   3.754
20265W        W80010  13.126  23.560  12.392
20266W        W80011  16.222  34.606  13.034
20267W        W80012  11.710  43.276   2.246
20268W        W80013  15.193  34.074   1.920
20269W        W80014  15.133  43.439   1.908
20270W        W80015  30.474  11.825  12.055
20271W        W80016  18.053  29.569  14.331
20272W        W80017  21.693  21.050   0.421
20273W        W80018  27.948  43.336  12.842
20274W        W80019  16.112  18.081   1.838
20275W        W80020  12.696   4.306   1.801
20276W        W80021  33.459  28.117  11.084
20277W        W80022  15.259  31.986   1.442
20278W        W80023  20.034  32.535   2.404
20279W        W80024  33.915  10.811   1.275
20280W        W80025   0.971   9.780  13.534
20281W        W80026  37.538  21.165   1.924
20282W        W80027  33.916   9.198  11.092
20283W        W80028   4.884   0.357   2.350
20284W        W80029  28.093  26.208  14.915
20285W        W80030  22.186  41.462  10.622
20286W        W80031  33.936   6.782   2.418
20287W        W80032  32.946   5.755  10.112
20288W        W80033   8.786   4.352   4.834
20289W        W80034  18.145  37.904  14.870
20290W        W80035  39.497  26.976  11.918
20291W        W80036  13.840   9.378   0.346
20292W        W80037  22.546  22.060  12.381
20293W        W80038  15.577  39.392  13.312
20294W        W80039  20.714  29.070  10.979
20295W        W80040   2.429  32.104   0.426
20296W        W80041  24.056   6.350   3.163
20297W        W80042  43.434   2.759   3.761
20298W        W80043  24.639   4.255  13.328
20299W        W80044   3.815  15.777  13.906
20300W        W80045  25.987  22.165   2.874
20301W        W80046  39.002   0.278  12.548
20302W        W80047  25.515  12.176   0.463
20303W        W80048  33.105  35.487   0.381
20304W        W80049  34.106  29.428  12.882
20305W        W80050   2.736  23.197   5.181
20306W        W80051  27.995  21.739   0.960
20307W        W80052  10.200  20.217  14.991
20308W        W80053  10.236  37.958   3.204
20309W        W80054  11.712  27.031   2.701
20310W        W80055  23.125   9.291   1.876
20311W        W80056  43.512  10.799  14.340
20312W        W80057  25.169  19.622   4.269
20313W        W80058  39.327  33.052   3.852
20314W        W80059  44.844  44.306   0.253
20315W        W80060  22.184  28.017  13.543
20316W        W80061   7.371  42.442   1.247
20317W        W80062  25.985  37.845  14.358
20318W        W80063  16.103   7.671  13.800
20319W        W80064  34.593  24.660  10.927
20320W        W80065  24.571  13.818  13.327
20321W        W80066  42.285  42.465   2.251
20322W        W80067  16.079  23.546   0.949
20323W        W80068  24.982  19.246   4.601
20324W        W80069   3.822   1.789  14.390
20325W        W80070  20.150  35.446   2.739
20326W        W80071  43.765  26.636  11.023
20327W        W80072   2.839  19.674  12.452
20328W        W80073  31.606   6.764   4.636
20329W        W80074  37.536   5.312   0.774
20330W        W80075   1.874  18.253  11.025
20331W        W80076  20.255  16.299   2.889
20332W        W80077   2.471  23.513   2.809
20333W        W80078  14.666  22.660   2.720
20334W        W80079   0.414  10.300  11.531
20335W        W80080  36.593  40.888   2.256
20336W        W80081  41.790   6.743   1.400
20337W        W80082  10.807  40.026  13.830
20338W        W80083  23.107   5.211  12.831
20339W        W80084  13.703  25.114   1.421
20340W        W80085  25.134  41.888  13.444
20341W        W80086  13.200   4.926   0.429
20342W        W80087  39.052  18.659   3.276
20343W        W80088  39.878  35.407   1.268
20344W        W80089   9.811  36.871   0.895
20345W        W80090   8.870  40.375   4.240
20346W        W80091  16.300  22.632   2.736
20347W        W80092  41.886  30.601   3.245
20348W        W80093  20.709  28.624   0.842
20349W        W80094  29.044   6.834  14.998
20350W        W80095  36.554  21.687  14.982
20351W        W80096   8.267  22.579   2.726
20352W        W80097  14.599  43.944  13.329
20353W        W80098  19.777  36.929   1.239
20354W        W80099  22.156  35.560  11.457
20355W        W80100  40.881  12.237  11.403
20356W        W80101  42.819   9.646  14.389
20357W        W80102   2.734  16.686  11.905
20358W        W80103  15.267  28.484  13.849
20359W        W80104  13.271  30.115   1.444
20360W        W80105  24.153  21.700   3.847
20361W        W80106  11.284  10.214   5.150
20362W        W80107  42.375  16.798  13.000
20363W        W80108   8.272   3.949   0.837
20364W        W80109  14.750  27.186   2.821
20365W        W80110  20.756  27.666  10.961
20366W        W80111   8.857  23.632   2.806
20367W        W80112  43.845  15.143   0.965
20368W        W80113   9.724  38.567  14.767
20369W        W80114  27.137  10.235   4.235
20370W        W80115  33.105  40.938   1.255
20371W        W80116  15.158  27.015   2.863
20372W        W80117  36.847  27.942  14.439
20373W        W80118   6.217   3.268  13.869
20374W        W80119  10.874  28.538  14.931
20375W        W80120  29.991   1.265  11.124
20376W        W80121  26.969   0.864  10.599
20377W        W80122  17.728  24.996  11.098
20378W        W80123   3.942  26.022   0.856
20379W        W80124  39.451   5.308   1.799
20380W        W80125  38.933  41.900   4.672
20381W        W80126   8.824  28.636   2.268
20382W        W80127  32.040  14.626  13.546
20383W        W80128   5.424  41.328   1.728
20384W        W80129  43.892   8.381   2.782
20385W        W80130  39.045  12.765  12.429
20386W        W80131  30.480  31.012   3.760
20387W        W80132  27.496  11.683   1.222
20388W        W80133  30.606  13.608  13.890
20389W        W80134  28.488  33.128   4.784
20390W        W80135   0.471  17.693  13.316
20391W        W80136  27.644  28.158  13.413
20392W        W80137  16.659  19.772  10.980
20393W        W80138  27.506  40.315  12.554
20394W        W80139  36.982  39.412  12.510
20395W        W80140   8.228   7.724  11.372
20396W        W80141  18.129  36.399   1.382
20397W        W80142  25.541  42.957   0.838
20398W        W80143  14.657  37.842  13.061
20399W        W80144  13.623   6.907  13.318
20400W        W80145  23.624   6.256  11.102
20401W        W80146  22.065  18.139  13.997
20402W        W80147  25.991  40.539   1.781
20403W        W80148  43.392  17.283  13.367
20404W        W80149  21.601  21.724  11.033
20405W        W80150   6.227   5.275  13.496
20406W        W80151  40.023   2.350  13.487
20407W        W80152  37.049  12.802  10.532
20408W        W80153  35.965  26.674   5.231
20409W        W80154  22.659  36.929   0.337
20410W        W80155  19.200  15.243   1.234
20411W        W80156  21.519   1.959   2.251
20412W        W80157  28.163  12.250   1.807
20413W        W80158  20.545  22.619   2.744
20414W        W80159  33.594   9.272  10.138
20415W        W80160  18.760  13.679   3.773
20416W        W80161   7.675  22.681  13.868
20417W        W80162  44.385  16.640  14.003
20418W        W80163  24.123   0.302   0.314
20419W        W80164  41.296  44.286   2.781
20420W        W80165  13.721   0.295   3.635
20421W        W80166  11.800  44.832  13.429
20422W        W80167  21.511  26.547   5.281
20423W        W80168  38.494  35.994  12.899
20424W        W80169   3.220   8.776   3.156
20425W        W80170  27.563  19.183  12.353
20426W        W80171  32.087   6.403   2.822
20427W        W80172  20.599   8.731  12.920
20428W        W80173  27.107  20.089  14.511
20429W        W80174  29.457  35.052   4.283
20430W        W80175  26.171   0.926  12.078
20431W        W80176  40.947  15.579  13.348
20432W        W80177  14.757   4.264   4.153
20433W        W80178  37.399  27.689   2.350
20434W        W80179  32.886  22.211   2.706
20435W        W80180  17.603  17.604  14.459
20436W        W80181  34.395  39.959   3.695
20437W        W80182  16.316  29.977   1.440
20438W        W80183  15.624  27.642   2.313
20439W        W80184  35.444  15.786   1.320
20440W        W80185  29.481  32.408   1.871
20441W        W80186  24.169  28.991  14.292
20442W        W80187  30.109  20.527   4.607
20443W        W80188   0.351  43.347  11.551
20444W        W80189  29.536  22.592  11.015
20445W        W80190  10.740  34.922  11.457
20446W        W80191  10.237  26.183  11.430
20447W        W80192  18.612  41.942  14.408
20448W        W80193  35.510   9.876   4.246
20449W        W80194  41.988  34.564  10.562
20450W        W80195  28.555  15.629  10.506
20451W        W80196  38.045  15.116  11.002
20452W        W80197  16.811  40.459  11.906
20453W        W80198  10.650  34.411  12.861
20454W        W80199  40.895  34.383  13.890
20455W        W80200  14.645   9.314   1.435
20456W        W80201   1.480   9.258  12.554
20457W        W80202  43.997  41.805  12.932
20458W        W80203  25.659  43.461  13.927
20459W        W80204  40.498  31.531   2.671
20460W        W80205  24.585  24.003   2.275
20461W        W80206  35.591  37.516   0.415
20462W        W80207   0.968  28.500   1.251
20463W        W80208  30.909  10.180  11.102
20464W        W80209  44.382   4.274  13.525
20465W        W80210  41.858  40.903   1.362
20466W        W80211  17.685   7.332   4.274
20467W        W80212  40.463  37.545  14.862
20468W        W80213  26.675  27.966   4.807
20469W        W80214  27.624  10.260  14.449
20470W        W80215   6.282  11.767   0.283
20471W        W80216  33.551  15.679   3.386
20472W        W80217  39.014  36.581  12.477
20473W        W80218   3.424  18.131   1.399
20474W        W80219  43.315  12.193  10.438
20475W        W80220  12.692  36.978  13.006
20476W        W80221  37.539  44.463   5.306
20477W        W80222  12.175   8.171  10.407
20478W        W80223  35.081  20.095  11.926
20479W        W80224  14.682  39.328  13.973
20480W        W80225  24.710  20.194  12.494
20481W        W80226  18.292  30.914   2.761
20482W        W80227  12.187  12.325  13.041
20483W        W80228  18.260  30.020  11.068
20484W        W80229  37.889  13.624  10.439
20485W        W80230   3.901  30.118  12.060
20486W        W80231   9.760  12.295  14.934
20487W        W80232  39.943   0.843   4.178
20488W        W80233  28.067  42.400   3.152
20489W        W80234  20.629  15.649  13.314
20490W        W80235  41.877  29.956   3.361
20491W        W80236  33.964  25.124  11.905
20492W        W80237   0.752  16.262  13.019
20493W        W80238  42.484  16.085  14.923
20494W        W80239   8.237  25.507   2.256
20495W        W80240   9.335  18.136   0.404
20496W        W80241  25.619  25.480   3.277
20497W        W80242  11.284  38.836   4.308
20498W        W80243  22.131  39.386   2.354
20499W        W80244  38.379  11.276  12.003
20500W        W80245  42.296  31.589  14.897
20501W        W80246  29.622  29.437   0.380
20502W        W80247  20.233  11.172   3.836
20503W        W80248   6.369  29.060   3.858
20504W        W80249  10.815   6.196  12.457
20505W        W80250   0.925   1.768  10.599
20506W        W80251   5.862  28.556   4.326
20507W        W80252  27.605   0.793   3.373
20508W        W80253   9.807  28.588   0.754
20509W        W80254  43.406  26.074   2.338
20510W        W80255   8.894  18.644   5.220
20511W        W80256  41.019  32.056   2.715
20512W        W80257  15.189  12.853  13.877
20513W        W80258   3.336  16.806   3.849
20514W        W80259  18.258  11.815   1.776
20515W        W80260  10.830  37.371   1.230
20516W        W80261   6.798  40.429  12.547
20517W        W80262  33.471  42.007   2.681
20518W        W80263   1.901  12.347   4.695
20519W        W80264  19.533  43.798  10.922
20520W        W80265  38.388  19.195  10.932
20521W        W80266  41.359  34.569  12.570
20522W        W80267  42.000   9.656  11.475
20523W        W80268  38.941  38.864   5.139
20524W        W80269  39.871  28.662  12.514
20525W        W80270  15.229  31.445  11.601
20526W        W80271  43.014   8.263  12.898
20527W        W80272  32.142  28.488   1.314
20528W        W80273  22.213   4.734   3.205
20529W        W80274  25.690  25.569  11.393
20530W        W80275   6.854  26.055  10.605
20531W        W80276   8.199  39.468  11.493
20532W        W80277  23.551  20.768   2.734
20533W        W80278  44.349  42.821  13.064
20534W        W80279  30.992  18.228   1.420
20535W        W80280  21.674  24.045   4.125
20536W        W80281  15.211  20.125  12.437
20537W        W80282  14.637   0.929   3.290
20538W        W80283  33.923  28.963  14.806
20539W        W80284  17.729  39.374  10.577
20540W        W80285  18.057  39.540   0.300
20541W        W80286  37.015  19.639  14.306
20542W        W80287  36.062   9.270   1.247
20543W        W80288  25.197   9.337  12.827
20544W        W80289  31.642  38.026   4.680
20545W        W80290  25.552  10.247  12.537
20546W        W80291  33.979   9.654  11.597
20547W        W80292  40.403  17.224  13.400
20548W        W80293  13.141  30.015   1.837
20549W        W80294   6.261  19.269  13.503
20550W        W80295  44.338  33.960   3.216
20551W        W80296  35.389   4.287   0.729
20552W        W80297  37.522  22.148  12.848
20553W        W80298  16.626  10.235   2.249
20554W        W80299  43.005  16.260   0.749
20555W        W80300  38.515  38.974   3.683
20556W        W80301  41.453  11.795   4.746
20557W        W80302   5.258  42.393  11.954
20558W        W80303   3.215  21.689   3.185
20559W        W80304  43.355  12.724   2.767
20560W        W80305  29.448   9.370   2.681
20561W        W80306  10.190  17.792   2.832
20562W        W80307  41.295  13.805   4.169
20563W        W80308  36.058  22.589  12.434
20564W        W80309  43.952  21.110   0.404
20565W        W80310   6.877  35.945   1.829
20566W        W80311  14.236   1.914  10.889
20567W        W80312   5.842  33.390  13.327
20568W        W80313  13.769  24.020  11.463
20569W        W80314  29.459  21.164   3.356
20570W        W80315  31.428   5.711  14.390
20571W        W80316  37.409  24.092  10.531
20572W        W80317  32.984  18.773  14.293
20573W        W80318  11.221   8.759  10.947
20574W        W80319  15.153  35.854   0.296
20575W        W80320  25.024  11.370  10.589
20576W        W80321  25.006  10.257  11.890
20577W        W80322  37.576  27.476   4.330
20578W        W80323  22.196  42.386  10.527
20579W        W80324   7.833   2.898   0.796
20580W        W80325  35.388  15.722  10.423
20581W        W80326   3.770  35.955   4.742
20582W        W80327  16.166  28.063   3.364
20583W        W80328  33.993  43.405   3.754
20584W        W80329  30.944  40.836   3.334
20585W        W80330  37.519  36.045  12.842
20586W        W80331  41.455  25.123  13.047
20587W        W80332   0.310   0.770  10.918
20588W        W80333  39.551  41.839  14.486
20589W        W80334  24.624  23.024  12.942
20590W        W80335  25.104   0.390   4.711
20591W        W80336  10.637   7.864   0.954
20592W        W80337  22.625  20.196  11.546
20593W        W80338  26.652  37.832  11.904
20594W        W80339  31.503  17.665   1.735
20595W        W80340   9.860  29.952   4.231
20596W        W80341  40.320   0.832   2.741
20597W        W80342  14.637  24.139  11.487
20598W        W80343  17.695   2.889   0.895
20599W        W80344  29.629  30.449  12.508
20600W        W80345  17.639   0.866  13.830
20601W        W80346  12.284  28.055  11.422
20602W        W80347  37.549  26.099  14.886
20603W        W80348  41.872  30.562   2.839
20604W        W80349  42.406  10.760  11.909
20605W        W80350  11.161  27.547   2.184
20606W        W80351  12.205  27.049   1.885
20607W        W80352  17.801   6.258  11.450
20608W        W80353  28.120  12.242   2.828
20609W        W80354  19.201  27.648  13.885
20610W        W80355  40.999   3.335   0.415
20611W        W80356  29.535   2.831   1.725
20612W        W80357  36.446  43.863   1.396
20613W        W80358   7.889   6.758   0.284
20614W        W80359  14.693  10.819   4.209
20615W        W80360  30.645  28.639  10.604
20616W        W80361  29.479  22.722  13.909
20617W        W80362  14.619   3.400   5.143
20618W        W80363  31.065  42.860  10.966
20619W        W80364   5.730  33.030   1.928
20620W        W80365  39.334  15.818   2.306
20621W        W80366  20.601  13.174   2.365
20622W        W80367  39.560  21.169   1.893
20623W        W80368  34.465  13.224  10.907
20624W        W80369  13.196  12.850   3.192
20625W        W80370  36.459   2.876  14.382
20626W        W80371  27.533  10.845   2.297
20627W        W80372  29.126  29.476  11.582
20628W        W80373  36.988  37.839   0.454
20629W        W80374  32.065   8.224   2.212
20630W        W80375   4.441  25.988  13.845
20631W        W80376  36.449  42.363  12.886
20632W        W80377  26.058   0.853  14.792
20633W        W80378   6.390  10.862   4.817
20634W        W80379  32.603  14.789   3.257
20635W        W80380   5.890  24.100  14.772
20636W        W80381  16.777  11.626  11.960
20637W        W80382   7.911  30.064   4.813
20638W        W80383  39.321  20.764   4.734
20639W        W80384  20.642  42.421   0.909
20640W        W80385  36.585   6.202  10.037
20641W        W80386  28.153  10.808  10.151
20642W        W80387   0.477  10.711  12.014
20643W        W80388  32.602   1.295   0.854
20644W        W80389  37.846   6.379   2.843
20645W        W80390  29.962  36.349   2.226
20646W        W80391  41.820   2.457  14.365
20647W        W80392  44.978  14.690   3.265
20648W        W80393  14.606   8.854   2.335
20649W        W80394  36.423  11.671   3.711
20650W        W80395  11.632  23.133   1.706
20651W        W80396  23.512  27.577  12.041
20652W        W80397  18.289  10.663  14.011
20653W        W80398  17.644  25.965   4.166
20654W        W80399  30.918  36.872   1.329
20655W        W80400  14.181  29.576   0.839
20656W        W80401  32.077  16.717  13.927
20657W        W80402   8.297  21.051   1.871
20658W        W80403  12.840  44.330  10.944
20659W        W80404  21.254  21.243  10.427
20660W        W80405  35.549  39.315  12.403
20661W        W80406  21.185  35.929  11.929
20662W        W80407  42.781  40.940  13.518
20663W        W80408  36.963  39.975   2.338
20664W        W80409  29.039  40.965   4.805
20665W        W80410  22.221  32.439   5.254
20666W        W80411  15.775  14.636   3.716
20667W        W80412   1.968  25.981  11.117
20668W        W80413   7.719  32.489  11.933
20669W        W80414  40.024   5.850  14.513
20670W        W80415  37.053  28.482   3.176
20671W        W80416  38.408  18.577  11.495
20672W        W80417   6.895  38.428   4.173
20673W        W80418  30.944   6.236  11.105
20674W        W80419  37.032   4.935  11.389
20675W        W80420  15.786   4.363   0.442
20676W        W80421   1.336  22.734  11.603
20677W        W80422   6.212  37.371  14.942
20678W        W80423  44.818   9.706   0.342
20679W        W80424  43.776  18.295   1.700
20680W        W80425  11.316  19.723   0.879
20681W        W80426  36.053   8.177   1.242
20682W        W80427  19.117   7.775  13.359
20683W        W80428  21.629  16.711   2.808
20684W        W80429  19.548  43.776   4.188
20685W        W80430   7.288   8.677   4.760
20686W        W80431   2.740  26.488   4.688
20687W        W80432  28.166  10.267  10.981
20688W        W80433   8.719  31.431   3.313
20689W        W80434   9.379  32.518   2.816
20690W        W80435  11.215  20.210  12.946
20691W        W80436  33.880   9.736   0.373
20692W        W80437  35.603  13.729   0.937
20693W        W80438   4.244  25.598  12.575
20694W        W80439   6.240  43.007   1.340
20695W        W80440  15.771  29.658   3.179
20696W        W80441  40.019  23.522  10.581
20697W        W80442   3.901  32.102   2.666
20698W        W80443  24.108   9.826  11.443
20699W        W80444  30.441  13.330   2.360
20700W        W80445  27.031  22.244   0.373
20701W        W80446  40.511   3.353  11.581
20702W        W80447   4.888  17.718   3.362
20703W        W80448  23.512  38.325  14.868
20704W        W80449  36.441  43.414  13.897
20705W        W80450   4.372  44.871   1.313
20706W        W80451  35.584  38.911   4.701
20707W        W80452  12.323  36.361   3.353
20708W        W80453  14.612  22.181  11.480
20709W        W80454  19.729  38.837  11.475
20710W        W80455  32.444  16.150  13.015
20711W        W80456  33.474  41.421   4.287
20712W        W80457   8.731  42.949  12.511
20713W        W80458  35.089  34.037   0.886
20714W        W80459  12.314  21.042   0.282
20715W        W80460   5.264  21.578   4.831
20716W        W80461  34.601   9.191  11.936
20717W        W80462  39.477  41.881   3.343
20718W        W80463  31.457   8.822  11.405
20719W        W80464  13.698  19.776  13.979
20720W        W80465  21.112  29.017   4.295
20721W        W80466  12.303  20.060  11.493
20722W        W80467  30.462  22.194   5.295
20723W        W80468  44.441  30.164  14.299
20724W        W80469  21.164  38.871  13.543
20725W        W80470  17.119  39.904  14.299
20726W        W80471  44.873   2.400  12.456
20727W        W80472  41.034  12.709  14.468
20728W        W80473  40.848  26.988   0.459
20729W        W80474  17.201  21.726  10.642
20730W        W80475  40.960  22.635   0.250
20731W        W80476  15.607  14.671  10.425
20732W        W80477  39.902  42.286  14.313
20733W        W80478  34.497  39.064   4.792
20734W        W80479  27.524  17.605  10.419
20735W        W80480  31.994   6.193   5.095
20736W        W80481  34.547  26.541  13.869
20737W        W80482   4.698  43.984  12.403
20738W        W80483  14.283  11.362  10.413
20739W        W80484  37.932  19.743   4.731
20740W        W80485  12.664  27.088   3.345
20741W        W80486  32.010  43.875  11.458
20742W        W80487  42.926  39.852  12.036
20743W        W80488  32.931  26.473  13.051
20744W        W80489  25.101  19.775   4.812
20745W        W80490  29.426  40.856   0.871
20746W        W80491   1.839   1.316  12.870
20747W        W80492  41.335   2.241   4.809
20748W        W80493  43.812  12.831   4.258
20749W        W80494  23.698  10.371  12.014
20750W        W80495   5.405  42.514  12.847
20751W        W80496  24.677  24.069  12.855
20752W        W80497  40.885  32.885  11.127
20753W        W80498  36.948  15.594   0.387
20754W        W80499  35.488  33.004   4.272
20755W        W80500  16.080   8.715   0.916
20756W        W80501  31.618  12.170  14.012
20757W        W80502  42.936  10.380  10.528
20758W        W80503  34.056  36.955  12.870
20759W        W80504   4.367  42.449  12.051
20760W        W80505  39.926  13.344  11.073
20761W        W80506  30.512  36.524  10.411
20762W        W80507  16.189  28.028  13.353
20763W        W80508  10.320  37.361  14.022
20764W        W80509  18.199  12.752  12.068
20765W        W80510  27.467  27.555  13.490
20766W        W80511  41.527  11.767  11.399
20767W        W80512  23.149  15.600   1.368
20768W        W80513  17.270  34.394   3.799
20769W        W80514  43.808  32.888   1.853
20770W        W80515   2.759  26.497  11.869
20771W        W80516   9.841   3.406   0.465
20772W        W80517   5.721   6.212  10.582
20773W        W80518  21.076   4.231   4.232
20774W        W80519  42.997  22.085   2.309
20775W        W80520  11.298  34.526  14.898
20776W        W80521  29.932  34.614   2.854
20777W        W80522  30.050  43.873   4.766
20778W        W80523  36.091  38.025   2.407
20779W        W80524  19.713  33.090  10.978
20780W        W80525  42.937  35.433   0.423
20781W        W80526  35.952  23.154  12.382
20782W        W80527  11.837  11.814   0.838
20783W        W80528   2.837   0.420  12.082
20784W        W80529  16.679   7.735  12.390
20785W        W80530  39.828  22.173  10.956
20786W        W80531  30.620  17.160   0.380
20787W        W80532  41.397  14.645   5.167
20788W        W80533  13.143  17.199  12.838
20789W        W80534  34.982  44.770   2.839
20790W        W80535  41.465  16.779   3.354
20791W        W80536   0.418  26.076   1.412
20792W        W80537  11.278   9.801   3.264
20793W        W80538  22.107   8.219   1.916
20794W        W80539  32.904  20.561  11.970
20795W        W80540  24.663  10.332  10.561
20796W        W80541   9.296   4.206   4.783
20797W        W80542  39.000  10.636  12.074
20798W        W80543   9.231   9.372   2.367
20799W        W80544   3.263  26.012  13.013
20800W        W80545   8.331  10.805   2.838
20801W        W80546  28.183  32.007  14.444
20802W        W80547  27.010   3.873  13.022
20803W        W80548  14.599  21.704  14.499
20804W        W80549  32.520  43.828  13.476
20805W        W80550  26.460  22.553  10.612
20806W        W80551   1.297  11.275   3.816
20807W        W80552  17.584  29.494   0.925
20808W        W80553  32.439  19.126   2.805
20809W        W80554   0.806  40.814   2.411
20810W        W80555  12.777  32.922  13.439
20811W        W80556  14.629  29.176   1.230
20812W        W80557  39.950  21.209   3.738
20813W        W80558  42.819  20.256   0.429
20814W        W80559  25.576  18.186   5.197
20815W        W80560  34.482   6.325  13.944
20816W        W80561  31.533  11.252  12.366
20817W        W80562  19.154  37.964  12.401
20818W        W80563  34.100  27.579  13.423
20819W        W80564  23.199   8.161   2.893
20820W        W80565  30.948  44.787  13.836
20821W        W80566  28.089  36.442   1.240
20822W        W80567  11.816  35.025   4.243
20823W        W80568  18.208  42.031  11.026
20824W        W80569  21.599  42.283   0.911
20825W        W80570  26.025  17.097   3.673
20826W        W80571  13.804  23.678   3.858
20827W        W80572  30.588  33.985   2.376
20828W        W80573  16.143   1.457   3.347
20829W        W80574   1.865  20.751   4.181
20830W        W80575  38.024   2.376   4.178
20831W        W80576  42.974  26.137   3.193
20832W        W80577  10.245   4.774  13.932
20833W        W80578  12.783  25.486  14.783
20834W        W80579  20.711   6.688  11.003
20835W        W80580   9.877  22.674   4.322
20836W        W80581  43.007  14.137   4.613
20837W        W80582  30.000   5.329  10.568
20838W        W80583   7.779  24.003   2.299
20839W        W80584  25.578  26.601  13.907
20840W        W80585  26.992  35.478   3.355
20841W        W80586  28.181  10.664  13.467
20842W        W80587  22.250  19.576   2.291
20843W        W80588  38.960  38.430   2.817
20844W        W80589   5.221  20.118   1.913
20845W        W80590  11.654  41.372   5.082
20846W        W80591   4.850  41.481   2.405
20847W        W80592  36.578  24.093   2.726
20848W        W80593  29.943  38.570  10.986
20849W        W80594  23.684  38.910   2.200
20850W        W80595  14.214  44.965  13.467
20851W        W80596  19.606  20.122  12.990
20852W        W80597   9.181  33.029  13.502
20853W        W80598  17.069  24.661   0.892
20854W        W80599  33.058  17.779   3.771
20855W        W80600  14.311   9.342  13.467
20856W        W80601  26.510   6.853   0.847
20857W        W80602  34.526   2.235  11.393
20858W        W80603  43.764  18.179   5.175
20859W        W80604  25.486   9.284   4.199
20860W        W80605  36.080  23.718   1.273
20861W        W80606  41.398  26.515   3.221
20862W        W80607   9.652  13.795  12.551
20863W        W80608  40.359  34.488  11.857
20864W        W80609   2.821  42.856   1.246
20865W        W80610   9.297   9.237   1.716
20866W        W80611  22.084  42.441  12.434
20867W        W80612  25.659  42.333  11.529
20868W        W80613  14.148  44.389   0.399
20869W        W80614  35.890  37.574  14.361
20870W        W80615  29.032  31.081  10.410
20871W        W80616  26.014  31.043   0.740
20872W        W80617  11.137   1.433   4.725
20873W        W80618  10.166  38.466  12.829
20874W        W80619  31.101  24.118   4.759
20875W        W80620   0.836  17.624   1.423
20876W        W80621  27.021  42.923   1.902
20877W        W80622  41.534   7.680   1.867
20878W        W80623  20.033  18.177  14.324
20879W        W80624   1.377  17.216   1.381
20880W        W80625  16.703   1.738   2.795
20881W        W80626  36.990  13.720   2.667
20882W        W80627   8.193  41.353   4.235
20883W        W80628  30.131   5.822   1.432
20884W        W80629  44.787  44.259   4.687
20885W        W80630  30.961  19.624   1.887
20886W        W80631  23.558   0.416  14.807
20887W        W80632   0.754  32.440   1.886
20888W        W80633   3.369  35.545  14.494
20889W        W80634  26.547  31.149  10.443
20890W        W80635  24.201   9.298  13.343
20891W        W80636  24.197  21.745  10.992
20892W        W80637  15.619   6.224   3.767
20893W        W80638  40.516  23.674   0.307
20894W        W80639   2.369   2.318   2.822
20895W        W80640  21.113  31.589  12.456
20896W        W80641  44.352  25.636   1.237
20897W        W80642  26.652  38.395  14.282
20898W        W80643  37.973  29.586   0.916
20899W        W80644   0.335   3.346   3.210
20900W        W80645  43.303  16.266   3.289
20901W        W80646  13.761   4.708  13.808
20902W        W80647  41.866  39.511   2.725
20903W        W80648  14.183   4.830  12.013
20904W        W80649  11.840  17.096  10.614
20905W        W80650   9.686   9.218  13.932
20906W        W80651   8.231  26.588   1.423
20907W        W80652  19.622   6.292   0.403
20908W        W80653   3.364  24.209   2.398
20909W        W80654  13.250   7.282   0.950
20910W        W80655  13.265  39.469  11.390
20911W        W80656  16.201  34.055   1.269
20912W        W80657  44.815  37.465  12.548
20913W        W80658   0.294  28.166  12.510
20914W        W80659  37.337  31.141   5.317
20915W        W80660  30.533  42.501  14.994
20916W        W80661   4.829  36.069   9.943
20917W        W80662  16.082  12.821   2.900
20918W        W80663  35.576  41.807  14.940
20919W        W80664  10.717  20.226  12.517
20920W        W80665  10.744  12.812  12.894
20921W        W80666  28.144  38.992   2.708
20922W        W80667  40.832  11.628  14.952
20923W        W80668   5.210  26.700   1.765
20924W        W80669   6.213  44.291  11.932
20925W        W80670  18.141   2.355   1.816
20926W        W80671  27.122  18.271   0.958
20927W        W80672  17.210   4.248  11.860
20928W        W80673  19.660   0.368   0.842
20929W        W80674   8.834  44.394   2.413
20930W        W80675  15.326  44.890   4.155
20931W        W80676  20.116  34.396   2.375
20932W        W80677  31.032  38.884  11.951
20933W        W80678  27.003  14.199   1.213
20934W        W80679  14.130  27.960  14.007
20935W        W80680  27.956  14.820   0.836
20936W        W80681   4.812  26.515  13.547
20937W        W80682  16.792  39.559   2.894
20938W        W80683  21.234   6.405  14.429
20939W        W80684  12.334  36.015   3.170
20940W        W80685  38.331  12.764  11.551
20941W        W80686  25.530  12.743  14.382
20942W        W80687  29.164  21.654  10.473
20943W        W80688   9.193  10.770   2.207
20944W        W80689  26.603  43.496   1.314
20945W        W80690   3.765  40.385   3.720
20946W        W80691  24.013   7.827   1.846
20947W        W80692  11.333  38.385  10.971
20948W        W80693  37.489   6.192  12.567
20949W        W80694  43.417  24.550  10.409
20950W        W80695  29.962  14.321  12.479
20951W        W80696  29.134  20.219   0.909
20952W        W80697  34.046   6.922  10.564
20953W        W80698  10.157  31.026  11.874
20954W        W80699  41.302  27.045   2.857
20955W        W80700  33.888  44.978   2.786
20956W        W80701  26.509  23.123   2.756
20957W        W80702   1.916  25.076   1.864
20958W        W80703  44.810  14.822  12.035
20959W        W80704  19.148   0.803   4.750
20960W        W80705  42.503   3.755   0.763
20961W        W80706   9.266  21.119  14.452
20962W        W80707  37.373  36.571  13.900
20963W        W80708  23.150  29.503  12.054
20964W        W80709  26.494  21.570  13.857
20965W        W80710  17.198  21.519   1.765
20966W        W80711   6.304  20.633  13.991
20967W        W80712  36.358  26.545   2.193
20968W        W80713  21.229   6.698   2.771
20969W        W80714  14.268   8.270   0.900
20970W        W80715  23.029  13.172  14.357
20971W        W80716  22.130  25.121  10.564
20972W        W80717  24.067  18.771  13.466
20973W        W80718  42.817  16.602  11.470
20974W        W80719  33.027  44.417  10.596
20975W        W80720  41.344  26.568  10.908
20976W        W80721  40.829  39.384  11.889
20977W        W80722  38.516  13.844  10.459
20978W        W80723  36.087   9.730   3.215
20979W        W80724  35.364  34.983   2.761
20980W        W80725  17.613  18.210   2.251
20981W        W80726  25.205   1.356   2.775
20982W        W80727  13.740   8.814  13.444
20983W        W80728  11.866  30.611  14.305
20984W        W80729  10.786   4.908   3.245
20985W        W80730  38.853  17.244  12.576
20986W        W80731  11.173  19.672   4.218
20987W        W80732  26.164   4.725  13.036
20988W        W80733  13.812  29.108  13.832
20989W        W80734  34.898  17.261   3.674
20990W        W80735  16.658   2.887   3.752
20991W        W80736  12.791  37.385  11.505
20992W        W80737  35.504   0.462   0.957
20993W        W80738  17.074  29.587   2.669
20994W        W80739   2.237   2.895  10.556
20995W        W80740  10.151  22.050   2.195
20996W        W80741  35.578   6.870   2.880
20997W        W80742  26.584  18.266   4.307
20998W        W80743   8.350   5.801   2.693
20999W        W80744   4.387  22.580   2.241
21000W        W80745  32.029  31.567  10.973
21001W        W80746   1.482  38.017  14.811
21002W        W80747  36.520  19.776   1.442
21003W        W80748  28.478  37.919   3.197
21004W        W80749  14.306  25.003   2.780
21005W        W80750  40.994  27.538   4.286
21006W        W80751  21.671  26.953   2.185
21007W        W80752  11.205   8.277   0.800
21008W        W80753  29.086  12.189  11.465
21009W        W80754  25.142  32.508  12.972
21010W        W80755  37.071  28.531  11.392
21011W        W80756  38.936   6.882   2.310
21012W        W80757  39.858  39.506   1.273
21013W        W80758  36.501  15.597   0.811
21014W        W80759  43.857  13.234   1.765
21015W        W80760  44.459  31.635   1.864
21016W        W80761  15.097  44.976   2.319
21017W        W80762  12.710  19.104   2.776
21018W        W80763  10.212  35.381   0.421
21019W        W80764   2.326  30.029   3.212
21020W        W80765  30.526   1.884   1.363
21021W        W80766  36.370  34.393  10.518
21022W        W80767  40.440  37.949   0.311
21023W        W80768  24.222   0.823  14.418
21024W        W80769  32.989   4.413  14.818
21025W        W80770  34.410   9.741   1.357
21026W        W80771   0.913   7.190  10.947
21027W        W80772  10.704  27.171   4.661
21028W        W80773  10.688  13.601   4.340
21029W        W80774   1.736  16.738  14.028
21030W        W80775  19.124  44.384  10.920
21031W        W80776  19.245  33.484  14.860
21032W        W80777   8.337  32.456   0.449
21033W        W80778  43.398  20.529  12.890
21034W        W80779  28.118  12.708   3.371
21035W        W80780  15.196  24.719   4.606
21036W        W80781  25.574   0.486   2.716
21037W        W80782  11.868  21.714   2.787
21038W        W80783  41.027  24.636  14.777
21039W        W80784  34.965  18.090   2.889
21040W        W80785  21.733  32.941   0.293
21041W        W80786  22.706   0.973  10.950
21042W        W80787  35.985  31.999   4.825
21043W        W80788  31.518   5.231   2.355
21044W        W80789  25.559   5.350   1.810
21045W        W80790  16.771  23.700   4.228
21046W        W80791  42.343  43.938  10.623
21047W        W80792   3.946  39.358   4.678
21048W        W80793  30.047  17.170   3.176
21049W        W80794   3.917  16.748  13.533
21050W        W80795  35.400  43.785   4.278
21051W        W80796  10.193  25.065   1.750
21052W        W80797  11.355  28.650  13.416
21053W        W80798  29.926  39.920  12.968
21054W        W80799   1.366  41.294   1.236
21055W        W80800  23.729  43.908   3.288
21056W        W80801  34.520  15.114  12.958
21057W        W80802  20.126  17.165  10.979
21058W        W80803  33.433  20.117   3.175
21059W        W80804   2.410  42.850  13.499
21060W        W80805  27.680  25.498   2.232
21061W        W80806  20.628  28.985   4.233
21062W        W80807  17.759  13.841   4.817
21063W        W80808   8.782  44.452  13.457
21064W        W80809   9.769  15.806   2.196
21065W        W80810   8.273  25.964   3.191
21066W        W80811  22.224  41.797  14.819
21067W        W80812  23.627  43.000   3.833
21068W        W80813   0.441  40.984   0.400
21069W        W80814  15.726  27.491  10.456
21070W        W80815   4.866  18.168   2.817
21071W        W80816  12.131  41.910   0.754
21072W        W80817  29.054  32.519  10.430
21073W        W80818  11.272  28.538  13.061
21074W        W80819  19.229  44.322  12.038
21075W        W80820   3.436  28.597   0.894
21076W        W80821   7.846  44.341   3.291
21077W        W80822   8.894  29.592  12.375
21078W        W80823  24.003   9.662  13.870
21079W        W80824   4.764  14.203  10.887
21080W        W80825  41.946  11.849   4.274
21081W        W80826  18.678  21.575  11.392
21082W        W80827  31.597  18.193   2.855
21083W        W80828  34.480  13.700   3.833
21084W        W80829  21.728  12.731   0.817
21085W        W80830  17.637  16.748   1.755
21086W        W80831   3.947  24.064   0.810
21087W        W80832  16.733   1.792   1.447
21088W        W80833   3.750  36.568  11.466
21089W        W80834  32.633   1.741   0.757
21090W        W80835  11.840  41.391   0.271
21091W        W80836  19.057  19.154  14.859
21092W        W80837  44.975  10.265   1.229
21093W        W80838  44.932  32.069  14.974
21094W        W80839   3.348  31.056   0.299
21095W        W80840  30.968  11.334   2.832
21096W        W80841   5.934  21.680   0.841
21097W        W80842  20.700   3.866  13.872
21098W        W80843  27.967  11.860   3.305
21099W        W80844  25.482  37.385  13.315
21100W        W80845  36.359  18.085   3.258
21101W        W80846  30.479   7.358  11.582
21102W        W80847  30.121  20.125  10.963
21103W        W80848  14.174  29.162   4.232
21104W        W80849   9.691  22.238  14.314
21105W        W80850   9.358  18.092   4.674
21106W        W80851  20.732  35.456   1.912
21107W        W80852  26.205   4.363   2.799
21108W        W80853   0.945  15.105   1.909
21109W        W80854   3.812  20.660  12.905
21110W        W80855  20.552  12.785   0.802
21111W        W80856  44.759   9.732   2.408
21112W        W80857   5.318  14.643   2.340
21113W        W80858  32.413  34.396  11.429
21114W        W80859   8.845  38.537  11.564
21115W        W80860  16.813   8.761   0.918
21116W        W80861  28.598  28.629   4.604
21117W        W80862  34.004  42.315   4.252
21118W        W80863  22.550  21.750   3.168
21119W        W80864  23.196  29.471  14.981
21120W        W80865  26.549  39.947  14.306
21121W        W80866  19.640  24.212  13.997
21122W        W80867  10.812  35.102   4.180
21123W        W80868  13.263   3.724   0.893
21124W        W80869  33.381  36.455   1.813
21125W        W80870   5.379   8.223  10.984
21126W        W80871  35.934   8.239  12.464
21127W        W80872   9.688   0.850  11.120
21128W        W80873  37.934  19.705  10.467
21129W        W80874  11.163  32.427   3.828
21130W        W80875  10.332  29.435   3.817
21131W        W80876  25.978  39.325  13.023
21132W        W80877  34.434  10.250  14.296
21133W        W80878  42.524  17.105  14.351
21134W        W80879   6.232  23.141   4.815
21135W        W80880   2.305  37.973   2.832
21136W        W80881  41.519  27.590   3.292
21137W        W80882  34.552  31.113  11.435
21138W        W80883  13.735   9.380  13.423
21139W        W80884  12.679  38.927   3.260
21140W        W80885   3.711  41.452  12.415
21141W        W80886  42.342  14.281   0.824
21142W        W80887  44.786  27.158  13.886
21143W        W80888  19.212  29.092  13.001
21144W        W80889  18.668  36.422   3.320
21145W        W80890  28.637  13.772   4.619
21146W        W80891  19.156  16.676   3.347
21147W        W80892   9.267  42.394   3.206
21148W        W80893  14.830   0.847  12.948
21149W        W80894  14.258  31.988   5.275
21150W        W80895  21.606  15.112  13.920
21151W        W80896  22.222  24.613   4.305
21152W        W80897  11.867  36.392  11.882
21153W        W80898  22.173   3.722   4.726
21154W        W80899  44.397   8.173   4.788
21155W        W80900  18.765  35.565  10.613
21156W        W80901  33.012  32.090  14.429
21157W        W80902  12.740  23.694  14.855
21158W        W80903  16.174  33.976  11.883
21159W        W80904   7.233  25.207   0.421
21160W        W80905  11.746  32.573   0.827
21161W        W80906  18.222  24.694   3.376
21162W        W80907   3.952  43.999   1.342
21163W        W80908  10.670  17.690   0.480
21164W        W80909   3.767   0.453  14.282
21165W        W80910  33.491   0.268   4.695
21166W        W80911  25.576  10.275  14.291
21167W        W80912  41.038  26.207  11.918
21168W        W80913   0.973   6.834   3.369
21169W        W80914   0.356  28.126  12.947
21170W        W80915  31.038  23.562   3.644
21171W        W80916   6.852  42.779  14.805
21172W        W80917   9.360  22.532   3.360
21173W        W80918  28.576  24.714  12.881
21174W        W80919  37.060  18.545   4.160
21175W        W80920  37.435   5.203  13.868
21176W        W80921  44.987  13.255   3.730
21177W        W80922  21.044   1.870  10.917
21178W        W80923  19.126  10.679   3.339
21179W        W80924  29.424  10.657  11.015
21180W        W80925  14.329  39.551  11.420
21181W        W80926  21.579  41.335   3.701
21182W        W80927  24.194   3.711  13.377
21183W        W80928   0.765  11.300  14.935
21184W        W80929   9.720  43.365  12.394
21185W        W80930   6.793  39.497  14.510
21186W        W80931   9.293  15.713   0.830
21187W        W80932  41.788  33.031  13.952
21188W        W80933  10.331   9.224  10.608
21189W        W80934  27.994  14.107   4.608
21190W        W80935   1.839  37.526  13.457
21191W        W80936   4.249  26.539   1.337
21192W        W80937  43.771  24.996   3.865
21193W        W80938  17.300  42.835   5.204
21194W        W80939  42.345  35.877  14.952
21195W        W80940  17.198  42.361  14.827
21196W        W80941  17.737  24.099  12.087
21197W        W80942  22.573   5.827  12.451
21198W        W80943   7.806  12.636  12.487
21199W        W80944  17.306  37.985   2.806
21200W        W80945  43.332  28.495   1.425
21201W        W80946   5.300  36.459   1.775
21202W        W80947  35.006  25.556   3.382
21203W        W80948  42.419  27.630   0.889
21204W        W80949   7.214  15.709  10.953
21205W        W80950   8.308  37.903   1.783
21206W        W80951   4.858   5.763  14.281
21207W        W80952   3.818   1.481   2.280
21208W        W80953  10.841  43.825   3.782
21209W        W80954  22.055  12.150   3.352
21210W        W80955  24.091   5.759   4.221
21211W        W80956  23.088  31.014  13.829
21212W        W80957  12.704  35.375   2.760
21213W        W80958  29.026  32.467   0.962
21214W        W80959  27.568  34.930   2.338
21215W        W80960  31.051  22.504   2.407
21216W        W80961  31.513  11.810  12.353
21217W        W80962   8.752  16.313  13.443
21218W        W80963   6.840  36.014   2.380
21219W        W80964  19.126   0.827  10.583
21220W        W80965  23.195  12.777   4.333
21221W        W80966  38.540  14.153   3.300
21222W        W80967   2.922  40.873  11.532
21223W        W80968  35.891  27.170   2.255
21224W        W80969  38.364  42.372   0.754
21225W        W80970  36.932  43.363   2.411
21226W        W80971  14.096  20.729  11.911
21227W        W80972  17.578  26.692  10.119
21228W        W80973  11.211  18.226  13.844
21229W        W80974  42.928  41.879  11.452
21230W        W80975  30.042  41.467   4.188
21231W        W80976  44.480  38.415  13.976
21232W        W80977  40.033  13.609  13.828
21233W        W80978   5.261  32.524   0.321
21234W        W80979  36.893  39.937   1.763
21235W        W80980  38.037  31.450  11.991
21236W        W80981  23.644  11.665  13.798
21237W        W80982  35.572   5.399   4.243
21238W        W80983  12.186  20.179  12.957
21239W        W80984  17.071   5.886  14.322
21240W        W80985  12.231  18.104   4.197
21241W        W80986  17.732  24.143  14.011
21242W        W80987  38.413  18.093  12.853
21243W        W80988  44.281   4.383  10.629
21244W        W80989  44.003   7.903  11.121
21245W        W80990  38.017  40.537  14.493
21246W        W80991  41.361  25.198   0.862
21247W        W80992  17.701   1.818   1.875
21248W        W80993  24.157  28.528  14.345
21249W        W80994   3.406  20.153  11.906
21250W        W80995   9.363  22.081  13.526
21251W        W80996   1.737  16.682  14.316
21252W        W80997   7.198  24.170   4.240
21253W        W80998  26.640  32.433   9.496
21254W        W80999   1.336  12.649   3.252
21255W        W81000   7.400  14.826   2.832
21256W        W81001  27.056   3.357  11.056
21257W        W81002  40.450  34.079  13.989
21258W        W81003  44.765  11.705  13.800
21259W        W81004   3.425  28.002  14.981
21260W        W81005  18.725  28.028  12.056
21261W        W81006   4.418   8.755  10.472
21262W        W81007  26.095  21.587   4.256
21263W        W81008   9.806  12.809  14.904
21264W        W81009  43.876   2.402  12.027
21265W        W81010  13.247   0.774   0.923
21266W        W81011  36.060  12.757   0.372
21267W        W81012  15.742  14.653   4.640
21268W        W81013  43.430   5.269   3.273
21269W        W81014  15.250  15.705  12.375
21270W        W81015  11.809   8.381  14.853
21271W        W81016  10.237  39.849   2.391
21272W        W81017  38.367   6.267  11.536
21273W        W81018   7.369  37.527   2.347
21274W        W81019  35.108  10.204   0.261
21275W        W81020   3.885  38.031  11.535
21276W        W81021   0.760  37.052   0.250
21277W        W81022  38.915  30.462  13.908
21278W        W81023  21.189  14.225   0.423
21279W        W81024   6.191  19.189   1.400
21280W        W81025  36.846  22.726   2.341
21281W        W81026  44.413  34.875   1.390
21282W        W81027   9.644   5.209  12.488
21283W        W81028   6.262  15.230   3.151
21284W        W81029  18.179  33.406   0.318
21285W        W81030  24.980  31.534  12.959
21286W        W81031  15.284  11.254  14.287
21287W        W81032  25.639  22.675  14.840
21288W        W81033  14.690  31.946   2.322
21289W        W81034  13.704  17.608   4.707
21290W        W81035  12.700  19.114   2.246
21291W        W81036   4.838  44.825   3.719
21292W        W81037  23.680  10.282  14.899
21293W        W81038  27.615  14.778   2.187
21294W        W81039  40.346  32.947   0.877
21295W        W81040  24.098  29.544   0.306
21296W        W81041   4.776   9.824   4.819
21297W        W81042  13.717  30.005   1.279
21298W        W81043   6.418  30.620  11.975
21299W        W81044   8.870   9.296  12.963
21300W        W81045  18.769  36.011  10.489
21301W        W81046  32.896  44.777  11.466
21302W        W81047  15.747   1.790  10.944
21303W        W81048  23.679  44.404  12.070
21304W        W81049  11.240   9.797  11.887
21305W        W81050   6.707  33.430   3.690
21306W        W81051  39.560   4.890   2.886
21307W        W81052   2.863  21.150  14.976
21308W        W81053  15.328   6.231   1.293
21309W        W81054  39.057  11.314  14.396
21310W        W81055  10.810  25.693  11.539
21311W        W81056   6.407   8.703  12.472
21312W        W81057  16.114  41.329   2.295
21313W        W81058  41.882  43.835  12.410
21314W        W81059  43.360  13.827  12.347
21315W        W81060  37.337  14.233  10.004
21316W        W81061  30.530  27.606  10.099
21317W        W81062  23.540  14.166  11.554
21318W        W81063  18.261  38.067   4.759
21319W        W81064  37.966  28.533  13.337
21320W        W81065   5.413  26.206   2.836
21321W        W81066  13.701  43.837  11.979
21322W        W81067  10.228  42.504  14.767
21323W        W81068  29.071  39.360  11.889
21324W        W81069  19.238  21.637   3.794
21325W        W81070   0.473  32.583   3.274
21326W        W81071   8.334  42.013   1.842
21327W        W81072  38.897  24.577  10.494
21328W        W81073  33.073   8.811   0.810
21329W        W81074  44.489  18.063  13.413
21330W        W81075  21.691  13.617   2.261
21331W        W81076  37.939  41.011   1.895
21332W        W81077  22.525  14.270   0.894
21333W        W81078  13.683  15.794   4.142
21334W        W81079  37.012   9.244   0.742
21335W        W81080   1.321   3.389   1.255
21336W        W81081  30.433  13.139  10.897
21337W        W81082  26.955  41.827   1.807
21338W        W81083   4.221  12.728   3.282
21339W        W81084  20.131  42.896  11.029
21340W        W81085   1.831  41.822   0.734
21341W        W81086  12.835  13.304  12.525
21342W        W81087  18.296  23.732  11.918
21343W        W81088  28.434  35.388   2.749
21344W        W81089  18.710   6.715   1.834
21345W        W81090  42.980  13.199   2.243
21346W        W81091  29.542  17.295   4.685
21347W        W81092  14.749  35.463  13.807
21348W        W81093  26.669   0.908   1.230
21349W        W81094  14.804  44.388  14.760
21350W        W81095  25.488  43.909  14.971
21351W        W81096  15.774  10.727  14.409
21352W        W81097   3.793  19.761  13.519
21353W        W81098  40.312  28.532   1.247
21354W        W81099  31.123   3.248   0.894
21355W        W81100  17.207   9.829  12.955
21356W        W81101  36.350  35.999   1.276
21357W        W81102  12.713  39.875   4.747
21358W        W81103   6.193   3.940   0.749
21359W        W81104  31.472  35.389   4.625
21360W        W81105  14.312  11.653  13.365
21361W        W81106  14.208  36.564   5.116
21362W        W81107  23.056  20.618  10.992
21363W        W81108  18.590  12.836   0.255
21364W        W81109   6.771  30.069  12.010
21365W        W81110   3.310   9.298   0.243
21366W        W81111  30.101  25.214   1.714
21367W        W81112  31.949  39.413  11.872
21368W        W81113  40.889  26.609  11.405
21369W        W81114  34.493   1.916  14.974
21370W        W81115   1.387  21.626  13.930
21371W        W81116  13.736  30.092  14.451
21372W        W81117   3.428  14.603   1.375
21373W        W81118  18.254  40.921  14.388
21374W        W81119  42.994  18.070  14.940
21375W        W81120  24.491  27.116   3.790
21376W        W81121   7.262  40.975  12.922
21377W        W81122  43.382  23.601   1.243
21378W        W81123  21.614   7.910  13.824
21379W        W81124  19.052  37.912  10.962
21380W        W81125  26.016  39.950  11.052
21381W        W81126   1.940  16.801  12.929
21382W        W81127  13.191   0.423   0.357
21383W        W81128  20.679  11.823   0.349
21384W        W81129  16.145  32.909   0.953
21385W        W81130  28.008  29.640  10.520
21386W        W81131   5.387  42.814  10.531
21387W        W81132  22.583  35.359   2.357
21388W        W81133  18.166  17.099   2.244
21389W        W81134  14.202   7.390   0.753
21390W        W81135  31.044   2.351   1.752
21391W        W81136  23.051  17.141  12.940
21392W        W81137  25.091  20.211  13.486
21393W        W81138  40.995  39.047   0.935
21394W        W81139  10.379  35.425  14.881
21395W        W81140  31.135  36.509   3.758
21396W        W81141  32.429   8.693  13.025
21397W        W81142   7.845  11.849   2.868
21398W        W81143  32.450  24.988  11.531
21399W        W81144  42.330  32.503  13.063
21400W        W81145  19.208  32.551   1.407
21401W        W81146  24.002  20.214  12.553
21402W        W81147  33.928  36.522   1.242
21403W        W81148  31.949  14.144  10.630
21404W        W81149  15.700   7.795  11.007
21405W        W81150  40.849  25.041  12.851
21406W        W81151  23.216  33.926   4.191
21407W        W81152  16.317  33.937  10.579
21408W        W81153  27.503  28.956  14.934
21409W        W81154  34.982  44.454  11.065
21410W        W81155  19.058  15.741  11.861
21411W        W81156  41.458   7.254  14.409
21412W        W81157  33.935  22.023  14.325
21413W        W81158  38.926   1.925   9.951
21414W        W81159  24.493  24.072   3.221
21415W        W81160  12.723  29.050  13.876
21416W        W81161  30.147  18.203   1.720
21417W        W81162  33.384  41.025   4.159
21418W        W81163  24.722  35.985   3.258
21419W        W81164  27.115  25.659   4.642
21420W        W81165  31.471   3.371   0.469
21421W        W81166  42.961  23.138   1.706
21422W        W81167  22.536  39.339  12.960
21423W        W81168  28.992  38.030  13.311
21424W        W81169  14.740   9.195   4.790
21425W        W81170  11.315  35.557   2.312
21426W        W81171  37.847  18.225   2.247
21427W        W81172   9.278  31.646  14.022
21428W        W81173  10.739  23.199   0.440
21429W        W81174   9.732  16.189   2.870
21430W        W81175  14.712  22.248  14.482
21431W        W81176   6.331  22.659  10.583
21432W        W81177  18.639  43.449  13.419
21433W        W81178  12.816   6.256   4.178
21434W        W81179  30.625   9.312   3.656
21435W        W81180   7.679  27.019   1.451
21436W        W81181  25.561  42.944   1.233
21437W        W81182  12.846  18.107   3.693
21438W        W81183  36.383  15.239  11.066
21439W        W81184  22.731  25.545   2.344
21440W        W81185   2.254  16.685   4.726
21441W        W81186  25.580   6.204   0.855
21442W        W81187  44.894  17.222  11.003
21443W        W81188  38.486  44.975  11.865
21444W        W81189  18.280   3.238  13.378
21445W        W81190  25.135  21.756  12.009
21446W        W81191   4.312   0.312  10.959
21447W        W81192   4.859  34.612  13.857
21448W        W81193  16.097   4.832   4.803
21449W        W81194  11.281   7.244  14.801
21450W        W81195  34.074   1.425  13.441
21451W        W81196  30.583  19.243   2.677
21452W        W81197  42.980  39.845   2.902
21453W        W81198   4.942  28.677   5.105
21454W        W81199   3.846   0.918   2.757
21455W        W81200  28.930  11.625  14.885
21456W        W81201   5.330  37.467   0.793
21457W        W81202   6.219  40.940  14.853
21458W        W81203  38.047  40.887   2.871
21459W        W81204  38.515  40.337   3.148
21460W        W81205  32.457   4.372   2.713
21461W        W81206   7.871  36.963  10.925
21462W        W81207  32.575  34.400   3.313
21463W        W81208  39.896   6.919  14.322
21464W        W81209  34.566  31.635   1.928
21465W        W81210  36.859  37.575  14.800
21466W        W81211  20.218  25.027  13.002
21467W        W81212  30.639  26.092  11.857
21468W        W81213  44.937  33.451   2.703
21469W        W81214   8.860   6.746   4.798
21470W        W81215  18.235   6.894   4.784
21471W        W81216  13.760   1.944  13.897
21472W        W81217  29.475  40.885  11.118
21473W        W81218  44.459  35.048   2.283
21474W        W81219  24.554  42.917  11.388
21475W        W81220  24.101  39.432   4.320
21476W        W81221  36.457  37.922  10.607
21477W        W81222   1.259  22.590   1.320
21478W        W81223   9.208  33.600  10.074
21479W        W81224  18.570  25.103   3.676
21480W        W81225  34.570  34.406   2.331
21481W        W81226   2.298  32.889   2.726
21482W        W81227  24.217  33.907   0.915
21483W        W81228  42.829  28.549  10.476
21484W        W81229   7.260   7.826   3.868
21485W        W81230  32.629  18.082  13.015
21486W        W81231  22.574  30.473   0.831
21487W        W81232   6.323  18.598   4.202
21488W        W81233  21.036  13.717   9.604
21489W        W81234  26.176  19.188   3.351
21490W        W81235  27.139   8.347  13.002
21491W        W81236   1.956  16.674   0.255
21492W        W81237  26.196  37.396  12.463
21493W        W81238  11.855  41.467  14.926
21494W        W81239   4.823  36.937   1.917
21495W        W81240  36.544   8.384  12.000
21496W        W81241  39.406  30.124   0.287
21497W        W81242   5.857  16.621  10.482
21498W        W81243  42.932  11.776   0.802
21499W        W81244  13.228  31.068   3.647
21500W        W81245  33.061   5.271  12.031
21501W        W81246  34.424  44.385  14.353
21502W        W81247  40.955  24.130   1.711
21503W        W81248  21.632   8.752  13.050
21504W        W81249  36.849  31.547  11.415
21505W        W81250  33.128  30.658  13.535
21506W        W81251  34.957  37.993  13.394
21507W        W81252  22.550  43.972   4.278
21508W        W81253  21.065  39.061   3.639
21509W        W81254   7.719   4.775  13.391
21510W        W81255   0.277  16.671   1.789
21511W        W81256   7.910  41.946   4.319
21512W        W81257  19.545  18.557  11.518
21513W        W81258  24.181  32.617   4.634
21514W        W81259   7.724  23.223  14.992
21515W        W81260   3.311   8.300   1.925
21516W        W81261  41.513  32.551  11.509
21517W        W81262  31.028   0.823   4.298
21518W        W81263   3.440  24.112  11.481
21519W        W81264  25.701  41.907  13.430
21520W        W81265  19.707  21.722  14.306
21521W        W81266   9.774  18.126   1.707
21522W        W81267  41.502  34.573   4.143
21523W        W81268  29.447  17.730  13.500
21524W        W81269   4.899  32.423  14.446
21525W        W81270   4.236  15.162   2.902
21526W        W81271  30.944   5.781   9.979
21527W        W81272  21.048  43.436   4.701
21528W        W81273  43.278   8.280   4.165
21529W        W81274  13.332  31.135  14.380
21530W        W81275  40.030  17.722  12.928
21531W        W81276  39.949  26.544   4.674
21532W        W81277  32.573  13.744  13.334
21533W        W81278  38.511   6.412   2.324
21534W        W81279  44.484  20.240  12.052
21535W        W81280  35.390  40.955  14.017
21536W        W81281  40.967  39.357   4.320
21537W        W81282  20.568  34.455   3.179
21538W        W81283  36.538  10.269  13.360
21539W        W81284  29.116   2.909  11.380
21540W        W81285  19.694   3.319  11.563
21541W        W81286   2.280   3.937   2.884
21542W        W81287  23.604  26.975   3.869
21543W        W81288  37.378  27.495  11.061
21544W        W81289  29.569  17.117   4.261
21545W        W81290  22.069  25.548  11.589
21546W        W81291   0.967   4.291  12.545
21547W        W81292   9.742  21.065   1.735
21548W        W81293  26.017  25.710  12.479
21549W        W81294  26.174  10.383  12.991
21550W        W81295  23.564   3.421   2.307
21551W        W81296  24.108   3.742   2.414
21552W        W81297  21.258  28.141   2.233
21553W        W81298  11.788  28.570   1.810
21554W        W81299  22.193   2.750   2.195
21555W        W81300  25.694   7.274   9.988
21556W        W81301  17.783  24.066  14.764
21557W        W81302  13.247  21.258   0.460
21558W        W81303   9.231  17.120  12.490
21559W        W81304   7.207  31.648   1.895
21560W        W81305  40.528  26.980   4.294
21561W        W81306  36.001  14.109  13.822
21562W        W81307  23.000  28.094   1.409
21563W        W81308  23.640  24.649  14.999
21564W        W81309   6.322  28.126  11.927
21565W        W81310  11.195  31.488   3.270
21566W        W81311  28.944   5.205   9.963
21567W        W81312  40.012   7.702  14.385
21568W        W81313  34.062  40.502  11.030
21569W        W81314  41.958  14.203   2.874
21570W        W81315  43.342  40.936   0.384
21571W        W81316  22.065  29.567  13.517
21572W        W81317  43.389  12.664  13.814
21573W        W81318  29.497  13.769  10.454
21574W        W81319   9.267  20.751   4.602
21575W        W81320  16.169  39.378  10.437
21576W        W81321  14.706  31.413  14.396
21577W        W81322  22.244  27.146  11.429
21578W        W81323  19.623  15.592  13.832
21579W        W81324   0.356  10.169  10.946
21580W        W81325  10.317  43.849   1.394
21581W        W81326  18.695  31.964  13.527
21582W        W81327  35.594  11.235   0.855
21583W        W81328  26.488   1.395   2.272
21584W        W81329  37.973  35.530   2.336
21585W        W81330  16.658   5.428   4.231
21586W        W81331  40.332   6.379   1.818
21587W        W81332  23.616   7.671   4.334
21588W        W81333  11.848  10.170   4.256
21589W        W81334  40.344  15.086   1.413
21590W        W81335  19.618  13.612  10.546
21591W        W81336  43.512   6.293  10.609
21592W        W81337  24.630   0.987  11.104
21593W        W81338  11.237   5.692  11.428
21594W        W81339  19.681  11.338   1.888
21595W        W81340   4.938   4.310   3.357
21596W        W81341  41.363  17.778  14.508
21597W        W81342  41.839   4.787   3.295
21598W        W81343  13.116  27.993   3.631
21599W        W81344  19.737  38.417   4.321
21600W        W81345  25.547  21.747   3.702
21601W        W81346  44.310  15.628   2.754
21602W        W81347  13.171  26.527   3.372
21603W        W81348   1.974   9.225  12.965
21604W        W81349  23.216   3.947   2.212
21605W        W81350   0.844  13.845   0.330
21606W        W81351   6.367  21.053  14.504
21607W        W81352  14.721  42.985  13.032
21608W        W81353  37.460  22.089   1.284
21609W        W81354   8.398  39.041  11.472
21610W        W81355  25.180  26.479   0.940
21611W        W81356  35.922   0.460  10.551
21612W        W81357  28.077  24.002   0.317
21613W        W81358  38.864   0.836  14.454
21614W        W81359  20.528  28.506   2.798
21615W        W81360  27.500  35.561  10.519
21616W        W81361  32.008  38.925   4.776
21617W        W81362  43.483  21.521   2.317
21618W        W81363  40.497  39.412   4.721
21619W        W81364  26.136   1.820   2.353
21620W        W81365  17.210  28.656   2.301
21621W        W81366   1.957   2.271  11.383
21622W        W81367   0.798  35.989   0.341
21623W        W81368  41.942  20.674  10.644
21624W        W81369  30.933  25.608  12.378
21625W        W81370  35.043  24.164  12.051
21626W        W81371  29.593  20.034  13.431
21627W        W81372  31.592  44.368   1.727
21628W        W81373  26.112  12.192  13.439
21629W        W81374   4.700  15.617   0.927
21630W        W81375  19.571  14.802   5.188
21631W        W81376  33.924  35.539  12.372
21632W        W81377  40.405  22.509  10.002
21633W        W81378  31.989  36.036   0.449
21634W        W81379  31.469  36.493   1.840
21635W        W81380  44.316   3.897   2.300
21636W        W81381  32.501  18.643   3.172
21637W        W81382  43.890   4.764   3.767
21638W        W81383  16.764  26.557  12.936
21639W        W81384  34.077   4.432  13.020
21640W        W81385  27.483  20.699  12.351
21641W        W81386   5.863  28.145   4.703
21642W        W81387   5.252   2.903   3.216
21643W        W81388  23.126  42.846   3.800
21644W        W81389   2.755   4.252  13.429
21645W        W81390  30.533  31.924  14.919
21646W        W81391  31.586  34.466   3.702
21647W        W81392  43.775  36.372   2.330
21648W        W81393   3.282  17.639   4.339
21649W        W81394  28.474  38.938   3.644
21650W        W81395  23.550  26.604   0.280
21651W        W81396  14.658  28.550  12.998
21652W        W81397  43.506  32.572   4.340
21653W        W81398  38.976  40.358  14.920
21654W        W81399  19.257  10.239  14.323
21655W        W81400  36.590  21.158  14.828
21656W        W81401  18.661  31.581  12.900
21657W        W81402  32.433  41.957  12.388
21658W        W81403  34.869  17.620  13.963
21659W        W81404  17.195  22.509  11.549
21660W        W81405  20.603   2.416  11.439
21661W        W81406  15.266  40.839  14.909
21662W        W81407  14.273  31.010  11.537
21663W        W81408  27.142  32.108  14.394
21664W        W81409  27.952  21.252   2.323
21665W        W81410  42.989  15.120  10.502
21666W        W81411   6.381  22.212  12.397
21667W        W81412   0.414  30.942   3.859
21668W        W81413  38.918  26.984   1.248
21669W        W81414  29.527   8.242  12.999
21670W        W81415   5.352  21.639   3.785
21671W        W81416   1.481  32.950   4.720
21672W        W81417   8.695  23.051   3.701
21673W        W81418  41.451  29.488  12.984
21674W        W81419  14.661  42.002  14.848
21675W        W81420  26.952  37.918  10.976
21676W        W81421   4.898  13.625  11.522
21677W        W81422   9.810  16.640   4.326
21678W        W81423  27.124   4.713  12.509
21679W        W81424  10.205  22.613   2.217
21680W        W81425  15.694   1.950   0.894
21681W        W81426  28.440  14.220  10.641
21682W        W81427   5.790  11.312   3.640
21683W        W81428  20.146  15.246  12.497
21684W        W81429  21.049   7.188  11.575
21685W        W81430  23.693  25.503  11.069
21686W        W81431  32.034  33.451   0.387
21687W        W81432   8.879  25.640  12.415
21688W        W81433  23.153  25.590  14.951
21689W        W81434  29.653  29.058   0.936
21690W        W81435  21.603  14.187  14.454
21691W        W81436   1.835  23.003   1.271
21692W        W81437  34.396   4.822   5.123
21693W        W81438  34.974  29.144  12.059
21694W        W81439  25.063  44.269  13.415
21695W        W81440  30.157  34.427  12.575
21696W        W81441  28.511  36.576   1.379
21697W        W81442  16.693  43.908   1.450
21698W        W81443   5.756   1.920   0.773
21699W        W81444   4.412  18.694  13.316
21700W        W81445  14.186  42.396   1.823
21701W        W81446  40.337  27.539   1.859
21702W        W81447  33.921  14.751  12.428
21703W        W81448  25.635  40.799   0.785
21704W        W81449  14.623  14.768   2.691
21705W        W81450  44.272  14.128  10.007
21706W        W81451  21.028  11.365  12.891
21707W        W81452  12.822  30.065  10.526
21708W        W81453  30.490  37.905  10.981
21709W        W81454  37.437  27.028  14.931
21710W        W81455  21.553  23.001  14.512
21711W        W81456  37.495   5.777  12.019
21712W        W81457   5.292  18.073   3.646
21713W        W81458  36.860  38.490  14.022
21714W        W81459   2.412  35.024   1.756
21715W        W81460  38.962  42.785  13.470
21716W        W81461  32.029  32.608   2.417
21717W        W81462  34.504  32.482   0.960
21718W        W81463  13.301  20.629   2.820
21719W        W81464  27.454  34.875   3.268
21720W        W81465   2.755  16.612  10.473
21721W        W81466  40.379  43.886   0.735
21722W        W81467  39.985   1.269  12.916
21723W        W81468   7.255  26.976   3.178
21724W        W81469  24.176  34.902   1.815
21725W        W81470  32.489  10.144  13.510
21726W        W81471  37.073  12.166  11.933
21727W        W81472  14.667  33.578   2.846
21728W        W81473  21.632  19.285  11.109
21729W        W81474  33.005   9.374   0.889
21730W        W81475  26.607  23.020  13.887
21731W        W81476  34.601  39.357  11.941
21732W        W81477  36.979  23.686  14.913
21733W        W81478  23.570  35.404  13.482
21734W        W81479  31.957  37.022   4.137
21735W        W81480  41.314   9.271  11.595
21736W        W81481   8.318  42.846  11.479
21737W        W81482  24.564  26.538  11.873
21738W        W81483  13.633   4.928   4.273
21739W        W81484  42.429  30.542   0.438
21740W        W81485  15.161   1.968  11.959
21741W        W81486   4.391  24.606  14.837
21742W        W81487  43.891   0.341   2.836
21743W        W81488   2.924   1.777   0.899
21744W        W81489  27.112   3.381  12.366
21745W        W81490   9.220  43.952   1.338
21746W        W81491  18.698  20.697  14.852
21747W        W81492  17.078  39.877  12.554
21748W        W81493  23.155   0.427   4.177
21749W        W81494  27.140  27.945  12.846
21750W        W81495  21.635  11.184   2.815
21751W        W81496  24.129  19.174  12.016
21752W        W81497   9.320   3.820   2.769
21753W        W81498  24.173   7.217  10.446
21754W        W81499  43.332  27.988   1.820
21755W        W81500  26.541  15.765  11.963
21756W        W81501  37.076  12.639  11.105
21757W        W81502   2.271  36.876   0.772
21758W        W81503  16.138  40.448   3.187
21759W        W81504  43.908   3.237   2.392
21760W        W81505  20.715   5.331   1.445
21761W        W81506  36.999   7.869   1.860
21762W        W81507  16.674  27.105  12.851
21763W        W81508  26.088  19.196   4.629
21764W        W81509  21.210   0.449  11.119
21765W        W81510   6.738  37.482   4.680
21766W        W81511  30.417   9.350   0.849
21767W        W81512   3.749  15.655   5.158
21768W        W81513  15.803  24.637   1.256
21769W        W81514   5.358  10.873  13.024
21770W        W81515  44.835  12.755  14.807
21771W        W81516  10.215  36.357   4.672
21772W        W81517   5.908  11.327   4.334
21773W        W81518  37.356   7.314  10.120
21774W        W81519  39.019  13.846  13.873
21775W        W81520  11.313  24.074   3.332
21776W        W81521  16.673   5.305   3.253
21777W        W81522  44.831  16.720  11.983
21778W        W81523  36.447  15.808  11.558
21779W        W81524  24.648   5.274   0.845
21780W        W81525  24.067  43.426   1.858
21781W        W81526   8.165  34.529  11.116
21782W        W81527  15.741  37.880  14.971
21783W        W81528  12.327  25.033  12.497
21784W        W81529  18.636  18.116   3.262
21785W        W81530  17.164  22.670  10.452
21786W        W81531  18.572  23.735  14.977
21787W        W81532  20.254   0.937  12.962
21788W        W81533  42.380  12.342   1.254
21789W        W81534  30.998  12.311  10.543
21790W        W81535   6.184  44.831  11.458
21791W        W81536  14.140  27.564  14.500
21792W        W81537  37.883  32.116   1.813
21793W        W81538  13.673  17.747  14.798
21794W        W81539  16.196   5.422   0.394
21795W        W81540  25.102  30.111   2.414
21796W        W81541   8.254  26.159  12.561
21797W        W81542   6.764  20.676   2.768
21798W        W81543  41.346   9.653   4.740
21799W        W81544  12.736   4.247   2.671
21800W        W81545   3.406  13.313  10.594
21801W        W81546  18.568  13.828  12.513
21802W        W81547  41.415  31.607  14.805
21803W        W81548  30.139  44.847  11.096
21804W        W81549   8.798  35.533   0.365
21805W        W81550  40.464   0.429  12.891
21806W        W81551  34.934   5.312   2.722
21807W        W81552  36.845  39.396   3.728
21808W        W81553  13.771  38.411  12.012
21809W        W81554  34.071  17.093  11.922
21810W        W81555  18.275  11.663   1.303
21811W        W81556  13.715  43.378  14.348
21812W        W81557  16.807  32.532  13.917
21813W        W81558   5.334  13.261  11.094
21814W        W81559  16.176  28.016  14.917
21815W        W81560  21.060  32.042   1.813
21816W        W81561  13.610  44.369  11.900
21817W        W81562  18.745   7.792   0.481
21818W        W81563  24.003  41.871   1.808
21819W        W81564   0.301  29.614   1.757
21820W        W81565  31.906   2.929   2.710
21821W        W81566  38.907  18.137  14.504
21822W        W81567  37.342  10.184  10.114
21823W        W81568  41.913  28.931   5.293
21824W        W81569   1.929   3.884   0.323
21825W        W81570  39.841  38.863   0.449
21826W        W81571   3.930  31.013  11.978
21827W        W81572  15.727  11.815  11.427
21828W        W81573  11.250  44.263   3.255
21829W        W81574  14.151   8.251  12.413
21830W        W81575   4.393   4.748   3.686
21831W        W81576  18.080  22.704  14.425
21832W        W81577  37.479   3.246  11.603
21833W        W81578   0.298  20.158   2.218
21834W        W81579  31.104  23.095  10.597
21835W        W81580  15.304  30.010   1.261
21836W        W81581  43.874   7.281   3.160
21837W        W81582  15.627  13.306   5.115
21838W        W81583  17.635  20.186  14.885
21839W        W81584  32.994  37.571  13.979
21840W        W81585  39.505  25.201   2.795
21841W        W81586  19.235  35.083   4.276
21842W        W81587  14.096  17.723  12.384
21843W        W81588  26.555  27.101   4.316
21844W        W81589  36.433  33.503   2.663
21845W        W81590  29.553  10.316  11.089
21846W        W81591   5.297  17.758  13.915
21847W        W81592  28.628  25.687   0.950
21848W        W81593  27.675  35.047  12.360
21849W        W81594   6.187  35.001  13.522
21850W        W81595  28.503  42.490   1.888
21851W        W81596  23.153   1.863  13.861
21852W        W81597  34.865  41.932   2.717
21853W        W81598  16.191   6.746   4.803
21854W        W81599   5.206  34.382  14.883
21855W        W81600  26.977  15.678   4.275
21856W        W81601   3.291  33.095  12.044
21857W        W81602  40.860  43.296   3.669
21858W        W81603   3.885  37.936  12.469
21859W        W81604  20.054   6.772   0.373
21860W        W81605  20.725  19.627  11.469
21861W        W81606  27.045   6.336   3.785
21862W        W81607  11.868   3.800   0.968
21863W        W81608  32.120   9.159  14.989
21864W        W81609  29.052  14.772   2.711
21865W        W81610  31.965   9.377   1.331
21866W        W81611   8.762  26.072  12.473
21867W        W81612  26.073   7.267  14.904
21868W        W81613  23.630  12.851  11.977
21869W        W81614  22.241  28.063  14.894
21870W        W81615   1.810   9.644   1.798
21871W        W81616  27.171  38.564  12.006
21872W        W81617   5.748   6.419   2.776
21873W        W81618   9.214   6.414   2.255
21874W        W81619  11.680  23.116  11.457
21875W        W81620  21.036  27.457   4.599
21876W        W81621  13.644  41.485   2.793
21877W        W81622  31.543  37.508   5.132
21878W        W81623   5.330  23.005   3.334
21879W        W81624   7.707  24.539   2.419
21880W        W81625  28.991  18.642  10.517
21881W        W81626  33.066  11.298   0.784
21882W        W81627  33.004  31.915  13.411
21883W        W81628   1.272  22.591  12.501
21884W        W81629  19.113   3.374  13.470
21885W        W81630   5.739   7.382   2.710
21886W        W81631  41.487  19.565   3.372
21887W        W81632  25.992  25.049   3.862
21888W        W81633  30.165   7.858   3.184
21889W        W81634  36.515  37.489   3.161
21890W        W81635  30.001   3.392  14.771
21891W        W81636  20.214  20.617   2.368
21892W        W81637   5.833  14.793  14.333
21893W        W81638  29.543  32.084  11.459
21894W        W81639  41.800  19.163   4.724
21895W        W81640   9.673   3.460   1.225
21896W        W81641  22.693  37.343   3.644
21897W        W81642  40.999  27.605   3.814
21898W        W81643  34.415  42.866   3.343
21899W        W81644  43.784   8.720   0.903
21900W        W81645  29.983   6.315  13.480
21901W        W81646   6.187  34.595  14.291
21902W        W81647  12.666  25.595  10.423
21903W        W81648   1.779  27.962   1.434
21904W        W81649   1.915  37.964   1.907
21905W        W81650  31.570   6.771  14.433
21906W        W81651  18.166  16.803  10.929
21907W        W81652  36.048  41.307  10.442
21908W        W81653  19.059  10.733  13.799
21909W        W81654  39.013  38.338  10.545
21910W        W81655   1.764  17.587   9.635
21911W        W81656   7.832  19.670  11.551
21912W        W81657   5.425  12.741   2.309
21913W        W81658  34.118  28.452  12.043
21914W        W81659  20.169  12.852   2.299
21915W        W81660  35.418  31.946   0.443
21916W        W81661  33.488  33.028  12.869
21917W        W81662  34.375   2.862  10.918
21918W        W81663  23.587  41.343   0.808
21919W        W81664   8.898  43.872   1.235
21920W        W81665  19.773  31.015  12.455
21921W        W81666  10.329  12.763   2.740
21922W        W81667   6.768  33.618  10.512
21923W        W81668  16.215  17.581  14.303
21924W        W81669  13.765  27.651  12.006
21925W        W81670  13.695   7.688   2.668
21926W        W81671  39.357  26.633   3.322
21927W        W81672   2.344   7.870  10.933
21928W        W81673  27.674  39.526   3.686
21929W        W81674  10.370  33.970   4.702
21930W        W81675  13.162  12.751   2.378
21931W        W81676  34.111  42.833   1.325
21932W        W81677   9.184  38.570   3.799
21933W        W81678  12.849  43.489  11.881
21934W        W81679  42.978  32.541   1.883
21935W        W81680  17.755  37.877   1.284
21936W        W81681   2.424   4.268  12.580
21937W        W81682   5.801  27.483   3.848
21938W        W81683  34.369  26.996  14.430
21939W        W81684   9.798   9.837   4.750
21940W        W81685  34.062  41.788   2.402
21941W        W81686  10.634  40.379   3.374
21942W        W81687   4.754  28.116   3.158
21943W        W81688  11.845  41.792  12.080
21944W        W81689  33.933   6.262  11.592
21945W        W81690  21.548  27.058  14.406
21946W        W81691  34.928  38.896   1.698
21947W        W81692  38.527  13.195   1.893
21948W        W81693   1.440  42.984  10.921
21949W        W81694  32.490  40.337   0.265
21950W        W81695   0.982   7.896   2.223
21951W        W81696  26.955  14.830  11.049
21952W        W81697  13.291   7.815  11.060
21953W        W81698   6.194   7.389  11.959
21954W        W81699  27.527   9.762   1.442
21955W        W81700  21.682  14.113  12.855
21956W        W81701  12.629  30.034   1.828
21957W        W81702  13.771   0.791   4.826
21958W        W81703   9.718   8.797  13.920
21959W        W81704  37.955   2.896  12.427
21960W        W81705   2.907  32.512  14.505
21961W        W81706  32.977  33.457  13.953
21962W        W81707   2.424   7.859  12.941
21963W        W81708  29.525  40.356   1.708
21964W        W81709  39.538  39.025  13.489
21965W        W81710  13.707   5.724  13.028
21966W        W81711   7.724   7.357  13.877
21967W        W81712   3.897  21.631   1.791
21968W        W81713  44.973  38.492   0.920
21969W        W81714   8.212   6.217   2.763
21970W        W81715  14.780  15.169  13.436
21971W        W81716  16.637  43.861   4.809
21972W        W81717   8.372  26.513   3.254
21973W        W81718  44.329  21.552   1.402
21974W        W81719  15.631   3.300  13.385
21975W        W81720  19.110  18.561   1.832
21976W        W81721  12.172  42.922   1.346
21977W        W81722  22.564   7.862   1.291
21978W        W81723  22.045  11.703   5.289
21979W        W81724   2.800  31.934  11.095
21980W        W81725  11.839  35.041   2.804
21981W        W81726  40.825  19.750   0.843
21982W        W81727   7.792   3.283  12.559
21983W        W81728   1.731  30.967  13.941
21984W        W81729  33.587  27.516  12.463
21985W        W81730   1.363  31.646   1.450
21986W        W81731  43.913  26.965   2.250
21987W        W81732  29.009   5.379   2.181
21988W        W81733  36.845  21.620   3.673
21989W        W81734   9.328  29.027  12.500
21990W        W81735  31.012  23.595   0.330
21991W        W81736  13.204   2.361   1.276
21992W        W81737  15.707  25.662   0.933
21993W        W81738  42.999  13.747   1.844
21994W        W81739  34.007   7.730  11.892
21995W        W81740  35.597   9.806   1.793
21996W        W81741  37.361  22.533  10.554
21997W        W81742  31.572  43.996  13.498
21998W        W81743  32.577  13.263   1.406
21999W        W81744  13.276  11.629   4.756
22000W        W81745  31.127  14.175   5.216
22001W        W81746  25.211  14.622   0.430
22002W        W81747  28.448  30.611   0.804
22003W        W81748  13.208  29.106  13.923
22004W        W81749  42.971  34.030   2.706
22005W        W81750  31.036   7.754   0.408
22006W        W81751  44.315  13.790  13.492
22007W        W81752  40.408  22.646   1.714
22008W        W81753   5.293   4.441   0.261
22009W        W81754  18.594   2.829   3.724
22010W        W81755   4.837  34.914   1.743
22011W        W81756   2.247  26.562  11.473
22012W        W81757  12.338  32.480  14.494
22013W        W81758  34.568  42.776   2.876
22014W        W81759   2.230  43.390   3.686
22015W        W81760  24.089  19.196  11.594
22016W        W81761  27.197  26.195   1.347
22017W        W81762   9.888  28.975   1.343
22018W        W81763  44.888  35.409  13.966
22019W        W81764  18.663  14.659   4.806
22020W        W81765  31.127  25.180  13.882
22021W        W81766  28.176  28.986  11.588
22022W        W81767  16.808  20.690  13.422
22023W        W81768  42.308  12.778  13.336
22024W        W81769  33.044   1.249   3.169
22025W        W81770  12.254  26.489  11.467
22026W        W81771   2.385   6.352   1.442
22027W        W81772  22.624  13.178  12.827
22028W        W81773  20.147  22.647   2.701
22029W        W81774   2.946  44.298   1.757
22030W        W81775  17.733  35.865   5.297
22031W        W81776  30.126  40.865  14.906
22032W        W81777  43.379  32.511  11.394
22033W        W81778  39.037   3.389   9.939
22034W        W81779   7.812  22.136   0.733
22035W        W81780   3.435   1.799   3.829
22036W        W81781   2.369  25.472  13.033
22037W        W81782  11.810   1.379   1.354
22038W        W81783  35.471   4.779  11.496
22039W        W81784  43.476  40.480  13.878
22040W        W81785  29.054  14.657  11.457
22041W        W81786   0.359  38.944   4.244
22042W        W81787  31.939  31.414  11.858
22043W        W81788  40.345   2.226  14.402
22044W        W81789  35.896  21.627   2.688
22045W        W81790  38.049  15.623   9.964
22046W        W81791  21.740  19.165   3.184
22047W        W81792  31.134  29.449  10.560
22048W        W81793   2.851  30.928   3.800
22049W        W81794  40.890  16.073  14.300
22050W        W81795   4.303  34.923   1.271
22051W        W81796   7.284  43.855   0.462
22052W        W81797  26.952  28.184  14.280
22053W        W81798  32.439  32.088  13.049
22054W        W81799   6.373  30.435  11.582
22055W        W81800  21.022  14.751   5.092
22056W        W81801   0.748  16.583   9.619
22057W        W81802  31.999  26.194   1.226
22058W        W81803  39.862   6.360   2.244
22059W        W81804  24.015  17.063   1.418
22060W        W81805  11.281  39.868   2.338
22061W        W81806  33.885   2.727  11.418
22062W        W81807  29.657   5.766  12.363
22063W        W81808  11.221  21.065   3.774
22064W        W81809  16.693  36.385   4.153
22065W        W81810  33.602  20.573  12.432
22066W        W81811  11.801  40.846   1.446
22067W        W81812  38.547   1.349  14.876
22068W        W81813   9.249  16.675  13.948
22069W        W81814   9.212   5.839  10.910
22070W        W81815  38.835  12.664  12.848
22071W        W81816   7.189   3.719  14.026
22072W        W81817  33.426  39.951  10.492
22073W        W81818  27.567  30.953   2.412
22074W        W81819  38.872  37.382  10.460
22075W        W81820   2.768   0.461   4.274
22076W        W81821  26.179  11.318  13.470
22077W        W81822   4.300   7.732  14.763
22078W        W81823  40.899  40.549  14.766
22079W        W81824  44.910   7.755   4.141
22080W        W81825  20.065  43.831  12.939
22081W        W81826   5.862  32.609  11.876
22082W        W81827  38.901  23.166  14.853
22083W        W81828  38.959  26.457   4.689
22084W        W81829  31.433  14.181  14.319
22085W        W81830   7.870  20.051  12.096
22086W        W81831  21.572  36.029  11.107
22087W        W81832   5.402  27.136   1.792
22088W        W81833  11.214  17.663  10.443
22089W        W81834  20.555  37.412  13.838
22090W        W81835  44.760  35.947  11.941
22091W        W81836   0.868  34.934   4.221
22092W        W81837  43.437  33.405   4.725
22093W        W81838  42.295   3.401  13.917
22094W        W81839  42.415  18.568  11.068
22095W        W81840  14.734  36.088   1.883
22096W        W81841  25.147  33.956  13.430
22097W        W81842  40.483  20.062   2.676
22098W        W81843   1.304  17.798   1.798
22099W        W81844  20.618   0.400  12.536
22100W        W81845  28.097  16.657   0.843
22101W        W81846  29.484   4.308  11.528
22102W        W81847  42.843   2.920   1.285
22103W        W81848  20.174   2.938   3.201
22104W        W81849  20.687  40.334   1.330
22105W        W81850  24.560   1.891   1.827
22106W        W81851   5.830   4.413   3.166
22107W        W81852  36.585   8.308   2.298
22108W        W81853  29.643  13.787  14.848
22109W        W81854  28.680   8.284  14.457
22110W        W81855   3.382  42.488   0.455
22111W        W81856  22.528  17.200   1.700
22112W        W81857  37.426  18.559   0.245
22113W        W81858   1.308  43.802  13.344
22114W        W81859   6.771  34.058  13.962
22115W        W81860  28.067  25.009   1.331
22116W        W81861  32.613  19.758   1.364
22117W        W81862  22.157  35.022   3.820
22118W        W81863  34.484   8.801   0.751
22119W        W81864   7.189  35.094  14.316
22120W        W81865  37.011   6.231  14.018
22121W        W81866  34.956  19.748   0.437
22122W        W81867  30.641  39.047  14.338
22123W        W81868  43.344  41.992   2.356
22124W        W81869   4.848  33.564   5.291
22125W        W81870  23.670  18.088   0.358
22126W        W81871   4.910   8.861   4.227
22127W        W81872   2.368   5.758  11.595
22128W        W81873  13.763  43.887  11.504
22129W        W81874  22.249  11.722   3.194
22130W        W81875  26.573   6.839  11.372
22131W        W81876  40.054  16.643  12.893
22132W        W81877  14.231   4.338   4.309
22133W        W81878  37.836  43.781   2.357
22134W        W81879  43.905   3.392   3.816
22135W        W81880  34.523  35.942  14.997
22136W        W81881   7.734  23.126  12.446
22137W        W81882  12.343  33.599   0.262
22138W        W81883   8.342  43.855  14.402
22139W        W81884  17.691  34.864   3.300
22140W        W81885   7.854  33.382  11.003
22141W        W81886   4.292  22.507  14.784
22142W        W81887  41.999   5.799  13.916
22143W        W81888   7.317   1.888   0.431
22144W        W81889  19.136  43.835   1.214
22145W        W81890   7.197  16.592  12.497
22146W        W81891   9.750   6.725  11.019
22147W        W81892  39.829  30.418   1.916
22148W        W81893  20.068  16.142  10.957
22149W        W81894   8.235  43.359   1.733
22150W        W81895  31.050  18.593  14.875
22151W        W81896   5.320  34.885  14.477
22152W        W81897  20.609  35.588  12.084
22153W        W81898  34.478  28.963  11.050
22154W        W81899  28.958  14.811   1.741
22155W        W81900  25.635  37.872   4.127
22156W        W81901  31.479   5.923  11.577
22157W        W81902  35.539  33.485   2.780
22158W        W81903  40.506  35.044  14.820
22159W        W81904  33.429   0.942  13.464
22160W        W81905   7.333  16.158   2.842
22161W        W81906   8.763  27.000   1.402
22162W        W81907  16.195   7.313  11.983
22163W        W81908  14.819   4.394   1.311
22164W        W81909  43.373   5.425  13.862
22165W        W81910  15.218   7.377   4.116
22166W        W81911  17.680  33.611  14.865
22167W        W81912  28.081  26.994  13.327
22168W        W81913  23.586  28.978   2.283
22169W        W81914  32.636  18.706   0.851
22170W        W81915  18.710   6.367   5.302
22171W        W81916  34.982  12.147  11.552
22172W        W81917  13.814  24.544   0.428
22173W        W81918  33.091  39.427  11.918
22174W        W81919  10.642  28.602  12.461
22175W        W81920  19.777  18.624   0.309
22176W        W81921  13.671  22.097   1.877
22177W        W81922  17.784  22.044   4.670
22178W        W81923  15.165  40.923   1.898
22179W        W81924  40.393  29.595  11.482
22180W        W81925  13.762  10.177  13.826
22181W        W81926  34.373  22.051  14.512
22182W        W81927  28.478   8.191  12.395
22183W        W81928  28.521   5.227  11.066
22184W        W81929  10.288  39.324   4.186
22185W        W81930  41.959  33.919   2.256
22186W        W81931  37.357  33.491   1.850
22187W        W81932  38.910  38.030  12.366
22188W        W81933  14.655  34.522  12.438
22189W        W81934   2.768   9.874   1.827
22190W        W81935  29.630  29.037  12.925
22191W        W81936  14.803  43.785   1.372
22192W        W81937  36.530  27.589   3.692
22193W        W81938  19.649  32.452   4.774
22194W        W81939  43.510  24.022  13.902
22195W        W81940  27.625  35.493   3.839
22196W        W81941  37.077  10.736  14.894
22197W        W81942  23.573  38.492  11.053
22198W        W81943  38.056  27.089   1.827
22199W        W81944  16.585  11.796  10.936
22200W        W81945  23.493   9.839   3.730
22201W        W81946  22.127   6.404  10.134
22202W        W81947  35.925   5.703  11.392
22203W        W81948  18.147  18.171  10.469
22204W        W81949  41.042   4.862   1.339
22205W        W81950   9.344   6.768   2.886
22206W        W81951  22.503  24.525  11.913
22207W        W81952  34.551   4.255   0.961
22208W        W81953  10.291  17.743  12.370
22209W        W81954  31.096  26.095   5.166
22210W        W81955  19.653  37.075   1.699
22211W        W81956  32.059  17.117   5.275
22212W        W81957  42.843  15.809  12.844
22213W        W81958  12.656  31.546  14.844
22214W        W81959  34.049  32.028  14.499
22215W        W81960  40.982   1.380   1.335
22216W        W81961  25.193  39.450   2.220
22217W        W81962  13.208  27.140  12.898
22218W        W81963  35.534  26.473   1.712
22219W        W81964   9.286  31.424   3.155
22220W        W81965  20.666  35.864   4.638
22221W        W81966  27.045  21.074  10.916
22222W        W81967  21.082  22.113  14.282
22223W        W81968  38.511  37.959  11.595
22224W        W81969   4.879  33.054  11.605
22225W        W81970  13.774  31.647   4.229
22226W        W81971  38.017  15.260   1.923
22227W        W81972  28.532  30.072   4.835
22228W        W81973   9.856   5.309   4.311
22229W        W81974  43.303  11.679  13.968
22230W        W81975  13.720  38.861   1.824
22231W        W81976   4.433  11.850   4.277
22232W        W81977   0.962  44.859   0.450
22233W        W81978  23.018  11.315   1.934
22234W        W81979  41.360  31.617  11.456
22235W        W81980   1.260  24.596  14.369
22236W        W81981  12.257  12.252  14.473
22237W        W81982  25.524   5.354   3.149
22238W        W81983  41.907  37.422   3.281
22239W        W81984  13.288  34.540   2.295
22240W        W81985  26.623   9.164   2.702
22241W        W81986  15.748  14.666   2.723
22242W        W81987  17.089  11.184   3.197
22243W        W81988   1.773   2.919   4.312
22244W        W81989  27.542   9.793  10.505
22245W        W81990  16.286  32.939   4.174
22246W        W81991  16.161  27.001   1.881
22247W        W81992  27.507  40.950  13.990
22248W        W81993  24.975  20.669   3.636
22249W        W81994  21.727  35.509   2.400
22250W        W81995  25.540  44.316  12.545
22251W        W81996  27.471  37.915   2.293
22252W        W81997   2.960  24.629  13.363
22253W        W81998   5.336   4.844   4.252
22254W        W81999  16.567  36.024  10.517
22255W        W82000   6.194  15.658  14.410
22256W        W82001  42.810  11.867  13.026
22257W        W82002  19.748  34.945   3.280
22258W        W82003  10.181  30.446  11.452
22259W        W82004  28.510  23.027   3.161
22260W        W82005   0.366   5.849  12.905
22261W        W82006  33.463   5.335  12.866
22262W        W82007   7.907  43.466   3.852
22263W        W82008  21.049  25.085  11.948
22264W        W82009  36.593   9.342   2.352
22265W        W82010  33.915  29.428   2.307
22266W        W82011   9.838  28.982   4.121
22267W        W82012  20.550   8.201   3.765
22268W        W82013  33.405  30.002   1.325
22269W        W82014  16.776  32.514   1.932
22270W        W82015   9.817  11.281  12.042
22271W        W82016   1.765  23.498   3.193
22272W        W82017  42.919  18.168   3.335
22273W        W82018  25.634  11.753  10.426
22274W        W82019  12.724  15.617   2.404
22275W        W82020  37.026  20.538   4.319
22276W        W82021  30.155  32.435   4.820
22277W        W82022   7.251  43.933   2.694
22278W        W82023  41.024   4.931  14.022
22279W        W82024  40.932  15.290  11.068
22280W        W82025  18.252   9.288  10.521
22281W        W82026  11.759  15.600   1.419
22282W        W82027   1.478   3.797  12.911
22283W        W82028  16.148  44.957  12.951
22284W        W82029  12.236   1.301  11.385
22285W        W82030  12.690  28.120  11.051
22286W        W82031  13.720   6.235   4.171
22287W        W82032   7.708  24.604  10.620
22288W        W82033  21.745   2.364  13.927
22289W        W82034  40.882  35.395   2.837
22290W        W82035  19.244  31.052   2.396
22291W        W82036  22.125  34.111  12.036
22292W        W82037  34.453  41.514  11.499
22293W        W82038  22.642  36.514   3.818
22294W        W82039  10.763  22.087   1.798
22295W        W82040  18.791  23.107   3.256
22296W        W82041  22.688   0.784   4.788
22297W        W82042  43.456  19.056  10.627
22298W        W82043  12.286  37.421   1.331
22299W        W82044  34.390   3.881  13.351
22300W        W82045   3.746   3.379  14.856
22301W        W82046  22.638   2.393   3.755
22302W        W82047  42.959  22.209   3.693
22303W        W82048  29.622  35.104   1.326
22304W        W82049  42.333  41.982  14.823
22305W        W82050  14.240   4.767   4.765
22306W        W82051  25.051  30.083  13.020
22307W        W82052   9.694   2.961  11.095
22308W        W82053  20.157  31.062  10.547
22309W        W82054  15.764  13.770   3.743
22310W        W82055  10.776  38.831  10.481
22311W        W82056  38.356  30.031  12.946
22312W        W82057  36.020  28.144   1.932
22313W        W82058  14.144   1.834  12.485
22314W        W82059   5.750  25.498  11.454
22315W        W82060  18.652  19.653   2.286
22316W        W82061  44.279  14.819  14.498
22317W        W82062  26.068  38.343  12.857
22318W        W82063  18.611  32.025   0.373
22319W        W82064  30.132   3.374  10.554
22320W        W82065  38.972  24.684  12.438
22321W        W82066  14.212  35.047   3.837
22322W        W82067  24.609  17.793  10.420
22323W        W82068  12.743  40.865   3.207
22324W        W82069  28.461  23.576  13.464
22325W        W82070  11.344  41.527  11.907
22326W        W82071  34.374  12.701   4.707
22327W        W82072  37.340  28.009   2.357
22328W        W82073  41.465  42.345  14.837
22329W        W82074  25.155  32.074   0.309
22330W        W82075  22.633   0.363   0.442
22331W        W82076  12.301  23.635  10.499
22332W        W82077  17.140   1.967   2.851
22333W        W82078  16.294   0.393  13.405
22334W        W82079  39.436   7.823  12.518
22335W        W82080  11.294  14.684   4.172
22336W        W82081  25.191  28.120   5.286
22337W        W82082  40.825  35.380  12.440
22338W        W82083  35.462  37.931   1.399
22339W        W82084   6.419  27.190   2.272
22340W        W82085  26.984  21.524  13.364
22341W        W82086  20.205  15.680  12.354
22342W        W82087   3.713  25.067   0.854
22343W        W82088  24.121  42.829   3.354
22344W        W82089  30.078   7.262   0.824
22345W        W82090   3.413  40.904   2.296
22346W        W82091  41.964  44.798   4.813
22347W        W82092  22.632  20.132   0.952
22348W        W82093  26.656  25.701   4.182
22349W        W82094  37.938  27.130   4.824
22350W        W82095  32.572  18.631  13.904
22351W        W82096  20.168  33.063  14.842
22352W        W82097  10.800  37.461   0.329
22353W        W82098  33.585  37.027   1.721
22354W        W82099  28.475  29.439   1.790
22355W        W82100  44.947   7.311   4.747
22356W        W82101  33.083  14.227  11.064
22357W        W82102  29.596   6.730   1.743
22358W        W82103  32.965  26.562  13.486
22359W        W82104  26.145  24.655  11.540
22360W        W82105  19.617   2.963  13.953
22361W        W82106  32.107   5.229   1.388
22362W        W82107  40.930  38.011   1.281
22363W        W82108  33.603  18.694  12.455
22364W        W82109  42.849   1.411   0.370
22365W        W82110  26.007  32.024  13.388
22366W        W82111  19.723   1.460   9.993
22367W        W82112  43.412  39.011  11.076
22368W        W82113  33.927  21.175  12.890
22369W        W82114  13.666  41.838   1.743
22370W        W82115   7.233  14.608  14.855
22371W        W82116   6.905   1.320   4.349
22372W        W82117   9.274  25.068  14.341
22373W        W82118   9.167   3.937  14.345
22374W        W82119  20.119  19.169  10.944
22375W        W82120  27.114   8.230  12.017
22376W        W82121  37.380  38.409  14.903
22377W        W82122   4.840   4.352   4.230
22378W        W82123  30.553  15.716  11.876
22379W        W82124   2.319  40.967   2.288
22380W        W82125   7.705   7.217   5.185
22381W        W82126  18.744  15.819  10.126
22382W        W82127  25.068  19.080   0.465
22383W        W82128   0.330  15.122   0.393
22384W        W82129  27.538  43.830   2.360
22385W        W82130  22.534  40.869  13.423
22386W        W82131  39.515  10.166  13.947
22387W        W82132   0.358  18.638   3.845
22388W        W82133  35.484  43.284   2.207
22389W        W82134  39.860  40.427   4.310
22390W        W82135  44.432  15.193   4.774
22391W        W82136  24.526   2.358  11.924
22392W        W82137  41.815  15.259   0.474
22393W        W82138  17.689  30.504  11.529
22394W        W82139  32.502  24.111  10.009
22395W        W82140  32.528   6.789  12.469
22396W        W82141  38.047   7.215   0.750
22397W        W82142   9.813  14.655  13.969
22398W        W82143  44.759  10.821   0.756
22399W        W82144  12.339  30.618  14.404
22400W        W82145  32.637   8.209  13.957
22401W        W82146  17.180  33.976   0.314
22402W        W82147   1.840  32.013  14.289
22403W        W82148  21.144  44.295   1.923
22404W        W82149  27.574  28.987  12.560
22405W        W82150  22.225   0.261  13.337
22406W        W82151  21.196  17.730   1.837
22407W        W82152   9.859  40.377  12.385
22408W        W82153  13.727  24.146  10.610
22409W        W82154  44.871  25.595   3.296
22410W        W82155  42.805  28.495   3.146
22411W        W82156  10.280  32.939   2.384
22412W        W82157   7.293  16.617  13.806
22413W        W82158   0.808  25.007  14.414
22414W        W82159  18.288  40.454  11.551
22415W        W82160  21.544  19.050  14.413
22416W        W82161   9.695  33.996  12.573
22417W        W82162  30.039  33.410  13.345
22418W        W82163  15.742  25.188   4.200
22419W        W82164  28.608  15.734   4.254
22420W        W82165   9.317  11.304  13.021
22421W        W82166  36.589  21.172   1.705
22422W        W82167  11.168  31.611  14.991
22423W        W82168  13.323  14.100   0.751
22424W        W82169  24.548  28.476   2.883
22425W        W82170  18.174   7.363   2.684
22426W        W82171  44.917  18.742   0.264
22427W        W82172  37.020   6.304   1.801
22428W        W82173  19.632  29.525  14.011
22429W        W82174  31.502  43.504   1.882
22430W        W82175   0.302  24.487  14.894
22431W        W82176  19.589  30.983  14.355
22432W        W82177   3.732  41.335   1.869
22433W        W82178  13.154  27.999  13.040
22434W        W82179  36.363  25.007   2.767
22435W        W82180   0.351  28.127  14.004
22436W        W82181  16.584  15.705   1.397
22437W        W82182   2.246   6.230   3.217
22438W        W82183  26.691  29.988  14.357
22439W        W82184  17.742  23.536  14.397
22440W        W82185   4.711  38.330  12.065
22441W        W82186  17.782  22.552   1.906
22442W        W82187   7.770  26.473  12.551
22443W        W82188  24.048  27.057   0.959
22444W        W82189  38.865  37.016  11.960
22445W        W82190  20.671   7.333  14.009
22446W        W82191   8.866  15.266  10.073
22447W        W82192  42.866   8.754  12.469
22448W        W82193  34.938  36.892   4.218
22449W        W82194   9.268   8.217   1.376
22450W        W82195  29.146  14.284  11.474
22451W        W82196  14.632  33.078  11.466
22452W        W82197   9.710  24.600   2.862
22453W        W82198   2.909  39.507   2.676
22454W        W82199   5.313  28.501  13.981
22455W        W82200  27.144  28.490   0.925
22456W        W82201  22.075  29.575   3.651
22457W        W82202   1.869   5.404  14.441
22458W        W82203  29.489  27.044  13.063
22459W        W82204  42.973  20.730  12.867
22460W        W82205  37.953  11.812   1.278
22461W        W82206  43.468  20.126  12.832
22462W        W82207  40.483  21.675   1.378
22463W        W82208  28.539  28.007   3.809
22464W        W82209  24.223  35.975  11.582
22465W        W82210  10.657  39.976  12.544
22466W        W82211  33.959  43.495  14.935
22467W        W82212  17.104   6.774  10.627
22468W        W82213  29.602  33.126  11.437
22469W        W82214  26.140  22.179  13.846
22470W        W82215  43.801  20.660   4.620
22471W        W82216   3.746  38.832   1.803
22472W        W82217  39.056  41.477  12.988
22473W        W82218  10.807   3.710   4.697
22474W        W82219  12.321  41.016  14.333
22475W        W82220  19.546  29.012  14.471
22476W        W82221  43.917   3.924  12.399
22477W        W82222  41.986  17.665  14.949
22478W        W82223  11.759  44.413   1.343
22479W        W82224  42.018  19.629  13.309
22480W        W82225   8.765  39.448   1.720
22481W        W82226  41.839   8.799   2.299
22482W        W82227  38.533  23.702   3.355
22483W        W82228  27.651  21.167  12.986
22484W        W82229  29.445  37.417   3.842
22485W        W82230  36.854  27.943   2.806
22486W        W82231   0.290  44.297   1.702
22487W        W82232   7.774  18.094   0.250
22488W        W82233   9.361  36.430   3.265
22489W        W82234   0.934  37.902   2.768
22490W        W82235  37.892  22.139   4.160
22491W        W82236  37.483  40.372   0.865
22492W        W82237  11.259   9.176   3.306
22493W        W82238   0.975  10.863  13.877
22494W        W82239  24.010  42.779   0.953
22495W        W82240  43.860   1.808   2.737
22496W        W82241  19.666  33.417   2.810
22497W        W82242  40.012  31.523  11.893
22498W        W82243  10.702   2.962   3.855
22499W        W82244   7.824  30.936   4.320
22500W        W82245  31.960   8.226   3.739
22501W        W82246  37.990  26.147   2.877
22502W        W82247  35.558  33.923   2.875
22503W        W82248  27.644  31.113  13.844
22504W        W82249   9.880  20.260  14.288
22505W        W82250  21.173  10.269   1.931
22506W        W82251   9.816   6.388   1.283
22507W        W82252  18.064  17.766   2.235
22508W        W82253   6.921  30.612   4.148
22509W        W82254  43.433  43.383  14.277
22510W        W82255  15.227  21.236   1.327
22511W        W82256  24.176  16.806   1.256
22512W        W82257  14.589  11.769   2.724
22513W        W82258  18.615   7.829  14.361
22514W        W82259  28.525  39.833  14.806
22515W        W82260  31.597   3.712   0.827
22516W        W82261   1.735  11.655   4.317
22517W        W82262  36.407  11.846  13.023
22518W        W82263   6.759  34.985   0.480
22519W        W82264   7.705   0.321   3.713
22520W        W82265  12.648  23.592   2.692
22521W        W82266  25.159   4.356  12.057
22522W        W82267  39.929  40.797  13.813
22523W        W82268  19.167  34.888   2.841
22524W        W82269  32.082  17.104   0.466
22525W        W82270   9.780  33.972   1.907
22526W        W82271  23.185  16.567  14.796
22527W        W82272   8.751   5.316   3.682
22528W        W82273  13.668  44.374   2.259
22529W        W82274  44.309   5.315  10.988
22530W        W82275  43.004   5.886  14.851
22531W        W82276   1.452  34.494   4.837
22532W        W82277  37.511   0.324   0.945
22533W        W82278  44.827  30.011   0.762
22534W        W82279  31.448  28.049   0.782
22535W        W82280  21.669  42.463   4.630
22536W        W82281  34.508  37.490   1.767
22537W        W82282  33.599  32.560  10.911
22538W        W82283  44.399  17.227   1.784
22539W        W82284  36.520  43.319  14.358
22540W        W82285  41.311  25.984  12.357
22541W        W82286   1.453  31.560   3.837
22542W        W82287  10.156  25.615  11.535
22543W        W82288  24.517  18.750  10.074
22544W        W82289   3.753  15.597  11.418
22545W        W82290  35.426  26.996  11.590
22546W        W82291  38.881  17.292  10.919
22547W        W82292  36.040  39.530  12.538
22548W        W82293   3.787  22.652  10.928
22549W        W82294  30.134   9.224  14.901
22550W        W82295  17.099  19.718   4.821
22551W        W82296   8.395   2.943   3.224
22552W        W82297  39.459  36.991   3.650
22553W        W82298  23.594  23.200   4.652
22554W        W82299  30.596   1.446   0.302
22555W        W82300  30.117  15.586   4.777
22556W        W82301  40.966  14.208  10.468
22557W        W82302  36.415  28.598   2.833
22558W        W82303  17.219  24.537   3.712
22559W        W82304  21.226  22.556   4.257
22560W        W82305   4.803   7.738  11.601
22561W        W82306  43.448  31.466  11.611
22562W        W82307   4.445  27.470   2.225
22563W        W82308  23.062  23.646  12.960
22564W        W82309  13.709   9.285  14.410
22565W        W82310  35.977  16.215   0.441
22566W        W82311  33.051  43.830   4.598
22567W        W82312  14.648   0.410  14.912
22568W        W82313  24.693  15.222   2.771
22569W        W82314  24.674  33.121  12.065
22570W        W82315  21.167  26.032  14.352
22571W        W82316  32.632  39.351   3.635
22572W        W82317  13.263  25.156  13.934
22573W        W82318  28.046  35.578  10.574
22574W        W82319  27.066  10.363   3.794
22575W        W82320  22.997  42.488  10.554
22576W        W82321  43.508   2.298  10.478
22577W        W82322  37.417  30.475  11.469
22578W        W82323  43.362   9.701   0.966
22579W        W82324  32.062  37.418   3.837
22580W        W82325   9.166   9.364  11.534
22581W        W82326  21.712  11.215   1.878
22582W        W82327  25.472  23.035  12.998
22583W        W82328   6.326  22.563  14.890
22584W        W82329   2.881   6.233   1.735
22585W        W82330  41.313  10.793   1.373
22586W        W82331   7.234  29.137  13.418
22587W        W82332  27.592  24.605  10.616
22588W        W82333  40.991  36.055   1.311
22589W        W82334  23.127   4.441  13.321
22590W        W82335   0.767  11.353   3.264
22591W        W82336  37.509  17.772   2.348
22592W        W82337   5.277  20.676   5.774
22593W        W82338  32.602  32.963  14.513
22594W        W82339   3.943   5.244   1.371
22595W        W82340   9.183  21.567   1.918
22596W        W82341  43.817  23.500  14.812
22597W        W82342   5.731   5.270   2.825
22598W        W82343  11.288  37.556   1.716
22599W        W82344  30.481  32.904  12.029
22600W        W82345  27.521  38.822   3.785
22601W        W82346   9.242  21.754   1.282
22602W        W82347   3.240  40.894  14.762
22603W        W82348  24.564  11.204   4.833
22604W        W82349   4.922   4.428  10.933
22605W        W82350  11.859  13.692   1.271
22606W        W82351  39.508  38.888  11.588
22607W        W82352  22.645  11.143   2.734
22608W        W82353   1.244  26.167   4.702
22609W        W82354  25.622  33.117  12.398
22610W        W82355  28.006  32.618   4.830
22611W        W82356   6.252  16.650  11.884
22612W        W82357  12.695   5.377  11.381
22613W        W82358  38.952  33.406   2.874
22614W        W82359  23.238  37.906  12.430
22615W        W82360   8.379  41.961  10.403
22616W        W82361  12.153  21.644  12.393
22617W        W82362  19.663  25.499  11.917
22618W        W82363  28.574  43.816   1.386
22619W        W82364  43.486  12.239   2.774
22620W        W82365  40.379  38.971   4.157
22621W        W82366  41.979   4.299  13.540
22622W        W82367  18.676   0.485   2.789
22623W        W82368   3.730  24.667   2.241
22624W        W82369  14.101  17.610  12.867
22625W        W82370   7.752   5.333  14.291
22626W        W82371  13.820  26.140   4.770
22627W        W82372  34.614   6.319   4.769
22628W        W82373   1.810   0.773  12.912
22629W        W82374  29.027   2.354  10.960
22630W        W82375   4.294  12.799   0.368
22631W        W82376   0.352  15.231  14.346
22632W        W82377   8.354  10.227   3.161
22633W        W82378  13.235   5.906  10.951
22634W        W82379  14.137  37.531  13.373
22635W        W82380  40.425  11.295   1.232
22636W        W82381  18.198  35.063   4.816
22637W        W82382  21.736  33.080  12.995
22638W        W82383   2.290  14.762  14.352
22639W        W82384   0.416  10.195   3.320
22640W        W82385  26.066  42.488  12.029
22641W        W82386  40.547  14.652   4.312
22642W        W82387  31.487  21.752   0.250
22643W        W82388  42.985  14.113  12.895
22644W        W82389  12.129  11.264  12.903
22645W        W82390  26.617   3.750   1.259
22646W        W82391  27.666  23.726  13.798
22647W        W82392  17.640  39.940   4.325
22648W        W82393  38.970  31.602   2.902
22649W        W82394  33.119  12.311  11.015
22650W        W82395  13.770  28.497  10.636
22651W        W82396  39.350  22.620   4.265
22652W        W82397  41.484  29.504   1.898
22653W        W82398  20.656  44.890  11.501
22654W        W82399   3.908  11.334   2.665
22655W        W82400  28.149  29.958   2.896
22656W        W82401  17.658  36.993   0.739
22657W        W82402   7.406  34.887  11.419
22658W        W82403  14.790  39.016  10.908
22659W        W82404  24.658   7.694   2.858
22660W        W82405  31.468   2.305  10.459
22661W        W82406  17.173  42.919   2.845
22662W        W82407  30.046   8.700  13.439
22663W        W82408  12.704  20.692  13.517
22664W        W82409  39.995  33.894   3.351
22665W        W82410   0.326  21.641   0.951
22666W        W82411  10.712  25.157   4.782
22667W        W82412  33.879  31.960  11.012
22668W        W82413  38.951  19.145   4.609
22669W        W82414  36.949   7.229  11.014
22670W        W82415  13.210   9.363  14.023
22671W        W82416  44.403  23.554  10.902
22672W        W82417  32.968  21.172   1.771
22673W        W82418  43.336   4.360  14.923
22674W        W82419  30.496  27.495   1.887
22675W        W82420  28.641  33.131  14.759
22676W        W82421  26.652  20.196  10.921
22677W        W82422   2.813  28.168  11.432
22678W        W82423   4.376   1.857  12.547
22679W        W82424  40.486  27.104   1.916
22680W        W82425  32.962  27.104  10.437
22681W        W82426  28.961  33.003   4.301
22682W        W82427  28.571  23.716  11.033
22683W        W82428  39.977  41.303  11.897
22684W        W82429  19.760  30.952   0.886
22685W        W82430  15.690  11.265   4.239
22686W        W82431  17.621   2.355   4.230
22687W        W82432  34.956  23.228  11.393
22688W        W82433  23.573   5.208  14.494
22689W        W82434  36.351  13.314  10.521
22690W        W82435  11.346   4.305  13.499
22691W        W82436   7.396   2.785   2.205
22692W        W82437  25.556   7.370   3.735
22693W        W82438  18.155  12.229   0.285
22694W        W82439  25.520  19.536   4.353
22695W        W82440   4.211  15.752   3.215
22696W        W82441  15.195  23.632  14.941
22697W        W82442  19.063  12.837  11.123
22698W        W82443  24.689  18.089  12.356
22699W        W82444  30.955   2.312  14.926
22700W        W82445  24.604   8.400  12.466
22701W        W82446  16.620  28.653   4.277
22702W        W82447  43.840  44.371   2.392
22703W        W82448  29.501  23.665   2.792
22704W        W82449  39.871   2.892  13.478
22705W        W82450   3.369   8.324   1.323
22706W        W82451  38.055   5.910  14.826
22707W        W82452   0.255  36.025   0.734
22708W        W82453  33.950   1.802  13.365
22709W        W82454  42.004  28.017   4.223
22710W        W82455   8.343  22.582  12.015
22711W        W82456  26.518   4.896  12.852
22712W        W82457   9.706  29.044   0.814
22713W        W82458  16.255  26.000  13.861
22714W        W82459  14.113  26.006  10.980
22715W        W82460  18.282  29.571   2.693
22716W        W82461   1.417  26.011   0.872
22717W        W82462  35.577  23.674  14.368
22718W        W82463  15.700  29.635  11.032
22719W        W82464  25.992  39.826   2.186
22720W        W82465  41.855   5.249   4.244
22721W        W82466  36.995  15.199  11.083
22722W        W82467   2.455  14.186   4.295
22723W        W82468  32.888  19.615   0.470
22724W        W82469  42.963  29.561   3.205
22725W        W82470  34.600  33.031  14.455
22726W        W82471  10.694  15.730  14.844
22727W        W82472  16.098  31.963   4.211
22728W        W82473  21.123  44.956  10.613
22729W        W82474  26.040  34.951   0.341
22730W        W82475   1.407  39.483  12.996
22731W        W82476  35.075  11.326  14.422
22732W        W82477  36.892  23.646  11.469
22733W        W82478   8.385  10.333   1.225
22734W        W82479   3.442  41.310   0.373
22735W        W82480  38.557   6.190  11.011
22736W        W82481  28.559  26.001   1.866
22737W        W82482   3.361  20.615   2.701
22738W        W82483  20.071   3.447   4.613
22739W        W82484  37.390   3.895  14.463
22740W        W82485  22.731  17.709   4.776
22741W        W82486  42.521   7.704  14.896
22742W        W82487  16.629  14.296  11.372
22743W        W82488  24.663  21.170  14.933
22744W        W82489  40.026  41.382  12.532
22745W        W82490  17.675   0.831  11.113
22746W        W82491  20.062  28.103   0.353
22747W        W82492  25.647  35.475   3.679
22748W        W82493  12.707  25.996   2.196
22749W        W82494   6.898  33.431  14.880
22750W        W82495  19.216  41.850   4.312
22751W        W82496  34.380  33.424  14.963
22752W        W82497  36.513  11.643  13.414
22753W        W82498  10.644  44.354   4.806
22754W        W82499  36.985  43.400  14.981
22755W        W82500   9.166  44.893   4.737
22756W        W82501  25.670  29.027  11.416
22757W        W82502   9.290   6.414   4.758
22758W        W82503   7.297   2.358   1.260
22759W        W82504  14.102   8.761  13.887
22760W        W82505  18.211   3.328  11.072
22761W        W82506  21.214  29.161   0.796
22762W        W82507  36.571   3.225  10.046
22763W        W82508   3.799  12.715  10.639
22764W        W82509  31.644  17.715  13.976
22765W        W82510  21.067   9.342  12.544
22766W        W82511  10.646  12.165  12.977
22767W        W82512  10.363  30.466   2.832
22768W        W82513  43.795  40.037   2.255
22769W        W82514  40.482  33.093   3.807
22770W        W82515  39.846  25.664  12.077
22771W        W82516  22.231  42.446   0.254
22772W        W82517  20.197  33.881   1.426
22773W        W82518   0.284  33.925   5.616
22774W        W82519  10.637   3.258  12.873
22775W        W82520   2.822   2.787  13.427
22776W        W82521   2.348  26.648   2.814
22777W        W82522  34.453  25.015  14.864
22778W        W82523  11.678  22.588  14.429
22779W        W82524  10.255   9.721   4.144
22780W        W82525  40.454  44.347  12.424
22781W        W82526  31.081  38.073   4.761
22782W        W82527  29.986  11.689   1.748
22783W        W82528  11.760  26.517  11.603
22784W        W82529   4.391  31.116   2.894
22785W        W82530   7.256   7.205  13.361
22786W        W82531   4.420  27.975  12.034
22787W        W82532  24.488   7.718  11.574
22788W        W82533  22.559  28.932  14.925
22789W        W82534  28.555  24.221  14.937
22790W        W82535  23.589  11.757   1.711
22791W        W82536  14.133  42.374   4.742
22792W        W82537  26.137   2.759  10.602
22793W        W82538  11.213  37.023  13.514
22794W        W82539   4.900  10.199   4.231
22795W        W82540  35.068  31.980  10.482
22796W        W82541  44.389  11.695   4.714
22797W        W82542  19.237  41.484  14.488
22798W        W82543   1.287  39.984   4.728
22799W        W82544  34.984  38.841   4.174
22800W        W82545   8.866  35.458   4.817
22801W        W82546  10.773   8.751   5.269
22802W        W82547   4.347   8.673  13.881
22803W        W82548  30.555   1.851   3.754
22804W        W82549  32.899  27.016  13.504
22805W        W82550  34.964   0.271  11.041
22806W        W82551  17.193  43.895   1.221
22807W        W82552   0.868  35.969   0.729
22808W        W82553   1.354  10.874   3.151
22809W        W82554  18.742  34.610   2.695
22810W        W82555  13.619  18.093  10.439
22811W        W82556  30.659  30.142  11.000
22812W        W82557  23.700  10.333   3.689
22813W        W82558   2.419  40.817   5.170
22814W        W82559  43.867  12.760  11.569
22815W        W82560  20.682  14.702   4.264
22816W        W82561  26.648  20.664  12.941
22817W        W82562  38.360  22.657  14.505
22818W        W82563  42.291   5.210  11.065
22819W        W82564   6.882   9.823   0.768
22820W        W82565  27.532   7.715   1.273
22821W        W82566  35.477   8.808   0.914
22822W        W82567  11.665  10.296  14.969
22823W        W82568  19.736  24.510   2.276
22824W        W82569  23.541  17.085  13.935
22825W        W82570  16.223  25.219   4.217
22826W        W82571   2.936   7.348  14.786
22827W        W82572  34.451  39.899   0.311
22828W        W82573  38.370  24.227  12.896
22829W        W82574   0.884   1.808   3.812
22830W        W82575  36.941   6.723   3.172
22831W        W82576  36.447   9.757   3.314
22832W        W82577  12.323  18.259   3.147
22833W        W82578  26.184  17.088  12.034
22834W        W82579  12.724  13.156   1.449
22835W        W82580  34.120  44.283   0.352
22836W        W82581  20.596   5.258  14.976
22837W        W82582   4.822  14.278   4.681
22838W        W82583  36.853   3.224  13.382
22839W        W82584  23.663  32.474  12.948
22840W        W82585   3.303  32.475   0.962
22841W        W82586  44.842  17.296   3.758
22842W        W82587   9.815  11.683  12.421
22843W        W82588   3.308  35.068  13.963
22844W        W82589  25.194   3.458  13.343
22845W        W82590  34.004   4.246  11.893
22846W        W82591   7.213  42.381  11.410
22847W        W82592  36.565  26.625  14.486
22848W        W82593  39.026  25.027   2.383
22849W        W82594  39.843  12.195  12.878
22850W        W82595   7.230  10.277   3.757
22851W        W82596  16.654  14.307   2.753
22852W        W82597  21.558  34.972  12.082
22853W        W82598   6.922  29.133   1.324
22854W        W82599  28.976  26.038   2.717
22855W        W82600  33.897  23.239  13.913
22856W        W82601  33.440  40.831   2.778
22857W        W82602  15.269  31.953  11.609
22858W        W82603  31.124  26.472  10.156
22859W        W82604  41.357  15.787   3.326
22860W        W82605  20.258  36.431  12.994
22861W        W82606  26.187  24.138  14.950
22862W        W82607   5.248  40.002   4.140
22863W        W82608   7.833  18.585   3.238
22864W        W82609   0.869  20.593   1.849
22865W        W82610  23.530  12.259  11.861
22866W        W82611  22.195  24.542  12.053
22867W        W82612   2.947  33.394   4.747
22868W        W82613  33.109  18.654  12.844
22869W        W82614  28.616  24.003  12.494
22870W        W82615   1.450   8.677  14.431
22871W        W82616  21.208  15.148  14.864
22872W        W82617  15.268  15.108   4.300
22873W        W82618  10.275  37.565   4.329
22874W        W82619  12.150  23.064   2.747
22875W        W82620  36.906  37.007   3.365
22876W        W82621  27.106  44.829  12.568
22877W        W82622   5.255  22.739  11.862
22878W        W82623  10.785  14.751  11.957
22879W        W82624  41.817  16.755  14.823
22880W        W82625  38.063  21.591   0.381
22881W        W82626  37.864  21.755  14.760
22882W        W82627  35.544  26.591  13.907
22883W        W82628  37.410  28.060  13.060
22884W        W82629  25.055  18.248   1.442
22885W        W82630   2.813  24.583  10.916
22886W        W82631  29.526   5.737   0.790
22887W        W82632  24.134  25.183  12.361
22888W        W82633  24.142  26.660   4.127
22889W        W82634  26.121  31.416   0.309
22890W        W82635  13.128   2.904  13.531
22891W        W82636   4.394  36.512   1.917
22892W        W82637  28.513  33.944  14.348
22893W        W82638  23.694  17.800  10.957
22894W        W82639   6.779  34.107   0.480
22895W        W82640  42.521  22.535  13.366
22896W        W82641  38.466  34.052  12.957
22897W        W82642  22.105  32.430  12.031
22898W        W82643  37.042  40.543  11.931
22899W        W82644  12.784  21.724   2.243
22900W        W82645  24.042  42.020  13.853
22901W        W82646  39.940  24.603   0.369
22902W        W82647  23.679  40.400   1.351
22903W        W82648   8.193  22.044  13.794
22904W        W82649   4.815  16.153  11.113
22905W        W82650  35.859  26.037  10.590
22906W        W82651  34.465  36.561  11.595
22907W        W82652  10.722  42.466   1.333
22908W        W82653  36.537  26.459  10.140
22909W        W82654   8.828  20.760  11.055
22910W        W82655   5.390  32.392  14.310
22911W        W82656  35.024  15.790  12.876
22912W        W82657   6.240  22.580   9.942
22913W        W82658   1.887  11.757  14.934
22914W        W82659   2.347  12.225   1.809
22915W        W82660  30.045  38.004  12.566
22916W        W82661  10.301   0.975  10.629
22917W        W82662  12.292  35.499   3.689
22918W        W82663  15.680  26.203   4.713
22919W        W82664  15.783  28.939   3.233
22920W        W82665  13.294  40.365  13.955
22921W        W82666  14.673  32.075  11.086
22922W        W82667  19.069   4.842   2.844
22923W        W82668  36.025  44.428  14.880
22924W        W82669  10.308  32.134  13.343
22925W        W82670  21.070  27.068  12.942
22926W        W82671  43.873  35.390   1.240
22927W        W82672   4.880  11.859  11.500
22928W        W82673  25.061   1.861   1.841
22929W        W82674  42.944  31.629   2.760
22930W        W82675  29.990   5.806   2.817
22931W        W82676   1.368  18.689   1.266
22932W        W82677  15.328  23.527  12.573
22933W        W82678  11.204  25.184   1.427
22934W        W82679  21.100  17.603  14.483
22935W        W82680  22.244  40.830   1.888
22936W        W82681   0.427  40.467   5.128
22937W        W82682  22.105  12.846  12.563
22938W        W82683  19.663  13.761   0.844
22939W        W82684  44.290  20.253   2.209
22940W        W82685  22.247  10.866   2.393
22941W        W82686  14.681  22.236   1.372
22942W        W82687  13.202  16.775   0.265
22943W        W82688  15.259  17.639  12.458
22944W        W82689  26.669  37.406   4.347
22945W        W82690  38.823  44.970  10.445
22946W        W82691  39.933  11.825   4.643
22947W        W82692  24.095   6.197   2.342
22948W        W82693  16.082  13.341   2.384
22949W        W82694  36.355   7.775   4.631
22950W        W82695  10.850  19.221  10.987
22951W        W82696  39.557   5.752  14.887
22952W        W82697   3.398  22.687   0.733
22953W        W82698  23.626  21.025  13.891
22954W        W82699   2.890   1.877   3.291
22955W        W82700  31.474   1.853   4.792
22956W        W82701  15.090   8.162   0.926
22957W        W82702   3.920  10.705   3.634
22958W        W82703  29.961  31.042  13.352
22959W        W82704   6.897  39.537  13.308
22960W        W82705  11.814   8.238   4.785
22961W        W82706   0.407  17.602   5.786
22962W        W82707   9.686  36.911  13.432
22963W        W82708  43.813  10.253   3.268
22964W        W82709  32.047  14.629   2.374
22965W        W82710  36.919  27.128   3.188
22966W        W82711  15.750  32.942   0.756
22967W        W82712  12.701  21.601   0.439
22968W        W82713  32.017  34.920  11.557
22969W        W82714  15.639  11.694  10.892
22970W        W82715  32.601  37.002  14.859
22971W        W82716  42.903  15.596  11.941
22972W        W82717  41.451  20.635   3.284
22973W        W82718  22.622   9.192   2.353
22974W        W82719   1.862  35.857   2.830
22975W        W82720   6.274  14.175  13.873
22976W        W82721  43.492   0.363   4.783
22977W        W82722  19.114  15.615   4.608
22978W        W82723  20.185  38.561   4.815
22979W        W82724  14.181  42.983   1.695
22980W        W82725  16.125  40.998  14.278
22981W        W82726  27.160  35.460  12.831
22982W        W82727  37.402  36.923  13.824
22983W        W82728  39.985  34.558   1.449
22984W        W82729  33.036  18.627  14.831
22985W        W82730   5.346  28.987  13.040
22986W        W82731  34.987  39.550   3.243
22987W        W82732  33.129  26.606  12.009
22988W        W82733  40.358  18.219   3.218
22989W        W82734  42.508  22.165   0.748
22990W        W82735  25.514   5.779   4.167
22991W        W82736  18.751  41.844  12.091
22992W        W82737  37.366   4.431   1.266
22993W        W82738  24.171  35.083  10.955
22994W        W82739  40.863  11.169   1.707
22995W        W82740  12.174  30.536   3.202
22996W        W82741  35.008   6.686  12.480
22997W        W82742  15.220  11.733   0.782
22998W        W82743  19.674  12.844   0.820
22999W        W82744  21.651  24.590   1.760
23000W        W82745  13.617  26.462   1.352
23001W        W82746  10.284  31.933   1.435
23002W        W82747   4.865  16.665  10.531
23003W        W82748   2.887  12.265   3.774
23004W        W82749   7.898  12.624  11.937
23005W        W82750  35.938  37.889   4.226
23006W        W82751  24.124  32.438   3.291
23007W        W82752   4.788  33.523   1.714
23008W        W82753  32.887   0.941  10.609
23009W        W82754  21.572  42.507  14.921
23010W        W82755  17.080  20.116  11.471
23011W        W82756   3.800   2.231  13.374
23012W        W82757  13.115  14.597   2.803
23013W        W82758  35.001  28.122  11.053
23014W        W82759  44.965   7.730   2.201
23015W        W82760  12.762  17.555  14.384
23016W        W82761  34.428   7.883  13.967
23017W        W82762  31.503  20.040  13.483
23018W        W82763  25.219   6.883  14.768
23019W        W82764  38.013  27.016   3.847
23020W        W82765  36.363  38.829   1.694
23021W        W82766  26.174  12.688   4.696
23022W        W82767  39.950  21.253  13.051
23023W        W82768  29.074   1.806   0.867
23024W        W82769  29.034  10.687  13.814
23025W        W82770  44.464  31.494   0.447
23026W        W82771  42.345   7.721  14.277
23027W        W82772  15.160   0.268  11.121
23028W        W82773  30.053   7.670  11.391
23029W        W82774  15.159  40.358   3.757
23030W        W82775  11.252  36.945   9.670
23031W        W82776  43.808  32.054  13.340
23032W        W82777  17.267  23.137  12.395
23033W        W82778  15.627  44.007   3.159
23034W        W82779  43.456  42.887   3.842
23035W        W82780  17.589  27.090   4.166
23036W        W82781  10.143  37.416   2.286
23037W        W82782  23.187  30.622   3.735
23038W        W82783  20.102  12.269  11.436
23039W        W82784  25.103  31.902  13.893
23040W        W82785  12.661   2.302  13.052
23041W        W82786   9.193   6.406  11.115
23042W        W82787  14.251   0.818   0.960
23043W        W82788  21.074   1.260   3.752
23044W        W82789  31.490  30.654   0.873
23045W        W82790  25.593  13.269   4.598
23046W        W82791  22.592  30.543   2.308
23047W        W82792  35.509  22.660  11.932
23048W        W82793  28.604  15.100  13.907
23049W        W82794  30.559  31.582  12.861
23050W        W82795  29.433  37.834  12.478
23051W        W82796  14.599  12.210  14.348
23052W        W82797  41.037  40.842  14.322
23053W        W82798  41.982  18.629  10.526
23054W        W82799   1.831   2.352  12.869
23055W        W82800  26.673   9.861  11.569
23056W        W82801  31.069  33.519   1.710
23057W        W82802  39.981  23.607  12.481
23058W        W82803  26.085   2.767  11.856
23059W        W82804  12.717   4.367  13.423
23060W        W82805  31.430  37.455  14.340
23061W        W82806  15.236   0.410  14.478
23062W        W82807  24.024  39.050  14.895
23063W        W82808   4.926  41.392  10.123
23064W        W82809  17.738  19.264   0.797
23065W        W82810  36.062  44.311   4.740
23066W        W82811  32.532  33.132  12.536
23067W        W82812   3.927   1.304   3.222
23068W        W82813  26.059   8.668  14.794
23069W        W82814   3.290   2.369   2.677
23070W        W82815  19.600   7.232  11.384
23071W        W82816   7.782  44.766  13.989
23072W        W82817  13.169  21.038  13.861
23073W        W82818  27.511  39.423   2.849
23074W        W82819  34.935  13.672  11.481
23075W        W82820  36.046  18.065   0.447
23076W        W82821   1.855   8.227   1.745
23077W        W82822  15.706   2.885  14.986
23078W        W82823   6.879  28.967   2.396
23079W        W82824   2.898  26.600   3.630
23080W        W82825   7.195  25.976  11.112
23081W        W82826  11.244  33.970  11.606
23082W        W82827  11.755   3.899  14.326
23083W        W82828  25.551  40.518  13.362
23084W        W82829   1.780  32.109  12.580
23085W        W82830  19.214  21.181   2.252
23086W        W82831  34.063  42.518  13.503
23087W        W82832   7.724  42.913   1.932
23088W        W82833  20.731  27.118  11.414
23089W        W82834  28.613  13.790  14.423
23090W        W82835  29.023  40.882  11.554
23091W        W82836  19.586  43.311   0.340
23092W        W82837   4.355  36.934  13.846
23093W        W82838  25.573   2.427   4.761
23094W        W82839  40.865   8.347   2.382
23095W        W82840  40.920  34.479   4.256
23096W        W82841   3.852  26.692  13.803
23097W        W82842  38.508  27.680   3.855
23098W        W82843  29.145  13.238  11.429
23099W        W82844  12.288  11.772   2.183
23100W        W82845  13.286  44.472   2.230
23101W        W82846  33.937  40.923   3.280
23102W        W82847  23.187   9.224   2.203
23103W        W82848  27.014  37.031   2.180
23104W        W82849   5.880   9.788   1.216
23105W        W82850   7.411  20.656  11.013
23106W        W82851  23.205  10.764  12.851
23107W        W82852   3.278   4.718   5.269
23108W        W82853   4.437  30.913  10.952
23109W        W82854  11.204   4.753   3.267
23110W        W82855  41.903  33.467  10.436
23111W        W82856  37.438  37.337   0.294
23112W        W82857  10.764   2.262  13.539
23113W        W82858   6.195  29.610  14.389
23114W        W82859  12.128   2.838   3.859
23115W        W82860  24.521  17.591   2.403
23116W        W82861  29.099  28.628   0.405
23117W        W82862  26.457  13.147  10.892
23118W        W82863  26.188  22.111  14.825
23119W        W82864   4.818  23.576  13.348
23120W        W82865  10.850  42.932  13.003
23121W        W82866   1.282  21.661   3.735
23122W        W82867  31.068   6.228  13.339
23123W        W82868   5.335  27.154   2.291
23124W        W82869  22.561   8.172  12.419
23125W        W82870   9.310  27.564  10.593
23126W        W82871  14.137   8.197  11.513
23127W        W82872  31.071  30.543   5.288
23128W        W82873  25.553   4.797  10.527
23129W        W82874  43.854  42.798  12.958
23130W        W82875  31.092  14.616   1.732
23131W        W82876  36.041   2.426  14.812
23132W        W82877   8.708  42.370   2.303
23133W        W82878   7.677   8.260  11.605
23134W        W82879  24.626  35.559   2.725
23135W        W82880  14.684  21.583  14.778
23136W        W82881  37.429   7.295  10.405
23137W        W82882  17.620   5.428  13.026
23138W        W82883  28.068  34.430  11.098
23139W        W82884  31.516  39.942   4.715
23140W        W82885   6.828  19.768  10.995
23141W        W82886  16.570  20.172  10.514
23142W        W82887  14.643   7.688   1.833
23143W        W82888  42.514  33.598  14.283
23144W        W82889  16.774  44.803  13.374
23145W        W82890  39.494   0.782  10.101
23146W        W82891   1.479   1.864   2.889
23147W        W82892   9.259   0.969  10.136
23148W        W82893  40.517  35.017   5.231
23149W        W82894  26.671  33.121   3.737
23150W        W82895   5.927   6.828  14.503
23151W        W82896  42.345  27.655  11.584
23152W        W82897  27.626   5.897   2.851
23153W        W82898  32.045  19.640   1.339
23154W        W82899   7.228  25.039  14.347
23155W        W82900  16.158  37.083  12.020
23156W        W82901  36.376  30.644   1.766
23157W        W82902  38.364  10.800   3.640
23158W        W82903  41.014  33.113  14.947
23159W        W82904  11.349  30.621   0.907
23160W        W82905  35.950   1.416   1.892
23161W        W82906  38.923  26.589   5.255
23162W        W82907   5.828  27.149   1.387
23163W        W82908  35.493  30.103   4.652
23164W        W82909   5.343  39.352   4.716
23165W        W82910  43.802  28.082   0.248
23166W        W82911  26.659  30.634   3.241
23167W        W82912   6.909   8.877   5.176
23168W        W82913  21.528  40.464  12.081
23169W        W82914  44.875  43.481  14.986
23170W        W82915  32.420  35.565   1.354
23171W        W82916  37.934  39.537  13.361
23172W        W82917  44.307  28.585   3.343
23173W        W82918  38.403   6.711  14.814
23174W        W82919  10.836   3.294  12.044
23175W        W82920  25.481  31.043   5.739
23176W        W82921  19.186  17.784   3.382
23177W        W82922  14.104  18.618   2.772
23178W        W82923   3.868  22.669  12.006
23179W        W82924   6.305  11.765  13.498
23180W        W82925   4.770   1.864   0.431
23181W        W82926   2.766  11.196  14.451
23182W        W82927  38.867  26.043   2.830
23183W        W82928  26.964  30.009  12.982
23184W        W82929  32.441  38.921   2.882
23185W        W82930  30.659  28.081   0.365
23186W        W82931  18.676   1.958   2.823
23187W        W82932   0.433  36.433   3.210
23188W        W82933  39.047  25.583   2.754
23189W        W82934  26.012   7.725   0.452
23190W        W82935  33.439  12.750   4.139
23191W        W82936  16.238  36.525  14.322
23192W        W82937  17.255  12.636  13.016
23193W        W82938   3.796  15.117  11.961
23194W        W82939  34.519  28.489  14.399
23195W        W82940  43.965   5.388   2.263
23196W        W82941   7.770  22.239  13.346
23197W        W82942  41.480   4.406   1.844
23198W        W82943   2.266  38.358  11.927
23199W        W82944  44.977  24.644  10.430
23200W        W82945  44.502  27.084  14.004
23201W        W82946  29.948  23.988  12.349
23202W        W82947  36.859  29.425   4.649
23203W        W82948  22.071  33.419   0.764
23204W        W82949  39.017  36.405  12.919
23205W        W82950  16.232  43.309  12.529
23206W        W82951  13.708   9.846  10.912
23207W        W82952  31.583   5.212  12.899
23208W        W82953   2.930  43.931  13.941
23209W        W82954  40.479  13.157  11.984
23210W        W82955  41.963  22.566   3.839
23211W        W82956  43.838  34.559   0.382
23212W        W82957  41.871  38.033  12.464
23213W        W82958  39.825  28.119  14.513
23214W        W82959  12.271   5.290   0.744
23215W        W82960  17.295  23.564   1.359
23216W        W82961  37.955  22.111  14.979
23217W        W82962  26.100   0.323   2.346
23218W        W82963  41.345  16.597   4.243
23219W        W82964  42.855  26.483   4.303
23220W        W82965  34.513  37.491  13.868
23221W        W82966  42.972  43.276  11.383
23222W        W82967  18.095   1.972   1.378
23223W        W82968  24.008  33.007   2.187
23224W        W82969  25.180  21.714  14.941
23225W        W82970  18.770   0.398  13.902
23226W        W82971  25.649  44.425  11.046
23227W        W82972  28.162  13.174  14.408
23228W        W82973   4.758   2.423  13.951
23229W        W82974  16.697  23.547  13.532
23230W        W82975   2.740   8.171   3.182
23231W        W82976  31.623  29.449   3.270
23232W        W82977  13.778   5.857  11.603
23233W        W82978  24.156   3.244  12.341
23234W        W82979  29.011  15.323   2.348
23235W        W82980  13.321  44.458  11.603
23236W        W82981  22.172  15.109  14.482
23237W        W82982   3.334   4.420  10.528
23238W        W82983  40.457  37.835  14.351
23239W        W82984  13.278  12.702  10.492
23240W        W82985  14.142   7.675  13.991
23241W        W82986  16.750  12.268   1.269
23242W        W82987  14.109  22.600   4.754
23243W        W82988  43.332  27.965   0.880
23244W        W82989  39.508  38.366  10.644
23245W        W82990  13.760   2.279  11.069
23246W        W82991  40.321  44.362   3.188
23247W        W82992  14.240   5.439   0.888
23248W        W82993  39.994   9.747   4.669
23249W        W82994  40.318   9.235   4.794
23250W        W82995  24.096  35.978   3.718
23251W        W82996  24.134  29.482  13.507
23252W        W82997   2.954  38.914  13.818
23253W        W82998   5.263  13.835   1.843
23254W        W82999   9.804   6.728  12.473
23255W        W83000   8.364  29.085  10.584
23256W        W83001   1.850  10.343   0.262
23257W        W83002  15.650  16.149  10.984
23258W        W83003  35.986  16.670  10.541
23259W        W83004  20.635  40.849   0.875
23260W        W83005  36.882  10.834   4.701
23261W        W83006  35.399  30.581  11.965
23262W        W83007  35.564  37.574   4.263
23263W        W83008  21.200  32.528   4.606
23264W        W83009  38.863   6.188  14.790
23265W        W83010  43.814  42.979  10.570
23266W        W83011  14.785  21.128  14.314
23267W        W83012  42.319  42.883  13.031
23268W        W83013   5.816  39.890  14.822
23269W        W83014  43.432  19.700   4.341
23270W        W83015  13.171  44.372   3.291
23271W        W83016  32.400  18.092  13.990
23272W        W83017  22.120  13.825   2.378
23273W        W83018  37.545  15.267   2.663
23274W        W83019  11.818   0.825   2.900
23275W        W83020  14.719  18.075   3.382
23276W        W83021  42.937  16.793  14.944
23277W        W83022  24.071  17.182   2.779
23278W        W83023  16.727  17.621  13.808
23279W        W83024  19.668  31.484  13.954
23280W        W83025  37.553  25.630   5.145
23281W        W83026  13.267   8.381   3.314
23282W        W83027   8.720  33.426   4.262
23283W        W83028  44.421   1.899   3.754
23284W        W83029  10.718  37.880  11.100
23285W        W83030  17.202  42.435   3.714
23286W        W83031  41.422  15.128   4.304
23287W        W83032  14.827  23.068   0.478
23288W        W83033  24.542  14.198   3.362
23289W        W83034  20.707  29.461   2.267
23290W        W83035  27.669  41.028  11.044
23291W        W83036  11.802  17.750  10.960
23292W        W83037  37.507  34.965  10.915
23293W        W83038   6.391  20.141   0.740
23294W        W83039  18.292   8.220   1.352
23295W        W83040  19.265  34.116   2.738
23296W        W83041   0.864   0.756   0.307
23297W        W83042  39.509  14.214  11.414
23298W        W83043   0.921  43.967   0.462
23299W        W83044  36.372  29.084  11.404
23300W        W83045   4.932  30.451  10.083
23301W        W83046  23.227  19.657   1.873
23302W        W83047   9.825  39.455  14.287
23303W        W83048   0.448  10.728  10.551
23304W        W83049  40.452  27.094   2.692
23305W        W83050  31.130  41.351  14.879
23306W        W83051  27.009  10.273  14.408
23307W        W83052  11.191  43.881   2.286
23308W        W83053   0.441   9.649   3.707
23309W        W83054  26.642  40.888   0.828
23310W        W83055  38.466  20.058   4.253
23311W        W83056  18.644   9.152  13.046
23312W        W83057  20.670  32.136   2.893
23313W        W83058   9.212  28.172  13.530
23314W        W83059   4.340  10.203   0.762
23315W        W83060  10.748  39.897   2.796
23316W        W83061  20.584   0.856   9.550
23317W        W83062  31.080  38.851  13.530
23318W        W83063  37.420  13.766  11.946
23319W        W83064  22.183   5.899   3.777
23320W        W83065  39.928  10.811  13.996
23321W        W83066   6.213  23.553   4.723
23322W        W83067  24.509  13.776   1.744
23323W        W83068  19.576  10.730  13.456
23324W        W83069  32.482  35.051   2.734
23325W        W83070  25.220  35.498   0.738
23326W        W83071  15.157  14.138   4.787
23327W        W83072   5.802  30.041  10.975
23328W        W83073  40.966   0.952  11.985
23329W        W83074  27.581  43.322   4.616
23330W        W83075  35.478  22.080   4.732
23331W        W83076  20.041  17.713  13.851
23332W        W83077  34.099  13.223   1.335
23333W        W83078  44.004  30.077   0.756
23334W        W83079   7.364  32.461   0.306
23335W        W83080   5.693  38.419   2.768
23336W        W83081  33.433  15.174   3.836
23337W        W83082  32.574  40.446  11.108
23338W        W83083  30.062   8.294  10.927
23339W        W83084  27.110  29.142   1.744
23340W        W83085  30.144  25.013   1.275
23341W        W83086   3.287  31.641  10.450
23342W        W83087   9.388  39.025   1.863
23343W        W83088  20.659  15.763   2.826
23344W        W83089  17.260  41.452   0.284
23345W        W83090  29.123   4.891   0.353
23346W        W83091  15.594  19.677  13.394
23347W        W83092  15.214  38.488   4.172
23348W        W83093  41.043   9.772   0.919
23349W        W83094   6.908   1.736  11.904
23350W        W83095  32.887  26.551   2.229
23351W        W83096  18.584   7.269   4.336
23352W        W83097  43.396  34.091  12.047
23353W        W83098  29.956  23.092  10.633
23354W        W83099  42.909  29.061  10.991
23355W        W83100  27.032  29.498   2.670
23356W        W83101  25.174  42.377  11.100
23357W        W83102  18.179   6.810  14.007
23358W        W83103   8.382  15.636   0.283
23359W        W83104  38.070   7.782   0.242
23360W        W83105  20.163  26.084   2.251
23361W        W83106  25.058  38.373  13.960
23362W        W83107  43.270   6.789   0.446
23363W        W83108  21.104  30.473   1.410
23364W        W83109  34.431  10.871   0.391
23365W        W83110  36.486  22.068   2.783
23366W        W83111  38.420   2.933  12.501
23367W        W83112  11.152   7.856  11.578
23368W        W83113   7.320  12.745  14.808
23369W        W83114   5.216  41.936  14.446
23370W        W83115  15.113   4.722   3.687
23371W        W83116  24.493  16.120   3.273
23372W        W83117  33.992  16.705  13.006
23373W        W83118  42.463  43.382  12.557
23374W        W83119  31.969  12.660   4.154
23375W        W83120  32.543  16.172  13.327
23376W        W83121  28.958  31.918   1.816
23377W        W83122   5.795   5.859  11.586
23378W        W83123  23.594  12.219   1.398
23379W        W83124  36.849  32.637  12.920
23380W        W83125  36.425  27.106   3.702
23381W        W83126  17.722  35.371   0.361
23382W        W83127  22.251  37.995  11.952
23383W        W83128  33.100  37.406   3.384
23384W        W83129  40.361  40.820   1.382
23385W        W83130  22.167   3.771   3.337
23386W        W83131   0.464  15.746   2.727
23387W        W83132  18.081  34.426   0.832
23388W        W83133   8.886  37.860   5.266
23389W        W83134  41.891  20.550  13.041
23390W        W83135   2.437  18.191  12.472
23391W        W83136  37.354   1.339   4.691
23392W        W83137  35.988   3.817   0.879
23393W        W83138  31.004  27.449   5.760
23394W        W83139  19.133  13.163   3.696
23395W        W83140  17.780  30.422  14.285
23396W        W83141   7.796  13.748   4.604
23397W        W83142  35.982  40.532  12.982
23398W        W83143  39.950  26.084   0.907
23399W        W83144  11.678   6.245   1.724
23400W        W83145  38.382  38.332  14.784
23401W        W83146   5.353   5.348  13.466
23402W        W83147  21.184   3.385  14.765
23403W        W83148   6.215  39.854  10.441
23404W        W83149  27.020  44.280   1.925
23405W        W83150  18.577   5.218   1.854
23406W        W83151  33.424  20.162   2.298
23407W        W83152  14.116  19.589  12.829
23408W        W83153  27.033   1.912  14.398
23409W        W83154   9.285  12.844   2.288
23410W        W83155  27.034  40.965   4.113
23411W        W83156   0.910  37.496  13.865
23412W        W83157   6.271   1.940  14.949
23413W        W83158   6.696  23.127  12.463
23414W        W83159  25.658  35.919   0.778
23415W        W83160  43.493  22.075  11.422
23416W        W83161  43.800  25.527  12.458
23417W        W83162  11.798  42.987  13.829
23418W        W83163   0.375  31.918  12.086
23419W        W83164   4.848  44.398  11.504
23420W        W83165  37.850  11.761   2.704
23421W        W83166  41.817  33.031  12.885
23422W        W83167  21.573  37.377  10.995
23423W        W83168   7.226  12.634   0.469
23424W        W83169  42.952  33.997  14.420
23425W        W83170  40.410  30.015  12.476
23426W        W83171  17.701  29.069   0.790
23427W        W83172   6.212   1.459  14.309
23428W        W83173  16.315  12.142  13.359
23429W        W83174  29.146  36.483   2.311
23430W        W83175  16.749   3.862   1.374
23431W        W83176   2.736  11.784   3.277
23432W        W83177  43.930   8.265  11.439
23433W        W83178  12.843   9.696   3.738
23434W        W83179  38.014  27.509  11.106
23435W        W83180  12.282  39.009  12.408
23436W        W83181  33.101  16.077   1.851
23437W        W83182  42.526  25.219  14.329
23438W        W83183  14.159   8.681  12.510
23439W        W83184  35.859  29.037   4.637
23440W        W83185  42.866  42.025  14.981
23441W        W83186   1.824  44.869  14.463
23442W        W83187  40.443   0.828   4.336
23443W        W83188  27.101   3.919  10.984
23444W        W83189   5.916  19.256   1.821
23445W        W83190  16.570  13.108  13.882
23446W        W83191   6.785  37.012   2.221
23447W        W83192  29.445  37.577   1.716
23448W        W83193   5.319  41.892  14.881
23449W        W83194   6.306  26.524   2.402
23450W        W83195   5.348   4.307  11.867
23451W        W83196   0.314  44.990  12.552
23452W        W83197   6.715  15.701   4.619
23453W        W83198  12.259  34.391  12.360
23454W        W83199   8.354  38.946   0.891
23455W        W83200  43.920   1.361  10.518
23456W        W83201  43.850  28.105  11.036
23457W        W83202  21.630  39.998  10.961
23458W        W83203  18.722   3.841   2.270
23459W        W83204  10.306   4.408  13.401
23460W        W83205  12.270  34.595  13.450
23461W        W83206  12.219  34.024   3.810
23462W        W83207   7.702  40.860   3.333
23463W        W83208  32.117  41.922   4.727
23464W        W83209   7.892  12.191  11.491
23465W        W83210   7.871  27.981   4.301
23466W        W83211  23.205  36.011  13.340
23467W        W83212   6.416  30.994   2.704
23468W        W83213  30.638  19.210   3.316
23469W        W83214  42.497  36.976  14.440
23470W        W83215  43.959  44.960   3.865
23471W        W83216  39.371  32.471  13.365
23472W        W83217  39.480  17.704   2.824
23473W        W83218   4.308   4.942   3.199
23474W        W83219  24.124  13.672  13.439
23475W        W83220  17.182  20.680  10.414
23476W        W83221   2.897  24.109   1.363
23477W        W83222   0.836  21.601   4.354
23478W        W83223  36.401  22.540  12.459
23479W        W83224   5.701   0.464   0.476
23480W        W83225  15.606  20.032  13.364
23481W        W83226  10.843  13.776  14.890
23482W        W83227  34.612  14.668   2.664
23483W        W83228  37.356   2.239   2.395
23484W        W83229   8.340  11.832   2.327
23485W        W83230  31.544   0.978   0.726
23486W        W83231  10.638  20.606  10.617
23487W        W83232  12.611  18.699   3.753
23488W        W83233  39.885  42.514   3.756
23489W        W83234  27.122  12.125   3.272
23490W        W83235  23.127  37.861  13.863
23491W        W83236   8.165  17.087   0.776
23492W        W83237  39.490  44.003  14.376
23493W        W83238  23.711   9.852   0.354
23494W        W83239  30.610  13.828   4.119
23495W        W83240  40.486  28.625  14.398
23496W        W83241  33.028  28.106  13.020
23497W        W83242  31.110  20.158   4.247
23498W        W83243  22.040  18.674  11.535
23499W        W83244  35.866  40.429  11.097
23500W        W83245  29.071  14.809   0.289
23501W        W83246  12.629  26.026   0.444
23502W        W83247  12.255   6.236   1.760
23503W        W83248  39.983  23.159   4.190
23504W        W83249  10.346  22.673  13.445
23505W        W83250   0.896  20.528  11.076
23506W        W83251  25.676  17.134  12.445
23507W        W83252  38.557  33.975  14.372
23508W        W83253  23.693  21.122  14.438
23509W        W83254  41.000  15.588   1.809
23510W        W83255   7.396  15.625  14.341
23511W        W83256  36.503  11.815   0.783
23512W        W83257  25.982  27.570  13.899
23513W        W83258  27.543  17.095  13.397
23514W        W83259  25.046  39.398   1.795
23515W        W83260   6.783  44.765  12.357
23516W        W83261   2.886  29.937   3.765
23517W        W83262  35.431  19.230  10.611
23518W        W83263   4.934  31.612   2.223
23519W        W83264  22.605   6.752  14.971
23520W        W83265  16.245  20.702  13.956
23521W        W83266  30.087  10.804  10.923
23522W        W83267  27.652  31.133  11.997
23523W        W83268  20.711   0.459  10.472
23524W        W83269  19.611  42.005  12.027
23525W        W83270  44.960   0.317   0.865
23526W        W83271  19.179   2.337   0.304
23527W        W83272  17.649  22.501   0.844
23528W        W83273  20.739  32.049   1.698
23529W        W83274  21.218  14.766   2.833
23530W        W83275  14.792  28.521  11.036
23531W        W83276  17.293  19.116  14.992
23532W        W83277  15.130   0.411   0.794
23533W        W83278  42.961  31.060   1.430
23534W        W83279   2.891  13.151  10.954
23535W        W83280  20.733  41.897   4.811
23536W        W83281  10.679  33.048  11.602
23537W        W83282  14.135  15.257   1.342
23538W        W83283  16.101  20.263  10.912
23539W        W83284  12.321   9.255  13.346
23540W        W83285  13.695  17.670  14.415
23541W        W83286  16.670  29.160  13.326
23542W        W83287   7.367  11.829  12.022
23543W        W83288  25.664   7.359  12.022
23544W        W83289  43.516  28.456   3.269
23545W        W83290  24.503  44.421  13.461
23546W        W83291  39.530  23.736   0.903
23547W        W83292   6.424  20.739  12.050
23548W        W83293  28.039  31.544  13.508
23549W        W83294  41.525  19.285   1.923
23550W        W83295  31.642  11.683  11.924
23551W        W83296  44.864  39.917   3.712
23552W        W83297  34.528  41.467  10.635
23553W        W83298  13.209   3.772  13.450
23554W        W83299  33.590  11.219   0.308
23555W        W83300  41.013  10.306  11.036
23556W        W83301   4.282  23.718  13.046
23557W        W83302  11.215  16.084  12.025
23558W        W83303  12.242  27.557  11.938
23559W        W83304  37.397  13.280   3.707
23560W        W83305  12.182  13.335   0.911
23561W        W83306   4.748  29.954  12.366
23562W        W83307  18.218  26.095   4.629
23563W        W83308  39.531  27.958  12.544
23564W        W83309   1.449  13.352  11.942
23565W        W83310  15.246  38.552  13.443
23566W        W83311  27.660  38.502   2.378
23567W        W83312   4.416  11.225  10.451
23568W        W83313   0.470  41.508  11.980
23569W        W83314  10.338  41.983  11.526
23570W        W83315  35.526  16.777   2.361
23571W        W83316  27.955  22.245  12.985
23572W        W83317  41.414  38.446   1.832
23573W        W83318  28.932  20.189  11.881
23574W        W83319   3.950  26.491   3.654
23575W        W83320  26.520  37.983   0.779
23576W        W83321  28.090  40.822   4.808
23577W        W83322   2.341  41.348   2.406
23578W        W83323  22.051   8.364   0.434
23579W        W83324   9.368  38.505  10.544
23580W        W83325  44.891  24.106  12.873
23581W        W83326  11.850  13.604   2.816
23582W        W83327  41.356  44.396  13.016
23583W        W83328  20.171  38.043   4.259
23584W        W83329  40.356  33.509   3.352
23585W        W83330  44.904   2.386   1.353
23586W        W83331  31.522  33.962  14.504
23587W        W83332  11.268  44.810  13.974
23588W        W83333  37.453  13.676   3.816
23589W        W83334  30.085  36.538  11.129
23590W        W83335  28.955  13.782  14.990
23591W        W83336  15.697  44.990   1.793
23592W        W83337  10.334  27.979   4.276
23593W        W83338   1.762  28.998   0.309
23594W        W83339   3.447  22.714  10.606
23595W        W83340  12.222  16.659  11.380
23596W        W83341  33.089  23.049   2.267
23597W        W83342   7.241  36.390  13.465
23598W        W83343   7.399  22.136  14.000
23599W        W83344  41.395  39.543  12.934
23600W        W83345  15.768  15.756   3.726
23601W        W83346  42.446  20.031   0.759
23602W        W83347  19.222  20.153   1.838
23603W        W83348   3.839  10.708   2.264
23604W        W83349   4.935  10.820   0.808
23605W        W83350  34.569   9.827   0.301
23606W        W83351  22.524  39.421  14.810
23607W        W83352  25.479  11.355  10.499
23608W        W83353  23.094  10.805  10.633
23609W        W83354  28.961   9.665  14.293
23610W        W83355  38.399   0.352  13.917
23611W        W83356  42.892   2.734  12.356
23612W        W83357   4.290  33.475   1.248
23613W        W83358  24.131  30.969   4.255
23614W        W83359  25.651   4.394  14.307
23615W        W83360   5.820   7.832  14.454
23616W        W83361  37.936  37.471   3.800
23617W        W83362  43.364   4.357   2.712
23618W        W83363  33.895  23.995  13.992
23619W        W83364  42.487  26.169  11.414
23620W        W83365  41.449  18.231  13.543
23621W        W83366   0.777  13.127   3.203
23622W        W83367  16.672  24.000  10.625
23623W        W83368  34.424  19.107   3.867
23624W        W83369  33.897  31.115  11.461
23625W        W83370  35.514  29.613   4.775
23626W        W83371   8.677  26.488  13.062
23627W        W83372  21.235  38.881   2.274
23628W        W83373  39.862  15.186   0.269
23629W        W83374  41.304  42.786   0.963
23630W        W83375   3.362  24.686   3.856
23631W        W83376   3.319  36.891   3.184
23632W        W83377  17.105  24.719  13.311
23633W        W83378  41.365  36.983   1.347
23634W        W83379  30.548  12.718   4.212
23635W        W83380  34.409   7.251   3.750
23636W        W83381  10.332   8.829  14.782
23637W        W83382  33.419  43.429   1.240
23638W        W83383  16.083   0.493   0.813
23639W        W83384  30.102  12.721   1.331
23640W        W83385  35.102   5.786  14.968
23641W        W83386  23.145   3.819  13.312
23642W        W83387  12.170   5.898  13.927
23643W        W83388  11.689  25.063  10.897
23644W        W83389   4.710   2.336  14.903
23645W        W83390  17.187  30.620  14.797
23646W        W83391  32.456  44.959  12.967
23647W        W83392   1.279   4.341   3.169
23648W        W83393  33.016  35.895   4.150
23649W        W83394  11.718  39.983   1.363
23650W        W83395  21.104  22.021   0.924
23651W        W83396  25.070  43.414  11.049
23652W        W83397  10.647   9.776  11.478
23653W        W83398  37.867  24.543  13.888
23654W        W83399  17.151  42.297  12.984
23655W        W83400  30.613  14.661   2.849
23656W        W83401  13.133  40.318  10.633
23657W        W83402   3.839  42.429  12.443
23658W        W83403  12.191  32.064  10.450
23659W        W83404  31.014  10.351   1.377
23660W        W83405   7.902  24.483   4.180
23661W        W83406  33.445  17.275  13.004
23662W        W83407   8.867  30.477   0.447
23663W        W83408  32.489  10.298  11.116
23664W        W83409   8.173  36.462  14.315
23665W        W83410   8.852  11.710   3.200
23666W        W83411  41.345  20.037   1.787
23667W        W83412  35.425  19.155   0.308
23668W        W83413  17.766  40.532   3.656
23669W        W83414  43.907  15.696  14.022
23670W        W83415  18.672  26.112  10.463
23671W        W83416  20.198  29.550   4.204
23672W        W83417  21.218  22.114   0.262
23673W        W83418   1.879  33.995   1.222
23674W        W83419  37.920  25.071   5.089
23675W        W83420   0.753  42.486  14.394
23676W        W83421  39.392  24.641   0.368
23677W        W83422   1.869   4.266  13.988
23678W        W83423   4.816   0.893   2.415
23679W        W83424  29.596   7.767  11.918
23680W        W83425  30.957  43.420  12.858
23681W        W83426  23.082  25.588   4.138
23682W        W83427  11.188  19.179  13.432
23683W        W83428   1.753  37.864  11.048
23684W        W83429   9.756  27.002  12.930
23685W        W83430  19.618  21.664   1.283
23686W        W83431  35.044   1.341  10.966
23687W        W83432  40.495   5.877  10.905
23688W        W83433  43.421  21.137  14.792
23689W        W83434   9.674  39.342   1.312
23690W        W83435  20.554   6.327   3.765
23691W        W83436   4.913  23.123   1.248
23692W        W83437  22.694  17.169  13.033
23693W        W83438  33.122  25.051  10.514
23694W        W83439  13.825  43.295   3.333
23695W        W83440   5.305   8.350   3.366
23696W        W83441  12.138  41.517   1.408
23697W        W83442  33.524   5.883  10.046
23698W        W83443  24.582  37.891   3.347
23699W        W83444  17.730  25.544  13.792
23700W        W83445  36.036   5.198  10.924
23701W        W83446  14.199  38.330  12.403
23702W        W83447  38.049  26.011  12.906
23703W        W83448  37.006   7.783   0.324
23704W        W83449  32.113  44.361  14.829
23705W        W83450   6.403  19.245  14.765
23706W        W83451  35.109   6.419  14.492
23707W        W83452  38.471   0.382   1.930
23708W        W83453  38.841  44.901  12.003
23709W        W83454  36.582  35.106   4.635
23710W        W83455  23.654   5.721  12.533
23711W        W83456  35.515   8.726   3.858
23712W        W83457  26.623  10.193  12.865
23713W        W83458  14.324  37.409   9.668
23714W        W83459  21.018  11.203   3.656
23715W        W83460  24.511  28.630   2.283
23716W        W83461  37.044  41.037  14.442
23717W        W83462   8.178   3.794  13.523
23718W        W83463  29.123  35.554  12.503
23719W        W83464  34.566  28.504   0.262
23720W        W83465  27.057   8.228   3.862
23721W        W83466   3.323  33.928  11.427
23722W        W83467  10.677  13.836  12.863
23723W        W83468  42.526  20.091  13.947
23724W        W83469  35.969  33.908   2.739
23725W        W83470  21.157   8.218  13.537
23726W        W83471   5.257  41.901   4.786
23727W        W83472  42.926  24.103  12.077
23728W        W83473  19.715  33.518   0.338
23729W        W83474  28.104   1.344   4.681
23730W        W83475  26.547  42.407  14.514
23731W        W83476   4.881  34.867   3.803
23732W        W83477  13.634  33.493  12.500
23733W        W83478   3.925  42.841   3.385
23734W        W83479  14.702  12.763  10.918
23735W        W83480  31.108  24.629  13.044
23736W        W83481  31.020  11.154  10.924
23737W        W83482  29.485  40.531  14.826
23738W        W83483  20.217  24.606   1.312
23739W        W83484  34.593   0.982   3.768
23740W        W83485  41.862  17.608   3.222
23741W        W83486  13.318  27.577   1.271
23742W        W83487  18.572   0.886   3.308
23743W        W83488  37.955  16.718   4.150
23744W        W83489   3.878  27.482  11.879
23745W        W83490  21.541  29.603  11.113
23746W        W83491  21.540  32.966  14.950
23747W        W83492  31.009  38.518   0.466
23748W        W83493  10.147   0.386   0.360
23749W        W83494   8.236   1.274  14.435
23750W        W83495  14.181  23.684   3.376
23751W        W83496  11.294  20.157  10.988
23752W        W83497  19.093  41.391   0.440
23753W        W83498  25.637  25.598  12.972
23754W        W83499  22.063  13.265   0.894
23755W        W83500   6.384  17.560  11.103
23756W        W83501  37.560  44.949   4.727
23757W        W83502  12.756  43.314  14.379
23758W        W83503  28.611  38.325  10.928
23759W        W83504  26.514  38.418  14.800
23760W        W83505  44.363  20.226   3.765
23761W        W83506  36.378  39.036   0.372
23762W        W83507  40.033  27.520   4.178
23763W        W83508  27.521  19.099   3.380
23764W        W83509  23.671  38.970   0.886
23765W        W83510  26.178  10.652  13.360
23766W        W83511  37.888  15.096  12.922
23767W        W83512   4.851  26.199   0.278
23768W        W83513  33.998  10.257  12.898
23769W        W83514  26.484  10.766   2.266
23770W        W83515  32.001  37.866   3.841
23771W        W83516  38.358   8.714   4.223
23772W        W83517  27.606   2.400  10.520
23773W        W83518  28.954  25.669   3.230
23774W        W83519  13.806  38.441   4.776
23775W        W83520  33.961  29.025  10.565
23776W        W83521  42.978  39.553  12.522
23777W        W83522   4.264  37.002   4.270
23778W        W83523  11.782  14.820   0.329
23779W        W83524   3.231  14.688   4.312
23780W        W83525  28.014  11.225   2.713
23781W        W83526  22.196   1.978  11.880
23782W        W83527  24.578  39.414  11.543
23783W        W83528  28.635  11.370  13.800
23784W        W83529  32.619  35.925   1.440
23785W        W83530  20.114  13.270   0.959
23786W        W83531  27.031  21.745   1.738
23787W        W83532  41.937  26.187   1.714
23788W        W83533  25.067   2.949   4.633
23789W        W83534   5.736   5.260   0.850
23790W        W83535  15.319  23.691   0.858
23791W        W83536  41.315  33.021  14.875
23792W        W83537  17.608  44.867   1.324
23793W        W83538   0.443  21.063   2.312
23794W        W83539   1.435   4.766   1.694
23795W        W83540   2.423  44.486   3.281
23796W        W83541   7.666   0.908  11.584
23797W        W83542  40.032  22.246  12.832
23798W        W83543   8.655  31.452   1.223
23799W        W83544  19.535  24.025  12.889
23800W        W83545  43.924  30.431   3.803
23801W        W83546  15.745  22.213  13.847
23802W        W83547  28.459   7.328  10.408
23803W        W83548  39.979   0.384  10.973
23804W        W83549   1.829   4.319   0.363
23805W        W83550  12.779  36.386   1.782
23806W        W83551  37.911   2.463  12.955
23807W        W83552  28.035  36.506  14.290
23808W        W83553  30.136  33.933  13.365
23809W        W83554   3.276  26.150   1.740
23810W        W83555  33.531  16.579  12.022
23811W        W83556  23.703  12.196   0.478
23812W        W83557  40.052  42.512   2.731
23813W        W83558  30.528  20.145   3.798
23814W        W83559  28.171  27.501   4.652
23815W        W83560  32.041   7.340   4.692
23816W        W83561  19.204   5.223  12.038
23817W        W83562  11.662  36.058  14.291
23818W        W83563  21.151  17.766   3.695
23819W        W83564  33.932  44.342  12.491
23820W        W83565  16.123  15.223  12.424
23821W        W83566  20.127  42.351  13.810
23822W        W83567  18.254  29.460  14.810
23823W        W83568  26.553  44.351  11.123
23824W        W83569  12.848  34.465  11.956
23825W        W83570  15.099  32.484  13.541
23826W        W83571  24.533  41.420   3.803
23827W        W83572  39.940  12.165  11.900
23828W        W83573  30.413  10.752   0.829
23829W        W83574  36.003  43.843   4.758
23830W        W83575   4.781   8.818   0.469
23831W        W83576   8.827  38.449   9.934
23832W        W83577  43.779   2.343   1.711
23833W        W83578  19.205  39.833   0.289
23834W        W83579  22.230  23.542   2.698
23835W        W83580  18.208  31.526  11.105
23836W        W83581  28.677  14.698  12.376
23837W        W83582  10.245  14.774  10.476
23838W        W83583   3.884  24.189   3.303
23839W        W83584  19.174  39.397  11.969
23840W        W83585  31.898   2.906   5.177
23841W        W83586   4.224  33.598   4.799
23842W        W83587   3.444  43.334  11.378
23843W        W83588  41.896  21.082  10.410
23844W        W83589   2.844  10.349   0.790
23845W        W83590   6.730  38.930   2.797
23846W        W83591  12.764  39.961  13.950
23847W        W83592   9.232  39.870   3.380
23848W        W83593  38.980  16.791   2.314
23849W        W83594  22.589  33.459   0.434
23850W        W83595  27.557  13.811  10.944
23851W        W83596  34.107   7.706  12.448
23852W        W83597   7.673  24.049  11.896
23853W        W83598  25.678  42.403   3.819
23854W        W83599  15.626  11.682   0.365
23855W        W83600  19.210  27.052  14.954
23856W        W83601  40.888  30.121   0.383
23857W        W83602  21.532  33.560  12.870
23858W        W83603  29.472  34.934   3.654
23859W        W83604  41.003  34.948   1.286
23860W        W83605   6.692  35.457   1.362
23861W        W83606   6.279  34.611  13.797
23862W        W83607  24.036  22.074   1.324
23863W        W83608  13.289   4.401  12.926
23864W        W83609   6.760  12.703  14.418
23865W        W83610  11.793  27.144   3.726
23866W        W83611  16.620   6.401  11.521
23867W        W83612  32.460   6.824   4.179
23868W        W83613   7.780  16.145   0.838
23869W        W83614  32.075  37.346  13.889
23870W        W83615  17.675  38.999  12.388
23871W        W83616   3.440  32.432  10.969
23872W        W83617  18.164  40.515   3.184
23873W        W83618  31.073  44.505   0.262
23874W        W83619  29.521  42.348  13.424
23875W        W83620  42.884   6.428  12.829
23876W        W83621  42.837  32.447   1.290
23877W        W83622  26.152  37.056   0.941
23878W        W83623   7.186  39.445  11.090
23879W        W83624  32.627  38.438   3.860
23880W        W83625  35.905   8.853   3.254
23881W        W83626  24.069  10.233   4.763
23882W        W83627  29.982  41.864   0.296
23883W        W83628  29.920  12.654   3.163
23884W        W83629  31.000  44.987   4.745
23885W        W83630  19.099  35.379   3.656
23886W        W83631  24.223  21.250  14.822
23887W        W83632  34.031   3.383   2.295
23888W        W83633   9.331  29.561   9.943
23889W        W83634  21.676  15.161   1.783
23890W        W83635  26.016  23.161  11.103
23891W        W83636  27.486  43.766  13.890
23892W        W83637  37.499  32.445   4.687
23893W        W83638  34.372  40.025  12.934
23894W        W83639  12.757  31.936   4.725
23895W        W83640  28.942  23.561  13.508
23896W        W83641  26.614  36.878   3.278
23897W        W83642  33.993  18.103  12.390
23898W        W83643  17.567  16.301  13.976
23899W        W83644  38.908  31.435   0.431
23900W        W83645  19.742   4.345  12.832
23901W        W83646  32.961  26.531   1.363
23902W        W83647  25.487   4.907   3.796
23903W        W83648  34.942  31.023  12.861
23904W        W83649  33.565  15.315  14.993
23905W        W83650  13.655  34.961   4.201
23906W        W83651  43.857   5.215  13.943
23907W        W83652  12.208   7.325  13.056
23908W        W83653   4.779  14.690  12.353
23909W        W83654  27.942  38.896   3.717
23910W        W83655   0.834  41.030   2.824
23911W        W83656  20.066   0.750   1.361
23912W        W83657  37.561  27.647   3.231
23913W        W83658  21.200   9.178  11.882
23914W        W83659  31.611  44.275  13.368
23915W        W83660  16.196  20.096   1.770
23916W        W83661   7.287  26.059   1.430
23917W        W83662  40.493  40.464   2.899
23918W        W83663   4.872   7.411  11.003
23919W        W83664   1.295  23.092  10.137
23920W        W83665  31.530  16.802   3.320
23921W        W83666   3.936  15.255   3.227
23922W        W83667  15.309  39.907   2.734
23923W        W83668   0.448  41.356   0.778
23924W        W83669  11.646   0.310  11.455
23925W        W83670  38.835  22.734   2.244
23926W        W83671   0.483  40.036  13.317
23927W        W83672  41.893  24.190  14.921
23928W        W83673  42.284   6.834  10.519
23929W        W83674  14.604  39.041  10.073
23930W        W83675  38.331  21.611   0.305
23931W        W83676  32.506  35.359   3.315
23932W        W83677  33.906  21.099  13.417
23933W        W83678  15.742  36.951   0.389
23934W        W83679  33.003  29.008  14.953
23935W        W83680  24.666  41.004  13.489
23936W        W83681  15.133   1.418   1.432
23937W        W83682  31.644  35.011  11.991
23938W        W83683  15.790  23.219   4.618
23939W        W83684   7.234  25.546  11.458
23940W        W83685  19.248  43.887  12.078
23941W        W83686   7.397  41.945   2.697
23942W        W83687  21.688  15.215  14.793
23943W        W83688  17.749  23.040   1.848
23944W        W83689  19.187  22.081  11.998
23945W        W83690  15.294  33.046   1.439
23946W        W83691   4.327  25.035  14.002
23947W        W83692   4.806  44.952  14.914
23948W        W83693  34.893  14.327  11.934
23949W        W83694  28.135  26.093  13.335
23950W        W83695  26.496  25.175   0.946
23951W        W83696   9.380   9.712  12.907
23952W        W83697   5.414  22.585  10.997
23953W        W83698  16.312   0.795   1.890
23954W        W83699  12.203  32.896  12.899
23955W        W83700  37.865  20.061  12.435
23956W        W83701  44.793  24.978   4.724
23957W        W83702  35.020  42.817  11.083
23958W        W83703  16.243   3.258   4.150
23959W        W83704  43.340  34.608  11.453
23960W        W83705  31.422   8.274  11.926
23961W        W83706   4.900  31.567  10.639
23962W        W83707  31.906  18.214   0.748
23963W        W83708  22.652  32.403   2.246
23964W        W83709  26.043  17.752   3.378
23965W        W83710  43.367   3.855  13.952
23966W        W83711   3.442  20.553   4.296
23967W        W83712  28.078  32.130   0.336
23968W        W83713  13.739   6.345   4.683
23969W        W83714  22.557  12.160  12.827
23970W        W83715  42.289  31.098  14.361
23971W        W83716  15.595  24.633  11.016
23972W        W83717  29.651   1.404  11.587
23973W        W83718   8.801  26.059   1.260
23974W        W83719  13.641  29.437   1.715
23975W        W83720  40.810  33.088   1.398
23976W        W83721  34.471  29.613   4.736
23977W        W83722  39.480  11.258  12.389
23978W        W83723   5.731   9.210  12.915
23979W        W83724  32.092  22.747  13.056
23980W        W83725   9.219   2.226   2.191
23981W        W83726  25.136  21.063  12.380
23982W        W83727  24.217  41.825  12.410
23983W        W83728  37.395  25.522  11.013
23984W        W83729   9.781  27.514  11.088
23985W        W83730  11.156  44.441  11.040
23986W        W83731  41.427  35.390   2.378
23987W        W83732  39.825  21.172  13.924
23988W        W83733   1.858  41.473  14.805
23989W        W83734  41.925  28.465   0.274
23990W        W83735  36.044  43.003   2.393
23991W        W83736  11.212  30.579   4.355
23992W        W83737  22.204  29.045   1.756
23993W        W83738   6.234  21.147   3.304
23994W        W83739  15.155  20.731  11.458
23995W        W83740  12.740   9.276   0.363
23996W        W83741  18.560   9.298  11.588
23997W        W83742  10.707  26.598   4.192
23998W        W83743  16.718   9.850   0.766
23999W        W83744  24.548  41.849  12.009
24000W        W83745  11.355  29.596   1.709
24001W        W83746  26.060  19.187  14.388
24002W        W83747  42.321  29.026  13.879
24003W        W83748   3.816  20.153  13.460
24004W        W83749  21.745  41.833   3.148
24005W        W83750  32.415   9.344  10.608
24006W        W83751  36.996   8.663   0.264
24007W        W83752   1.948  35.038  12.893
24008W        W83753  33.115  37.881  11.550
24009W        W83754  14.596  21.637  11.058
24010W        W83755   3.294  43.005  14.383
24011W        W83756  18.638  19.081   3.350
24012W        W83757  29.106  40.471   1.366
24013W        W83758   5.814  10.855  14.403
24014W        W83759  23.599   3.801   0.828
24015W        W83760  11.162   8.401  10.449
24016W        W83761   8.260  35.944  14.814
24017W        W83762   2.325  33.956  12.506
24018W        W83763  28.496  43.852   0.772
24019W        W83764   2.421   3.356   0.772
24020W        W83765  44.912   4.214   0.477
24021W        W83766   5.328   6.389   0.889
24022W        W83767  43.929  33.568   0.298
24023W        W83768  23.570  19.087  12.070
24024W        W83769  35.537  28.585  12.919
24025W        W83770  25.025  42.872   1.745
24026W        W83771   9.343  28.130   4.625
24027W        W83772   3.327  15.277   0.476
24028W        W83773  34.399   5.775   2.211
24029W        W83774  41.308  15.270  10.548
24030W        W83775   2.460  15.225   2.273
24031W        W83776   2.820  23.639  10.642
24032W        W83777  13.123  11.282  14.509
24033W        W83778   8.161  20.103  14.297
24034W        W83779  26.461  37.957   4.613
24035W        W83780  13.302  19.080   4.145
24036W        W83781  37.546  30.966  14.440
24037W        W83782  20.235  41.473   1.281
24038W        W83783   0.306  44.826  10.633
24039W        W83784  18.234   4.754   0.887
24040W        W83785  10.225  29.649   4.736
24041W        W83786  12.274   0.843  13.050
24042W        W83787  18.707  35.955   1.364
24043W        W83788  25.543   3.381   1.812
24044W        W83789   5.876  25.084  10.487
24045W        W83790  33.414  27.100   4.350
24046W        W83791  26.048  30.910  13.333
24047W        W83792  42.421  34.084  14.401
24048W        W83793  25.653   9.375  14.380
24049W        W83794  23.152   6.239   1.915
24050W        W83795  34.018   0.483  10.506
24051W        W83796  39.963  17.603   1.305
24052W        W83797   9.384  26.112  14.306
24053W        W83798  21.250   1.435   1.785
24054W        W83799  34.501  29.473  12.429
24055W        W83800  20.703  42.317   4.249
24056W        W83801  33.555  33.119   2.878
24057W        W83802  32.505  18.200  14.909
24058W        W83803  30.982  39.450   4.354
24059W        W83804  18.671  38.360   4.239
24060W        W83805  18.232  21.134   4.187
24061W        W83806  44.283  42.877  13.837
24062W        W83807  26.695  31.554   2.384
24063W        W83808  29.061  22.165  10.411
24064W        W83809  17.264  15.095  11.416
24065W        W83810  19.696  37.565   2.693
24066W        W83811   2.798  33.045   0.330
24067W        W83812  32.970  36.966   3.225
24068W        W83813   1.385  44.282  13.512
24069W        W83814  34.466  42.400  11.506
24070W        W83815  13.640  29.624   4.203
24071W        W83816  35.098  23.616   4.211
24072W        W83817  37.982   4.363  13.545
24073W        W83818  35.513  20.757   1.248
24074W        W83819  41.908  30.480   9.938
24075W        W83820  33.901  14.285  14.958
24076W        W83821  13.206  15.088   2.833
24077W        W83822  18.222  44.813  11.441
24078W        W83823  28.485  43.915  11.880
24079W        W83824  36.475   0.483  13.405
24080W        W83825  26.957  13.310   1.841
24081W        W83826   5.839   0.362  12.090
24082W        W83827  28.448  14.250   2.863
24083W        W83828  16.264  19.761   1.845
24084W        W83829   0.776  36.590  11.527
24085W        W83830  44.414  33.408   3.855
24086W        W83831  37.396   3.454  13.425
24087W        W83832   6.386   5.295  11.570
24088W        W83833  36.077   7.872  11.609
24089W        W83834  21.239  31.940  11.480
24090W        W83835   3.215  42.444  12.911
24091W        W83836  11.214  41.536   4.822
24092W        W83837   6.369  30.982  12.388
24093W        W83838  34.448  23.078   4.610
24094W        W83839  21.595  32.091   1.347
24095W        W83840  36.392  29.531   5.129
24096W        W83841  14.319  13.713   0.317
24097W        W83842  30.999  35.559   3.296
24098W        W83843  38.391  41.904  10.598
24099W        W83844  15.280  25.077   1.880
24100W        W83845  11.221  43.012   2.715
24101W        W83846  13.351  39.030   3.818
24102W        W83847  19.169  20.680  10.525
24103W        W83848  19.216  10.867   0.746
24104W        W83849  41.372  12.821  10.946
24105W        W83850  34.959  24.057  14.854
24106W        W83851   6.908  26.551  11.563
24107W        W83852  20.614  17.561   2.804
24108W        W83853  27.671  38.923  14.478
24109W        W83854  36.061   8.897   4.305
24110W        W83855   0.493  32.905  14.886
24111W        W83856  43.392  25.218   0.794
24112W        W83857  17.306  17.219   1.359
24113W        W83858  31.974  18.292   4.606
24114W        W83859  15.661  24.187   1.224
24115W        W83860  39.531  32.057  11.971
24116W        W83861  13.188  20.743  10.946
24117W        W83862  24.126  24.122  13.989
24118W        W83863  15.581  42.315   1.329
24119W        W83864  11.338  41.973   4.163
24120W        W83865  28.505  18.619   1.275
24121W        W83866  30.990   9.272   0.944
24122W        W83867  15.170  10.329  11.995
24123W        W83868  23.703  44.446   3.836
24124W        W83869  43.897  12.130   3.798
24125W        W83870   0.768   0.869   4.353
24126W        W83871  39.825  32.518  11.915
24127W        W83872  44.463  39.441   3.382
24128W        W83873  19.087  41.384   3.861
24129W        W83874  11.622  21.204  11.111
24130W        W83875   2.841  19.704  12.899
24131W        W83876   7.218  31.905  13.368
24132W        W83877  35.599  37.084  13.447
24133W        W83878  36.439  31.030   3.225
24134W        W83879  12.703   4.230  10.524
24135W        W83880  12.622  37.032  11.896
24136W        W83881  42.951  17.698  11.574
24137W        W83882  36.945  10.876  11.855
24138W        W83883   3.398  34.545  12.351
24139W        W83884  20.151  21.157   4.680
24140W        W83885  32.972  16.140  11.395
24141W        W83886  28.671  29.091  14.414
24142W        W83887   7.696   0.845   0.957
24143W        W83888  15.719  40.812  12.362
24144W        W83889  25.061  39.961   3.844
24145W        W83890  22.024  13.708  13.873
24146W        W83891   7.252  36.369   1.907
24147W        W83892  17.212  16.802  11.038
24148W        W83893  23.572  18.678  12.879
24149W        W83894   4.285  33.900   2.405
24150W        W83895  36.403  31.490   1.346
24151W        W83896  20.567  11.328  11.861
24152W        W83897  41.038  25.488   1.250
24153W        W83898  30.932  16.689  14.364
24154W        W83899   6.391   4.371   2.226
24155W        W83900   0.263  15.245   2.838
24156W        W83901  42.465  25.639  14.898
24157W        W83902  23.600   9.280  14.335
24158W        W83903  32.401  21.152  11.968
24159W        W83904  10.841  29.529  14.802
24160W        W83905  35.974  18.144   4.314
24161W        W83906  12.273  24.673   0.401
24162W        W83907  34.573  18.099  10.913
24163W        W83908  42.798  11.812   4.314
24164W        W83909  21.654  17.180   3.769
24165W        W83910  13.129  22.625   0.297
24166W        W83911  19.196   6.694   2.847
24167W        W83912   2.815   5.372  10.470
24168W        W83913  10.157  33.533  12.833
24169W        W83914  11.747  18.261  11.883
24170W        W83915  10.756  31.609   2.377
24171W        W83916  41.886   0.761  14.399
24172W        W83917  16.247  41.968   3.231
24173W        W83918   7.667  16.183   2.259
24174W        W83919  26.493  19.656   2.798
24175W        W83920  42.924  18.163   1.253
24176W        W83921  30.487   3.256  10.602
24177W        W83922  38.046   0.895  13.308
24178W        W83923  21.714   7.246  14.846
24179W        W83924  30.016   0.931  14.318
24180W        W83925  27.166  27.533  14.310
24181W        W83926  33.539   7.783  14.871
24182W        W83927  32.927  33.919   2.864
24183W        W83928  26.461  20.091  14.808
24184W        W83929  13.260   6.258  10.990
24185W        W83930  34.407  36.357   0.375
24186W        W83931  43.885   2.884   2.698
24187W        W83932  14.319  32.571   5.157
24188W        W83933  16.219  36.407  13.025
24189W        W83934  18.682  15.136   2.663
24190W        W83935  26.544  44.776   2.769
24191W        W83936  44.901  28.169  14.505
24192W        W83937  44.849  32.624   0.278
24193W        W83938  15.135  23.600   1.339
24194W        W83939  13.256  38.076  12.059
24195W        W83940  23.641  19.543  10.515
24196W        W83941   0.860   4.894   1.906
24197W        W83942  42.504  22.212  10.590
24198W        W83943   9.192  19.617  13.450
24199W        W83944  40.845  18.194   1.848
24200W        W83945   9.734  29.598   3.151
24201W        W83946  43.806   1.301   1.291
24202W        W83947   6.391  14.697   3.836
24203W        W83948  38.529   1.931   4.760
24204W        W83949  42.833  41.430  10.058
24205W        W83950  16.640  10.643  11.094
24206W        W83951  17.195  42.955  10.519
24207W        W83952  26.019  30.091  10.539
24208W        W83953  28.533  13.157  14.846
24209W        W83954  26.541  21.605   1.919
24210W        W83955  11.824  35.060  14.992
24211W        W83956  21.064  22.066  11.527
24212W        W83957  11.823  33.549  11.057
24213W        W83958  29.034  28.134  13.966
24214W        W83959  24.608  38.486  11.518
24215W        W83960  30.517  18.112   9.969
24216W        W83961   3.908  38.033  13.440
24217W        W83962  12.256  15.655  13.434
24218W        W83963   7.360  34.112  13.434
24219W        W83964   7.897  19.584   5.139
24220W        W83965  43.808   3.460   4.750
24221W        W83966   4.413  20.127  12.478
24222W        W83967  18.262  30.943  10.443
24223W        W83968   1.964  28.988  12.547
24224W        W83969   5.254  27.502  11.120
24225W        W83970  22.653  32.095   0.735
24226W        W83971   4.912  22.038  11.987
24227W        W83972  41.379   9.287   3.704
24228W        W83973  16.131  19.086  12.469
24229W        W83974  33.990  22.634   1.898
24230W        W83975  21.220   9.387  13.379
24231W        W83976   0.779  31.969   4.755
24232W        W83977  38.358  11.240   2.316
24233W        W83978  41.941  39.923  13.429
24234W        W83979  15.717  25.519  12.489
24235W        W83980  15.153  13.771   3.150
24236W        W83981  26.593  36.986   2.835
24237W        W83982  37.486  39.432  11.495
24238W        W83983  14.790   7.720  11.454
24239W        W83984   2.841  22.646   1.880
24240W        W83985  39.314  24.221  13.454
24241W        W83986  42.007  25.681  10.998
24242W        W83987  42.796  33.417   3.672
24243W        W83988  42.843  24.145   5.101
24244W        W83989  42.893   8.239   3.805
24245W        W83990  27.153  26.531  11.548
24246W        W83991   4.913  36.870   3.711
24247W        W83992  36.953  15.201   0.908
24248W        W83993  34.914  31.035  12.404
24249W        W83994  26.522  11.816   4.684
24250W        W83995  12.698  12.811  10.959
24251W        W83996  25.705   4.438   4.778
24252W        W83997   9.874  12.294   3.379
24253W        W83998  17.736  36.960  12.081
24254W        W83999  12.186  16.735  13.409
24255W        W84000  44.780  15.806   2.285
24256W        W84001  40.863   2.295  10.544
24257W        W84002   6.250  25.165  13.484
24258W        W84003  37.443  31.419   3.306
24259W        W84004  44.416   8.166   1.228
24260W        W84005  36.543  10.227  12.353
24261W        W84006   5.241  17.246  10.978
24262W        W84007  15.707  42.892   0.429
24263W        W84008  19.189  28.469   1.388
24264W        W84009  25.201  21.088   2.179
24265W        W84010  17.290  20.583  14.892
24266W        W84011  30.657   6.421  11.124
24267W        W84012   6.346  23.204  11.087
24268W        W84013  29.033   3.439  10.483
24269W        W84014  24.506  41.997   3.747
24270W        W84015  39.377   7.333   5.298
24271W        W84016  39.411  39.005   1.872
24272W        W84017  32.886   0.766  13.530
24273W        W84018  21.580  42.378  10.592
24274W        W84019  41.458   4.398   2.187
24275W        W84020  39.431  25.079   4.300
24276W        W84021   7.366  26.063  14.780
24277W        W84022  28.099  23.664  12.904
24278W        W84023  23.219   3.330  12.394
24279W        W84024  40.451  18.654  14.392
24280W        W84025  36.854  44.356  12.037
24281W        W84026  40.316  13.672   3.230
24282W        W84027  19.561  23.519  13.844
24283W        W84028  29.954   0.287  10.915
24284W        W84029  30.110  10.340   1.854
24285W        W84030  16.279  29.160  12.936
24286W        W84031  32.911  38.929  14.917
24287W        W84032  26.484   0.316   0.452
24288W        W84033  39.811  15.806   4.162
24289W        W84034  10.800   7.766   1.858
24290W        W84035   5.846  29.137  12.474
24291W        W84036  22.050  26.672  13.503
24292W        W84037  17.194  25.497  10.571
24293W        W84038  32.555   5.245   2.717
24294W        W84039   4.795  26.500   2.367
24295W        W84040   7.867  14.611   3.353
24296W        W84041   7.863   6.745   1.319
24297W        W84042  23.517  34.398  11.091
24298W        W84043  18.715  18.760  14.771
24299W        W84044   5.413   4.396   3.797
24300W        W84045  37.557  22.638   1.916
24301W        W84046  31.407  28.050   4.163
24302W        W84047  12.752  26.645  12.513
24303W        W84048  32.131  42.803  12.829
24304W        W84049   8.796  39.518  13.999
24305W        W84050  14.312  21.067   0.752
24306W        W84051  14.729  42.934  14.931
24307W        W84052  28.669  24.675   4.308
24308W        W84053  21.257   8.751  11.906
24309W        W84054  17.609  18.699  11.383
24310W        W84055  32.579   8.847   5.731
24311W        W84056  39.904  16.117  11.899
24312W        W84057  13.338   7.912   2.871
24313W        W84058  39.000  26.696  13.961
24314W        W84059  20.565  10.316   1.714
24315W        W84060   7.267  24.481  12.052
24316W        W84061  30.521  34.101  12.980
24317W        W84062  36.417  30.449   9.989
24318W        W84063  23.093  14.604  14.780
24319W        W84064  30.462  17.299  14.372
24320W        W84065  29.131  44.769   0.414
24321W        W84066   9.722  34.501  11.963
24322W        W84067  33.578  41.000  12.051
24323W        W84068  28.473  31.974   4.279
24324W        W84069   8.692  23.131  10.995
24325W        W84070  11.680  19.096   4.170
24326W        W84071   6.835  21.107  11.952
24327W        W84072  26.081   6.205  12.916
24328W        W84073   2.278  42.467  11.571
24329W        W84074  20.653  30.114  13.351
24330W        W84075  35.446  25.575  12.840
24331W        W84076  21.195  33.032  11.559
24332W        W84077  40.415  34.111  13.381
24333W        W84078  27.573  31.410  11.518
24334W        W84079  41.508  10.716   1.935
24335W        W84080  35.933   8.681   2.226
24336W        W84081  13.741  12.717  14.320
24337W        W84082  13.673  29.431   3.656
24338W        W84083  39.432   0.803   4.792
24339W        W84084  34.888  31.517  14.476
24340W        W84085  27.000  33.028  11.075
24341W        W84086  17.212  20.716  13.541
24342W        W84087  22.564  11.842   0.798
24343W        W84088   9.317  26.044  11.384
24344W        W84089  33.878  26.080  11.881
24345W        W84090  24.156  40.973   1.823
24346W        W84091  12.617  40.874   1.743
24347W        W84092  18.648   5.278   4.289
24348W        W84093  28.646  33.101   2.228
24349W        W84094  28.999  14.225  12.487
24350W        W84095  14.605  19.760   2.806
24351W        W84096  44.971  12.660  10.558
24352W        W84097  17.146   9.665  11.548
24353W        W84098   3.345  43.900  13.957
24354W        W84099  43.381   4.810  12.027
24355W        W84100  16.206  40.966   3.782
24356W        W84101   1.933  32.116  13.997
24357W        W84102   3.775  17.694  14.383
24358W        W84103   2.394  44.932   4.203
24359W        W84104  18.688   2.868   4.143
24360W        W84105   1.758  22.998  12.020
24361W        W84106  15.693   0.438   1.905
24362W        W84107  42.777  36.999  10.065
24363W        W84108   5.398   2.949  12.883
24364W        W84109  29.562  41.422  13.411
24365W        W84110  17.151   2.825  11.378
24366W        W84111  39.492  35.532  13.061
24367W        W84112  15.739  31.425  10.025
24368W        W84113  26.660  36.402   1.853
24369W        W84114   7.677  35.454  14.514
24370W        W84115   9.282  12.331  11.123
24371W        W84116  41.032  10.325  13.360
24372W        W84117  12.136  43.960   1.424
24373W        W84118  44.440  17.075   3.654
24374W        W84119  23.695  21.109  11.515
24375W        W84120  42.776  36.471  12.891
24376W        W84121   0.267  15.791  11.958
24377W        W84122   9.782  19.709  14.464
24378W        W84123  22.538   5.227   2.228
24379W        W84124   1.848  44.833   1.731
24380W        W84125  22.116  42.782   3.366
24381W        W84126  39.901   8.285   0.290
24382W        W84127  15.124  23.713  12.051
24383W        W84128  39.902  27.049   3.355
24384W        W84129   3.304  19.138  14.013
24385W        W84130  35.865  22.616  11.892
24386W        W84131  18.084  31.942   2.295
24387W        W84132  42.931  30.520  13.458
24388W        W84133  44.477   9.277   1.885
24389W        W84134  34.904  44.397   5.269
24390W        W84135  16.231  23.991   3.753
24391W        W84136  38.871   7.411  11.390
24392W        W84137   1.289  15.709  11.520
24393W        W84138   4.206  34.556   0.863
24394W        W84139  18.723  24.671  13.006
24395W        W84140  22.745  29.450  11.550
24396W        W84141  41.315  19.646   0.872
24397W        W84142   4.896   3.878   3.634
24398W        W84143  36.050  44.425   2.329
24399W        W84144  39.370   4.333  12.510
24400W        W84145  41.329   2.452   0.757
24401W        W84146  34.107  11.172   0.866
24402W        W84147   6.723  35.881  13.829
24403W        W84148   1.318  21.611  12.004
24404W        W84149  26.994  36.511  14.028
24405W        W84150   1.418   8.163   3.731
24406W        W84151   0.270   4.717  14.963
24407W        W84152   0.753  39.017  12.091
24408W        W84153  31.149  40.422   2.214
24409W        W84154  24.196  19.543   1.917
24410W        W84155  10.366  16.680  13.957
24411W        W84156  11.638   3.823  11.469
24412W        W84157   2.396  13.140   4.633
24413W        W84158  42.283   9.291  12.994
24414W        W84159   2.264  32.575  12.958
24415W        W84160  21.162  21.184  12.001
24416W        W84161  37.528  42.453   2.275
24417W        W84162  16.733  30.127   2.395
24418W        W84163   4.237  16.137  11.976
24419W        W84164  41.984  26.700  11.945
24420W        W84165  15.260   2.372   1.242
24421W        W84166   9.298   3.325   4.259
24422W        W84167   0.283  23.720  14.850
24423W        W84168  14.609  26.545   3.243
24424W        W84169  12.284  19.178  13.522
24425W        W84170  31.068  29.458  13.977
24426W        W84171  30.026  39.975  14.881
24427W        W84172  44.981  40.031  11.467
24428W        W84173  37.410  23.622  11.870
24429W        W84174  36.371  42.454  11.443
24430W        W84175   8.880   0.493   0.888
24431W        W84176   2.805  13.682  13.498
24432W        W84177  39.063  26.966   3.668
24433W        W84178  31.056  32.584   0.776
24434W        W84179  21.214  32.120  11.094
24435W        W84180  29.425  34.552  14.919
24436W        W84181  14.150  39.353  14.314
24437W        W84182  25.183  31.565  13.328
24438W        W84183  44.327  41.906   1.796
24439W        W84184  40.033  25.993  14.864
24440W        W84185  23.605  35.594  14.470
24441W        W84186   7.309  35.065  13.045
24442W        W84187  41.389  40.890  10.635
24443W        W84188  27.473  16.271  12.559
24444W        W84189   1.280  10.851   2.259
24445W        W84190  35.550  43.873  13.961
24446W        W84191  29.545  37.356   5.090
24447W        W84192  10.146   9.165  12.059
24448W        W84193   8.767  26.462   4.309
24449W        W84194  32.433  14.832   2.860
24450W        W84195  38.835  14.155  10.140
24451W        W84196  39.829   3.946  11.411
24452W        W84197  13.600  18.092  13.936
24453W        W84198   1.955  38.911  12.096
24454W        W84199  21.618  11.653   2.182
24455W        W84200  34.512  24.544   0.427
24456W        W84201   9.389  24.087   2.886
24457W        W84202  21.601  15.720  14.276
24458W        W84203  11.694  31.475   1.212
24459W        W84204  42.854  10.199  12.390
24460W        W84205  10.821  37.058   3.737
24461W        W84206  44.936  31.451   3.842
24462W        W84207  24.619  34.466   3.675
24463W        W84208  13.236  12.333   4.811
24464W        W84209  43.979  44.486   0.779
24465W        W84210  28.623   9.251  13.479
24466W        W84211   1.395  41.441  14.377
24467W        W84212  36.523   9.718   4.815
24468W        W84213  40.810  31.006  11.059
24469W        W84214  18.200   6.812  12.385
24470W        W84215  43.403  12.144  14.515
24471W        W84216  40.022  29.646   0.736
24472W        W84217  39.397  13.139   2.729
24473W        W84218  13.334  22.190   0.297
24474W        W84219   6.228  27.137  10.992
24475W        W84220  36.894  18.151  12.396
24476W        W84221  13.151  43.477   1.260
24477W        W84222  38.019  12.265  14.809
24478W        W84223  33.952  23.035  13.397
24479W        W84224   6.697  32.019  12.831
24480W        W84225  31.924  30.133   5.208
24481W        W84226  17.181  21.034  14.434
24482W        W84227  35.963  25.101   3.364
24483W        W84228  18.790  26.994   0.394
24484W        W84229  29.514  35.377   3.251
24485W        W84230  38.357   0.293  10.493
24486W        W84231  21.679  21.754   3.362
24487W        W84232  32.510   2.337  10.921
24488W        W84233  39.931  18.781   0.834
24489W        W84234  14.221   9.819   0.454
24490W        W84235   7.721   7.868   2.384
24491W        W84236   0.359  10.808   4.833
24492W        W84237  16.180  27.181  13.995
24493W        W84238  25.170  20.211  11.555
24494W        W84239  16.679  15.637   2.377
24495W        W84240  41.804  39.492  10.429
24496W        W84241   3.845  12.663   4.305
24497W        W84242  35.538  21.048   3.692
24498W        W84243   9.189  36.389   0.272
24499W        W84244  11.830  18.080  14.876
24500W        W84245  32.954  10.753   2.201
24501W        W84246   5.199  36.063  11.018
24502W        W84247   1.263  44.987  11.995
24503W        W84248   7.300  37.482  14.331
24504W        W84249  13.817  31.542   4.833
24505W        W84250  19.612  24.181  13.380
24506W        W84251  43.914  36.058  13.822
24507W        W84252   3.902  37.032  15.000
24508W        W84253  37.398   0.383  14.332
24509W        W84254  44.373   1.464   3.748
24510W        W84255  42.019  24.621   2.365
24511W        W84256   3.911   3.339  10.900
24512W        W84257  22.582  32.539   1.325
24513W        W84258  17.595  17.165   3.149
24514W        W84259  25.596  22.577   3.868
24515W        W84260  41.835  26.175  12.475
24516W        W84261  19.254  29.030  12.450
24517W        W84262  12.283   9.643  12.512
24518W        W84263  24.565  19.683   1.866
24519W        W84264  20.606  23.735  14.948
24520W        W84265   8.183  35.475  12.982
24521W        W84266  23.995  27.583  14.027
24522W        W84267  35.517  17.203   3.720
24523W        W84268  16.657  35.535   1.265
24524W        W84269  39.480  13.281  14.415
24525W        W84270   7.388  23.693   0.945
24526W        W84271  43.417  29.920   1.227
24527W        W84272  29.163  13.603  13.341
24528W        W84273  41.357  40.019  11.051
24529W        W84274  11.198  38.049  11.949
24530W        W84275  26.149  27.676   0.768
24531W        W84276  32.959  43.779  14.391
24532W        W84277  17.732  19.140  11.982
24533W        W84278  34.008  40.044   2.750
24534W        W84279  13.220  21.175  10.949
24535W        W84280   2.849  44.312   1.400
24536W        W84281  32.008  33.459  14.483
24537W        W84282  18.207  13.721   0.294
24538W        W84283  22.044  15.305   1.764
24539W        W84284  18.261  12.298  14.440
24540W        W84285  15.814  28.508  13.013
24541W        W84286  30.635   8.282  13.949
24542W        W84287  32.898   5.692  12.856
24543W        W84288   9.793  13.677  11.571
24544W        W84289  21.213   9.365   2.886
24545W        W84290   8.714   5.900  11.117
24546W        W84291   9.729   8.845   5.198
24547W        W84292   0.867  19.065   9.576
24548W        W84293  40.504   8.725   1.417
24549W        W84294  13.274  25.541  14.958
24550W        W84295   3.420  29.666   3.249
24551W        W84296  28.983  28.089  12.935
24552W        W84297  23.654  30.048   1.331
24553W        W84298  27.456  26.038   4.158
24554W        W84299  44.411   2.262   0.770
24555W        W84300  29.952  15.620  13.345
24556W        W84301  17.659   3.943   2.793
24557W        W84302   9.756  29.033  13.964
24558W        W84303  12.247  38.868  10.910
24559W        W84304  28.184  41.406   5.164
24560W        W84305  24.625  29.157   2.785
24561W        W84306  31.512  25.119   0.963
24562W        W84307   3.436  19.689  13.029
24563W        W84308  24.183   1.834   2.700
24564W        W84309  18.131  43.446   1.362
24565W        W84310  33.875  12.670   1.415
24566W        W84311  41.875  10.298  11.968
24567W        W84312  13.314  18.118   2.700
24568W        W84313  14.677   5.367   4.663
24569W        W84314   4.339   9.267  11.984
24570W        W84315   6.718  27.136  14.822
24571W        W84316  36.078   7.748   1.783
24572W        W84317  40.447  33.387   3.751
24573W        W84318  42.010  24.131  10.609
24574W        W84319  21.156  38.454   4.668
24575W        W84320  35.421  25.499   2.191
24576W        W84321  11.772   5.721  11.397
24577W        W84322   7.315  35.079   0.855
24578W        W84323   3.235  41.467   3.778
24579W        W84324   1.276  27.567   4.803
24580W        W84325  31.921  39.374   4.726
24581W        W84326  37.963  40.974  14.496
24582W        W84327  16.087  30.625   1.843
24583W        W84328  31.602  27.008   2.790
24584W        W84329  31.061   5.214  14.446
24585W        W84330  44.828   7.187  14.349
24586W        W84331  25.650   1.341   5.128
24587W        W84332  42.931   5.328   3.805
24588W        W84333  29.484  19.054   1.727
24589W        W84334  40.522   9.769   4.769
24590W        W84335   4.424  44.282   4.634
24591W        W84336  27.105   9.841  10.486
24592W        W84337   4.373  17.738  14.462
24593W        W84338  37.568  39.370   0.446
24594W        W84339  23.234  22.012  12.418
24595W        W84340  23.056  36.409  13.358
24596W        W84341   0.799   5.780   0.762
24597W        W84342  15.822  39.049  13.341
24598W        W84343   7.804  42.315   1.431
24599W        W84344  42.029   4.333   0.473
24600W        W84345  16.238  42.023  11.476
24601W        W84346  44.378  41.827  10.141
24602W        W84347  13.214  11.848  14.332
24603W        W84348  37.054   3.303   1.816
24604W        W84349   8.872  34.966   5.299
24605W        W84350   3.394  43.338  12.005
24606W        W84351  41.805  30.054   0.302
24607W        W84352  26.531  16.602  10.548
24608W        W84353  42.873  26.552   2.381
24609W        W84354   0.279  36.530  13.441
24610W        W84355  44.821  34.480   1.327
24611W        W84356  13.160  15.154  14.340
24612W        W84357  15.800   6.891   0.339
24613W        W84358  44.484  25.988   3.772
24614W        W84359  31.146  28.938  13.958
24615W        W84360   9.833  16.611   2.248
24616W        W84361  35.398  27.975  10.933
24617W        W84362  24.716  37.437   4.122
24618W        W84363  34.887  42.791  12.558
24619W        W84364   6.312  18.215  12.015
24620W        W84365  12.669  20.046  12.880
24621W        W84366  28.110  17.094  12.538
24622W        W84367   7.738  15.683  10.097
24623W        W84368   0.839   2.378  14.496
24624W        W84369  21.726   5.360  14.789
24625W        W84370  19.637  34.017  11.500
24626W        W84371  20.553  39.417   0.957
24627W        W84372  36.384  30.611  14.957
24628W        W84373  21.594  36.404  12.941
24629W        W84374   7.383   0.263  12.494
24630W        W84375  25.983  44.003  14.817
24631W        W84376  42.792  31.113   3.816
24632W        W84377  38.421  41.475  12.032
24633W        W84378  10.207  28.024  12.985
24634W        W84379   8.865  22.117  13.362
24635W        W84380  32.492  38.004   3.267
24636W        W84381  19.682  23.559  12.856
24637W        W84382   1.426  11.350  13.913
24638W        W84383  33.107  21.200   0.431
24639W        W84384  27.078   1.324  14.888
24640W        W84385  30.930  22.563  12.375
24641W        W84386  27.162  43.342   1.320
24642W        W84387  25.556  22.614  12.064
24643W        W84388  19.046   7.410  12.862
24644W        W84389  32.525  26.609  11.380
24645W        W84390  21.253  29.512   4.689
24646W        W84391  24.493  18.104   0.935
24647W        W84392   7.259  31.114  11.109
24648W        W84393  43.963   1.420   1.782
24649W        W84394  21.523  10.641   1.700
24650W        W84395  15.660   2.412   4.606
24651W        W84396  32.526  16.232  13.967
24652W        W84397  41.358  41.379  13.395
24653W        W84398  24.580  39.883   0.289
24654W        W84399  23.601  11.351   0.270
24655W        W84400  21.104  41.400  10.531
24656W        W84401   6.361   6.686  13.439
24657W        W84402   1.746   5.783  11.513
24658W        W84403  30.627  35.584  14.297
24659W        W84404  36.552  22.142   4.799
24660W        W84405  22.173  18.075   4.336
24661W        W84406  37.995   6.919  10.404
24662W        W84407   1.378  41.910  10.430
24663W        W84408   5.420  15.586   5.195
24664W        W84409  21.688  31.567  13.813
24665W        W84410   1.426   6.201  11.533
24666W        W84411  18.289  43.953   2.409
24667W        W84412  38.892   5.800  12.841
24668W        W84413  14.302   7.740   0.278
24669W        W84414  11.360  23.582   1.335
24670W        W84415  32.138  41.477   3.317
24671W        W84416   9.301   7.221  10.943
24672W        W84417  10.271  38.882   0.461
24673W        W84418  34.088  40.381   3.378
24674W        W84419   3.294  39.373   0.928
24675W        W84420  18.720  11.824   2.359
24676W        W84421   6.372   4.225  13.992
24677W        W84422  32.902  31.536   2.331
24678W        W84423  20.733  42.427   4.616
24679W        W84424  43.461  19.218   0.459
24680W        W84425  22.620  10.726  11.452
24681W        W84426  16.651  41.813  14.283
24682W        W84427  22.509   3.310   1.912
24683W        W84428  24.090  43.796  13.856
24684W        W84429  40.030  27.122  11.436
24685W        W84430  12.771  39.345   2.724
24686W        W84431  14.237   8.889  13.384
24687W        W84432   4.710  30.135  10.078
24688W        W84433  38.548   3.234   4.115
24689W        W84434  34.394  14.721   4.799
24690W        W84435   9.247  25.175   3.809
24691W        W84436  28.103  14.145   0.767
24692W        W84437  10.756  18.229   1.749
24693W        W84438   3.292  29.978   5.276
24694W        W84439  17.100  43.491  13.518
24695W        W84440  19.064  43.905   4.817
24696W        W84441   3.265  12.812   0.310
24697W        W84442  33.982  28.489   9.934
24698W        W84443  20.180  16.619  12.905
24699W        W84444   1.842   5.243   4.276
24700W        W84445  37.045   1.251  10.619
24701W        W84446   3.444  36.969   4.302
24702W        W84447   4.855  13.111  12.079
24703W        W84448  18.053  41.909   2.804
24704W        W84449  38.418  23.064   3.313
24705W        W84450  21.216  18.613  14.854
24706W        W84451  39.853  35.405   0.797
24707W        W84452   3.266  35.057   0.446
24708W        W84453  37.390  10.285  12.366
24709W        W84454   8.689  18.590  11.374
24710W        W84455   4.855  44.966   2.825
24711W        W84456  35.535  13.789   4.834
24712W        W84457  10.307   8.671   0.958
24713W        W84458  32.003   7.395  12.923
24714W        W84459  14.168  25.583  13.882
24715W        W84460  32.898  43.430  10.892
24716W        W84461  18.292  23.196   2.268
24717W        W84462   7.728  27.499  11.556
24718W        W84463   3.873  29.955  13.837
24719W        W84464  23.708  26.697  10.617
24720W        W84465  14.193  18.612   3.172
24721W        W84466   8.666  16.588  12.551
24722W        W84467  20.179  43.852  10.567
24723W        W84468  16.616  26.596   0.279
24724W        W84469  21.657  13.639   5.135
24725W        W84470  26.658  32.611  11.602
24726W        W84471   6.715  23.100  11.948
24727W        W84472  18.562  43.449   2.281
24728W        W84473   0.763  12.796   9.924
24729W        W84474  33.550  36.378  11.026
24730W        W84475  20.232  26.021  11.476
24731W        W84476  15.313  12.327  13.052
24732W        W84477  30.909  12.790   0.408
24733W        W84478  30.082  41.509  14.505
24734W        W84479  36.395  40.450  11.599
24735W        W84480  39.318  37.437  14.025
24736W        W84481  35.546  14.315   3.209
24737W        W84482   2.260   5.299   1.839
24738W        W84483  40.030  10.869   0.854
24739W        W84484  18.729  15.642  11.891
24740W        W84485   0.931  38.998   4.233
24741W        W84486  17.093  37.369   9.552
24742W        W84487  15.269  13.787  10.537
24743W        W84488  40.544  24.227  13.041
24744W        W84489  44.481  31.989   0.756
24745W        W84490  30.000   0.755  13.432
24746W        W84491  16.302  14.719   3.651
24747W        W84492  13.633  10.680   4.697
24748W        W84493   7.909   6.809   2.403
24749W        W84494   2.887  42.476  10.428
24750W        W84495  40.956   7.824   0.481
24751W        W84496  21.086  39.517   2.774
24752W        W84497  34.000   1.809   2.411
24753W        W84498  36.956  22.206  12.559
24754W        W84499   9.650  40.946   3.374
24755W        W84500  24.539  23.527  14.887
24756W        W84501  11.793  42.841   4.157
24757W        W84502  19.248   1.823  12.931
24758W        W84503  34.947  35.908   0.801
24759W        W84504  24.532  10.855  13.332
24760W        W84505  10.335  39.438   1.899
24761W        W84506  37.440  28.526   1.211
24762W        W84507  35.407  26.604  14.335
24763W        W84508   3.824  21.668  11.541
24764W        W84509   0.757  39.952  10.602
24765W        W84510  42.337  15.279  10.934
24766W        W84511  18.220  10.289  13.881
24767W        W84512  10.734  44.457   0.253
24768W        W84513   5.389  19.239   4.676
24769W        W84514   2.913  43.279  10.485
24770W        W84515   8.277  16.676  10.907
24771W        W84516  14.231  31.539   0.751
24772W        W84517   1.282  29.492  13.314
24773W        W84518  40.461   6.905  14.009
24774W        W84519  34.018  40.467  12.442
24775W        W84520  37.507  32.983   2.791
24776W        W84521  35.495  29.970  11.098
24777W        W84522   2.270   8.247   1.732
24778W        W84523  32.421  31.500  14.928
24779W        W84524  40.328  20.769   4.718
24780W        W84525  21.057  13.650  14.486
24781W        W84526  17.733  24.543  13.341
24782W        W84527  36.974  19.721   2.352
24783W        W84528  18.595  26.132  12.537
24784W        W84529   0.800  42.779  13.343
24785W        W84530  41.881   2.944  11.916
24786W        W84531  44.969  13.263  13.972
24787W        W84532   0.764  14.764   4.638
24788W        W84533  19.566  37.374   4.680
24789W        W84534  30.495  27.056  14.991
24790W        W84535   9.220  27.586  12.462
24791W        W84536   3.849  18.199   1.785
24792W        W84537  35.435  25.163  13.026
24793W        W84538  16.297   6.866  10.412
24794W        W84539   8.667   4.414   3.782
24795W        W84540  10.835  16.707   1.904
24796W        W84541  41.320  14.168   3.150
24797W        W84542   5.897  19.629   0.264
24798W        W84543  13.121   0.842   1.301
24799W        W84544  10.729  32.015   0.773
24800W        W84545  14.103  20.057   1.799
24801W        W84546  10.307   8.174  11.036
24802W        W84547  24.565  41.367   1.911
24803W        W84548  22.191  20.087   0.760
24804W        W84549  38.521   5.707   3.653
24805W        W84550  14.787  30.466  13.063
24806W        W84551  29.435  25.190  14.827
24807W        W84552  19.203  38.074   0.871
24808W        W84553  35.421   6.725  13.400
24809W        W84554  21.534  11.262  13.459
24810W        W84555  44.380  15.269  13.417
24811W        W84556  35.926  33.489  14.476
24812W        W84557  23.558  19.762  14.302
24813W        W84558  22.667   0.451   2.902
24814W        W84559  30.931  27.996  12.546
24815W        W84560   7.379  35.030   4.317
24816W        W84561  42.337  26.138   1.282
24817W        W84562  28.573  20.111  11.077
24818W        W84563  23.730  18.103   0.728
24819W        W84564  40.889  32.005   4.696
24820W        W84565   4.306  37.499  12.400
24821W        W84566  17.698   8.873  13.396
24822W        W84567  44.868  22.738  10.039
24823W        W84568   6.203  39.012   4.768
24824W        W84569  34.118  35.985  14.334
24825W        W84570  30.511  30.950  10.923
24826W        W84571   0.336  35.535   0.882
24827W        W84572  23.060  21.713  11.113
24828W        W84573  37.950   3.954  14.790
24829W        W84574  27.072  21.753   0.784
24830W        W84575  36.082  18.120  14.031
24831W        W84576  38.912  17.217   2.369
24832W        W84577  40.385  13.701   3.836
24833W        W84578   7.348  12.312   2.279
24834W        W84579  33.449  29.972   2.798
24835W        W84580  44.955   0.471  11.121
24836W        W84581  18.240  30.090  14.509
24837W        W84582  13.817  31.463   1.927
24838W        W84583   7.743  40.835   0.379
24839W        W84584   6.717  20.532   0.364
24840W        W84585  15.731  40.348  14.437
24841W        W84586  19.580  42.825   9.968
24842W        W84587  33.499   1.859  13.542
24843W        W84588  44.914  17.063   1.271
24844W        W84589   9.696  42.337   4.316
24845W        W84590  29.046  30.130   0.822
24846W        W84591  34.419  28.008   0.832
24847W        W84592  18.291  28.036   2.811
24848W        W84593  44.421  36.438   5.602
24849W        W84594  25.637   5.231  11.460
24850W        W84595   2.298  21.238   2.306
24851W        W84596   4.784  37.407  13.342
24852W        W84597  42.804  42.814  11.535
24853W        W84598   3.808  32.079  10.986
24854W        W84599   2.280   8.345  14.411
24855W        W84600  29.115  40.336  13.812
24856W        W84601   0.792  36.396   5.168
24857W        W84602  23.048  23.132   3.743
24858W        W84603  30.030  22.166  11.057
24859W        W84604  42.969  17.062   1.387
24860W        W84605  19.559  39.400   2.310
24861W        W84606  37.014  26.537  13.878
24862W        W84607  11.245  11.128   1.423
24863W        W84608  24.723  37.972  11.389
24864W        W84609  17.597  42.520   3.668
24865W        W84610  41.522   6.274  13.003
24866W        W84611  23.153  35.409  12.043
24867W        W84612  42.887  41.520  12.352
24868W        W84613  34.436  35.544   1.443
24869W        W84614  35.520  32.036   2.670
24870W        W84615  17.077  30.466  10.497
24871W        W84616  14.606  34.110  12.023
24872W        W84617   3.344  33.558   4.635
24873W        W84618  10.647  28.982  14.980
24874W        W84619  11.239  33.040   1.707
24875W        W84620  40.475   5.200  12.551
24876W        W84621  10.781  26.545   0.279
24877W        W84622  12.849  26.125  13.942
24878W        W84623   9.296  41.344  14.480
24879W        W84624  13.794  40.997   0.858
24880W        W84625  38.397  25.583  14.786
24881W        W84626  32.623  18.720   1.716
24882W        W84627  22.183   8.825  12.092
24883W        W84628   4.322  17.061  14.779
24884W        W84629  21.100   5.698  13.064
24885W        W84630   5.401  25.506   4.721
24886W        W84631  26.083  42.010  14.954
24887W        W84632  40.386  37.576   2.358
24888W        W84633  18.068  25.097  11.516
24889W        W84634  23.648  21.185  13.040
24890W        W84635   1.249   1.967  11.938
24891W        W84636  38.393  28.471  11.033
24892W        W84637  27.110   3.420  14.904
24893W        W84638  26.040  13.777   5.634
24894W        W84639  41.798  39.540   4.759
24895W        W84640   3.246  24.560  11.495
24896W        W84641  19.114   5.439  11.010
24897W        W84642  10.212  36.841   1.290
24898W        W84643  17.607  17.097  11.029
24899W        W84644  12.660  41.893  12.877
24900W        W84645   1.807  17.757   4.232
24901W        W84646   9.161  16.726   0.249
24902W        W84647  44.011  42.468  12.042
24903W        W84648  37.520  31.429  14.341
24904W        W84649   8.284   0.340  14.852
24905W        W84650  34.920  25.051  11.372
24906W        W84651   8.286  28.986   3.255
24907W        W84652  32.952   6.312   0.446
24908W        W84653  43.856  18.670   0.857
24909W        W84654  21.150  42.001   1.243
24910W        W84655  42.351  20.042  10.610
24911W        W84656  31.978   5.282  13.025
24912W        W84657  13.643  18.208   0.938
24913W        W84658  35.504  17.600   0.746
24914W        W84659  33.006  29.443  14.399
24915W        W84660  44.893  37.502   2.386
24916W        W84661   6.727  25.161  11.598
24917W        W84662  38.994  44.794  11.025
24918W        W84663  17.111  11.250   2.668
24919W        W84664  26.653  32.915   2.823
24920W        W84665  15.262  11.127  11.045
24921W        W84666  22.218  33.529  12.844
24922W        W84667  37.545  41.005   3.161
24923W        W84668  39.004  20.603  10.440
24924W        W84669  32.953  33.444   0.413
24925W        W84670  10.730  26.652   3.653
24926W        W84671   5.231  42.318  11.018
24927W        W84672  26.535  21.084   2.333
24928W        W84673  32.095  33.596  11.928
24929W        W84674  38.366  12.723  12.018
24930W        W84675   1.735  22.061  13.959
24931W        W84676  23.240  35.062  10.605
24932W        W84677  44.335  31.007  13.405
24933W        W84678  12.679  42.902   1.339
24934W        W84679  11.824   7.858   5.253
24935W        W84680  25.118  10.338   4.667
24936W        W84681  12.320  34.029   1.837
24937W        W84682  29.098  10.698   1.854
24938W        W84683  15.656  36.907  13.317
24939W        W84684  35.599  31.951   4.681
24940W        W84685  26.095  22.578  10.616
24941W        W84686  31.021   6.344   0.430
24942W        W84687  23.031   1.878  12.351
24943W        W84688   8.324  26.479  14.031
24944W        W84689  31.902  14.168  12.010
24945W        W84690  32.898  36.563   2.405
24946W        W84691  42.816   1.358  14.946
24947W        W84692  31.113   1.795   2.406
24948W        W84693  20.228  30.520   4.336
24949W        W84694   7.756  39.013  12.394
24950W        W84695  19.280  34.038  14.783
24951W        W84696  39.934   3.403   0.780
24952W        W84697  17.767  23.664   1.737
24953W        W84698  44.455  20.584   1.226
24954W        W84699  19.763  30.133  13.361
24955W        W84700  26.976  17.067  14.444
24956W        W84701   8.833  18.284   1.385
24957W        W84702   2.746  33.380  13.051
24958W        W84703  24.533  18.730  13.996
24959W        W84704   2.345  21.703  11.921
24960W        W84705  41.827  20.674   4.766
24961W        W84706  41.834  13.767  14.478
24962W        W84707   5.327  15.179  14.958
24963W        W84708  15.202  16.761  14.905
24964W        W84709   2.839  25.629  14.012
24965W        W84710  21.696  16.274  10.904
24966W        W84711  18.683  40.829  12.053
24967W        W84712   4.712  37.920  14.765
24968W        W84713  12.834  21.517   3.700
24969W        W84714  38.531   0.860   3.659
24970W        W84715  34.447  14.161  14.345
24971W        W84716  43.785  13.788  14.404
24972W        W84717  37.464  25.516   1.441
24973W        W84718  26.643  13.791  12.525
24974W        W84719   5.772  36.064  12.479
24975W        W84720  33.611  44.827   0.416
24976W        W84721  37.390   4.252  14.887
24977W        W84722  35.862   3.345   5.257
24978W        W84723  20.756  12.164  14.996
24979W        W84724  23.235  18.659   3.327
24980W        W84725  42.878  29.642   1.249
24981W        W84726   9.218  10.790   3.739
24982W        W84727  42.342   8.800  11.913
24983W        W84728  44.428  22.249   2.860
24984W        W84729   6.386  24.544   1.407
24985W        W84730  40.398   4.209  11.112
24986W        W84731   6.258  27.571  12.977
24987W        W84732  19.769  19.689   1.355
24988W        W84733  16.283  40.992  12.893
24989W        W84734   4.347  22.092  12.363
24990W        W84735  12.156  31.051   0.423
24991W        W84736  43.837  13.602  11.465
24992W        W84737   4.915  20.038   1.792
24993W        W84738  37.971   7.911  11.503
24994W        W84739  10.782  27.468   4.167
24995W        W84740  31.483  36.460  13.975
24996W        W84741  19.662  13.143   4.259
24997W        W84742   2.336  33.047   0.845
24998W        W84743   9.667  12.245   0.774
24999W        W84744  44.780  10.866   1.346
25000W        W84745  27.020  11.704  11.443
25001W        W84746  10.313  24.065   5.306
25002W        W84747  36.877   4.820  10.958
25003W        W84748  22.113  31.634   0.867
25004W        W84749   1.333  32.569  10.486
25005W        W84750   3.265  25.166  14.430
25006W        W84751   3.271  12.706  13.999
25007W        W84752  18.155  31.638  13.426
25008W        W84753   6.798   9.766  11.433
25009W        W84754  18.591  36.447  10.988
25010W        W84755   5.334  39.451  11.007
25011W        W84756  22.670  30.079  10.461
25012W        W84757  13.159   8.681   2.217
25013W        W84758  16.599  18.155  10.639
25014W        W84759   5.911  12.807  11.400
25015W        W84760   3.783  27.181   0.956
25016W        W84761   6.322  38.946  11.497
25017W        W84762  27.446  18.727  13.979
25018W        W84763   1.301  37.984  11.544
25019W        W84764   1.440  14.729   2.392
25020W        W84765  27.474  16.148   3.691
25021W        W84766   9.190  22.673  12.005
25022W        W84767  25.554  17.769  14.808
25023W        W84768   6.329  11.128  12.074
25024W        W84769  37.407  11.170   0.876
25025W        W84770  11.839  31.422  12.839
25026W        W84771  44.799  17.269   0.387
25027W        W84772   9.389  14.775   4.784
25028W        W84773  44.930   0.905   2.363
25029W        W84774  27.014  12.767   0.893
25030W        W84775   5.758   5.312   0.273
25031W        W84776  33.401  42.837  11.041
25032W        W84777   8.251  23.539  14.324
25033W        W84778  21.179   0.944   0.303
25034W        W84779  32.898  38.425   1.713
25035W        W84780  33.450  28.609   2.257
25036W        W84781  22.570   7.257  12.823
25037W        W84782  14.186  28.456   2.732
25038W        W84783  39.036  26.996   0.798
25039W        W84784  10.164  22.173  12.906
25040W        W84785   0.412   9.660   3.272
25041W        W84786   5.834  21.203   3.632
25042W        W84787  34.897  23.018  12.472
25043W        W84788   6.779  36.482   0.276
25044W        W84789   8.187  42.436   2.725
25045W        W84790  21.731   8.364   1.737
25046W        W84791   6.297  22.162  11.017
25047W        W84792  41.841  12.295   3.159
25048W        W84793   5.778   3.888   4.626
25049W        W84794  13.674   0.338  12.007
25050W        W84795   2.342  20.037  11.921
25051W        W84796   8.344  38.033  13.371
25052W        W84797   9.302  35.503  13.349
25053W        W84798  44.284  40.407   0.413
25054W        W84799  40.934  29.486   3.253
25055W        W84800   2.348  24.685  14.970
25056W        W84801   1.262  41.832  12.007
25057W        W84802  26.541   8.724   0.484
25058W        W84803  23.223  38.851   4.126
25059W        W84804   1.368   8.294  11.997
25060W        W84805  12.286   7.883   1.383
25061W        W84806  18.154  26.173   0.479
25062W        W84807  20.138   4.928   3.756
25063W        W84808   7.301  16.720   4.623
25064W        W84809  31.642  29.608   2.221
25065W        W84810  15.643  11.762   1.846
25066W        W84811  16.721  43.406   0.755
25067W        W84812  16.626  34.927  12.436
25068W        W84813   6.268  36.522   4.643
25069W        W84814  23.590  18.601  13.326
25070W        W84815  29.985  12.257  10.534
25071W        W84816  36.037  19.577   0.376
25072W        W84817  40.358  32.912  10.908
25073W        W84818  25.700  22.614  12.572
25074W        W84819  19.271  12.334   1.914
25075W        W84820  29.472  42.934   2.375
25076W        W84821   7.803  22.652   1.235
25077W        W84822  24.056  35.884  12.876
25078W        W84823  39.877  28.152   0.259
25079W        W84824  27.086  10.773   2.350
25080W        W84825  11.769  14.734  13.963
25081W        W84826  44.317   6.183   1.885
25082W        W84827  32.131  13.706   2.667
25083W        W84828  44.473  39.524   0.922
25084W        W84829   0.887  18.576   0.892
25085W        W84830  33.888  41.295  11.482
25086W        W84831  14.652  28.657   0.823
25087W        W84832  20.715  40.876   4.598
25088W        W84833  28.974  21.193   0.478
25089W        W84834  13.196  44.900  13.862
25090W        W84835   8.320  39.419   1.281
25091W        W84836  24.645  35.060   0.273
25092W        W84837   5.377  17.732   2.686
25093W        W84838   5.396  30.610  12.829
25094W        W84839  38.948  38.961  11.885
25095W        W84840   6.730  30.521  13.529
25096W        W84841  23.155   8.832  13.798
25097W        W84842  23.134  23.990  12.524
25098W        W84843   2.721   3.243   4.682
25099W        W84844  33.398   5.889   2.296
25100W        W84845  31.437  25.186  10.519
25101W        W84846  21.117  30.937   3.256
25102W        W84847  17.207  44.953   2.295
25103W        W84848   7.805  26.567  12.833
25104W        W84849  34.034  10.690  14.310
25105W        W84850  28.438   4.218   3.249
25106W        W84851  29.985  17.136   0.778
25107W        W84852   9.321  23.731   4.215
25108W        W84853  25.174   4.440   2.218
25109W        W84854  39.445   5.692   1.432
25110W        W84855   6.225   9.842   1.303
25111W        W84856  44.983  14.599  13.877
25112W        W84857  28.557  27.991  14.993
25113W        W84858  10.714  27.588  14.880
25114W        W84859  13.232  39.472   3.262
25115W        W84860  17.798  44.423  12.912
25116W        W84861  39.428  33.475  10.981
25117W        W84862  29.106  25.025   4.167
25118W        W84863  42.820  19.694   0.799
25119W        W84864  38.429  11.814   4.633
25120W        W84865  32.583  43.911  12.050
25121W        W84866   0.744   3.903  14.027
25122W        W84867  17.207  16.572  13.018
25123W        W84868  13.238  24.517   4.143
25124W        W84869  33.503  17.173  12.448
25125W        W84870  21.091  35.461  11.561
25126W        W84871  16.662  17.241  12.492
25127W        W84872  10.679  36.567   4.187
25128W        W84873  28.952  40.798   0.476
25129W        W84874  36.907  38.405  12.007
25130W        W84875   4.449  25.197  11.990
25131W        W84876  30.451  31.935   1.898
25132W        W84877  34.037  31.523   9.521
25133W        W84878  13.260   0.415  13.821
25134W        W84879  22.092  10.784   4.621
25135W        W84880  30.031  10.207  12.835
25136W        W84881   4.745   1.451  11.032
25137W        W84882  34.543  12.301   3.328
25138W        W84883  19.716  12.728  13.841
25139W        W84884  22.154  25.643  13.885
25140W        W84885   8.219  38.968   3.306
25141W        W84886  31.612   7.323   3.381
25142W        W84887  26.701  18.602   2.293
25143W        W84888  15.265  38.850  14.284
25144W        W84889  30.065   8.309   0.843
25145W        W84890  40.835  34.573   0.901
25146W        W84891  37.831  42.428  12.446
25147W        W84892  27.170  19.555   2.725
25148W        W84893  26.066  39.349   1.770
25149W        W84894  28.572  10.662   1.338
25150W        W84895  36.997  20.628   3.160
25151W        W84896  31.462  28.026  14.290
25152W        W84897  37.364   3.258   3.213
25153W        W84898  42.943  10.142   2.259
25154W        W84899  40.481  19.144  11.956
25155W        W84900   1.355  19.753  14.494
25156W        W84901  41.886  39.523  14.466
25157W        W84902  16.773   2.753   4.820
25158W        W84903   4.841  23.166  13.356
25159W        W84904   2.960  12.825  14.762
25160W        W84905  39.990   0.954  12.016
25161W        W84906  13.744  34.491  11.388
25162W        W84907   3.354  23.580   0.358
25163W        W84908  30.112  26.687  14.466
25164W        W84909  14.232  11.198   1.451
25165W        W84910  37.537  24.147  14.319
25166W        W84911  13.240   5.257   4.328
25167W        W84912  25.990  25.029   2.678
25168W        W84913  31.971  33.478  13.958
25169W        W84914  25.123  17.180   0.801
25170W        W84915  14.277  20.093  10.919
25171W        W84916  16.307  13.817  11.577
25172W        W84917   3.219   3.870   0.442
25173W        W84918  22.696  41.859   2.272
25174W        W84919   0.915  30.151   1.756
25175W        W84920  27.671   6.683   2.330
25176W        W84921   8.337  22.633  10.888
25177W        W84922  33.414   2.929  14.959
25178W        W84923  28.094  20.091   9.990
25179W        W84924  28.972  40.349  12.081
25180W        W84925  42.991  37.870   4.704
25181W        W84926   1.791  28.646   2.292
25182W        W84927  35.084  16.178   1.774
25183W        W84928  28.502  44.906   0.437
25184W        W84929   5.334  11.164  14.444
25185W        W84930  29.570  35.003  11.600
25186W        W84931  29.638  11.675  14.948
25187W        W84932  12.794   5.416   4.758
25188W        W84933  12.622  22.551  13.413
25189W        W84934  31.128  11.842  10.892
25190W        W84935  22.508  37.969  12.360
25191W        W84936  42.867  40.538   2.860
25192W        W84937   9.375  28.462   3.828
25193W        W84938  43.279  32.600  13.465
25194W        W84939  40.433  36.439  12.368
25195W        W84940  38.869  26.144  14.008
25196W        W84941  17.571  38.565   4.707
25197W        W84942  29.617  43.808  14.449
25198W        W84943   3.401  21.713  12.961
25199W        W84944  37.491  16.664  10.611
25200W        W84945   2.358   0.848   0.354
25201W        W84946  39.472  15.307   2.736
25202W        W84947   9.876  42.003   3.661
25203W        W84948  12.791  17.718  13.909
25204W        W84949  25.109  24.008  11.395
25205W        W84950  33.982   7.907  10.144
25206W        W84951  13.247  17.253   1.912
25207W        W84952   8.196  35.584   2.709
25208W        W84953  33.522  13.337  12.449
25209W        W84954  32.425  40.818   2.831
25210W        W84955  36.896   5.720  12.936
25211W        W84956  32.942  21.223   0.783
25212W        W84957  32.989   1.829  14.848
25213W        W84958  24.983  18.240  13.406
25214W        W84959  10.333  22.056  14.904
25215W        W84960   1.962  27.164   1.210
25216W        W84961  12.763  17.698   0.288
25217W        W84962  12.766   9.188  11.927
25218W        W84963  36.394   2.331  12.994
25219W        W84964  36.013  27.692   3.260
25220W        W84965   5.420  16.174  13.370
25221W        W84966  26.601  13.831   9.637
25222W        W84967  40.384   7.330  12.457
25223W        W84968   7.273  30.454   3.151
25224W        W84969  30.045  33.085  12.088
25225W        W84970  30.138   4.418   1.338
25226W        W84971  43.902  13.718   4.684
25227W        W84972  19.130   7.703  10.622
25228W        W84973  12.172  14.217  14.798
25229W        W84974   7.327  32.106   0.431
25230W        W84975  18.064  29.440   3.654
25231W        W84976  22.565  34.447  14.825
25232W        W84977  23.045  35.360   1.874
25233W        W84978  27.522  40.474  13.062
25234W        W84979  23.992  16.641  14.953
25235W        W84980  27.943  33.970  13.407
25236W        W84981  35.054  34.574   1.391
25237W        W84982  30.096  23.704   0.946
25238W        W84983  18.247  26.086  11.517
25239W        W84984   4.918  21.108   2.318
25240W        W84985   2.803  13.838   1.321
25241W        W84986  38.533  21.672  12.057
25242W        W84987  44.451  30.470   0.250
25243W        W84988  18.229  12.289  10.526
25244W        W84989  37.834  34.940   2.255
25245W        W84990  21.515  28.117  13.970
25246W        W84991  15.629  31.643  11.529
25247W        W84992  41.385  27.130  11.407
25248W        W84993  44.432  37.836   0.952
25249W        W84994  29.554  31.537  12.371
25250W        W84995  41.996  36.393   4.775
25251W        W84996  21.162  15.241   5.242
25252W        W84997   1.765  44.907  12.929
25253W        W84998  27.513  19.649  12.988
25254W        W84999  35.855  12.305  14.289
25255W        W85000  10.253  35.584   1.723
25256W        W85001   2.910  42.020   3.817
25257W        W85002  16.592  18.594   4.188
25258W        W85003  28.003   9.691  14.890
25259W        W85004  41.511   8.322  14.897
25260W        W85005  34.878  38.493   2.792
25261W        W85006   2.307   6.400   0.269
25262W        W85007  36.897  16.612   2.685
25263W        W85008   5.825  11.705   0.300
25264W        W85009  34.967   6.425   4.287
25265W        W85010   4.913  12.755  12.003
25266W        W85011  33.481  29.024  11.884
25267W        W85012   6.700  17.246   2.855
25268W        W85013  40.884  39.871  12.386
25269W        W85014   5.803  17.614  13.392
25270W        W85015  30.624   8.899  13.908
25271W        W85016  26.614  37.345   4.801
25272W        W85017  39.941   5.928  11.980
25273W        W85018  37.842   3.951  12.037
25274W        W85019  43.932  26.575   3.786
25275W        W85020  41.940  13.309   0.836
25276W        W85021   0.471  21.563  10.928
25277W        W85022  18.559   5.909   1.854
25278W        W85023   5.708  15.587   4.184
25279W        W85024   6.189  44.319  11.388
25280W        W85025  35.389  31.926   2.223
25281W        W85026   6.383  14.248  12.352
25282W        W85027  21.733  38.373  10.522
25283W        W85028  32.436  10.689   0.430
25284W        W85029  18.734   9.802  10.549
25285W        W85030  16.302  43.920   1.290
25286W        W85031  29.001   3.275  12.342
25287W        W85032  40.938  22.030  12.569
25288W        W85033  31.466  26.104   4.752
25289W        W85034  25.198  22.996  11.082
25290W        W85035  16.087  23.558  11.425
25291W        W85036  42.981   4.836   2.276
25292W        W85037  23.149   2.748   4.736
25293W        W85038  37.863  19.642  12.049
25294W        W85039  13.176   1.960  10.416
25295W        W85040   8.758  42.878   4.264
25296W        W85041  15.097  20.077   3.339
25297W        W85042   4.374   9.866  10.966
25298W        W85043   1.802   3.303  13.451
25299W        W85044  17.147  16.228   0.306
25300W        W85045  20.743  14.796   2.799
25301W        W85046  38.969  29.929   2.399
25302W        W85047   3.363  10.777   0.478
25303W        W85048  13.325  41.331  11.000
25304W        W85049  13.296  33.007   0.417
25305W        W85050  42.956  24.228   0.255
25306W        W85051  23.990  17.094  10.996
25307W        W85052   5.423  11.763   1.751
25308W        W85053  44.329   9.315   0.476
25309W        W85054  28.474  16.182  10.457
25310W        W85055  34.055   4.703   1.376
25311W        W85056   7.902  37.998  12.524
25312W        W85057   0.446  29.488  10.445
25313W        W85058  18.246  41.510   3.640
25314W        W85059   1.322  11.841  13.063
25315W        W85060  19.249  15.663   2.297
25316W        W85061   3.459  25.635   3.147
25317W        W85062  28.149  30.053  14.457
25318W        W85063  25.999  15.225  14.810
25319W        W85064  22.579  23.124  13.325
25320W        W85065  42.402  44.790  11.578
25321W        W85066  23.079  44.406   2.854
25322W        W85067  27.181  10.217   2.204
25323W        W85068  18.753  13.677   4.266
25324W        W85069  25.109  41.793  11.392
25325W        W85070  19.733  29.476   2.783
25326W        W85071  21.061  12.193  13.060
25327W        W85072  35.508   4.236   1.354
25328W        W85073   9.748  15.236  14.482
25329W        W85074  17.681  16.126   0.386
25330W        W85075  17.080  34.549   0.269
25331W        W85076  35.092   0.792  11.431
25332W        W85077   3.238  34.532  13.377
25333W        W85078  10.190  15.709  11.561
25334W        W85079  14.211   9.825  14.917
25335W        W85080  43.316  28.170   3.270
25336W        W85081  43.447  17.102  10.598
25337W        W85082  38.437  22.671  11.069
25338W        W85083  27.482   2.755   0.451
25339W        W85084  10.355  16.631  12.017
25340W        W85085  23.175  18.263   4.598
25341W        W85086  24.561   2.900  10.600
25342W        W85087  44.488  20.223   1.816
25343W        W85088  17.208   6.281   3.216
25344W        W85089  35.498  32.535   2.827
25345W        W85090   7.706  42.777  10.039
25346W        W85091  19.049  44.010   3.774
25347W        W85092  42.467   0.360  13.922
25348W        W85093  38.379  39.390   2.410
25349W        W85094  21.631  22.179   2.190
25350W        W85095  18.227  19.562   3.207
25351W        W85096  41.293  28.580  11.952
25352W        W85097  28.967  34.559  10.438
25353W        W85098  25.551  41.529  12.944
25354W        W85099  25.209  24.040   1.860
25355W        W85100  25.583  28.489   0.826
25356W        W85101   2.943  35.448   3.750
25357W        W85102  42.019  21.220  12.085
25358W        W85103  37.346  36.949   4.114
25359W        W85104  40.490  11.852  13.959
25360W        W85105  22.173   1.799   1.244
25361W        W85106  37.934  19.660   3.324
25362W        W85107  39.459  42.898  11.469
25363W        W85108  16.618  31.485   3.223
25364W        W85109   1.977  15.628   0.936
25365W        W85110  27.646  16.210  12.048
25366W        W85111  14.596  31.962  10.487
25367W        W85112  33.085  32.011  14.956
25368W        W85113   5.857  28.460  12.548
25369W        W85114  20.120  35.381  14.903
25370W        W85115  13.117  25.676   0.777
25371W        W85116  14.798  36.555  13.501
25372W        W85117  30.428  42.286   0.384
25373W        W85118  33.924  19.078  14.903
25374W        W85119  40.378   9.826   0.864
25375W        W85120  32.608   5.239  13.920
25376W        W85121   1.956  14.659  10.444
25377W        W85122  13.662  28.034  12.085
25378W        W85123  19.617  42.854   0.396
25379W        W85124   9.269  43.285   1.832
25380W        W85125  20.689  12.710  10.476
25381W        W85126   4.905  11.183  11.386
25382W        W85127  38.930   8.377   3.861
25383W        W85128  34.867  21.038  10.518
25384W        W85129  40.955  21.047   4.171
25385W        W85130  31.647  43.421   2.701
25386W        W85131  16.199   0.745  12.419
25387W        W85132  26.091  18.246   4.272
25388W        W85133  21.132  43.495  11.009
25389W        W85134  40.047  30.451  12.048
25390W        W85135  18.767  33.107   4.660
25391W        W85136  16.159  39.826  14.018
25392W        W85137   9.809   0.320  13.935
25393W        W85138   6.212  17.643   3.301
25394W        W85139  38.392  21.565   2.827
25395W        W85140  37.571  13.844   4.233
25396W        W85141   2.827  10.210  11.441
25397W        W85142  34.944  15.253  11.377
25398W        W85143  28.678  21.086  12.560
25399W        W85144  19.179  44.351   1.225
25400W        W85145  11.203  17.150   2.213
25401W        W85146   8.722  20.726   2.404
25402W        W85147  31.538  24.678  13.980
25403W        W85148  21.220  26.059  11.905
25404W        W85149  44.432  16.641   1.880
25405W        W85150   4.915  11.277   2.185
25406W        W85151  38.944  38.955  13.872
25407W        W85152   4.289  30.089  14.462
25408W        W85153  33.078  18.274   4.632
25409W        W85154   0.392   4.353  10.466
25410W        W85155   6.366   3.225   5.277
25411W        W85156   7.705  23.715  10.558
25412W        W85157   0.796  37.030   3.805
25413W        W85158   6.765  17.694   4.830
25414W        W85159  15.101  28.533  14.280
25415W        W85160  19.611  13.273   3.671
25416W        W85161   5.886   2.880   2.751
25417W        W85162  30.943  28.063   1.752
25418W        W85163  25.096  44.270  14.998
25419W        W85164  31.075  34.559   3.271
25420W        W85165  13.214  27.025   0.330
25421W        W85166  37.943   8.891  12.359
25422W        W85167   2.280  26.692   4.148
25423W        W85168  37.449  42.435   4.131
25424W        W85169  17.115  35.100  12.875
25425W        W85170  11.687  12.326   3.355
25426W        W85171  34.968  15.744   4.621
25427W        W85172  26.625  38.819  12.898
25428W        W85173  44.456  11.254   2.370
25429W        W85174   6.699  26.086  11.389
25430W        W85175  29.985  31.140  12.858
25431W        W85176  13.306   6.837  10.921
25432W        W85177  15.326  37.352   1.741
25433W        W85178  33.421   4.206   0.832
25434W        W85179  37.526  41.829   3.815
25435W        W85180  21.752  16.206   1.308
25436W        W85181  10.208  40.969  12.455
25437W        W85182  31.143  11.826  10.533
25438W        W85183  35.491  10.760   0.404
25439W        W85184  10.297  35.875   0.764
25440W        W85185  20.647  23.202  12.388
25441W        W85186   6.252  27.649  11.892
25442W        W85187   9.708  25.015  10.917
25443W        W85188   2.363   9.858   1.767
25444W        W85189   4.909   3.311   0.297
25445W        W85190  18.595   6.821  14.939
25446W        W85191  28.610  11.739  11.386
25447W        W85192  18.214  31.402  11.983
25448W        W85193  15.824   2.356  12.461
25449W        W85194   8.392  26.663   4.772
25450W        W85195  33.081   4.943   2.693
25451W        W85196  39.556  26.117  14.770
25452W        W85197  35.489   7.828   4.687
25453W        W85198   8.401  36.951   3.208
25454W        W85199  14.116   5.909  11.071
25455W        W85200   5.311   3.366   4.682
25456W        W85201  24.692  38.049  13.032
25457W        W85202  41.003  41.025  14.926
25458W        W85203  31.638  33.541   3.146
25459W        W85204  21.120  18.251   1.816
25460W        W85205   8.682  14.156  14.803
25461W        W85206  10.686  23.143   2.766
25462W        W85207  25.171   8.307  11.080
25463W        W85208  13.815  24.161  10.896
25464W        W85209   7.764  41.534  12.482
25465W        W85210  16.213  17.308   3.817
25466W        W85211   7.734  35.041  11.555
25467W        W85212  44.981  31.510   1.904
25468W        W85213  36.064   7.670  13.502
25469W        W85214   3.792  30.912  13.460
25470W        W85215   8.795  19.757   2.774
25471W        W85216  15.245  11.342   3.336
25472W        W85217   0.440  31.133   1.297
25473W        W85218  33.885  39.920  12.571
25474W        W85219  17.618  24.588   1.755
25475W        W85220  40.911  31.562  12.067
25476W        W85221  11.293  10.271   1.711
25477W        W85222  34.982  39.058  11.536
25478W        W85223  12.788   0.323  12.966
25479W        W85224  17.635   1.356   3.729
25480W        W85225  25.020  14.622  12.365
25481W        W85226  40.880  30.418  14.946
25482W        W85227  21.156  27.190   3.657
25483W        W85228  44.494  26.164  13.398
25484W        W85229  10.153  38.912   3.281
25485W        W85230  35.001   5.901   0.277
25486W        W85231  28.982  29.143   3.869
25487W        W85232   1.408  19.542   2.719
25488W        W85233  16.791  35.010  14.277
25489W        W85234  36.520  36.949   1.346
25490W        W85235  32.475   8.393   4.347
25491W        W85236   0.400  23.036   4.188
25492W        W85237  37.382   2.346   2.752
25493W        W85238  30.445  34.099   0.887
25494W        W85239  14.322  28.665   3.695
25495W        W85240   9.215  37.925  11.446
25496W        W85241  34.103  23.710  13.369
25497W        W85242  32.089  13.640  14.893
25498W        W85243  35.388  26.201   0.484
25499W        W85244  25.086   1.293  12.553
25500W        W85245   6.204  15.752   5.126
25501W        W85246  23.662  31.979  14.953
25502W        W85247  24.615  25.603  10.967
25503W        W85248  23.109   2.777   3.220
25504W        W85249   2.426  14.193  14.274
25505W        W85250  15.130   3.893  14.840
25506W        W85251  12.177  21.654   2.322
25507W        W85252  18.583  28.025   4.310
25508W        W85253  33.407  30.097  10.515
25509W        W85254  29.599  41.041  13.511
25510W        W85255   6.693  43.972  14.429
25511W        W85256  15.273   7.205   0.768
25512W        W85257  39.891  39.950  12.931
25513W        W85258  23.014  24.704   2.777
25514W        W85259  36.099  41.396   2.327
25515W        W85260  22.640  12.673   2.818
25516W        W85261  22.703  17.701   1.781
25517W        W85262  44.503   3.895   3.208
25518W        W85263  13.682   9.781   3.806
25519W        W85264   2.402  24.158   5.269
25520W        W85265  14.282  33.533  14.913
25521W        W85266   8.702  35.557  13.982
25522W        W85267  38.959  18.285   1.814
25523W        W85268   5.692  20.723  13.516
25524W        W85269  12.129  37.844  11.882
25525W        W85270  13.751  29.665  12.857
25526W        W85271  11.214  14.270   2.890
25527W        W85272   2.312  22.610   0.829
25528W        W85273  17.091  39.319   2.731
25529W        W85274  17.218  13.195   3.221
25530W        W85275  35.105   3.270   1.295
25531W        W85276   4.421  12.801  10.568
25532W        W85277  32.625  17.652   4.622
25533W        W85278  16.610  41.328  12.030
25534W        W85279  22.616  42.496   3.253
25535W        W85280  11.275  25.473  14.516
25536W        W85281  43.871   1.780   2.231
25537W        W85282  40.905  20.162  12.491
25538W        W85283  21.098   1.238   0.480
25539W        W85284  33.563  39.546   4.314
25540W        W85285  31.001  22.522   0.349
25541W        W85286   4.210  37.515  11.884
25542W        W85287  41.898  25.056  11.042
25543W        W85288  30.032  18.661  12.956
25544W        W85289  22.661  28.008  12.863
25545W        W85290  44.481   5.725   0.353
25546W        W85291   0.813  21.745   0.391
25547W        W85292  20.602  13.836  11.036
25548W        W85293  33.545  18.256  14.486
25549W        W85294  39.810  26.985  13.393
25550W        W85295   6.235  28.121  14.821
25551W        W85296  13.221  35.088  11.942
25552W        W85297  25.189  41.906   2.379
25553W        W85298  17.082   0.893  12.565
25554W        W85299  42.368  29.544   3.352
25555W        W85300  20.202  38.995   2.813
25556W        W85301   0.955   7.364   0.449
25557W        W85302  21.080  30.117  13.848
25558W        W85303  23.064  43.289   3.723
25559W        W85304  24.709  15.743   1.726
25560W        W85305  31.459   1.409   2.235
25561W        W85306  22.744   5.293  10.514
25562W        W85307  19.107  16.316  10.619
25563W        W85308   2.960  36.032  10.982
25564W        W85309  35.026  42.292   0.258
25565W        W85310  41.437  32.129  11.559
25566W        W85311  39.005  40.458  13.415
25567W        W85312  33.539  24.610  14.832
25568W        W85313  19.121  35.496   2.894
25569W        W85314  14.202  33.476   3.661
25570W        W85315  27.483  25.550  12.444
25571W        W85316  43.283  25.590   3.234
25572W        W85317   4.305  42.420   1.839
25573W        W85318  11.231   5.371   1.798
25574W        W85319   3.769  14.689  14.336
25575W        W85320   3.736  29.149   3.155
25576W        W85321  22.694  33.128   2.289
25577W        W85322  20.173  17.274  10.523
25578W        W85323  12.356  11.292  14.767
25579W        W85324  23.632  11.268  12.447
25580W        W85325  41.949   2.454  12.549
25581W        W85326  32.602  21.150   2.262
25582W        W85327   4.760  16.141  14.820
25583W        W85328  29.985  35.436   2.714
25584W        W85329  29.096  40.010  11.031
25585W        W85330  39.511  26.085  14.363
25586W        W85331  13.325  24.003  11.033
25587W        W85332  17.094  22.585   4.155
25588W        W85333  20.112  30.002  13.802
25589W        W85334  28.529  25.076  10.629
25590W        W85335   4.869  34.568   0.875
25591W        W85336  14.265  20.579   1.316
25592W        W85337   4.853  28.680   2.677
25593W        W85338  33.579  39.942   4.194
25594W        W85339  26.634  40.870  12.955
25595W        W85340  13.660  10.711   1.373
25596W        W85341  17.646  36.076  14.989
25597W        W85342  29.515  39.938  13.400
25598W        W85343  10.354  18.778   2.780
25599W        W85344  44.262  25.502  12.385
25600W        W85345  20.063  28.957   5.251
25601W        W85346   1.890  24.618   3.791
25602W        W85347  33.545  39.491  14.341
25603W        W85348  21.096  14.728   5.710
25604W        W85349  42.316  42.319  11.885
25605W        W85350  27.454   6.399  12.467
25606W        W85351   4.827  24.634   0.426
25607W        W85352  11.282  19.208  12.372
25608W        W85353  30.474   6.711  12.888
25609W        W85354   9.230  16.094  12.372
25610W        W85355  17.607  38.874   4.689
25611W        W85356  26.702  36.509   0.384
25612W        W85357  14.272  11.215  14.868
25613W        W85358  30.148  32.944   0.829
25614W        W85359  41.878  15.616   2.257
25615W        W85360  15.633  39.364   2.725
25616W        W85361   8.802  30.911  12.561
25617W        W85362  35.603   6.844  12.026
25618W        W85363  34.456  17.710   0.758
25619W        W85364   7.713   0.481   2.844
25620W        W85365   5.391   1.805  12.089
25621W        W85366  13.626  29.081   3.713
25622W        W85367   1.862  25.085   3.674
25623W        W85368  35.603  19.693   4.838
25624W        W85369  41.879  39.894  12.441
25625W        W85370  41.493  30.612   1.451
25626W        W85371  10.638  20.253  10.439
25627W        W85372  18.570  20.206   2.717
25628W        W85373  38.040  11.368   3.774
25629W        W85374  15.589   2.918   0.440
25630W        W85375  25.990  13.125  13.863
25631W        W85376  41.804  21.614   3.276
25632W        W85377  14.114  36.435   3.664
25633W        W85378  24.538   4.917  10.616
25634W        W85379   6.899  25.000   2.260
25635W        W85380  31.149  28.442   2.318
25636W        W85381   2.453  35.077  14.486
25637W        W85382  32.926  36.575   0.946
25638W        W85383  27.997  31.994   4.286
25639W        W85384  20.243  11.153   3.332
25640W        W85385  11.205  15.215  10.564
25641W        W85386  43.381  14.323   1.224
25642W        W85387   6.852   2.917   1.274
25643W        W85388   5.930  12.200  11.908
25644W        W85389  17.770  14.597   3.249
25645W        W85390   5.210  17.570   1.222
25646W        W85391   5.265   4.884   9.982
25647W        W85392  35.070  24.973   1.356
25648W        W85393  40.802  35.546   0.431
25649W        W85394   3.876   4.893   2.827
25650W        W85395  40.925   2.367  13.975
25651W        W85396  36.903  18.164   4.775
25652W        W85397   0.316  15.142   2.269
25653W        W85398  16.312  39.545   4.185
25654W        W85399  11.832   9.817  11.106
25655W        W85400   0.750  15.200  11.994
25656W        W85401  28.612  32.452   4.289
25657W        W85402  32.614  24.651   0.914
25658W        W85403  37.834   1.738   3.824
25659W        W85404  11.270  17.238   1.248
25660W        W85405  32.442  15.299   1.738
25661W        W85406  19.250  44.485  13.915
25662W        W85407  43.404   8.709  14.890
25663W        W85408   6.403  16.122   0.379
25664W        W85409  12.635  39.029  11.875
25665W        W85410  41.889  26.076   1.429
25666W        W85411  32.015  42.963   0.956
25667W        W85412  21.719  16.309   4.151
25668W        W85413  16.305  33.391  12.037
25669W        W85414  10.762   1.973  10.621
25670W        W85415  35.564  42.892  10.559
25671W        W85416  17.282  33.490  11.887
25672W        W85417   9.706   2.922  12.008
25673W        W85418  29.494   8.355  10.017
25674W        W85419   2.368  30.632   3.257
25675W        W85420   2.862   5.723  11.060
25676W        W85421  22.582   0.433  14.392
25677W        W85422  41.321  23.664   1.403
25678W        W85423   3.378  16.281   1.883
25679W        W85424   4.365  33.123  12.938
25680W        W85425  20.708   0.924  14.277
25681W        W85426  11.262  44.295   1.423
25682W        W85427  22.014  37.836   1.407
25683W        W85428  39.554  31.595   1.894
25684W        W85429   4.261   2.407   2.834
25685W        W85430   0.916  24.060   0.326
25686W        W85431  19.258  19.245   1.253
25687W        W85432  30.061  15.220   2.178
25688W        W85433  19.769   8.838  12.007
25689W        W85434  26.661  34.482   0.388
25690W        W85435   0.926  44.258  12.070
25691W        W85436  32.915  32.625  14.324
25692W        W85437  44.892   3.333   1.424
25693W        W85438  29.169  32.626   3.769
25694W        W85439   6.389  39.551  14.490
25695W        W85440  30.138  15.783  13.955
25696W        W85441  30.974  21.145  12.390
25697W        W85442  28.033  22.995  12.834
25698W        W85443  43.868  14.831  12.847
25699W        W85444  28.001  14.331   1.215
25700W        W85445  23.537   9.152   3.710
25701W        W85446  11.281  37.886  11.529
25702W        W85447  34.503  38.954  12.841
25703W        W85448  43.383  22.108  12.510
25704W        W85449  40.549  33.912   2.866
25705W        W85450  41.038   5.211  10.590
25706W        W85451  25.089  25.111   0.364
25707W        W85452  27.948  26.526  11.905
25708W        W85453  38.995  37.030   4.645
25709W        W85454  35.051   8.761   0.905
25710W        W85455   9.815  37.550   3.385
25711W        W85456  20.744   4.773  13.017
25712W        W85457  33.467  43.438  11.998
25713W        W85458   7.381  42.981  13.331
25714W        W85459  25.115  42.475   4.676
25715W        W85460  39.866  13.603   2.251
25716W        W85461  42.418  22.129  11.969
25717W        W85462  25.469  26.509  12.853
25718W        W85463  28.527  28.976  11.451
25719W        W85464  25.087   2.727  14.011
25720W        W85465   0.904  10.282   1.343
25721W        W85466  22.700   6.680   4.717
25722W        W85467  28.177  34.526   3.697
25723W        W85468  11.308   4.241   1.277
25724W        W85469  28.956  21.085  12.519
25725W        W85470   4.375   1.475   4.352
25726W        W85471  38.372   5.291  13.983
25727W        W85472  23.015  21.035  12.055
25728W        W85473  44.475   1.351   1.406
25729W        W85474   6.403  11.808   4.674
25730W        W85475  44.432   4.325  14.984
25731W        W85476   3.337  10.289   4.185
25732W        W85477  21.546  13.289  13.380
25733W        W85478  21.707  36.846  11.111
25734W        W85479  19.566   5.218  13.484
25735W        W85480  39.550  21.682  12.410
25736W        W85481  41.905  18.060  10.974
25737W        W85482  24.702  25.496   1.371
25738W        W85483   0.396  28.993   0.359
25739W        W85484  26.616  38.421   1.711
25740W        W85485  22.119  42.907  12.921
25741W        W85486  19.157  36.364  14.957
25742W        W85487  43.290   8.661   0.805
25743W        W85488  31.931  24.027   0.928
25744W        W85489   6.764  35.457  14.292
25745W        W85490   1.771  27.191   3.248
25746W        W85491  38.555  16.649  11.919
25747W        W85492  17.715  36.564  10.978
25748W        W85493  33.427  42.417   3.770
25749W        W85494  39.955  34.078  13.912
25750W        W85495   6.901  26.620  10.518
25751W        W85496  14.230  25.620   3.697
25752W        W85497   4.826  41.400  11.080
25753W        W85498  22.730  27.960   2.273
25754W        W85499   5.734   8.779  11.976
25755W        W85500   5.932  29.940   0.253
25756W        W85501  36.589  44.443   2.334
25757W        W85502   1.892  16.658   2.186
25758W        W85503  26.579  22.744   2.384
25759W        W85504  37.078  19.644  14.941
25760W        W85505  24.091  15.133  12.475
25761W        W85506  17.631  14.197  11.497
25762W        W85507  24.067   1.962   0.932
25763W        W85508   2.246   0.387   3.806
25764W        W85509  38.820  19.277   2.256
25765W        W85510  19.564  44.922  11.442
25766W        W85511  26.562  34.098   4.723
25767W        W85512   8.843  19.778   4.778
25768W        W85513  19.683  11.338  10.524
25769W        W85514  18.642  16.263  12.378
25770W        W85515  16.289  18.610  12.996
25771W        W85516  36.510   5.900   3.648
25772W        W85517  12.821  30.574   3.333
25773W        W85518   4.305   9.866  12.370
25774W        W85519  35.880  10.786   2.193
25775W        W85520  36.470  10.162   3.189
25776W        W85521   5.241  30.524   4.688
25777W        W85522   0.935  40.356   2.308
25778W        W85523   9.681   6.329  11.050
25779W        W85524  29.624  25.006  13.795
25780W        W85525   3.276  28.671   2.877
25781W        W85526   4.718  43.420  11.002
25782W        W85527  24.538  43.465   1.813
25783W        W85528  20.712   3.919   4.675
25784W        W85529  19.714  33.396   3.678
25785W        W85530  28.132   7.691  11.939
25786W        W85531  13.639  25.027   4.598
25787W        W85532  14.590  16.700  11.395
25788W        W85533  17.159  11.728   3.632
25789W        W85534   0.318  32.471  12.503
25790W        W85535  26.198   7.366  13.395
25791W        W85536  10.374  35.917   3.229
25792W        W85537  44.824  11.173   2.749
25793W        W85538  41.371  14.813   4.620
25794W        W85539   1.953  37.040  12.071
25795W        W85540  20.030  14.186  11.895
25796W        W85541  27.023  15.157   9.999
25797W        W85542   7.198  11.280  11.575
25798W        W85543  10.747  18.294   2.791
25799W        W85544  35.531  41.336   0.463
25800W        W85545  29.158   3.423  11.039
25801W        W85546  18.773  36.349  11.466
25802W        W85547  42.957  29.003   4.113
25803W        W85548  32.546  16.619  12.865
25804W        W85549  24.000  18.789   4.133
25805W        W85550  44.901  26.150   3.170
25806W        W85551   1.419   0.768  13.899
25807W        W85552  41.336  31.493   3.812
25808W        W85553  18.071  35.446   3.350
25809W        W85554  41.347  23.008  14.790
25810W        W85555  34.555  17.127  11.506
25811W        W85556  41.421  30.593  13.938
25812W        W85557  31.110  39.927   2.293
25813W        W85558  11.193   0.437   0.834
25814W        W85559  26.047  11.765  12.416
25815W        W85560   1.354  11.172   2.417
25816W        W85561  34.414  12.225  12.565
25817W        W85562  10.731  39.836  13.466
25818W        W85563   1.360  39.446   1.760
25819W        W85564  38.852  38.907  14.915
25820W        W85565  33.578  34.878  10.921
25821W        W85566  25.120  17.637   2.837
25822W        W85567  15.590  28.580  14.950
25823W        W85568  30.944  20.564  10.468
25824W        W85569  31.146  18.196   4.788
25825W        W85570   4.853  25.146   9.948
25826W        W85571  29.024  32.442   2.664
25827W        W85572   5.248  41.025  10.459
25828W        W85573   9.364   7.799  12.946
25829W        W85574  41.479   3.878  13.311
25830W        W85575  43.447  36.573  14.907
25831W        W85576  16.183  18.644  13.479
25832W        W85577  37.411   7.672   2.287
25833W        W85578  17.292  27.609   2.802
25834W        W85579  28.649  23.118   4.610
25835W        W85580  21.086  15.294   3.182
25836W        W85581   1.967  24.135  12.524
25837W        W85582  11.259  39.041  11.920
25838W        W85583   5.790  30.547   1.877
25839W        W85584  38.401  43.872  14.857
25840W        W85585  11.277  30.139   3.692
25841W        W85586   4.261  43.497  13.971
25842W        W85587   2.796  21.097  13.516
25843W        W85588  36.040   2.735  13.489
25844W        W85589  11.794  22.691   0.935
25845W        W85590  18.678  15.118  11.570
25846W        W85591  14.277  18.187   3.191
25847W        W85592  24.019   7.269   3.739
25848W        W85593   7.884  22.673  11.923
25849W        W85594  14.308  10.159   4.268
25850W        W85595  31.044   2.286   2.771
25851W        W85596  26.658   8.837   0.893
25852W        W85597  27.964   5.221  14.990
25853W        W85598   7.819  19.558   2.225
25854W        W85599  43.839  34.945   4.118
25855W        W85600  30.978  35.510   0.788
25856W        W85601  20.691  44.874  14.433
25857W        W85602   2.827  17.255  12.942
25858W        W85603   3.897   2.864  14.408
25859W        W85604   0.807  14.631  14.333
25860W        W85605   0.802  14.814  10.554
25861W        W85606   1.313  44.890   3.191
25862W        W85607  10.660   6.790  11.415
25863W        W85608  15.297  39.022  12.421
25864W        W85609  42.455  30.973   2.388
25865W        W85610  10.783  34.459  11.394
25866W        W85611  15.793  17.694   3.800
25867W        W85612  31.504  35.088   3.258
25868W        W85613  25.002   9.331   0.954
25869W        W85614   4.911   4.769   2.887
25870W        W85615  15.307  37.447   1.288
25871W        W85616   9.254  14.329   2.831
25872W        W85617  36.424   5.914   1.886
25873W        W85618   6.407  27.518   4.331
25874W        W85619  37.396   3.232   0.900
25875W        W85620  36.897  43.315  13.874
25876W        W85621   5.228  24.032  14.997
25877W        W85622  41.322  12.290   3.324
25878W        W85623  25.709   8.844   2.226
25879W        W85624  29.083  27.969  14.313
25880W        W85625  35.380  26.062   4.700
25881W        W85626  28.584   5.752  11.034
25882W        W85627  40.830  44.767   0.853
25883W        W85628  40.883  35.906  11.410
25884W        W85629  29.519  26.577  12.862
25885W        W85630   1.838  18.252   3.712
25886W        W85631   0.398  16.654  14.380
25887W        W85632  35.892  38.039   1.215
25888W        W85633  43.483  33.450  11.596
25889W        W85634  10.207  27.666   3.721
25890W        W85635  22.681  20.178  14.882
25891W        W85636  15.750  13.153  13.425
25892W        W85637  43.354  41.493  12.003
25893W        W85638  27.992  42.817  12.456
25894W        W85639   0.953  38.409   2.700
25895W        W85640  21.654  16.707  14.830
25896W        W85641  27.033  43.002  11.952
25897W        W85642   3.358  28.010   1.901
25898W        W85643  29.048  33.903  12.416
25899W        W85644  38.373  10.664  13.448
25900W        W85645  11.187  41.353  12.933
25901W        W85646  33.923  32.566  14.799
25902W        W85647   4.823  34.396   2.374
25903W        W85648   0.842   5.380  11.931
25904W        W85649  19.735  26.111  14.449
25905W        W85650  15.775   8.399  13.987
25906W        W85651  33.934  44.449   2.402
25907W        W85652  13.275  17.738  13.809
25908W        W85653  19.601  20.536   4.609
25909W        W85654  26.170  31.152   4.145
25910W        W85655  21.599  16.160  12.068
25911W        W85656  30.998   5.912   0.944
25912W        W85657  26.182  25.598   1.254
25913W        W85658  43.318  16.293  11.959
25914W        W85659  36.592   9.313  12.875
25915W        W85660   1.389  23.567  13.525
25916W        W85661  27.027   3.314  13.391
25917W        W85662  34.464   5.821  14.919
25918W        W85663  19.117  21.706   1.309
25919W        W85664  26.664  36.033  10.148
25920W        W85665  39.391  40.912  10.417
25921W        W85666  18.770  10.752   3.638
25922W        W85667  26.956  18.716   0.876
25923W        W85668  43.448  12.784   1.736
25924W        W85669   5.432  44.301  14.491
25925W        W85670  15.321   3.908  12.463
25926W        W85671   5.901  28.539  14.896
25927W        W85672  14.109  10.877   1.266
25928W        W85673  43.882  43.985   2.380
25929W        W85674   3.888  38.054  14.954
25930W        W85675  16.606  23.055  14.961
25931W        W85676  42.438  22.566  14.975
25932W        W85677  41.471  39.359   1.430
25933W        W85678   0.366  11.632   0.477
25934W        W85679  37.534  17.686   0.472
25935W        W85680  33.572   1.948   2.816
25936W        W85681  21.679  11.799  11.873
25937W        W85682  20.618   9.277   4.292
25938W        W85683  35.574  27.642   4.354
25939W        W85684  39.012  31.991  13.535
25940W        W85685  11.278  20.165  14.022
25941W        W85686   5.428  28.470  14.779
25942W        W85687  28.952  25.142   3.332
25943W        W85688  40.854   3.820  11.577
25944W        W85689  10.141   0.872   4.793
25945W        W85690   6.729  40.879  13.426
25946W        W85691   4.922  37.874   2.853
25947W        W85692  40.030   8.264  12.512
25948W        W85693  28.488  38.537   0.859
25949W        W85694  42.395  14.654  13.009
25950W        W85695  15.746  33.918   0.481
25951W        W85696   1.832  23.131   4.645
25952W        W85697  37.878  37.907   2.334
25953W        W85698   8.242  29.112   2.413
25954W        W85699  12.834  38.954   1.907
25955W        W85700  38.463  13.313   3.253
25956W        W85701   0.966   4.316   0.354
25957W        W85702  24.212  19.723  11.867
25958W        W85703  25.580  27.170   4.118
25959W        W85704  44.896  25.578   3.763
25960W        W85705  43.446   8.853  13.029
25961W        W85706  26.682   9.797   4.718
25962W        W85707  33.933  23.051   9.646
25963W        W85708  42.393  12.350   2.695
25964W        W85709   9.644  18.122  12.383
25965W        W85710   8.279   7.732  13.943
25966W        W85711   6.254  18.142   5.245
25967W        W85712  36.409  37.989   1.755
25968W        W85713  23.653  37.938  12.355
25969W        W85714  14.137   6.836  11.955
25970W        W85715  43.492  35.924   4.174
25971W        W85716  33.088  35.509  13.316
25972W        W85717  42.350  14.818   3.817
25973W        W85718  43.910  13.727  12.381
25974W        W85719   8.693  29.580   2.803
25975W        W85720  16.141  44.318   1.758
25976W        W85721  15.679  29.614  10.420
25977W        W85722  16.649  33.091  13.531
25978W        W85723  20.569   7.851  12.907
25979W        W85724  26.511  30.642  12.050
25980W        W85725  19.205  44.464   0.923
25981W        W85726   0.296   2.450   3.652
25982W        W85727  13.703  40.475  13.437
25983W        W85728  12.636   7.416   3.237
25984W        W85729   4.919   9.728  12.388
25985W        W85730  34.557  12.291  11.980
25986W        W85731   8.779   6.834  11.575
25987W        W85732  35.521  25.191  14.949
25988W        W85733  37.469  34.092   2.718
25989W        W85734   6.714  12.662   4.125
25990W        W85735   9.783  37.832   2.734
25991W        W85736  41.859  39.408  13.412
25992W        W85737  21.245  30.007   1.300
25993W        W85738   9.293   1.867   2.732
25994W        W85739  37.061  27.064  10.432
25995W        W85740   9.190   6.255   3.796
25996W        W85741  25.002  15.692   4.323
25997W        W85742  15.785   4.329   4.316
25998W        W85743   3.855   6.299   1.875
25999W        W85744  19.163   1.788   2.413
26000W        W85745   1.296  13.671   3.232
26001W        W85746  21.746  33.938  11.105
26002W        W85747  34.410  32.421  14.861
26003W        W85748   8.301  34.430   0.802
26004W        W85749  27.482  26.202  14.800
26005W        W85750  19.122  34.918   0.298
26006W        W85751  30.937  31.897  11.898
26007W        W85752  26.586  37.392  10.151
26008W        W85753  30.594   0.878   5.270
26009W        W85754  21.052   6.366  10.906
26010W        W85755  33.057  41.942  11.121
26011W        W85756  33.975  23.001   5.633
26012W        W85757  15.748   5.829   5.113
26013W        W85758   0.252  35.401  10.636
26014W        W85759  30.941  12.835   3.691
26015W        W85760   0.315  30.014  13.019
26016W        W85761   6.265  36.426  13.382
26017W        W85762  10.869   8.768   1.215
26018W        W85763  41.877  43.976   0.303
26019W        W85764   1.854  28.488   5.801
26020W        W85765  25.639  40.406   9.927
26021W        W85766  14.210  40.364  14.872
26022W        W85767  14.115  41.423   1.823
26023W        W85768   4.730  42.012  14.452
26024W        W85769  33.395  41.494  10.122
26025W        W85770  36.496  43.975  10.532
26026W        W85771  10.144  41.841   2.180
26027W        W85772   1.314   4.265   0.394
26028W        W85773  25.980  21.715  14.837
26029W        W85774  15.764  42.789  10.571
26030W        W85775  33.072   9.713   0.826
26031W        W85776  27.576  19.658   4.625
26032W        W85777   8.865  22.662   2.386
26033W        W85778   7.778  26.625  10.604
26034W        W85779  42.896   0.403  11.549
26035W        W85780  26.073  28.929   4.701
26036W        W85781  23.594  24.639  12.369
26037W        W85782  17.138  14.610   1.428
26038W        W85783  12.294  41.972   3.754
26039W        W85784  27.581   4.777   1.279
26040W        W85785  30.454  43.839  13.467
26041W        W85786  35.935  24.706   2.243
26042W        W85787  18.195  12.334  11.496
26043W        W85788  31.141  15.814  10.041
26044W        W85789  23.584  29.167   0.841
26045W        W85790  14.745  39.834   2.288
26046W        W85791  24.024  21.710   4.288
26047W        W85792  40.500  34.001  14.478
26048W        W85793  27.177  27.089  11.403
26049W        W85794  41.001   5.856   3.761
26050W        W85795  42.997  19.763  12.886
26051W        W85796  33.975  32.053   5.207
26052W        W85797  23.622  20.241  13.383
26053W        W85798  32.522  42.817  11.020
26054W        W85799  26.570  20.071  11.599
26055W        W85800  18.712  39.480  10.917
26056W        W85801  29.667   1.461  14.294
26057W        W85802   7.256  20.156  11.945
26058W        W85803  36.590  34.465   3.155
26059W        W85804  16.152   2.320   3.226
26060W        W85805  11.251   2.326  10.997
26061W        W85806  15.741  26.552   4.733
26062W        W85807   2.410  28.633  12.565
26063W        W85808  29.490   9.764  10.447
26064W        W85809  39.427  17.119   0.916
26065W        W85810  20.528  14.686   1.694
26066W        W85811  28.164   4.858  11.405
26067W        W85812  32.058   9.772   1.353
26068W        W85813  24.145  41.402   9.987
26069W        W85814  14.264  38.522   1.282
26070W        W85815   1.369  25.063  13.414
26071W        W85816  10.163  43.931  13.521
26072W        W85817  43.805  10.202  13.040
26073W        W85818  18.271  19.666  12.079
26074W        W85819   1.866  40.490   9.995
26075W        W85820  17.733  21.153   4.703
26076W        W85821  25.602  34.070   1.245
26077W        W85822  34.563  13.245  12.399
26078W        W85823  36.096  12.652   1.932
26079W        W85824   2.405   1.348   1.708
26080W        W85825  32.114  33.387   4.262
26081W        W85826  12.336   3.925   2.837
26082W        W85827  41.965  31.003  14.309
26083W        W85828   2.875  34.018  14.984
26084W        W85829  10.359   6.861  13.498
26085W        W85830  17.077  13.750   0.899
26086W        W85831  12.206  14.704  12.828
26087W        W85832  19.629   2.281  12.475
26088W        W85833  24.570  23.677  13.029
26089W        W85834  38.074  14.286   1.830
26090W        W85835  30.585  37.520  12.362
26091W        W85836  15.667  38.461  11.094
26092W        W85837  20.588  41.387   4.793
26093W        W85838  18.200  13.347  14.456
26094W        W85839  21.738  23.092  13.908
26095W        W85840  21.749  40.511   1.749
26096W        W85841   1.893  37.475  14.409
26097W        W85842  39.912   8.253   1.253
26098W        W85843   3.828  33.108   0.953
26099W        W85844  24.557  25.203   1.860
26100W        W85845  37.957  23.606   1.446
26101W        W85846  38.497   7.853  12.056
26102W        W85847  19.189  16.293  10.901
26103W        W85848  12.752  17.287  11.987
26104W        W85849  43.345  15.177  12.933
26105W        W85850  41.833  29.152  14.801
26106W        W85851  27.080  21.716   1.320
26107W        W85852  24.147  34.385   2.668
26108W        W85853   2.747   7.681  12.360
26109W        W85854  12.661   1.783  11.541
26110W        W85855  30.911   0.457  12.984
26111W        W85856  39.400  41.439  11.570
26112W        W85857  43.777   6.321  11.033
26113W        W85858  24.031  36.047  13.957
26114W        W85859  19.549  26.008  12.567
26115W        W85860  13.142   5.368   0.339
26116W        W85861  42.484  17.792   3.235
26117W        W85862  44.460  44.399   5.225
26118W        W85863   5.690  22.581   2.205
26119W        W85864   1.237  21.637  14.900
26120W        W85865  26.204  42.346  10.559
26121W        W85866   9.311  34.454  11.089
26122W        W85867  14.184  26.089   0.293
26123W        W85868  35.950   8.266   1.782
26124W        W85869   5.855  15.246  12.083
26125W        W85870  37.492  16.166   1.725
26126W        W85871  37.483   6.723   3.801
26127W        W85872  22.142  28.943  12.883
26128W        W85873  38.345  12.256  14.864
26129W        W85874  43.952   2.726  12.370
26130W        W85875   4.897  19.267   9.463
26131W        W85876  18.207  41.812   2.342
26132W        W85877  34.062  26.100  11.521
26133W        W85878   9.824  28.110  10.960
26134W        W85879  21.581  44.836  13.508
26135W        W85880  25.101   8.842   4.158
26136W        W85881  11.788   4.238  13.338
26137W        W85882  15.650  43.402   2.326
26138W        W85883  13.648  38.523   4.303
26139W        W85884  40.923   2.388   4.794
26140W        W85885  34.588  30.420  12.023
26141W        W85886   2.332  29.027   3.316
26142W        W85887  14.100  34.415   2.293
26143W        W85888  44.322  17.146  14.461
26144W        W85889  39.891  31.565   0.845
26145W        W85890  17.611  44.772  14.454
26146W        W85891   3.222  33.555  14.409
26147W        W85892  21.636  10.304  11.525
26148W        W85893  34.061   5.872   1.399
26149W        W85894  12.818  16.669   4.165
26150W        W85895  30.963  43.388   3.791
26151W        W85896  34.589  35.072  12.431
26152W        W85897  13.686  38.431  10.611
26153W        W85898  11.852  42.818   4.741
26154W        W85899   6.802  33.580   0.473
26155W        W85900  26.138  29.436   2.261
26156W        W85901  41.350   2.420   1.784
26157W        W85902  38.845  25.677   4.214
26158W        W85903   3.741   0.266  10.089
26159W        W85904  36.585   5.696  12.064
26160W        W85905  36.077   0.931   0.745
26161W        W85906  13.196   7.811   0.466
26162W        W85907  28.057  44.504   3.308
26163W        W85908  37.048  15.688  13.451
26164W        W85909   3.250  28.521  14.335
26165W        W85910  19.671   5.220   1.326
26166W        W85911   6.184  28.978  12.093
26167W        W85912  44.318  24.667   3.310
26168W        W85913  29.474  11.171   0.947
26169W        W85914  36.921  16.296   3.871
26170W        W85915  34.883  19.585   5.638
26171W        W85916  27.068  34.475  12.361
26172W        W85917  36.082  32.940   0.772
26173W        W85918   6.195   0.300  12.374
26174W        W85919  12.263   1.341   2.740
26175W        W85920  22.645  34.492   0.743
26176W        W85921   5.306  33.044   4.638
26177W        W85922   3.360  10.729   4.297
26178W        W85923  24.543  24.114  10.423
26179W        W85924  43.305  14.222   1.790
26180W        W85925  19.598  34.573  11.414
26181W        W85926  21.717  13.827  13.849
26182W        W85927   5.796  25.473   1.893
26183W        W85928  24.189  25.561  13.847
26184W        W85929   5.407  16.300   0.735
26185W        W85930   9.374  31.546   1.844
26186W        W85931  16.652   6.420   4.153
26187W        W85932  34.469  30.092   0.889
26188W        W85933   6.327  12.794   4.336
26189W        W85934  14.640  36.549  12.492
26190W        W85935  30.600   9.181  13.925
26191W        W85936   7.804  10.667   3.680
26192W        W85937  16.209  12.620   0.290
26193W        W85938  15.647  38.035  12.899
26194W        W85939  30.650  41.841  10.631
26195W        W85940  15.120  15.601   0.908
26196W        W85941  39.060  15.276   1.219
26197W        W85942  22.078  19.284  10.922
26198W        W85943   3.926  32.016   4.244
26199W        W85944  42.782  34.404  11.444
26200W        W85945  10.701   5.424  11.569
26201W        W85946  41.433  42.856  11.086
26202W        W85947  14.219  32.959   1.838
26203W        W85948   8.393  15.604  12.360
26204W        W85949  30.616  27.489   4.676
26205W        W85950  26.057   1.451   2.815
26206W        W85951  27.518   1.889   3.359
26207W        W85952  38.546  23.615  10.477
26208W        W85953  42.808  35.401  12.355
26209W        W85954   1.787  25.154  14.334
26210W        W85955  33.879  12.279   0.454
26211W        W85956  31.083  36.958  14.790
26212W        W85957  12.686   1.857   2.413
26213W        W85958  42.332  25.519   3.633
26214W        W85959  39.047  17.764  14.851
26215W        W85960  32.515  35.380   2.298
26216W        W85961   7.691  27.453   2.740
26217W        W85962   0.762   7.199  10.112
26218W        W85963  32.432  42.355   0.922
26219W        W85964  26.496  10.300   0.765
26220W        W85965  13.649  19.155   3.191
26221W        W85966   8.824  26.664  10.456
26222W        W85967   1.941   4.846   1.771
26223W        W85968   3.940  32.466   4.781
26224W        W85969  38.886  34.499   0.883
26225W        W85970  16.576  39.042   2.404
26226W        W85971  26.472   5.431  11.399
26227W        W85972  44.426  37.503  14.404
26228W        W85973  18.719  43.840  14.009
26229W        W85974  22.212  36.063   3.783
26230W        W85975  10.667  43.403  11.017
26231W        W85976  13.141  16.778   3.721
26232W        W85977  24.980  19.244   2.403
26233W        W85978  43.339  18.086  14.023
26234W        W85979  19.285  29.484  14.948
26235W        W85980  26.671  13.106  10.489
26236W        W85981  34.949  18.750  14.366
26237W        W85982  26.697  37.441  12.974
26238W        W85983   7.796   4.792   1.902
26239W        W85984  15.090  32.068  12.955
26240W        W85985  13.116   4.390   3.645
26241W        W85986  35.042  42.969   5.170
26242W        W85987  27.093  32.482   5.686
26243W        W85988   8.207  40.530   1.712
26244W        W85989   0.315  18.276  11.915
26245W        W85990  22.089  26.010   1.863
26246W        W85991  26.965  30.040   2.664
26247W        W85992   4.910  19.620  13.906
26248W        W85993  19.599  10.729   2.754
26249W        W85994  37.544  10.373  10.409
26250W        W85995  19.597   2.361  14.377
26251W        W85996  10.667  34.945  11.067
26252W        W85997  31.542  26.118   1.379
26253W        W85998  22.705  23.169   3.167
26254W        W85999  17.115  12.676   0.838
26255W        W86000  13.121  20.162   3.251
26256W        W86001  23.223   1.770   2.181
26257W        W86002   9.864   7.291  12.459
26258W        W86003  27.962  38.067   2.771
26259W        W86004  30.088  31.016  14.787
26260W        W86005   1.896  44.328   3.757
26261W        W86006  43.004   3.952   2.776
26262W        W86007   8.667  21.211   5.204
26263W        W86008  21.204  18.137  12.471
26264W        W86009   5.386  38.326   3.372
26265W        W86010  35.923   8.851  10.431
26266W        W86011  11.203  25.090   0.294
26267W        W86012  41.373  36.511   0.860
26268W        W86013  34.555  14.829   1.412
26269W        W86014  22.528  12.268  10.619
26270W        W86015   5.809  25.474  11.102
26271W        W86016  42.338  35.523  10.941
26272W        W86017  31.989  34.515   1.300
26273W        W86018  11.863  10.181   4.820
26274W        W86019   7.809  11.815  11.489
26275W        W86020  19.124  23.676  14.764
26276W        W86021  15.738  42.881   9.926
26277W        W86022  31.421  10.281  11.554
26278W        W86023  43.346   9.826   3.854
26279W        W86024   4.279   6.393   0.266
26280W        W86025  43.335  10.197  13.908
26281W        W86026  31.956  24.482  14.983
26282W        W86027  28.933  20.681   3.200
26283W        W86028  30.570  25.711  14.408
26284W        W86029  14.261   8.362   3.720
26285W        W86030   6.820  43.780  10.498
26286W        W86031  12.272  44.386  11.902
26287W        W86032  38.503  34.060   3.330
26288W        W86033  38.957  37.884   2.180
26289W        W86034   4.252  24.027   3.858
26290W        W86035  32.603   0.454   0.866
26291W        W86036  17.666  16.113  14.338
26292W        W86037  24.705  36.450   2.266
26293W        W86038  12.337  14.629  12.045
26294W        W86039  27.131   2.755   4.798
26295W        W86040   3.276   3.297   1.783
26296W        W86041   2.381  15.791  14.400
26297W        W86042   0.394   6.186  11.069
26298W        W86043   4.220  11.863  10.495
26299W        W86044  19.744   8.772   3.704
26300W        W86045  33.601  26.082  10.522
26301W        W86046  12.697  34.432   5.133
26302W        W86047  25.979   3.432  13.322
26303W        W86048  11.705  20.146   3.726
26304W        W86049  21.100   9.289  14.349
26305W        W86050  33.505   8.753   1.426
26306W        W86051  15.149  32.031   3.729
26307W        W86052   2.964   5.403  14.275
26308W        W86053  11.272  12.673   2.270
26309W        W86054   2.821  27.611   3.857
26310W        W86055  42.308   4.747   2.217
26311W        W86056  38.007  40.869  13.914
26312W        W86057   4.764  26.009  14.761
26313W        W86058   2.816  39.534  12.566
26314W        W86059  17.577  34.602   5.744
26315W        W86060  11.132  28.587   0.470
26316W        W86061   6.905  25.636  11.110
26317W        W86062   8.393  34.969  13.029
26318W        W86063  43.864  30.081   2.723
26319W        W86064  39.366  33.592  11.531
26320W        W86065  31.424   6.361   4.285
26321W        W86066  34.916  20.189   3.659
26322W        W86067  39.365  20.765  10.935
26323W        W86068  10.176   5.365  11.509
26324W        W86069  16.623  17.647  11.075
26325W        W86070  30.543  12.282  10.549
26326W        W86071  43.354  32.969   2.723
26327W        W86072  30.151  13.795  10.603
26328W        W86073  31.480  25.097  10.918
26329W        W86074  39.414  23.186  12.870
26330W        W86075  27.000  25.486   3.843
26331W        W86076  27.613  13.239   4.834
26332W        W86077  41.425   4.293  10.562
26333W        W86078  39.832  26.060   2.702
26334W        W86079   3.845  24.026   1.785
26335W        W86080  22.612  18.665  10.490
26336W        W86081  28.972   0.743  11.469
26337W        W86082  40.956  39.329   1.448
26338W        W86083  43.321   9.685  12.091
26339W        W86084  20.667  36.072   3.274
26340W        W86085  37.910  31.921  12.012
26341W        W86086  35.102   7.242   0.770
26342W        W86087  44.921  21.698   4.792
26343W        W86088   3.825  37.027   3.351
26344W        W86089  15.631  15.138  14.350
26345W        W86090  19.156   6.238   4.598
26346W        W86091   8.346  37.580   4.211
26347W        W86092  19.574   5.920   3.869
26348W        W86093  14.825  31.032  13.362
26349W        W86094  34.374  14.306   0.324
26350W        W86095   5.272   8.818   2.903
26351W        W86096  36.966  39.393  12.016
26352W        W86097  39.469  17.689  14.464
26353W        W86098  36.453   5.407   3.383
26354W        W86099  23.658  38.377   3.187
26355W        W86100  25.529  36.952   0.377
26356W        W86101  33.399   9.703  11.037
26357W        W86102   0.818  44.937   1.888
26358W        W86103  20.712  40.529  11.013
26359W        W86104  25.103  35.554  13.896
26360W        W86105  41.529  34.462   3.629
26361W        W86106  12.857  31.496   3.737
26362W        W86107  33.426   1.264   3.224
26363W        W86108  32.127  26.967  11.600
26364W        W86109  31.620  44.395  10.952
26365W        W86110  20.551  16.672   1.840
26366W        W86111  26.164  14.661   1.316
26367W        W86112  13.212  19.057   3.766
26368W        W86113   7.842  39.339  10.980
26369W        W86114  15.809  13.713  12.451
26370W        W86115   4.287   1.360  12.874
26371W        W86116  33.125  12.662  11.529
26372W        W86117  34.510   2.325   1.777
26373W        W86118  15.195   6.246   1.934
26374W        W86119  23.015  34.387   3.852
26375W        W86120  19.045  16.662  13.851
26376W        W86121  13.769  30.583   2.370
26377W        W86122   4.854   7.735   0.740
26378W        W86123  21.556   7.394   1.374
26379W        W86124  14.264  36.554   0.418
26380W        W86125  33.927  18.137   2.882
26381W        W86126  21.538  29.569  12.433
26382W        W86127  31.110   0.966   2.324
26383W        W86128   8.204  31.047  13.040
26384W        W86129  41.857  11.351  14.914
26385W        W86130  29.564  23.601  11.062
26386W        W86131  43.794  31.960  11.481
26387W        W86132  22.579  43.767  13.406
26388W        W86133  23.152  28.491  14.799
26389W        W86134  29.457  11.816  10.477
26390W        W86135  17.101  42.377   0.420
26391W        W86136   2.310  23.115   0.386
26392W        W86137  32.551  36.562   2.310
26393W        W86138  14.331  33.399  13.521
26394W        W86139  44.808  37.522  13.837
26395W        W86140  40.375  33.541  11.065
26396W        W86141  43.824   8.798  11.387
26397W        W86142  11.796  27.506  12.933
26398W        W86143  15.207  12.787  10.521
26399W        W86144  27.119  26.975   0.892
26400W        W86145  28.187  26.471  12.532
26401W        W86146  14.606  33.432  14.868
26402W        W86147  40.962  44.440   2.820
26403W        W86148  43.979  38.418  13.791
26404W        W86149  34.964   1.824   0.821
26405W        W86150  23.219  23.581  11.499
26406W        W86151  39.917  32.408   2.315
26407W        W86152  24.052   9.357   4.686
26408W        W86153  23.579  36.358   2.830
26409W        W86154  26.511  14.144  13.453
26410W        W86155  14.099  17.714   2.666
26411W        W86156   5.734  42.396  12.578
26412W        W86157  35.096  33.097   2.704
26413W        W86158   6.356  12.765   4.746
26414W        W86159  13.796  19.667   5.255
26415W        W86160   9.253  17.704   0.361
26416W        W86161  18.194  41.435   2.812
26417W        W86162   9.375  35.861  10.527
26418W        W86163  26.958  20.096   2.204
26419W        W86164  42.493  41.535  14.910
26420W        W86165  42.513  36.036   2.380
26421W        W86166  24.655  24.021   4.350
26422W        W86167   7.275  35.438  12.072
26423W        W86168  26.983  22.201   2.900
26424W        W86169  20.209  24.537  12.095
26425W        W86170   9.390  34.989   2.721
26426W        W86171   1.370  14.771   2.803
26427W        W86172   5.748  12.734   1.908
26428W        W86173  22.599  15.796   1.932
26429W        W86174  14.780   9.716  13.876
26430W        W86175  42.439  35.995  13.495
26431W        W86176  21.102  15.676   2.682
26432W        W86177  44.399  15.109  11.577
26433W        W86178  27.610  30.562  10.571
26434W        W86179  36.946  36.051  12.071
26435W        W86180   9.360  13.845  12.410
26436W        W86181  23.696  12.242   2.192
26437W        W86182   4.313   4.807   1.374
26438W        W86183  21.684  19.684   3.703
26439W        W86184   9.285  43.381  10.934
26440W        W86185   5.851  23.212   0.838
26441W        W86186   5.437  12.168  10.443
26442W        W86187  41.892  10.291   4.833
26443W        W86188  19.720  15.718  11.990
26444W        W86189  21.643   0.772  12.475
26445W        W86190  43.494  28.077  12.932
26446W        W86191  32.591  10.851  12.050
26447W        W86192  23.717  29.042  12.067
26448W        W86193   0.751  19.653   2.293
26449W        W86194  17.599   7.714  14.303
26450W        W86195  23.106   2.847  11.050
26451W        W86196   5.326  36.368  12.576
26452W        W86197   9.683  44.875   3.731
26453W        W86198  21.686  25.086  14.833
26454W        W86199  28.991  11.707  12.066
26455W        W86200  32.927  44.785   2.742
26456W        W86201  19.285  27.039   1.232
26457W        W86202  14.828  20.744   1.737
26458W        W86203  21.024  13.616  12.975
26459W        W86204  35.373  16.215   2.190
26460W        W86205   4.798  12.721   0.345
26461W        W86206  20.663  11.186   1.825
26462W        W86207  10.189  35.571   3.346
26463W        W86208  21.617  14.251  12.360
26464W        W86209  18.264  37.454  10.433
26465W        W86210  15.155  24.555  14.483
26466W        W86211  26.053   5.886   2.407
26467W        W86212   2.818  14.662  13.043
26468W        W86213  40.905   2.298   1.701
26469W        W86214   0.384  24.562  12.999
26470W        W86215  20.559  28.947   2.272
26471W        W86216  11.825  42.988   2.743
26472W        W86217  21.103  43.429   3.291
26473W        W86218  13.315  35.506  14.770
26474W        W86219  42.389  27.600  10.908
26475W        W86220  19.601  19.674  11.877
26476W        W86221   0.758   6.383  10.415
26477W        W86222  42.435   8.369  14.763
26478W        W86223  18.594  38.919  14.314
26479W        W86224  25.674  44.363  13.910
26480W        W86225   4.313  27.458  13.467
26481W        W86226  15.185  21.720  10.916
26482W        W86227  41.421  38.881   1.820
26483W        W86228  11.160  32.408  13.993
26484W        W86229  17.733  10.384  13.513
26485W        W86230  14.609  22.582  10.967
26486W        W86231  26.980  31.070   2.867
26487W        W86232  14.699   5.407  12.492
26488W        W86233  34.046  23.586   2.306
26489W        W86234   8.362  13.141  12.360
26490W        W86235  38.523  16.730   2.266
26491W        W86236  18.102  23.007  12.886
26492W        W86237  13.250  36.943   2.180
26493W        W86238  16.704  32.918   4.713
26494W        W86239  29.626  39.343   0.470
26495W        W86240  44.296  19.661   4.296
26496W        W86241  37.534  34.378   1.221
26497W        W86242  39.352  34.091   0.940
26498W        W86243  15.614  38.004  11.938
26499W        W86244  14.166  36.073  10.516
26500W        W86245  13.187  32.061  10.890
26501W        W86246  40.524  31.454   1.900
26502W        W86247  11.836  22.109  12.037
26503W        W86248  41.374   3.925  11.422
26504W        W86249   8.794  32.550   2.214
26505W        W86250  21.623  26.023   0.935
26506W        W86251  23.113  42.002  11.562
26507W        W86252  23.734   4.428   4.138
26508W        W86253  34.592  36.550   3.728
26509W        W86254  37.495  39.837   2.369
26510W        W86255   6.755  17.770   3.302
26511W        W86256  13.142  38.422  13.380
26512W        W86257  37.921  18.100   4.282
26513W        W86258  33.897  43.379   0.770
26514W        W86259  15.161  18.585   0.430
26515W        W86260   6.182   3.815  14.498
26516W        W86261  31.147   3.344   2.396
26517W        W86262  43.000   3.889  13.409
26518W        W86263  41.900   7.350  14.973
26519W        W86264   8.849  43.888   4.699
26520W        W86265  24.006  13.156   4.651
26521W        W86266  27.029  38.542   3.629
26522W        W86267  29.510  26.192  14.824
26523W        W86268  12.136  23.714   0.376
26524W        W86269  17.067  10.874   3.321
26525W        W86270  11.254  31.911  10.416
26526W        W86271   8.292  32.593   1.276
26527W        W86272   4.872  38.397   5.273
26528W        W86273  19.281  34.583   2.253
26529W        W86274  35.528   2.783   2.336
26530W        W86275  11.163  19.195  11.454
26531W        W86276   8.207  25.997  11.033
26532W        W86277   6.836  25.206  13.478
26533W        W86278   7.185  40.826   0.800
26534W        W86279   6.395  26.021   4.719
26535W        W86280  32.965  18.748   0.963
26536W        W86281  29.077  11.367   2.303
26537W        W86282  35.897  20.718  12.955
26538W        W86283  43.977  13.806   4.285
26539W        W86284  36.545  32.561  10.550
26540W        W86285  44.493   8.339  13.960
26541W        W86286  33.056  14.315   0.484
26542W        W86287  37.050  12.751  11.492
26543W        W86288  35.936  25.698  13.824
26544W        W86289  14.589  12.829  11.478
26545W        W86290  23.735  16.264   1.348
26546W        W86291  21.097  14.213   1.849
26547W        W86292   6.362  41.483  10.610
26548W        W86293  32.498  34.928   4.659
26549W        W86294  20.112  17.754   1.902
26550W        W86295  30.636  17.152  14.902
26551W        W86296  37.518  10.221   1.399
26552W        W86297   1.244  35.375  12.549
26553W        W86298   6.279  17.197   2.411
26554W        W86299  34.402  20.548   3.849
26555W        W86300  41.517  40.955   3.176
26556W        W86301  23.198  35.525  13.812
26557W        W86302  19.673  31.450   3.871
26558W        W86303  20.726  21.121   2.218
26559W        W86304  27.164  22.723   4.307
26560W        W86305   2.796  34.002  12.838
26561W        W86306   6.304  31.484   0.809
26562W        W86307  12.184   9.884   4.113
26563W        W86308  30.050  20.157   4.704
26564W        W86309  13.209  20.735   4.652
26565W        W86310  14.721  23.583  13.539
26566W        W86311  30.562  21.667   4.736
26567W        W86312  32.107   5.931   1.935
26568W        W86313  16.193  14.599  14.943
26569W        W86314  44.005  36.482  13.935
26570W        W86315  26.119   9.176   1.384
26571W        W86316   0.805   1.974  11.107
26572W        W86317  30.628  34.418   0.250
26573W        W86318  29.485   8.280   4.204
26574W        W86319   1.908  29.942  10.967
26575W        W86320  40.481  16.188  12.878
26576W        W86321  17.157  30.968   2.766
26577W        W86322   3.942  20.066  12.424
26578W        W86323   6.822  27.092   0.324
26579W        W86324  38.075  13.253  13.460
26580W        W86325  42.509  19.663  11.406
26581W        W86326  36.853  37.058   1.725
26582W        W86327  25.088  14.835  12.009
26583W        W86328  12.772  28.154   3.276
26584W        W86329   2.931  24.996   1.706
26585W        W86330  38.000  35.908   1.765
26586W        W86331  35.378  16.715   3.770
26587W        W86332  11.679  21.559  11.103
26588W        W86333   4.313   9.767  10.406
26589W        W86334  27.019   6.300  13.947
26590W        W86335  23.158  34.461   2.802
26591W        W86336  16.193  19.192   1.326
26592W        W86337  24.500   8.270  10.959
26593W        W86338  34.919   7.773   9.950
26594W        W86339  22.007  37.841  11.049
26595W        W86340  33.486  32.542   0.780
26596W        W86341  43.891  38.467   0.461
26597W        W86342  40.424  44.312   0.420
26598W        W86343   5.235  40.372   0.798
26599W        W86344   9.169  29.647   2.896
26600W        W86345  31.423   0.251   3.813
26601W        W86346  22.156  12.229   4.135
26602W        W86347  40.889  10.771   0.253
26603W        W86348  17.281  34.393   2.739
26604W        W86349  32.518  19.593  15.000
26605W        W86350   9.742  41.851  11.391
26606W        W86351  15.154   8.279  11.948
26607W        W86352   0.975  36.039   5.629
26608W        W86353  14.223  31.443  11.455
26609W        W86354  39.917  19.708   0.911
26610W        W86355  34.405  21.164   2.208
26611W        W86356   0.353  39.447   1.744
26612W        W86357  21.035  29.469  11.862
26613W        W86358  29.925  26.501   0.800
26614W        W86359  26.618  10.356   3.201
26615W        W86360  14.723  26.476  14.991
26616W        W86361  10.733  39.410   2.206
26617W        W86362  22.100  35.510   0.410
26618W        W86363  42.976  18.186   9.946
26619W        W86364  27.027   6.692   4.222
26620W        W86365   6.191  30.994  11.018
26621W        W86366  17.253   2.884  11.899
26622W        W86367  41.812   3.891  14.359
26623W        W86368  24.137   1.379  11.874
26624W        W86369  16.109  30.472   1.391
26625W        W86370  44.395  16.671  14.764
26626W        W86371  16.125  22.251   4.770
26627W        W86372   6.775  14.141  13.452
26628W        W86373  38.558  43.011   4.220
26629W        W86374  33.888  39.977  11.578
26630W        W86375  19.216   8.164   0.398
26631W        W86376  30.497  43.421   1.211
26632W        W86377   3.275  24.175   4.765
26633W        W86378  19.545  28.074   3.841
26634W        W86379   6.211  18.197  14.362
26635W        W86380  37.043  21.531   0.268
26636W        W86381  38.359   3.786  12.918
26637W        W86382  42.793  19.262   3.165
26638W        W86383  28.156  18.215   9.959
26639W        W86384  32.404  26.658   4.333
26640W        W86385  27.141  14.179  10.977
26641W        W86386   5.877  19.653  13.542
26642W        W86387  25.136  16.087   1.828
26643W        W86388  15.196   8.188   1.816
26644W        W86389  12.300   7.740   4.628
26645W        W86390  17.146  14.787  12.825
26646W        W86391  17.717   4.738   4.298
26647W        W86392  40.049  27.054  14.934
26648W        W86393  35.486   3.944  12.490
26649W        W86394  24.026  18.120  12.056
26650W        W86395  39.829  22.534  12.037
26651W        W86396   9.768  32.594   1.239
26652W        W86397  12.258  34.401   9.947
26653W        W86398   6.370   6.773   2.382
26654W        W86399  37.969  39.538   1.782
26655W        W86400   6.763  33.971  13.478
26656W        W86401  40.881  42.340  11.083
26657W        W86402  30.013   1.383   0.333
26658W        W86403  11.781  33.565   1.881
26659W        W86404  12.217  21.555   3.728
26660W        W86405  39.033  12.824  10.449
26661W        W86406   1.394  27.005  11.938
26662W        W86407  43.372  35.473   2.225
26663W        W86408  37.071  31.502   4.608
26664W        W86409  23.109  17.279   3.841
26665W        W86410  42.929  44.792   1.294
26666W        W86411  43.407  24.113  10.415
26667W        W86412  14.302  43.279  12.563
26668W        W86413  19.640  36.370  12.033
26669W        W86414  31.041  30.440   4.119
26670W        W86415   8.315  23.538  11.940
26671W        W86416  18.077  30.529   3.173
26672W        W86417  24.051  38.002  13.919
26673W        W86418   9.183  23.499  14.423
26674W        W86419   3.742  29.052  13.396
26675W        W86420  15.616  34.939  13.063
26676W        W86421  13.763  30.633   4.672
26677W        W86422  21.656  10.798  13.003
26678W        W86423   9.680  43.964   3.806
26679W        W86424  42.504  14.220  14.287
26680W        W86425  33.558  33.002  10.500
26681W        W86426   5.800  24.181   2.276
26682W        W86427   8.219  11.844   4.309
26683W        W86428  21.741  24.058   0.417
26684W        W86429   3.723  32.449   2.247
26685W        W86430  26.080  18.120   2.829
26686W        W86431  38.860  25.190   3.155
26687W        W86432  23.519   0.903   3.657
26688W        W86433   7.291   9.242  14.374
26689W        W86434  39.915  27.627   1.897
26690W        W86435  36.441   7.216   3.202
26691W        W86436  19.742   5.341  10.528
26692W        W86437  15.300  37.021   0.429
26693W        W86438  13.783   9.672   2.378
26694W        W86439  38.976  40.504  12.972
26695W        W86440  10.813  40.908   3.862
26696W        W86441  42.499  43.321  13.331
26697W        W86442  39.808  14.183  12.344
26698W        W86443  34.522  24.139   2.695
26699W        W86444  23.006  41.334  14.844
26700W        W86445  30.928   5.398   0.396
26701W        W86446  20.052  36.377  11.053
26702W        W86447   0.921  24.127  13.523
26703W        W86448   6.790  37.975   0.829
26704W        W86449   1.458  39.036  13.863
26705W        W86450  20.195  28.581  12.477
26706W        W86451   1.788  12.837  14.297
26707W        W86452  32.555  32.908  13.963
26708W        W86453  26.974  12.228   2.863
26709W        W86454  12.757  14.201   4.343
26710W        W86455  11.644  35.561  11.978
26711W        W86456  41.847  18.704   1.351
26712W        W86457  23.196   7.899  14.368
26713W        W86458  41.922  25.043  13.500
26714W        W86459   5.788  41.496   3.730
26715W        W86460   9.322  40.527  13.948
26716W        W86461  24.099  33.485  13.979
26717W        W86462  25.125  35.961   4.304
26718W        W86463  42.463  29.616  11.499
26719W        W86464  17.118  39.491  11.442
26720W        W86465  35.004  33.045   0.804
26721W        W86466  10.199  33.617  14.279
26722W        W86467   0.874  22.718  12.997
26723W        W86468   6.874   0.377  12.978
26724W        W86469   1.240   8.322   1.376
26725W        W86470  11.782  36.915  14.882
26726W        W86471   9.331  15.270  14.895
26727W        W86472  23.725  32.487   0.853
26728W        W86473  12.330  30.093  10.921
26729W        W86474  20.132  28.497   0.433
26730W        W86475  24.532  21.618  14.277
26731W        W86476  15.221  11.826  11.572
26732W        W86477  30.086   2.756   3.765
26733W        W86478  36.413  44.269   3.796
26734W        W86479  18.268  37.378  13.000
26735W        W86480  42.815  21.256   4.626
26736W        W86481  31.930   0.361   0.324
26737W        W86482  31.124  35.425   1.250
26738W        W86483  36.051  43.879   2.845
26739W        W86484  34.963  20.141   0.743
26740W        W86485   9.258   2.334   0.890
26741W        W86486  43.968  44.449   0.333
26742W        W86487  15.721  34.381   0.941
26743W        W86488  27.085   9.175  14.319
26744W        W86489  44.471  28.938   2.884
26745W        W86490  43.976  34.605  11.534
26746W        W86491  35.390  21.034  12.046
26747W        W86492   8.667  44.967  10.566
26748W        W86493  15.266  24.202  11.500
26749W        W86494   3.382  36.510  10.416
26750W        W86495  18.251  20.691   3.741
26751W        W86496   7.711   7.213   3.719
26752W        W86497  18.285  25.622  11.460
26753W        W86498  35.900   7.200  12.873
26754W        W86499  10.734  16.594   0.458
26755W        W86500  14.633  40.974  14.337
26756W        W86501  21.622   5.806  13.054
26757W        W86502  41.900  41.976  11.580
26758W        W86503   1.366   3.937  10.909
26759W        W86504  34.922  36.886  10.621
26760W        W86505   8.323   5.860   4.792
26761W        W86506  37.909  23.078   2.783
26762W        W86507  19.771  37.004   2.309
26763W        W86508  17.581   0.388  13.064
26764W        W86509  19.635   2.892  13.382
26765W        W86510  11.834  14.166  11.378
26766W        W86511  17.564  25.639  14.353
26767W        W86512  38.994   0.865  13.057
26768W        W86513  21.628   5.792   0.909
26769W        W86514  10.789   6.209   0.338
26770W        W86515  31.591  36.436   0.297
26771W        W86516   4.733  12.711   1.924
26772W        W86517  28.465   2.830   3.295
26773W        W86518  22.044   0.945   3.290
26774W        W86519  15.328  25.518   4.210
26775W        W86520   3.714   1.371   0.294
26776W        W86521  44.387  42.873   3.654
26777W        W86522  21.191   9.214   0.745
26778W        W86523  23.145  35.875   5.249
26779W        W86524  28.469   4.364  14.374
26780W        W86525   9.756  21.209  12.827
26781W        W86526   6.780  21.569  12.902
26782W        W86527   2.888  31.962  14.465
26783W        W86528  44.364   5.340   2.784
26784W        W86529   4.371  24.558   2.419
26785W        W86530  28.442  40.419   2.281
26786W        W86531  16.291  23.082   2.397
26787W        W86532   1.361  15.690   3.817
26788W        W86533   4.881  23.552   1.403
26789W        W86534  41.493  41.932  10.508
26790W        W86535  29.483  12.326   0.781
26791W        W86536  37.473  41.316  10.463
26792W        W86537  38.026  42.312  14.771
26793W        W86538  32.057  22.588   1.216
26794W        W86539  29.495  38.474  13.886
26795W        W86540  14.726  42.380   3.159
26796W        W86541   0.490  40.317   3.702
26797W        W86542  32.931  41.502  13.439
26798W        W86543  32.021  30.659  14.888
26799W        W86544  24.203  41.511   2.773
26800W        W86545  11.867  32.630   4.201
26801W        W86546   7.369   5.413   4.284
26802W        W86547   4.776  44.981  10.422
26803W        W86548   9.829  28.086  11.990
26804W        W86549  21.126  34.074  12.925
26805W        W86550  26.022  39.485  10.571
26806W        W86551  38.070  11.316  13.503
26807W        W86552  26.015  23.188  10.598
26808W        W86553  31.527   6.743  14.796
26809W        W86554  26.171   7.370  12.096
26810W        W86555   3.742   5.812  10.451
26811W        W86556  21.234   5.231  10.072
26812W        W86557  37.342   8.373  11.011
26813W        W86558  14.814  12.678  13.047
26814W        W86559  20.236  28.645  11.075
26815W        W86560   3.425  34.547  14.512
26816W        W86561  29.087  10.142  10.918
26817W        W86562  31.941  12.621   1.871
26818W        W86563  28.488  14.592  13.448
26819W        W86564  35.979  20.042   5.261
26820W        W86565  24.513   3.353  11.991
26821W        W86566   1.341  34.504   4.258
26822W        W86567   0.830  15.259  11.529
26823W        W86568  13.732   1.316  14.026
26824W        W86569   1.461  16.739  14.953
26825W        W86570  31.470  28.437  14.392
26826W        W86571   5.207  38.904  14.414
26827W        W86572  20.247  12.818   4.316
26828W        W86573  10.310   1.289   4.781
26829W        W86574  39.516  15.086   3.840
26830W        W86575  30.575  35.596   3.201
26831W        W86576   9.702  44.449   4.149
26832W        W86577  33.381   8.686   0.291
26833W        W86578  29.472  16.119  11.947
26834W        W86579  11.859  11.256  13.486
26835W        W86580  14.772  44.410   4.315
26836W        W86581  15.583  17.567  12.433
26837W        W86582  20.039   2.849  13.544
26838W        W86583   7.829  40.907  14.311
26839W        W86584  11.292  43.933  14.380
26840W        W86585  28.968  29.162   1.717
26841W        W86586  10.200  37.452   3.727
26842W        W86587   8.304  38.941  14.861
26843W        W86588  30.604  18.589   2.244
26844W        W86589  23.518  24.072  11.397
26845W        W86590  30.573   7.282   3.182
26846W        W86591  14.698   5.193  11.123
26847W        W86592  26.522  36.398  11.384
26848W        W86593  36.958   4.705   9.968
26849W        W86594  24.611  43.861  13.494
26850W        W86595   0.297   5.906  13.342
26851W        W86596   0.317  34.884  13.995
26852W        W86597   1.943  22.010  11.480
26853W        W86598  18.610  33.129   1.406
26854W        W86599  14.630  36.920   0.449
26855W        W86600   4.863  34.411   3.159
26856W        W86601   1.776   4.818   4.730
26857W        W86602  34.415  32.486  13.315
26858W        W86603  13.699  40.318   0.790
26859W        W86604  31.907  33.887  12.561
26860W        W86605   9.757  41.029   3.810
26861W        W86606  19.124   6.858   3.184
26862W        W86607  44.500  15.744  10.103
26863W        W86608  19.583  32.593  13.883
26864W        W86609   7.388   6.918  12.982
26865W        W86610   8.259   9.277  12.481
26866W        W86611   7.715   6.784  11.890
26867W        W86612  27.045  27.514  13.904
26868W        W86613  10.276  26.481  10.415
26869W        W86614  44.437  43.455   4.197
26870W        W86615   2.331  21.533   3.695
26871W        W86616  15.810   3.767  10.998
26872W        W86617   7.836  20.751   3.338
26873W        W86618   8.286  44.970  14.500
26874W        W86619  33.124  32.416  12.067
26875W        W86620  12.706   7.791   3.792
26876W        W86621  21.089  42.286  13.034
26877W        W86622  18.567   5.417  13.051
26878W        W86623  26.589  10.827   4.260
26879W        W86624   3.243   7.401   4.324
26880W        W86625  19.206   0.288  12.515
26881W        W86626  40.467  41.536   1.828
26882W        W86627  35.463   4.382   0.245
26883W        W86628   2.776  12.662   2.231
26884W        W86629  27.678  29.984  13.336
26885W        W86630   1.945  14.238  14.010
26886W        W86631  22.593  41.487  11.046
26887W        W86632  28.615  21.709   1.714
26888W        W86633  32.072  37.355   0.925
26889W        W86634  35.919  31.525   2.879
26890W        W86635  22.550  15.107  13.863
26891W        W86636  15.733  11.178  14.507
26892W        W86637  29.032   8.754   1.306
26893W        W86638  12.659  40.504  12.016
26894W        W86639  37.903  13.796  11.605
26895W        W86640  36.385   2.776  13.957
26896W        W86641  37.497  16.133  14.795
26897W        W86642   0.986  24.090  12.536
26898W        W86643  37.015  39.895  11.598
26899W        W86644  31.509  23.224   0.857
26900W        W86645  25.683  43.400   4.705
26901W        W86646  37.997  26.052   3.840
26902W        W86647  18.711   5.876  10.560
26903W        W86648  21.618  18.258   2.871
26904W        W86649  12.694  22.023  13.004
26905W        W86650  22.140  22.721  12.497
26906W        W86651  11.707   2.824   1.405
26907W        W86652  21.080  21.625   4.726
26908W        W86653  37.519  32.476   0.421
26909W        W86654  43.512  28.046  14.305
26910W        W86655  22.135  30.463   0.894
26911W        W86656   7.801  12.174  12.881
26912W        W86657   4.330   8.363  14.496
26913W        W86658  23.123   3.379  13.943
26914W        W86659  26.129   6.916   2.285
26915W        W86660  15.687  28.118   3.723
26916W        W86661   4.378  34.953  12.918
26917W        W86662  23.593  28.528  13.480
26918W        W86663  43.969  36.909   9.641
26919W        W86664  27.977  26.072  11.004
26920W        W86665  14.282  16.759   3.262
26921W        W86666  28.056  28.066   2.762
26922W        W86667  13.297  38.383  10.530
26923W        W86668   0.896  14.222   4.320
26924W        W86669  13.808  13.823  13.834
26925W        W86670  15.100  36.492  10.987
26926W        W86671  23.016  34.056  14.504
26927W        W86672  11.731  15.644  14.874
26928W        W86673  21.057  16.112   2.864
26929W        W86674  13.207  38.450   3.694
26930W        W86675  32.514  41.807   4.721
26931W        W86676  38.530  21.570   3.666
26932W        W86677  40.367  37.398  13.382
26933W        W86678  38.889  34.440   3.856
26934W        W86679  20.767   1.281  14.852
26935W        W86680  40.046   8.215   3.687
26936W        W86681  32.939  35.089  13.852
26937W        W86682  17.269   0.311  12.484
26938W        W86683  14.282   2.737  14.857
26939W        W86684  12.267   6.721   4.182
26940W        W86685  40.305  30.138  13.377
26941W        W86686  31.055  22.727   1.733
26942W        W86687   2.724  11.830  12.013
26943W        W86688   4.307  16.742  11.878
26944W        W86689  11.276  22.609  12.343
26945W        W86690  11.678  34.926   3.741
26946W        W86691  41.838  20.527   1.922
26947W        W86692  34.042  21.642   3.149
26948W        W86693  35.106   0.862  13.542
26949W        W86694  36.385  23.682  13.904
26950W        W86695  32.458  13.760   3.364
26951W        W86696   9.369  31.409   4.716
26952W        W86697  27.965  14.648  14.339
26953W        W86698   4.435  20.173   0.892
26954W        W86699  18.295  18.292   0.797
26955W        W86700   3.261  22.558   3.219
26956W        W86701  24.521   1.951  10.995
26957W        W86702  14.777  41.507  14.788
26958W        W86703  26.506   5.210   3.824
26959W        W86704   4.365  40.962  12.548
26960W        W86705  29.042  42.869   3.760
26961W        W86706   2.723   2.725  13.892
26962W        W86707  35.418  13.802   1.271
26963W        W86708   7.388   1.335   3.747
26964W        W86709  42.358  16.766   0.294
26965W        W86710   1.775  41.986   3.753
26966W        W86711   3.406  44.768  14.017
26967W        W86712  21.104   1.977   2.295
26968W        W86713   9.802   8.741  12.560
26969W        W86714  12.635  24.497  14.788
26970W        W86715  27.157  23.731   4.806
26971W        W86716  26.124  31.455   2.293
26972W        W86717  13.774  15.768  10.512
26973W        W86718  33.465  36.940  11.005
26974W        W86719  27.163  39.501  13.960
26975W        W86720  20.085  31.061   3.247
26976W        W86721  22.074  33.976   1.761
26977W        W86722  31.904  44.353  10.432
26978W        W86723  32.626  23.687   0.850
26979W        W86724  26.520  18.601  13.332
26980W        W86725  22.040   7.806  10.408
26981W        W86726   0.301   2.789  13.317
26982W        W86727  42.421   5.895  10.994
26983W        W86728  19.095  27.119  13.906
26984W        W86729  14.655  35.891   0.361
26985W        W86730  34.594  31.568  10.468
26986W        W86731  40.510  37.484  12.063
26987W        W86732   6.291  29.465  10.451
26988W        W86733  19.230   0.957   3.832
26989W        W86734  37.357  39.020  13.879
26990W        W86735  19.635  23.002  14.472
26991W        W86736  17.592  18.093   3.775
26992W        W86737  30.079  12.164   4.138
26993W        W86738  35.948  20.698  11.103
26994W        W86739  20.700  11.139  12.867
26995W        W86740  36.935  14.189  14.882
26996W        W86741  21.237  12.613  11.575
26997W        W86742  27.478  20.738   3.208
26998W        W86743  10.802   8.828   1.911
26999W        W86744  10.747  30.113   3.730
27000W        W86745  17.257  44.311   0.756
27001W        W86746  37.858  38.567  13.928
27002W        W86747  18.773  28.438  13.017
27003W        W86748  14.729  41.919   1.219
27004W        W86749   4.371  30.469  12.446
27005W        W86750  28.079  28.578  12.960
27006W        W86751  31.130   8.841  10.558
27007W        W86752  26.156   9.720  14.319
27008W        W86753  29.541  32.985   3.329
27009W        W86754   2.864   7.866   0.750
27010W        W86755  15.203  11.808   4.353
27011W        W86756  29.069  39.929  10.635
27012W        W86757   7.237  35.363   3.313
27013W        W86758  18.133  11.263   1.338
27014W        W86759  15.245   7.874  11.520
27015W        W86760  25.052  13.339   3.298
27016W        W86761  40.387  33.446   0.436
27017W        W86762  36.574  22.631  11.440
27018W        W86763  24.647  11.679  14.315
27019W        W86764  43.434  36.474   1.391
27020W        W86765  44.448   6.890   4.739
27021W        W86766  14.174   6.324  13.967
27022W        W86767  44.391  21.228  14.014
27023W        W86768  17.291  37.400   1.875
27024W        W86769  18.130  18.612  13.853
27025W        W86770  39.314   1.294  13.838
27026W        W86771  44.952   4.753   3.340
27027W        W86772  11.197  14.294  12.404
27028W        W86773  20.174  23.602   1.251
27029W        W86774   2.390  16.752  10.006
27030W        W86775  29.098   8.760  13.542
27031W        W86776   6.883  43.804  12.085
27032W        W86777  19.702  35.027   1.730
27033W        W86778   8.376   7.666  11.000
27034W        W86779  36.540  43.007   5.146
27035W        W86780   0.400  27.684  11.033
27036W        W86781   9.730  27.025   3.786
27037W        W86782  10.809  23.204  13.395
27038W        W86783  20.132   6.760   3.868
27039W        W86784   4.776  12.323  13.916
27040W        W86785   3.306  19.153   9.475
27041W        W86786  29.652  31.965  11.055
27042W        W86787   5.346  44.859   3.742
27043W        W86788  21.096   8.880   1.759
27044W        W86789  44.807  14.702  11.123
27045W        W86790  10.749  16.191   0.446
27046W        W86791  28.583  24.194   1.246
27047W        W86792  11.683  44.878   0.941
27048W        W86793  24.723  27.578  11.898
27049W        W86794   8.883  19.740  14.980
27050W        W86795  39.522  11.240   4.200
27051W        W86796  12.239   6.725  14.918
27052W        W86797  30.912  13.343  11.028
27053W        W86798  24.667   2.797   5.321
27054W        W86799  38.342   6.397   1.276
27055W        W86800  16.262  19.047  11.006
27056W        W86801  42.469   4.777   4.115
27057W        W86802   5.267   8.357   1.340
27058W        W86803  39.522  13.186   4.712
27059W        W86804  20.753   8.327  12.055
27060W        W86805  38.879  36.070   3.664
27061W        W86806  30.101  37.346  10.048
27062W        W86807  20.230   9.243  11.939
27063W        W86808   2.772  40.827   3.172
27064W        W86809  37.346  29.148   3.160
27065W        W86810  29.950  29.058   3.255
27066W        W86811   1.826  17.714  14.376
27067W        W86812  20.122  24.113  10.041
27068W        W86813  28.131   7.898   3.165
27069W        W86814   9.673  34.117   0.910
27070W        W86815  36.004  21.755  11.024
27071W        W86816  44.933  27.488  13.866
27072W        W86817   0.790   0.446   3.169
27073W        W86818  11.362  23.598  13.020
27074W        W86819   6.215  15.084   1.429
27075W        W86820  20.141  43.926  12.433
27076W        W86821  20.057   0.296   3.765
27077W        W86822  36.380  18.223  11.116
27078W        W86823   3.835  32.482  10.988
27079W        W86824  18.117  21.731   3.148
27080W        W86825  35.868  19.588  14.830
27081W        W86826   7.720   1.835   1.796
27082W        W86827  26.611  15.143   5.165
27083W        W86828  37.380  30.075   0.433
27084W        W86829  39.027  33.917  14.905
27085W        W86830  22.556  34.054  14.850
27086W        W86831  38.044  10.186  11.549
27087W        W86832  20.745  14.598  10.003
27088W        W86833  41.927  42.797  12.045
27089W        W86834   7.347  30.088  12.538
27090W        W86835   2.931  35.082   3.768
27091W        W86836  16.283  20.612   2.229
27092W        W86837  35.085  43.003   0.880
27093W        W86838   9.366  38.961  13.405
27094W        W86839   0.484  32.041  10.464
27095W        W86840   9.828  42.988  10.557
27096W        W86841  23.668  32.082  12.878
27097W        W86842   4.925  20.660  11.060
27098W        W86843  10.808   3.381   0.351
27099W        W86844  28.126   8.378  14.023
27100W        W86845  44.812   1.357  13.945
27101W        W86846  23.021  16.610   0.819
27102W        W86847  40.490  21.740  14.941
27103W        W86848  14.796  38.072  10.987
27104W        W86849   5.796   6.746  13.453
27105W        W86850  11.241  23.166   1.280
27106W        W86851   7.296  21.692  13.959
27107W        W86852  21.676  40.340  10.000
27108W        W86853  22.138  36.569   4.235
27109W        W86854   5.917  10.266   1.789
27110W        W86855  35.498   4.422   1.740
27111W        W86856  43.910   8.219   3.336
27112W        W86857  31.426   3.854   2.864
27113W        W86858  43.289  11.674  14.888
27114W        W86859  34.887  43.454  10.461
27115W        W86860  25.569  36.442  11.869
27116W        W86861  32.401  14.270   3.752
27117W        W86862  14.786   0.941  14.342
27118W        W86863  32.980  28.080  14.887
27119W        W86864  34.864  41.394  13.872
27120W        W86865   3.427   6.688  13.898
27121W        W86866   9.859  26.015   1.331
27122W        W86867  19.693  25.217   1.923
27123W        W86868  31.612   1.888   2.238
27124W        W86869  11.664  16.313  11.089
27125W        W86870  41.856  24.595   3.283
27126W        W86871  14.674  12.340  11.376
27127W        W86872  15.297  12.228  14.300
27128W        W86873  41.987   3.757  14.820
27129W        W86874  39.359  40.977  14.303
27130W        W86875   3.754  33.412   1.855
27131W        W86876  22.101   8.165   1.217
27132W        W86877  19.557  10.324   0.312
27133W        W86878  35.521  36.488   0.451
27134W        W86879   8.700  25.991   0.411
27135W        W86880  29.651  22.155   3.238
27136W        W86881  32.034  19.617  14.880
27137W        W86882  24.601  41.322  10.888
27138W        W86883   4.810  27.002  12.483
27139W        W86884  22.625  11.647   0.264
27140W        W86885  19.187  26.635   1.856
27141W        W86886   2.339   4.398   2.314
27142W        W86887  40.009  20.690   0.320
27143W        W86888  41.836  29.650   4.208
27144W        W86889  15.268  27.681   1.698
27145W        W86890  44.851  14.289  10.563
27146W        W86891  11.332  28.628  10.598
27147W        W86892   1.852  42.434  14.438
27148W        W86893  44.500  34.932  11.547
27149W        W86894  25.679   6.194  12.574
27150W        W86895   8.272  42.811   4.719
27151W        W86896  10.314  44.394  10.130
27152W        W86897  29.047  35.601   2.323
27153W        W86898  19.660  20.690   2.409
27154W        W86899  26.185  28.496  14.925
27155W        W86900  30.487  17.115   3.232
27156W        W86901  15.731  34.066   3.711
27157W        W86902  21.226  35.467  10.597
27158W        W86903   0.841  11.289   0.800
27159W        W86904  25.029  42.957   3.863
27160W        W86905  17.161   2.370  11.024
27161W        W86906  13.121   4.333  11.111
27162W        W86907  10.269   1.398   2.200
27163W        W86908  13.107  33.889   9.477
27164W        W86909  21.689  34.925  14.017
27165W        W86910  44.969   0.420  12.077
27166W        W86911   7.254   0.980  13.043
27167W        W86912  39.495  24.201   4.353
27168W        W86913   5.917  18.208  13.453
27169W        W86914  15.626  43.862   0.374
27170W        W86915  12.272   9.286  12.014
27171W        W86916  10.640  35.930   2.360
27172W        W86917  16.261  33.500   4.747
27173W        W86918  21.050  12.277   4.260
27174W        W86919  11.194  35.474   4.642
27175W        W86920  29.656  40.463   2.852
27176W        W86921  24.080   7.238  12.434
27177W        W86922  19.174   0.907   2.249
27178W        W86923  19.766  34.513  10.138
27179W        W86924  22.218  29.491   0.274
27180W        W86925  11.822  12.232  11.863
27181W        W86926   6.295  41.875   1.245
27182W        W86927   5.306  25.010  14.465
27183W        W86928  39.517  11.215   1.367
27184W        W86929  17.691  44.901  14.969
27185W        W86930  32.565  36.942   0.747
27186W        W86931  41.969  17.726  11.006
27187W        W86932   4.405  41.931   0.360
27188W        W86933   0.323  29.158  13.939
27189W        W86934   1.932  41.451  12.081
27190W        W86935   4.729  21.601  14.809
27191W        W86936  43.836   0.831   1.275
27192W        W86937  40.809   6.778   3.791
27193W        W86938  13.165  40.871  12.034
27194W        W86939  23.206  41.981   2.287
27195W        W86940  39.890   3.366   1.819
27196W        W86941  21.713  15.086   5.142
27197W        W86942  29.063  13.143   2.230
27198W        W86943  11.701  39.998  10.439
27199W        W86944  27.475  33.031  13.867
27200W        W86945  11.671  34.543   1.294
27201W        W86946  32.119  21.575  12.346
27202W        W86947  40.351   4.420   1.898
27203W        W86948   7.309  33.491  12.438
27204W        W86949  26.667  24.198   0.912
27205W        W86950  32.010  23.153  11.600
27206W        W86951   4.835  29.105  12.008
27207W        W86952  26.176  43.791   2.275
27208W        W86953  34.409  39.518  13.889
27209W        W86954  34.580  24.603  12.076
27210W        W86955  11.737  16.586  14.369
27211W        W86956  13.158  42.372   2.416
27212W        W86957  25.161  40.494   5.086
27213W        W86958  37.492  25.500   1.801
27214W        W86959   4.382  23.171  13.870
27215W        W86960   3.783   4.897   1.803
27216W        W86961   2.842  41.370   0.826
27217W        W86962  31.118  43.323  11.498
27218W        W86963  14.339   4.221   2.743
27219W        W86964   1.428  33.456  11.090
27220W        W86965  40.817  27.518  14.291
27221W        W86966  13.120  42.313  11.594
27222W        W86967   9.846  23.089   2.181
27223W        W86968  37.926  37.387  14.892
27224W        W86969  41.927  27.642   3.809
27225W        W86970  24.681  21.053  12.932
27226W        W86971  19.686  39.028  12.949
27227W        W86972  37.891  13.193  13.895
27228W        W86973   1.853  35.027  10.467
27229W        W86974  23.055  40.474   4.126
27230W        W86975   5.857  13.670  14.387
27231W        W86976  26.094  20.258  12.383
27232W        W86977   7.899  29.654  11.529
27233W        W86978  38.032   7.250  10.938
27234W        W86979  38.567  16.302  10.618
27235W        W86980  38.965  39.371  14.921
27236W        W86981  23.159  27.579  14.835
27237W        W86982   3.872   4.868  10.911
27238W        W86983  42.318  14.784   0.267
27239W        W86984  22.240   5.843  12.517
27240W        W86985  23.991   4.897   1.257
27241W        W86986   4.244  32.983   4.772
27242W        W86987  27.170   1.341   1.428
27243W        W86988  21.075  26.988  12.485
27244W        W86989  19.224  19.737   2.306
27245W        W86990  38.970  36.064  13.447
27246W        W86991   2.966   9.836   2.898
27247W        W86992  30.442  40.043   1.424
27248W        W86993  25.030  37.848  13.880
27249W        W86994  33.489  12.749  12.449
27250W        W86995  26.106  22.667  14.999
27251W        W86996  14.223  38.868  12.925
27252W        W86997   3.849  24.582   2.738
27253W        W86998  44.309  16.598   2.738
27254W        W86999   0.943  15.715   0.826
27255W        W87000  13.169  29.667   2.225
27256W        W87001  40.476  31.009   2.370
27257W        W87002   3.844  22.523  13.949
27258W        W87003   5.923  41.400  12.996
27259W        W87004  31.991  26.590   1.851
27260W        W87005  41.477  44.436  14.282
27261W        W87006  22.720  43.501  13.977
27262W        W87007  13.284  44.412   1.369
27263W        W87008  13.241  35.558  12.077
27264W        W87009  10.334  34.973  14.008
27265W        W87010  20.214  18.770  14.459
27266W        W87011  36.989  42.361   2.321
27267W        W87012  38.483  32.616   0.385
27268W        W87013   5.359  34.552  13.919
27269W        W87014  24.064   4.300  11.040
27270W        W87015  34.057  13.754   2.857
27271W        W87016  20.745  33.495   1.450
27272W        W87017  32.080  29.538  11.871
27273W        W87018  11.350  20.577  14.906
27274W        W87019  16.075  44.872  11.518
27275W        W87020  34.531  26.641   0.861
27276W        W87021  44.333  28.001   3.292
27277W        W87022  41.419   8.204  14.332
27278W        W87023  17.694  14.728  13.989
27279W        W87024  31.570  38.505  13.859
27280W        W87025  12.663  43.771  12.960
27281W        W87026  39.435  19.545  12.903
27282W        W87027   9.739  35.554   0.274
27283W        W87028  37.397   5.295  11.128
27284W        W87029  12.743  21.729  11.560
27285W        W87030  19.769  43.871  11.952
27286W        W87031  22.127  42.391   3.809
27287W        W87032  10.867  37.568  13.472
27288W        W87033  24.623  13.657  12.349
27289W        W87034  36.903  24.541  14.786
27290W        W87035  39.449  31.144  10.926
27291W        W87036  42.484  14.713  14.937
27292W        W87037   0.794  14.736  14.989
27293W        W87038  38.359   0.981  12.935
27294W        W87039  25.194  15.798  14.891
27295W        W87040   3.904   3.248   1.898
27296W        W87041  39.059  24.525   3.653
27297W        W87042  26.044  37.568   0.364
27298W        W87043  38.917   8.328   3.308
27299W        W87044  10.353   2.912   0.272
27300W        W87045  39.013  20.051   4.778
27301W        W87046  16.081   9.380  14.454
27302W        W87047  14.307   0.421  10.598
27303W        W87048  12.300   1.903   0.291
27304W        W87049  30.607  13.126   3.771
27305W        W87050  17.108   9.387  12.352
27306W        W87051  30.608  20.095   0.906
27307W        W87052  33.565  39.502  14.799
27308W        W87053  11.839  12.826   1.694
27309W        W87054  35.938   0.883  14.825
27310W        W87055  26.540  34.508   2.671
27311W        W87056   8.796  28.520  12.069
27312W        W87057  22.647  18.069  11.427
27313W        W87058  38.486  35.924  13.981
27314W        W87059   7.759  12.749   0.471
27315W        W87060  28.019  24.705   3.825
27316W        W87061  13.679  43.001  13.822
27317W        W87062  32.454  41.386   0.947
27318W        W87063   7.266  19.736   3.377
27319W        W87064  42.972  42.809  12.879
27320W        W87065  20.256  44.885   1.364
27321W        W87066  37.385   4.257  10.408
27322W        W87067  20.698  14.697   5.133
27323W        W87068  37.902  20.258   2.249
27324W        W87069  38.448  40.912  14.929
27325W        W87070   4.236   0.268   4.692
27326W        W87071  12.153  31.079   2.818
27327W        W87072   1.776   0.299   2.325
27328W        W87073  15.602  32.024   1.860
27329W        W87074   2.304  33.546  13.525
27330W        W87075  17.135  14.324   0.809
27331W        W87076  38.530  19.262   4.695
27332W        W87077  33.919  25.476  14.896
27333W        W87078  32.060   7.814   3.810
27334W        W87079  44.375  35.530   0.834
27335W        W87080  12.647  25.061   3.211
27336W        W87081  17.794  12.828  12.960
27337W        W87082  27.544  39.541  12.995
27338W        W87083  36.580  40.848  13.399
27339W        W87084  42.815   2.813  12.074
27340W        W87085  16.584   5.830   1.273
27341W        W87086  31.141  16.218  13.791
27342W        W87087  40.533  11.625   3.365
27343W        W87088   2.899  40.530  10.962
27344W        W87089  17.674  39.369   0.451
27345W        W87090  32.576   4.245  12.429
27346W        W87091  37.557   5.268  11.453
27347W        W87092  15.688  22.081  14.945
27348W        W87093  18.160   8.883   0.446
27349W        W87094  38.867  21.242  13.496
27350W        W87095  42.364  33.019  11.046
27351W        W87096  44.457   4.875   3.697
27352W        W87097  27.614   5.394   2.367
27353W        W87098  28.622   0.917   4.311
27354W        W87099  19.588  18.168  14.858
27355W        W87100  40.381  27.452   0.303
27356W        W87101  10.675  15.251  13.478
27357W        W87102  26.126  11.728  12.078
27358W        W87103  12.742  39.957   1.797
27359W        W87104   7.788  12.614  10.415
27360W        W87105  13.720  21.239  13.818
27361W        W87106  12.171   4.912  10.897
27362W        W87107  32.463  13.351  13.840
27363W        W87108  29.586  19.085   3.305
27364W        W87109  43.813  32.900  13.931
27365W        W87110  21.661  37.836  10.460
27366W        W87111   6.708  16.129  11.043
27367W        W87112   7.260  21.163  13.366
27368W        W87113  28.003   4.765  10.060
27369W        W87114  29.604   1.811  13.346
27370W        W87115  43.389   8.271   4.705
27371W        W87116  34.589  43.290   4.748
27372W        W87117  44.798   3.285   4.657
27373W        W87118  29.625  15.313  11.868
27374W        W87119  17.076  15.290   1.431
27375W        W87120  27.038  12.748  12.926
27376W        W87121   2.774  28.675  11.107
27377W        W87122  25.485  26.081   1.880
27378W        W87123   8.740  22.246  13.983
27379W        W87124  13.343   1.944  12.515
27380W        W87125   6.338  38.343  14.311
27381W        W87126   1.261  16.312  14.942
27382W        W87127  38.550  11.657  13.460
27383W        W87128   5.299  23.126  14.831
27384W        W87129  38.921  36.520  10.092
27385W        W87130  11.171  13.228  12.901
27386W        W87131   0.352  12.716  13.459
27387W        W87132  16.573  24.992   3.761
27388W        W87133   6.734   1.483   2.714
27389W        W87134   0.478   5.695   4.618
27390W        W87135  11.334  26.011   0.303
27391W        W87136   2.791   8.191   0.398
27392W        W87137  37.045  20.203   0.943
27393W        W87138  11.823   6.846   3.860
27394W        W87139  14.827   1.847  10.456
27395W        W87140  38.918  34.475   4.832
27396W        W87141  16.711  14.737  12.441
27397W        W87142  22.634  37.573   0.935
27398W        W87143  25.086   9.658   0.384
27399W        W87144  19.610  20.259  12.565
27400W        W87145   0.264  39.979  11.065
27401W        W87146  43.478  30.440   4.142
27402W        W87147  16.087  10.858  11.124
27403W        W87148  12.218   0.399  10.523
27404W        W87149  36.404  13.822   3.716
27405W        W87150   6.679  34.609   2.196
27406W        W87151  10.792  41.292  12.382
27407W        W87152  19.147  11.209  12.563
27408W        W87153  16.786  39.879   1.790
27409W        W87154  21.565  28.048   3.731
27410W        W87155  10.230  15.674   4.349
27411W        W87156  33.988  11.734   1.908
27412W        W87157   9.304   4.904   0.281
27413W        W87158  26.618  26.022  14.921
27414W        W87159  18.657   2.960   0.768
27415W        W87160  28.103  26.669  14.395
27416W        W87161  10.346  24.722  12.090
27417W        W87162  15.608   3.326  12.007
27418W        W87163  12.267  22.118   1.361
27419W        W87164  20.577  13.628  14.901
27420W        W87165  39.550  23.531   4.324
27421W        W87166  39.028  20.060   0.833
27422W        W87167   6.193  23.142  10.599
27423W        W87168   4.437   8.693  14.954
27424W        W87169  15.816  27.063   0.875
27425W        W87170  26.576  28.043  14.451
27426W        W87171   7.376  18.653  11.014
27427W        W87172  19.590   0.445   1.315
27428W        W87173  30.490  38.459   0.281
27429W        W87174  10.795   8.775  11.502
27430W        W87175  23.065  11.809  10.982
27431W        W87176   9.886  15.615  12.511
27432W        W87177  37.084  28.549   2.762
27433W        W87178   0.362  39.863   4.194
27434W        W87179  20.582   9.687  13.490
27435W        W87180   8.163   1.357   2.719
27436W        W87181  36.376  11.786  11.612
27437W        W87182  39.050  16.258   4.611
27438W        W87183   4.388  31.119   3.175
27439W        W87184   0.860  13.265   0.752
27440W        W87185  12.358  11.664   0.482
27441W        W87186  41.896   1.957   5.189
27442W        W87187  41.497   9.734  10.957
27443W        W87188  40.994  33.040  12.052
27444W        W87189  22.039  39.392  10.600
27445W        W87190  33.032   5.259   3.735
27446W        W87191  29.086   6.258  11.060
27447W        W87192   8.745  31.111   1.782
27448W        W87193  36.005   2.420  11.076
27449W        W87194  17.151  21.174   3.721
27450W        W87195  20.594  29.646  11.396
27451W        W87196  30.629  29.008  11.866
27452W        W87197  37.402  43.466  13.974
27453W        W87198  31.939  22.179   0.263
27454W        W87199  34.570  30.019   0.335
27455W        W87200  26.028  14.713  13.038
27456W        W87201  27.661  30.051   4.157
27457W        W87202  30.627  23.573  12.413
27458W        W87203  38.437  16.233   2.371
27459W        W87204  37.565  18.658  11.596
27460W        W87205   1.834  20.639   3.846
27461W        W87206   6.861  13.806   3.795
27462W        W87207  21.553  18.636   0.432
27463W        W87208  36.985  26.965   0.303
27464W        W87209  16.671  12.835   1.398
27465W        W87210   1.911  26.647  12.066
27466W        W87211  42.379  40.870   1.712
27467W        W87212  23.552   8.381  14.423
27468W        W87213  20.756  36.361   3.715
27469W        W87214  21.576   2.736  14.923
27470W        W87215  44.418  27.498  13.931
27471W        W87216   1.949  11.176   3.236
27472W        W87217   7.814   1.464  12.014
27473W        W87218  24.986  11.287   2.290
27474W        W87219   3.849  36.444   4.756
27475W        W87220  28.437  28.478  10.133
27476W        W87221   9.241   1.745   3.740
27477W        W87222  12.223   9.340  12.964
27478W        W87223  36.357   7.334   0.373
27479W        W87224  14.786  23.522  14.448
27480W        W87225  33.917  19.208  14.321
27481W        W87226  10.295  15.583  10.637
27482W        W87227  19.586  32.453  13.395
27483W        W87228  32.009  37.850   2.725
27484W        W87229  34.611  21.559  12.459
27485W        W87230  29.036  15.116  13.792
27486W        W87231  36.582  41.891  11.958
27487W        W87232  25.587  26.048  10.892
27488W        W87233  23.634  29.556  14.760
27489W        W87234  31.496  14.707  14.477
27490W        W87235  11.669   7.822  10.479
27491W        W87236  34.556  34.412  13.985
27492W        W87237  12.294   6.380   2.825
27493W        W87238  43.420   5.903  14.855
27494W        W87239   1.264  40.045  12.972
27495W        W87240  43.426  24.665  14.986
27496W        W87241   2.252  31.587  12.405
27497W        W87242  11.336  25.640  12.568
27498W        W87243  42.344  20.191  11.081
27499W        W87244  34.076  21.657  12.900
27500W        W87245  32.972   7.339   2.336
27501W        W87246  42.859  22.560  12.542
27502W        W87247  22.723  33.017   5.177
27503W        W87248  31.493  26.600  12.386
27504W        W87249   8.316  31.116  13.415
27505W        W87250  41.397  31.073  13.987
27506W        W87251  18.728  24.702  13.333
27507W        W87252  36.069  22.203   4.700
27508W        W87253  37.447  35.907   4.644
27509W        W87254  24.038  15.278   1.879
27510W        W87255   8.679  39.053  10.583
27511W        W87256  17.752  32.517   0.297
27512W        W87257  26.612   2.351  10.476
27513W        W87258   6.795  24.689   1.816
27514W        W87259  20.271  35.993   2.696
27515W        W87260   1.426  32.023  12.509
27516W        W87261  21.600   2.334   5.188
27517W        W87262  10.736  44.897  13.060
27518W        W87263  15.220  28.993  12.918
27519W        W87264   3.793  38.407  12.536
27520W        W87265  21.588  33.063   1.283
27521W        W87266  24.036   2.459   4.743
27522W        W87267  12.141  25.170   2.724
27523W        W87268  32.425  23.646   0.349
27524W        W87269  36.382   7.304  12.527
27525W        W87270  27.001   9.689  11.396
27526W        W87271  35.989   1.948   2.803
27527W        W87272  41.447  30.979   3.711
27528W        W87273  28.931  37.546   3.372
27529W        W87274  10.315  21.594  12.345
27530W        W87275  16.228  22.250   2.899
27531W        W87276   4.385  18.709  12.541
27532W        W87277  10.296   8.796   0.372
27533W        W87278   7.291  27.166   0.937
27534W        W87279  17.774  42.424  13.050
27535W        W87280  21.743  15.579  13.533
27536W        W87281  22.731   5.891  13.038
27537W        W87282  27.022   6.221  14.763
27538W        W87283  12.310  36.913   4.608
27539W        W87284   6.793   5.403  13.883
27540W        W87285  26.191   6.904   0.402
27541W        W87286  17.744  32.098   3.300
27542W        W87287  24.220  16.739  13.926
27543W        W87288  12.160  21.713   3.258
27544W        W87289  17.570  37.343   5.301
27545W        W87290  10.837  12.705   2.318
27546W        W87291  12.751  22.671  14.341
27547W        W87292  39.433  27.970  10.616
27548W        W87293  42.482  14.330   2.902
27549W        W87294  27.672  44.885  11.954
27550W        W87295  18.658  23.492   3.781
27551W        W87296  18.162  14.143   2.310
27552W        W87297  36.584   6.788  11.062
27553W        W87298  28.435   8.226  13.972
27554W        W87299   1.314  31.550  11.939
27555W        W87300  33.452  20.243   1.862
27556W        W87301  22.551  42.484  12.545
27557W        W87302  29.483  17.563  12.914
27558W        W87303  14.624  15.201  14.296
27559W        W87304  11.827   4.227   1.217
27560W        W87305  40.806  20.213  11.965
27561W        W87306  20.708  19.563   4.243
27562W        W87307  25.687   9.333  11.880
27563W        W87308   1.834  26.468   5.162
27564W        W87309  25.630  33.013  14.937
27565W        W87310  37.993  36.880  12.093
27566W        W87311  30.099   9.725   4.684
27567W        W87312  32.558  33.121  11.864
27568W        W87313  31.021  32.551   0.245
27569W        W87314  27.160  41.938  11.577
27570W        W87315   1.429  26.010   5.573
27571W        W87316  21.196   8.243  12.375
27572W        W87317  25.559  31.941   0.736
27573W        W87318  20.546  20.766  10.444
27574W        W87319   7.761  34.959   3.667
27575W        W87320  44.770   2.433  11.059
27576W        W87321  22.656  27.494  14.941
27577W        W87322   2.413   5.216   2.718
27578W        W87323  26.196  19.674   2.314
27579W        W87324   3.409  12.674   1.367
27580W        W87325  19.273  11.724  13.385
27581W        W87326  38.030  18.728  11.998
27582W        W87327  20.081   6.361   4.267
27583W        W87328  15.644  37.879  13.808
27584W        W87329   0.790  29.457   0.278
27585W        W87330  42.922  43.948  11.025
27586W        W87331   6.381  29.501  12.962
27587W        W87332   7.673  41.458  10.931
27588W        W87333  44.972   7.206   3.358
27589W        W87334   1.288  43.405  11.600
27590W        W87335  24.684  35.995  10.996
27591W        W87336  35.553  32.980  12.514
27592W        W87337  24.586  15.177   1.322
27593W        W87338   9.759  22.716   3.227
27594W        W87339   6.297  28.986   3.368
27595W        W87340  25.699  21.134   4.310
27596W        W87341  34.111  36.559   3.289
27597W        W87342  22.095  15.634   4.837
27598W        W87343  19.575  18.652   4.186
27599W        W87344  36.408   5.411  14.877
27600W        W87345  36.409  18.703  13.049
27601W        W87346  23.524  31.434   0.467
27602W        W87347  35.359  33.897   3.787
27603W        W87348  40.001  44.829   0.813
27604W        W87349   7.256  23.218   0.386
27605W        W87350  35.358  31.080   3.830
27606W        W87351  20.149  32.547   0.843
27607W        W87352  39.438  16.759  13.060
27608W        W87353  18.587  23.705   0.310
27609W        W87354  41.441  35.549  10.974
27610W        W87355  12.757  34.098   5.150
27611W        W87356  29.097  18.684   4.755
27612W        W87357  41.414  30.023   4.625
27613W        W87358  31.985   5.302   3.329
27614W        W87359   9.862  36.484  14.785
27615W        W87360   3.268   1.330   1.726
27616W        W87361  38.871  23.724   9.958
27617W        W87362   3.379  19.179   1.296
27618W        W87363  18.730  13.716   1.337
27619W        W87364  25.045  39.052   2.818
27620W        W87365  11.855   4.916   1.908
27621W        W87366  34.403  27.003   1.858
27622W        W87367  32.433   7.309   1.829
27623W        W87368   9.674  22.541   2.699
27624W        W87369  28.098  22.539   1.401
27625W        W87370   3.838  20.072   1.229
27626W        W87371  30.602   4.210  12.407
27627W        W87372  30.424  17.191   2.363
27628W        W87373   3.341  41.808   3.795
27629W        W87374   4.833  28.624  11.123
27630W        W87375  36.848  33.558  11.581
27631W        W87376   7.815   6.192   2.817
27632W        W87377  28.129  41.895   0.728
27633W        W87378  13.645  44.879   1.429
27634W        W87379  16.192  11.224  13.959
27635W        W87380  42.794  31.588   4.210
27636W        W87381  35.095  11.371   2.281
27637W        W87382   8.160  14.744   4.834
27638W        W87383  41.295  11.632   1.823
27639W        W87384  12.703  32.412  14.873
27640W        W87385  33.963  10.853   4.827
27641W        W87386  32.077  39.014  14.975
27642W        W87387  41.403  20.578  12.509
27643W        W87388  25.479   2.445   0.273
27644W        W87389  13.269   0.369   3.720
27645W        W87390  16.290  27.066  12.969
27646W        W87391  25.976  24.506  11.948
27647W        W87392   8.360   5.342  14.369
27648W        W87393  28.541   5.756   1.387
27649W        W87394  38.871  41.995   2.228
27650W        W87395  10.801  36.891   5.781
27651W        W87396  14.241  34.917   3.217
27652W        W87397   3.300  24.623   4.803
27653W        W87398  20.258   6.382  12.505
27654W        W87399  19.655  38.327  13.468
27655W        W87400  18.785  37.537  12.945
27656W        W87401  37.076  16.780  10.922
27657W        W87402  29.477   6.344  12.075
27658W        W87403  35.971  30.414  11.082
27659W        W87404  36.369  28.072  14.885
27660W        W87405  28.605  21.220   2.854
27661W        W87406  21.037  36.906  14.418
27662W        W87407  25.566   2.231   2.782
27663W        W87408  38.401  29.102   2.801
27664W        W87409  33.084  17.578   2.366
27665W        W87410  10.306  31.604  10.580
27666W        W87411  21.665   0.455  13.833
27667W        W87412   4.796  12.843   2.331
27668W        W87413  25.157  28.462  13.490
27669W        W87414  29.012  41.969  10.421
27670W        W87415  37.983  30.138   4.719
27671W        W87416  23.056  34.023  11.467
27672W        W87417   6.892  14.129  13.984
27673W        W87418  23.555   2.779  13.403
27674W        W87419  21.154   6.234  11.570
27675W        W87420  43.286   2.243  12.019
27676W        W87421  19.147  25.570   3.712
27677W        W87422   7.791  26.482   5.207
27678W        W87423  12.125  39.343   4.777
27679W        W87424  28.991  17.290  14.833
27680W        W87425  43.433   5.729  13.836
27681W        W87426  37.942  36.588   3.369
27682W        W87427  37.357  19.241   4.719
27683W        W87428   0.335   6.346   4.777
27684W        W87429  40.468  42.367  14.837
27685W        W87430  42.481  25.207   1.394
27686W        W87431  33.594  26.037   2.756
27687W        W87432   8.748  32.595   4.756
27688W        W87433  43.347  35.010   4.625
27689W        W87434  19.240  19.218  13.058
27690W        W87435  37.461  29.054  14.461
27691W        W87436  41.999  35.421   1.792
27692W        W87437  38.564  33.008  10.553
27693W        W87438  29.100  40.052  13.463
27694W        W87439  25.140  40.902  11.457
27695W        W87440   4.747   1.905  10.073
27696W        W87441   2.825  26.131  14.480
27697W        W87442  24.059  32.013   0.349
27698W        W87443  10.295  11.162  14.291
27699W        W87444  22.694  22.058   0.457
27700W        W87445  31.614   9.180  14.325
27701W        W87446  23.186  40.470   1.809
27702W        W87447  13.651  41.405   4.710
27703W        W87448   8.730  35.569  11.077
27704W        W87449  26.640   5.334  10.570
27705W        W87450  33.601  30.437  13.536
27706W        W87451  34.976   1.764   3.638
27707W        W87452   8.721  12.315   0.911
27708W        W87453  26.662  30.654  10.911
27709W        W87454  24.559  15.238   5.183
27710W        W87455  41.025  44.910  10.968
27711W        W87456   4.223  19.264  12.339
27712W        W87457  30.561  29.085   4.248
27713W        W87458  29.507  28.088   0.734
27714W        W87459  13.768  38.378   2.757
27715W        W87460  44.969  40.909   0.270
27716W        W87461  27.558   0.353   3.733
27717W        W87462  26.073  11.191   2.384
27718W        W87463   3.332   2.441  11.597
27719W        W87464   2.832  23.598   0.735
27720W        W87465  37.447  23.599   1.363
27721W        W87466  23.093  35.892   2.794
27722W        W87467   1.943  44.452  11.580
27723W        W87468  37.858  22.620  14.385
27724W        W87469  42.839  32.549  11.598
27725W        W87470  36.078  14.316  14.296
27726W        W87471  17.280  40.028   5.298
27727W        W87472  11.138  38.331   3.684
27728W        W87473  12.697  27.509  10.596
27729W        W87474  40.946  32.517   4.681
27730W        W87475  23.998  33.961   4.597
27731W        W87476  43.357  30.555  13.419
27732W        W87477   5.402  36.055  11.596
27733W        W87478   3.388  29.547  14.305
27734W        W87479   4.252  32.505  10.609
27735W        W87480  32.509  44.348   0.293
27736W        W87481   4.416  24.592   1.365
27737W        W87482   8.667   1.783  11.865
27738W        W87483  26.023  33.971   0.737
27739W        W87484   1.434  31.118  14.905
27740W        W87485  29.985  25.677   4.205
27741W        W87486  29.033   0.879   1.336
27742W        W87487   9.808  11.327   2.203
27743W        W87488  25.008  38.992   0.440
27744W        W87489  14.288  22.121   3.826
27745W        W87490  32.930  30.093  13.943
27746W        W87491  23.116  39.041  11.907
27747W        W87492  33.046  20.700   2.728
27748W        W87493  30.422   2.449  14.923
27749W        W87494  44.495  38.995   4.790
27750W        W87495  20.142  13.654  10.917
27751W        W87496  20.227  10.840   4.202
27752W        W87497  18.648  36.516  14.347
27753W        W87498  24.171  23.160   1.312
27754W        W87499  28.934  34.071   0.959
27755W        W87500  33.513   1.761   0.927
27756W        W87501  34.021  24.990  14.891
27757W        W87502  24.490  30.514  14.949
27758W        W87503  22.159  37.873  14.973
27759W        W87504  14.110  20.613   3.804
27760W        W87505  27.535   6.194  14.933
27761W        W87506   1.948   8.741   1.894
27762W        W87507  29.134   4.746  14.358
27763W        W87508  13.310  41.909  13.505
27764W        W87509   6.320  24.551  12.988
27765W        W87510  11.133  15.742   2.263
27766W        W87511  40.470  12.296   1.914
27767W        W87512  28.524  33.575  13.389
27768W        W87513  27.616  43.275   3.764
27769W        W87514  15.794   9.821   5.219
27770W        W87515  11.739  23.705  14.976
27771W        W87516  10.185  26.027  13.916
27772W        W87517  44.764   8.203  12.482
27773W        W87518  27.054  40.959  13.804
27774W        W87519  13.306  33.402  11.971
27775W        W87520  37.924  30.621  14.370
27776W        W87521  26.036  31.056  11.088
27777W        W87522   4.309   7.389   1.734
27778W        W87523   8.194  43.382  10.642
27779W        W87524   1.275  14.121   3.650
27780W        W87525   3.792  23.535  12.392
27781W        W87526  24.029  41.405  10.972
27782W        W87527  41.498  41.339  12.364
27783W        W87528  14.268   6.874  13.980
27784W        W87529  34.007   4.323   0.797
27785W        W87530  13.708  39.956   4.256
27786W        W87531   9.675  43.471  13.024
27787W        W87532  39.019   5.376  12.382
27788W        W87533  24.109  37.508   0.814
27789W        W87534  22.245  43.853   0.949
27790W        W87535   5.755  16.634   1.888
27791W        W87536  27.575  33.603  10.960
27792W        W87537   7.903  42.011   1.708
27793W        W87538  34.386  33.941  11.857
27794W        W87539  20.610  29.527  10.955
27795W        W87540   1.351  28.051  13.533
27796W        W87541  26.076   1.893   4.287
27797W        W87542   0.938  12.170  14.762
27798W        W87543  31.562  12.836   0.367
27799W        W87544  34.595  28.173  12.963
27800W        W87545  26.559  18.120  11.010
27801W        W87546  39.043  41.005  14.892
27802W        W87547  34.490  19.766  12.978
27803W        W87548  29.558  33.028   1.210
27804W        W87549  12.304  41.882   0.481
27805W        W87550   0.366  23.138   3.756
27806W        W87551  42.373   1.398   1.702
27807W        W87552  12.799   5.361   3.643
27808W        W87553  18.056  40.488   2.666
27809W        W87554  17.581  36.570  11.502
27810W        W87555  19.103   5.795   2.256
27811W        W87556  43.350   7.215   4.339
27812W        W87557  26.585  33.095  11.373
27813W        W87558   1.408  34.007  10.888
27814W        W87559  38.473   0.899   4.163
27815W        W87560  23.659  33.478  12.841
27816W        W87561  20.258  41.856  12.364
27817W        W87562   0.868   6.235  10.997
27818W        W87563  33.941  31.607   4.275
27819W        W87564  16.302  31.538  12.554
27820W        W87565  23.524  34.429   2.291
27821W        W87566  12.753  33.040   1.364
27822W        W87567  16.095  26.529   1.731
27823W        W87568   0.920  26.680   4.169
27824W        W87569  15.245  11.855  11.040
27825W        W87570  37.554  24.600  13.520
27826W        W87571   6.352  14.756  13.322
27827W        W87572  42.999   9.313   0.441
27828W        W87573  38.530  20.194   3.216
27829W        W87574  38.927   3.228   4.241
27830W        W87575  29.669  10.765  11.469
27831W        W87576  28.645   6.866   4.350
27832W        W87577  24.025  38.960   1.297
27833W        W87578   6.729   9.301   2.339
27834W        W87579  16.681   3.290   1.324
27835W        W87580   2.335  23.558   1.401
27836W        W87581  34.518   1.872  13.513
27837W        W87582  20.231  11.306  11.472
27838W        W87583  27.526   9.190  14.886
27839W        W87584   2.331  41.836  12.824
27840W        W87585  42.424  18.083   0.926
27841W        W87586  13.685  13.653  12.002
27842W        W87587   4.364  15.166  12.545
27843W        W87588  33.457   0.986   4.703
27844W        W87589  19.096  37.904  13.905
27845W        W87590  27.611  32.419  13.466
27846W        W87591  20.145  37.918   1.258
27847W        W87592  12.815  16.785  12.950
27848W        W87593  22.016   4.422   3.377
27849W        W87594   6.679  11.223   1.284
27850W        W87595   3.281  33.534  10.599
27851W        W87596  34.958  25.663   3.766
27852W        W87597  20.726   5.414  12.035
27853W        W87598  27.634  29.017   2.243
27854W        W87599  43.468   1.350  12.524
27855W        W87600  18.206   3.823  11.419
27856W        W87601  24.643  20.258  13.382
27857W        W87602  34.931   7.210  11.899
27858W        W87603   6.677   5.911  14.902
27859W        W87604  21.725  21.231  12.503
27860W        W87605   5.426   5.220   4.633
27861W        W87606   1.778  28.112  13.938
27862W        W87607  35.360  33.934  11.509
27863W        W87608   2.804  12.293  13.478
27864W        W87609  24.697  11.224   0.335
27865W        W87610  21.658  18.609  14.027
27866W        W87611  17.647  24.159  13.330
27867W        W87612   8.659  10.304   2.841
27868W        W87613  24.572  11.758  13.891
27869W        W87614   7.779  44.791   3.338
27870W        W87615  40.429  15.297   4.162
27871W        W87616   3.325  14.278  11.944
27872W        W87617  34.525  23.554   4.225
27873W        W87618  42.320   0.950   1.815
27874W        W87619  21.082  32.013   0.798
27875W        W87620  21.651  26.060  11.071
27876W        W87621  17.742   1.905  10.958
27877W        W87622   0.392   4.346  14.444
27878W        W87623  44.972  25.108  11.609
27879W        W87624  12.271  44.850   0.877
27880W        W87625  19.203   5.847   3.160
27881W        W87626   2.745  35.525   4.114
27882W        W87627  23.512   1.819  12.460
27883W        W87628  17.274  30.551   2.731
27884W        W87629  35.447  30.438   1.403
27885W        W87630  35.899   2.911   2.388
27886W        W87631  11.678  44.935  11.564
27887W        W87632   5.774  21.523   2.886
27888W        W87633   1.383  40.805  13.988
27889W        W87634  25.033  23.067   3.360
27890W        W87635  16.758  37.862   1.852
27891W        W87636  28.640  39.526   4.169
27892W        W87637   0.891  26.583   3.152
27893W        W87638  20.601  30.547  14.292
27894W        W87639  18.273  32.517  13.524
27895W        W87640  30.549  28.054   0.783
27896W        W87641  31.947  33.059   4.799
27897W        W87642  42.498   9.871  13.824
27898W        W87643  44.286   0.781  12.388
27899W        W87644  19.672  29.466  13.543
27900W        W87645  11.621  22.683   1.843
27901W        W87646  11.178  16.083   1.896
27902W        W87647   5.276   5.345   0.843
27903W        W87648  32.440  34.979   0.905
27904W        W87649  30.963  41.842   4.322
27905W        W87650  34.874  13.794  12.082
27906W        W87651  18.606  34.864  14.341
27907W        W87652  26.563  36.961   1.846
27908W        W87653  17.599   3.302   3.816
27909W        W87654  36.905   2.910   4.692
27910W        W87655  21.250  30.443   0.797
27911W        W87656  26.170  37.479  13.349
27912W        W87657  17.288   1.252   4.680
27913W        W87658   4.367  40.497  13.328
27914W        W87659  15.642  28.634   3.349
27915W        W87660  32.393   3.875   1.227
27916W        W87661  41.850   7.783  12.420
27917W        W87662  10.349   5.347  14.400
27918W        W87663   4.329   1.871  14.428
27919W        W87664  20.132  26.561   4.143
27920W        W87665  40.326   4.920  10.509
27921W        W87666  19.748  16.589  13.980
27922W        W87667  21.259  42.781  12.890
27923W        W87668  23.005  30.438  10.462
27924W        W87669  23.238  43.451   2.779
27925W        W87670  11.652  18.687  12.972
27926W        W87671  14.133  36.449  12.547
27927W        W87672  38.978  17.578  13.823
27928W        W87673  33.413  35.013   3.753
27929W        W87674  33.914  17.296   2.791
27930W        W87675  21.580  17.784   0.272
27931W        W87676  15.590   9.232  12.843
27932W        W87677  18.580  43.362   4.241
27933W        W87678  25.682  28.127   1.393
27934W        W87679  11.373  14.192  11.072
27935W        W87680  20.229  27.065   2.290
27936W        W87681  16.749  20.682  13.002
27937W        W87682  43.271  40.483   1.708
27938W        W87683  19.281  11.628   3.684
27939W        W87684  21.127  26.130   1.285
27940W        W87685  28.184  27.624  13.961
27941W        W87686  28.437  19.221   4.279
27942W        W87687  43.861  37.420   9.960
27943W        W87688  38.548  15.651   3.168
27944W        W87689  20.616  23.633   0.956
27945W        W87690  32.513  12.206   3.804
27946W        W87691  26.533  37.547   3.378
27947W        W87692  24.993   3.351  14.831
27948W        W87693  38.915  10.828  10.564
27949W        W87694  11.721  35.555  13.063
27950W        W87695  29.541  17.087  12.437
27951W        W87696   9.238  26.574  14.885
27952W        W87697  26.529  26.519  13.341
27953W        W87698  14.305  15.218   2.394
27954W        W87699  10.875   9.359   1.843
27955W        W87700  26.153   4.399   3.844
27956W        W87701   7.282  14.294  12.849
27957W        W87702  20.641  23.607  11.009
27958W        W87703   6.331  39.464  13.409
27959W        W87704  34.407  10.294   3.256
27960W        W87705  38.920  43.943   2.217
27961W        W87706  40.807  11.625  11.933
27962W        W87707  10.366  12.622   0.805
27963W        W87708  32.564  13.349  11.915
27964W        W87709  30.520   3.910   5.666
27965W        W87710  23.734  14.309  10.900
27966W        W87711  13.280   3.343   0.851
27967W        W87712  32.910  36.876  14.387
27968W        W87713  38.830  39.983   3.831
27969W        W87714  11.755  33.957  10.926
27970W        W87715  11.730  35.483  13.884
27971W        W87716  38.525  35.953   3.854
27972W        W87717  20.028  28.578  13.332
27973W        W87718  14.733   4.875  13.799
27974W        W87719   8.377  25.184  11.416
27975W        W87720  26.058   5.817  13.818
27976W        W87721  11.633   8.685  13.447
27977W        W87722   8.888  33.042  14.464
27978W        W87723  26.624  43.010   3.657
27979W        W87724  20.735  28.657  12.992
27980W        W87725   3.853  16.289   3.219
27981W        W87726   9.255  37.012  13.992
27982W        W87727  11.157   4.761  11.095
27983W        W87728  17.183  25.995   2.889
27984W        W87729   0.393  24.557   0.249
27985W        W87730   1.747   0.315   4.162
27986W        W87731  43.499  12.833   3.808
27987W        W87732  18.106  44.867  14.017
27988W        W87733  19.670  12.130   1.268
27989W        W87734   6.374   7.283  14.938
27990W        W87735   1.874  30.647  12.063
27991W        W87736   6.352   5.438   3.240
27992W        W87737  19.773  36.523  13.903
27993W        W87738  22.207  28.968   4.705
27994W        W87739   9.752  20.105   4.143
27995W        W87740  25.659  34.530  14.971
27996W        W87741  21.022  15.787   0.872
27997W        W87742  11.255  22.123  10.512
27998W        W87743  31.977  18.791  14.998
27999W        W87744   3.764  31.633   1.281
28000W        W87745  40.440  15.743  12.572
28001W        W87746   0.960   0.276   0.918
28002W        W87747  34.401   8.727   4.639
28003W        W87748   7.398  36.350  13.033
28004W        W87749  39.005  17.604   3.335
28005W        W87750  35.361   0.468   1.229
28006W        W87751  22.139  12.200   5.680
28007W        W87752  29.099  18.770  13.016
28008W        W87753   3.423  36.421  14.442
28009W        W87754   6.420  20.201  10.954
28010W        W87755  40.541  32.546  13.853
28011W        W87756   2.264   7.836  14.991
28012W        W87757  25.998  24.043  12.077
28013W        W87758   9.669   2.338  11.109
28014W        W87759   7.248  17.129  14.278
28015W        W87760  27.180   1.351  14.481
28016W        W87761  37.581  32.020  11.001
28017W        W87762  27.471  33.004   3.174
28018W        W87763  30.649  37.911   0.474
28019W        W87764  30.602  40.929  14.871
28020W        W87765  13.176   8.215   1.427
28021W        W87766   8.161  33.440  14.926
28022W        W87767  14.783  37.410  11.994
28023W        W87768  42.321   4.900   3.755
28024W        W87769  35.856  14.754   3.810
28025W        W87770  38.846  35.086   1.773
28026W        W87771   5.801   1.900  10.921
28027W        W87772   6.424  43.297   4.728
28028W        W87773  22.511  28.647  11.416
28029W        W87774   1.976  44.469  12.974
28030W        W87775  28.169   7.249   3.702
28031W        W87776   4.893  19.737   9.982
28032W        W87777   8.661  42.838   0.329
28033W        W87778   4.726   8.872   2.294
28034W        W87779  22.011   7.335   1.798
28035W        W87780  40.953  44.760  11.558
28036W        W87781  20.100  30.048   4.339
28037W        W87782  28.970  14.324   2.215
28038W        W87783  31.483  21.084   1.371
28039W        W87784  18.136   6.762  11.869
28040W        W87785  17.761   2.443   3.710
28041W        W87786  35.096  38.399  12.484
28042W        W87787   6.807  10.375  13.532
28043W        W87788  13.637   4.860  13.018
28044W        W87789  26.477  17.727   4.810
28045W        W87790  38.364  13.106  13.422
28046W        W87791  44.303  16.783   1.434
28047W        W87792  35.570  36.430   4.326
28048W        W87793  27.168  28.563  12.392
28049W        W87794  31.130  17.631   1.712
28050W        W87795  22.107  12.640   3.384
28051W        W87796  23.713  25.496   2.317
28052W        W87797   5.382  32.476   2.663
28053W        W87798  10.172  22.573  13.913
28054W        W87799  27.137  21.735  11.470
28055W        W87800  29.071  41.535  10.632
28056W        W87801  19.748  32.402   4.324
28057W        W87802  34.935  43.903   1.249
28058W        W87803  22.082   9.231  11.578
28059W        W87804   0.767  31.476   3.163
28060W        W87805  17.075  43.838  12.482
28061W        W87806   5.336   9.796  11.901
28062W        W87807  28.977  38.435  10.422
28063W        W87808  21.646  19.062  12.496
28064W        W87809   9.195  31.643  10.539
28065W        W87810   6.742  19.764   3.765
28066W        W87811   6.243  40.433  10.008
28067W        W87812  16.161  40.549  12.423
28068W        W87813  16.765  34.957  11.465
28069W        W87814  21.074  27.961  14.477
28070W        W87815  33.003   3.747  11.984
28071W        W87816  31.447  34.024   2.693
28072W        W87817  22.574  31.936   1.232
28073W        W87818  15.250  22.613   0.921
28074W        W87819  40.004  19.070   3.186
28075W        W87820   2.438   2.930   3.759
28076W        W87821  27.466   6.422  13.343
28077W        W87822  23.718   3.841   2.856
28078W        W87823   8.693  38.418  13.845
28079W        W87824   8.758  18.253   0.916
28080W        W87825  36.916  43.440   2.797
28081W        W87826  19.763  23.516   3.359
28082W        W87827  35.462  42.867  14.996
28083W        W87828   1.245  31.586   5.133
28084W        W87829   0.790  32.451   2.373
28085W        W87830  41.523  31.152  14.311
28086W        W87831   4.306  37.490   3.708
28087W        W87832   3.821  23.600  13.521
28088W        W87833  22.549  37.402  14.989
28089W        W87834   9.229   4.775   5.131
28090W        W87835  34.868  26.677  13.960
28091W        W87836  13.306  17.094   3.273
28092W        W87837   8.820  42.891   0.909
28093W        W87838   5.212  41.295   2.220
28094W        W87839   7.380  17.244   1.756
28095W        W87840   9.325  20.648   3.325
28096W        W87841  28.042  31.050  12.079
28097W        W87842  30.446   6.249   4.335
28098W        W87843  13.622  38.502   5.281
28099W        W87844  39.353   1.765   2.739
28100W        W87845   8.813  42.325   0.801
28101W        W87846  22.719  37.471   4.139
28102W        W87847   5.275  44.779  14.283
28103W        W87848  10.874   9.782  10.585
28104W        W87849   5.281  18.277  13.027
28105W        W87850  20.557  37.494  11.889
28106W        W87851  31.122  16.656  12.021
28107W        W87852  39.852  37.833   3.282
28108W        W87853   5.920  24.000  13.518
28109W        W87854  10.834   1.910   4.830
28110W        W87855   4.430  23.517  12.568
28111W        W87856  38.052  32.086  12.535
28112W        W87857  31.584  17.170  11.485
28113W        W87858  14.121  44.781   1.217
28114W        W87859   9.871  10.758   2.700
28115W        W87860  27.046  33.514   4.707
28116W        W87861   6.877  18.271   0.297
28117W        W87862  11.248   4.235  14.442
28118W        W87863  44.266   3.914   3.657
28119W        W87864  12.849  36.915  14.415
28120W        W87865   1.748  10.669  13.889
28121W        W87866  28.654   9.857  10.613
28122W        W87867  42.894  12.830  13.315
28123W        W87868   8.758  35.896   4.744
28124W        W87869   4.911   4.210  14.385
28125W        W87870   9.802  10.667  13.838
28126W        W87871   5.411  31.414  13.956
28127W        W87872  38.930  40.885   4.803
28128W        W87873  23.643  22.019   2.833
28129W        W87874  18.653  12.247   4.660
28130W        W87875  24.563  20.110   3.180
28131W        W87876   3.349   2.416   2.193
28132W        W87877  18.621  10.687  12.463
28133W        W87878  22.078  17.685   2.211
28134W        W87879  43.355  33.586   3.828
28135W        W87880  34.068  12.350   2.815
28136W        W87881  16.589   1.806  13.441
28137W        W87882  41.321   1.815   0.344
28138W        W87883   0.418   5.809   1.345
28139W        W87884  13.307   4.827  12.856
28140W        W87885  33.544  33.935  12.047
28141W        W87886  28.996  24.007   1.757
28142W        W87887  38.825  39.892   3.182
28143W        W87888  12.737  25.473   2.315
28144W        W87889  15.290   1.745   3.657
28145W        W87890  33.607   3.382   3.772
28146W        W87891   5.887  30.013   4.805
28147W        W87892  10.750   3.242  12.367
28148W        W87893  13.220  36.022  11.565
28149W        W87894   2.946  31.527   4.763
28150W        W87895  31.481  17.688   4.175
28151W        W87896   6.678  16.280   1.234
28152W        W87897  11.826  25.569   0.344
28153W        W87898  26.635  21.731   4.167
28154W        W87899  40.404   3.940  10.604
28155W        W87900  43.871  23.642   4.715
28156W        W87901  15.602  23.622   1.747
28157W        W87902  38.425  41.864  13.478
28158W        W87903  23.618  34.545  14.002
28159W        W87904  39.946  30.564  11.034
28160W        W87905   8.881   1.809   1.404
28161W        W87906  13.725   0.486   4.693
28162W        W87907   8.820  25.501   0.964
28163W        W87908  39.322   0.919  11.425
28164W        W87909   9.382  16.225   0.950
28165W        W87910  41.840  36.858  11.865
28166W        W87911  15.128   0.968   1.341
28167W        W87912   5.241  26.628  12.537
28168W        W87913  16.120  18.071  14.461
28169W        W87914  41.497   0.317   4.226
28170W        W87915  42.372  17.216   0.737
28171W        W87916  20.672  35.889   3.713
28172W        W87917  36.013  38.554   1.358
28173W        W87918  17.690  20.192   4.668
28174W        W87919  44.946  29.591   1.424
28175W        W87920   1.743   6.221   4.618
28176W        W87921   1.347  24.083   0.818
28177W        W87922  34.409   8.370  13.938
28178W        W87923  31.531  13.818  14.830
28179W        W87924  21.088   4.785  11.928
28180W        W87925   1.305   1.413   3.687
28181W        W87926  29.028  32.951   2.746
28182W        W87927  14.231  13.666  13.394
28183W        W87928  13.634  35.575  13.048
28184W        W87929  15.716  35.085  10.050
28185W        W87930  23.136  44.478  12.988
28186W        W87931  28.628   8.193   0.884
28187W        W87932  24.976  26.647   4.125
28188W        W87933  21.583  41.804  13.344
28189W        W87934  40.494   9.691  11.012
28190W        W87935  26.088  23.671  11.602
28191W        W87936  22.690  19.776   2.746
28192W        W87937  34.066   0.883   4.674
28193W        W87938  31.077  15.772   0.469
28194W        W87939  30.145  35.969   1.356
28195W        W87940  44.329  40.395  11.073
28196W        W87941   3.737   7.334   0.356
28197W        W87942  23.080  22.537  11.394
28198W        W87943  38.397  39.432   0.414
28199W        W87944  23.653  37.415   2.396
28200W        W87945  10.757  38.982   4.127
28201W        W87946  34.003  25.141  11.430
28202W        W87947  35.966  11.155  12.971
28203W        W87948   3.953   1.742   3.767
28204W        W87949  26.996  37.979  13.027
28205W        W87950  19.640  12.142  10.987
28206W        W87951  16.577  22.674   1.835
28207W        W87952   7.881  12.677   3.220
28208W        W87953  39.447   6.363  14.878
28209W        W87954   9.769  36.857  14.322
28210W        W87955  41.348   5.281  11.904
28211W        W87956  17.724  31.065   2.763
28212W        W87957   7.726  42.033  14.811
28213W        W87958  19.171  37.393   4.689
28214W        W87959  28.934  16.639   2.676
28215W        W87960  38.892  33.066   0.344
28216W        W87961  43.893  13.121   2.700
28217W        W87962  18.694  19.240   4.713
28218W        W87963  23.196  16.318  12.951
28219W        W87964   2.434   9.233   4.351
28220W        W87965  24.542  40.511   2.183
28221W        W87966  12.804   5.758   1.785
28222W        W87967  40.002  35.909  10.979
28223W        W87968  33.484  44.908   2.230
28224W        W87969  25.047  41.397  10.440
28225W        W87970  27.674   8.810   1.359
28226W        W87971  17.063  11.320   2.347
28227W        W87972  15.581  30.541   5.107
28228W        W87973  32.023  18.051   3.775
28229W        W87974  13.248  19.588   1.283
28230W        W87975  29.985  30.457  13.057
28231W        W87976  35.460  20.550   3.850
28232W        W87977  26.051  16.122  13.504
28233W        W87978  26.659   0.899  14.966
28234W        W87979  42.375  28.511   0.934
28235W        W87980  24.536  29.573  13.057
28236W        W87981  17.677  35.532   3.282
28237W        W87982   3.761  31.453   3.195
28238W        W87983  39.325  38.330  11.025
28239W        W87984  33.944  24.974  13.335
28240W        W87985  21.028   6.916  10.478
28241W        W87986  22.147   0.415   4.723
28242W        W87987   2.724   4.446   3.158
28243W        W87988  21.101  32.132  10.039
28244W        W87989   4.207  16.669  10.529
28245W        W87990  33.098  30.143   1.332
28246W        W87991  40.512  19.758  13.423
28247W        W87992  14.668   1.391   3.322
28248W        W87993  22.654  28.538  12.367
28249W        W87994   5.815  29.542   3.274
28250W        W87995  31.964  11.741   4.836
28251W        W87996  10.260  34.986  12.488
28252W        W87997   8.737  30.153  11.961
28253W        W87998  16.298   9.222   0.363
28254W        W87999   4.898  43.764  12.069
28255W        W88000  19.645  29.549   4.200
28256W        W88001  11.294  33.447   0.740
28257W        W88002  26.088   5.881   1.759
28258W        W88003  22.238  21.146   3.744
28259W        W88004   5.855  23.703   1.307
28260W        W88005  42.870   5.878   2.404
28261W        W88006  31.639   2.826  10.645
28262W        W88007  22.556  38.545   1.838
28263W        W88008  40.857  39.377  13.049
28264W        W88009  13.792  11.291  12.990
28265W        W88010  34.465  30.051   4.158
28266W        W88011  18.268  23.577   3.660
28267W        W88012  30.429  34.441   0.923
28268W        W88013   3.443  38.444  13.957
28269W        W88014  15.270   6.344   0.777
28270W        W88015  14.311  28.004  13.414
28271W        W88016  23.604  44.957   0.333
28272W        W88017  38.461   0.972  11.500
28273W        W88018  27.488  44.815  11.032
28274W        W88019  24.220  19.694   3.278
28275W        W88020  35.984  41.382   3.344
28276W        W88021  27.149  33.078   4.233
28277W        W88022  30.502  42.784  12.829
28278W        W88023  43.451  40.348  12.387
28279W        W88024  18.293  13.303   0.809
28280W        W88025  20.523  31.562  13.988
28281W        W88026  37.541   6.696   4.151
28282W        W88027   8.795  19.548   0.311
28283W        W88028  39.910  12.251   4.195
28284W        W88029  36.503  32.091  11.603
28285W        W88030  37.534  19.600  13.012
28286W        W88031  13.225   0.920   5.215
28287W        W88032  25.192   7.879   3.813
28288W        W88033  42.416   0.487   3.793
28289W        W88034  16.177  13.689  11.025
28290W        W88035  22.510  23.598   3.739
28291W        W88036  14.291  26.004   3.184
28292W        W88037  43.440  43.955   4.694
28293W        W88038   3.376  19.734   2.705
28294W        W88039  36.934  35.913   0.407
28295W        W88040  20.697  30.061   3.297
28296W        W88041  37.527  34.413   4.603
28297W        W88042   7.207   2.874   4.200
28298W        W88043  23.075  14.181  12.552
28299W        W88044  39.486  43.966   4.814
28300W        W88045  28.936  36.022  11.013
28301W        W88046  24.124  37.420   3.848
28302W        W88047  21.756  24.686   3.819
28303W        W88048  22.651  18.239   0.290
28304W        W88049  31.087  33.466   2.743
28305W        W88050  24.663  15.118   1.745
28306W        W88051   2.951  13.313  14.788
28307W        W88052  18.747   8.205  14.930
28308W        W88053  40.931  18.119   3.321
28309W        W88054   7.744  43.890  11.394
28310W        W88055  10.242   3.753   3.733
28311W        W88056  23.207  43.355  12.419
28312W        W88057   6.408  29.942   1.277
28313W        W88058  27.046  30.428   3.643
28314W        W88059  38.558  11.318  14.826
28315W        W88060  15.112  18.691   1.738
28316W        W88061  13.822  23.644  11.864
28317W        W88062  11.836  39.465  14.386
28318W        W88063  31.477  12.815   2.286
28319W        W88064  30.143  27.958   9.631
28320W        W88065  42.971  26.651  12.852
28321W        W88066  43.791  10.733  12.843
28322W        W88067  27.196  37.909  13.324
28323W        W88068  35.532   7.809   2.680
28324W        W88069  40.448  15.774   0.761
28325W        W88070  28.649  33.122   1.429
28326W        W88071   5.329  39.447   0.403
28327W        W88072  31.041  36.887   2.665
28328W        W88073  14.138  33.042   4.600
28329W        W88074  35.552   8.340   1.248
28330W        W88075  11.697  21.227  12.380
28331W        W88076  44.854   9.394  14.315
28332W        W88077  11.796  11.285   4.287
28333W        W88078  15.099   4.713  13.961
28334W        W88079   5.701  16.695   1.367
28335W        W88080  27.097  16.752   3.659
28336W        W88081  17.232  24.064  11.576
28337W        W88082   2.831  19.157   1.232
28338W        W88083  15.717  23.133  11.033
28339W        W88084  20.049  27.674  14.307
28340W        W88085  19.655  12.832   4.807
28341W        W88086  41.414  36.960  14.316
28342W        W88087  39.853  38.431   3.336
28343W        W88088   7.260  27.636   4.229
28344W        W88089  14.712  35.544  11.859
28345W        W88090  33.548  38.450  10.497
28346W        W88091  27.060  43.468   3.385
28347W        W88092  22.205  26.536   1.274
28348W        W88093  26.581   6.261   0.276
28349W        W88094   3.937  10.660   4.276
28350W        W88095  10.759  27.027  14.411
28351W        W88096  43.888  30.060  13.329
28352W        W88097  27.952  14.305  12.571
28353W        W88098  30.147  11.741   2.784
28354W        W88099  44.768   9.260  12.958
28355W        W88100  38.494  24.225  13.436
28356W        W88101  32.479  23.014   4.737
28357W        W88102  37.363  41.890  13.821
28358W        W88103   3.433   2.394   4.693
28359W        W88104   7.672   6.223  14.290
28360W        W88105  21.236  14.823   0.308
28361W        W88106  23.673  41.361   2.211
28362W        W88107  35.887  23.999   2.762
28363W        W88108  37.851  33.922   2.282
28364W        W88109   9.667  40.537   4.173
28365W        W88110  12.241  14.666   0.789
28366W        W88111  42.360   9.307   2.673
28367W        W88112  19.567  25.592   2.364
28368W        W88113  18.656  37.001   0.422
28369W        W88114  40.034   5.871   3.638
28370W        W88115   1.251  29.992  10.119
28371W        W88116  43.429  26.683   3.641
28372W        W88117  11.829  16.571   4.239
28373W        W88118  43.342  26.070   1.282
28374W        W88119  13.252  15.297  11.502
28375W        W88120   9.152  24.119   0.275
28376W        W88121   2.416   3.802   3.686
28377W        W88122  14.789   8.766  11.953
28378W        W88123   2.266  39.424   4.310
28379W        W88124   8.679  24.988   1.903
28380W        W88125   8.872  26.018  11.541
28381W        W88126  42.805  34.531  11.060
28382W        W88127  18.567  13.767  11.483
28383W        W88128  17.675   2.751  11.988
28384W        W88129  13.819  33.027   2.859
28385W        W88130  36.549  41.469  10.426
28386W        W88131  15.306   5.293  11.453
28387W        W88132  11.787  25.526   0.929
28388W        W88133  26.155  24.561  11.080
28389W        W88134  42.903  16.262   0.246
28390W        W88135  15.185  19.544   3.667
28391W        W88136  28.512   6.908   1.888
28392W        W88137   4.423  18.113  14.455
28393W        W88138  31.526   0.418  11.003
28394W        W88139  30.548  37.070   4.800
28395W        W88140  23.224   6.811   4.203
28396W        W88141  36.574  11.304   1.261
28397W        W88142   2.439  22.535   4.718
28398W        W88143   7.853  16.774  11.465
28399W        W88144  38.830  31.578   1.701
28400W        W88145  11.206   7.861  14.300
28401W        W88146  41.970  42.028   0.936
28402W        W88147  18.581   8.204  11.527
28403W        W88148  31.913  23.651   2.772
28404W        W88149   8.267  10.318   0.272
28405W        W88150   4.274  10.864   3.640
28406W        W88151  10.270   4.271  12.064
28407W        W88152  11.688  37.340   2.877
28408W        W88153  13.259   9.693  11.866
28409W        W88154  18.264  36.023   4.746
28410W        W88155  44.271  13.211  11.549
28411W        W88156   5.271  35.977   2.392
28412W        W88157  11.692   4.345   1.701
28413W        W88158   3.803  10.819  11.531
28414W        W88159  19.248  23.050  10.974
28415W        W88160  35.366  16.244  12.548
28416W        W88161   4.427  42.995  12.824
28417W        W88162  16.115   8.319   3.638
28418W        W88163  12.727  43.335  11.009
28419W        W88164  10.214   9.849  11.492
28420W        W88165  12.284  42.984  11.934
28421W        W88166   7.301  13.769   0.902
28422W        W88167   9.762  17.603  12.864
28423W        W88168  38.892  37.006  14.834
28424W        W88169  35.600  36.389   4.711
28425W        W88170   3.748  18.715  11.873
28426W        W88171   4.279  44.489  12.565
28427W        W88172  23.566  33.906   4.751
28428W        W88173  24.715  38.034   1.211
28429W        W88174  41.348  27.578   1.783
28430W        W88175  12.309  14.316   4.782
28431W        W88176  35.965  20.184   5.730
28432W        W88177   2.306  17.771   2.351
28433W        W88178   3.873   9.702   0.465
28434W        W88179  38.954   2.913  14.315
28435W        W88180  22.612  30.506  10.912
28436W        W88181  18.286   7.382  12.503
28437W        W88182  21.158  42.427   0.438
28438W        W88183  18.558  18.275  14.288
28439W        W88184  19.680  40.876   0.966
28440W        W88185  22.725   7.408   3.207
28441W        W88186  38.396  19.633  10.422
28442W        W88187  10.201  20.217   3.720
28443W        W88188  34.990  21.204  10.960
28444W        W88189  37.511   0.801  12.891
28445W        W88190  40.821  28.561  11.011
28446W        W88191  15.188  12.132  14.942
28447W        W88192   3.780  29.649   3.299
28448W        W88193  12.138   2.891  11.602
28449W        W88194  38.967  10.730   1.242
28450W        W88195  17.593  31.148   2.353
28451W        W88196  30.428   8.307  12.986
28452W        W88197  15.183  26.578   0.882
28453W        W88198  20.536  19.702  12.950
28454W        W88199  26.472  27.961  12.913
28455W        W88200  38.896  17.751   4.617
28456W        W88201  25.629  36.964  11.901
28457W        W88202  28.621   1.371  13.855
28458W        W88203  10.263  30.143   2.896
28459W        W88204  12.793  19.198   3.664
28460W        W88205  41.889   6.193  14.414
28461W        W88206  27.508   0.400   2.797
28462W        W88207  15.275  42.485   0.456
28463W        W88208  12.768  12.155   4.764
28464W        W88209   1.925  38.527   2.688
28465W        W88210   1.799  18.740   4.130
28466W        W88211  16.273  30.616  12.479
28467W        W88212   4.878  23.638  11.902
28468W        W88213   5.260  38.876  11.466
28469W        W88214  17.723  41.876  13.052
28470W        W88215  15.591  14.691   0.856
28471W        W88216  31.439   9.669   3.166
28472W        W88217  14.708  22.999  14.819
28473W        W88218  42.017  22.052  13.002
28474W        W88219  17.566  33.583   4.146
28475W        W88220   1.950  35.908  11.460
28476W        W88221  41.973  40.972   2.228
28477W        W88222  32.574   8.693  10.532
28478W        W88223   0.321  41.921   3.689
28479W        W88224  33.500   9.707  10.030
28480W        W88225  26.086  18.222   3.857
28481W        W88226  32.434  20.220   3.811
28482W        W88227  12.289   0.453  11.576
28483W        W88228  23.080  29.933   4.805
28484W        W88229  37.342   8.885   0.791
28485W        W88230  27.582  40.440  10.548
28486W        W88231  27.532  19.106   0.439
28487W        W88232  42.440  13.842  14.443
28488W        W88233  41.325  35.483  14.868
28489W        W88234  14.116  39.913  13.308
28490W        W88235  31.404  14.237  13.321
28491W        W88236   8.774  26.672   5.135
28492W        W88237  33.009  38.863   2.331
28493W        W88238   8.189  29.577   3.356
28494W        W88239  35.431   0.833  11.465
28495W        W88240  26.662  36.894  11.465
28496W        W88241  42.809  35.046   1.276
28497W        W88242  20.249  31.571   5.720
28498W        W88243  44.502  28.064  10.915
28499W        W88244  29.047  29.481  14.792
28500W        W88245   0.380  23.087  11.024
28501W        W88246  41.807  16.630   2.677
28502W        W88247  31.498  40.835  14.459
28503W        W88248  37.404  37.556  13.399
28504W        W88249  30.998  21.737   1.244
28505W        W88250  21.194   0.283   4.249
28506W        W88251  18.750  25.623  14.374
28507W        W88252   6.776  18.144   2.817
28508W        W88253  24.566  18.719  12.566
28509W        W88254  28.590  44.483  14.419
28510W        W88255  25.025  27.083  14.012
28511W        W88256  34.378  42.457   0.383
28512W        W88257   8.732  23.654   0.935
28513W        W88258  16.718  22.120   2.841
28514W        W88259  34.533  27.512  14.004
28515W        W88260  14.244  32.476   1.444
28516W        W88261  26.171   9.845   0.749
28517W        W88262  12.352  41.381   1.812
28518W        W88263  30.987  15.715  10.898
28519W        W88264  23.189   8.265  12.403
28520W        W88265  31.991   1.330   4.668
28521W        W88266  29.474  35.549  12.086
28522W        W88267   2.722  30.916   4.339
28523W        W88268  30.093  42.440  13.834
28524W        W88269   6.338  32.564   2.409
28525W        W88270  27.645  18.189   4.294
28526W        W88271  18.255  30.510  12.865
28527W        W88272  27.196   1.850   0.280
28528W        W88273  12.116   1.367   0.902
28529W        W88274  33.072  16.763  11.107
28530W        W88275  35.570   0.445   2.276
28531W        W88276  33.099   8.324  14.377
28532W        W88277  34.881  34.572  12.383
28533W        W88278  39.462  23.609   2.352
28534W        W88279  11.250  32.122  11.431
28535W        W88280  42.901   8.701  14.316
28536W        W88281  38.351  36.944   4.611
28537W        W88282  20.091  36.929   3.229
28538W        W88283  17.721  17.622  10.404
28539W        W88284  31.412  28.064  13.843
28540W        W88285  25.509  40.994  14.331
28541W        W88286  34.467  23.530  10.959
28542W        W88287  12.836   8.739   0.342
28543W        W88288   6.861  31.645  13.924
28544W        W88289  18.174  40.357   0.840
28545W        W88290  20.711  23.061   4.614
28546W        W88291  12.251  18.123   1.779
28547W        W88292  29.106   3.368   0.816
28548W        W88293  34.429  40.357  10.533
28549W        W88294  40.965  29.447  14.882
28550W        W88295   9.215  16.683   1.408
28551W        W88296  43.823   1.856  14.807
28552W        W88297  30.947  39.849  13.426
28553W        W88298  21.129   8.879   9.943
28554W        W88299  25.485  34.509  13.920
28555W        W88300  26.204   3.906  13.893
28556W        W88301  31.487  15.148   4.203
28557W        W88302  12.634  20.744   3.262
28558W        W88303  40.963  34.538  12.534
28559W        W88304  18.548  37.038   3.835
28560W        W88305  37.535  24.658  12.022
28561W        W88306   4.849  30.999  10.609
28562W        W88307   3.735  29.603  13.406
28563W        W88308   5.831   2.822  10.560
28564W        W88309  28.628   7.706   9.556
28565W        W88310  15.774  24.146  10.600
28566W        W88311  11.346  44.826   2.180
28567W        W88312  32.414   0.943   0.766
28568W        W88313  13.764  34.883  14.817
28569W        W88314  40.517   2.895  13.548
28570W        W88315  44.423  12.196  13.547
28571W        W88316  32.432   2.812   0.914
28572W        W88317  29.622  41.311   3.173
28573W        W88318  19.562  34.558  13.851
28574W        W88319  37.346   8.291  11.387
28575W        W88320  26.469  24.529  12.921
28576W        W88321  37.530  43.011  10.408
28577W        W88322  13.757  14.217  10.509
28578W        W88323  40.493   3.730  12.537
28579W        W88324  39.923  18.683   3.644
28580W        W88325  15.582  16.573  13.028
28581W        W88326  13.124  15.776   5.293
28582W        W88327  23.209  35.517   3.268
28583W        W88328  44.922  27.987  13.004
28584W        W88329  10.241  26.620   5.300
28585W        W88330   7.405  38.057  12.483
28586W        W88331  44.930  20.568   0.934
28587W        W88332  34.931  43.489   1.243
28588W        W88333  13.345  38.910   0.771
28589W        W88334  21.166  13.269  13.427
28590W        W88335  15.315  18.074   4.657
28591W        W88336   7.352  10.676   3.185
28592W        W88337  32.934  28.004  13.876
28593W        W88338  12.641   7.723  14.911
28594W        W88339   1.382  38.073  14.406
28595W        W88340   2.363  30.517   0.933
28596W        W88341  38.073  15.672   1.367
28597W        W88342   2.818  17.692  14.448
28598W        W88343  29.063  43.977  12.981
28599W        W88344  36.468  18.614  14.434
28600W        W88345  14.195   2.437   5.122
28601W        W88346   3.333   5.891  11.389
28602W        W88347  32.632  24.545   3.787
28603W        W88348  14.706   0.471   2.891
28604W        W88349  14.595   1.834   2.663
28605W        W88350  17.710  33.117  11.957
28606W        W88351   6.375  10.308   0.251
28607W        W88352   6.323  24.692  12.046
28608W        W88353   0.870  31.059  10.933
28609W        W88354   8.683   3.407   4.616
28610W        W88355  41.376  20.649   4.283
28611W        W88356   4.802  41.519   4.751
28612W        W88357  35.007  44.340   0.815
28613W        W88358  26.180   0.277  11.608
28614W        W88359  25.550   1.946   3.805
28615W        W88360  41.396   4.932  11.396
28616W        W88361  36.940  13.340  13.352
28617W        W88362   0.819  38.399  13.919
28618W        W88363   7.225  24.507  12.905
28619W        W88364  22.239   6.704   1.841
28620W        W88365  37.073  30.917   4.138
28621W        W88366  38.890  36.384   3.318
28622W        W88367  17.786  27.520   4.220
28623W        W88368  28.048  25.600   4.186
28624W        W88369   6.227  29.614   4.123
28625W        W88370  41.970  41.394  11.593
28626W        W88371  39.066  12.807   4.149
28627W        W88372  36.929  31.561  14.932
28628W        W88373  25.057  32.582   9.673
28629W        W88374  13.282  27.484   0.284
28630W        W88375  21.115  23.237  12.912
28631W        W88376  15.661   1.878  14.004
28632W        W88377  39.848  32.546  11.412
28633W        W88378  25.140  43.874  14.413
28634W        W88379  41.322  28.598  12.967
28635W        W88380   9.815  14.772  14.405
28636W        W88381  42.953  18.272  13.871
28637W        W88382   7.286  15.252   1.914
28638W        W88383  18.122  13.662  11.518
28639W        W88384   1.476  42.814  12.977
28640W        W88385  19.535  44.965  11.126
28641W        W88386   9.256  43.859   4.201
28642W        W88387  27.456  17.178   1.921
28643W        W88388  12.823   8.804   0.857
28644W        W88389  40.873  13.346  12.387
28645W        W88390  18.235   8.182  14.886
28646W        W88391  26.101  44.782  11.878
28647W        W88392  28.137  11.732  11.424
28648W        W88393  27.532   0.801  10.580
28649W        W88394  25.209  10.784  11.587
28650W        W88395  41.803  37.921   3.178
28651W        W88396   8.679   1.281   1.215
28652W        W88397   8.183  20.678   0.856
28653W        W88398  37.981   5.398   2.733
28654W        W88399  40.330  26.672  11.080
28655W        W88400  42.340  18.579  12.490
28656W        W88401  30.658  22.668  10.099
28657W        W88402  24.048   3.894  14.929
28658W        W88403   8.773  16.616  12.829
28659W        W88404   7.416  25.972   2.823
28660W        W88405  34.443  15.673  13.962
28661W        W88406  10.853  43.829   3.227
28662W        W88407  40.547  36.394  12.055
28663W        W88408  35.990  36.552  13.348
28664W        W88409  34.399  20.219  13.375
28665W        W88410  19.211   2.293   1.210
28666W        W88411  38.022  39.517   0.824
28667W        W88412  31.429   6.700  12.860
28668W        W88413  39.960  18.172  14.858
28669W        W88414  28.448  36.564  12.964
28670W        W88415  15.582  18.572   2.368
28671W        W88416   9.719  12.684   2.793
28672W        W88417  30.508  29.983   3.263
28673W        W88418  42.416  34.490  11.003
28674W        W88419   6.311  22.530  13.876
28675W        W88420  23.990  16.208   2.397
28676W        W88421  14.249  20.648  14.281
28677W        W88422  43.878  34.111   4.834
28678W        W88423   4.449  13.328  11.577
28679W        W88424   3.850   7.287   3.267
28680W        W88425  28.598  11.192   0.806
28681W        W88426  19.247  16.097   4.826
28682W        W88427   9.389  38.011   2.766
28683W        W88428  14.100  29.967   0.928
28684W        W88429   8.707  11.298  11.990
28685W        W88430  40.900  17.110  11.967
28686W        W88431  31.975  37.040  11.923
28687W        W88432  28.589   7.880   4.189
28688W        W88433  13.229  12.799   1.766
28689W        W88434  11.704  14.247   1.445
28690W        W88435  14.216  26.525  14.791
28691W        W88436  40.032  33.439  12.949
28692W        W88437  41.009  24.686  12.845
28693W        W88438  44.937  31.493  12.520
28694W        W88439  43.388  36.570  13.013
28695W        W88440   0.266   8.167   3.270
28696W        W88441  34.872  12.852   0.772
28697W        W88442  42.417  25.109   3.806
28698W        W88443   4.802   6.335  12.506
28699W        W88444  36.550  11.169   3.634
28700W        W88445  23.230   8.671  11.489
28701W        W88446   5.816  30.559  13.337
28702W        W88447  30.454  29.611   4.188
28703W        W88448   5.782  16.675  13.439
28704W        W88449  43.410  29.594  13.335
28705W        W88450  44.459  26.662  11.926
28706W        W88451  37.519  23.211   1.281
28707W        W88452  43.827  41.332  13.315
28708W        W88453  30.977  26.969   2.667
28709W        W88454  18.224   1.409   4.620
28710W        W88455  19.187  18.667  14.962
28711W        W88456  23.046  39.854  11.077
28712W        W88457   1.353   3.872   0.252
28713W        W88458   2.926  41.395   1.739
28714W        W88459  18.662  33.430  14.385
28715W        W88460  17.598   4.707  14.797
28716W        W88461   2.349   5.361   1.331
28717W        W88462  17.070  21.709   4.161
28718W        W88463  33.123  27.163   4.663
28719W        W88464  13.609  38.901  13.509
28720W        W88465  23.587  44.783   0.846
28721W        W88466   2.832  33.451  11.570
28722W        W88467   9.258   2.404   4.338
28723W        W88468  34.468   1.964   2.242
28724W        W88469  28.166  10.169   4.775
28725W        W88470  10.251  23.023   0.276
28726W        W88471   7.792  34.885   1.269
28727W        W88472   9.782  35.863  12.392
28728W        W88473  12.807  38.568  14.499
28729W        W88474  26.623   0.286  14.862
28730W        W88475  21.685   9.378  12.937
28731W        W88476  24.675  15.296  13.362
28732W        W88477  43.491  30.642  10.098
28733W        W88478  20.537  37.415   4.664
28734W        W88479  33.445  37.386   3.241
28735W        W88480  14.769  24.094   3.265
28736W        W88481  42.404  27.047  10.427
28737W        W88482  44.297  27.969   2.391
28738W        W88483  44.402   9.849  12.990
28739W        W88484  40.474  40.418  13.935
28740W        W88485  34.106   2.261  12.524
28741W        W88486  44.779  14.733  14.379
28742W        W88487  28.123  35.028  13.494
28743W        W88488  17.661  20.038   3.694
28744W        W88489   4.890  26.110  13.539
28745W        W88490  25.007  27.055   3.282
28746W        W88491  14.222   7.231  13.040
28747W        W88492  37.562  14.104  14.912
28748W        W88493  39.413  44.913  12.344
28749W        W88494  41.441  17.719   1.844
28750W        W88495  43.512  33.070  10.413
28751W        W88496  38.412  40.456  12.357
28752W        W88497  23.201   8.657  12.852
28753W        W88498  33.415  31.028   0.430
28754W        W88499   5.240  13.216   0.428
28755W        W88500  26.643  36.922  13.908
28756W        W88501   0.812  33.557  12.015
28757W        W88502  29.129  17.187  12.914
28758W        W88503  18.215   7.898  12.965
28759W        W88504  34.610  12.672   2.733
28760W        W88505  15.647  38.501  13.340
28761W        W88506  24.495  30.467   2.213
28762W        W88507  17.295  27.568   1.839
28763W        W88508  37.463   6.777  11.075
28764W        W88509  24.526  15.262  12.436
28765W        W88510   0.492  13.311   1.840
28766W        W88511  16.140  29.011   4.816
28767W        W88512  17.572  17.114   1.908
28768W        W88513  44.933  33.535  13.329
28769W        W88514   6.761  14.645  12.961
28770W        W88515   1.319  33.467   4.253
28771W        W88516  31.970  34.432   4.616
28772W        W88517  32.080   0.417   1.366
28773W        W88518   5.851   6.400   3.720
28774W        W88519  22.161  25.616   4.726
28775W        W88520  38.974  14.194  10.982
28776W        W88521  30.990  15.716  13.837
28777W        W88522  12.306  19.239  11.120
28778W        W88523   2.782  41.314   4.227
28779W        W88524  21.755   5.805  11.969
28780W        W88525  32.022   9.719   3.172
28781W        W88526  20.082   8.388   3.387
28782W        W88527  21.106  23.706  13.424
28783W        W88528  26.004   4.932   1.274
28784W        W88529   2.304  16.575   1.697
28785W        W88530  36.520  34.019   2.314
28786W        W88531  12.698  31.094   3.220
28787W        W88532  39.046  27.579  13.326
28788W        W88533  18.665  41.038   3.737
28789W        W88534  37.531  43.301  10.606
28790W        W88535  14.734  36.891   4.795
28791W        W88536  25.478  33.579   1.401
28792W        W88537  44.359   9.786  13.389
28793W        W88538  15.239   1.323  10.937
28794W        W88539  20.612   3.709   3.655
28795W        W88540  23.985   4.303  12.407
28796W        W88541  33.390  35.927   0.249
28797W        W88542  18.235  32.963  10.477
28798W        W88543  32.552  15.138  13.998
28799W        W88544  21.674  23.528   0.477
28800W        W88545   1.257  20.550  11.062
28801W        W88546  25.512  38.511  11.464
28802W        W88547   1.358  31.418   9.929
28803W        W88548  39.348  17.278   4.349
28804W        W88549  22.648  26.689  11.444
28805W        W88550  32.612  31.029   3.780
28806W        W88551  41.377  25.582   0.727
28807W        W88552  13.156  25.574   3.186
28808W        W88553  12.265  38.491  14.828
28809W        W88554   9.750  29.066   3.380
28810W        W88555  13.801  31.467   1.394
28811W        W88556  13.311  10.363  13.453
28812W        W88557  30.010  30.633   3.187
28813W        W88558   7.834  11.704   4.214
28814W        W88559  17.798   1.425   0.405
28815W        W88560  23.995  32.621  14.447
28816W        W88561  16.601   1.838  10.573
28817W        W88562  29.001  13.319  11.050
28818W        W88563  31.044  11.204  13.806
28819W        W88564  28.677   7.820  13.402
28820W        W88565  36.492  43.498  12.407
28821W        W88566  44.295  23.515   1.800
28822W        W88567  20.543  39.956   3.355
28823W        W88568   2.333   1.339   0.408
28824W        W88569  42.313  36.047   1.330
28825W        W88570  33.500  38.070  14.833
28826W        W88571  19.675  43.345   2.239
28827W        W88572  34.437  35.042  13.534
28828W        W88573  25.644  34.884   1.243
28829W        W88574   2.441  39.416  14.866
28830W        W88575  37.349   6.909  11.965
28831W        W88576  44.763  34.483   4.282
28832W        W88577  37.397  20.748   3.348
28833W        W88578  26.667  42.804  12.933
28834W        W88579  29.103  16.162   3.288
28835W        W88580   4.791   2.328   1.410
28836W        W88581  32.572  37.855  12.917
28837W        W88582  12.136  11.301   0.433
28838W        W88583  10.295  39.901   1.864
28839W        W88584  11.258  35.915   3.320
28840W        W88585  10.142  33.444  14.029
28841W        W88586   6.707  33.944  12.089
28842W        W88587  26.695  39.403  13.806
28843W        W88588   3.306   1.798  13.977
28844W        W88589  40.500   9.162   0.911
28845W        W88590  43.314  10.753  11.932
28846W        W88591  34.523  41.514   3.377
28847W        W88592  12.125  28.948  11.581
28848W        W88593   9.830  44.307   9.958
28849W        W88594   1.365  16.672   4.162
28850W        W88595  38.904   4.880   3.819
28851W        W88596   2.786  40.348  12.383
28852W        W88597  36.951  35.862  13.987
28853W        W88598   8.252  11.816  13.426
28854W        W88599  39.907  23.000  10.954
28855W        W88600  23.515  33.443   5.267
28856W        W88601  35.955  27.610   0.737
28857W        W88602  30.095  11.209  11.394
28858W        W88603  15.204  23.687   4.129
28859W        W88604  42.788   6.812  14.829
28860W        W88605   1.324  37.506   0.814
28861W        W88606   8.716   2.801  11.535
28862W        W88607   1.374   4.251  13.011
28863W        W88608   5.863  31.979  12.005
28864W        W88609  20.731  26.017  12.563
28865W        W88610  43.782  40.935  10.976
28866W        W88611  22.246  12.123  10.079
28867W        W88612   7.301   7.260   1.215
28868W        W88613  29.173  34.911  13.847
28869W        W88614  28.983  22.018   1.400
28870W        W88615   0.427   8.706   2.680
28871W        W88616  35.463  19.772   4.309
28872W        W88617  39.334   0.270  14.981
28873W        W88618  31.060   8.826   2.390
28874W        W88619   2.859  14.310  10.458
28875W        W88620  19.250  14.741  11.087
28876W        W88621  38.856   9.387   4.675
28877W        W88622  38.001   3.911   0.443
28878W        W88623   5.436  31.144  10.496
28879W        W88624   8.174  17.191   1.394
28880W        W88625  17.705  21.664  12.547
28881W        W88626  28.089  15.215  13.870
28882W        W88627  20.760  25.479   0.941
28883W        W88628  37.378   0.743   3.759
28884W        W88629  31.434  22.158  11.410
28885W        W88630   6.689  19.769   5.124
28886W        W88631  19.083  38.035  13.352
28887W        W88632  14.611  27.164  10.612
28888W        W88633  10.864  22.723   4.224
28889W        W88634  21.263  30.012   3.273
28890W        W88635  31.042   3.241   1.446
28891W        W88636  13.833   0.961  12.414
28892W        W88637   0.762  24.523   3.806
28893W        W88638  30.961  26.142   0.962
28894W        W88639  20.180   8.710   9.925
28895W        W88640   2.277  15.207  12.576
28896W        W88641  24.525  42.397  10.432
28897W        W88642  26.501   9.857  10.057
28898W        W88643  20.625  25.042   0.741
28899W        W88644  19.719  32.921  13.020
28900W        W88645  23.541  32.990   0.920
28901W        W88646  33.539  38.522  14.799
28902W        W88647  10.672  33.601   1.259
28903W        W88648  11.625   7.258  12.527
28904W        W88649  16.719   0.470  12.467
28905W        W88650   5.855   7.810   1.711
28906W        W88651  29.968  40.478   1.353
28907W        W88652  25.024  10.852   0.434
28908W        W88653  40.009  36.407   2.821
28909W        W88654  22.122  22.531  10.612
28910W        W88655  36.900   6.731   4.337
28911W        W88656  41.416  31.985   3.238
28912W        W88657  32.435   8.286   3.270
28913W        W88658  27.590  18.067  13.807
28914W        W88659   3.715  26.058  14.425
28915W        W88660  39.439  10.140   3.273
28916W        W88661  23.662  27.455  14.440
28917W        W88662  36.025  29.459  13.031
28918W        W88663  30.919  21.238  11.562
28919W        W88664  27.107  30.049   4.119
28920W        W88665  22.632  22.062   3.198
28921W        W88666  41.927  20.181   3.637
28922W        W88667  11.214  27.492  10.581
28923W        W88668  23.010   7.393   0.336
28924W        W88669  20.570  26.690  12.095
28925W        W88670  35.459  12.636  13.909
28926W        W88671  25.591  43.387   1.344
28927W        W88672  27.950  16.731   2.705
28928W        W88673  23.539  25.056  10.423
28929W        W88674   7.865  30.475   2.281
28930W        W88675  35.422  36.451   2.710
28931W        W88676  41.799   1.255  14.382
28932W        W88677  28.101  23.720   2.230
28933W        W88678   6.905  44.499   3.378
28934W        W88679  10.355  12.328  11.466
28935W        W88680  12.362   5.921   0.915
28936W        W88681  29.089  11.346   0.417
28937W        W88682  31.634  27.166   0.839
28938W        W88683  25.055  41.430   0.364
28939W        W88684  15.319  44.429   3.359
28940W        W88685  33.540  42.397   9.998
28941W        W88686  12.636  29.044  14.760
28942W        W88687  33.601   1.801  10.407
28943W        W88688   5.871  35.530   3.728
28944W        W88689  42.961  24.677  10.916
28945W        W88690   8.399  37.969   3.787
28946W        W88691  43.996   6.380  13.361
28947W        W88692  44.435  31.079  12.002
28948W        W88693  38.529  28.513   3.693
28949W        W88694  16.219  26.569   2.228
28950W        W88695  17.572  31.152  10.488
28951W        W88696  27.009  29.461   3.219
28952W        W88697  24.172   2.778  10.963
28953W        W88698  33.953   8.185   2.349
28954W        W88699  18.103   2.943  10.586
28955W        W88700  35.104  44.996   4.131
28956W        W88701  30.065  33.427  13.020
28957W        W88702   7.731   7.388   1.384
28958W        W88703  11.809  40.879   0.466
28959W        W88704   4.335   9.299  13.797
28960W        W88705   7.700  43.321  12.449
28961W        W88706  36.473  27.681  13.312
28962W        W88707  14.813   3.939  12.419
28963W        W88708  34.569  10.820   2.334
28964W        W88709  17.756  17.113  12.845
28965W        W88710  30.929   6.409  12.975
28966W        W88711  13.280  15.680   9.962
28967W        W88712  26.187  21.161  13.002
28968W        W88713  31.942  35.078   2.799
28969W        W88714  39.826   2.916  10.941
28970W        W88715  40.050  23.038   1.218
28971W        W88716  20.570  35.923  11.448
28972W        W88717  19.536  40.343  10.585
28973W        W88718  19.139  25.499   3.258
28974W        W88719  31.486   5.309  12.013
28975W        W88720  14.174  38.446  10.424
28976W        W88721  40.444  42.985  11.550
28977W        W88722  19.250  39.382   4.838
28978W        W88723  37.539  32.115   4.270
28979W        W88724  19.665  23.643  10.582
28980W        W88725  15.143  15.126  14.949
28981W        W88726   2.397  11.862  14.763
28982W        W88727  16.274  28.968   1.241
28983W        W88728   9.324  23.596  14.838
28984W        W88729   0.296  28.477  10.998
28985W        W88730  19.694  44.761  13.841
28986W        W88731  37.046  23.731  10.484
28987W        W88732  32.897  26.061  12.064
28988W        W88733  39.006  32.906   3.727
28989W        W88734   8.815  22.527  13.318
28990W        W88735   5.318  18.054   1.750
28991W        W88736  43.390   6.240   2.704
28992W        W88737  12.317  29.622  12.497
28993W        W88738  25.571   8.398   3.827
28994W        W88739  13.769  24.104   2.709
28995W        W88740  37.972  20.055  13.889
28996W        W88741  35.464  37.841  13.817
28997W        W88742  43.440  21.211  13.996
28998W        W88743  39.435  30.447   1.842
28999W        W88744  35.920   3.339   4.264
29000W        W88745  24.210  42.464   3.848
29001W        W88746  44.903  43.326  12.873
29002W        W88747  11.756  34.078   1.890
29003W        W88748  35.564  38.019  13.362
29004W        W88749  17.108   0.914   2.871
29005W        W88750  25.103  22.140   3.304
29006W        W88751  31.409  39.867   2.763
29007W        W88752  36.457   5.826   4.202
29008W        W88753   7.722   0.304  11.936
29009W        W88754  11.700  30.546  13.443
29010W        W88755   2.226  24.155   1.261
29011W        W88756  25.612  29.082  14.412
29012W        W88757   6.765  24.639   4.193
29013W        W88758  38.025  39.359   3.742
29014W        W88759   0.333   9.265   2.234
29015W        W88760   5.371  15.240   1.763
29016W        W88761  24.143  15.767   4.803
29017W        W88762  20.110  44.469   0.854
29018W        W88763   1.811  40.922  10.624
29019W        W88764  31.970   5.780   2.892
29020W        W88765  13.681  22.080   2.765
29021W        W88766  13.235  34.467   1.350
29022W        W88767  34.384   5.341  13.928
29023W        W88768  42.869  26.681  10.463
29024W        W88769  22.051  28.498   4.280
29025W        W88770   0.760  30.161  11.580
29026W        W88771  40.975   1.380   3.697
29027W        W88772   8.171  33.597   4.692
29028W        W88773   2.810  35.570  11.384
29029W        W88774  42.430   1.261   4.685
29030W        W88775  23.525   8.389  10.551
29031W        W88776  23.630  15.208   2.819
29032W        W88777  34.587  16.707  10.587
29033W        W88778  33.020  14.663   3.341
29034W        W88779   5.889  22.702  14.488
29035W        W88780  29.088  35.586  14.318
29036W        W88781  27.654  27.941   2.253
29037W        W88782  11.143  36.948   2.185
29038W        W88783   3.218  40.447  12.977
29039W        W88784   8.772  37.419  11.392
29040W        W88785  40.470  10.807   2.704
29041W        W88786   5.421   2.353  13.532
29042W        W88787  16.727  25.489  12.064
29043W        W88788  20.599  44.409   3.789
29044W        W88789   8.658  38.054   3.863
29045W        W88790  31.985   5.207  10.127
29046W        W88791  44.896  17.615   2.664
29047W        W88792   3.355  26.506   1.827
29048W        W88793  41.369  43.791   3.774
29049W        W88794  37.920  34.530   2.740
29050W        W88795  41.830  22.185   4.310
29051W        W88796  28.092  31.584   3.868
29052W        W88797  27.123   3.317   1.916
29053W        W88798   0.947  14.674   2.351
29054W        W88799  13.644  34.030  12.528
29055W        W88800  17.274  13.768  13.495
29056W        W88801  10.217  37.967  12.944
29057W        W88802  35.980  40.325   0.325
29058W        W88803  17.678  34.914  13.427
29059W        W88804   4.927  17.071  13.321
29060W        W88805   0.787   0.477  12.073
29061W        W88806  42.026  20.141   0.261
29062W        W88807  13.837  33.125  14.780
29063W        W88808  24.701  23.668   4.158
29064W        W88809  28.959  27.197  11.063
29065W        W88810  21.227  28.058   1.906
29066W        W88811  30.136  26.489  13.963
29067W        W88812  44.297  29.959   4.782
29068W        W88813  36.939  37.069  11.442
29069W        W88814  41.319  14.603   3.289
29070W        W88815  17.773  23.677  13.404
29071W        W88816  23.020   5.277   3.212
29072W        W88817   6.876  21.626  12.081
29073W        W88818  21.203  18.748   2.356
29074W        W88819  27.948  38.440  12.911
29075W        W88820  13.126  10.827  12.897
29076W        W88821  16.141   3.750  14.375
29077W        W88822  43.013  33.498  10.634
29078W        W88823  29.659   9.738  10.982
29079W        W88824  36.401  18.193   4.635
29080W        W88825   0.476   6.724  13.504
29081W        W88826  32.422  16.241   2.665
29082W        W88827  39.020   5.286  11.862
29083W        W88828  27.097  35.083  10.420
29084W        W88829  25.665  43.370   3.689
29085W        W88830  39.481  37.387  10.483
29086W        W88831  39.450  44.847   4.650
29087W        W88832  26.650  23.081  11.115
29088W        W88833  41.012  34.383   1.238
29089W        W88834  31.104  31.961  10.565
29090W        W88835  12.247  15.288   2.308
29091W        W88836  11.131  17.700  12.552
29092W        W88837  37.938  27.592  14.429
29093W        W88838   7.883  31.627   4.263
29094W        W88839  31.441  42.814   0.877
29095W        W88840  18.260  29.631   0.304
29096W        W88841  20.755  42.839   0.951
29097W        W88842   3.224   2.821  10.631
29098W        W88843  34.012  39.542  11.539
29099W        W88844  35.971  30.445   1.866
29100W        W88845  20.549  17.640  11.857
29101W        W88846  38.474  23.224   1.713
29102W        W88847  35.586  38.063   3.157
29103W        W88848   1.269  26.962   4.133
29104W        W88849  30.129  37.033   0.869
29105W        W88850   8.403  31.626   4.647
29106W        W88851  35.483  14.597  13.934
29107W        W88852  13.208  32.978  11.542
29108W        W88853   2.378   7.176   2.746
29109W        W88854  16.732   7.856   3.260
29110W        W88855  16.246   8.388   0.732
29111W        W88856  36.095  18.710  13.045
29112W        W88857  38.046  12.720   1.220
29113W        W88858  12.708  19.637   2.753
29114W        W88859  22.222  32.105   0.937
29115W        W88860  44.317  22.628   1.310
29116W        W88861  19.685   5.759   2.761
29117W        W88862  17.239  34.561   3.370
29118W        W88863   8.256  32.420  14.012
29119W        W88864  29.976  44.788   0.328
29120W        W88865  20.041  18.601  12.091
29121W        W88866  18.147  27.019  13.048
29122W        W88867   2.847  33.557   1.290
29123W        W88868  39.992  41.041   4.727
29124W        W88869  16.614  42.440  14.399
29125W        W88870  12.691   7.810   3.204
29126W        W88871  30.137   4.344   2.359
29127W        W88872  26.651   5.826  14.775
29128W        W88873  14.289  42.011   1.311
29129W        W88874  29.924  17.250  12.865
29130W        W88875  31.437  10.718  11.590
29131W        W88876  43.411   0.925   4.621
29132W        W88877  19.590  19.253   4.145
29133W        W88878  19.771  23.615   2.279
29134W        W88879  36.906  27.080   4.601
29135W        W88880  44.475  25.690   1.816
29136W        W88881   4.745   4.747   3.360
29137W        W88882   6.790   2.814   3.639
29138W        W88883   2.363  42.971  14.317
29139W        W88884   5.712  31.985  10.983
29140W        W88885   8.197   1.823   3.629
29141W        W88886   9.780  21.029  10.049
29142W        W88887  24.558   4.384   0.765
29143W        W88888  14.696  41.984   4.158
29144W        W88889  39.556  17.274   3.840
29145W        W88890   2.858   1.929  11.883
29146W        W88891  25.664  14.145  14.840
29147W        W88892  30.515  13.279   1.892
29148W        W88893  32.932  36.588  13.884
29149W        W88894  36.910  28.047  13.923
29150W        W88895  20.654  25.705  12.003
29151W        W88896  42.916  34.959  13.931
29152W        W88897  11.828  17.076   4.625
29153W        W88898  24.618  38.018  14.444
29154W        W88899  41.948   9.201   0.803
29155W        W88900  30.004  13.184   4.837
29156W        W88901  21.673  16.746   0.248
29157W        W88902   7.269   1.371   3.285
29158W        W88903   3.367  28.476   3.369
29159W        W88904  21.669  42.393   3.682
29160W        W88905  31.141  42.846  13.380
29161W        W88906  40.416  35.371  12.878
29162W        W88907  27.005  33.022  12.374
29163W        W88908  12.756  41.393  13.017
29164W        W88909  30.916  33.039  14.478
29165W        W88910  38.006   3.234  12.029
29166W        W88911  32.550  38.345  10.508
29167W        W88912  32.634  29.019   3.666
29168W        W88913  25.691  14.269   2.361
29169W        W88914   2.824  21.550  12.470
29170W        W88915   9.249  39.024  14.315
29171W        W88916  38.412  43.794  14.341
29172W        W88917   3.872  27.576   4.816
29173W        W88918   8.794  40.818  13.901
29174W        W88919  13.618   9.344   2.872
29175W        W88920  15.645  18.678   0.782
29176W        W88921  24.572  27.556  12.466
29177W        W88922   6.721  43.497  13.476
29178W        W88923  33.545  30.455  13.973
29179W        W88924  41.455  35.385  14.496
29180W        W88925  13.609  11.632  10.931
29181W        W88926  23.146  39.458  10.614
29182W        W88927  38.996  38.074  13.445
29183W        W88928  15.155  35.082  13.529
29184W        W88929  19.285  18.686   4.791
29185W        W88930  12.748  27.650   1.900
29186W        W88931   4.912   0.474  11.558
29187W        W88932  42.380   5.826  12.833
29188W        W88933  29.598  35.991   3.263
29189W        W88934   2.739  12.823  12.541
29190W        W88935   7.682  42.951  11.552
29191W        W88936  14.775  37.383   5.267
29192W        W88937  35.018   0.771   2.676
29193W        W88938   6.181   3.428  10.433
29194W        W88939  29.648  30.588   0.263
29195W        W88940  28.984   4.820   3.302
29196W        W88941  16.239  29.084  11.985
29197W        W88942  39.825   3.335   4.302
29198W        W88943  23.037  33.583   2.342
29199W        W88944  11.645   3.738  11.024
29200W        W88945  34.938  33.941  13.922
29201W        W88946  35.937  13.189  13.519
29202W        W88947  41.501  22.058  11.609
29203W        W88948  22.547  20.700  11.479
29204W        W88949  42.495  42.901   1.919
29205W        W88950  36.063  26.654   1.389
29206W        W88951  35.504  29.496   4.113
29207W        W88952  20.626  27.061  10.989
29208W        W88953  10.247   3.880  13.012
29209W        W88954  20.618  17.164  13.987
29210W        W88955  36.574  19.696  10.098
29211W        W88956  14.714  34.927  12.404
29212W        W88957   5.715  18.683  12.859
29213W        W88958   9.337  39.358  12.403
29214W        W88959   5.230  25.123   3.352
29215W        W88960  32.958  36.496  12.417
29216W        W88961  19.664  42.817  14.503
29217W        W88962  21.243  34.587  11.012
29218W        W88963  38.852  32.909   5.233
29219W        W88964  18.274  40.852   0.841
29220W        W88965  19.705   8.823   4.681
29221W        W88966  36.896   6.780   0.254
29222W        W88967  38.564  10.732  12.890
29223W        W88968  17.612  29.166   4.147
29224W        W88969  18.127  20.715  12.568
29225W        W88970  37.905  40.851   0.802
29226W        W88971  31.638  37.348   4.695
29227W        W88972  38.020  22.221   0.825
29228W        W88973  14.691  29.588   2.362
29229W        W88974   9.279  32.411  14.487
29230W        W88975  44.864  22.202  13.052
29231W        W88976  28.611   2.727  10.520
29232W        W88977  18.560  33.585   2.216
29233W        W88978  17.675   2.753   1.327
29234W        W88979  28.477   9.381  14.292
29235W        W88980  34.004  42.338   1.337
29236W        W88981   7.399   2.236   0.953
29237W        W88982  14.229  37.902   2.779
29238W        W88983  20.600  37.860   4.196
29239W        W88984  30.626  23.682  14.813
29240W        W88985   6.222  31.905  14.399
29241W        W88986  12.174   3.324  11.859
29242W        W88987  11.703  13.174  13.002
29243W        W88988  21.722  24.579   2.879
29244W        W88989  23.987  11.307  10.016
29245W        W88990   3.275  23.000   1.245
29246W        W88991  30.594  44.756   3.776
29247W        W88992  13.775  27.007  13.845
29248W        W88993  33.956  33.962   3.774
29249W        W88994  14.206  24.105   2.667
29250W        W88995  38.509  41.515   0.920
29251W        W88996  20.206  25.101   0.764
29252W        W88997   8.207  32.033   2.770
29253W        W88998   2.795  26.588  13.059
29254W        W88999   1.291  25.699   4.781
29255W        W89000  11.709  27.109   1.842
29256W        W89001  43.478  17.267  11.410
29257W        W89002  35.423  26.011  14.994
29258W        W89003  21.043  33.006   9.440
29259W        W89004  17.242  42.341  13.979
29260W        W89005  36.358  30.482  11.910
29261W        W89006  17.067  31.488  12.409
29262W        W89007  19.540  10.847  10.600
29263W        W89008  35.995  39.402   1.913
29264W        W89009  30.054  26.075  10.642
29265W        W89010  37.485  36.057   4.163
29266W        W89011   8.821  38.981   3.847
29267W        W89012  34.426  26.699   5.163
29268W        W89013  13.126  31.123  12.894
29269W        W89014  27.480  35.865  13.531
29270W        W89015  44.011   4.759   2.180
29271W        W89016  21.634  43.770   1.366
29272W        W89017  39.424  43.799  11.485
29273W        W89018   8.892  21.705   1.860
29274W        W89019  19.760  39.406   3.183
29275W        W89020  31.592   7.381  14.897
29276W        W89021  31.111  23.519  14.884
29277W        W89022  21.085   5.743  11.478
29278W        W89023  36.875  25.965   1.353
29279W        W89024  18.159  30.982  14.466
29280W        W89025  14.210  26.675  12.869
29281W        W89026  28.467   3.273   0.762
29282W        W89027  19.229   8.878  13.379
29283W        W89028  12.298  33.543   3.360
29284W        W89029  23.690   6.763  13.064
29285W        W89030  29.958  26.626  11.895
29286W        W89031  23.175  21.234   4.162
29287W        W89032   9.264   2.850  10.958
29288W        W89033  10.154   1.733  12.874
29289W        W89034  21.249  41.939   4.141
29290W        W89035  19.747   2.306  12.051
29291W        W89036  37.543  27.140  12.915
29292W        W89037  24.085  10.292  13.534
29293W        W89038  23.540   0.801  12.934
29294W        W89039  16.810  35.501   3.674
29295W        W89040  20.208  23.521  13.542
29296W        W89041  12.291  26.608  12.458
29297W        W89042  28.061  17.740   1.222
29298W        W89043   4.762  24.551   2.829
29299W        W89044  30.039  16.264   0.337
29300W        W89045  13.261  39.943   0.460
29301W        W89046  33.603   9.179   3.245
29302W        W89047  38.556  17.124  11.003
29303W        W89048  25.063  20.184   1.326
29304W        W89049  24.643   3.455  12.966
29305W        W89050  16.672  30.604   1.297
29306W        W89051  36.881  12.140   1.828
29307W        W89052  27.109  23.019  13.481
29308W        W89053  26.136  42.871  13.946
29309W        W89054  11.310  37.941   9.655
29310W        W89055  31.101   3.444  13.837
29311W        W89056   7.787  30.448  12.916
29312W        W89057   2.331  16.135   3.835
29313W        W89058  40.495  23.118  12.440
29314W        W89059  30.487  23.204   2.268
29315W        W89060  15.085  37.929  10.962
29316W        W89061  22.512  29.670   1.731
29317W        W89062  38.959   2.963   4.327
29318W        W89063   2.768  22.729   5.090
29319W        W89064  36.990  30.482   3.342
29320W        W89065  37.463  11.320   0.355
29321W        W89066  25.153   8.839   2.880
29322W        W89067  25.625  15.302  10.088
29323W        W89068  20.179  44.924  14.915
29324W        W89069  12.241  41.018   3.346
29325W        W89070   7.280  22.593   0.849
29326W        W89071  10.250  16.225  11.110
29327W        W89072  28.641   4.736   0.895
29328W        W89073  21.184  36.997   0.386
29329W        W89074  43.372  25.018  10.496
29330W        W89075  34.961  28.172   1.827
29331W        W89076  41.397  11.150   4.270
29332W        W89077  36.916  16.097  12.530
29333W        W89078  13.715  31.070   2.185
29334W        W89079  28.998  33.553   4.814
29335W        W89080  39.021  40.966  14.028
29336W        W89081  40.437  34.612   0.879
29337W        W89082  31.530  36.981   4.202
29338W        W89083  29.609   4.310   2.358
29339W        W89084   9.315  25.139  12.045
29340W        W89085  18.662  38.372   1.704
29341W        W89086  41.884  41.327  12.439
29342W        W89087   5.241  31.407   1.839
29343W        W89088   3.409  39.974  12.893
29344W        W89089  38.942   8.830  13.978
29345W        W89090   6.742  16.077  12.923
29346W        W89091  27.961  14.094  14.881
29347W        W89092  43.845  38.457  12.896
29348W        W89093  35.028  26.579   3.822
29349W        W89094   9.822  36.062   4.610
29350W        W89095  20.721  18.133   2.279
29351W        W89096   0.917  16.098  14.346
29352W        W89097  25.987  19.107   2.364
29353W        W89098  23.503   1.338   1.316
29354W        W89099  40.000  30.475   1.324
29355W        W89100  32.475   8.761  14.766
29356W        W89101  44.802  44.910   4.117
29357W        W89102  34.614  40.504   4.838
29358W        W89103  36.863  42.811   3.679
29359W        W89104  41.445  15.090   1.236
29360W        W89105  23.143  30.152  11.998
29361W        W89106  26.552  27.994   0.429
29362W        W89107  33.883   1.375   0.898
29363W        W89108  33.966  33.004  10.987
29364W        W89109  15.204  42.008   3.813
29365W        W89110  44.997  30.110   1.844
29366W        W89111  38.512  16.131  14.366
29367W        W89112   1.243  25.988   2.885
29368W        W89113  30.127  20.043  13.461
29369W        W89114  14.781   3.799   2.677
29370W        W89115  38.859  37.878  12.090
29371W        W89116  22.194  17.712   2.804
29372W        W89117  35.932   5.346   0.280
29373W        W89118   0.914  19.660   1.236
29374W        W89119   8.839  40.925   0.424
29375W        W89120  21.198  21.138   2.416
29376W        W89121  42.813   1.732   0.738
29377W        W89122  24.160  12.142  11.870
29378W        W89123  35.859  21.559   0.469
29379W        W89124  37.394   9.691   2.192
29380W        W89125  32.515  24.994  14.483
29381W        W89126  11.738   9.866   0.344
29382W        W89127  33.097  12.731   1.867
29383W        W89128  44.830   9.744   4.169
29384W        W89129  35.466  33.596   1.224
29385W        W89130  28.057  39.387  11.988
29386W        W89131   3.271  34.583   4.838
29387W        W89132   0.274   6.676   2.207
29388W        W89133   4.394  41.950   3.171
29389W        W89134   3.293   4.375   1.254
29390W        W89135  21.058  34.519  12.947
29391W        W89136   8.807  25.140   2.689
29392W        W89137  10.766  22.586  10.450
29393W        W89138  18.691  39.356   3.269
29394W        W89139  32.401  38.977   1.290
29395W        W89140  17.184  27.533   3.159
29396W        W89141   5.311   0.895   4.232
29397W        W89142  17.609  22.151   4.305
29398W        W89143   7.327  11.356  12.578
29399W        W89144   9.728   1.841   3.219
29400W        W89145  35.107  18.145  12.973
29401W        W89146  23.214  34.525   1.787
29402W        W89147   3.892  32.559   3.215
29403W        W89148  18.619   4.227   2.254
29404W        W89149  15.669  43.899   1.415
29405W        W89150  28.087   4.944  10.645
29406W        W89151   8.204  22.246  11.478
29407W        W89152   5.761  17.660   0.456
29408W        W89153   9.647  11.359  11.378
29409W        W89154  11.158  38.823  10.922
29410W        W89155  10.231  24.562  13.526
29411W        W89156  10.228   1.378  11.506
29412W        W89157  42.452  16.803  14.426
29413W        W89158  38.483  18.691   4.809
29414W        W89159  43.340   8.821   4.803
29415W        W89160   4.811  19.645  12.045
29416W        W89161  15.823  42.955   4.805
29417W        W89162  16.795   1.324  13.064
29418W        W89163  42.883  31.149   0.372
29419W        W89164  21.023  29.102   3.270
29420W        W89165  35.594  23.504  12.886
29421W        W89166   2.466  12.781  14.844
29422W        W89167   1.784  43.849  11.462
29423W        W89168  18.571  39.924   2.252
29424W        W89169   7.276  30.473   2.353
29425W        W89170  13.274  11.666  13.928
29426W        W89171   0.937   2.261   1.901
29427W        W89172  12.199  14.655   3.684
29428W        W89173   3.363   7.864  14.513
29429W        W89174  19.573  16.798   4.169
29430W        W89175   2.724  12.758   4.294
29431W        W89176  39.469  23.497  14.762
29432W        W89177  35.372   2.941   4.293
29433W        W89178  34.437  42.368  12.924
29434W        W89179  37.540  28.630   4.347
29435W        W89180  29.009   1.816  11.379
29436W        W89181   1.354   0.745   3.714
29437W        W89182  42.776  41.494   2.198
29438W        W89183  43.306   3.330   5.118
29439W        W89184  18.059  17.718   0.814
29440W        W89185  36.043  44.762   0.939
29441W        W89186  16.172  40.951   1.279
29442W        W89187   0.400  19.632  12.510
29443W        W89188  32.505   8.214   1.878
29444W        W89189  21.644  17.134  14.886
29445W        W89190   2.806  27.478   2.791
29446W        W89191  28.495  38.916   4.756
29447W        W89192  21.048  14.647  14.977
29448W        W89193  42.898   0.781  12.992
29449W        W89194  16.075  16.082  12.346
29450W        W89195   8.337   3.287   3.286
29451W        W89196   7.899   6.772  10.496
29452W        W89197  37.086  18.697   0.341
29453W        W89198   0.365  31.503   2.413
29454W        W89199  17.562  23.991   2.895
29455W        W89200  19.078  23.048   0.967
29456W        W89201   9.276  20.242  14.350
29457W        W89202  22.149   5.208   3.283
29458W        W89203  18.595   0.455  10.636
29459W        W89204  20.757  21.214  13.527
29460W        W89205  24.597   2.789   9.558
29461W        W89206   8.803  26.959  12.507
29462W        W89207  10.319  22.566  14.967
29463W        W89208  37.397  18.246  11.108
29464W        W89209   7.790  21.119   0.314
29465W        W89210  30.521   9.346   1.812
29466W        W89211  18.669  20.574   4.691
29467W        W89212   3.265  31.049   1.449
29468W        W89213   6.245   4.253  13.546
29469W        W89214   3.949  17.274   2.678
29470W        W89215  16.736  34.956   0.457
29471W        W89216  31.473  11.810  13.345
29472W        W89217  22.191  34.423  11.486
29473W        W89218  33.961  29.015  11.385
29474W        W89219  42.488  18.238   1.918
29475W        W89220  21.701  39.939  10.445
29476W        W89221   3.767  37.007  11.590
29477W        W89222  15.097  41.505   2.865
29478W        W89223  41.907  13.830   3.818
29479W        W89224  43.309  44.313  11.864
29480W        W89225  23.590  25.528   0.390
29481W        W89226   9.226  17.616   3.149
29482W        W89227   5.369  42.030   0.259
29483W        W89228  18.202  36.518  12.492
29484W        W89229  31.081   3.784  13.028
29485W        W89230  33.406  39.023  11.442
29486W        W89231   9.219  38.566   4.695
29487W        W89232   4.287  43.295  13.348
29488W        W89233  25.533  22.551  10.488
29489W        W89234  35.095  27.031   2.730
29490W        W89235  38.555  16.120   0.931
29491W        W89236   7.213  33.994  14.437
29492W        W89237  42.371   4.446  13.929
29493W        W89238  43.413   1.415   2.772
29494W        W89239  38.921  37.948   2.888
29495W        W89240  16.242  11.669   0.835
29496W        W89241  40.990  26.639  14.284
29497W        W89242  44.844   1.945  13.379
29498W        W89243   9.708  13.826  11.890
29499W        W89244  42.873  35.949   4.766
29500W        W89245  15.612   7.390   1.366
29501W        W89246   9.311   6.680   1.821
29502W        W89247  38.571  31.641  13.855
29503W        W89248  19.556   0.767  12.349
29504W        W89249  35.971  42.386  12.564
29505W        W89250  10.655   4.414   3.777
29506W        W89251  31.015  10.325  13.910
29507W        W89252  34.578   3.952  14.388
29508W        W89253  35.456  42.366   2.793
29509W        W89254  14.801  31.611   4.148
29510W        W89255  41.421  30.530  14.296
29511W        W89256  27.622   8.893  10.907
29512W        W89257  12.689  24.599  11.511
29513W        W89258  10.188  30.149  13.850
29514W        W89259  15.091  10.874   2.812
29515W        W89260  16.630   0.922   2.337
29516W        W89261   8.240   4.286   0.949
29517W        W89262  13.817  44.842  12.358
29518W        W89263  33.395   1.394   2.278
29519W        W89264  37.359  21.691  13.895
29520W        W89265  25.637  29.525  13.035
29521W        W89266   1.417  10.728   1.289
29522W        W89267   6.312  42.491  13.966
29523W        W89268  35.393  38.326  12.482
29524W        W89269  11.652  10.768   2.196
29525W        W89270   7.777  41.894   2.320
29526W        W89271  12.647  32.040  12.457
29527W        W89272  41.425  17.651   0.812
29528W        W89273   6.742   6.864  12.492
29529W        W89274   6.200  30.037   2.327
29530W        W89275   2.236  42.381  12.838
29531W        W89276  13.612   7.358   0.892
29532W        W89277  42.370   7.266   2.339
29533W        W89278  29.668  39.046  12.907
29534W        W89279  19.571  36.385  12.829
29535W        W89280  35.072  12.796  11.595
29536W        W89281  30.931   5.859   2.831
29537W        W89282  39.392  15.250  11.401
29538W        W89283   0.387  40.870  13.805
29539W        W89284  37.366  27.999   3.849
29540W        W89285  26.140  20.237  12.893
29541W        W89286  28.620   8.661  13.796
29542W        W89287  40.508  38.441   0.909
29543W        W89288  28.059   2.407   3.216
29544W        W89289  41.891   7.295  14.291
29545W        W89290  17.673   6.823  12.950
29546W        W89291  40.012  27.589  14.397
29547W        W89292  39.056  31.104   0.364
29548W        W89293  29.655  34.458  10.074
29549W        W89294  29.461  25.493  13.807
29550W        W89295   0.294  19.258   0.950
29551W        W89296   1.315  40.418  12.424
29552W        W89297   7.911  32.629  11.606
29553W        W89298   4.714  22.168  10.641
29554W        W89299   6.718   7.177   0.878
29555W        W89300  33.501  44.010  10.021
29556W        W89301   1.329  39.929  11.394
29557W        W89302  18.745  44.781  12.389
29558W        W89303  21.556  12.264   0.309
29559W        W89304  15.684  29.958  13.373
29560W        W89305   9.386  19.224   1.419
29561W        W89306  43.297  14.208   2.708
29562W        W89307  33.976  25.650   0.823
29563W        W89308  22.118   3.722   5.200
29564W        W89309  37.922   5.299   0.900
29565W        W89310  13.222  42.395  13.328
29566W        W89311  19.741   9.260  11.400
29567W        W89312  39.495  12.850   2.807
29568W        W89313  10.761  38.337  11.944
29569W        W89314   1.881  23.025  12.340
29570W        W89315  20.251  42.493   1.388
29571W        W89316   4.320  42.945  14.779
29572W        W89317  25.711  26.555   2.282
29573W        W89318  30.934   7.262   1.750
29574W        W89319  33.510  41.379   0.907
29575W        W89320   2.817  26.129  14.858
29576W        W89321  11.827   7.669  14.382
29577W        W89322  42.972   1.247   4.727
29578W        W89323   0.860  12.150   1.353
29579W        W89324  14.222  40.964   0.458
29580W        W89325  12.752  17.708   4.656
29581W        W89326  28.634  23.105   4.172
29582W        W89327  39.824  40.305  14.337
29583W        W89328   8.788  31.112   2.206
29584W        W89329  40.445   9.812   1.744
29585W        W89330   9.680  10.265   1.308
29586W        W89331  41.956  11.223   1.242
29587W        W89332  19.767  22.672   2.855
29588W        W89333  26.042  30.466   3.351
29589W        W89334   1.241  29.573  14.470
29590W        W89335  32.973   6.235  10.617
29591W        W89336  10.796   9.378  14.952
29592W        W89337  43.879  24.712   2.704
29593W        W89338  21.513  12.144  14.767
29594W        W89339   0.781   4.326  14.344
29595W        W89340  19.655  21.247   4.296
29596W        W89341  18.208  36.377   2.341
29597W        W89342  22.633  11.700   5.129
29598W        W89343   5.366  22.717  11.378
29599W        W89344  40.499  28.127   3.254
29600W        W89345   1.802  22.698   3.689
29601W        W89346  26.640  30.510   0.364
29602W        W89347  35.484  28.031  13.427
29603W        W89348  35.509  15.815  13.408
29604W        W89349  43.442  33.963  14.415
29605W        W89350  14.109  29.056   3.156
29606W        W89351  12.774  26.670   2.398
29607W        W89352  22.738  19.696  12.426
29608W        W89353  15.282  41.446  11.058
29609W        W89354  14.125  34.044   0.470
29610W        W89355   6.704  16.720   4.703
29611W        W89356   9.844  17.675   0.430
29612W        W89357  19.700  26.985  11.091
29613W        W89358  28.534   2.911  14.010
29614W        W89359  23.607  13.301  11.413
29615W        W89360  24.523  41.372  12.858
29616W        W89361  26.461  15.098   2.256
29617W        W89362   7.366  25.658   3.810
29618W        W89363  23.005  22.697   0.364
29619W        W89364  12.361  24.708   3.696
29620W        W89365  17.255  38.347   1.879
29621W        W89366  18.791  23.150   4.700
29622W        W89367  25.028   5.836   0.744
29623W        W89368   9.297  15.167   0.356
29624W        W89369  11.154   7.280   2.320
29625W        W89370  36.087  22.665  13.004
29626W        W89371  33.093   3.283   0.262
29627W        W89372   3.423  43.310  14.373
29628W        W89373  35.067  12.795  14.488
29629W        W89374   6.256  38.950   2.331
29630W        W89375  18.727  22.070   2.672
29631W        W89376   0.822  35.893   1.705
29632W        W89377  44.323  42.486   5.267
29633W        W89378  26.039   5.206   4.598
29634W        W89379  26.040  31.536   3.722
29635W        W89380   5.421  10.372   4.834
29636W        W89381  34.039  11.172   1.862
29637W        W89382  22.681  13.181  14.891
29638W        W89383  33.449   7.780   2.349
29639W        W89384   6.274  18.643  14.501
29640W        W89385  30.604  10.159  13.962
29641W        W89386  22.547  17.211   3.177
29642W        W89387  28.570  35.983   2.184
29643W        W89388  39.546  31.574  10.951
29644W        W89389  31.124  10.680   0.923
29645W        W89390  24.160  29.623  12.561
29646W        W89391  12.312   0.369   0.298
29647W        W89392   3.892  22.715   2.344
29648W        W89393  25.198  36.348   5.121
29649W        W89394  21.681  44.403  12.438
29650W        W89395  24.163  42.016  12.849
29651W        W89396  30.943  32.538  14.490
29652W        W89397   4.288  38.370  11.114
29653W        W89398  42.823  33.939   1.895
29654W        W89399  21.219  24.632  13.042
29655W        W89400   2.254  39.962   2.880
29656W        W89401  15.267  44.424   4.314
29657W        W89402  43.472  25.616   4.258
29658W        W89403  33.943  27.558  12.876
29659W        W89404  23.581  13.787   3.711
29660W        W89405  30.059  27.163  11.387
29661W        W89406   6.837  43.337  11.072
29662W        W89407  39.890  12.689  11.549
29663W        W89408  44.990   8.779   2.197
29664W        W89409   7.861  17.680   4.671
29665W        W89410   6.753  44.279   3.744
29666W        W89411   5.811   5.756   4.290
29667W        W89412   4.367  41.862  11.556
29668W        W89413  34.890   4.370  14.337
29669W        W89414   9.841  28.962  14.494
29670W        W89415  24.597  15.215   9.567
29671W        W89416  20.740  26.644  12.451
29672W        W89417   3.804  39.428   1.422
29673W        W89418  42.814  29.480   2.341
29674W        W89419   6.814   4.824  11.559
29675W        W89420   9.805  29.094   1.759
29676W        W89421  43.491   0.337   2.810
29677W        W89422  44.399   2.311   0.367
29678W        W89423  31.950  18.283  11.087
29679W        W89424   1.868  20.119   4.338
29680W        W89425  26.570  36.462  11.085
29681W        W89426   6.753  14.183  10.461
29682W        W89427  23.512   1.477  11.030
29683W        W89428  33.006  18.161   2.311
29684W        W89429   3.325  16.114   0.376
29685W        W89430  12.336  43.460  10.907
29686W        W89431  17.131  41.382  12.409
29687W        W89432  29.011  38.910   4.622
29688W        W89433  32.989  28.138   0.375
29689W        W89434  24.716   3.232   4.783
29690W        W89435  32.923  37.931   3.780
29691W        W89436  29.495  16.092  14.819
29692W        W89437   0.778   5.349   1.272
29693W        W89438  40.948  44.869  13.365
29694W        W89439  29.648  28.606  14.434
29695W        W89440   8.893   7.391  13.482
29696W        W89441  27.118  32.908  11.448
29697W        W89442  21.720  18.687  10.589
29698W        W89443  35.043  28.584   1.369
29699W        W89444  14.215  34.454  11.115
29700W        W89445  29.556   6.689  11.061
29701W        W89446  40.524   5.317   1.863
29702W        W89447  26.668  32.618   2.820
29703W        W89448  11.279  27.174  11.090
29704W        W89449  25.994  33.117  12.901
29705W        W89450  42.945  41.029  12.446
29706W        W89451  26.512  28.459  12.874
29707W        W89452   0.470  19.103  10.016
29708W        W89453  16.100   6.378  14.995
29709W        W89454  16.699  12.211   0.755
29710W        W89455  44.843  26.675  11.378
29711W        W89456  18.609  39.809  12.081
29712W        W89457  41.906  24.708  10.897
29713W        W89458  14.628  36.913   0.854
29714W        W89459  23.614  20.722  13.886
29715W        W89460   1.380  23.051  13.547
29716W        W89461  36.480   3.831   0.326
29717W        W89462  16.712  25.706   0.747
29718W        W89463  37.473  20.562  14.375
29719W        W89464  14.668  36.466   1.301
29720W        W89465  38.456   4.885   2.328
29721W        W89466  16.249  34.437   2.706
29722W        W89467   5.707  29.602   4.751
29723W        W89468  40.409  23.594   2.778
29724W        W89469   0.413  14.695  14.892
29725W        W89470  41.806  41.404   3.319
29726W        W89471  20.070   3.922  10.474
29727W        W89472  29.632  21.530   3.663
29728W        W89473  43.281  12.193   0.449
29729W        W89474  27.977  19.747   1.768
29730W        W89475  37.417  20.230  13.063
29731W        W89476  22.721  32.925  13.491
29732W        W89477  33.881  15.801  10.489
29733W        W89478  32.082  13.199   4.133
29734W        W89479  27.676  32.073   1.420
29735W        W89480  35.548  24.005   3.825
29736W        W89481  12.228  14.833  13.390
29737W        W89482  14.813  27.621   2.896
29738W        W89483  22.147  29.008   0.382
29739W        W89484   3.817   6.311  12.090
29740W        W89485   7.204  16.245  11.035
29741W        W89486  15.803   6.256   1.715
29742W        W89487  17.675  31.994  13.027
29743W        W89488   2.874  36.393   2.703
29744W        W89489  12.152  13.684  12.545
29745W        W89490   0.396  35.595  13.034
29746W        W89491  21.639  25.165  10.596
29747W        W89492  16.220  11.177   3.721
29748W        W89493  36.447  16.223   4.173
29749W        W89494  36.435  10.777  13.842
29750W        W89495  10.697   6.232  12.069
29751W        W89496  44.767  30.153   3.361
29752W        W89497  18.684  39.008   2.704
29753W        W89498  30.610   1.481  11.015
29754W        W89499  39.342  22.014  12.980
29755W        W89500   5.342  16.784   0.459
29756W        W89501  16.614   8.833   2.351
29757W        W89502  24.567   4.915   2.394
29758W        W89503   9.319  16.630   3.852
29759W        W89504  41.305  37.561   5.155
29760W        W89505   8.835  43.385  12.949
29761W        W89506  24.981   7.907  12.576
29762W        W89507  32.085  15.122  14.312
29763W        W89508  15.654   4.773  12.346
29764W        W89509  24.547  43.984   3.282
29765W        W89510   0.494  26.146  14.810
29766W        W89511  33.602  11.642  11.506
29767W        W89512   4.318  40.325  12.865
29768W        W89513  17.232  29.477  11.892
29769W        W89514  34.026  15.745  13.471
29770W        W89515  12.654  34.432  13.486
29771W        W89516  43.342  37.362  10.561
29772W        W89517  30.111  32.565  11.086
29773W        W89518  39.544  27.974   3.335
29774W        W89519   5.380  29.531  11.542
29775W        W89520   2.464  11.353   4.253
29776W        W89521   7.330  13.194   3.199
29777W        W89522   3.229  29.086   1.245
29778W        W89523  13.280  18.743   3.809
29779W        W89524  24.692  38.005   4.345
29780W        W89525  33.450  16.171   1.248
29781W        W89526  43.022   0.979   0.943
29782W        W89527  18.117  10.272   1.353
29783W        W89528  42.351  17.645  13.885
29784W        W89529   0.260  11.744   3.255
29785W        W89530   4.385  38.406   9.521
29786W        W89531   8.283  15.605  13.938
29787W        W89532   1.904  11.240   2.251
29788W        W89533  37.917   5.414   1.877
29789W        W89534  14.142  16.222   1.222
29790W        W89535  27.655  39.005   2.769
29791W        W89536  11.307  27.539  10.934
29792W        W89537  27.065  25.524  11.483
29793W        W89538  13.219  13.226   2.719
29794W        W89539  26.134  11.355  10.502
29795W        W89540  23.228   7.189  14.844
29796W        W89541  38.913   1.970  14.917
29797W        W89542  14.304   1.788  11.539
29798W        W89543  13.127   7.747   1.772
29799W        W89544  41.491  39.861   4.814
29800W        W89545  13.756  35.023   0.262
29801W        W89546   4.386  23.596  14.470
29802W        W89547  12.178   7.281   1.277
29803W        W89548  42.488  15.326  14.324
29804W        W89549  14.711  22.592   2.240
29805W        W89550  42.355  15.602   1.219
29806W        W89551  23.591  11.621   3.275
29807W        W89552  27.569  22.129  14.498
29808W        W89553   7.685  33.610  14.486
29809W        W89554  13.805   6.896  12.019
29810W        W89555  26.641  33.949  14.399
29811W        W89556  14.269  25.593   0.740
29812W        W89557  44.454   5.273  12.870
29813W        W89558  16.114   2.831   4.831
29814W        W89559  15.124  16.636  12.094
29815W        W89560   9.237  19.562   0.784
29816W        W89561  37.876  22.536   2.365
29817W        W89562  12.304  22.531  12.882
29818W        W89563  39.886  23.152  13.896
29819W        W89564   6.342   8.371  12.530
29820W        W89565  12.806  35.050  13.986
29821W        W89566  28.568  28.657  14.893
29822W        W89567  11.217  14.834  12.427
29823W        W89568  39.993  30.125   4.613
29824W        W89569  32.090  34.406   0.912
29825W        W89570  16.778   4.325  12.898
29826W        W89571  44.444   1.894  14.945
29827W        W89572  44.916  37.982   0.895
29828W        W89573  11.214  32.976   9.559
29829W        W89574  30.149   5.722   3.199
29830W        W89575  28.139  39.483   4.120
29831W        W89576  12.261  12.699   3.759
29832W        W89577  23.228   0.971   5.283
29833W        W89578   7.896  42.028  12.522
29834W        W89579  17.801  44.270  10.576
29835W        W89580  40.031   1.242  13.952
29836W        W89581  26.114  14.754   0.961
29837W        W89582   2.435   4.301   4.759
29838W        W89583  15.760   4.761   3.677
29839W        W89584  10.242  38.379   0.912
29840W        W89585  24.555  42.446   3.691
29841W        W89586  29.643   6.711   3.679
29842W        W89587   0.913  11.724   0.769
29843W        W89588  20.266  25.610   0.356
29844W        W89589  18.658   1.474  12.423
29845W        W89590  15.713  20.658  14.367
29846W        W89591  42.855   4.350   4.661
29847W        W89592  43.325  31.622  12.945
29848W        W89593  42.363  19.084   0.933
29849W        W89594  20.712   8.165  10.919
29850W        W89595   7.695  44.865   2.889
29851W        W89596  25.033   9.263   4.745
29852W        W89597  25.618  37.394  11.076
29853W        W89598  21.132  37.452   4.314
29854W        W89599  33.385  30.088   1.924
29855W        W89600   5.835  19.743  10.559
29856W        W89601  23.550  19.644   0.258
29857W        W89602  15.616  41.805   4.260
29858W        W89603  17.627  13.831  14.432
29859W        W89604  36.924  23.509   0.425
29860W        W89605  35.046  36.366   4.351
29861W        W89606  10.796  36.882  11.464
29862W        W89607  19.641  12.674   3.301
29863W        W89608  23.621  30.626   9.436
29864W        W89609   6.231  10.694   3.302
29865W        W89610  38.512  35.051  11.007
29866W        W89611  39.548  31.152  13.818
29867W        W89612   2.228   3.803   0.340
29868W        W89613  22.167  10.657  13.508
29869W        W89614  34.084   6.192  12.536
29870W        W89615   9.752  22.740  14.995
29871W        W89616  22.531  32.984  10.570
29872W        W89617  35.104  38.497  13.424
29873W        W89618  12.788  16.751  12.478
29874W        W89619  38.442   5.227  13.044
29875W        W89620   4.911  23.529   2.235
29876W        W89621  12.800  24.080   0.386
29877W        W89622  18.205  14.613  12.509
29878W        W89623  35.367   3.740   2.271
29879W        W89624  19.099   5.821   4.631
29880W        W89625   5.360  31.970   1.703
29881W        W89626   1.403  44.434   4.188
29882W        W89627  33.028  30.931  13.458
29883W        W89628  21.211  35.023   5.317
29884W        W89629  13.840  26.472  12.525
29885W        W89630   9.188  20.733  14.418
29886W        W89631   8.841  10.873   0.906
29887W        W89632  35.371  41.806  11.932
29888W        W89633  25.569  40.040  14.354
29889W        W89634  32.635  10.747  11.063
29890W        W89635   3.883  18.692  12.829
29891W        W89636  10.724  17.679   4.692
29892W        W89637  34.398  34.600   2.763
29893W        W89638   2.263  32.053  11.967
29894W        W89639   0.442  27.480   9.989
29895W        W89640  18.139  18.178   1.816
29896W        W89641  19.582   1.428   3.378
29897W        W89642   5.291   5.841  10.971
29898W        W89643  34.531  43.331   0.450
29899W        W89644  14.693  28.041   1.888
29900W        W89645  24.527  19.633   3.662
29901W        W89646  25.572   7.682  11.517
29902W        W89647  11.166  36.906  10.609
29903W        W89648  38.956   5.853  13.979
29904W        W89649  41.456  21.666   2.703
29905W        W89650   9.288  38.929   3.331
29906W        W89651  11.674   0.897  10.123
29907W        W89652  42.447  39.000  12.355
29908W        W89653  18.241   8.667  10.950
29909W        W89654  21.644  19.680  11.554
29910W        W89655  27.123  28.096   3.750
29911W        W89656   1.881   5.783   4.350
29912W        W89657  39.908  39.007   9.933
29913W        W89658  36.058  12.196  13.006
29914W        W89659   1.755  19.184   4.233
29915W        W89660  10.727  19.776  10.444
29916W        W89661  32.962  27.100   1.744
29917W        W89662  10.181  42.431  13.335
29918W        W89663   8.727  18.226  14.329
29919W        W89664  41.473  10.841  10.953
29920W        W89665  18.702  42.509   4.833
29921W        W89666  37.905  16.568  13.504
29922W        W89667   3.811  23.531   4.338
29923W        W89668  33.917  35.576   1.821
29924W        W89669  44.833   1.270   2.365
29925W        W89670   7.333  27.640   1.810
29926W        W89671   4.779  27.170   2.350
29927W        W89672   1.305   0.372  12.446
29928W        W89673  25.580  34.905  14.833
29929W        W89674  40.901  15.672   1.230
29930W        W89675  34.047  44.847  11.086
29931W        W89676  24.069  12.674  14.515
29932W        W89677  35.884  17.188   0.920
29933W        W89678  16.269  16.625   3.813
29934W        W89679   0.396   3.234   1.422
29935W        W89680  37.436  42.384   1.773
29936W        W89681  13.802  41.465  11.999
29937W        W89682   7.278  37.440   4.123
29938W        W89683   6.237   5.736   1.701
29939W        W89684  37.423   7.377  12.058
29940W        W89685  44.449  17.291   2.825
29941W        W89686  32.997  20.575   3.652
29942W        W89687   8.232  21.604  12.048
29943W        W89688  42.936  19.168  13.011
29944W        W89689  41.963  16.794   0.736
29945W        W89690  16.294  12.238   3.321
29946W        W89691  16.716   9.763  10.494
29947W        W89692  35.046   3.412   3.171
29948W        W89693   9.222  26.084   3.177
29949W        W89694  32.571  16.292  10.476
29950W        W89695  33.112  10.680   3.759
29951W        W89696  24.097   1.350   5.198
29952W        W89697  30.656  19.569   2.861
29953W        W89698  33.508   8.833  14.458
29954W        W89699  35.905  44.391   2.836
29955W        W89700  15.669  41.000  13.501
29956W        W89701  23.014  15.734   3.269
29957W        W89702  18.110   2.356   2.201
29958W        W89703  28.626   2.258  11.598
29959W        W89704  33.037   6.765   3.774
29960W        W89705  34.409   3.869  11.093
29961W        W89706  26.540   2.802   2.203
29962W        W89707   2.267   7.361   3.216
29963W        W89708  28.459   8.251  13.471
29964W        W89709   3.725  10.770  10.896
29965W        W89710   1.855  19.566  11.924
29966W        W89711   3.326  31.421   4.681
29967W        W89712  29.056  20.614   4.838
29968W        W89713  15.691  27.499   0.403
29969W        W89714   4.708  23.099   1.705
29970W        W89715  39.848   8.881   3.741
29971W        W89716  15.181  12.262   4.744
29972W        W89717  24.643  35.456  13.864
29973W        W89718   8.838  20.125   3.661
29974W        W89719  29.555  41.511   1.786
29975W        W89720  29.012  30.619   3.304
29976W        W89721   9.388  41.998   1.381
29977W        W89722   2.417   4.877  12.079
29978W        W89723  31.094   6.359  12.393
29979W        W89724  42.491  37.544   3.324
29980W        W89725   4.902  40.045  14.907
29981W        W89726   4.868  41.874  11.117
29982W        W89727  36.915  24.046   2.397
29983W        W89728  15.688  10.743   4.754
29984W        W89729  35.518  26.150  10.429
29985W        W89730  32.125  13.845  13.440
29986W        W89731   3.773  16.196   2.837
29987W        W89732  12.343  23.023   3.155
29988W        W89733  29.613  23.697   5.166
29989W        W89734   6.844  43.846   0.254
29990W        W89735   6.214  14.625  14.326
29991W        W89736   0.365  15.616   1.425
29992W        W89737  22.202  31.102   9.506
29993W        W89738  42.830   1.917  14.780
29994W        W89739  13.317  14.755   4.140
29995W        W89740  28.167   1.809  10.586
29996W        W89741  13.621   7.886   3.695
29997W        W89742  33.570  34.029  12.982
29998W        W89743   9.801  30.966   2.801
29999W        W89744  21.167  29.600  14.982
30000W        W89745  26.028  20.053   3.788
30001W        W89746  27.982  13.744   2.359
30002W        W89747   6.206  15.821   3.316
30003W        W89748  44.320  19.238  10.582
30004W        W89749  37.067  11.182   4.724
30005W        W89750   4.885  26.984   4.260
30006W        W89751  16.696  36.934   3.689
30007W        W89752  43.284  13.213   0.287
30008W        W89753   6.218  27.973   3.854
30009W        W89754   0.377  43.872  10.554
30010W        W89755   0.832  28.655   2.878
30011W        W89756   4.796   2.730   0.803
30012W        W89757  22.593  21.259   4.796
30013W        W89758  38.384  44.925  10.457
30014W        W89759  40.483  23.103   0.786
30015W        W89760  43.366   4.942  11.536
30016W        W89761  21.068  13.699  14.886
30017W        W89762  43.991  11.792  13.401
30018W        W89763  37.469  14.593  11.470
30019W        W89764  39.877  30.515   2.395
30020W        W89765  27.602  42.423   0.299
30021W        W89766   1.465   8.233   0.256
30022W        W89767  18.116  19.185   0.887
30023W        W89768   6.283  14.161   2.210
30024W        W89769  35.867  23.722   3.184
30025W        W89770  14.240  38.482  12.895
30026W        W89771   2.743  33.094   1.430
30027W        W89772  20.070  36.013   3.723
30028W        W89773   5.338   7.734  10.495
30029W        W89774  38.453  24.077  10.491
30030W        W89775  41.440  14.180   4.738
30031W        W89776  20.216   3.363   1.695
30032W        W89777  13.769   0.945  12.050
30033W        W89778  12.251  22.160  14.869
30034W        W89779  33.503  24.981   4.673
30035W        W89780  24.227  16.079  13.980
30036W        W89781  16.732  15.098   1.730
30037W        W89782  12.120   7.225  14.000
30038W        W89783  40.854   4.243   1.749
30039W        W89784  20.632  43.772   4.731
30040W        W89785  40.805  19.659   4.793
30041W        W89786  33.907  11.136  13.890
30042W        W89787  22.741  11.625   3.356
30043W        W89788  15.635  27.590   4.254
30044W        W89789  13.805  41.791   3.765
30045W        W89790  20.130   8.775  13.845
30046W        W89791  25.632   4.313  14.840
30047W        W89792  10.212   4.209  11.021
30048W        W89793  19.090  25.987  12.378
30049W        W89794   4.274   9.208   4.794
30050W        W89795  41.858  36.482   1.238
30051W        W89796   5.691  32.921  14.514
30052W        W89797  13.697  12.351   4.604
30053W        W89798  12.184  12.755  13.453
30054W        W89799  29.148  29.108  13.452
30055W        W89800  29.440   6.710  13.465
30056W        W89801  40.991  38.357   4.760
30057W        W89802   6.259   9.201  12.932
30058W        W89803   5.792  43.371   1.898
30059W        W89804  40.930   4.711  12.516
30060W        W89805  15.650   1.391   0.907
30061W        W89806   1.898  27.197   2.409
30062W        W89807  17.241  33.992  13.038
30063W        W89808  39.822  27.644   0.442
30064W        W89809  33.050  40.872  12.535
30065W        W89810   6.285  21.539  13.974
30066W        W89811  26.579  10.154   1.356
30067W        W89812   0.472  30.484  13.879
30068W        W89813  25.159  22.121  11.864
30069W        W89814   9.771   8.213   3.146
30070W        W89815  16.208  29.160   5.178
30071W        W89816  39.959   1.362  10.626
30072W        W89817   9.699  33.518   1.726
30073W        W89818  36.386  34.430  14.777
30074W        W89819   6.813   4.391  14.903
30075W        W89820  42.352  30.569  14.337
30076W        W89821   2.959  30.583  11.115
30077W        W89822   1.280  16.318   1.418
30078W        W89823  31.105   6.871   2.735
30079W        W89824  39.960   2.389  11.047
30080W        W89825  21.545  42.856   5.168
30081W        W89826  17.142  15.784  14.861
30082W        W89827  25.157   7.257   2.838
30083W        W89828  29.520  43.973  13.456
30084W        W89829  38.906   0.758  12.050
30085W        W89830  24.545  38.845   0.309
30086W        W89831   1.348   8.671  10.556
30087W        W89832   5.195  28.172   3.844
30088W        W89833   1.282  37.524   2.407
30089W        W89834   1.977  11.250  12.958
30090W        W89835  21.675  33.939  11.444
30091W        W89836   7.414   4.408   1.712
30092W        W89837  17.614   9.677   0.767
30093W        W89838   5.409  39.036   0.481
30094W        W89839  21.083  18.278   4.821
30095W        W89840  31.552  27.484   2.775
30096W        W89841  12.320  23.650   2.303
30097W        W89842   4.254   1.432   1.903
30098W        W89843  27.684  18.679  12.941
30099W        W89844  40.931  14.668  14.947
30100W        W89845  38.073   7.229  13.861
30101W        W89846  14.197  41.340   0.739
30102W        W89847  27.158  38.415  12.552
30103W        W89848   7.728  18.270   1.891
30104W        W89849  41.003  33.515  14.289
30105W        W89850   1.475  18.276  14.371
30106W        W89851  31.075   2.934  14.991
30107W        W89852  40.535   3.899  13.416
30108W        W89853  23.184  15.138  12.845
30109W        W89854   4.351  26.980  13.831
30110W        W89855  21.072  32.588  11.035
30111W        W89856  16.310   0.891   2.277
30112W        W89857  26.016  37.558   4.716
30113W        W89858  23.999  38.986   3.213
30114W        W89859  16.624  18.665  14.956
30115W        W89860  19.250  36.080  14.407
30116W        W89861  37.002  31.618  13.347
30117W        W89862  39.923  18.281  14.382
30118W        W89863  38.467  29.489   3.769
30119W        W89864  31.625  44.834   0.757
30120W        W89865  26.654  18.565   5.275
30121W        W89866  26.530  11.325  12.499
30122W        W89867  22.738  24.001   0.411
30123W        W89868  38.927  31.071   3.239
30124W        W89869  26.985  39.471   3.154
30125W        W89870   7.849   6.224   4.824
30126W        W89871  32.442   5.340  12.983
30127W        W89872  26.123  23.012  14.829
30128W        W89873  36.859  24.497   4.186
30129W        W89874  28.050  24.621  10.952
30130W        W89875  27.561  17.297  12.003
30131W        W89876  38.552  21.260   1.275
30132W        W89877  22.109  44.875  10.107
30133W        W89878  41.966  32.602  11.930
30134W        W89879  16.143  39.948   2.419
30135W        W89880  28.556  19.665  13.818
30136W        W89881  14.171   9.870   2.838
30137W        W89882  18.177  41.371  11.066
30138W        W89883  42.817  29.631  10.591
30139W        W89884   4.854  28.105  13.521
30140W        W89885  21.572  22.534  12.524
30141W        W89886  25.553  28.615   0.246
30142W        W89887  35.014   3.738  14.333
30143W        W89888  29.581  10.343  13.045
30144W        W89889  39.821  33.893  10.512
30145W        W89890  31.087  15.724  11.532
30146W        W89891  16.122   5.336   0.881
30147W        W89892  17.673  23.040  14.842
30148W        W89893  13.729   3.248   1.444
30149W        W89894  31.065  27.959  14.871
30150W        W89895  30.564  16.807   4.223
30151W        W89896  18.550  15.709  10.528
30152W        W89897  23.527  16.259   0.249
30153W        W89898   2.365  32.068   3.219
30154W        W89899  26.971  18.549   4.620
30155W        W89900  11.731   9.330  14.883
30156W        W89901  31.979  31.922  13.332
30157W        W89902  40.448  36.924  10.515
30158W        W89903   6.795  10.186   1.275
30159W        W89904  17.103   8.866  13.465
30160W        W89905  25.475   4.245  12.389
30161W        W89906  19.164   5.694   3.703
30162W        W89907  13.768  25.070  14.824
30163W        W89908  32.078  11.684  12.853
30164W        W89909   2.882  23.101  11.999
30165W        W89910  16.127  43.893   3.339
30166W        W89911  39.560   2.898   0.781
30167W        W89912  34.454   4.226   5.118
30168W        W89913  28.497   8.164   4.212
30169W        W89914  10.336   4.235  12.897
30170W        W89915   8.887   4.366   1.400
30171W        W89916   2.941   0.795  11.877
30172W        W89917  18.190  20.652   0.750
30173W        W89918  11.151  20.567   0.889
30174W        W89919  29.435  12.275  13.875
30175W        W89920  12.832   6.311  13.458
30176W        W89921  37.467  27.644  13.811
30177W        W89922   5.221  11.744  14.425
30178W        W89923   2.879  30.625  10.582
30179W        W89924  12.202   4.850  13.842
30180W        W89925  35.405  38.865   0.321
30181W        W89926  25.991   1.912  14.832
30182W        W89927  15.211  21.141   2.848
30183W        W89928   7.792   5.750  13.431
30184W        W89929  28.996  32.974  13.479
30185W        W89930  37.888   5.894   0.451
30186W        W89931  40.931  40.351   0.323
30187W        W89932  21.205   9.737  12.972
30188W        W89933  15.314   3.765   4.618
30189W        W89934  12.132  25.508   4.123
30190W        W89935  21.563  38.850   0.299
30191W        W89936  39.468  18.114   1.211
30192W        W89937  10.199   7.174   0.417
30193W        W89938  26.629  27.020  12.872
30194W        W89939  18.278   5.694   3.272
30195W        W89940   4.930  16.640  13.983
30196W        W89941  25.592  42.508  13.792
30197W        W89942  25.000  35.072   0.417
30198W        W89943  18.672  13.279  10.960
30199W        W89944  40.855  15.302   1.859
30200W        W89945  21.658   2.453   4.270
30201W        W89946  40.839   0.930   2.414
30202W        W89947   4.800   7.394   0.428
30203W        W89948   0.349  29.474   2.840
30204W        W89949  24.537   5.834   1.375
30205W        W89950  12.250  22.008  11.446
30206W        W89951  11.237  14.195   3.648
30207W        W89952  29.067   2.763  14.030
30208W        W89953  34.507  20.123   3.330
30209W        W89954  15.146  42.803   3.223
30210W        W89955  34.930  15.300   3.757
30211W        W89956  17.076   2.872   0.427
30212W        W89957  17.280  44.411   2.203
30213W        W89958  18.253  16.682  12.571
30214W        W89959   0.844  34.375   4.305
30215W        W89960  17.690  18.282   0.351
30216W        W89961  22.635   2.346  11.994
30217W        W89962  28.483   2.382  14.960
30218W        W89963  33.898  30.100   0.925
30219W        W89964  41.320  24.549   0.396
30220W        W89965   9.244  41.999   3.803
30221W        W89966  19.234  30.470  12.841
30222W        W89967  42.503  32.935   1.931
30223W        W89968  39.881  19.599   3.831
30224W        W89969  36.483  19.181   0.751
30225W        W89970  14.229  25.554  13.399
30226W        W89971  32.493  37.442  12.521
30227W        W89972  23.669   1.468  14.505
30228W        W89973  31.443  24.059   2.835
30229W        W89974  18.755  11.721   4.237
30230W        W89975   0.844   4.431  14.888
30231W        W89976  28.036  40.949   1.401
30232W        W89977  17.127  44.371  13.423
30233W        W89978  18.717  31.902  11.966
30234W        W89979  24.995  21.044  14.905
30235W        W89980  29.957  29.653  14.926
30236W        W89981  33.610  15.214  12.561
30237W        W89982  14.762  16.665   2.273
30238W        W89983  26.047  16.164   4.681
30239W        W89984  35.973  31.909   2.331
30240W        W89985  36.955  24.622   3.353
30241W        W89986  36.885  31.055  12.051
30242W        W89987   3.954  13.174  13.393
30243W        W89988   8.303  39.327  11.995
30244W        W89989  18.606  17.624   1.383
30245W        W89990  32.439  27.187   1.220
30246W        W89991  12.214  22.139  10.902
30247W        W89992  14.331  14.282  13.467
30248W        W89993   3.825   4.918  12.398
30249W        W89994  28.540  33.967   0.844
30250W        W89995  25.061  27.165  13.039
30251W        W89996   4.867   7.356   2.844
30252W        W89997  41.869   2.739   2.202
30253W        W89998  22.745  29.665  12.393
30254W        W89999  37.959  32.496  13.492
30255W        W90000  33.024  13.625   0.956
30256W        W90001   0.925   7.412   1.816
30257W        W90002  40.366  25.662  13.020
30258W        W90003  36.371  15.192  14.912
30259W        W90004  12.612  28.151  12.519
30260W        W90005  16.106  24.012  14.319
30261W        W90006  12.715  37.908   0.444
30262W        W90007  20.649  27.069  14.869
30263W        W90008  37.954   2.385   0.335
30264W        W90009  31.538  25.164  13.939
30265W        W90010   1.250  16.567   9.608
30266W        W90011  29.635  31.016  14.847
30267W        W90012   5.842  23.214  11.478
30268W        W90013  26.043  14.275  12.523
30269W        W90014  34.963  38.549  14.989
30270W        W90015  36.045   1.271  12.523
30271W        W90016   5.242  24.011   4.707
30272W        W90017   8.719  22.069   2.391
30273W        W90018  36.573  20.274  10.432
30274W        W90019  34.044  41.325  10.628
30275W        W90020  35.942   7.905   0.273
30276W        W90021  39.541  12.351  11.941
30277W        W90022   6.193  14.697   3.377
30278W        W90023   8.699  16.621  13.515
30279W        W90024  16.279  35.063   0.962
30280W        W90025  15.099  19.778  13.063
30281W        W90026  31.592  34.576   2.403
30282W        W90027  17.696  34.394  10.637
30283W        W90028  27.618  32.543   4.130
30284W        W90029  42.805  30.120  14.282
30285W        W90030  20.530  42.879   0.253
30286W        W90031  26.462   1.411  14.450
30287W        W90032  35.364  16.749  12.967
30288W        W90033  19.710  43.277   3.795
30289W        W90034  19.700  35.931  11.001
30290W        W90035  19.244   3.814  13.500
30291W        W90036  41.487   0.271   3.194
30292W        W90037  28.580   2.348  12.095
30293W        W90038  31.929  14.610  11.399
30294W        W90039   4.355  41.922  13.439
30295W        W90040  43.413  12.333  11.405
30296W        W90041   6.761  30.505  14.399
30297W        W90042  24.210  42.814   0.375
30298W        W90043   2.796  11.262   3.756
30299W        W90044  26.054  24.999   1.282
30300W        W90045  12.280  10.296  12.853
30301W        W90046  25.105   4.876   0.747
30302W        W90047  16.743   6.363  10.960
30303W        W90048  33.471   7.202  11.911
30304W        W90049   9.700  34.483   2.818
30305W        W90050  27.597  23.065  13.965
30306W        W90051  28.068  24.505  10.443
30307W        W90052  26.477   7.369  12.555
30308W        W90053  26.483  43.338   2.712
30309W        W90054   2.464  25.610   1.259
30310W        W90055  17.664  37.425   2.787
30311W        W90056  10.244  18.270   0.328
30312W        W90057   6.361  26.202   4.321
30313W        W90058  31.488  16.710   1.307
30314W        W90059  17.797  16.299   3.287
30315W        W90060  18.241  15.128  11.080
30316W        W90061  40.991  39.356  14.440
30317W        W90062   9.670   3.378  11.508
30318W        W90063  11.351  42.409  13.864
30319W        W90064  23.173  14.816  12.501
30320W        W90065  26.611  42.368   0.282
30321W        W90066  17.097   6.772   4.176
30322W        W90067  17.729   9.392  14.026
30323W        W90068  40.915  33.483  13.427
30324W        W90069  19.582  17.747   4.257
30325W        W90070  14.611  16.294  14.986
30326W        W90071   7.391  19.127   2.753
30327W        W90072  11.290  30.413   3.276
30328W        W90073  36.948  15.628  14.362
30329W        W90074  43.504  25.010   0.381
30330W        W90075  25.648  14.314  12.562
30331W        W90076  23.238   5.914   0.736
30332W        W90077  30.098  24.015   0.326
30333W        W90078  36.017  19.248   4.688
30334W        W90079  40.952  22.150  13.948
30335W        W90080  13.212  27.969  13.810
30336W        W90081  39.946  29.138   2.835
30337W        W90082  21.037  19.777   4.333
30338W        W90083  38.518  26.021   4.263
30339W        W90084  21.112  10.342  14.767
30340W        W90085  17.679  26.112  11.034
30341W        W90086  10.751  19.052  12.426
30342W        W90087  20.041  43.422   1.776
30343W        W90088  36.364  35.989   3.710
30344W        W90089  18.218   9.286   3.379
30345W        W90090  26.595  27.001  13.332
30346W        W90091  28.124  44.360   4.775
30347W        W90092  44.311  32.417  13.896
30348W        W90093  28.477  43.336   3.339
30349W        W90094   4.859  38.382   2.363
30350W        W90095   6.739  31.082   3.312
30351W        W90096  11.820  23.728  14.405
30352W        W90097  32.102   0.806  13.932
30353W        W90098  22.728   6.843   1.251
30354W        W90099  28.531  27.008   1.798
30355W        W90100  14.172   0.444   2.852
30356W        W90101  24.709  34.050   3.348
30357W        W90102  14.593  34.971   1.426
30358W        W90103  19.702  29.502   3.202
30359W        W90104   9.260   0.896   2.805
30360W        W90105  37.381   6.834  13.928
30361W        W90106  29.008  23.593  11.056
30362W        W90107  42.892  10.203  14.276
30363W        W90108  15.106   0.953   4.795
30364W        W90109  35.029  43.288  12.370
30365W        W90110  41.937  26.590   3.633
30366W        W90111  33.952  37.046   1.317
30367W        W90112  13.260  13.614  11.057
30368W        W90113  23.580  11.134   4.293
30369W        W90114  18.666  25.522  11.077
30370W        W90115  26.017   7.348   2.719
30371W        W90116  32.565  11.822  13.823
30372W        W90117  11.158  23.693  11.952
30373W        W90118   0.926  20.703  11.957
30374W        W90119  35.574  11.671   2.372
30375W        W90120  40.356  13.805   0.747
30376W        W90121  28.498  39.447  10.542
30377W        W90122  32.426   7.878   9.957
30378W        W90123  35.440   7.307  11.081
30379W        W90124  22.694  29.950  14.310
30380W        W90125  14.784  32.009   0.482
30381W        W90126  11.314  19.575   2.197
30382W        W90127   6.708  16.092   2.896
30383W        W90128  18.062  15.109  10.518
30384W        W90129  20.586  30.153  10.421
30385W        W90130  15.686  43.482  12.459
30386W        W90131  28.998  19.244  10.160
30387W        W90132   8.288  21.120  14.765
30388W        W90133  24.566  25.064  12.478
30389W        W90134  10.301  24.066  12.480
30390W        W90135  15.671  20.078   1.286
30391W        W90136  35.901   2.900  14.887
30392W        W90137  25.213   9.222  14.288
30393W        W90138   0.272  24.160  10.582
30394W        W90139  30.132  39.810  11.495
30395W        W90140   3.878   4.807  12.071
30396W        W90141  43.330  25.071  14.490
30397W        W90142  12.129  13.826   2.191
30398W        W90143   5.335  29.594   1.335
30399W        W90144  11.370  43.491   3.225
30400W        W90145  21.529  23.193   1.820
30401W        W90146  16.573   1.761  13.004
30402W        W90147  12.846   3.855   2.856
30403W        W90148  10.334  16.268   1.222
30404W        W90149  10.233  44.328   0.843
30405W        W90150  24.195  13.638  14.326
30406W        W90151  12.773  18.295   3.199
30407W        W90152   6.410  38.877  10.018
30408W        W90153  18.629  29.523   2.244
30409W        W90154   0.455  41.468  12.989
30410W        W90155  41.947  37.478  12.064
30411W        W90156  28.185  38.391  13.394
30412W        W90157   5.747  18.070  10.960
30413W        W90158  21.758  39.448  11.389
30414W        W90159  22.167   7.398  13.030
30415W        W90160  13.150  26.590   5.162
30416W        W90161  16.586  11.666  11.606
30417W        W90162  12.825  22.218   0.809
30418W        W90163  17.582  21.178   1.833
30419W        W90164   6.882  29.159   4.671
30420W        W90165  22.508  34.901   4.810
30421W        W90166  27.026  35.574   1.224
30422W        W90167   8.213  28.598   3.637
30423W        W90168  39.903   2.447  11.544
30424W        W90169  10.845  26.090   1.430
30425W        W90170  26.546  27.571   4.709
30426W        W90171  31.573   6.872   2.193
30427W        W90172  10.790  30.007   2.353
30428W        W90173  37.896  37.062  11.470
30429W        W90174  22.571  25.022   3.713
30430W        W90175   4.419  14.605  13.964
30431W        W90176  33.582  27.982   3.326
30432W        W90177  29.555  33.932   2.822
30433W        W90178  38.482  37.832  10.567
30434W        W90179   1.375  17.636   2.206
30435W        W90180  30.558  40.938   0.257
30436W        W90181  35.868  39.978  13.046
30437W        W90182  34.078  40.839   0.906
30438W        W90183  16.754  27.520  12.501
30439W        W90184  19.066  21.096  11.937
30440W        W90185   4.822  32.975  12.893
30441W        W90186  25.648  44.956  11.393
30442W        W90187  21.227  10.636  14.485
30443W        W90188  42.289  38.043  14.493
30444W        W90189  29.655  20.691  10.119
30445W        W90190  10.754  17.169   3.346
30446W        W90191  15.121  35.862  13.064
30447W        W90192  41.341  39.901  13.843
30448W        W90193  25.703  34.604  11.389
30449W        W90194  39.964  42.919  13.886
30450W        W90195  22.149  37.385   2.187
30451W        W90196  33.480  30.092   9.535
30452W        W90197  20.752  13.730  12.025
30453W        W90198  13.736  22.628  13.415
30454W        W90199  37.900  25.162   1.292
30455W        W90200  34.594  34.903  11.542
30456W        W90201  22.512   9.861  10.632
30457W        W90202  23.519  28.054   2.758
30458W        W90203  34.014  12.726   3.720
30459W        W90204  18.160  19.624  13.333
30460W        W90205  26.010  41.336   4.207
30461W        W90206  12.753  37.356   2.762
30462W        W90207   1.245   2.892  11.090
30463W        W90208  43.005  27.630  10.062
30464W        W90209   5.764  35.099   1.439
30465W        W90210   0.330  35.952   9.519
30466W        W90211  28.474  23.000  14.410
30467W        W90212   5.375  19.143   0.860
30468W        W90213  23.030  30.009   4.224
30469W        W90214  24.076  32.074  14.366
30470W        W90215  21.658  34.044   2.196
30471W        W90216  32.486  21.101   1.808
30472W        W90217   9.217  43.981  12.564
30473W        W90218  33.968  40.025  13.879
30474W        W90219   4.790  14.269   3.667
30475W        W90220  40.324  36.027   1.372
30476W        W90221  17.099  39.530  12.000
30477W        W90222   7.831   6.280   1.441
30478W        W90223  35.453  22.635   3.697
30479W        W90224  11.252   6.826   3.314
30480W        W90225  24.028  25.696  11.041
30481W        W90226  19.774   2.806  13.027
30482W        W90227  26.967  11.697   3.742
30483W        W90228  17.305  33.559  10.540
30484W        W90229  21.685  33.606  14.461
30485W        W90230  28.644  35.509  14.778
30486W        W90231   3.836   3.873  10.478
30487W        W90232  37.515  27.009   1.296
30488W        W90233  17.130  22.564   3.181
30489W        W90234  43.406   4.795  10.470
30490W        W90235  31.597  43.436   2.341
30491W        W90236  34.555   6.856  12.509
30492W        W90237  35.856  18.639  12.437
30493W        W90238   9.156  15.325  12.919
30494W        W90239   1.473  11.624  14.977
30495W        W90240   6.707  42.857   1.744
30496W        W90241  31.919  12.224  11.586
30497W        W90242  13.323  39.848  14.385
30498W        W90243  43.775   2.263   0.321
30499W        W90244   1.398  15.145   3.645
30500W        W90245   0.412  28.568   5.226
30501W        W90246   5.753  42.963  10.625
30502W        W90247   2.315  27.067  10.965
30503W        W90248  28.593   2.727  12.967
30504W        W90249  24.641  30.119   1.429
30505W        W90250  42.804  19.103   1.824
30506W        W90251  33.878  22.244   5.692
30507W        W90252  23.648  22.217  13.394
30508W        W90253  25.140  40.350  11.407
30509W        W90254  20.236  27.607   2.674
30510W        W90255  39.846   0.955  11.386
30511W        W90256   1.446   1.874  10.941
30512W        W90257  29.083  28.558   4.818
30513W        W90258  31.521  11.139  13.484
30514W        W90259  19.719  35.376   4.200
30515W        W90260  30.998  21.153  11.007
30516W        W90261  30.412  12.735  14.368
30517W        W90262  29.537  25.091  10.411
30518W        W90263  34.890  21.047   1.419
30519W        W90264  17.295  28.173  14.914
30520W        W90265  26.158  43.798  13.354
30521W        W90266  17.232  34.068  12.519
30522W        W90267  40.804  24.136   4.256
30523W        W90268  44.830  22.191   4.619
30524W        W90269  43.891  15.589   1.892
30525W        W90270   3.404   8.197  10.892
30526W        W90271  44.406  23.671  11.608
30527W        W90272  21.081  44.374  13.372
30528W        W90273  19.676   3.394   3.225
30529W        W90274  30.959   9.807  10.530
30530W        W90275  17.619  16.764   4.147
30531W        W90276  32.469  37.924   0.915
30532W        W90277   1.348  20.676   4.655
30533W        W90278  36.450  30.556  10.985
30534W        W90279  27.468  10.146  13.440
30535W        W90280  30.947  31.609  11.598
30536W        W90281  27.453   0.419   2.199
30537W        W90282   9.678  43.349   3.735
30538W        W90283  12.661   4.414   2.371
30539W        W90284   1.758  43.476  13.523
30540W        W90285  44.815  16.211  14.957
30541W        W90286  32.543   2.228  13.849
30542W        W90287  32.931   7.718   1.882
30543W        W90288   6.892  34.871  14.857
30544W        W90289  11.771  36.403  12.547
30545W        W90290  22.590   7.242   0.777
30546W        W90291  44.943  16.770   3.374
30547W        W90292  14.235  33.553   4.768
30548W        W90293  16.118   6.335  14.450
30549W        W90294  36.439  16.086  14.771
30550W        W90295  13.294   0.930  12.040
30551W        W90296  18.241  13.325  11.513
30552W        W90297   7.326  42.909   1.805
30553W        W90298  20.576  42.499  14.015
30554W        W90299   0.267  43.334   2.720
30555W        W90300  35.032  14.832  14.825
30556W        W90301  26.015   9.334   0.731
30557W        W90302  10.285  10.677   0.454
30558W        W90303   9.276  33.436   2.812
30559W        W90304   6.903  29.093  11.491
30560W        W90305   9.314  13.344   0.409
30561W        W90306  17.145  37.013  12.995
30562W        W90307   4.360  20.540  14.801
30563W        W90308  20.597  19.556   4.699
30564W        W90309  13.235  23.526  10.445
30565W        W90310  23.725  13.738  13.954
30566W        W90311  26.079  27.096  14.333
30567W        W90312  13.168  36.038   3.184
30568W        W90313   8.742  39.430   3.351
30569W        W90314  21.111   3.925  13.994
30570W        W90315   8.856  25.675   0.307
30571W        W90316  20.205  10.800   1.314
30572W        W90317  36.923   6.349  12.845
30573W        W90318  13.676   7.338  12.870
30574W        W90319  41.003  20.165  11.453
30575W        W90320  20.070  24.058   4.704
30576W        W90321  36.526   3.306   5.230
30577W        W90322   1.295  44.499   4.639
30578W        W90323   6.263  41.361  14.922
30579W        W90324  31.633  11.209  10.534
30580W        W90325  11.143  35.484   0.876
30581W        W90326  21.729  31.581  12.478
30582W        W90327  29.591   2.426   4.316
30583W        W90328  43.014  11.250  11.421
30584W        W90329   8.166  37.932  14.882
30585W        W90330   8.258  24.581   0.461
30586W        W90331   7.818  14.672  13.311
30587W        W90332  13.650  44.355  10.103
30588W        W90333  23.132   4.448   1.911
30589W        W90334   8.743   6.687   3.153
30590W        W90335  31.113  34.411   1.440
30591W        W90336  12.625   0.962  11.019
30592W        W90337  32.896  24.129   1.716
30593W        W90338   0.863  11.767   2.306
30594W        W90339   7.806  29.019   1.911
30595W        W90340  41.024  37.874   4.208
30596W        W90341  16.308  39.347  12.458
30597W        W90342   6.873  42.452  14.800
30598W        W90343  35.586  29.590   2.717
30599W        W90344   3.348  25.064  14.828
30600W        W90345  11.366  32.551  12.978
30601W        W90346   2.947   7.307   3.251
30602W        W90347  30.515  32.941   2.345
30603W        W90348   7.745  32.592   3.861
30604W        W90349  39.342  20.736  13.492
30605W        W90350   2.760  29.161   5.715
30606W        W90351  40.829   7.677  10.989
30607W        W90352  35.066  21.630  14.978
30608W        W90353   8.769  19.128   2.737
30609W        W90354   4.249  21.100  10.942
30610W        W90355   1.807  34.919   3.857
30611W        W90356  26.485  21.535   0.741
30612W        W90357  21.242   4.249   5.710
30613W        W90358   1.796  19.730   2.698
30614W        W90359  43.782  18.288  14.934
30615W        W90360  25.156  36.001  14.782
30616W        W90361   6.264  41.001  14.398
30617W        W90362  27.532  44.935  13.859
30618W        W90363  44.308  16.623  12.472
30619W        W90364  43.478  12.795  11.909
30620W        W90365  22.613  11.748   1.265
30621W        W90366  21.092  18.766   0.265
30622W        W90367  43.987  33.517  12.530
30623W        W90368   0.248  32.630   2.836
30624W        W90369  44.866  44.322   1.822
30625W        W90370  37.426  25.150  12.917
30626W        W90371  24.193  22.190   1.888
30627W        W90372  10.181  12.299   2.393
30628W        W90373  35.933   3.316   0.879
30629W        W90374  32.477   9.862   0.404
30630W        W90375  31.011   2.835   9.639
30631W        W90376  17.307   6.218  12.060
30632W        W90377  18.635   1.897   0.933
30633W        W90378   4.318  39.376   1.400
30634W        W90379  26.528  32.989   0.325
30635W        W90380  11.165   0.931  12.362
30636W        W90381  22.571  40.015   4.679
30637W        W90382  16.625  29.469   0.345
30638W        W90383   3.302   4.429  13.908
30639W        W90384  19.070  22.708  13.046
30640W        W90385   1.330  16.737   3.261
30641W        W90386   5.330  14.589  14.394
30642W        W90387  33.432  17.144  14.803
30643W        W90388   6.194  34.940  14.298
30644W        W90389  18.665  10.208   5.289
30645W        W90390  29.090  14.166  12.937
30646W        W90391  25.588  18.762   2.376
30647W        W90392  42.343   3.931  11.478
30648W        W90393  34.420  18.770   2.796
30649W        W90394   7.319  19.077   3.236
30650W        W90395  33.901  37.848  10.464
30651W        W90396   2.823  30.432   0.304
30652W        W90397  18.764  13.224  13.384
30653W        W90398  13.139  29.582   4.143
30654W        W90399  22.663  42.976  12.889
30655W        W90400  43.016  28.441   1.922
30656W        W90401  17.609  29.644  13.993
30657W        W90402  25.662  21.693   0.301
30658W        W90403   9.297  14.812  14.856
30659W        W90404  28.668  13.754  12.455
30660W        W90405  19.100  27.464   2.419
30661W        W90406  12.854   5.775  11.547
30662W        W90407  30.056  30.643  14.009
30663W        W90408   4.813   3.231  14.437
30664W        W90409  15.226  42.406   4.830
30665W        W90410  11.739  35.435  14.461
30666W        W90411  35.554  16.206  11.927
30667W        W90412  10.313  21.663  14.817
30668W        W90413  38.519  14.770  11.526
30669W        W90414  38.483  27.134   1.702
30670W        W90415  35.856  26.167  14.281
30671W        W90416  37.429  26.034   4.284
30672W        W90417   4.786  36.571  14.482
30673W        W90418   9.757  32.128  11.463
30674W        W90419  17.150  12.309   0.780
30675W        W90420  28.139  30.483   2.235
30676W        W90421  12.750   8.407  10.941
30677W        W90422   8.367  13.831   4.643
30678W        W90423  34.870  26.615   4.193
30679W        W90424  11.791  21.017  14.430
30680W        W90425  25.175   3.790  14.295
30681W        W90426   6.782  37.416   0.842
30682W        W90427  27.974  40.986  10.981
30683W        W90428  28.475   2.396  14.349
30684W        W90429  33.387  39.360   0.344
30685W        W90430  38.043  37.054   0.355
30686W        W90431   6.249  25.156   1.726
30687W        W90432  37.837  22.557   3.837
30688W        W90433   6.281  16.795   3.225
30689W        W90434  44.774   4.284  12.420
30690W        W90435   7.669  16.293  14.446
30691W        W90436  40.331  35.927   2.260
30692W        W90437  27.589  27.944   4.119
30693W        W90438  14.713   6.313  10.038
30694W        W90439  38.395   6.754  11.602
30695W        W90440  13.792   3.268  12.957
30696W        W90441  23.175  38.499  14.338
30697W        W90442  14.271  25.658   5.199
30698W        W90443  20.213  19.283  13.831
30699W        W90444  15.131   3.430   3.685
30700W        W90445  24.008  14.822  11.583
30701W        W90446   4.325   2.764   4.279
30702W        W90447  16.089   9.230   1.876
30703W        W90448  28.185  38.956  12.463
30704W        W90449  32.546  18.688   2.892
30705W        W90450  14.242  24.021  12.514
30706W        W90451  39.065  30.587  10.141
30707W        W90452  30.489  29.496   1.324
30708W        W90453  35.424   9.772   0.287
30709W        W90454  32.970  16.777  14.961
30710W        W90455   5.279  25.521   1.859
30711W        W90456  34.870   1.371   4.138
30712W        W90457   6.923   4.698  13.989
30713W        W90458   6.424  41.353   2.882
30714W        W90459  25.998   9.756  11.913
30715W        W90460  16.620  27.548   1.401
30716W        W90461  43.449  36.889  11.875
30717W        W90462  24.164  13.178  12.578
30718W        W90463  23.027  36.883   4.199
30719W        W90464   8.327  18.748  11.409
30720W        W90465  20.254  14.714   3.672
30721W        W90466  16.209  30.114   2.875
30722W        W90467  39.520  22.137  11.934
30723W        W90468  23.663  17.230   0.442
30724W        W90469  17.787  32.031   0.421
30725W        W90470  10.714  12.726  11.105
30726W        W90471  21.512  11.703  11.436
30727W        W90472   6.853  20.193   1.234
30728W        W90473   9.775  17.165  14.992
30729W        W90474  15.298   5.411   0.283
30730W        W90475  22.692  10.746   2.849
30731W        W90476  27.168   7.784  11.016
30732W        W90477  11.191   3.912   0.459
30733W        W90478  44.851   7.292   4.269
30734W        W90479   4.312  30.914   4.162
30735W        W90480  33.958   2.257   2.249
30736W        W90481  41.398  35.897  11.043
30737W        W90482  23.039   8.828   1.216
30738W        W90483  11.657  29.609   1.442
30739W        W90484  38.956  25.130  12.475
30740W        W90485   2.918  21.628  13.982
30741W        W90486  18.130  15.769  14.789
30742W        W90487  22.643   3.815   4.606
30743W        W90488  35.978  22.737  13.790
30744W        W90489   2.894  18.251   0.284
30745W        W90490   2.847   0.926   2.347
30746W        W90491  10.152  10.281  11.931
30747W        W90492  34.493  10.330   0.372
30748W        W90493  11.773  40.920   4.742
30749W        W90494  26.480  36.056  10.544
30750W        W90495  43.427  12.701  14.832
30751W        W90496  13.297  14.172   3.362
30752W        W90497  35.859  24.555  12.065
30753W        W90498  41.400  29.538  10.894
30754W        W90499  30.474  33.094   4.195
30755W        W90500  33.472  35.942   4.146
30756W        W90501   0.430   7.401  14.293
30757W        W90502  36.904  38.906   0.261
30758W        W90503   4.399  33.084  10.511
30759W        W90504   9.226  40.477   3.217
30760W        W90505  27.460  28.186  14.295
30761W        W90506  32.885  25.667   1.356
30762W        W90507  12.724  15.276   0.268
30763W        W90508  28.167  28.563   2.720
30764W        W90509   1.246  29.998   1.440
30765W        W90510  21.694  33.923   0.917
30766W        W90511   8.881  16.738  10.406
30767W        W90512  24.117  21.203   4.161
30768W        W90513  11.706   5.419  12.028
30769W        W90514  13.658  30.477   2.810
30770W        W90515  15.623  19.161  11.521
30771W        W90516  21.602   2.228  12.915
30772W        W90517  43.420  37.340  14.287
30773W        W90518   1.407  35.033   2.888
30774W        W90519  34.509  14.632  12.520
30775W        W90520   9.301  20.209  13.934
30776W        W90521  14.211  10.367   1.240
30777W        W90522   1.793  44.826   1.436
30778W        W90523  39.483  29.455  11.896
30779W        W90524  12.218  44.934   4.687
30780W        W90525   5.272  37.563   1.931
30781W        W90526  27.599  17.719   3.787
30782W        W90527  43.934  39.870   2.680
30783W        W90528  29.052   7.805  13.062
30784W        W90529  16.176   4.419   0.448
30785W        W90530  35.025  34.930   4.677
30786W        W90531  33.446  11.681   4.838
30787W        W90532  35.059  41.033   2.371
30788W        W90533  28.634   6.196   0.389
30789W        W90534  41.927  36.426  12.422
30790W        W90535   5.281  26.167  13.887
30791W        W90536  44.292  14.749   2.370
30792W        W90537  39.910  29.633   2.787
30793W        W90538   7.290  24.079   3.238
30794W        W90539  26.206  40.351   4.329
30795W        W90540  12.294   0.337  12.000
30796W        W90541   8.171   0.313   3.811
30797W        W90542  42.873  25.105   2.302
30798W        W90543   5.424   5.282   4.156
30799W        W90544  35.968  33.567  13.912
30800W        W90545   0.832  13.622  12.551
30801W        W90546  14.206  25.592   4.153
30802W        W90547  14.220  13.774  11.487
30803W        W90548  29.535  15.120  12.980
30804W        W90549  27.514  29.595   1.242
30805W        W90550  38.453  21.070   0.928
30806W        W90551  36.916  43.365   1.752
30807W        W90552  39.817   9.826   2.311
30808W        W90553   1.262   7.417  11.528
30809W        W90554  18.550  24.622   0.919
30810W        W90555  12.633  11.734  14.466
30811W        W90556  10.825  23.001   1.300
30812W        W90557  37.881   9.226   4.228
30813W        W90558   7.743  19.069   2.885
30814W        W90559   4.400  44.777  12.090
30815W        W90560  28.663   0.466  14.285
30816W        W90561  23.159  15.693  13.909
30817W        W90562  18.075  30.065  11.980
30818W        W90563   3.413  40.342  12.086
30819W        W90564  44.338  39.946   0.790
30820W        W90565  36.353   7.226   1.846
30821W        W90566  21.585  16.764   0.949
30822W        W90567  17.185  36.957   2.379
30823W        W90568  12.310   2.961   2.185
30824W        W90569   9.717  32.047  14.794
30825W        W90570  42.944   9.734   4.145
30826W        W90571  38.961  19.569   0.436
30827W        W90572  44.755  44.408   2.324
30828W        W90573   5.367  34.072   3.191
30829W        W90574   1.254  21.061   1.887
30830W        W90575  44.767  20.684   3.316
30831W        W90576   5.818  28.572   3.384
30832W        W90577  41.495   6.888   2.245
30833W        W90578  11.778   0.420   4.335
30834W        W90579   8.337  21.148  12.068
30835W        W90580  25.626   8.350   2.389
30836W        W90581  25.475  17.759   2.757
30837W        W90582  15.284  27.139   3.864
30838W        W90583  31.899  25.053   1.271
30839W        W90584  20.092  31.049   2.341
30840W        W90585  38.447  27.097   0.474
30841W        W90586   0.947  16.733  12.905
30842W        W90587  15.109  14.260  10.435
30843W        W90588  19.633  14.313  12.994
30844W        W90589   2.865  26.007  11.542
30845W        W90590   1.473  42.990  14.921
30846W        W90591  15.780  32.014   0.268
30847W        W90592  24.581  39.424   4.622
30848W        W90593  15.697  11.683  10.622
30849W        W90594  14.180   8.810   5.091
30850W        W90595  13.660  10.634   4.303
30851W        W90596  19.255  28.061   1.766
30852W        W90597  44.983  13.115  14.804
30853W        W90598  10.324  11.785  13.938
30854W        W90599  13.123   3.450   4.689
30855W        W90600  41.809  18.703   4.221
30856W        W90601  28.055  42.920   3.711
30857W        W90602   7.909  30.458   3.700
30858W        W90603   9.238  33.892  14.459
30859W        W90604   8.360  30.110   3.743
30860W        W90605   6.234  17.087  13.866
30861W        W90606  26.527  20.750  13.496
30862W        W90607  40.437  22.174  11.979
30863W        W90608   0.378  43.421   0.291
30864W        W90609  28.140  40.498  14.325
30865W        W90610  27.064   7.908  13.445
30866W        W90611   6.745  19.058  10.488
30867W        W90612  15.308  24.633  12.339
30868W        W90613  37.356  21.228  12.539
30869W        W90614  43.366  27.096   1.709
30870W        W90615   9.874  37.495   4.607
30871W        W90616  23.115  30.561   4.625
30872W        W90617  29.983  26.513   2.396
30873W        W90618  36.948  37.491   3.231
30874W        W90619  36.412  24.033  14.772
30875W        W90620  26.560   5.779  11.064
30876W        W90621  32.584  26.068  14.890
30877W        W90622   1.473  22.574   4.321
30878W        W90623  34.500  31.570  11.039
30879W        W90624  39.018  17.110   0.842
30880W        W90625  33.960  31.015  11.068
30881W        W90626  26.015  44.466   3.671
30882W        W90627  15.817  11.226   0.401
30883W        W90628  36.023   3.313  13.007
30884W        W90629  29.569  32.441  13.915
30885W        W90630  15.804  17.117   1.407
30886W        W90631  17.246  42.973   0.879
30887W        W90632   5.921  32.573   0.756
30888W        W90633  30.074   1.857   3.846
30889W        W90634   1.917  30.079   0.800
30890W        W90635  24.611  32.606   0.778
30891W        W90636  34.087  21.223   1.790
30892W        W90637   0.418  16.140   0.305
30893W        W90638  28.648   5.769   4.773
30894W        W90639   9.694   8.362  10.573
30895W        W90640  29.601   8.664   9.954
30896W        W90641  11.808  36.575   2.818
30897W        W90642  16.723   5.760  11.427
30898W        W90643  27.013  36.988  11.592
30899W        W90644  23.617  35.987   4.653
30900W        W90645  42.780  37.527  11.593
30901W        W90646  17.694  12.295   4.679
30902W        W90647  16.735  17.679   0.369
30903W        W90648  13.206  16.788   2.681
30904W        W90649   1.420  12.764  14.404
30905W        W90650   7.733  25.998   2.252
30906W        W90651  42.335  20.589  13.471
30907W        W90652  11.652  12.781  10.041
30908W        W90653  30.063   6.766   4.164
30909W        W90654  25.712  22.229  11.909
30910W        W90655  37.369  20.147  14.872
30911W        W90656  13.261  35.408  12.953
30912W        W90657  16.785  26.193  11.381
30913W        W90658   7.739  40.480   2.704
30914W        W90659  34.077  16.592  11.593
30915W        W90660  26.116   3.382   0.908
30916W        W90661  12.629  24.167   0.899
30917W        W90662  13.697  42.847  13.464
30918W        W90663  37.343  13.677  12.360
30919W        W90664  35.916  10.707   4.721
30920W        W90665  37.478  29.587  12.878
30921W        W90666  39.038  16.599  13.355
30922W        W90667   3.291  20.048  14.789
30923W        W90668  28.502  38.963  14.768
30924W        W90669   9.320  41.395   4.610
30925W        W90670  40.444  19.727  14.300
30926W        W90671  10.816  13.173   3.769
30927W        W90672  20.154   6.188   1.841
30928W        W90673  27.463  10.267   0.453
30929W        W90674   7.292  41.937  11.919
30930W        W90675   2.356  12.267  13.040
30931W        W90676  38.433   0.949   1.411
30932W        W90677  10.260   4.820   5.082
30933W        W90678  25.514   2.929  14.298
30934W        W90679  28.677  18.154   3.788
30935W        W90680   0.951  33.012   1.910
30936W        W90681  14.162   2.442  14.875
30937W        W90682  21.166  21.658   0.953
30938W        W90683  22.735  26.059   2.371
30939W        W90684  42.408  27.609  11.987
30940W        W90685   7.688  24.701  13.824
30941W        W90686  23.220   3.831   0.763
30942W        W90687  10.333   1.831   0.761
30943W        W90688  23.630  13.307   4.788
30944W        W90689  29.030  26.601  14.902
30945W        W90690   2.892   8.701   2.193
30946W        W90691  32.404  15.225  11.880
30947W        W90692  38.009   4.401   4.621
30948W        W90693   5.203  13.729   3.277
30949W        W90694  30.484  33.959  11.430
30950W        W90695  14.780  23.082  12.048
30951W        W90696  18.161  25.038  12.093
30952W        W90697  44.891  41.460   0.433
30953W        W90698  20.577  18.251  10.561
30954W        W90699  31.109  41.809  13.406
30955W        W90700  18.787  29.054   4.230
30956W        W90701  28.487  31.417   2.842
30957W        W90702  10.271   8.207  11.870
30958W        W90703   4.741  20.146  12.355
30959W        W90704  25.037   6.907   0.402
30960W        W90705  42.914  38.071  13.848
30961W        W90706  10.198  39.907  11.573
30962W        W90707  34.082  17.681   2.844
30963W        W90708  44.398  11.329   3.772
30964W        W90709  24.989  21.616   0.349
30965W        W90710  28.573  16.757   1.442
30966W        W90711  30.977   3.751  12.567
30967W        W90712  13.248  32.529   4.757
30968W        W90713  21.066   3.273  14.290
30969W        W90714  40.424  41.334   4.768
30970W        W90715   9.171   2.862   4.737
30971W        W90716  36.976   4.304  10.987
30972W        W90717  35.100  16.193   4.660
30973W        W90718  11.140  42.507   4.241
30974W        W90719   3.745  39.005  13.952
30975W        W90720  23.092  13.248  14.760
30976W        W90721  34.573  18.597  14.978
30977W        W90722  36.539  22.012   2.235
30978W        W90723  12.851  13.148  12.081
30979W        W90724  29.117  30.601   0.242
30980W        W90725  26.693  42.376  11.464
30981W        W90726  31.996  23.711   3.273
30982W        W90727  28.009  33.941   0.272
30983W        W90728  27.155  23.545   0.306
30984W        W90729  21.166   7.881  10.969
30985W        W90730  26.636  23.207   4.315
30986W        W90731  20.543  31.642   9.468
30987W        W90732  44.841  35.048   0.437
30988W        W90733  41.810  25.597   4.264
30989W        W90734  12.327   0.854  11.463
30990W        W90735   4.835  23.217  14.976
30991W        W90736  22.124  44.990   3.272
30992W        W90737   4.721  34.461  10.075
30993W        W90738  10.729   8.354  10.958
30994W        W90739  23.184  23.556   4.345
30995W        W90740  29.569  43.002  13.045
30996W        W90741  42.815   1.797   1.351
30997W        W90742  24.189  21.234  10.604
30998W        W90743  30.943  11.628   0.917
30999W        W90744  26.674  28.980  11.526
31000W        W90745  36.525  24.486   4.820
31001W        W90746  25.690  16.237  12.052
31002W        W90747   4.839   0.383  13.929
31003W        W90748   3.719  39.460   3.305
31004W        W90749  22.694  11.203  13.326
31005W        W90750  35.893  11.211   1.798
31006W        W90751  35.565  39.989  14.790
31007W        W90752  14.637  25.009  10.932
31008W        W90753  32.540   1.752  14.353
31009W        W90754  26.962  44.844   0.933
31010W        W90755   7.685  37.432  10.895
31011W        W90756  41.907  26.952  12.847
31012W        W90757  11.316  11.658   1.930
31013W        W90758  12.770  41.917   1.735
31014W        W90759  40.934   9.817  14.292
31015W        W90760   3.871  12.345  13.546
31016W        W90761   6.735  37.053  14.414
31017W        W90762  20.709   7.397   0.441
31018W        W90763  39.830  10.638   1.439
31019W        W90764  43.773  21.609   2.756
31020W        W90765  44.314  38.410   0.440
31021W        W90766  40.860  15.629   0.247
31022W        W90767  41.939  32.630  14.326
31023W        W90768  21.606   7.864   4.794
31024W        W90769  31.417  19.638  12.493
31025W        W90770  35.582  21.242  11.581
31026W        W90771  12.729  28.972   3.851
31027W        W90772  20.615  34.909   4.132
31028W        W90773  29.593  39.942   2.715
31029W        W90774   1.452  34.527  14.819
31030W        W90775   9.301  33.438  12.863
31031W        W90776  17.076  22.561  14.926
31032W        W90777  22.738  38.881  13.900
31033W        W90778  10.779  38.886   3.648
31034W        W90779  11.682  14.238   0.357
31035W        W90780  17.566  23.176  12.401
31036W        W90781  15.654  39.847   3.308
31037W        W90782  22.035  38.570  13.472
31038W        W90783  40.523  20.605   3.720
31039W        W90784  25.544  21.021   0.731
31040W        W90785  23.225  31.599  14.495
31041W        W90786  44.792  35.480  11.496
31042W        W90787   3.227  19.067   1.695
31043W        W90788  29.962   1.354  13.855
31044W        W90789  30.022  19.249  10.952
31045W        W90790  24.120  19.762  11.067
31046W        W90791  44.300  41.880  14.802
31047W        W90792  32.953  34.578   2.302
31048W        W90793  35.023   3.764   4.206
31049W        W90794   7.296  31.412   3.341
31050W        W90795  25.695  15.800   2.743
31051W        W90796   9.380  12.636   3.293
31052W        W90797   5.388  21.028   4.315
31053W        W90798  24.720   7.302   2.201
31054W        W90799  33.418  40.540   0.890
31055W        W90800   3.299  27.584   0.360
31056W        W90801  38.410   7.264   2.715
31057W        W90802  31.007   6.242  14.348
31058W        W90803  39.358  25.639  12.385
31059W        W90804  20.177   8.746  12.096
31060W        W90805  30.007  27.530   0.261
31061W        W90806  44.483  41.873   0.326
31062W        W90807  33.903   3.951   1.760
31063W        W90808  21.258  26.596   4.756
31064W        W90809  40.950  25.194  12.489
31065W        W90810  13.265   0.391   1.287
31066W        W90811   8.675  39.555  12.378
31067W        W90812  41.926  25.031  11.406
31068W        W90813   2.855   7.254  10.903
31069W        W90814  13.613  43.273   0.805
31070W        W90815   1.328  19.191  14.292
31071W        W90816  29.946   4.283   1.813
31072W        W90817   0.984   1.480   2.268
31073W        W90818  18.771   7.791   1.317
31074W        W90819  44.406  26.635  11.414
31075W        W90820  44.455  30.141   2.748
31076W        W90821  31.096  14.324   2.758
31077W        W90822  20.764  10.328  10.550
31078W        W90823   9.648   8.665  14.848
31079W        W90824   0.766  31.447   3.698
31080W        W90825   8.253   4.363   3.248
31081W        W90826  44.987   0.775  13.824
31082W        W90827  37.543  30.480   0.334
31083W        W90828  38.889  11.281   0.418
31084W        W90829   1.852   7.259   0.933
31085W        W90830   3.259   7.817  12.020
31086W        W90831  24.625   9.175  12.908
31087W        W90832  41.025  17.222   1.366
31088W        W90833  39.453   9.376   4.322
31089W        W90834   6.247  18.697   4.638
31090W        W90835  40.835   2.302  10.907
31091W        W90836  30.425  24.670   1.821
31092W        W90837  37.931  26.166  10.512
31093W        W90838   9.260  15.791   2.336
31094W        W90839   0.300  29.108   1.933
31095W        W90840   3.939   8.670   2.778
31096W        W90841  16.195  31.526  11.079
31097W        W90842  33.540  24.529  10.481
31098W        W90843   2.337  33.581  10.146
31099W        W90844  12.646  39.426  13.315
31100W        W90845  37.835  27.135  11.081
31101W        W90846  15.610   8.821  12.060
31102W        W90847   4.937   7.784  12.467
31103W        W90848  33.501  22.534   2.700
31104W        W90849  18.679  14.720  11.560
31105W        W90850  32.941  41.994   2.210
31106W        W90851  20.169  29.582   0.279
31107W        W90852  30.440  23.145  13.832
31108W        W90853  43.345  13.250   4.312
31109W        W90854  13.777  14.693  11.566
31110W        W90855  42.832   2.227   1.875
31111W        W90856  29.565  23.078   4.672
31112W        W90857  31.959  37.378   1.341
31113W        W90858  10.828  35.569  13.394
31114W        W90859  15.226   6.919   1.239
31115W        W90860  26.153   9.360  13.941
31116W        W90861   9.187   7.367   1.711
31117W        W90862  34.494  23.142  12.379
31118W        W90863  22.614  31.492  13.844
31119W        W90864   5.863  32.079   1.823
31120W        W90865   1.249   9.169   2.754
31121W        W90866  44.857  39.414  12.023
31122W        W90867  27.067  17.305  12.989
31123W        W90868  40.962  25.184   2.769
31124W        W90869  23.186  36.422  12.876
31125W        W90870  19.748  17.095  10.456
31126W        W90871  19.260   6.341   0.380
31127W        W90872  33.891   7.856   3.198
31128W        W90873  24.071  18.285   2.702
31129W        W90874  10.688   7.871   4.701
31130W        W90875  31.480  18.755  11.859
31131W        W90876  35.557   5.428   2.417
31132W        W90877  34.088   9.739   4.660
31133W        W90878  12.214   0.949   4.344
31134W        W90879  24.049  42.496   1.295
31135W        W90880   2.765   8.211  13.525
31136W        W90881   0.799  11.745  10.961
31137W        W90882  30.622  37.065  11.424
31138W        W90883  31.636  41.820   1.888
31139W        W90884  44.830   6.301  12.554
31140W        W90885  42.924   3.715  11.429
31141W        W90886   0.872  13.167  14.784
31142W        W90887   5.824  38.369   4.821
31143W        W90888   1.792  21.197   1.860
31144W        W90889  33.012  43.376   3.177
31145W        W90890  35.370  23.534   0.797
31146W        W90891  25.080  39.990  14.844
31147W        W90892  30.473  11.699  13.052
31148W        W90893  37.894  35.557   0.343
31149W        W90894  20.562  31.131  10.543
31150W        W90895  33.004  27.552   3.841
31151W        W90896   3.257   5.829   0.275
31152W        W90897   5.243  21.219  14.819
31153W        W90898  43.299  14.601  13.889
31154W        W90899  28.097  11.174  12.354
31155W        W90900  11.208  39.863  10.587
31156W        W90901  34.051  17.690  11.382
31157W        W90902  18.211  18.729  14.433
31158W        W90903  30.084  13.338   2.231
31159W        W90904  42.915  22.112  11.924
31160W        W90905   2.772   2.368  10.963
31161W        W90906  32.579   7.226   4.340
31162W        W90907  10.371  44.885   1.835
31163W        W90908  29.935  12.816  14.024
31164W        W90909  25.472  32.393   3.168
31165W        W90910  22.593  39.500   1.253
31166W        W90911  31.086   6.349  11.961
31167W        W90912  30.533  20.104  14.286
31168W        W90913  19.653  10.736  12.991
31169W        W90914  28.130  27.054   0.783
31170W        W90915  44.778  27.598  10.498
31171W        W90916  20.766  40.842  10.595
31172W        W90917  11.169  36.857   4.274
31173W        W90918  32.907  34.012  11.398
31174W        W90919  13.826   1.436  12.945
31175W        W90920  32.555   0.476   2.723
31176W        W90921  18.563  39.415   4.743
31177W        W90922  17.306  27.013   0.851
31178W        W90923  11.686  10.302   0.477
31179W        W90924  35.008  26.675  14.475
31180W        W90925  31.580  26.144  13.413
31181W        W90926  16.115   1.910   4.661
31182W        W90927   6.766  14.797  14.960
31183W        W90928  40.967   2.303  13.338
31184W        W90929  23.156  33.603  10.895
31185W        W90930  43.960  18.690   9.982
31186W        W90931  26.508  22.539  11.427
31187W        W90932  18.619  37.898   0.792
31188W        W90933  24.175  21.086   9.920
31189W        W90934  15.713   2.468   3.325
31190W        W90935   8.223  28.076   3.213
31191W        W90936   5.792   7.682   1.228
31192W        W90937   4.942  39.336  12.066
31193W        W90938  16.595  12.846   4.310
31194W        W90939  30.987   8.693  12.867
31195W        W90940  13.212   7.691   2.369
31196W        W90941  21.151  40.816   1.224
31197W        W90942  23.605   8.852   0.929
31198W        W90943  17.261  44.475  10.049
31199W        W90944  43.374  27.100  13.984
31200W        W90945  42.813  14.152  11.105
31201W        W90946  12.641  12.151   3.381
31202W        W90947  44.958   8.218  14.418
31203W        W90948  36.938   7.278   2.886
31204W        W90949  29.623  40.526   4.771
31205W        W90950  26.051   5.924   2.748
31206W        W90951  12.745  23.573  13.060
31207W        W90952  19.050  23.512   4.232
31208W        W90953   4.338  38.905  13.527
31209W        W90954   9.797  41.790   2.692
31210W        W90955  20.118  35.512   1.712
31211W        W90956  18.781  24.186   0.881
31212W        W90957  35.568  16.730  13.834
31213W        W90958  28.662  27.004   3.669
31214W        W90959  34.946  30.519  13.040
31215W        W90960  35.048  38.551   1.334
31216W        W90961  19.731  13.177  11.862
31217W        W90962  29.066  16.269   4.665
31218W        W90963   4.292  23.185  14.793
31219W        W90964  10.836  19.675   4.288
31220W        W90965  39.414   0.432  12.019
31221W        W90966  11.773  42.357   1.210
31222W        W90967  22.068  31.413  14.289
31223W        W90968  43.921  28.113  13.456
31224W        W90969  25.963  31.913  12.517
31225W        W90970   2.435  24.524  13.434
31226W        W90971  44.841  18.230   4.341
31227W        W90972  21.036  40.355  14.284
31228W        W90973   0.925   9.822   1.730
31229W        W90974  34.612   3.430  11.885
31230W        W90975   5.196  34.606  14.298
31231W        W90976  35.563   8.252  14.908
31232W        W90977  33.401  15.117   0.912
31233W        W90978  38.408  31.488  14.308
31234W        W90979  24.062  16.808   2.217
31235W        W90980  24.565  35.545   3.690
31236W        W90981  10.853  38.928  11.492
31237W        W90982   9.291  13.706  14.452
31238W        W90983   5.220  21.111  13.014
31239W        W90984  44.783  31.619  12.932
31240W        W90985  14.257  44.789   0.761
31241W        W90986  33.957  32.590  12.459
31242W        W90987  23.132  14.618   2.790
31243W        W90988   1.899  18.608  13.010
31244W        W90989  19.130  11.846   2.818
31245W        W90990  27.638  30.535  13.817
31246W        W90991  38.005   9.347   3.323
31247W        W90992  42.523   8.211  11.882
31248W        W90993   4.937  43.813  10.570
31249W        W90994  23.030  29.942  13.903
31250W        W90995  21.753  29.084   2.885
31251W        W90996  39.814  37.866   4.211
31252W        W90997   6.199  19.190   0.798
31253W        W90998   8.666  20.069   0.851
31254W        W90999  28.009   7.362  12.029
31255W        W91000  10.843   1.906   3.646
31256W        W91001  42.512  35.552   2.334
31257W        W91002  20.758  22.747   3.369
31258W        W91003   1.247  36.499  11.857
31259W        W91004  44.975  11.349  13.806
31260W        W91005  13.811   4.450  10.925
31261W        W91006  37.964  32.905  13.492
31262W        W91007   1.464   6.750  14.401
31263W        W91008  30.492  12.629  10.621
31264W        W91009   3.305  12.201  14.410
31265W        W91010  33.607  30.081   2.190
31266W        W91011  21.613  34.490   0.424
31267W        W91012   2.799  15.259   0.796
31268W        W91013  18.600  39.540   0.875
31269W        W91014  40.978  20.703   4.731
31270W        W91015  38.961  21.569  11.400
31271W        W91016  27.180   9.794  14.758
31272W        W91017  23.241  19.721   4.217
31273W        W91018  17.285   1.935   0.396
31274W        W91019   9.393  37.463   0.927
31275W        W91020  39.009   0.353   2.766
31276W        W91021  25.064  25.004  10.992
31277W        W91022  18.767  22.243   0.765
31278W        W91023  25.669  35.074  10.997
31279W        W91024  14.322   6.809   1.756
31280W        W91025  41.311  33.556   2.700
31281W        W91026  17.104  21.739  14.848
31282W        W91027  34.395  18.577   0.421
31283W        W91028  36.077  26.458  10.991
31284W        W91029   9.678  26.457  11.017
31285W        W91030   1.299  11.866   1.372
31286W        W91031  44.830  44.329  10.997
31287W        W91032  42.414  38.435  13.308
31288W        W91033   6.743  27.690   0.782
31289W        W91034  36.357   1.304   0.780
31290W        W91035  37.905  35.361  13.064
31291W        W91036  33.625  24.991  12.950
31292W        W91037  39.327   2.366   4.690
31293W        W91038  10.651  40.827   1.354
31294W        W91039  30.553  38.970  10.642
31295W        W91040  20.756  44.796  13.392
31296W        W91041  39.928  23.146   3.376
31297W        W91042  41.884   8.821   3.199
31298W        W91043   8.723  31.056   2.856
31299W        W91044  26.457   7.731  10.571
31300W        W91045   7.699  13.606  12.570
31301W        W91046  32.952   6.738   3.364
31302W        W91047  24.573   0.849   2.859
31303W        W91048   0.389  22.014  12.071
31304W        W91049  17.133  32.550  14.276
31305W        W91050   5.788   4.722   4.163
31306W        W91051  41.450  20.585   4.780
31307W        W91052  10.752  10.798  13.480
31308W        W91053  28.513  38.537   4.828
31309W        W91054   0.910  24.176   2.872
31310W        W91055  38.933  15.815  14.281
31311W        W91056   1.481  24.050  14.360
31312W        W91057   4.916  27.653   2.381
31313W        W91058  39.503  42.418   2.188
31314W        W91059  16.707  18.764   3.719
31315W        W91060  37.934   2.406   1.244
31316W        W91061  25.199  17.570   3.632
31317W        W91062  28.552  42.860   4.255
31318W        W91063  41.981  17.558  13.904
31319W        W91064   3.841  19.063   1.364
31320W        W91065   5.881  34.959   4.648
31321W        W91066  40.905  40.531  13.480
31322W        W91067  43.297  32.426  12.404
31323W        W91068  44.911  15.106   2.890
31324W        W91069  28.187  42.441   0.467
31325W        W91070   2.858  20.523   5.243
31326W        W91071   5.206  27.155  10.491
31327W        W91072  37.438   2.281  13.367
31328W        W91073  35.976  17.766  11.101
31329W        W91074  40.031   3.434  14.286
31330W        W91075   5.808  29.526   1.883
31331W        W91076   6.236  41.914  11.565
31332W        W91077  24.009   3.949   0.858
31333W        W91078  32.619  21.210  13.374
31334W        W91079  35.869   2.799  12.073
31335W        W91080  26.203  44.970   2.806
31336W        W91081  34.052  10.143   1.229
31337W        W91082  12.282  37.978   0.436
31338W        W91083  40.504  43.785  11.108
31339W        W91084  39.420   5.192  10.998
31340W        W91085  26.673   4.808  11.558
31341W        W91086  35.991  31.079  14.897
31342W        W91087  43.355  41.299   0.456
31343W        W91088  22.043   9.255  10.439
31344W        W91089   7.743   4.890  14.414
31345W        W91090   7.318  44.888  13.443
31346W        W91091  41.508  23.497   0.893
31347W        W91092   1.274  21.626  13.043
31348W        W91093   7.268  16.318  10.440
31349W        W91094   6.196  22.220  13.388
31350W        W91095  36.412  41.491   1.338
31351W        W91096  44.458  42.793  10.619
31352W        W91097  28.604   3.852  11.934
31353W        W91098   5.413  41.382   5.120
31354W        W91099  11.861  12.330  12.579
31355W        W91100  36.530  17.596   1.760
31356W        W91101  33.499   6.821   4.153
31357W        W91102  18.204  27.014   1.233
31358W        W91103  15.611  33.511   2.785
31359W        W91104  32.993  23.594  11.507
31360W        W91105  35.853   7.685  13.059
31361W        W91106  24.158  17.665   2.249
31362W        W91107  40.020  36.449   1.219
31363W        W91108  31.532  44.401  14.357
31364W        W91109   7.184  43.305   2.897
31365W        W91110  28.478   1.466  11.991
31366W        W91111  32.014  18.701   3.171
31367W        W91112  24.984  39.971   4.203
31368W        W91113  25.063  39.387   1.306
31369W        W91114  30.993   3.366  12.071
31370W        W91115  10.829  11.632   0.834
31371W        W91116  38.396  43.284  12.862
31372W        W91117  26.047  21.532  13.010
31373W        W91118  17.176  36.939   3.381
31374W        W91119  18.581  37.567   2.671
31375W        W91120  19.236  35.042   4.605
31376W        W91121   8.849   2.446   2.278
31377W        W91122  34.928   1.850  11.063
31378W        W91123  38.449   0.355   2.901
31379W        W91124  11.327  35.955  11.889
31380W        W91125  13.106   3.272   5.265
31381W        W91126   5.871  33.895  12.963
31382W        W91127  16.630  27.997  11.856
31383W        W91128  40.859   6.299  11.938
31384W        W91129  29.533   2.385  14.934
31385W        W91130  17.133  12.815  12.003
31386W        W91131   6.799  33.457   4.261
31387W        W91132   8.257   4.750   4.657
31388W        W91133  28.162  34.412  14.411
31389W        W91134  19.152   1.385  14.421
31390W        W91135  32.588  11.188   1.423
31391W        W91136   2.769   9.389   0.788
31392W        W91137  10.175   7.747  12.533
31393W        W91138   6.841  36.464  14.966
31394W        W91139   2.238  43.509   1.350
31395W        W91140  32.888  44.448  10.950
31396W        W91141   5.366  33.582  13.351
31397W        W91142   7.232   8.403   0.783
31398W        W91143  30.934  35.397   0.261
31399W        W91144  27.134  36.570  10.924
31400W        W91145  38.874  16.712   0.961
31401W        W91146  12.621   0.341   1.296
31402W        W91147   6.203   9.749   3.659
31403W        W91148  32.446  26.645  11.934
31404W        W91149  12.315   2.958  12.915
31405W        W91150  22.106  23.165   3.162
31406W        W91151   4.705   2.408  12.430
31407W        W91152  30.435   4.807   1.714
31408W        W91153  12.187  24.716   1.299
31409W        W91154  20.141  38.886   4.754
31410W        W91155  19.698   8.799   1.714
31411W        W91156   9.809  27.042   1.390
31412W        W91157  23.226  28.598   3.729
31413W        W91158  37.579   3.911   5.177
31414W        W91159  41.405   3.301   4.231
31415W        W91160  12.158  22.544   4.317
31416W        W91161  14.694  16.597   3.768
31417W        W91162  24.645  43.357   3.373
31418W        W91163   8.398  18.250  11.488
31419W        W91164  20.656  43.473  11.876
31420W        W91165   0.798  44.299  14.508
31421W        W91166  12.818  23.556  13.358
31422W        W91167  37.066  36.963   3.677
31423W        W91168   3.906   6.300   2.793
31424W        W91169  33.463  36.990  10.601
31425W        W91170  12.614  32.123   2.406
31426W        W91171  11.675  22.600  10.579
31427W        W91172  30.944  11.328   3.863
31428W        W91173  33.458  10.672   4.212
31429W        W91174  14.590  26.025  11.527
31430W        W91175   7.688   3.404  12.065
31431W        W91176  43.335  26.176  14.020
31432W        W91177   4.416  35.497  14.378
31433W        W91178  19.175  23.086   0.464
31434W        W91179  31.611  14.307   3.780
31435W        W91180  12.634  36.057   2.352
31436W        W91181  10.767  29.552  11.905
31437W        W91182  26.614   6.797  10.596
31438W        W91183   6.843  38.569  13.843
31439W        W91184  37.068  27.509  12.382
31440W        W91185   0.406  33.958  10.443
31441W        W91186  13.121  20.677   3.851
31442W        W91187   9.181   2.878   3.379
31443W        W91188  15.222   3.867   0.315
31444W        W91189  12.617  19.637  12.975
31445W        W91190  16.290  12.687   4.234
31446W        W91191   6.755  31.061   2.892
31447W        W91192  33.498   0.955  12.928
31448W        W91193  44.308  43.432  10.467
31449W        W91194  29.006  12.850   4.759
31450W        W91195  10.685   9.745  12.944
31451W        W91196  41.885  10.761  12.889
31452W        W91197  35.060  41.297  11.430
31453W        W91198  36.503  42.937   3.360
31454W        W91199  37.386   2.930   2.857
31455W        W91200  38.843  25.693   3.780
31456W        W91201  24.658  21.703   3.729
31457W        W91202  11.244  24.028   0.349
31458W        W91203  29.959  40.832  12.981
31459W        W91204  26.136  24.551   0.310
31460W        W91205   2.324   9.677  10.909
31461W        W91206  41.988   5.361   0.933
31462W        W91207  22.541  19.609   3.264
31463W        W91208   3.284  19.721  12.370
31464W        W91209  34.867  28.620  14.870
31465W        W91210  42.789  33.912  13.324
31466W        W91211  15.655  42.798   0.783
31467W        W91212  15.163  24.580  14.973
31468W        W91213   3.367  36.007  10.546
31469W        W91214   2.267   5.773  14.456
31470W        W91215   1.391  42.000   0.407
31471W        W91216   6.836  30.030   1.916
31472W        W91217   8.406   5.767   1.829
31473W        W91218   3.818  23.683  13.885
31474W        W91219  23.104   9.158   2.851
31475W        W91220   9.152  36.888  10.456
31476W        W91221  29.168   6.685   2.891
31477W        W91222  17.236   3.219  10.973
31478W        W91223  15.674  19.183  14.956
31479W        W91224  33.033   4.322  11.446
31480W        W91225  40.965  30.517  11.447
31481W        W91226   8.262  23.235  12.482
31482W        W91227  26.974   4.847  13.847
31483W        W91228  17.597  39.967  10.537
31484W        W91229  17.791  42.778  11.552
31485W        W91230  35.453  32.445  13.885
31486W        W91231  17.177  38.009   3.787
31487W        W91232  25.210  33.007  12.513
31488W        W91233  38.462  21.167  12.491
31489W        W91234  31.423  21.149  13.052
31490W        W91235  37.479  44.779  13.030
31491W        W91236  17.698  35.376   4.265
31492W        W91237   9.314  28.674   1.390
31493W        W91238   6.393  18.768   3.320
31494W        W91239  36.917  16.181   0.960
31495W        W91240  39.810  44.010   1.887
31496W        W91241  42.816  11.644  13.926
31497W        W91242  15.294  34.590   1.779
31498W        W91243  14.290  43.807   0.335
31499W        W91244  23.203  36.897  11.593
31500W        W91245  24.575   6.866   2.884
31501W        W91246   7.255  29.526   0.881
31502W        W91247  12.804   3.354   2.854
31503W        W91248  29.922   1.903  13.990
31504W        W91249  13.651  34.605  12.429
31505W        W91250  22.225  16.699   0.847
31506W        W91251  19.540  18.649  11.861
31507W        W91252   7.382  14.299  11.423
31508W        W91253  43.832  33.014   0.835
31509W        W91254  21.096   5.252   2.881
31510W        W91255   4.917  24.206   4.788
31511W        W91256  38.027  12.310   2.238
31512W        W91257  21.730  11.662  11.097
31513W        W91258   5.244  19.680  13.937
31514W        W91259   4.703  36.380   4.803
31515W        W91260  10.761  15.808   3.653
31516W        W91261  29.990  37.422   1.271
31517W        W91262  40.845  22.601  12.989
31518W        W91263  16.195  21.582  10.610
31519W        W91264  39.912  40.482  10.528
31520W        W91265   6.306  33.904  12.495
31521W        W91266  20.705  15.799  10.913
31522W        W91267  36.076  38.058  14.454
31523W        W91268   1.892  28.099   3.229
31524W        W91269  35.548   1.862  14.509
31525W        W91270  44.800  14.663  12.390
31526W        W91271  10.164  32.977  13.471
31527W        W91272  15.088  35.043  14.459
31528W        W91273   7.735   4.397   0.473
31529W        W91274  42.012  32.974   0.914
31530W        W91275  42.300  30.088   2.189
31531W        W91276  36.529  17.205   0.768
31532W        W91277  23.165   6.216   0.249
31533W        W91278  15.184  17.777  14.949
31534W        W91279  39.931  16.189   3.862
31535W        W91280  32.090  11.733   0.803
31536W        W91281  16.598  20.030   2.861
31537W        W91282  32.442   0.465  11.410
31538W        W91283  11.779   6.909  14.299
31539W        W91284  23.197  43.859  14.336
31540W        W91285  30.584  27.663   5.639
31541W        W91286  13.812  43.407  14.018
31542W        W91287  26.994   5.419  14.475
31543W        W91288  11.204   4.871   2.727
31544W        W91289  22.128   7.825   1.813
31545W        W91290   4.813  28.511   3.693
31546W        W91291   3.875  33.568   3.359
31547W        W91292  37.019   1.439   4.341
31548W        W91293  22.012  38.568  14.887
31549W        W91294  42.987   9.649  12.404
31550W        W91295  33.539  19.688   2.303
31551W        W91296  37.579  32.112   1.727
31552W        W91297  21.133  31.460   1.821
31553W        W91298  41.934   7.757   2.412
31554W        W91299  13.115   6.422   4.115
31555W        W91300  37.833  36.476  14.944
31556W        W91301  44.322  18.748   2.729
31557W        W91302  11.767  20.115  12.367
31558W        W91303   5.911   3.385  14.325
31559W        W91304  37.024  35.566  12.429
31560W        W91305   9.668  13.696  10.426
31561W        W91306  42.356  17.162   1.278
31562W        W91307  43.801  38.886   2.314
31563W        W91308  18.234  35.604   0.369
31564W        W91309  29.047  20.548   5.280
31565W        W91310  24.137   0.844  13.001
31566W        W91311   2.228  20.592   3.382
31567W        W91312  27.186   9.296  11.499
31568W        W91313  36.046  17.648  14.778
31569W        W91314  34.462  32.422   0.338
31570W        W91315  44.783  21.565  11.944
31571W        W91316   6.849  17.663  10.470
31572W        W91317  27.459  30.151   3.866
31573W        W91318  21.585  39.909  13.443
31574W        W91319   5.289  27.478   0.926
31575W        W91320  13.124  29.626  10.594
31576W        W91321  44.891   5.368  12.833
31577W        W91322  34.867  14.197  13.920
31578W        W91323   2.845  20.256  12.092
31579W        W91324  32.965  10.150   4.139
31580W        W91325  18.084  27.945  14.511
31581W        W91326  23.581  14.294  14.955
31582W        W91327  17.798  30.041  13.037
31583W        W91328   4.711  12.264   0.247
31584W        W91329  37.916  32.907  12.877
31585W        W91330   6.306   2.916  13.830
31586W        W91331   5.316  34.415   0.778
31587W        W91332  34.979  21.750   1.257
31588W        W91333   9.885  26.500   0.247
31589W        W91334  33.106  31.896   0.830
31590W        W91335  18.059  34.537  13.924
31591W        W91336  41.398  21.203   1.718
31592W        W91337  17.287  35.094   5.771
31593W        W91338  31.585  31.145   2.746
31594W        W91339  36.094  44.995   1.358
31595W        W91340   0.886  32.605   4.727
31596W        W91341  25.664   2.724   2.354
31597W        W91342  38.072  24.489  11.062
31598W        W91343  23.156  29.086  12.451
31599W        W91344  18.665  14.618   3.667
31600W        W91345  14.629  16.138   0.898
31601W        W91346  25.618  14.178  11.606
31602W        W91347  23.546  25.700   4.335
31603W        W91348  26.578  21.039  14.343
31604W        W91349   7.744   3.272   0.292
31605W        W91350  39.524  32.972  14.820
31606W        W91351   8.717  30.659   1.368
31607W        W91352  27.175   5.820   4.312
31608W        W91353  16.312  38.887  12.553
31609W        W91354  41.326  33.435  10.533
31610W        W91355  15.628  24.025  12.083
31611W        W91356  43.276  17.265  10.070
31612W        W91357   3.456  27.962   1.329
31613W        W91358  28.140   9.847   4.213
31614W        W91359   2.887  32.477  11.977
31615W        W91360  25.108  27.470   1.932
31616W        W91361  17.662  36.452  13.028
31617W        W91362  25.708  39.329  11.056
31618W        W91363  40.467   1.384   4.189
31619W        W91364  24.625  34.587   1.351
31620W        W91365  12.699   6.695  10.905
31621W        W91366  44.891  35.488  13.403
31622W        W91367  25.132  35.924   2.378
31623W        W91368  35.048  37.417   3.193
31624W        W91369  20.149  31.936   4.707
31625W        W91370  43.291   9.345   3.338
31626W        W91371   1.344  39.921  13.840
31627W        W91372  36.943  21.606   4.278
31628W        W91373  39.906   7.173  11.982
31629W        W91374  17.067   4.342  14.464
31630W        W91375  26.134   9.657   4.602
31631W        W91376  44.878  18.709  12.374
31632W        W91377   0.393   9.750  12.989
31633W        W91378   0.476   5.736   3.630
31634W        W91379  11.629  18.592   2.215
31635W        W91380  33.965  14.142   4.700
31636W        W91381  21.179   4.802   3.746
31637W        W91382  15.633  44.437   4.309
31638W        W91383  36.533  16.783   0.363
31639W        W91384  34.990  31.898  13.015
31640W        W91385  14.815   2.843   2.270
31641W        W91386   6.699  18.667   3.655
31642W        W91387  34.897   4.305   4.830
31643W        W91388  34.459  18.754   9.676
31644W        W91389  15.266  33.543   1.250
31645W        W91390   3.392  33.054  13.896
31646W        W91391   5.239  44.467   4.611
31647W        W91392   8.169   3.754  10.936
31648W        W91393  17.095  16.709  14.859
31649W        W91394  43.376   6.711  14.279
31650W        W91395  21.731  38.522  14.759
31651W        W91396  11.128  26.486   1.724
31652W        W91397   4.774  17.153   0.840
31653W        W91398  43.982   6.767   3.340
31654W        W91399   7.727  44.412  12.010
31655W        W91400   6.848   4.899  12.475
31656W        W91401   7.832  26.554   0.290
31657W        W91402  44.976  28.087   0.483
31658W        W91403  40.931  29.063  11.881
31659W        W91404  41.390  33.980  14.985
31660W        W91405  36.437  27.615  10.551
31661W        W91406  44.847  43.993  10.514
31662W        W91407  35.497  15.154   3.171
31663W        W91408  43.845  35.490  11.588
31664W        W91409  29.560  18.575  14.310
31665W        W91410  31.934   0.877  14.773
31666W        W91411  11.363  43.953  11.873
31667W        W91412   5.387  37.437   4.120
31668W        W91413  35.866  15.684   2.881
31669W        W91414  43.804  24.177   4.259
31670W        W91415  12.851   9.768  12.418
31671W        W91416  36.083  36.378   2.218
31672W        W91417  29.058  42.367  14.944
31673W        W91418  31.596  26.157  14.392
31674W        W91419   5.427  30.521   2.884
31675W        W91420  41.998   9.721  12.377
31676W        W91421  22.583  13.351   2.216
31677W        W91422  23.500  28.558   1.230
31678W        W91423   7.409   2.362   3.749
31679W        W91424  33.604  21.096   2.835
31680W        W91425  14.318  31.534   3.799
31681W        W91426  34.439  26.578   1.358
31682W        W91427  21.143  42.327  14.281
31683W        W91428  36.484  24.185   3.222
31684W        W91429  22.714  16.144   3.263
31685W        W91430  22.643  43.959  13.876
31686W        W91431  29.103  22.018   0.911
31687W        W91432  19.735  38.004   3.194
31688W        W91433  10.254   3.286   0.855
31689W        W91434  10.705  19.705   1.913
31690W        W91435  44.959  12.769   3.758
31691W        W91436  31.927  44.344  13.867
31692W        W91437   5.719  23.203  10.903
31693W        W91438  18.100  37.553   3.380
31694W        W91439  10.273  19.081   0.458
31695W        W91440  41.930  11.354  10.950
31696W        W91441  42.958   8.373  13.332
31697W        W91442  20.701  13.735   0.397
31698W        W91443   6.334   5.689  12.530
31699W        W91444  37.035  36.483  13.026
31700W        W91445  37.954  22.143  13.370
31701W        W91446  33.579  37.038  12.542
31702W        W91447  34.516  25.631   4.775
31703W        W91448  41.457  11.277  14.291
31704W        W91449  39.941  41.460  10.446
31705W        W91450  40.954  38.865  13.868
31706W        W91451   4.830  42.926   1.853
31707W        W91452   9.274  20.761  12.917
31708W        W91453  23.230  31.581   1.270
31709W        W91454  34.590  15.691  11.023
31710W        W91455  35.911   1.748  14.862
31711W        W91456   9.745  31.541   1.921
31712W        W91457   9.825   3.298  11.003
31713W        W91458  19.680  15.117   0.782
31714W        W91459  31.475  40.460   3.830
31715W        W91460  15.822  29.011  10.116
31716W        W91461  44.811   2.459   0.429
31717W        W91462  38.488  34.978  11.586
31718W        W91463  22.048  12.795   2.288
31719W        W91464  14.747  37.878  10.549
31720W        W91465  13.646  44.307  11.611
31721W        W91466  13.758  43.840  10.497
31722W        W91467  27.058  20.143  10.549
31723W        W91468  18.158  19.218   4.128
31724W        W91469   5.229   6.684  13.882
31725W        W91470   0.767   3.866  12.390
31726W        W91471  21.590  42.030  11.957
31727W        W91472  18.562  27.490   4.838
31728W        W91473   7.376  40.346   2.412
31729W        W91474  14.631  28.042   3.334
31730W        W91475  24.065   6.820  13.314
31731W        W91476  28.621  27.564   3.864
31732W        W91477  25.522  44.404   1.710
31733W        W91478   4.253  22.200   1.236
31734W        W91479  44.760   8.657  12.511
31735W        W91480  37.954   6.782   0.730
31736W        W91481  31.555  32.920   5.309
31737W        W91482  42.808  33.523   4.314
31738W        W91483  24.189  33.557   3.846
31739W        W91484  21.565  28.072  10.527
31740W        W91485  43.000  25.121   1.432
31741W        W91486   5.214  20.124  12.497
31742W        W91487  14.780  41.458  10.017
31743W        W91488  19.145  23.638   4.704
31744W        W91489  24.488  42.808  13.025
31745W        W91490  38.468  10.166   5.148
31746W        W91491   7.293  31.041   2.185
31747W        W91492  29.932  26.599   3.290
31748W        W91493  31.147   0.857  13.912
31749W        W91494  33.115  42.837  13.027
31750W        W91495  21.058  25.486  13.532
31751W        W91496  24.140  42.433  11.881
31752W        W91497  12.315   1.841  11.999
31753W        W91498  14.178   2.852  10.952
31754W        W91499   9.240  11.278   3.237
31755W        W91500  44.285  35.937  13.318
31756W        W91501   2.804  44.854   0.834
31757W        W91502  27.567  20.155  13.938
31758W        W91503  16.153   6.388  11.584
31759W        W91504  38.441  36.903   1.323
31760W        W91505  24.229  19.125  13.861
31761W        W91506  24.091  24.668   4.348
31762W        W91507  30.483  34.948   2.895
31763W        W91508   9.685  14.126  12.082
31764W        W91509  34.902  20.142  14.451
31765W        W91510  36.904  33.917  13.530
31766W        W91511  20.659   6.769  12.479
31767W        W91512   5.203  34.070  10.482
31768W        W91513  16.612  25.538  10.613
31769W        W91514  35.043  27.457   1.929
31770W        W91515   5.871  16.777  11.056
31771W        W91516   0.308   7.770   0.344
31772W        W91517  32.512  29.064  14.289
31773W        W91518  20.722  40.918  13.462
31774W        W91519   7.835  21.557  11.478
31775W        W91520  41.882  39.852  13.794
31776W        W91521  44.365  13.258   0.337
31777W        W91522  29.161  28.965  14.996
31778W        W91523   1.953   6.377  12.458
31779W        W91524  36.882   7.794   1.294
31780W        W91525  44.836  33.500   0.956
31781W        W91526  38.064  39.356  14.803
31782W        W91527  27.685  19.209  14.942
31783W        W91528  17.173  25.555   3.333
31784W        W91529   0.387  22.127   1.419
31785W        W91530  26.535  21.256   1.301
31786W        W91531  43.443  40.034  11.498
31787W        W91532  42.990  28.071  10.623
31788W        W91533  28.952  38.513  14.319
31789W        W91534  25.559  22.105   4.291
31790W        W91535  19.728  35.029   3.847
31791W        W91536  28.960  23.196  14.433
31792W        W91537  33.419  21.607  14.902
31793W        W91538  13.650  33.946   5.101
31794W        W91539  32.004  44.995  12.978
31795W        W91540  35.405   0.291   3.270
31796W        W91541   9.369  29.499  11.114
31797W        W91542  39.978  42.347   1.831
31798W        W91543  27.173  14.751  12.548
31799W        W91544  39.043  31.146   4.635
31800W        W91545  10.735  21.038   1.828
31801W        W91546  15.190  23.116  14.307
31802W        W91547  25.470  41.874  12.883
31803W        W91548  25.485  25.190   5.216
31804W        W91549  44.937   4.897   2.414
31805W        W91550  24.120  31.510   0.816
31806W        W91551  20.194   1.342  10.007
31807W        W91552   0.441  28.176  11.114
31808W        W91553  17.262  41.836   2.899
31809W        W91554   1.240   0.457  10.970
31810W        W91555  24.080  28.611   2.184
31811W        W91556  12.138  25.051  11.867
31812W        W91557  29.067  17.260   1.211
31813W        W91558   1.932  15.111  13.030
31814W        W91559  41.988   4.883  14.372
31815W        W91560  24.126  17.089   4.227
31816W        W91561  38.968  40.429   1.254
31817W        W91562   7.817  22.605   0.837
31818W        W91563  34.073  21.080  11.373
31819W        W91564  16.080  14.618  14.353
31820W        W91565  12.771   6.919   4.133
31821W        W91566   3.757  23.017  13.027
31822W        W91567  15.669  21.022  11.955
31823W        W91568  23.093  41.520   2.745
31824W        W91569   0.772  12.623  14.292
31825W        W91570   6.212  30.051   1.813
31826W        W91571   2.344  15.810  10.495
31827W        W91572  37.523   4.759  12.065
31828W        W91573  34.507  37.044  12.952
31829W        W91574  10.769  11.334  12.905
31830W        W91575   8.261  28.116   1.434
31831W        W91576   3.322  16.149  10.966
31832W        W91577   7.221  33.031   0.865
31833W        W91578   5.909  23.101  13.971
31834W        W91579  23.164   6.240  13.910
31835W        W91580   9.774  34.923   0.909
31836W        W91581  15.319  10.762  14.350
31837W        W91582   6.724   1.821   0.852
31838W        W91583  36.549   0.938  11.050
31839W        W91584  22.250  32.090   1.269
31840W        W91585   7.759  15.161  14.285
31841W        W91586  26.548  43.513   3.760
31842W        W91587  30.128  19.194   0.923
31843W        W91588  10.699  30.658  13.903
31844W        W91589  41.909  27.688   0.321
31845W        W91590   4.303  40.343   2.891
31846W        W91591  43.463   6.913  11.947
31847W        W91592  24.528  16.231   1.451
31848W        W91593   7.813  35.091  14.340
31849W        W91594  25.683   9.711  13.496
31850W        W91595  27.943  20.041  14.889
31851W        W91596  38.025   9.800  11.870
31852W        W91597  13.729   6.677  10.519
31853W        W91598  39.510   8.689   3.672
31854W        W91599  15.323  38.525  14.846
31855W        W91600  34.004  26.476  10.622
31856W        W91601  19.278  31.101   1.393
31857W        W91602  24.044  27.015   0.282
31858W        W91603   5.345  27.516  11.540
31859W        W91604  11.699  16.579   3.672
31860W        W91605  34.085  38.917   3.359
31861W        W91606  33.586  11.704  11.039
31862W        W91607   4.331  28.523   3.191
31863W        W91608  20.139   2.746   1.804
31864W        W91609  13.805  20.077  11.413
31865W        W91610  44.816  36.588  14.958
31866W        W91611  12.120  12.281  11.599
31867W        W91612  36.900  24.725   0.730
31868W        W91613  18.639  27.017   4.244
31869W        W91614  38.893  14.294   2.415
31870W        W91615  13.727  22.553  11.014
31871W        W91616  43.273  37.465  11.541
31872W        W91617  21.732   4.332   0.748
31873W        W91618  31.429  32.902   9.921
31874W        W91619  28.560  26.127  13.060
31875W        W91620  27.081  15.779  13.323
31876W        W91621   9.247  22.594  10.517
31877W        W91622   1.854  26.580  11.443
31878W        W91623  28.978   7.388   1.769
31879W        W91624  20.664   4.360   0.838
31880W        W91625  34.563  21.529  14.881
31881W        W91626  30.630  20.704  11.905
31882W        W91627  19.221  26.667   2.819
31883W        W91628  31.148  29.164   4.191
31884W        W91629  19.117  28.582   0.839
31885W        W91630  19.744  23.659  12.472
31886W        W91631   5.340  34.088   4.695
31887W        W91632  11.370  41.801   4.617
31888W        W91633  41.506  38.357  14.373
31889W        W91634   6.908   2.391  11.441
31890W        W91635  33.968   8.250   1.341
31891W        W91636  32.558   7.180  11.989
31892W        W91637  38.921  29.176   1.274
31893W        W91638  15.300  36.847  14.374
31894W        W91639   8.784  32.903   1.876
31895W        W91640  24.082  19.621  10.108
31896W        W91641   7.778  43.441   4.602
31897W        W91642  15.737  14.116  13.510
31898W        W91643  39.866  44.279  13.054
31899W        W91644  16.780  11.163  12.964
31900W        W91645  18.139  25.161  10.966
31901W        W91646  42.457  33.470   3.370
31902W        W91647  19.201  31.959   3.157
31903W        W91648  35.096  33.562   4.329
31904W        W91649   1.384  19.594  14.892
31905W        W91650  12.138   8.241   4.328
31906W        W91651   5.780  32.458  14.440
31907W        W91652  30.617  29.022  11.563
31908W        W91653   1.261  40.830   4.782
31909W        W91654  37.481   5.247  13.380
31910W        W91655  34.607   7.237   9.632
31911W        W91656  37.013  27.671   4.600
31912W        W91657  38.915  38.459   4.317
31913W        W91658  14.105   3.815  12.882
31914W        W91659  41.345   9.830   3.375
31915W        W91660   9.712  44.865   0.923
31916W        W91661  11.181   8.269   2.385
31917W        W91662   5.380  14.794   1.857
31918W        W91663  36.985  16.148   4.172
31919W        W91664  18.788  28.141  13.971
31920W        W91665  39.981  39.949   1.387
31921W        W91666  12.795   3.307   4.287
31922W        W91667  24.687   5.280  10.967
31923W        W91668  41.441  28.978  10.926
31924W        W91669   9.163  44.921   0.936
31925W        W91670  25.170   4.839   4.607
31926W        W91671   5.424  13.599   3.849
31927W        W91672  17.731  10.222   3.207
31928W        W91673  37.023  18.276  10.424
31929W        W91674  41.515   9.200   3.357
31930W        W91675  11.261  42.857  14.415
31931W        W91676   3.326  32.005   2.743
31932W        W91677   0.960   5.354  11.574
31933W        W91678  43.305   3.221  12.483
31934W        W91679  35.906  25.111   3.697
31935W        W91680  16.143   1.964  13.464
31936W        W91681  24.684   4.257   1.406
31937W        W91682   4.890  20.679  11.967
31938W        W91683   4.276  41.308  14.859
31939W        W91684  36.508  29.438   1.382
31940W        W91685  27.490  25.039  12.571
31941W        W91686  31.416  13.717  12.384
31942W        W91687   4.409  22.609  13.893
31943W        W91688   9.337   9.885  12.002
31944W        W91689  22.182   9.887   4.121
31945W        W91690  40.454  42.367  12.072
31946W        W91691  35.946  17.270  10.891
31947W        W91692  27.448  25.095   4.797
31948W        W91693  44.766  25.553  14.853
31949W        W91694   9.675  17.119   1.783
31950W        W91695  36.367   3.305  13.456
31951W        W91696  10.353  10.761  10.470
31952W        W91697  44.374  34.071  13.325
31953W        W91698   4.381  43.897  10.569
31954W        W91699  33.059  25.576  14.408
31955W        W91700  37.855  11.624  13.964
31956W        W91701  44.343  44.444   1.789
31957W        W91702  31.597  14.125  12.931
31958W        W91703  12.118  34.389   4.142
31959W        W91704  21.241  38.340   4.121
31960W        W91705  11.639  21.551   4.784
31961W        W91706  40.014  10.223   4.732
31962W        W91707  23.714  13.608  13.472
31963W        W91708  25.998  14.311  14.515
31964W        W91709  43.515  30.618  13.914
31965W        W91710  25.543   5.352  10.468
31966W        W91711  37.902  34.989   2.670
31967W        W91712  35.412  44.989  12.909
31968W        W91713  34.881  30.642  14.453
31969W        W91714   1.417  21.580   1.276
31970W        W91715  38.879  16.645  12.040
31971W        W91716   7.886   7.306  12.980
31972W        W91717   3.229  18.710   2.326
31973W        W91718   4.822  34.456  11.581
31974W        W91719  24.007  40.457  13.344
31975W        W91720  12.151  38.523   3.722
31976W        W91721  43.952  37.474   9.472
31977W        W91722   0.333  17.568   2.668
31978W        W91723   9.645  37.836   0.400
31979W        W91724  21.061   4.300  10.467
31980W        W91725  10.732  14.290  12.089
31981W        W91726   7.206  23.517   2.292
31982W        W91727  12.301  37.027  11.108
31983W        W91728  23.132  16.695   2.684
31984W        W91729  32.971  12.175  13.951
31985W        W91730  33.028   5.278  12.536
31986W        W91731  12.307  24.196  13.531
31987W        W91732  18.220  20.673  14.338
31988W        W91733  26.641  31.935  14.452
31989W        W91734   6.296   0.253  10.639
31990W        W91735   2.276   0.821   1.302
31991W        W91736  30.477  11.155   4.757
31992W        W91737  31.110  37.549   0.806
31993W        W91738  44.447   6.735  12.483
31994W        W91739  27.055  40.033   1.879
31995W        W91740  14.627   3.223  11.447
31996W        W91741  40.496  10.187   0.300
31997W        W91742  36.951  18.145  13.464
31998W        W91743  38.066  27.985  10.463
31999W        W91744  12.818  30.623  12.039
32000W        W91745  34.614  34.453  12.003
32001W        W91746  43.274  23.240  10.638
32002W        W91747   1.769  32.473   2.388
32003W        W91748  21.233  30.112   3.851
32004W        W91749  42.861  17.163   4.630
32005W        W91750  17.669  36.502   1.745
32006W        W91751   1.379  22.589   1.778
32007W        W91752   3.404  27.652  10.023
32008W        W91753  30.156  19.163  12.837
32009W        W91754  11.315  27.146   2.252
32010W        W91755  43.320  14.265  12.874
32011W        W91756  42.288  38.958   1.254
32012W        W91757   1.835  10.800   2.773
32013W        W91758   6.425  16.261  11.541
32014W        W91759  12.653  37.957   1.698
32015W        W91760  29.442  15.724  12.375
32016W        W91761  32.988  40.502   3.279
32017W        W91762   6.393  27.011   2.739
32018W        W91763  28.605  24.990  13.821
32019W        W91764  16.680  26.540   3.275
32020W        W91765  36.472  41.920  11.026
32021W        W91766  19.681   0.921   4.687
32022W        W91767  12.700  11.163  14.296
32023W        W91768   7.812  12.811   2.225
32024W        W91769   0.949   8.696  12.572
32025W        W91770   6.420  29.165   2.903
32026W        W91771  33.881  31.523   3.176
32027W        W91772  26.031  44.841   1.792
32028W        W91773  25.976  36.382  13.532
32029W        W91774  16.686  21.584   2.783
32030W        W91775  35.455  10.201   2.281
32031W        W91776  44.474  43.815  12.836
32032W        W91777  17.206  15.270   4.140
32033W        W91778  40.832  28.644  13.941
32034W        W91779  28.062  41.030  11.894
32035W        W91780  26.702   5.287   4.646
32036W        W91781  36.443   0.303   1.815
32037W        W91782  39.879  28.098  14.794
32038W        W91783  41.020  30.968   3.188
32039W        W91784  42.313  38.405   2.820
32040W        W91785  36.030  13.698  12.896
32041W        W91786  39.529  14.276   2.706
32042W        W91787   0.261  31.477  10.610
32043W        W91788  36.513  34.459  14.304
32044W        W91789  42.935  14.612  11.472
32045W        W91790  43.410   7.312   9.951
32046W        W91791  21.138  38.924  11.946
32047W        W91792  21.149  17.169  14.841
32048W        W91793  44.776   0.827   0.284
32049W        W91794  15.811   3.825   4.795
32050W        W91795   7.390   6.369  13.910
32051W        W91796  40.906   1.399  10.643
32052W        W91797  42.852  19.187  11.493
32053W        W91798  23.175  19.543   0.438
32054W        W91799  34.575  31.914  12.954
32055W        W91800  10.308  24.641   0.359
32056W        W91801  40.924  14.320  14.336
32057W        W91802  13.250  36.081   1.874
32058W        W91803  34.950  34.458   0.964
32059W        W91804  20.253  14.332   1.420
32060W        W91805  21.172  10.758   2.224
32061W        W91806  17.183  12.789  10.905
32062W        W91807   0.410  31.944  13.380
32063W        W91808  19.621  16.683   0.280
32064W        W91809  28.103  21.233  12.469
32065W        W91810  22.523   8.826   1.752
32066W        W91811  33.482  11.245   3.229
32067W        W91812  17.702  41.883  11.900
32068W        W91813   0.839  12.805  13.843
32069W        W91814   1.965  20.205   4.795
32070W        W91815  20.047   4.330   3.379
32071W        W91816  18.287  29.953  10.524
32072W        W91817   2.460  23.155  13.928
32073W        W91818  29.509  26.109  11.395
32074W        W91819   0.440  19.596   0.948
32075W        W91820  23.172  41.377   0.922
32076W        W91821  36.947  41.395   2.744
32077W        W91822   7.820   9.193  11.094
32078W        W91823  22.665   8.775  12.905
32079W        W91824  44.392   8.356   3.276
32080W        W91825  44.469  38.332   1.744
32081W        W91826  39.400  44.783  14.832
32082W        W91827  30.611  12.161  14.428
32083W        W91828  31.111   1.350   2.729
32084W        W91829  14.325  34.095  11.579
32085W        W91830  21.655  15.083  12.949
32086W        W91831   8.215  14.667  13.982
32087W        W91832  16.284  22.719   4.772
32088W        W91833  34.541  40.901  13.850
32089W        W91834   2.780   5.843   0.422
32090W        W91835  16.098  42.969  10.456
32091W        W91836  34.953   5.341   0.414
32092W        W91837  27.548  43.867  13.490
32093W        W91838  36.554  36.061   1.917
32094W        W91839  11.285   4.332  11.406
32095W        W91840  21.262  28.057   0.277
32096W        W91841  11.728  11.688  12.455
32097W        W91842  41.998   1.744  10.445
32098W        W91843   6.391  40.488   4.776
32099W        W91844  23.180  40.441  10.535
32100W        W91845  20.721  36.998   3.294
32101W        W91846  32.092  32.112  12.419
32102W        W91847   6.765  23.148  12.844
32103W        W91848  10.676  35.565  11.593
32104W        W91849  27.109  44.406   1.235
32105W        W91850  38.482  18.603  13.490
32106W        W91851  30.929  16.596   5.320
32107W        W91852  29.043  19.601  14.425
32108W        W91853  44.352  14.725   0.480
32109W        W91854  21.737   8.281  13.456
32110W        W91855  40.435   7.187   0.737
32111W        W91856  15.192  15.582  14.439
32112W        W91857  30.528  21.163   1.862
32113W        W91858  13.202  20.680  10.591
32114W        W91859  19.643  36.941  12.417
32115W        W91860   8.886  16.254   4.838
32116W        W91861  16.093  15.824   3.325
32117W        W91862  39.454  37.449   4.253
32118W        W91863  43.320  39.953  11.014
32119W        W91864  39.058  23.700   0.916
32120W        W91865  30.427  21.613  13.948
32121W        W91866   8.720  20.174   0.480
32122W        W91867  21.204  19.252  11.022
32123W        W91868  21.524  34.931  14.935
32124W        W91869  34.944   0.897  13.010
32125W        W91870  36.357  25.625   2.828
32126W        W91871  42.824  30.537   4.700
32127W        W91872  37.578  14.608   1.445
32128W        W91873  31.454  30.576  12.941
32129W        W91874   0.774   8.706  11.569
32130W        W91875  31.403  27.153  11.993
32131W        W91876  16.588  27.531  14.027
32132W        W91877  24.502  37.572  14.019
32133W        W91878   5.354   4.825  14.888
32134W        W91879  16.662  32.434  11.460
32135W        W91880  12.282  43.851  12.417
32136W        W91881  22.732  12.751  14.323
32137W        W91882   6.785  27.134   4.354
32138W        W91883   7.273  30.919  13.457
32139W        W91884   4.706  12.785  10.610
32140W        W91885   5.690   1.855  11.415
32141W        W91886  43.384  13.299  10.925
32142W        W91887   6.832  40.407  10.919
32143W        W91888  29.427  38.443  11.541
32144W        W91889  40.974  10.742   3.309
32145W        W91890  10.262   8.357   1.714
32146W        W91891  14.618  38.015  13.928
32147W        W91892  36.959  28.597   1.715
32148W        W91893   6.341   5.808  14.815
32149W        W91894   5.870   5.918   0.808
32150W        W91895  30.570   5.906  14.855
32151W        W91896  30.964  29.013  11.907
32152W        W91897  38.957   2.898  12.526
32153W        W91898  36.079  20.170   0.815
32154W        W91899   5.721  41.343   1.876
32155W        W91900  13.720  32.142  11.875
32156W        W91901  40.333   6.413  11.440
32157W        W91902   0.833  11.664  13.490
32158W        W91903  12.671  25.521   2.790
32159W        W91904  22.543   5.319  14.786
32160W        W91905  22.148  44.881   2.817
32161W        W91906  43.780   4.920   1.334
32162W        W91907  28.969  37.419  11.613
32163W        W91908  33.609  22.025   3.787
32164W        W91909  34.864  37.473  11.887
32165W        W91910   7.184  27.568  12.503
32166W        W91911   6.426  37.919  11.455
32167W        W91912  10.358  18.098  13.057
32168W        W91913  17.697   5.921  10.512
32169W        W91914  32.912  17.730   0.385
32170W        W91915  14.297  38.361   2.829
32171W        W91916  40.480   4.751  13.820
32172W        W91917   4.782  36.043  12.486
32173W        W91918  12.785  14.826  12.558
32174W        W91919   4.932   5.733   2.213
32175W        W91920  43.999  35.571  11.979
32176W        W91921  37.384  18.786  10.961
32177W        W91922  28.016  36.576  11.596
32178W        W91923   0.885  13.328  11.894
32179W        W91924  12.820   6.288  14.821
32180W        W91925  31.495  15.171  13.058
32181W        W91926  28.003  26.200   1.237
32182W        W91927   3.743  38.358   4.218
32183W        W91928  34.536  11.262  10.438
32184W        W91929  39.984  10.243  10.916
32185W        W91930  40.015  30.152   2.209
32186W        W91931  38.969  42.969  10.140
32187W        W91932  42.434  27.959   1.265
32188W        W91933  42.512  16.724  10.570
32189W        W91934   1.304  17.716   0.332
32190W        W91935  34.904  22.663   4.239
32191W        W91936   5.416   8.193   2.818
32192W        W91937  44.788   7.908  13.322
32193W        W91938  36.578  15.287  13.838
32194W        W91939  30.035  40.478  10.465
32195W        W91940  15.138  11.857  13.459
32196W        W91941  22.643  40.941  11.923
32197W        W91942  28.539   3.921  11.562
32198W        W91943  18.580  39.006   0.311
32199W        W91944  35.594  36.384   2.322
32200W        W91945  40.885   6.220   3.835
32201W        W91946  40.917  14.664  11.115
32202W        W91947   7.712   8.189   0.320
32203W        W91948   9.764  15.800  11.048
32204W        W91949   3.903  14.687   4.301
32205W        W91950  34.088   6.363  11.094
32206W        W91951   5.803  20.587   0.263
32207W        W91952  38.028  20.151   1.215
32208W        W91953  31.979  30.617   2.832
32209W        W91954  29.574  20.169   0.806
32210W        W91955  22.530  44.911   1.801
32211W        W91956   2.234  37.384   3.372
32212W        W91957  39.875  40.042  13.472
32213W        W91958   2.320  30.999  11.065
32214W        W91959  39.919  21.046   3.377
32215W        W91960  17.732  12.855  11.879
32216W        W91961   8.364  43.325   2.337
32217W        W91962   9.361  25.173  14.856
32218W        W91963   5.813  21.633   3.309
32219W        W91964  23.604  28.491   4.612
32220W        W91965  40.461  28.630  12.415
32221W        W91966  41.024  41.846  13.365
32222W        W91967  27.638   0.975   3.696
32223W        W91968  35.490  18.585  13.475
32224W        W91969  16.626   7.405  12.025
32225W        W91970   2.822  23.654  12.951
32226W        W91971  38.511  10.705  11.469
32227W        W91972  25.703  28.478   1.296
32228W        W91973  10.359  39.429   3.797
32229W        W91974   1.346  35.965  12.494
32230W        W91975  43.430  13.842  10.574
32231W        W91976  34.377  29.651  12.991
32232W        W91977   9.837  10.249   0.918
32233W        W91978   2.748   7.367  13.546
32234W        W91979  42.002  14.731  12.016
32235W        W91980   4.774  40.020   4.273
32236W        W91981  41.788  15.809   5.307
32237W        W91982  18.568  40.441  14.399
32238W        W91983  11.316  11.262   2.807
32239W        W91984  18.255   0.748  14.458
32240W        W91985  33.950  40.488   1.909
32241W        W91986  17.628  10.195  13.893
32242W        W91987   5.419  13.238  14.418
32243W        W91988  26.636  29.974  11.090
32244W        W91989  19.091   5.377  14.797
32245W        W91990  38.428  21.235   3.790
32246W        W91991   7.893  11.172   3.280
32247W        W91992  10.187  32.519  10.641
32248W        W91993  17.689   2.445  12.891
32249W        W91994  13.154  10.791   0.483
32250W        W91995  19.617  43.390  12.513
32251W        W91996  18.775  31.960  10.412
32252W        W91997  23.102  42.514  13.865
32253W        W91998  24.705   9.830  14.308
32254W        W91999  28.641  44.938   3.663
32255W        W92000  21.619   9.675  14.295
32256W        W92001  21.154  42.497   3.637
32257W        W92002  15.705  35.976   3.799
32258W        W92003  19.557  27.607  12.511
32259W        W92004   9.272  14.798  12.880
32260W        W92005  11.805  15.194   3.221
32261W        W92006  11.153  33.602   3.368
32262W        W92007   2.830  23.097   5.729
32263W        W92008  10.656  32.636   0.269
32264W        W92009   5.837   9.243   2.293
32265W        W92010  29.465  14.281   2.720
32266W        W92011  20.658  31.007   1.871
32267W        W92012   4.391  36.023   4.824
32268W        W92013  26.049  44.791  12.427
32269W        W92014  32.989  30.125   1.889
32270W        W92015  33.482  33.067  12.481
32271W        W92016  11.151   6.336   2.803
32272W        W92017  10.308  19.601   0.894
32273W        W92018   8.240  44.877   4.230
32274W        W92019  19.062  20.559   2.792
32275W        W92020  26.078  13.699   9.541
32276W        W92021   6.245  43.344  11.009
32277W        W92022  14.654   5.878   3.776
32278W        W92023  11.327  36.401   3.735
32279W        W92024  29.479  24.983   2.230
32280W        W92025  17.599  43.367   0.349
32281W        W92026  13.176  41.861  13.794
32282W        W92027  33.118  18.593   2.399
32283W        W92028  29.620  31.585   0.776
32284W        W92029  15.675   2.237  11.522
32285W        W92030  35.888   0.764   0.424
32286W        W92031  44.894  20.138  12.346
32287W        W92032  24.059  27.948  12.053
32288W        W92033   7.271  43.369   2.191
32289W        W92034  40.549   5.348   3.277
32290W        W92035  26.020  35.908   4.631
32291W        W92036   5.832  37.838  14.788
32292W        W92037  43.458  18.135   2.791
32293W        W92038   9.325  34.509   1.830
32294W        W92039  20.189   6.751  11.915
32295W        W92040  20.715  39.958   1.765
32296W        W92041  21.050  36.551   2.351
32297W        W92042  36.853   1.911   1.771
32298W        W92043   3.297   3.433   2.258
32299W        W92044  37.504  32.134  12.012
32300W        W92045  14.736  36.993  14.935
32301W        W92046   9.806  14.643  12.551
32302W        W92047  43.426  37.386  14.938
32303W        W92048  27.071  37.536   0.786
32304W        W92049   2.335  35.453  12.922
32305W        W92050   1.750  25.173  11.581
32306W        W92051   8.293  42.791  12.423
32307W        W92052   3.351  21.716   5.243
32308W        W92053   7.737  36.459  11.592
32309W        W92054   4.931  15.101   4.737
32310W        W92055  16.620  14.765  13.397
32311W        W92056  20.586  17.556  12.540
32312W        W92057  42.778  25.561   0.271
32313W        W92058  19.207  16.105   2.702
32314W        W92059  41.418  42.370  12.508
32315W        W92060  12.834  37.037  13.363
32316W        W92061  19.141   9.744  11.993
32317W        W92062  29.027  38.401   4.834
32318W        W92063  36.392  32.886  12.895
32319W        W92064  23.686   5.719   4.668
32320W        W92065  39.319  34.035   3.834
32321W        W92066   9.306   4.706  11.923
32322W        W92067  31.006   4.359   2.340
32323W        W92068  25.588  30.999   9.991
32324W        W92069   1.859  38.349  13.830
32325W        W92070  11.759  26.614  13.380
32326W        W92071  21.033   6.762   1.335
32327W        W92072  10.308  12.324   1.319
32328W        W92073  32.928  11.721  14.374
32329W        W92074  36.024   1.750  13.041
32330W        W92075  38.954  11.354  11.043
32331W        W92076  15.091  32.601  11.084
32332W        W92077  13.842  23.500  13.900
32333W        W92078   0.925   4.720   2.367
32334W        W92079  20.251  12.645  13.522
32335W        W92080   8.732  28.162   3.680
32336W        W92081  44.325  35.106   2.676
32337W        W92082  23.575  27.650  13.466
32338W        W92083   2.825  27.098  11.124
32339W        W92084  20.570  37.886   0.930
32340W        W92085  31.978  22.073  14.355
32341W        W92086  27.484  11.680  10.466
32342W        W92087  24.208  38.325  13.020
32343W        W92088   4.323  13.339  13.024
32344W        W92089  36.931  21.622   2.826
32345W        W92090  26.666  12.183   2.392
32346W        W92091  36.846   2.742  11.491
32347W        W92092   3.952  27.097  11.524
32348W        W92093  44.465  37.873   0.265
32349W        W92094  26.190  36.061  14.892
32350W        W92095   5.749  18.648   0.431
32351W        W92096  25.061  39.448   2.847
32352W        W92097   3.729  31.592  14.308
32353W        W92098  43.371  25.622  11.546
32354W        W92099  29.471  16.132   3.809
32355W        W92100   1.281   9.724  13.837
32356W        W92101  15.606  25.054  13.063
32357W        W92102   2.421  11.853   3.755
32358W        W92103  10.740  25.179  11.999
32359W        W92104  40.910   4.852   9.923
32360W        W92105  42.778   1.831  12.444
32361W        W92106  23.002  28.568  12.015
32362W        W92107   4.234  12.654  12.483
32363W        W92108  15.174   2.927  11.942
32364W        W92109  22.247  23.555   4.639
32365W        W92110  20.116  21.740   0.459
32366W        W92111  14.187   6.307   2.200
32367W        W92112  42.944   5.282   2.407
32368W        W92113  29.613  20.194   0.294
32369W        W92114  14.653   6.289  11.986
32370W        W92115  13.607  27.060   3.743
32371W        W92116  13.785   7.717   1.258
32372W        W92117  15.660   4.294   4.824
32373W        W92118  24.056  23.991   4.789
32374W        W92119   7.852  18.627   3.772
32375W        W92120  16.202  36.972  13.991
32376W        W92121  21.179  31.584   0.249
32377W        W92122  36.416  24.080   1.225
32378W        W92123   7.402   6.739  14.848
32379W        W92124  16.594  42.853  11.932
32380W        W92125  32.114  35.955  10.934
32381W        W92126  33.494  19.563  13.352
32382W        W92127  34.545   9.843  13.396
32383W        W92128  16.625  26.017  13.967
32384W        W92129  35.109  13.210  12.417
32385W        W92130  37.013  26.660  12.490
32386W        W92131   7.331   9.371   0.944
32387W        W92132  38.557  44.006   3.344
32388W        W92133   7.312   9.373   3.681
32389W        W92134  20.083  40.846   2.263
32390W        W92135  19.625  40.040   4.661
32391W        W92136  20.227  42.954   2.382
32392W        W92137  34.515  40.353  13.969
32393W        W92138  14.751  34.550   3.657
32394W        W92139   9.175  25.975  10.950
32395W        W92140  40.940  14.139  11.968
32396W        W92141  24.525  38.055   0.478
32397W        W92142   7.835  30.070  11.583
32398W        W92143   0.276   2.295  11.959
32399W        W92144  13.743  23.085   1.894
32400W        W92145   5.346  19.185  14.451
32401W        W92146   9.884  34.112  11.924
32402W        W92147  43.819  33.613  10.542
32403W        W92148  12.692   5.304  14.888
32404W        W92149  27.150  27.564  14.887
32405W        W92150  29.455  12.852   1.358
32406W        W92151  44.287  42.830   0.251
32407W        W92152   5.213   7.339  14.340
32408W        W92153  42.941  33.959   4.750
32409W        W92154  19.147   0.298   0.812
32410W        W92155   6.314  39.867   1.387
32411W        W92156  10.701  10.355   3.350
32412W        W92157  29.999  37.509  13.988
32413W        W92158  38.072  19.742  10.922
32414W        W92159  39.402  10.147   1.369
32415W        W92160  29.477  22.088   3.841
32416W        W92161  39.955  41.519   4.604
32417W        W92162  10.327  29.081   1.694
32418W        W92163  23.524  40.860  12.456
32419W        W92164  22.081   2.810   1.450
32420W        W92165  36.406  29.455   2.354
32421W        W92166  41.322  30.549  13.367
32422W        W92167  32.607   0.938  12.388
32423W        W92168  26.659  29.423  13.872
32424W        W92169  12.183  39.372  11.546
32425W        W92170  17.169  11.853  12.464
32426W        W92171  28.604  18.702   0.472
32427W        W92172   4.381  14.670  10.891
32428W        W92173  26.044  13.623  12.056
32429W        W92174  42.424  21.210   4.125
32430W        W92175   0.779  23.544  14.880
32431W        W92176  22.647  40.349  13.368
32432W        W92177   4.783  29.590  13.501
32433W        W92178  37.425  42.953   0.414
32434W        W92179   3.904  26.622  11.419
32435W        W92180   4.287  38.866   0.830
32436W        W92181  30.138   4.787  12.469
32437W        W92182  21.181  36.062   2.799
32438W        W92183  21.101   5.792   9.992
32439W        W92184  29.552   4.780  13.834
32440W        W92185   8.177  10.219   4.796
32441W        W92186  43.346  36.965   4.234
32442W        W92187  11.348   7.706  12.506
32443W        W92188  33.113  28.591   2.241
32444W        W92189  38.949  41.309  13.439
32445W        W92190  13.329  22.023  12.569
32446W        W92191  36.529   5.287   3.758
32447W        W92192   8.293  16.115  14.030
32448W        W92193  22.719  14.253   3.368
32449W        W92194  26.658   4.283  12.910
32450W        W92195  10.300  17.085  14.948
32451W        W92196  29.572  22.154  11.058
32452W        W92197  10.797  24.644   3.826
32453W        W92198  15.256  38.400   2.894
32454W        W92199  28.551  28.174   3.214
32455W        W92200  10.727  35.514  10.151
32456W        W92201   3.718  35.930  13.975
32457W        W92202  20.059  12.801  11.982
32458W        W92203   7.672  20.727  14.373
32459W        W92204  35.024   0.278   1.778
32460W        W92205  15.099  12.306   2.728
32461W        W92206  17.104   4.296   0.381
32462W        W92207  41.364   0.963   2.267
32463W        W92208  38.922   2.753   3.362
32464W        W92209  20.533  40.313   3.195
32465W        W92210  25.089  10.348   2.201
32466W        W92211  33.619  34.403  14.946
32467W        W92212   7.802   2.236  14.794
32468W        W92213   6.821   6.778   1.273
32469W        W92214   0.444  29.633  14.361
32470W        W92215  38.893  34.502   1.891
32471W        W92216  20.264  19.666   3.736
32472W        W92217  30.552  23.152   2.767
32473W        W92218   3.277  12.135   1.232
32474W        W92219   8.385  20.601   3.382
32475W        W92220  36.895  20.614  14.944
32476W        W92221  39.812  12.719   4.671
32477W        W92222  31.945  41.005   4.163
32478W        W92223   6.187  22.645   1.228
32479W        W92224  17.182  19.577   2.261
32480W        W92225  14.310  15.717  11.912
32481W        W92226  36.451  14.220  11.938
32482W        W92227  25.986  34.401   2.193
32483W        W92228  36.454  13.742  11.449
32484W        W92229  10.682   1.277  10.433
32485W        W92230  37.484  22.184   0.794
32486W        W92231  36.550  41.533   0.912
32487W        W92232   8.811  44.276   0.434
32488W        W92233  43.834   1.470   4.779
32489W        W92234  29.964  11.347  14.012
32490W        W92235  40.318   9.770  13.063
32491W        W92236  37.960  39.545   0.321
32492W        W92237  43.853   3.408   0.387
32493W        W92238  37.911  31.616   4.247
32494W        W92239  43.990  11.697  12.828
32495W        W92240  21.704  31.068   2.335
32496W        W92241  23.607  24.084   1.828
32497W        W92242  29.956   7.384  11.450
32498W        W92243  44.872  15.795   3.301
32499W        W92244  15.737  28.942   4.188
32500W        W92245   2.419   6.271   5.273
32501W        W92246  23.696  34.064   9.462
32502W        W92247  22.541   5.420   1.729
32503W        W92248  14.210  15.577   1.727
32504W        W92249   4.863  29.997   4.712
32505W        W92250  18.611  28.936  10.910
32506W        W92251  34.579  42.936   1.791
32507W        W92252  10.296  35.024   4.615
32508W        W92253   2.937  35.033  13.845
32509W        W92254  18.669  42.409   4.165
32510W        W92255  25.215  26.674  14.798
32511W        W92256   5.219  44.268   1.898
32512W        W92257  20.189  11.162   4.276
32513W        W92258  34.391  35.428  14.797
32514W        W92259  44.367   2.264  13.412
32515W        W92260  26.116  39.337   2.315
32516W        W92261  30.108  18.764  10.159
32517W        W92262  34.410  18.240   2.670
32518W        W92263  27.132  23.043  14.301
32519W        W92264  15.094   0.798   0.953
32520W        W92265  12.168  20.259  10.605
32521W        W92266  41.875  26.518  14.376
32522W        W92267  16.239  25.645   0.894
32523W        W92268  32.041  32.946   1.288
32524W        W92269  41.409  19.197  13.810
32525W        W92270  36.353   5.323  12.574
32526W        W92271   4.410  41.512  13.870
32527W        W92272  40.444   9.251  11.559
32528W        W92273  21.694  14.167  14.930
32529W        W92274  15.149  42.786   4.127
32530W        W92275  28.074  34.601   2.818
32531W        W92276  37.528  23.730  10.021
32532W        W92277   7.866   2.873  12.860
32533W        W92278  24.203  29.529   0.940
32534W        W92279   3.887  13.147  10.483
32535W        W92280  11.762  40.405  13.846
32536W        W92281  24.208   9.775  10.505
32537W        W92282  31.913   6.220   5.680
32538W        W92283  20.558  35.544   0.354
32539W        W92284  43.846   7.237  13.479
32540W        W92285  40.965   2.288  13.038
32541W        W92286   6.252   0.338  10.053
32542W        W92287  11.673   5.826  14.875
32543W        W92288   2.337  41.987  10.600
32544W        W92289  20.033  26.001   1.403
32545W        W92290  33.123  26.117  11.080
32546W        W92291   6.384  10.672  10.496
32547W        W92292  18.081  24.614  10.939
32548W        W92293  18.060  40.997   3.668
32549W        W92294  39.421  38.002  10.992
32550W        W92295  27.506   7.246   4.751
32551W        W92296  29.570  29.437   2.409
32552W        W92297   4.258  25.480   2.895
32553W        W92298  13.232  16.685  12.427
32554W        W92299   5.200  25.515   0.829
32555W        W92300  20.221  42.844   4.229
32556W        W92301  42.495  15.303   3.241
32557W        W92302  17.161  36.453  11.586
32558W        W92303  23.088   1.956  12.920
32559W        W92304  33.128  40.450  13.355
32560W        W92305  19.603  35.050   5.082
32561W        W92306  42.945  29.449  12.968
32562W        W92307  30.554  29.445   0.371
32563W        W92308   2.430  23.544  12.466
32564W        W92309  12.822  27.527   4.706
32565W        W92310  25.660  44.266   2.731
32566W        W92311  43.874   8.332  13.548
32567W        W92312  41.907  44.392   5.097
32568W        W92313  32.044  29.549  10.922
32569W        W92314  33.022  32.007   2.837
32570W        W92315  19.633  10.636   1.281
32571W        W92316  12.346  40.346   2.200
32572W        W92317  32.122  23.704  11.889
32573W        W92318  23.652  37.948  11.058
32574W        W92319  16.173  28.469  12.052
32575W        W92320  26.046  38.403   0.381
32576W        W92321  28.552   1.956  14.918
32577W        W92322  13.735  38.858   2.789
32578W        W92323   1.272   0.748  11.949
32579W        W92324  17.781  35.086   3.668
32580W        W92325   9.167  41.451   3.696
32581W        W92326   1.253  11.149   3.192
32582W        W92327   0.807  41.535   3.378
32583W        W92328  37.859  30.032   2.287
32584W        W92329   8.694  29.921  11.074
32585W        W92330  24.036  28.542   2.847
32586W        W92331   7.323  23.035  14.514
32587W        W92332  31.982  30.470  13.921
32588W        W92333  28.946  13.172   1.407
32589W        W92334  26.684  26.120  13.361
32590W        W92335   9.735   8.377   3.702
32591W        W92336  17.217  21.040   0.336
32592W        W92337  42.882  36.395   2.287
32593W        W92338  41.378  33.063   3.254
32594W        W92339   0.923  24.000  10.571
32595W        W92340  43.412  33.558  10.438
32596W        W92341  39.429  17.614  12.488
32597W        W92342  34.565  37.431  12.576
32598W        W92343  25.055  30.531  10.992
32599W        W92344  24.707  11.639  11.401
32600W        W92345   4.703  30.912   4.664
32601W        W92346   9.205  20.058  10.437
32602W        W92347   2.884  39.548   1.438
32603W        W92348  33.550  43.919   1.388
32604W        W92349   9.159  38.431  14.982
32605W        W92350  10.277   8.805  11.413
32606W        W92351  29.089  36.022   2.859
32607W        W92352  18.753  10.787  14.907
32608W        W92353  15.171  31.929  13.827
32609W        W92354  34.016  15.596  12.455
32610W        W92355  16.101  11.687  10.086
32611W        W92356   0.374  15.583   4.117
32612W        W92357  38.055   1.251  11.401
32613W        W92358  12.359  40.802   4.321
32614W        W92359  23.157   0.768  13.824
32615W        W92360   1.393  15.731  10.429
32616W        W92361  13.180   3.906   2.740
32617W        W92362   6.290  15.783   2.397
32618W        W92363   7.897  19.593  12.505
32619W        W92364  16.574  30.046   2.791
32620W        W92365   3.238  31.596   2.806
32621W        W92366  16.648  11.346  12.459
32622W        W92367  31.124  14.332   0.444
32623W        W92368   6.304  44.775   1.726
32624W        W92369  27.570  34.005  11.967
32625W        W92370  19.564  24.182  10.639
32626W        W92371   4.318   3.826   3.740
32627W        W92372  27.952  10.149  11.887
32628W        W92373  42.367  32.621  10.499
32629W        W92374  10.203  37.475   1.232
32630W        W92375  16.668  39.486  13.330
32631W        W92376  36.882  20.530  13.900
32632W        W92377  42.033  41.863   2.707
32633W        W92378  12.270  25.991   1.930
32634W        W92379  12.319  30.477   0.263
32635W        W92380   4.798  36.091  11.943
32636W        W92381  27.690   8.895   2.741
32637W        W92382  26.640   1.337  10.918
32638W        W92383  33.615   8.279   0.479
32639W        W92384   9.207  24.094  13.437
32640W        W92385  19.181  14.593  11.417
32641W        W92386  18.556   7.356  11.014
32642W        W92387  30.037  31.982   1.215
32643W        W92388   4.392   3.735   1.813
32644W        W92389  34.528   2.376   3.804
32645W        W92390  44.922  12.219   4.762
32646W        W92391  21.643  41.009  14.409
32647W        W92392  23.240  11.275  10.473
32648W        W92393  15.311  25.172  11.114
32649W        W92394  43.362  34.449   3.804
32650W        W92395  31.469  16.129  14.929
32651W        W92396  21.142  31.475   1.371
32652W        W92397  44.986  14.098   4.654
32653W        W92398  38.854   1.969  10.453
32654W        W92399  33.543   8.345  12.911
32655W        W92400   9.214  39.469   3.181
32656W        W92401  19.209   9.179   0.310
32657W        W92402   0.958  35.526  10.134
32658W        W92403  31.629  26.990   0.376
32659W        W92404  29.045  43.884   3.660
32660W        W92405  43.980   1.255   0.251
32661W        W92406  20.176  41.490  11.012
32662W        W92407  21.743  11.661  10.485
32663W        W92408   4.357  34.061  14.766
32664W        W92409  41.957  38.395   1.340
32665W        W92410   7.277  37.454  14.881
32666W        W92411  26.531   7.330   0.856
32667W        W92412  39.927  44.263   3.157
32668W        W92413  14.328  40.021  14.990
32669W        W92414  17.567   2.424  11.967
32670W        W92415  24.032   3.763   4.649
32671W        W92416  41.473  44.934  10.608
32672W        W92417  30.426  12.724  14.989
32673W        W92418  41.946   2.814   2.795
32674W        W92419  24.644  18.111   0.439
32675W        W92420  28.458  32.916   0.256
32676W        W92421   5.731  34.964   3.790
32677W        W92422   1.258  13.152   2.698
32678W        W92423  24.496  16.662  13.433
32679W        W92424  28.521  22.619  13.841
32680W        W92425  36.973  28.039   4.146
32681W        W92426  14.790  19.566   3.189
32682W        W92427   6.337  30.072   2.761
32683W        W92428  20.531  31.119  11.522
32684W        W92429  21.134  17.240  11.499
32685W        W92430  34.565   8.390   2.825
32686W        W92431   5.922  31.111  14.853
32687W        W92432  19.714  34.393   1.401
32688W        W92433  15.808  20.623  12.067
32689W        W92434   7.737  19.746   4.314
32690W        W92435   4.266  23.507  10.936
32691W        W92436  18.581  38.912  14.789
32692W        W92437  11.734   4.763  12.478
32693W        W92438   1.356  10.374  13.448
32694W        W92439   9.207  13.799   0.437
32695W        W92440  28.137  31.100  14.964
32696W        W92441  20.095  29.669   4.760
32697W        W92442  29.667  36.483   3.822
32698W        W92443  28.661  22.162   4.707
32699W        W92444  26.964  29.479  10.492
32700W        W92445  36.952  42.805  14.888
32701W        W92446  28.565   4.717  12.052
32702W        W92447  43.369  29.531  12.087
32703W        W92448  44.899  10.694  14.425
32704W        W92449  43.790  22.012   3.333
32705W        W92450  27.052  15.188   3.773
32706W        W92451  11.127  29.168   1.265
32707W        W92452   3.782   3.752  12.852
32708W        W92453  39.853  16.112   0.303
32709W        W92454  37.570  39.538  10.938
32710W        W92455  22.571  27.009   2.413
32711W        W92456  20.583  24.974   3.655
32712W        W92457   0.848   1.805   2.309
32713W        W92458   3.935   4.741  14.863
32714W        W92459   8.320  12.826  10.559
32715W        W92460  27.196  34.479  11.598
32716W        W92461  41.368  31.061   2.891
32717W        W92462   9.315  28.521  10.960
32718W        W92463  10.303   5.826  14.946
32719W        W92464  18.205  11.808  14.023
32720W        W92465  38.437  18.106  11.022
32721W        W92466  16.576  27.555   3.727
32722W        W92467  41.481   0.748   5.177
32723W        W92468  41.951  26.495  11.532
32724W        W92469  21.138  30.468  13.826
32725W        W92470  37.459  14.753  10.911
32726W        W92471  37.988  15.694  11.051
32727W        W92472  23.625   3.265   1.857
32728W        W92473  15.223  25.665  10.900
32729W        W92474  18.672  15.806   4.632
32730W        W92475  43.406  28.937   4.167
32731W        W92476  33.892  21.585  13.905
32732W        W92477  16.687  14.305   2.253
32733W        W92478  13.115  34.552   4.217
32734W        W92479  11.672  28.640   1.221
32735W        W92480  24.588  32.005   0.453
32736W        W92481  25.968  14.742   1.868
32737W        W92482  22.568  32.617   1.724
32738W        W92483  19.714  10.796  12.040
32739W        W92484  40.460  44.389  10.893
32740W        W92485   7.883  12.233  12.358
32741W        W92486  13.312  14.788   0.383
32742W        W92487   6.413  12.622  12.347
32743W        W92488   6.676  34.582  14.515
32744W        W92489   7.831   1.797  10.488
32745W        W92490   2.444  39.396  13.879
32746W        W92491  41.968  29.571   3.765
32747W        W92492   4.214  39.901  14.410
32748W        W92493  26.203  43.462  14.513
32749W        W92494   5.375  39.485   2.325
32750W        W92495  26.089   0.273  12.079
32751W        W92496  11.240  16.192   2.874
32752W        W92497  20.177  14.202   2.885
32753W        W92498  33.512  12.309   0.352
32754W        W92499  19.662  19.048  12.970
32755W        W92500   6.398  30.619   0.449
32756W        W92501  12.671  28.670   1.834
32757W        W92502  31.048  40.010   4.284
32758W        W92503   5.699  19.204  14.969
32759W        W92504   5.703  29.959  10.595
32760W        W92505  24.718   3.389   4.259
32761W        W92506  40.481  29.508   3.846
32762W        W92507  36.971  15.627  12.046
32763W        W92508   4.766  18.625  11.063
32764W        W92509  20.090   3.294  10.635
32765W        W92510  40.460  25.142  11.093
32766W        W92511   2.265  24.579   0.856
32767W        W92512  12.853   3.457  12.374
32768W        W92513  23.655  26.058  14.396
32769W        W92514  20.063  11.201   4.718
32770W        W92515   1.741   7.295  10.574
32771W        W92516  12.264  13.810  11.387
32772W        W92517  23.005  35.107   0.289
32773W        W92518  11.634  11.637  14.950
32774W        W92519   9.200  24.552  13.394
32775W        W92520   7.390   6.832   2.411
32776W        W92521  38.555  11.334  13.873
32777W        W92522  28.139  13.744  14.808
32778W        W92523  33.975   7.897  10.523
32779W        W92524   7.684  35.567  13.973
32780W        W92525  14.817  38.057  12.001
32781W        W92526  18.652  10.220  12.846
32782W        W92527  39.930  25.615  14.004
32783W        W92528  20.665  42.504  10.511
32784W        W92529   5.837  15.157   0.776
32785W        W92530  10.223  35.886  11.384
32786W        W92531   9.207  24.001  13.011
32787W        W92532  44.310   4.433  10.027
32788W        W92533   3.370  14.316   2.781
32789W        W92534  36.485  31.526  14.284
32790W        W92535   3.449  29.473   3.677
32791W        W92536  43.772  21.115  14.391
32792W        W92537   1.325  26.205   3.168
32793W        W92538   5.703  44.969  13.846
32794W        W92539  22.573  22.706   2.190
32795W        W92540  31.575   3.925   0.423
32796W        W92541  15.823   1.733   1.414
32797W        W92542  29.124  24.490   4.169
32798W        W92543   8.160   2.384  12.949
32799W        W92544  37.403  33.992  14.329
32800W        W92545   0.304  16.219   3.869
32801W        W92546  19.049  44.824   0.474
32802W        W92547  22.520   2.346  14.016
32803W        W92548  18.216  28.448   3.787
32804W        W92549  18.118  34.600  12.355
32805W        W92550  43.431   2.281   0.731
32806W        W92551  28.569  30.633   1.415
32807W        W92552  28.016   6.280   1.249
32808W        W92553  13.687  38.445   1.755
32809W        W92554  12.229  18.723   4.628
32810W        W92555   8.791   3.245   4.148
32811W        W92556  24.054  28.497  14.759
32812W        W92557  42.493  31.614   4.189
32813W        W92558  10.284  37.443   5.147
32814W        W92559  40.305  26.202  14.335
32815W        W92560   5.196  37.861  10.572
32816W        W92561   2.897   7.906   2.282
32817W        W92562   2.378   9.813   3.770
32818W        W92563  23.225  44.360   3.809
32819W        W92564  33.432   6.234  13.356
32820W        W92565  34.393  38.552  14.851
32821W        W92566  12.274  30.950  14.808
32822W        W92567   8.856   0.919  12.850
32823W        W92568  33.473   8.215   3.249
32824W        W92569  10.724   8.347   0.886
32825W        W92570  35.604   9.367   3.755
32826W        W92571   2.336  41.900   3.752
32827W        W92572  30.436  42.518  12.513
32828W        W92573  12.791   5.783   2.807
32829W        W92574   1.873  27.151   4.240
32830W        W92575   8.815   8.324   1.211
32831W        W92576  17.778  21.635  11.521
32832W        W92577  33.877  13.747  14.765
32833W        W92578  17.270  31.477   2.822
32834W        W92579  25.996  32.979  12.362
32835W        W92580  21.074  31.448  13.839
32836W        W92581   0.778  35.463   4.718
32837W        W92582  28.089  42.391   3.821
32838W        W92583   7.369  40.797   2.339
32839W        W92584   1.475  10.297  11.002
32840W        W92585   0.807   1.301   0.457
32841W        W92586  13.640  19.179  12.982
32842W        W92587  23.645  17.798   3.759
32843W        W92588  29.590   2.741  13.835
32844W        W92589  28.502  34.448  14.306
32845W        W92590  34.942  30.018   4.238
32846W        W92591  31.976   5.363   0.957
32847W        W92592  25.123   5.407   0.873
32848W        W92593  40.431   0.455   3.806
32849W        W92594   3.397  22.140  13.851
32850W        W92595   9.381  36.502  12.465
32851W        W92596  21.115  20.118  14.865
32852W        W92597  41.499  20.745  10.945
32853W        W92598  20.719  36.008   1.837
32854W        W92599   0.867   7.202  13.548
32855W        W92600  12.728   3.884  11.862
32856W        W92601  17.650  23.533   0.322
32857W        W92602  41.407   6.718   4.761
32858W        W92603   5.269  10.855   1.302
32859W        W92604  11.692   8.672  11.556
32860W        W92605  19.775  14.229   0.809
32861W        W92606  12.290  39.038  10.529
32862W        W92607  11.345  44.848   2.692
32863W        W92608   1.960  21.174   0.354
32864W        W92609  26.469  43.839  11.936
32865W        W92610  20.650   4.212  12.377
32866W        W92611  34.981  34.414   3.185
32867W        W92612   1.960  42.426  13.424
32868W        W92613  30.634  29.922  13.414
32869W        W92614  28.146  33.396  10.523
32870W        W92615  38.999  11.867  11.010
32871W        W92616   6.198  26.042  10.895
32872W        W92617  11.815   2.311   1.875
32873W        W92618  22.182  13.683  13.051
32874W        W92619  20.200   6.201  14.012
32875W        W92620  34.586   0.302  11.083
32876W        W92621  31.616  33.970   3.703
32877W        W92622  19.175  31.643   0.265
32878W        W92623  36.023   2.761   2.724
32879W        W92624  37.553  30.110   0.902
32880W        W92625  38.474   9.360   3.721
32881W        W92626   6.190  42.363  13.456
32882W        W92627   4.398   9.302   0.347
32883W        W92628  40.510   5.349   2.676
32884W        W92629  32.929  19.726  12.414
32885W        W92630  11.230  29.668  11.932
32886W        W92631   6.864  25.695   3.731
32887W        W92632  25.981  17.768   0.269
32888W        W92633  10.853  33.604   0.893
32889W        W92634  19.671  21.233  13.460
32890W        W92635  28.100  27.555   1.260
32891W        W92636  14.821  43.906  14.926
32892W        W92637  28.967  25.085   5.117
32893W        W92638  38.484  43.514   4.626
32894W        W92639   2.749  18.546  10.107
32895W        W92640  29.664  30.634   3.237
32896W        W92641  44.307   1.736   0.480
32897W        W92642   4.797  39.528  12.503
32898W        W92643  13.633  34.882   2.206
32899W        W92644  41.867  22.663  12.957
32900W        W92645  30.017  34.904  13.437
32901W        W92646  35.912  10.859  14.505
32902W        W92647   4.841  16.172  14.031
32903W        W92648   9.879   7.682   4.625
32904W        W92649  30.535  13.616  10.562
32905W        W92650  18.744   9.670   1.240
32906W        W92651   7.372   0.845  11.434
32907W        W92652  28.029  38.332  14.440
32908W        W92653  21.563  43.323   0.771
32909W        W92654   6.684  43.355  14.836
32910W        W92655  30.529  14.801   4.341
32911W        W92656   8.386   1.426   0.424
32912W        W92657   3.369  43.784   3.857
32913W        W92658   2.323  43.435  14.992
32914W        W92659  44.817  18.688  11.973
32915W        W92660  35.939  31.500   3.721
32916W        W92661  32.097  35.097  12.059
32917W        W92662  19.677  36.592  12.469
32918W        W92663  24.229  37.339  13.826
32919W        W92664   6.299  12.845  12.867
32920W        W92665  26.032   2.916  11.524
32921W        W92666   8.359   8.325   1.742
32922W        W92667  38.005  16.657   2.259
32923W        W92668  35.905  10.871   1.922
32924W        W92669  13.150  39.866  10.154
32925W        W92670   3.762  10.220   3.713
32926W        W92671  23.547  11.788  12.975
32927W        W92672  11.291  40.528   1.247
32928W        W92673  35.371  44.486  11.529
32929W        W92674  37.578  29.458   2.843
32930W        W92675  11.862   9.695   4.144
32931W        W92676  10.711  26.208   0.746
32932W        W92677   7.196  33.477   1.844
32933W        W92678   3.900  27.179  10.999
32934W        W92679  40.916  30.994   0.809
32935W        W92680  28.510  31.541  11.576
32936W        W92681  20.725  38.546   1.236
32937W        W92682  40.372  18.754   5.106
32938W        W92683  12.820  40.984  11.375
32939W        W92684  14.302   0.490   3.708
32940W        W92685   3.949  36.518   1.757
32941W        W92686   2.757  26.490  10.515
32942W        W92687  38.499  28.967  11.426
32943W        W92688  20.534   4.379  11.576
32944W        W92689  39.058   6.905  10.949
32945W        W92690  18.649  12.712  11.448
32946W        W92691  37.998  42.455   2.246
32947W        W92692  12.627  27.615  11.411
32948W        W92693  34.120  39.399   4.136
32949W        W92694   4.829  15.187   1.815
32950W        W92695  36.394   8.351  12.551
32951W        W92696  36.934  33.567   3.721
32952W        W92697  19.229  12.129  10.904
32953W        W92698  18.177  10.259   3.674
32954W        W92699   7.249  27.630  14.018
32955W        W92700  27.030   2.255   3.222
32956W        W92701  30.023  17.178   9.963
32957W        W92702  15.144  10.216  12.856
32958W        W92703  33.977  38.960   1.254
32959W        W92704   5.754  10.196   0.902
32960W        W92705  20.678   8.790   2.761
32961W        W92706  31.068   1.812  13.958
32962W        W92707   7.797  37.847   3.158
32963W        W92708  18.587  14.669  14.949
32964W        W92709  26.536  16.753   2.721
32965W        W92710  14.159  26.630   5.223
32966W        W92711   0.800  25.650   2.403
32967W        W92712  10.158   2.369   3.299
32968W        W92713   4.436  16.305   9.973
32969W        W92714  35.903  42.482  10.588
32970W        W92715   4.347  19.062   0.884
32971W        W92716  44.864  15.581  14.277
32972W        W92717  11.222  40.970   2.312
32973W        W92718  22.175  21.580   0.418
32974W        W92719  12.234  41.386   3.766
32975W        W92720  43.985  15.157   2.291
32976W        W92721   3.221  17.717   2.781
32977W        W92722   0.260  28.641   0.758
32978W        W92723   2.962  17.628   1.448
32979W        W92724  23.034  12.216   4.770
32980W        W92725  24.524  36.572   2.842
32981W        W92726  18.602  33.113   3.718
32982W        W92727  14.738  12.821   4.323
32983W        W92728  36.519  37.558  13.433
32984W        W92729  18.578  42.504  12.517
32985W        W92730  43.348   5.330  11.879
32986W        W92731   7.357  32.416  10.454
32987W        W92732  40.818  26.659   2.722
32988W        W92733  25.692  13.772  13.339
32989W        W92734  21.240  15.695   3.227
32990W        W92735   4.853  30.025   1.750
32991W        W92736  39.003  21.067   2.324
32992W        W92737   8.242   1.286   3.189
32993W        W92738  30.950  34.101  11.933
32994W        W92739  31.923  13.222  10.890
32995W        W92740  42.975   1.356  10.404
32996W        W92741  37.341  44.793  11.912
32997W        W92742  14.307  37.871  12.941
32998W        W92743  44.811  39.355   2.222
32999W        W92744  29.142   2.247  11.470
33000W        W92745  43.931  24.083   3.731
33001W        W92746  37.508  33.976   0.813
33002W        W92747  16.262  32.553   3.156
33003W        W92748  35.905   7.351  10.946
33004W        W92749  20.153  29.176  12.909
33005W        W92750  13.794  32.995   1.438
33006W        W92751  10.760  36.055  12.978
33007W        W92752  38.933  35.596  10.977
33008W        W92753  40.863   5.778   2.376
33009W        W92754   0.258  31.519   4.317
33010W        W92755  27.969   7.674  13.885
33011W        W92756  28.068  20.172  12.892
33012W        W92757  11.658  29.471  13.436
33013W        W92758   7.224  22.626  10.605
33014W        W92759  14.716   4.841   4.153
33015W        W92760  16.099   2.274   2.355
33016W        W92761  29.629  11.184   4.157
33017W        W92762   7.852  21.544   4.328
33018W        W92763  12.122  32.961  12.481
33019W        W92764   9.800   6.792   1.247
33020W        W92765  30.627  23.989  13.844
33021W        W92766   7.416  35.909   3.802
33022W        W92767  32.102   2.817  13.013
33023W        W92768  44.421  22.712   3.329
33024W        W92769   9.178  16.636   1.838
33025W        W92770  14.823  25.599  12.461
33026W        W92771  26.087  35.540  14.333
33027W        W92772  21.056  20.717   4.217
33028W        W92773  24.538  23.055  12.380
33029W        W92774  31.572  14.258  10.922
33030W        W92775   8.378   4.717  14.306
33031W        W92776   2.298  37.004   1.424
33032W        W92777   1.356  14.686  11.916
33033W        W92778  41.905  17.717   2.898
33034W        W92779  15.718  43.997   5.172
33035W        W92780  35.472  22.680  10.098
33036W        W92781  26.548  22.073  14.330
33037W        W92782  32.001  32.472  13.537
33038W        W92783   4.925  35.532   1.852
33039W        W92784  24.077  17.223   3.194
33040W        W92785  20.673  38.931  11.119
33041W        W92786  18.097  16.762   4.182
33042W        W92787  13.725  37.941   0.886
33043W        W92788  31.910  10.267   4.684
33044W        W92789  39.536  13.315  12.411
33045W        W92790   0.353  38.534   1.935
33046W        W92791  41.496   1.787   1.720
33047W        W92792  34.399   0.759  14.914
33048W        W92793   7.765  38.390  10.491
33049W        W92794   6.738  12.129  13.060
33050W        W92795   8.296  25.039  14.442
33051W        W92796  41.493  37.442   2.239
33052W        W92797  42.517  40.847   3.848
33053W        W92798   4.315  22.623   1.820
33054W        W92799  13.631  34.428   4.825
33055W        W92800  43.008  32.540  13.393
33056W        W92801  39.481   6.739   1.910
33057W        W92802  31.561  35.461   3.246
33058W        W92803  18.583  30.611   1.243
33059W        W92804   6.401  24.125   2.279
33060W        W92805   6.318  21.586  10.891
33061W        W92806  11.304  37.968   1.219
33062W        W92807  28.614  36.061  10.434
33063W        W92808  36.868  12.844   3.190
33064W        W92809   0.370   7.787  13.499
33065W        W92810  39.987  13.238   2.781
33066W        W92811  36.397  21.702  13.327
33067W        W92812  40.960  21.611   0.732
33068W        W92813   8.863  15.808  14.849
33069W        W92814  28.049  34.876  11.025
33070W        W92815  21.736  25.018  12.348
33071W        W92816  34.489  29.965   1.748
33072W        W92817  40.938  19.559   0.303
33073W        W92818  24.141  26.468  14.408
33074W        W92819  40.304  28.078  13.886
33075W        W92820  36.031  21.518  13.315
33076W        W92821  20.694  36.970   4.612
33077W        W92822   7.749   0.935  13.500
33078W        W92823  44.320  22.033  13.384
33079W        W92824  29.157  28.504   1.774
33080W        W92825  29.032  36.010   3.363
33081W        W92826  32.895  40.029  14.351
33082W        W92827  19.704   8.313   1.393
33083W        W92828   4.924  44.431   1.797
33084W        W92829   7.834   5.775   2.786
33085W        W92830   3.258  20.755  12.443
33086W        W92831  38.995  13.180  10.478
33087W        W92832  32.121   1.457  11.520
33088W        W92833  23.095  37.929   4.718
33089W        W92834  26.539   2.300  11.028
33090W        W92835   5.931   2.882   0.755
33091W        W92836  16.244  14.674   1.264
33092W        W92837  25.693   4.271  12.932
33093W        W92838  31.534  16.780  14.970
33094W        W92839  20.078  28.612  11.400
33095W        W92840  42.813  21.591   1.892
33096W        W92841   0.810  22.095   4.245
33097W        W92842  22.065  43.839  12.552
33098W        W92843  20.201   1.463   9.472
33099W        W92844   5.772  11.348  10.910
33100W        W92845  18.252  12.851  13.939
33101W        W92846  38.431  11.756  14.785
33102W        W92847   7.904  38.436  11.051
33103W        W92848  22.555  25.479   3.231
33104W        W92849  20.585  12.621   2.756
33105W        W92850  26.507  11.755   1.797
33106W        W92851  22.201  31.420  12.438
33107W        W92852  38.996  33.507   3.288
33108W        W92853  41.791  43.485  11.034
33109W        W92854   1.335   1.252  11.547
33110W        W92855  38.006  44.415   3.790
33111W        W92856  13.709  10.848  11.382
33112W        W92857  12.751   2.397  13.508
33113W        W92858  41.409  30.062   0.957
33114W        W92859  40.985   7.296  14.991
33115W        W92860   0.893   1.401   3.379
33116W        W92861  14.710  40.544   0.839
33117W        W92862  29.945  41.870  13.914
33118W        W92863  27.075  37.408  11.897
33119W        W92864  39.328  20.763  11.604
33120W        W92865  18.688  39.451   1.881
33121W        W92866  27.170  23.729  11.945
33122W        W92867  32.061  41.350  10.993
33123W        W92868  42.460  32.002   2.836
33124W        W92869  28.999  15.797  13.310
33125W        W92870  35.050  14.139  14.320
33126W        W92871   6.226  29.655   3.779
33127W        W92872  33.482  36.977   0.324
33128W        W92873  22.082   7.707   2.369
33129W        W92874  33.599  27.679  12.832
33130W        W92875  28.609  23.135  11.042
33131W        W92876   3.728   0.483   0.415
33132W        W92877  27.180  20.597  14.985
33133W        W92878   7.177  10.258   1.230
33134W        W92879   5.846  20.127   5.232
33135W        W92880  11.372   6.751  11.878
33136W        W92881  18.275  33.413  13.409
33137W        W92882  32.142  16.776   4.599
33138W        W92883   6.194  29.427  13.474
33139W        W92884  21.728  43.324  13.493
33140W        W92885  35.003  20.128   4.156
33141W        W92886  38.015  32.551   0.293
33142W        W92887  13.108  13.206  10.932
33143W        W92888  31.502   3.442   2.674
33144W        W92889  41.368  13.149  10.917
33145W        W92890   8.345  14.773  13.509
33146W        W92891   4.255  17.204  13.054
33147W        W92892  35.586  28.472   2.783
33148W        W92893  14.795  10.341   0.335
33149W        W92894  15.214  21.555   0.384
33150W        W92895   3.914  44.419  14.395
33151W        W92896  10.789  26.673  14.791
33152W        W92897  21.617  15.111  11.079
33153W        W92898  39.503  12.697  13.452
33154W        W92899  35.402  41.443   1.317
33155W        W92900  34.942  27.579  11.463
33156W        W92901  34.881   2.401  11.922
33157W        W92902   6.705   2.852   4.338
33158W        W92903  18.161  39.832   2.689
33159W        W92904  29.985  22.043  11.388
33160W        W92905  13.115  34.611  11.864
33161W        W92906   0.866  21.514  14.394
33162W        W92907   3.350  21.128  14.969
33163W        W92908  27.959   8.394  13.423
33164W        W92909   4.212   7.270   0.467
33165W        W92910  37.425  12.302   3.809
33166W        W92911  33.402  31.919  12.900
33167W        W92912  33.512   4.219   5.109
33168W        W92913  42.888  14.129   2.795
33169W        W92914  11.251  33.479  10.063
33170W        W92915  18.059  25.978  14.899
33171W        W92916  19.744  42.317   1.444
33172W        W92917  41.951  31.507  11.114
33173W        W92918  16.578  11.136   0.404
33174W        W92919  31.634  44.276  13.975
33175W        W92920  42.291  11.711   1.802
33176W        W92921   1.284   2.307   0.857
33177W        W92922   3.819  29.039  14.781
33178W        W92923   7.815  32.602   3.338
33179W        W92924  36.544   7.713  14.499
33180W        W92925  29.437  16.123  13.859
33181W        W92926  27.964  39.838   1.303
33182W        W92927  25.208  42.826  13.328
33183W        W92928  10.820  29.005  10.923
33184W        W92929   9.309  30.067   3.660
33185W        W92930  36.982  10.192  12.406
33186W        W92931  28.602  30.054  14.791
33187W        W92932  36.997   8.734  13.519
33188W        W92933  38.399  31.052  14.476
33189W        W92934  43.772   7.209   4.730
33190W        W92935  13.338  11.196   0.274
33191W        W92936  21.186  32.569  12.523
33192W        W92937  41.938  34.026  10.569
33193W        W92938  12.200  26.654   4.695
33194W        W92939  29.046   6.291   4.133
33195W        W92940  29.116   6.366   0.782
33196W        W92941  21.216  16.662   4.614
33197W        W92942  17.781  25.166   4.335
33198W        W92943  25.999  34.994   1.882
33199W        W92944  26.107  17.601  10.500
33200W        W92945  39.357   9.337   1.873
33201W        W92946  22.565   8.257  13.823
33202W        W92947  17.110   7.764  11.108
33203W        W92948  20.560  22.669  12.026
33204W        W92949  38.385   4.288   2.718
33205W        W92950   4.232  28.096   4.613
33206W        W92951  14.676  27.557   4.754
33207W        W92952   4.392  36.959   1.839
33208W        W92953  41.409   4.235   0.267
33209W        W92954  27.517   1.314  14.404
33210W        W92955   5.855  27.025  14.479
33211W        W92956  27.988  36.939   2.219
33212W        W92957   8.361   4.875  11.573
33213W        W92958  38.846  26.538   0.375
33214W        W92959  44.900  33.525  13.939
33215W        W92960   5.301  35.033  14.951
33216W        W92961  37.413  16.135  13.378
33217W        W92962   8.334  42.896   1.440
33218W        W92963  11.825  36.442  11.402
33219W        W92964   4.755  20.240   4.722
33220W        W92965  21.128  35.006  14.807
33221W        W92966   7.245  16.172  11.872
33222W        W92967  35.967  34.426  14.465
33223W        W92968  24.084  28.583   4.340
33224W        W92969  40.435  28.168  12.444
33225W        W92970  20.252   3.792  13.308
33226W        W92971  27.076  33.015   4.737
33227W        W92972   0.820   6.754   3.715
33228W        W92973  39.514  31.034   1.226
33229W        W92974  13.320  22.212   2.416
33230W        W92975  14.280   8.748   4.212
33231W        W92976  38.490   9.784  13.001
33232W        W92977  43.785   8.756   1.386
33233W        W92978  40.327   2.757   4.829
33234W        W92979  28.050  37.460  13.367
33235W        W92980  11.187   5.841   3.366
33236W        W92981  42.933  23.029   3.721
33237W        W92982  22.620   9.353   2.678
33238W        W92983   3.757  27.179   2.681
33239W        W92984   1.842  12.668  13.484
33240W        W92985  13.164  33.470   1.812
33241W        W92986  13.695  36.976  14.920
33242W        W92987  41.424  14.648   0.347
33243W        W92988   3.744   3.240   0.424
33244W        W92989  24.167  30.159   9.651
33245W        W92990  30.019  28.036  10.049
33246W        W92991  40.359  11.776  10.967
33247W        W92992  33.415  34.982   1.434
33248W        W92993   8.350  34.442  12.926
33249W        W92994   0.325   5.376  12.352
33250W        W92995  20.095  36.391   0.272
33251W        W92996  24.996  44.269   4.658
33252W        W92997  38.554   2.405  12.967
33253W        W92998  41.316  29.459   2.847
33254W        W92999  20.725  32.509  14.010
33255W        W93000  18.597   0.342  12.424
33256W        W93001  32.133  32.909  10.617
33257W        W93002  23.122  26.668  11.454
33258W        W93003  13.763  17.220  13.899
33259W        W93004  40.332  26.124  11.542
33260W        W93005  34.469  22.048  12.982
33261W        W93006  22.683   6.678  10.470
33262W        W93007  28.614  21.626   1.261
33263W        W93008   6.275  27.940  13.850
33264W        W93009  41.988  15.294   4.809
33265W        W93010   6.222  23.685   1.211
33266W        W93011  39.339  24.674  11.986
33267W        W93012  25.651  44.924   1.254
33268W        W93013   5.928  20.653   1.339
33269W        W93014  22.081  20.543  12.438
33270W        W93015  33.597  37.001   3.748
33271W        W93016  26.104  36.377   1.763
33272W        W93017   7.272  17.801  12.426
33273W        W93018  44.300  16.154   1.876
33274W        W93019   5.238  32.420   3.643
33275W        W93020  25.111  13.234   2.778
33276W        W93021  41.501  11.844  14.767
33277W        W93022  38.898   7.226  14.999
33278W        W93023  20.734   5.886   2.750
33279W        W93024  30.446  18.072   1.701
33280W        W93025  21.249  28.592   3.695
33281W        W93026  38.425  15.586   2.193
33282W        W93027  22.640  26.672   9.944
33283W        W93028  42.526  38.520   4.634
33284W        W93029  17.654  28.586   2.201
33285W        W93030   9.887  36.407  12.910
33286W        W93031  32.089   4.711   2.324
33287W        W93032  43.003  27.647  12.948
33288W        W93033  43.859  14.735   4.692
33289W        W93034   7.911  29.082  12.971
33290W        W93035   7.230  42.004  10.951
33291W        W93036  19.251  31.487   3.186
33292W        W93037  31.435  19.599  12.062
33293W        W93038  27.171   1.246  11.065
33294W        W93039  35.524  38.944  11.050
33295W        W93040  38.963  39.917  10.421
33296W        W93041  35.560  23.588   4.603
33297W        W93042  39.382  42.410   2.783
33298W        W93043  10.309  37.468   4.717
33299W        W93044  26.633  39.467  11.967
33300W        W93045  38.838   6.916   0.887
33301W        W93046  12.300  36.849  12.067
33302W        W93047  12.856  29.472  11.410
33303W        W93048   2.299  28.159  10.113
33304W        W93049  15.187  28.081  12.995
33305W        W93050  33.421  22.595   1.412
33306W        W93051  31.918  44.777  12.413
33307W        W93052  16.193  39.032  11.404
33308W        W93053  35.534  27.473   3.833
33309W        W93054  24.215  26.558   5.259
33310W        W93055  32.030  24.995   3.337
33311W        W93056  44.318  18.228   9.952
33312W        W93057  23.150  17.156   1.450
33313W        W93058  14.818  34.517  13.410
33314W        W93059  13.612  18.649   2.867
33315W        W93060  10.710  15.294   4.142
33316W        W93061  39.866  19.197  12.519
33317W        W93062  14.746  39.981   0.909
33318W        W93063  33.945  28.640  10.615
33319W        W93064  35.866  13.260   4.711
33320W        W93065  21.200   6.749  13.828
33321W        W93066  21.127  14.279   1.307
33322W        W93067  15.116  24.203   4.177
33323W        W93068  41.367  15.608   4.826
33324W        W93069  28.680  14.168  13.838
33325W        W93070  22.120   7.731  11.093
33326W        W93071   8.828   1.445  12.023
33327W        W93072  12.260  17.283  11.008
33328W        W93073  26.985  43.339   3.846
33329W        W93074  11.759  30.504   3.321
33330W        W93075  30.623  13.841   1.242
33331W        W93076  27.606  34.967   1.249
33332W        W93077  42.396  43.438  11.891
33333W        W93078  27.038  27.526   4.293
33334W        W93079   6.679  22.636  14.772
33335W        W93080  14.193  31.106   2.344
33336W        W93081  43.907  34.970  12.438
33337W        W93082  14.315  32.573   4.114
33338W        W93083  44.480  18.115   3.723
33339W        W93084  11.639  30.993   3.833
33340W        W93085  13.628  11.703  10.517
33341W        W93086  32.994  21.164  11.578
33342W        W93087  38.990  30.977   1.703
33343W        W93088  41.491  40.445   1.902
33344W        W93089  17.643  32.433  13.490
33345W        W93090   7.289  23.585  10.888
33346W        W93091  41.814   0.859   4.286
33347W        W93092  29.428   1.293   3.187
33348W        W93093   3.429  34.612  12.017
33349W        W93094   4.897  28.435  12.487
33350W        W93095  13.265   0.801   0.446
33351W        W93096  44.790  14.835   4.801
33352W        W93097   1.854  27.613   2.348
33353W        W93098  39.879   7.856  12.078
33354W        W93099  41.450  10.787   0.787
33355W        W93100  15.166  23.546   4.747
33356W        W93101  31.913  27.599  13.986
33357W        W93102  19.148  28.640  10.949
33358W        W93103  16.595  40.355  11.092
33359W        W93104  38.831   9.680   0.312
33360W        W93105  44.754  20.587  10.430
33361W        W93106  34.078  38.830  13.984
33362W        W93107  39.003  28.559  14.959
33363W        W93108   9.306   1.789  10.124
33364W        W93109  39.935   1.906  13.923
33365W        W93110  28.515  44.882  12.009
33366W        W93111   6.335  12.128   2.272
33367W        W93112  30.429  27.627  13.049
33368W        W93113  37.897  10.252  14.976
33369W        W93114  26.484  26.505   1.372
33370W        W93115  20.528  38.483   3.801
33371W        W93116   1.957  25.075   0.809
33372W        W93117  11.835   4.766  11.486
33373W        W93118  15.771  28.048  11.398
33374W        W93119  36.858  25.088  10.546
33375W        W93120  31.488  40.530  13.529
33376W        W93121  37.894  44.406  12.953
33377W        W93122  43.444   7.210  10.476
33378W        W93123   4.940   5.713  14.986
33379W        W93124  42.341  41.429  11.017
33380W        W93125  41.400   6.804   1.859
33381W        W93126  10.205  17.623   1.258
33382W        W93127  22.175  18.148  14.405
33383W        W93128  22.162  18.131   4.805
33384W        W93129  11.822  32.910   0.339
33385W        W93130   8.259  31.493  12.461
33386W        W93131  29.998  21.162  14.834
33387W        W93132  18.062   7.294  13.873
33388W        W93133  21.692  22.589   1.769
33389W        W93134  19.162   3.800   2.760
33390W        W93135   4.237   7.264  13.034
33391W        W93136  29.539   2.831  13.362
33392W        W93137  32.984   0.819  13.017
33393W        W93138  13.237  36.019   0.396
33394W        W93139   5.877  31.639   2.855
33395W        W93140  25.030  42.884  10.550
33396W        W93141  27.476  36.491   3.692
33397W        W93142   9.774  10.644   4.173
33398W        W93143  42.290   7.417  11.560
33399W        W93144  24.702  18.545   2.728
33400W        W93145  17.085   5.772   3.691
33401W        W93146  24.064   2.278   2.826
33402W        W93147  15.733  36.984   4.229
33403W        W93148  22.614  24.663  10.146
33404W        W93149  17.732  16.571   2.323
33405W        W93150  19.242  24.519   3.657
33406W        W93151  33.471  31.600  11.548
33407W        W93152  10.161  29.545   3.276
33408W        W93153  30.523  38.381  13.998
33409W        W93154  33.120  35.398  14.767
33410W        W93155   8.300  17.769   1.316
33411W        W93156   3.822  44.376   1.357
33412W        W93157  19.186  44.762  12.973
33413W        W93158  40.008  14.158   0.451
33414W        W93159   7.251   7.324  11.025
33415W        W93160  24.719  25.509  13.968
33416W        W93161  17.791   4.315  14.948
33417W        W93162  26.586  34.560   4.781
33418W        W93163  20.105   0.821   2.663
33419W        W93164  31.998   6.769  13.811
33420W        W93165  13.700   4.758   3.350
33421W        W93166  29.171  19.735   0.446
33422W        W93167   3.939  37.433  14.442
33423W        W93168   3.890   3.762   4.711
33424W        W93169  38.831   8.701  11.545
33425W        W93170   0.397  17.799  12.381
33426W        W93171  13.242   7.336  12.506
33427W        W93172  32.024  15.623  11.066
33428W        W93173  15.805   5.342  14.818
33429W        W93174   3.262  16.103  14.829
33430W        W93175   7.274  19.669  14.445
33431W        W93176  40.486  16.174  13.416
33432W        W93177   9.373   0.327   4.722
33433W        W93178  29.168   9.726   4.781
33434W        W93179  24.591  30.586  13.345
33435W        W93180  14.701   4.803   2.340
33436W        W93181  39.503  29.042   3.267
33437W        W93182   9.222  30.999   1.245
33438W        W93183  38.999  11.687  13.920
33439W        W93184  26.605  28.965  12.356
33440W        W93185  10.224   6.260   1.239
33441W        W93186  11.172  18.077  12.576
33442W        W93187  35.886  18.152   9.670
33443W        W93188   2.260  23.716  11.463
33444W        W93189   1.285  16.691   1.346
33445W        W93190  36.476  13.669   0.278
33446W        W93191  11.783  24.610   3.843
33447W        W93192   1.738  26.523   0.451
33448W        W93193  34.981  43.987   4.809
33449W        W93194  19.271  21.095  11.433
33450W        W93195  18.063  24.705  11.896
33451W        W93196  40.032  26.526  10.638
33452W        W93197  21.635  17.287  13.039
33453W        W93198  41.531  25.652   3.680
33454W        W93199  23.655  36.843   3.307
33455W        W93200  33.092  40.363   0.382
33456W        W93201  27.593  30.122   1.826
33457W        W93202  24.724   6.396   0.416
33458W        W93203  12.852   1.889  11.857
33459W        W93204  36.931  24.525  11.043
33460W        W93205  32.487  26.632   0.840
33461W        W93206  34.931   8.700  10.985
33462W        W93207  21.731   7.761   3.685
33463W        W93208  28.997   0.916   0.907
33464W        W93209  44.289  37.976  12.957
33465W        W93210  13.125  39.827   3.290
33466W        W93211  24.214  44.755   4.117
33467W        W93212   2.239  15.735   2.242
33468W        W93213  23.663  40.534  11.573
33469W        W93214  29.136  19.747   4.805
33470W        W93215  39.893  44.288  13.905
33471W        W93216  40.351  37.039  13.454
33472W        W93217  21.106  28.436  13.443
33473W        W93218  35.872  15.811   1.772
33474W        W93219  42.011  13.606   1.878
33475W        W93220  31.064  32.006   4.290
33476W        W93221   5.726  24.513   1.699
33477W        W93222  16.636  33.123  11.546
33478W        W93223  24.003  26.083   1.257
33479W        W93224   9.216  36.481   3.637
33480W        W93225  27.618  39.409  10.591
33481W        W93226  24.117  41.854   2.371
33482W        W93227  42.943  43.394  14.797
33483W        W93228   7.195   1.882   1.700
33484W        W93229  27.006  17.589   1.291
33485W        W93230  43.021  29.094  11.965
33486W        W93231  44.858  34.403  13.798
33487W        W93232  33.424   8.678  13.902
33488W        W93233   1.877  17.184   3.192
33489W        W93234  10.759  26.586  12.553
33490W        W93235  36.859  30.119  10.962
33491W        W93236  11.774   6.384   2.846
33492W        W93237  38.400  13.605   4.771
33493W        W93238   6.340  32.029   3.674
33494W        W93239  13.772  24.129  13.366
33495W        W93240  20.149  20.159  13.324
33496W        W93241  36.589  16.761   0.829
33497W        W93242  14.719  23.152  13.356
33498W        W93243   9.239  12.706  10.569
33499W        W93244  44.481  24.505   0.373
33500W        W93245  36.086   0.371   2.387
33501W        W93246  26.643  33.011   2.218
33502W        W93247   3.228  35.572  12.484
33503W        W93248  43.956  13.111  13.030
33504W        W93249  32.964  16.242  11.874
33505W        W93250  38.520  35.485  10.415
33506W        W93251  13.783  36.357  10.075
33507W        W93252  27.541  10.212  12.032
33508W        W93253  31.143  26.521   0.783
33509W        W93254   9.372  43.381   2.202
33510W        W93255  28.501  40.830  12.067
33511W        W93256  18.663  19.213  11.575
33512W        W93257  20.614  42.328  13.462
33513W        W93258  26.662   5.332  14.476
33514W        W93259  34.555   7.725  13.494
33515W        W93260  29.489  25.531   2.872
33516W        W93261  28.153  35.373   0.769
33517W        W93262   4.243   6.745   0.357
33518W        W93263  25.218  34.591   0.323
33519W        W93264  41.992  19.643   1.281
33520W        W93265   2.310  11.159  12.474
33521W        W93266   3.437  41.331  13.518
33522W        W93267  17.652   8.883   3.849
33523W        W93268   2.742  38.473  13.499
33524W        W93269  34.079   4.262   1.838
33525W        W93270  28.085   5.771  10.953
33526W        W93271   4.428   8.849   4.350
33527W        W93272   1.369  10.853  13.382
33528W        W93273  44.789  24.101  11.119
33529W        W93274  32.122   3.849  13.867
33530W        W93275  27.127  19.631   2.392
33531W        W93276  13.252  24.007   3.817
33532W        W93277  23.661  22.677   3.169
33533W        W93278  18.207  27.148   0.844
33534W        W93279  28.024  13.157  12.079
33535W        W93280  13.799  43.849   1.294
33536W        W93281   6.904  14.696   2.199
33537W        W93282  15.735   8.814  10.011
33538W        W93283   6.900  39.831   0.389
33539W        W93284   0.866  16.646   1.780
33540W        W93285   7.865  33.909   2.798
33541W        W93286   2.874   9.197   1.338
33542W        W93287  29.157  26.181   3.250
33543W        W93288  24.586  20.237   1.380
33544W        W93289  18.610  31.472  14.933
33545W        W93290  40.016  25.165  12.475
33546W        W93291  33.443  18.185  14.918
33547W        W93292   9.656  17.745  13.344
33548W        W93293  43.830  35.967  12.965
33549W        W93294  30.435   3.836  14.905
33550W        W93295   0.928  22.553   5.148
33551W        W93296   4.293   8.183   3.658
33552W        W93297   5.289  41.033  13.063
33553W        W93298  44.997  19.122  13.513
33554W        W93299  21.123  39.412  14.402
33555W        W93300  15.179  22.525  11.011
33556W        W93301   8.752  26.173  14.451
33557W        W93302  26.573  20.039   0.353
33558W        W93303  19.590   6.822   0.755
33559W        W93304  21.254   2.343   2.405
33560W        W93305  37.924  29.606   0.406
33561W        W93306  34.903  44.427   3.674
33562W        W93307   5.702  14.162   2.305
33563W        W93308   4.863   0.414  10.498
33564W        W93309  42.817   0.353  13.880
33565W        W93310   8.184   0.479  11.490
33566W        W93311  40.492  34.587  11.603
33567W        W93312  23.569  28.156  12.950
33568W        W93313  10.738   0.423  13.344
33569W        W93314  30.930   4.918  14.010
33570W        W93315  39.439  37.950   0.966
33571W        W93316  40.423  41.869  11.880
33572W        W93317   8.272  12.309   3.780
33573W        W93318  22.010   8.663  14.944
33574W        W93319  18.649  25.648  12.003
33575W        W93320  21.699  37.536   1.280
33576W        W93321   1.791   6.905   2.879
33577W        W93322   0.821  28.462   4.673
33578W        W93323   0.757  32.609  10.960
33579W        W93324   3.721  28.629   9.542
33580W        W93325  38.909  24.118   5.284
33581W        W93326   8.722  32.001   4.206
33582W        W93327  24.529  37.837  14.849
33583W        W93328  40.815  33.555   0.257
33584W        W93329  27.660  26.484   2.258
33585W        W93330  11.838   5.222  12.880
33586W        W93331  35.524  20.696  13.942
33587W        W93332  14.269  40.842  13.408
33588W        W93333  36.494  41.957   3.725
33589W        W93334   3.277  16.740   1.695
33590W        W93335  34.073  43.892   1.788
33591W        W93336   3.876  30.163  10.126
33592W        W93337  16.259  38.046  13.853
33593W        W93338  10.722  29.661  12.924
33594W        W93339  22.135  40.426   1.782
33595W        W93340  10.745   7.846   4.195
33596W        W93341  11.666  36.848  11.915
33597W        W93342  26.617  17.093   4.163
33598W        W93343  44.956  41.929  11.907
33599W        W93344   3.309   9.645   0.864
33600W        W93345  14.811   8.330  14.874
33601W        W93346   5.439  21.629  14.769
33602W        W93347   9.876  18.763   1.755
33603W        W93348  33.619  24.109   2.311
33604W        W93349  18.081   5.755  14.509
33605W        W93350  34.522  14.241  13.446
33606W        W93351  20.597   3.860   0.860
33607W        W93352  15.732  36.958  13.900
33608W        W93353   4.840  41.850   4.324
33609W        W93354  22.584   4.230   2.847
33610W        W93355  12.236   9.357  13.862
33611W        W93356  16.674  30.034  12.537
33612W        W93357   3.954  33.576  11.604
33613W        W93358  31.438   5.261   0.835
33614W        W93359  44.988  10.172  13.006
33615W        W93360   6.280  36.461  12.872
33616W        W93361   4.778  42.488   0.857
33617W        W93362  18.596  43.999  13.324
33618W        W93363  12.217  16.643   0.853
33619W        W93364   0.482  22.123   0.881
33620W        W93365  27.009  41.329   5.131
33621W        W93366  33.478  29.615   3.843
33622W        W93367  24.143   7.181  10.891
33623W        W93368   0.299  33.992  14.925
33624W        W93369  24.148  24.558  11.090
33625W        W93370  11.709  41.032  14.923
33626W        W93371  26.573  38.371   0.479
33627W        W93372  12.207  37.415  12.438
33628W        W93373  40.403  26.195   1.822
33629W        W93374  41.945  29.929   4.824
33630W        W93375  42.903  25.599  13.441
33631W        W93376  38.045  23.663  12.349
33632W        W93377  16.792  44.941  12.457
33633W        W93378  43.486  36.364   0.360
33634W        W93379  41.000   4.812   3.334
33635W        W93380   7.848   3.427   2.662
33636W        W93381  17.099   2.428  14.502
33637W        W93382  10.300   4.427   2.741
33638W        W93383  10.792   3.942   3.673
33639W        W93384  21.165  11.692  13.461
33640W        W93385  32.137  37.358  14.887
33641W        W93386  41.463  21.166  13.865
33642W        W93387  31.996   1.938   2.787
33643W        W93388   7.761  37.979  11.439
33644W        W93389  17.071  29.107  13.801
33645W        W93390  24.042  41.486   2.237
33646W        W93391  21.720  27.140  11.921
33647W        W93392   8.780   6.396  11.070
33648W        W93393  42.521  18.273  12.463
33649W        W93394  29.012   6.749   3.150
33650W        W93395  17.223  31.537   2.255
33651W        W93396  33.005  38.936  11.372
33652W        W93397  12.259   0.782  12.044
33653W        W93398   3.218  28.436   1.925
33654W        W93399   4.307   5.427   4.219
33655W        W93400  32.051  15.819  14.021
33656W        W93401  30.010  18.586   4.139
33657W        W93402  34.990  33.005   4.705
33658W        W93403  44.790  26.197  12.473
33659W        W93404  21.122   2.287  14.878
33660W        W93405  20.084  42.464  13.038
33661W        W93406  10.749  20.745  14.999
33662W        W93407  15.718  10.825   3.724
33663W        W93408  10.780  14.778  14.330
33664W        W93409   5.380  28.526  14.320
33665W        W93410  40.809   9.326  11.101
33666W        W93411  14.767  30.099   3.258
33667W        W93412  41.389   7.791  11.911
33668W        W93413  12.778   3.897  12.895
33669W        W93414   3.461  42.787   0.872
33670W        W93415   0.894   8.304   2.327
33671W        W93416   5.366  25.477  14.967
33672W        W93417   5.839  12.718  13.354
33673W        W93418   2.446  37.860   0.300
33674W        W93419   7.244  28.111   3.311
33675W        W93420  39.839  10.819   2.331
33676W        W93421  26.640  12.831   2.785
33677W        W93422   2.733  31.547   3.301
33678W        W93423  21.629  13.146  12.420
33679W        W93424  10.175  35.437  10.944
33680W        W93425  24.506   4.447  13.919
33681W        W93426   5.816   5.914  12.942
33682W        W93427  27.191  17.615   4.732
33683W        W93428  28.592  28.464  10.551
33684W        W93429  43.899   4.731  14.891
33685W        W93430  30.026  29.057  14.873
33686W        W93431   3.438  40.018  10.902
33687W        W93432   3.755  38.922   4.157
33688W        W93433  40.890  26.131  10.473
33689W        W93434  42.868   6.360   5.136
33690W        W93435  12.271  31.127   0.799
33691W        W93436  23.193  33.063  14.895
33692W        W93437  30.029   0.884   1.319
33693W        W93438   1.869  26.471   1.442
33694W        W93439  17.160  20.616  10.026
33695W        W93440  40.035  25.173   4.129
33696W        W93441  21.214   9.650  13.338
33697W        W93442  40.818  38.857  11.488
33698W        W93443  35.497  19.631   0.763
33699W        W93444  37.902  43.806  13.000
33700W        W93445   8.754  23.019   1.348
33701W        W93446   2.468  12.636   1.327
33702W        W93447  32.418  25.985   3.835
33703W        W93448   9.181  20.616   0.777
33704W        W93449  33.567  28.599   4.334
33705W        W93450  14.175  23.167   0.873
33706W        W93451  28.638  35.437   0.330
33707W        W93452   1.922  11.646   3.267
33708W        W93453  40.866   9.771  10.931
33709W        W93454  10.214  12.709   3.280
33710W        W93455  13.648  35.021  13.923
33711W        W93456  12.322  20.611  11.048
33712W        W93457   6.866  30.991  10.929
33713W        W93458  38.002   0.969  11.405
33714W        W93459  19.166  25.714   1.426
33715W        W93460   5.242  20.191   3.731
33716W        W93461  24.166  19.115   0.949
33717W        W93462  17.170  19.541   0.911
33718W        W93463  25.020  14.651  14.441
33719W        W93464   6.713  17.694   1.769
33720W        W93465  14.624  25.069   4.272
33721W        W93466  25.962  31.562  14.967
33722W        W93467  15.186  13.212   4.820
33723W        W93468  25.028  25.693  12.400
33724W        W93469  22.233   7.289  13.890
33725W        W93470   9.212  25.514  11.011
33726W        W93471  22.035   3.710   1.373
33727W        W93472  43.934   9.167   0.290
33728W        W93473   6.386  14.292   3.160
33729W        W93474  36.875  42.347  13.857
33730W        W93475  12.737   1.874   4.822
33731W        W93476  10.778  14.237  10.564
33732W        W93477  39.042  20.234   1.703
33733W        W93478  24.695   8.719   4.309
33734W        W93479  38.965  30.591   1.709
33735W        W93480  16.273  27.447   0.837
33736W        W93481  32.471  12.830  11.462
33737W        W93482  22.046  12.356   1.448
33738W        W93483  29.463  18.075  11.595
33739W        W93484  44.477  26.114   4.769
33740W        W93485  11.269   3.889   2.316
33741W        W93486  14.656   0.382   1.244
33742W        W93487  20.765  21.134   3.755
33743W        W93488  12.133   6.319   3.809
33744W        W93489  41.944  17.665   3.799
33745W        W93490  39.551   8.315  10.583
33746W        W93491  34.539   5.228  12.890
33747W        W93492  37.841  33.572   1.345
33748W        W93493  30.644   2.262   3.865
33749W        W93494  41.793  27.980   0.361
33750W        W93495  37.368  18.639   0.844
33751W        W93496  16.139  36.008  14.867
33752W        W93497  32.106  28.601   2.285
33753W        W93498  17.609   2.751   2.873
33754W        W93499  17.274  19.775  14.032
33755W        W93500  42.340  37.996  13.860
33756W        W93501  36.429  29.608   3.771
33757W        W93502  17.240   2.469   0.314
33758W        W93503  16.194  11.730   4.825
33759W        W93504   1.844   2.302   0.259
33760W        W93505   9.692  18.784  12.869
33761W        W93506  38.336  11.699  11.092
33762W        W93507  23.591  23.731  13.992
33763W        W93508  32.092  27.940   0.859
33764W        W93509  43.440  18.668   0.845
33765W        W93510   0.433   4.782   2.288
33766W        W93511  15.819  16.728  12.365
33767W        W93512   1.275  10.859  11.864
33768W        W93513  23.507  28.016   0.726
33769W        W93514  34.954  40.526  14.765
33770W        W93515  28.087  28.510   4.182
33771W        W93516  29.974  39.427   0.754
33772W        W93517  18.684  18.140  10.050
33773W        W93518  25.516  37.512  12.010
33774W        W93519  23.498  12.852  14.990
33775W        W93520  40.365  10.327   3.310
33776W        W93521  28.133  39.812   2.201
33777W        W93522   9.804  40.899   1.215
33778W        W93523  13.347  43.453   4.259
33779W        W93524  41.441  18.558   2.810
33780W        W93525  19.648  22.029   4.307
33781W        W93526  44.940  16.688   0.382
33782W        W93527  20.229  17.274   3.662
33783W        W93528  40.834  39.544   3.683
33784W        W93529  26.969   0.366   4.754
33785W        W93530  19.542  41.298  11.610
33786W        W93531  21.107   1.319  14.281
33787W        W93532  26.100  23.711  12.891
33788W        W93533  30.430  24.012   2.665
33789W        W93534  43.785  42.296  13.467
33790W        W93535  27.172  32.076   3.748
33791W        W93536   9.797   2.331   1.930
33792W        W93537  42.810  44.839  14.275
33793W        W93538  43.813  28.640  11.590
33794W        W93539   0.378  22.596  13.821
33795W        W93540  27.484  11.158  15.000
33796W        W93541  29.603   2.782   0.845
33797W        W93542  17.610  13.106   3.865
33798W        W93543  11.204  36.444  12.927
33799W        W93544  34.400  24.019  11.024
33800W        W93545  40.879  11.285   3.666
33801W        W93546  26.186   4.246   2.378
33802W        W93547  23.667  35.046   4.352
33803W        W93548  20.047  40.455   4.290
33804W        W93549  10.847  13.759   1.733
33805W        W93550  31.570  23.513  11.108
33806W        W93551  14.739  32.570  11.445
33807W        W93552  23.587  28.045   3.284
33808W        W93553   6.921  38.908  14.992
33809W        W93554  39.062  18.096  11.511
33810W        W93555  27.113  33.880   1.222
33811W        W93556   2.733  22.007   3.748
33812W        W93557   4.835   0.913   1.427
33813W        W93558   1.379   7.731  12.917
33814W        W93559   2.457  36.515   9.564
33815W        W93560  27.654  33.522  12.990
33816W        W93561  40.354  43.895  13.860
33817W        W93562  31.413  27.035  13.882
33818W        W93563  36.852  12.147  12.851
33819W        W93564   2.323  43.310   0.313
33820W        W93565  19.751  23.605   4.737
33821W        W93566  21.614  31.520   1.793
33822W        W93567   9.254   4.325  10.628
33823W        W93568  23.578  41.805  13.451
33824W        W93569   0.983  10.778   1.345
33825W        W93570   3.757  35.930  10.454
33826W        W93571  36.514   8.713   3.172
33827W        W93572  20.210  38.469  12.478
33828W        W93573  32.008  43.978  13.845
33829W        W93574  34.453  24.223  13.029
33830W        W93575  14.605  25.705   2.878
33831W        W93576  39.057  43.871  11.419
33832W        W93577   8.209  17.066   2.699
33833W        W93578   7.900  11.851  10.891
33834W        W93579  14.245  33.970  12.085
33835W        W93580  42.359  27.023   0.334
33836W        W93581  16.629  42.827   5.171
33837W        W93582   6.325  37.917   1.837
33838W        W93583  23.062  17.609   3.247
33839W        W93584   3.862   7.406  10.642
33840W        W93585  17.663  30.620   1.237
33841W        W93586  41.914  31.448  13.349
33842W        W93587  16.301  14.660  11.938
33843W        W93588   9.710  17.745   3.317
33844W        W93589  33.484  42.357   1.410
33845W        W93590  24.045   1.259   4.602
33846W        W93591  10.853  28.667  11.093
33847W        W93592  16.098  36.994  12.534
33848W        W93593  13.700  25.471  12.022
33849W        W93594  32.143  39.899   1.396
33850W        W93595  39.839   0.283   3.259
33851W        W93596  20.670  14.118  11.559
33852W        W93597  35.417   7.755   4.281
33853W        W93598  30.113  19.097   1.236
33854W        W93599   4.364  27.627  10.633
33855W        W93600  44.265  16.301  13.356
33856W        W93601  33.000   2.879   2.820
33857W        W93602  32.432   0.937   1.297
33858W        W93603  41.811  17.639   1.743
33859W        W93604  20.125  23.155  13.938
33860W        W93605  34.954   7.891  12.558
33861W        W93606  38.909  27.196  12.848
33862W        W93607  33.429  30.083   5.270
33863W        W93608  27.187   4.287  13.386
33864W        W93609  44.505   6.266  11.903
33865W        W93610  24.189  35.882  14.315
33866W        W93611   5.207   4.318  13.470
33867W        W93612  38.915  29.138  12.364
33868W        W93613  24.170  14.107  14.802
33869W        W93614  33.932  26.014  14.306
33870W        W93615   8.349  22.733   4.831
33871W        W93616   0.312  25.075  10.572
33872W        W93617  42.479  22.053  14.955
33873W        W93618  19.566  27.997   4.667
33874W        W93619  10.282  21.684  13.462
33875W        W93620   1.364  34.957   5.179
33876W        W93621  44.337  14.096  11.929
33877W        W93622  18.702  40.879   0.417
33878W        W93623   1.429  13.237  10.597
33879W        W93624  33.387  43.472  12.347
33880W        W93625  34.963  42.314   3.304
33881W        W93626  14.340  41.336  13.525
33882W        W93627  24.185  17.157  13.025
33883W        W93628  27.682  16.286   2.824
33884W        W93629  36.057  44.390  13.931
33885W        W93630   5.283  31.972  14.339
33886W        W93631   5.740  38.055   4.721
33887W        W93632  44.837  17.560  10.036
33888W        W93633   4.871  37.066  13.810
33889W        W93634  30.514   6.768   0.248
33890W        W93635  33.410  11.254  13.930
33891W        W93636   6.423  25.608  13.808
33892W        W93637   7.801  34.017  12.415
33893W        W93638  40.909   3.405   0.756
33894W        W93639  41.898   6.750   4.781
33895W        W93640  39.857  24.594   4.274
33896W        W93641   6.789  41.937   1.918
33897W        W93642   3.225  26.500   4.321
33898W        W93643  30.938  41.872   4.690
33899W        W93644  21.238  12.727   3.749
33900W        W93645  35.856   9.888  11.051
33901W        W93646  36.871   1.426  11.106
33902W        W93647  18.707  18.549   4.150
33903W        W93648  14.187  38.837  11.600
33904W        W93649   5.742  26.119   0.742
33905W        W93650  24.200  32.055   1.280
33906W        W93651  39.057  31.529  12.080
33907W        W93652  34.031  37.579   0.375
33908W        W93653   1.754   1.872  11.416
33909W        W93654  17.211   5.778   9.929
33910W        W93655  23.512  30.489  10.147
33911W        W93656  22.705  22.190  11.046
33912W        W93657  18.265  33.607   4.792
33913W        W93658   5.876  36.942   2.216
33914W        W93659  18.681  24.226  13.414
33915W        W93660  15.601  26.150   2.419
33916W        W93661  36.951  11.846  10.588
33917W        W93662   7.201  15.799   4.278
33918W        W93663  36.566  26.518  12.393
33919W        W93664  10.298  28.458   4.211
33920W        W93665  26.128  35.540   4.812
33921W        W93666  42.778  39.933  11.059
33922W        W93667  39.889   7.763  13.341
33923W        W93668   5.758   6.715   0.727
33924W        W93669  42.842  17.748  14.862
33925W        W93670   8.305  34.477   1.933
33926W        W93671  13.216  23.156   1.363
33927W        W93672  18.111  26.026   2.247
33928W        W93673  12.824  14.630   2.782
33929W        W93674  15.325   8.369  10.602
33930W        W93675  22.515  12.639  14.000
33931W        W93676  38.435  10.281   0.272
33932W        W93677  24.045  31.555  11.979
33933W        W93678  14.152  17.573   4.621
33934W        W93679  30.525  43.472   4.309
33935W        W93680  36.518   3.810  13.064
33936W        W93681  25.479  40.441   3.860
33937W        W93682  33.097  23.570  11.075
33938W        W93683  39.886  35.866   1.749
33939W        W93684  16.809  30.630  13.026
33940W        W93685  30.615   3.309   5.288
33941W        W93686  38.995   4.249  10.034
33942W        W93687  14.681  19.185  14.962
33943W        W93688  41.971  18.288  14.973
33944W        W93689  25.173  29.077  14.855
33945W        W93690   9.261   1.451  11.114
33946W        W93691  11.130  37.007   4.707
33947W        W93692  32.393  24.650   1.352
33948W        W93693  21.168  24.129  14.458
33949W        W93694  37.388  17.297   3.804
33950W        W93695   4.424  17.295   0.354
33951W        W93696  10.834  22.621   0.898
33952W        W93697  31.128  32.599  14.927
33953W        W93698   2.962  38.038   0.483
33954W        W93699  25.195  18.183   4.125
33955W        W93700   7.315  27.133   2.256
33956W        W93701  33.055  20.084  14.317
33957W        W93702  18.691   2.281   4.701
33958W        W93703  12.343   3.331  13.025
33959W        W93704  20.715   9.304  14.358
33960W        W93705   2.922   1.961  13.454
33961W        W93706  27.109  43.469   4.291
33962W        W93707  11.738  34.099   0.419
33963W        W93708  30.127  25.505  13.036
33964W        W93709  12.311   5.382  13.824
33965W        W93710  12.706   6.849   2.289
33966W        W93711  22.731  29.973  13.481
33967W        W93712  44.498  27.595   1.915
33968W        W93713   2.369   1.450  11.948
33969W        W93714  23.222  32.897   2.251
33970W        W93715   8.821  25.967  11.052
33971W        W93716   7.180  25.516  13.494
33972W        W93717  43.012  35.399   1.342
33973W        W93718  21.645  16.640  12.573
33974W        W93719  43.389  28.995  13.520
33975W        W93720  32.964  41.796   1.424
33976W        W93721   1.928  39.318   1.370
33977W        W93722   3.373  15.084   3.212
33978W        W93723   3.733  29.466  10.961
33979W        W93724  17.674  31.980   2.380
33980W        W93725  13.306  11.791  10.990
33981W        W93726   3.822   6.354   0.458
33982W        W93727  35.906  37.006  11.450
33983W        W93728   1.482  24.670  13.357
33984W        W93729  13.189  32.066  13.922
33985W        W93730  33.087   8.854  11.100
33986W        W93731  44.762  38.914   1.372
33987W        W93732  41.475  37.946  12.352
33988W        W93733  21.130   3.301   1.274
33989W        W93734   5.722  13.298   2.742
33990W        W93735  23.227  13.164   3.851
33991W        W93736  31.603   4.400   4.169
33992W        W93737  29.454  33.469  14.932
33993W        W93738   8.184   5.767  10.548
33994W        W93739  12.742  17.166   4.711
33995W        W93740  19.580  37.025  10.611
33996W        W93741   2.297  44.463   2.260
33997W        W93742  21.144  27.150  14.886
33998W        W93743  23.601  43.775  11.481
33999W        W93744  17.749  22.655   2.198
34000W        W93745  29.169  23.139   1.737
34001W        W93746  25.573  15.740   3.701
34002W        W93747  30.517  11.358   2.215
34003W        W93748  19.122  42.986  14.984
34004W        W93749  25.076  23.001  12.095
34005W        W93750  32.532  33.452   3.379
34006W        W93751  38.947  33.929  11.576
34007W        W93752  39.391  22.510  14.912
34008W        W93753   9.701  44.264   2.228
34009W        W93754  33.422  19.263   2.700
34010W        W93755  37.999   4.707   4.739
34011W        W93756   7.670  23.998  11.108
34012W        W93757  22.543  21.230   1.850
34013W        W93758  30.035  17.595  14.925
34014W        W93759  22.168  17.192  12.571
34015W        W93760  25.985  42.296  14.468
34016W        W93761  40.992  10.668   3.750
34017W        W93762  14.269   6.896  14.471
34018W        W93763  14.702  38.537  11.505
34019W        W93764   1.839  26.618  10.455
34020W        W93765  36.900  28.101  12.889
34021W        W93766   1.419  28.499   0.452
34022W        W93767  31.038  26.952  14.776
34023W        W93768  26.065  14.291   4.214
34024W        W93769  21.031  19.246   1.722
34025W        W93770  25.033  41.433   1.345
34026W        W93771  23.069  15.698   2.283
34027W        W93772  42.920  44.490   4.177
34028W        W93773  13.755  11.348  14.846
34029W        W93774   6.216  11.152   4.122
34030W        W93775  40.045   8.249   3.158
34031W        W93776  39.352  38.930  14.379
34032W        W93777   4.821  35.106  14.028
34033W        W93778  37.397  29.002  10.971
34034W        W93779  30.161  32.968  11.436
34035W        W93780   7.694   5.217   2.689
34036W        W93781  21.519  25.526   4.118
34037W        W93782  24.494  30.543  10.004
34038W        W93783  42.446  11.673  11.893
34039W        W93784   1.427  42.470   2.184
34040W        W93785  10.837   0.351  14.313
34041W        W93786  27.636   5.689   2.184
34042W        W93787  42.011  15.109  11.994
34043W        W93788  20.659  25.103  11.904
34044W        W93789  17.206   5.792  14.935
34045W        W93790   4.284   9.887   2.865
34046W        W93791  43.369  15.660  13.987
34047W        W93792  42.506  44.274   2.384
34048W        W93793  10.319  24.513   4.785
34049W        W93794  39.333  33.052   2.197
34050W        W93795  33.503  20.558  14.476
34051W        W93796  14.594  13.200   1.394
34052W        W93797  30.974  15.324  13.354
34053W        W93798  37.340   1.844   4.208
34054W        W93799  22.174  44.813  12.916
34055W        W93800  39.973  11.633  10.464
34056W        W93801  43.913  10.298  11.867
34057W        W93802  23.686  43.507   4.767
34058W        W93803  10.190  37.868  14.363
34059W        W93804  10.147  35.446  11.955
34060W        W93805  36.023  43.767  10.965
34061W        W93806  44.498  39.526  12.066
34062W        W93807   5.780  20.054  13.442
34063W        W93808  17.623   9.165   0.341
34064W        W93809   2.871  27.530  10.523
34065W        W93810   4.274  30.119   2.797
34066W        W93811  25.993   9.662  11.026
34067W        W93812  24.686   2.254   1.288
34068W        W93813  18.733  43.348   0.736
34069W        W93814  35.861  15.718  10.564
34070W        W93815   9.781   4.855  13.337
34071W        W93816   3.774  43.402  14.773
34072W        W93817  39.515  13.253   0.472
34073W        W93818  37.839  10.659  12.897
34074W        W93819   1.887  24.666  14.802
34075W        W93820  35.916  42.951   3.777
34076W        W93821  31.550  37.023  14.891
34077W        W93822  16.623  23.714  14.441
34078W        W93823  34.509  10.849   3.728
34079W        W93824  41.940  22.576  13.526
34080W        W93825   2.778  23.171   2.291
34081W        W93826   0.476  25.083   4.197
34082W        W93827  40.321  12.780   3.754
34083W        W93828  43.806  18.605  11.976
34084W        W93829  14.313  13.235   4.763
34085W        W93830  32.636   7.842   0.397
34086W        W93831  34.056  25.589  12.080
34087W        W93832  39.984  30.060   0.735
34088W        W93833  11.296  33.056   5.184
34089W        W93834  15.618  33.102  10.476
34090W        W93835   2.771  16.081  11.571
34091W        W93836  21.237   0.842  13.412
34092W        W93837   1.759  12.286   1.912
34093W        W93838  36.459   8.337  13.010
34094W        W93839  39.832  25.969  12.996
34095W        W93840  30.125  40.395   0.469
34096W        W93841  16.180   7.873  10.502
34097W        W93842  40.421  23.624  10.591
34098W        W93843  15.321   6.262  11.596
34099W        W93844  12.806  12.636  13.909
34100W        W93845  26.000  25.590   0.736
34101W        W93846   5.783  14.784  10.979
34102W        W93847  31.478   4.737  13.474
34103W        W93848  36.593  25.710   3.163
34104W        W93849   5.734  21.539   1.393
34105W        W93850  20.537  20.535  13.493
34106W        W93851   7.771  30.470   4.608
34107W        W93852  39.854  13.693   2.750
34108W        W93853  27.642  15.622   1.442
34109W        W93854  16.806  29.061   2.889
34110W        W93855  14.236  18.162  11.466
34111W        W93856   3.252  33.967  11.975
34112W        W93857  16.304  24.609  13.463
34113W        W93858  19.577   5.894   4.742
34114W        W93859  36.090  21.700   0.856
34115W        W93860  44.900  18.063   3.860
34116W        W93861  16.640  24.002  14.956
34117W        W93862  33.895  22.599   5.633
34118W        W93863  38.437   4.794  14.377
34119W        W93864  13.679  36.861   4.814
34120W        W93865  24.482  12.156   3.803
34121W        W93866   7.290  31.557  13.365
34122W        W93867  22.681  26.640  14.839
34123W        W93868  37.373  11.266  10.574
34124W        W93869  42.413  20.076   1.751
34125W        W93870  31.553  42.934  12.343
34126W        W93871  16.685  19.618   3.273
34127W        W93872  31.046  26.162   9.923
34128W        W93873   4.382  21.632  14.508
34129W        W93874  34.026  18.573  11.861
34130W        W93875  15.777   1.355  10.560
34131W        W93876   3.285  19.560  14.972
34132W        W93877  26.526  35.912  14.504
34133W        W93878  13.308  16.768  11.598
34134W        W93879   6.821  38.983  13.891
34135W        W93880  16.666   9.185  13.991
34136W        W93881  44.441  10.304  12.048
34137W        W93882  42.901  31.922  13.890
34138W        W93883  33.503  42.345   4.821
34139W        W93884  37.351  26.591   0.391
34140W        W93885  33.559  14.703   0.287
34141W        W93886  10.694   7.381   3.640
34142W        W93887  37.551  25.080   2.189
34143W        W93888  12.853  37.338   3.209
34144W        W93889  26.153  16.146   1.289
34145W        W93890  25.192  15.229  14.852
34146W        W93891  19.661  27.109   0.960
34147W        W93892  34.866  23.018  13.880
34148W        W93893  12.160  10.186   3.841
34149W        W93894  21.162  37.911   4.344
34150W        W93895  38.467  40.480  14.976
34151W        W93896  32.600  43.771  10.905
34152W        W93897  38.472   0.948  14.911
34153W        W93898   4.715  28.556  10.541
34154W        W93899   0.950  34.378   1.309
34155W        W93900  31.126  21.223   3.791
34156W        W93901   3.744   1.377  11.865
34157W        W93902  32.130  33.899  10.602
34158W        W93903  11.231  20.199  11.511
34159W        W93904  13.696  34.018   5.647
34160W        W93905  11.150   7.853   2.765
34161W        W93906  10.171  36.369  11.420
34162W        W93907   6.692  15.250   1.399
34163W        W93908  13.601  34.043   9.442
34164W        W93909  18.265  30.058   2.699
34165W        W93910  36.995  44.937  10.493
34166W        W93911   1.419   1.733  14.886
34167W        W93912   3.366  30.079  11.547
34168W        W93913  37.982  15.180   3.151
34169W        W93914  39.529  28.956   1.738
34170W        W93915   4.273   5.366   0.914
34171W        W93916  39.913  25.007  13.896
34172W        W93917  44.827   4.909  13.430
34173W        W93918  32.050   4.855  12.344
34174W        W93919   2.418   7.381   5.098
34175W        W93920  28.931  37.844  14.955
34176W        W93921  24.720  43.989   2.207
34177W        W93922   0.904  27.455  10.562
34178W        W93923  16.226   1.782   1.237
34179W        W93924  40.861   1.864   2.717
34180W        W93925  28.491  43.782   3.331
34181W        W93926  34.874   2.836  14.506
34182W        W93927   8.372  32.966  13.033
34183W        W93928  20.733  32.572   1.218
34184W        W93929   7.318  40.815  10.985
34185W        W93930  41.405  33.493   0.432
34186W        W93931  30.634  32.517   0.946
34187W        W93932   7.263  11.135   3.820
34188W        W93933  18.619  27.056  10.408
34189W        W93934   6.277  16.570   2.847
34190W        W93935  40.324   2.931   3.283
34191W        W93936  31.443  10.718   2.196
34192W        W93937  23.525  40.348   4.791
34193W        W93938   1.459  29.582   4.132
34194W        W93939   4.437   3.904  14.863
34195W        W93940   7.354  14.703  12.930
34196W        W93941  21.027  15.200   2.385
34197W        W93942  24.592  35.386  13.040
34198W        W93943  29.638  42.468   4.762
34199W        W93944  43.939  14.316   5.306
34200W        W93945  42.816  29.443  11.395
34201W        W93946   6.755   9.305  13.032
34202W        W93947  34.399   7.742   2.722
34203W        W93948  25.562  23.692  14.844
34204W        W93949  20.037  29.507   2.729
34205W        W93950  18.607  30.989  11.385
34206W        W93951   2.736  23.031   9.453
34207W        W93952  24.578  31.419   0.751
34208W        W93953  12.353  27.041  13.449
34209W        W93954  22.047  22.525   3.797
34210W        W93955  13.734  33.113  13.936
34211W        W93956  23.015   6.688   3.353
34212W        W93957  13.741  40.333   0.450
34213W        W93958  36.990  36.485   4.655
34214W        W93959  35.975   0.939  11.523
34215W        W93960  41.030  25.683   1.842
34216W        W93961   1.931   5.268  12.906
34217W        W93962  33.066   1.784   0.822
34218W        W93963  15.176  13.729  11.574
34219W        W93964   6.290  17.229   1.713
34220W        W93965  43.904  28.096  11.886
34221W        W93966   7.711  19.627  12.987
34222W        W93967  28.013  44.306  12.825
34223W        W93968  32.009  18.249  12.830
34224W        W93969   8.707  15.766   3.150
34225W        W93970  27.104   2.436   4.329
34226W        W93971  26.054  12.634  10.471
34227W        W93972  35.447  33.061   2.689
34228W        W93973  31.498  44.846   0.424
34229W        W93974  34.110  17.290  11.050
34230W        W93975  37.406   4.377   4.160
34231W        W93976   0.375   7.378  12.889
34232W        W93977  39.396  15.099  12.375
34233W        W93978  28.606   3.890   4.273
34234W        W93979  35.869  25.691  11.595
34235W        W93980  35.395   8.269  12.537
34236W        W93981   5.762  39.432   3.651
34237W        W93982  28.042  43.901   3.710
34238W        W93983   4.303  42.368   3.351
34239W        W93984  21.580   4.290   1.435
34240W        W93985  36.572  22.731   1.286
34241W        W93986   0.870  17.206  11.478
34242W        W93987   5.894  27.049   0.871
34243W        W93988  11.133  13.207  12.453
34244W        W93989   1.269  40.890   3.325
34245W        W93990  23.108   6.389   4.733
34246W        W93991  21.550   8.832  14.018
34247W        W93992  26.014  18.058  10.887
34248W        W93993  43.777   3.877   1.875
34249W        W93994   6.211  14.275   2.840
34250W        W93995  25.535  13.181  11.555
34251W        W93996   5.740  18.578   1.871
34252W        W93997  33.927   0.349   3.703
34253W        W93998   0.963  25.069  13.360
34254W        W93999  22.200   0.947  10.497
34255W        W94000  40.437  36.046  10.029
34256W        W94001  44.926  11.734   3.820
34257W        W94002  16.792  19.213   2.853
34258W        W94003  10.290   1.288   3.260
34259W        W94004   0.930  22.696   1.795
34260W        W94005   1.942  27.076   1.821
34261W        W94006  34.981   2.772   9.941
34262W        W94007  12.817   2.240  10.982
34263W        W94008  12.765  15.811   0.833
34264W        W94009  38.906  34.953  10.020
34265W        W94010  30.537   1.877  13.345
34266W        W94011  44.993  34.495  14.475
34267W        W94012  12.712  16.131  11.938
34268W        W94013  23.217  36.898  13.415
34269W        W94014   4.803   7.675   3.160
34270W        W94015  28.126  13.348  10.590
34271W        W94016  13.105  37.917  10.434
34272W        W94017   0.843  19.679   5.288
34273W        W94018  28.624   7.845  14.007
34274W        W94019  30.443  23.045   0.762
34275W        W94020  11.845  13.228  13.466
34276W        W94021  16.755   8.255  13.839
34277W        W94022   0.839  41.964   0.422
34278W        W94023  18.051  32.893  12.832
34279W        W94024  38.948   3.788   1.820
34280W        W94025  40.997  32.438  11.945
34281W        W94026  26.062   2.441   4.317
34282W        W94027   5.204  28.615   3.822
34283W        W94028  22.006  23.606  12.380
34284W        W94029  16.765   8.318  13.495
34285W        W94030   8.713  37.851  14.491
34286W        W94031  13.189  25.564  12.383
34287W        W94032  29.169  34.944   0.897
34288W        W94033  43.924  39.416  12.498
34289W        W94034  14.270  32.543   3.639
34290W        W94035  10.280  22.698   2.886
34291W        W94036   0.933  30.915   5.165
34292W        W94037  42.855  12.173   2.712
34293W        W94038  38.821  22.019  10.602
34294W        W94039  21.618  25.992   0.256
34295W        W94040  20.693  22.069  10.551
34296W        W94041  20.049  28.450   4.123
34297W        W94042   7.261  37.055  13.512
34298W        W94043  32.953  23.985  11.485
34299W        W94044  39.372   9.660  13.853
34300W        W94045  40.407  37.017  14.862
34301W        W94046  39.874  13.140   2.329
34302W        W94047   9.768  42.325  13.337
34303W        W94048  38.375  37.894   3.359
34304W        W94049  42.969  21.264  13.425
34305W        W94050  26.642   0.943  12.527
34306W        W94051  38.326   0.456   0.951
34307W        W94052   4.769  13.718  13.320
34308W        W94053  43.856  24.615  14.979
34309W        W94054  12.632   4.371  14.393
34310W        W94055  32.557  11.176   2.777
34311W        W94056  29.629  41.376  10.562
34312W        W94057   2.463  19.540   0.925
34313W        W94058  36.977   9.671  10.623
34314W        W94059  11.706   7.240   3.745
34315W        W94060  40.345  17.653  11.127
34316W        W94061  24.027   6.817  11.062
34317W        W94062  19.766   2.941  14.901
34318W        W94063   3.251  41.851   0.252
34319W        W94064  17.627  14.132   2.893
34320W        W94065  43.497  24.539   1.282
34321W        W94066  15.727  42.972   1.443
34322W        W94067  11.222  40.461  13.484
34323W        W94068   7.775  17.635  12.897
34324W        W94069  27.101  42.289  10.529
34325W        W94070  21.070  22.684  13.839
34326W        W94071  29.619  33.612   5.083
34327W        W94072   3.943  14.126  11.977
34328W        W94073  41.349  27.459  10.442
34329W        W94074  38.331  14.232  11.915
34330W        W94075  33.910  32.625   1.340
34331W        W94076  33.440   8.361   0.731
34332W        W94077   4.729  14.261   1.815
34333W        W94078   0.900  34.994   2.330
34334W        W94079  29.579   9.286   2.328
34335W        W94080  20.708  30.103   4.755
34336W        W94081  43.884  29.157  11.385
34337W        W94082  33.436  29.153   1.701
34338W        W94083  40.869  18.082  13.827
34339W        W94084   5.237  11.714   0.348
34340W        W94085  19.639  20.058   3.178
34341W        W94086   9.319  44.320  13.822
34342W        W94087   2.448  16.612  11.090
34343W        W94088  42.446   1.364  14.431
34344W        W94089  31.112  16.231   3.222
34345W        W94090  42.430  24.177  12.897
34346W        W94091   3.457  29.153   3.150
34347W        W94092  25.616  30.959  12.086
34348W        W94093   2.810  36.027  11.902
34349W        W94094   8.230  20.708   2.835
34350W        W94095  12.629   2.795   1.346
34351W        W94096  41.958  26.106  11.394
34352W        W94097  30.524  21.031   0.334
34353W        W94098  22.587   4.243  11.517
34354W        W94099   9.228   7.669   1.278
34355W        W94100   9.231  40.805   0.799
34356W        W94101  25.113  27.163   2.717
34357W        W94102   3.378  14.114  14.941
34358W        W94103  10.792   6.921  12.408
34359W        W94104  12.167  28.045  11.047
34360W        W94105  22.659  11.214   1.887
34361W        W94106  13.826  31.980   2.331
34362W        W94107  38.030  23.112  13.341
34363W        W94108  15.798  18.106   2.758
34364W        W94109  35.485   0.928   1.414
34365W        W94110  28.148  43.351   2.367
34366W        W94111  30.095   6.220   4.182
34367W        W94112   2.329  14.204  11.912
34368W        W94113   8.812  15.595  12.549
34369W        W94114  11.688  14.775   3.633
34370W        W94115  41.816  20.047  11.582
34371W        W94116   2.428  42.820  12.952
34372W        W94117  41.331  28.507  10.597
34373W        W94118   5.793   2.945  13.423
34374W        W94119   1.760  44.915  10.476
34375W        W94120   1.917   3.251   4.233
34376W        W94121  18.662  16.679   4.830
34377W        W94122  43.940   5.235  13.414
34378W        W94123   4.400  11.747   3.271
34379W        W94124  15.108   4.773  14.482
34380W        W94125  32.039  29.557   0.445
34381W        W94126  31.518  17.700   1.307
34382W        W94127  34.876  24.490  12.423
34383W        W94128  43.764  21.696  12.415
34384W        W94129  43.022   3.723   3.652
34385W        W94130   4.322  11.195   2.834
34386W        W94131   4.902  37.040  12.912
34387W        W94132  31.557  42.390   1.441
34388W        W94133  43.427  38.969   0.389
34389W        W94134  39.345  41.976  12.356
34390W        W94135  18.734  44.329  10.638
34391W        W94136  29.581  26.697  11.598
34392W        W94137  10.154  40.931   3.639
34393W        W94138  19.732  21.524  13.411
34394W        W94139  43.014  40.547   1.933
34395W        W94140   0.368   0.803   2.364
34396W        W94141   2.310  16.751  11.934
34397W        W94142  35.062  30.444  10.621
34398W        W94143  25.120   7.194   0.789
34399W        W94144  42.816  27.978  11.074
34400W        W94145   2.309  27.129   2.750
34401W        W94146  43.818  20.547   1.824
34402W        W94147  23.543  24.691  12.933
34403W        W94148  30.959   9.314   2.279
34404W        W94149  14.096  14.812  13.458
34405W        W94150  23.543  25.057   4.334
34406W        W94151   4.275  12.349   0.272
34407W        W94152  13.237  16.686   1.439
34408W        W94153  36.386  19.200  13.975
34409W        W94154  42.025  38.899  14.788
34410W        W94155  42.837  25.077  13.407
34411W        W94156   7.279  16.590  13.337
34412W        W94157  42.951  32.402  12.902
34413W        W94158  15.818   3.878  12.551
34414W        W94159  15.604  19.591  14.493
34415W        W94160   0.319   2.926   1.332
34416W        W94161   8.836  14.745  14.301
34417W        W94162  43.296  42.476  14.454
34418W        W94163  14.780  21.584   1.702
34419W        W94164   9.730   7.335  11.374
34420W        W94165  36.065  44.784  14.321
34421W        W94166  36.015  37.492  10.946
34422W        W94167   1.781  30.532   0.296
34423W        W94168  39.927  18.738   0.456
34424W        W94169  18.206  31.606   4.687
34425W        W94170  13.658  31.429   3.817
34426W        W94171   2.378  43.381   2.759
34427W        W94172  42.438   6.297  10.993
34428W        W94173  26.618   2.403  11.606
34429W        W94174  36.458  38.034  14.295
34430W        W94175  17.752  10.242   4.681
34431W        W94176  42.845  38.348   2.349
34432W        W94177   5.342  22.616  13.062
34433W        W94178  32.901   3.345  12.385
34434W        W94179  37.941  36.439  11.469
34435W        W94180  40.546   7.408   5.303
34436W        W94181  13.193   5.746   4.201
34437W        W94182  20.231  37.863  13.358
34438W        W94183   4.818  17.603  12.058
34439W        W94184  30.469  43.785  11.025
34440W        W94185  21.728  13.621   0.368
34441W        W94186  16.305  32.615  13.875
34442W        W94187  19.686  37.415   1.927
34443W        W94188  36.472   6.377  13.366
34444W        W94189   0.492  14.808   0.302
34445W        W94190  18.193  40.348  14.028
34446W        W94191   9.317   7.750   0.377
34447W        W94192  23.547  20.210   4.254
34448W        W94193   2.373  39.375  11.560
34449W        W94194  43.940  29.453  14.363
34450W        W94195  41.457  18.593  10.497
34451W        W94196   8.402   7.349  11.411
34452W        W94197  19.688  23.651  11.548
34453W        W94198  16.587  36.864   1.845
34454W        W94199  32.021   0.317   0.919
34455W        W94200   3.759  42.778   3.817
34456W        W94201  41.483  34.454  14.989
34457W        W94202  15.653  43.013  13.540
34458W        W94203  40.437   3.331   5.222
34459W        W94204  37.388  10.646  10.965
34460W        W94205  28.116   0.265  13.818
34461W        W94206  43.866  28.467  14.417
34462W        W94207   0.914  29.033   0.479
34463W        W94208   3.434  32.546  14.842
34464W        W94209  29.947  13.608  12.853
34465W        W94210   8.325  26.082  14.771
34466W        W94211  36.590  15.776  14.784
34467W        W94212   6.900  39.525   3.694
34468W        W94213  19.172   4.277  11.929
34469W        W94214   6.400  38.824  11.101
34470W        W94215  13.816  21.582   0.258
34471W        W94216  33.401  14.675  12.413
34472W        W94217   3.347   4.752  12.441
34473W        W94218  25.134  42.495   1.366
34474W        W94219   8.852   1.240   1.736
34475W        W94220  18.777  13.709  12.007
34476W        W94221   7.307  32.495  10.956
34477W        W94222  37.486   3.445  13.958
34478W        W94223  35.888  41.001  13.928
34479W        W94224   8.369  25.064  13.009
34480W        W94225  38.457  12.742   1.926
34481W        W94226   2.369  13.755  11.436
34482W        W94227  12.224   3.900  14.030
34483W        W94228  24.188  11.769   0.396
34484W        W94229  41.963  33.997  11.111
34485W        W94230   5.761  35.967  11.093
34486W        W94231  43.377   9.823  12.875
34487W        W94232  34.879  10.185  12.484
34488W        W94233  27.996  16.599  11.078
34489W        W94234  17.770   2.911  13.035
34490W        W94235   3.740   3.363  12.854
34491W        W94236  31.914  34.495   1.812
34492W        W94237  32.941  33.876  12.933
34493W        W94238  28.154  38.895  12.023
34494W        W94239  22.516   9.718  13.941
34495W        W94240  21.092   9.162  13.840
34496W        W94241  41.030  35.467  12.999
34497W        W94242   3.828  37.926   5.606
34498W        W94243  40.037   4.887   1.759
34499W        W94244  44.855  13.205  14.295
34500W        W94245  33.577  40.823   1.244
34501W        W94246   6.725  15.289  12.979
34502W        W94247   0.397  41.536   3.337
34503W        W94248  30.958  44.335   3.278
34504W        W94249  29.667   4.219  12.429
34505W        W94250  15.163  10.274  13.544
34506W        W94251   3.229  37.986  12.519
34507W        W94252  33.106   3.778   5.207
34508W        W94253  39.983  42.517  11.581
34509W        W94254   3.778  36.462   3.380
34510W        W94255  42.871  13.319   0.830
34511W        W94256   6.863  23.512  12.067
34512W        W94257  14.206  16.703  11.946
34513W        W94258  32.534   3.221  11.051
34514W        W94259  14.626  34.461  11.864
34515W        W94260   3.222   0.253  14.846
34516W        W94261  10.375  21.087  10.430
34517W        W94262  43.789  22.738   2.340
34518W        W94263   8.383  17.762  11.444
34519W        W94264  33.033   3.454   1.833
34520W        W94265  16.159  25.670  10.565
34521W        W94266  17.266   4.876   1.715
34522W        W94267  14.291  26.503   0.766
34523W        W94268  29.430  33.955   1.758
34524W        W94269  12.208  43.483   1.215
34525W        W94270   4.232  30.477  10.128
34526W        W94271   1.922  43.814  12.850
34527W        W94272  24.590   2.285  13.499
34528W        W94273   8.234  34.370   4.674
34529W        W94274   4.289  20.577  11.020
34530W        W94275  41.410   0.875  11.416
34531W        W94276  28.531   5.275   2.217
34532W        W94277   2.896  28.463   0.833
34533W        W94278  12.651  35.485  14.516
34534W        W94279  36.458  11.748  14.865
34535W        W94280   8.897  13.187  11.547
34536W        W94281  28.502  23.683   4.806
34537W        W94282  28.543  28.530  11.017
34538W        W94283  28.987  18.276   3.276
34539W        W94284  11.166  41.941   0.888
34540W        W94285   3.892  39.326  14.360
34541W        W94286  29.121   8.340  13.348
34542W        W94287  16.086  22.106  14.336
34543W        W94288  31.032  16.099   2.831
34544W        W94289  14.795  43.325  10.414
34545W        W94290  27.475   8.699   4.751
34546W        W94291   8.719   3.422   0.899
34547W        W94292  19.757  44.367   0.791
34548W        W94293  39.552  19.668  14.283
34549W        W94294   5.917  36.844  11.114
34550W        W94295  39.014   7.851   3.382
34551W        W94296  14.297   5.434  13.446
34552W        W94297   2.289  25.112  14.001
34553W        W94298  14.271  44.474  13.794
34554W        W94299  39.884  13.687  13.045
34555W        W94300   2.962  13.816   3.676
34556W        W94301  27.033  13.190   4.340
34557W        W94302   2.333  23.230   2.825
34558W        W94303   8.328  30.613  12.407
34559W        W94304  29.150  44.418  10.410
34560W        W94305  28.614  12.674   4.634
34561W        W94306  35.979   9.236  12.575
34562W        W94307  36.987  17.665   3.230
34563W        W94308  16.643   3.250   4.838
34564W        W94309   0.810   2.788  14.463
34565W        W94310  13.777  25.053  13.542
34566W        W94311  16.699  43.475   3.691
34567W        W94312  21.605  16.596   4.306
34568W        W94313  11.632   7.357   0.829
34569W        W94314  22.645   5.365  10.914
34570W        W94315  22.210  19.596   0.741
34571W        W94316  39.508  12.749  11.992
34572W        W94317  38.368  37.989  10.948
34573W        W94318  15.276   3.389  14.887
34574W        W94319  40.458  29.945   1.285
34575W        W94320  39.057  29.469   3.845
34576W        W94321   0.450  14.729   1.329
34577W        W94322  21.536   1.829  11.001
34578W        W94323  14.322  21.744   3.841
34579W        W94324  34.119  18.271   2.412
34580W        W94325  29.595  15.696   3.194
34581W        W94326  14.782  37.370   3.179
34582W        W94327  41.880  43.418  10.559
34583W        W94328  18.101  27.120  14.393
34584W        W94329  34.404   5.916   0.762
34585W        W94330  31.544   7.370  13.382
34586W        W94331  26.595  33.407   3.835
34587W        W94332  44.763   7.361  12.379
34588W        W94333   0.926  37.511  11.960
34589W        W94334  42.918  39.984  10.425
34590W        W94335  34.565  29.538  11.947
34591W        W94336  26.604   4.358   2.874
34592W        W94337   1.268   4.867   3.786
34593W        W94338  18.094  33.064  13.496
34594W        W94339  36.034  29.578   2.678
34595W        W94340   9.829  28.038   2.385
34596W        W94341   1.865  16.307   0.348
34597W        W94342  25.653  21.749   2.775
34598W        W94343   9.848  36.083   3.366
34599W        W94344  38.385  21.668   3.353
34600W        W94345  13.188  34.595  11.540
34601W        W94346  17.710  18.738  12.994
34602W        W94347  38.010  39.401  13.808
34603W        W94348  21.059  38.059  13.543
34604W        W94349  18.585  20.610   1.227
34605W        W94350  33.990   5.326  13.977
34606W        W94351  42.482  10.795   2.685
34607W        W94352   8.869   0.383   2.672
34608W        W94353   4.705  18.754   2.832
34609W        W94354  15.681  44.808  10.887
34610W        W94355  28.164  32.951   3.362
34611W        W94356  44.779   8.239  10.930
34612W        W94357  25.659   0.973  10.591
34613W        W94358  15.795  28.154   0.474
34614W        W94359  18.244  42.392   4.189
34615W        W94360  12.210  12.751   3.341
34616W        W94361  39.527   9.696   3.635
34617W        W94362   7.901  15.814  11.943
34618W        W94363  42.462  15.627  11.123
34619W        W94364  33.904  22.059   4.623
34620W        W94365   5.799  13.786   2.774
34621W        W94366  12.829  35.412   0.311
34622W        W94367  36.943  13.778  11.884
34623W        W94368  30.646  36.554   2.188
34624W        W94369  14.714  21.655   3.375
34625W        W94370  19.549  37.058   0.934
34626W        W94371  16.086  24.617  12.550
34627W        W94372  21.531   6.838  11.917
34628W        W94373  35.489  19.582   2.815
34629W        W94374   6.911   4.857   1.223
34630W        W94375  40.055  12.855  11.931
34631W        W94376  24.635  27.565   0.346
34632W        W94377   8.343   8.755   1.810
34633W        W94378  21.553  28.113   2.769
34634W        W94379   0.937   6.843  11.572
34635W        W94380  14.714  32.570  12.857
34636W        W94381  12.241  24.206  12.349
34637W        W94382   4.267   4.801  12.830
34638W        W94383  36.965  21.602   4.746
34639W        W94384   9.390  36.930   4.662
34640W        W94385   7.300  41.820  12.453
34641W        W94386  34.083   4.853   4.837
34642W        W94387  26.972  34.981  12.540
34643W        W94388  43.878   7.811   4.786
34644W        W94389  23.168  11.792   4.632
34645W        W94390  18.288  29.470   0.899
34646W        W94391  43.458   6.887   2.308
34647W        W94392  22.708  16.307   4.252
34648W        W94393  14.227  23.081  14.413
34649W        W94394  27.651  38.538   1.934
34650W        W94395  41.426  24.106   2.263
34651W        W94396  16.214   7.873   1.286
34652W        W94397  31.421  14.781   3.194
34653W        W94398  40.347   5.323  13.938
34654W        W94399  17.165  29.618   3.250
34655W        W94400  30.049  34.495  10.976
34656W        W94401  35.359  41.446  11.909
34657W        W94402  23.602  26.502  12.888
34658W        W94403   5.905  16.762  11.541
34659W        W94404   1.742  11.658  11.896
34660W        W94405  25.977  18.122   1.821
34661W        W94406  34.464  22.012   0.771
34662W        W94407  29.481  29.052   1.273
34663W        W94408  22.079  20.728   1.904
34664W        W94409  35.532  23.549   1.244
34665W        W94410  34.507  26.069  14.955
34666W        W94411  39.425  14.593   4.214
34667W        W94412  27.615  32.090   1.843
34668W        W94413  35.104   1.482  13.890
34669W        W94414  38.009  19.574  13.389
34670W        W94415   2.738   5.829  13.903
34671W        W94416  17.611   2.865   2.354
34672W        W94417  20.753  12.720   3.674
34673W        W94418  36.434  21.247  12.024
34674W        W94419   7.887  37.349  12.535
34675W        W94420  10.668  13.302   1.304
34676W        W94421  34.972  24.130   0.390
34677W        W94422  29.058  25.713   0.322
34678W        W94423  20.533  28.991   1.930
34679W        W94424  28.105  33.985   2.734
34680W        W94425  19.712  20.230  14.432
34681W        W94426  35.422  13.332   2.759
34682W        W94427  36.073   4.436  13.844
34683W        W94428   5.352  21.755  12.998
34684W        W94429   5.873  41.537   4.302
34685W        W94430  19.562  34.028   0.249
34686W        W94431  29.037   7.736  13.336
34687W        W94432  40.346  40.896   4.281
34688W        W94433  29.491  13.757  13.946
34689W        W94434  44.333  15.304   3.271
34690W        W94435   1.319  39.020   3.699
34691W        W94436  44.920  11.859   1.747
34692W        W94437  33.510  13.649  12.833
34693W        W94438  20.206  38.964   2.200
34694W        W94439  44.360  23.727  13.836
34695W        W94440   0.400   7.758   4.184
34696W        W94441  10.345   6.896  12.024
34697W        W94442   3.709  27.008   3.331
34698W        W94443  32.561  30.074  11.856
34699W        W94444  12.234  17.655  14.447
34700W        W94445  16.119  17.252  12.022
34701W        W94446  34.584  10.761  14.501
34702W        W94447  11.743  23.588  11.891
34703W        W94448  15.687  28.555   4.189
34704W        W94449  24.112  30.623   4.830
34705W        W94450  38.551  27.535   2.783
34706W        W94451  24.173  10.836  10.987
34707W        W94452  29.478  21.251  14.476
34708W        W94453  18.133  14.735   0.298
34709W        W94454  44.830  37.914   3.356
34710W        W94455  32.092  42.464  10.923
34711W        W94456   7.357  43.326  10.487
34712W        W94457   3.261  26.008   4.776
34713W        W94458  36.380  43.895   0.918
34714W        W94459   8.368  44.848  11.535
34715W        W94460  34.531   5.890  13.883
34716W        W94461  31.994  42.011   2.287
34717W        W94462   1.931  12.663   0.802
34718W        W94463  40.407   4.350  12.053
34719W        W94464   0.492  22.229  10.951
34720W        W94465  22.743  11.211   1.276
34721W        W94466  11.354   9.270  12.498
34722W        W94467  25.572  41.374  11.104
34723W        W94468  19.595  26.526   4.142
34724W        W94469   4.289  13.199  11.996
34725W        W94470   1.460   0.275   2.371
34726W        W94471  33.982  30.101   5.653
34727W        W94472   8.680  28.633   4.610
34728W        W94473  23.223  40.987  13.479
34729W        W94474  39.405  28.035  11.550
34730W        W94475  10.782   4.430  12.978
34731W        W94476  25.083  32.616  14.473
34732W        W94477  22.030  33.890   2.686
34733W        W94478  27.562  40.542   1.250
34734W        W94479  38.862  40.035   4.336
34735W        W94480  12.185  28.166   1.787
34736W        W94481  27.550   6.301   4.123
34737W        W94482  44.785  17.566  14.302
34738W        W94483  13.260  43.492   3.369
34739W        W94484   0.964  35.562  12.413
34740W        W94485  19.714  13.336   4.622
34741W        W94486  23.149  12.720   2.830
34742W        W94487  38.454  29.942   3.730
34743W        W94488  16.202  27.502  11.914
34744W        W94489  27.162   1.805  12.069
34745W        W94490  42.894  15.265  13.901
34746W        W94491  42.455  25.560  11.600
34747W        W94492  22.103  12.287   2.732
34748W        W94493  42.839   1.352   2.321
34749W        W94494  22.056  21.731  13.335
34750W        W94495   7.236  35.400   1.303
34751W        W94496  40.014  26.498   2.200
34752W        W94497  36.032  29.445   4.228
34753W        W94498   2.853  30.555  11.930
34754W        W94499  10.161   2.922  13.531
34755W        W94500   2.811   5.808   3.254
34756W        W94501  35.108   3.916   2.738
34757W        W94502  13.720  42.427   0.298
34758W        W94503  15.204  12.226   3.838
34759W        W94504  35.958  37.448   0.285
34760W        W94505   4.834  10.258   2.886
34761W        W94506  24.535   6.677  12.969
34762W        W94507  26.095  34.929   5.218
34763W        W94508  19.648  14.225  14.003
34764W        W94509   2.398  21.565   2.241
34765W        W94510  32.614  11.222  13.808
34766W        W94511  38.063   4.716  13.358
34767W        W94512   8.244  37.579  11.009
34768W        W94513  10.708  11.205   1.742
34769W        W94514  22.565  31.109  14.461
34770W        W94515  10.719   1.274   4.234
34771W        W94516  28.167  17.303  10.472
34772W        W94517  40.352  11.244   0.380
34773W        W94518  39.971   8.339  13.983
34774W        W94519  41.459   5.796   0.736
34775W        W94520  25.120   7.184   3.260
34776W        W94521  42.827  13.154   5.165
34777W        W94522  23.735  43.312  13.369
34778W        W94523   6.328  21.186  11.895
34779W        W94524  18.090  36.030   3.219
34780W        W94525  37.372   4.397   0.269
34781W        W94526  22.226  11.275  14.960
34782W        W94527  28.964   4.357   3.777
34783W        W94528   6.878  36.935   3.187
34784W        W94529  10.364  27.943  13.993
34785W        W94530  15.270   5.900   4.218
34786W        W94531  24.543   5.296   1.873
34787W        W94532  17.761  26.659   5.150
34788W        W94533  17.592   6.297   3.301
34789W        W94534   4.205  28.087  13.382
34790W        W94535  26.009  21.203  13.363
34791W        W94536  13.167  39.470   1.908
34792W        W94537   9.394   0.319   4.114
34793W        W94538  24.654  10.261   3.267
34794W        W94539   2.846  31.897   3.699
34795W        W94540  18.235   7.851   1.344
34796W        W94541  23.021   6.823  13.017
34797W        W94542   4.317  29.942   0.779
34798W        W94543  16.154  28.583   0.277
34799W        W94544  21.185  39.540   1.868
34800W        W94545  26.027  26.056  14.028
34801W        W94546  30.037  40.033   0.333
34802W        W94547   7.809   6.843  14.515
34803W        W94548  11.759  24.095  13.956
34804W        W94549  36.866  25.474  11.072
34805W        W94550  38.937   9.717  11.089
34806W        W94551   7.842  16.599   2.827
34807W        W94552  12.852  12.669   0.754
34808W        W94553  17.253  24.182   1.362
34809W        W94554  24.678  42.461   2.363
34810W        W94555  38.868  42.835  10.556
34811W        W94556  22.072  28.624  11.035
34812W        W94557  30.992  42.850  14.924
34813W        W94558  42.363   0.852  11.611
34814W        W94559  20.527  18.678  14.884
34815W        W94560  13.263  30.061   3.654
34816W        W94561  31.955  20.204  12.836
34817W        W94562  27.450  32.405  14.798
34818W        W94563   8.696  40.345   1.388
34819W        W94564   6.425  23.075   0.269
34820W        W94565  41.321  32.406   0.923
34821W        W94566  34.947  42.856  10.630
34822W        W94567   8.794   8.888  10.481
34823W        W94568  21.532   4.698   1.361
34824W        W94569   3.922  27.666  14.831
34825W        W94570  20.164   6.235  11.395
34826W        W94571   0.801  25.042   1.230
34827W        W94572  16.081  16.742  10.505
34828W        W94573  42.360  24.648   1.405
34829W        W94574   3.842  15.619  10.593
34830W        W94575  33.898  10.879   1.796
34831W        W94576   7.205  26.975  10.493
34832W        W94577  26.985  16.628  11.548
34833W        W94578  40.471  37.470   5.318
34834W        W94579  17.211  31.117  14.286
34835W        W94580  10.233   8.232   2.676
34836W        W94581  20.124  26.607  14.811
34837W        W94582  16.263  17.639  13.912
34838W        W94583   1.389   6.765  14.767
34839W        W94584   0.830  44.001   2.851
34840W        W94585   4.844  23.508  14.513
34841W        W94586  34.534  27.082   0.347
34842W        W94587  11.198  42.819   2.371
34843W        W94588  23.723  30.576  14.281
34844W        W94589  28.962   0.974  10.434
34845W        W94590  32.526  14.649   1.821
34846W        W94591  40.926  16.569   1.929
34847W        W94592  21.561  38.950   1.282
34848W        W94593  42.459   2.926   0.880
34849W        W94594  13.832  10.217   0.898
34850W        W94595  26.605  41.347  13.059
34851W        W94596   9.254  27.077  12.363
34852W        W94597  43.021  35.081   3.381
34853W        W94598  20.616  23.234   4.187
34854W        W94599  20.734   0.921  13.519
34855W        W94600  27.641  26.011  13.020
34856W        W94601   3.450  22.541   3.808
34857W        W94602  37.026  35.047  11.081
34858W        W94603  18.680  40.408  13.419
34859W        W94604  16.124  18.232  12.394
34860W        W94605  28.093   9.863   3.741
34861W        W94606  11.815  12.766  13.530
34862W        W94607   2.803  29.442   2.710
34863W        W94608  16.670  18.192   3.184
34864W        W94609  40.386   2.469  10.523
34865W        W94610   4.885   5.853   4.808
34866W        W94611  12.213  39.502   3.853
34867W        W94612  30.077  32.989   0.435
34868W        W94613   7.255  21.088   2.795
34869W        W94614  25.101  27.487  14.389
34870W        W94615  15.105  42.419  10.628
34871W        W94616  10.240  24.530  10.578
34872W        W94617  29.959   4.904  12.024
34873W        W94618  42.393  44.973   4.279
34874W        W94619   7.184  25.000   1.347
34875W        W94620  31.454   1.971  11.026
34876W        W94621  35.505  26.675  12.412
34877W        W94622  25.126   0.900  12.352
34878W        W94623   8.168  26.548   4.260
34879W        W94624  17.603  41.355   1.710
34880W        W94625  17.109  16.291  11.383
34881W        W94626  13.840  35.410   1.801
34882W        W94627   6.800  24.185   0.432
34883W        W94628  22.578  22.049   0.783
34884W        W94629  41.366  20.670   1.909
34885W        W94630   0.754  31.618   4.281
34886W        W94631  43.347  38.331  11.499
34887W        W94632  14.731  19.042  14.446
34888W        W94633  38.861  34.485  12.399
34889W        W94634  14.267   0.417  13.812
34890W        W94635   0.768  25.176  10.508
34891W        W94636  26.667  42.808  11.028
34892W        W94637   7.738   2.346  14.504
34893W        W94638  39.840  40.512   1.811
34894W        W94639   6.428  30.076   3.278
34895W        W94640  25.184  37.569  14.370
34896W        W94641  36.890  43.017  10.615
34897W        W94642   9.867   5.751   4.822
34898W        W94643   7.791  29.954  14.802
34899W        W94644  18.204  11.251  11.531
34900W        W94645  34.498  30.074  12.908
34901W        W94646   7.212  23.639   1.405
34902W        W94647  39.924  11.850  12.925
34903W        W94648  35.994  18.751  10.532
34904W        W94649   4.374  10.772  10.951
34905W        W94650   2.728   8.822   3.791
34906W        W94651  17.635  34.394  14.455
34907W        W94652   2.963  17.252   4.736
34908W        W94653   1.833  31.964  14.787
34909W        W94654   4.376  19.634   1.224
34910W        W94655  26.026  17.124  11.558
34911W        W94656  10.776  18.113  10.440
34912W        W94657   1.322   6.294   2.343
34913W        W94658  11.266   3.782  12.551
34914W        W94659  19.725  14.156   3.333
34915W        W94660  39.324  42.849   1.868
34916W        W94661  12.673  42.319   3.333
34917W        W94662   0.828  35.029   0.482
34918W        W94663  43.963  10.869   3.354
34919W        W94664  20.737  21.634   2.806
34920W        W94665  37.845   9.661   1.911
34921W        W94666   0.912   1.427  11.022
34922W        W94667  44.962  28.561   1.326
34923W        W94668  15.751  12.614   4.659
34924W        W94669  17.785  23.529   4.291
34925W        W94670  11.790  32.553   1.703
34926W        W94671  42.484  35.987  13.805
34927W        W94672  26.974  42.838  13.322
34928W        W94673  17.730   5.330  11.938
34929W        W94674  21.189  11.792   5.230
34930W        W94675  32.009  20.638  12.378
34931W        W94676  25.066  20.538   4.775
34932W        W94677  19.132   4.727  10.154
34933W        W94678  23.171  12.805  13.547
34934W        W94679  44.381  17.799   3.217
34935W        W94680  30.104  20.723  10.641
34936W        W94681  26.012  37.846  12.452
34937W        W94682  29.134  17.801  14.790
34938W        W94683  17.119  24.100   9.951
34939W        W94684  18.585  24.122   1.733
34940W        W94685  20.718   1.449   0.751
34941W        W94686   5.900  25.108   4.246
34942W        W94687  32.094  42.335   0.456
34943W        W94688   4.206  30.543   3.174
34944W        W94689  25.008  10.341   4.146
34945W        W94690  20.241   0.781  13.401
34946W        W94691   9.326  44.315  12.492
34947W        W94692  13.608  37.412   2.414
34948W        W94693  28.136  22.056   9.952
34949W        W94694  36.399  37.881   3.337
34950W        W94695  20.525  38.411   4.115
34951W        W94696  14.178  16.809   2.850
34952W        W94697   6.837  26.637   1.698
34953W        W94698  39.413  33.473   2.681
34954W        W94699   0.348  12.650   3.150
34955W        W94700  10.270   5.831  11.447
34956W        W94701  13.736  26.469  13.007
34957W        W94702  42.478  41.889   2.795
34958W        W94703  14.759  35.427  13.413
34959W        W94704  43.331  32.959   0.361
34960W        W94705   1.437  39.390   3.800
34961W        W94706  42.016  35.536   0.373
34962W        W94707  32.436  36.371  13.817
34963W        W94708  32.001  13.840  11.375
34964W        W94709  44.925  31.039  13.348
34965W        W94710  15.318  40.044  12.392
34966W        W94711   9.309  31.451   2.234
34967W        W94712  24.008  28.588  11.113
34968W        W94713  31.547  33.501  12.837
34969W        W94714  26.484  42.931  10.500
34970W        W94715  20.229  22.158   1.422
34971W        W94716  28.045  31.603   2.801
34972W        W94717  16.705  21.559   1.761
34973W        W94718  43.993  34.379  14.833
34974W        W94719  26.066  30.053   2.239
34975W        W94720  26.073   2.730  12.579
34976W        W94721  24.981  39.932  11.987
34977W        W94722  39.944  21.233   1.767
34978W        W94723  19.757  19.622  13.314
34979W        W94724  15.581  23.640   5.243
34980W        W94725  32.597  23.118  11.932
34981W        W94726  38.976  21.711   0.958
34982W        W94727  42.312  23.590   0.342
34983W        W94728  21.726  33.123   3.168
34984W        W94729  21.173  33.485   4.291
34985W        W94730   3.408   7.203  14.937
34986W        W94731  21.685  20.626   4.627
34987W        W94732  42.438  24.982  12.380
34988W        W94733  20.683  44.438  11.479
34989W        W94734   0.477  35.026   4.824
34990W        W94735   5.932  44.365  14.790
34991W        W94736  10.342  30.150   1.428
34992W        W94737   0.790  15.135  12.368
34993W        W94738   0.813  17.715  11.408
34994W        W94739  34.383  13.349  14.767
34995W        W94740   9.751   0.947   0.833
34996W        W94741  25.551  11.781  12.995
34997W        W94742  43.485  23.199  11.972
34998W        W94743  32.107  27.493  11.048
34999W        W94744  33.092  42.337  14.944
35000W        W94745  18.149  38.920  13.504
35001W        W94746  31.136   3.740   1.315
35002W        W94747   3.287  15.666  12.478
35003W        W94748  36.890  13.832  11.557
35004W        W94749  21.132   5.428   2.241
35005W        W94750  16.130  42.473  13.989
35006W        W94751  13.115  36.539  13.861
35007W        W94752   3.807  11.692  10.533
35008W        W94753  42.010  25.662   3.690
35009W        W94754  37.016  34.505   1.432
35010W        W94755  27.668  30.093  12.043
35011W        W94756  13.631  18.582   2.362
35012W        W94757  17.678  41.944  10.931
35013W        W94758  18.098  41.379  14.900
35014W        W94759   8.705  27.032   0.405
35015W        W94760  30.010   5.368  13.900
35016W        W94761  14.187   4.731   0.800
35017W        W94762  24.717  21.652   1.732
35018W        W94763  42.949  15.606   4.811
35019W        W94764  10.217  29.050  14.486
35020W        W94765  22.627  25.685   3.810
35021W        W94766  20.657  16.163  12.576
35022W        W94767   0.743  40.981  11.975
35023W        W94768  36.526  44.324  14.515
35024W        W94769  21.262  16.808  14.460
35025W        W94770   9.378  43.985  13.476
35026W        W94771   7.379  32.039   4.690
35027W        W94772  26.554  36.875   2.320
35028W        W94773   8.200  33.506   0.333
35029W        W94774  33.067  17.691  13.876
35030W        W94775  12.207  34.949  10.003
35031W        W94776  34.386   7.242   0.481
35032W        W94777  18.760  37.457  11.483
35033W        W94778  23.194  20.244  13.817
35034W        W94779  16.732  42.397   1.213
35035W        W94780  36.580  38.946   2.233
35036W        W94781  40.969   6.194  14.865
35037W        W94782  35.432  24.977   2.728
35038W        W94783   9.878  13.205   2.728
35039W        W94784   9.859   2.277  14.509
35040W        W94785   6.381  19.207   4.694
35041W        W94786  10.703   1.308   1.779
35042W        W94787  27.685  27.504  10.431
35043W        W94788  19.570  27.610   4.794
35044W        W94789   9.789  34.444   1.395
35045W        W94790   3.302  11.225   2.201
35046W        W94791  20.047  28.073   4.137
35047W        W94792  31.992  15.306  14.884
35048W        W94793   0.343  11.143  14.868
35049W        W94794   1.822  19.591  13.540
35050W        W94795  12.127   7.905  14.339
35051W        W94796  13.286  16.220  12.463
35052W        W94797  21.222  29.497   2.181
35053W        W94798   2.285  23.060   3.647
35054W        W94799   8.699   9.165  14.437
35055W        W94800  34.057  20.120   2.761
35056W        W94801  40.982  29.575   1.381
35057W        W94802   2.419  11.743  14.503
35058W        W94803  30.578  31.024  12.965
35059W        W94804  14.136  14.304   0.316
35060W        W94805  25.632  10.829  11.603
35061W        W94806  10.840   9.779  12.550
35062W        W94807  41.404  44.978  12.467
35063W        W94808  29.441  39.468  12.949
35064W        W94809  39.492  38.900   4.607
35065W        W94810  13.827  36.586  12.085
35066W        W94811   8.690  34.089   1.374
35067W        W94812  17.089  35.466  12.447
35068W        W94813  20.560  33.896   4.756
35069W        W94814  17.760  32.629   2.843
35070W        W94815   3.923   3.770  14.780
35071W        W94816  19.566  23.636  13.399
35072W        W94817  27.565  16.664  14.945
35073W        W94818  20.052   9.805  10.911
35074W        W94819  23.147  14.715   2.417
35075W        W94820   5.227  17.693  12.871
35076W        W94821  12.343  13.643  13.479
35077W        W94822  39.484   8.317  12.448
35078W        W94823  40.961  13.643  11.934
35079W        W94824  34.378   8.685  10.984
35080W        W94825  39.822  20.580   4.314
35081W        W94826  33.403   2.820   4.340
35082W        W94827  26.593  30.049  14.904
35083W        W94828  38.877   1.358   2.213
35084W        W94829  30.076  21.127   0.759
35085W        W94830   2.795  15.248  14.410
35086W        W94831  40.897  37.932   0.775
35087W        W94832  23.630  42.385   2.239
35088W        W94833  37.376  26.643   2.305
35089W        W94834  18.626   5.704   4.638
35090W        W94835  25.649  37.862  12.570
35091W        W94836  15.794  37.480  12.090
35092W        W94837  34.540  14.113  14.950
35093W        W94838  17.168  30.591  10.144
35094W        W94839   0.362  31.069  12.503
35095W        W94840  27.591   5.397  13.474
35096W        W94841  26.079  43.282  11.865
35097W        W94842  23.551  22.549  14.951
35098W        W94843  31.937   7.733  14.003
35099W        W94844  35.542  25.111   3.378
35100W        W94845   8.209  37.900  11.583
35101W        W94846  23.110  44.495  10.555
35102W        W94847   7.408  24.173   1.875
35103W        W94848  32.141  33.101  14.417
35104W        W94849  26.685  20.087   3.720
35105W        W94850  26.064  38.966   0.911
35106W        W94851  21.144  14.753  12.926
35107W        W94852  33.987  22.114   0.456
35108W        W94853  42.826  15.659   2.356
35109W        W94854  21.107  12.362  10.999
35110W        W94855  22.021  26.530  11.542
35111W        W94856  13.724  38.830   3.680
35112W        W94857  16.772  41.381   4.808
35113W        W94858   1.915   0.901  11.542
35114W        W94859   7.770  20.750   1.306
35115W        W94860  40.315  40.024  14.448
35116W        W94861  23.554  27.191  10.549
35117W        W94862  24.613  17.559  14.018
35118W        W94863  23.668  10.874   0.425
35119W        W94864   7.381  19.748  12.415
35120W        W94865  24.120  40.478  12.926
35121W        W94866  27.481  33.457   1.213
35122W        W94867  29.620  25.606  13.314
35123W        W94868  22.650  33.035   1.228
35124W        W94869  16.578  16.104  10.501
35125W        W94870  18.595  23.100   3.716
35126W        W94871  22.656   7.239  11.427
35127W        W94872   8.246  12.322   0.376
35128W        W94873  26.484  40.838  14.909
35129W        W94874  29.607  23.100  13.973
35130W        W94875  20.040  35.017   1.445
35131W        W94876  22.704  36.880   3.748
35132W        W94877  35.019  21.177  13.827
35133W        W94878  11.329  32.893   4.149
35134W        W94879   6.828  34.890   1.790
35135W        W94880  36.509  35.473   4.744
35136W        W94881  25.617   3.880   0.295
35137W        W94882  12.197  13.620   4.743
35138W        W94883  28.680  15.757   3.246
35139W        W94884  23.659  42.850   4.114
35140W        W94885  40.886  12.233  14.495
35141W        W94886  10.766  39.518  12.941
35142W        W94887  34.995  11.369   4.251
35143W        W94888   5.898  22.530   3.205
35144W        W94889  14.108  21.753   3.195
35145W        W94890  23.990  42.316  13.426
35146W        W94891  13.618  43.895   4.115
35147W        W94892  28.437  35.919  13.871
35148W        W94893  42.501  28.675  10.534
35149W        W94894  24.536  14.320   2.365
35150W        W94895  32.393   7.703  11.863
35151W        W94896   7.373  25.130  11.529
35152W        W94897  20.533  12.683   2.305
35153W        W94898  23.679  15.280   2.222
35154W        W94899  13.171  16.203   0.890
35155W        W94900   3.862  13.212   2.329
35156W        W94901  14.148  21.515   4.790
35157W        W94902  30.424  32.975   4.833
35158W        W94903  21.721   4.355  11.471
35159W        W94904  22.229  32.997  11.509
35160W        W94905   7.771  36.982   2.668
35161W        W94906  35.991  37.869  11.962
35162W        W94907  30.077  20.595  11.562
35163W        W94908  28.554  41.345   1.437
35164W        W94909  13.621   0.329  14.794
35165W        W94910  42.419  25.635   0.283
35166W        W94911  19.747  15.191  14.891
35167W        W94912  29.500  13.316  13.312
35168W        W94913   2.950  34.505  13.875
35169W        W94914  35.879  27.482  13.819
35170W        W94915  24.154  36.013   0.921
35171W        W94916  11.326  36.390  12.429
35172W        W94917  22.222  19.139  12.417
35173W        W94918  36.393  10.181   2.384
35174W        W94919  37.934  21.239  14.977
35175W        W94920   9.822   2.792  12.531
35176W        W94921  31.901  23.134   5.204
35177W        W94922   3.718  18.118  12.878
35178W        W94923   9.332  13.202   1.772
35179W        W94924  16.174  27.956  10.643
35180W        W94925  41.447  33.626   3.713
35181W        W94926  22.682   0.846   3.319
35182W        W94927   9.686  44.388   0.910
35183W        W94928  19.209   3.843  13.037
35184W        W94929  21.227  40.881  14.009
35185W        W94930  30.621  12.756   3.236
35186W        W94931  44.895  13.616   0.806
35187W        W94932  40.360  44.306   1.218
35188W        W94933  34.911  23.697  10.983
35189W        W94934   1.455  12.224   2.820
35190W        W94935   2.362  29.505  11.425
35191W        W94936  41.825  37.570  10.050
35192W        W94937  43.978  23.992  12.498
35193W        W94938  43.020  26.548  12.559
35194W        W94939  25.667  33.028  12.983
35195W        W94940  42.011  21.739  11.125
35196W        W94941  12.656  14.711  13.534
35197W        W94942  36.066  23.135  10.979
35198W        W94943  14.706   2.297   1.429
35199W        W94944   4.376  42.387  13.837
35200W        W94945  30.616  24.554  13.439
35201W        W94946  39.483  39.942  10.542
35202W        W94947   7.296  24.650  13.482
35203W        W94948  25.027  30.632   2.803
35204W        W94949   6.748   9.236  11.607
35205W        W94950  26.512  23.728   1.760
35206W        W94951   1.343   9.856   3.727
35207W        W94952   6.261  35.365   2.230
35208W        W94953  29.079  24.497   3.818
35209W        W94954   5.841   6.246  14.915
35210W        W94955  35.425  16.148   2.763
35211W        W94956  34.032  19.681  11.875
35212W        W94957  31.989  43.454  12.503
35213W        W94958   2.903   5.782   0.941
35214W        W94959  34.561  30.967  10.558
35215W        W94960   0.973  25.111   0.343
35216W        W94961  19.698   2.812  12.067
35217W        W94962  24.493  26.504   3.182
35218W        W94963  37.474  38.487   1.861
35219W        W94964   7.406   0.422   0.945
35220W        W94965  27.588  21.730  12.910
35221W        W94966  33.102  32.458   2.382
35222W        W94967  16.763  22.742   0.948
35223W        W94968  24.698  11.779   0.899
35224W        W94969  15.646  22.006   9.976
35225W        W94970  29.981   7.230  13.975
35226W        W94971  28.133   6.345   0.273
35227W        W94972  26.166  20.251   0.408
35228W        W94973  27.689  41.535  13.836
35229W        W94974  12.836  20.194  10.919
35230W        W94975  25.540  32.453  14.435
35231W        W94976  15.709  23.010   0.796
35232W        W94977  30.052  33.013  12.564
35233W        W94978  38.492  43.371   4.288
35234W        W94979  33.956  31.609  10.604
35235W        W94980  18.055  14.288   1.283
35236W        W94981  27.034  40.829  14.509
35237W        W94982  44.955   3.893  10.623
35238W        W94983  41.463  24.101   1.402
35239W        W94984  33.563   5.411  10.045
35240W        W94985  43.286  37.375   3.284
35241W        W94986  14.598  13.139   2.726
35242W        W94987  25.693  17.123   3.674
35243W        W94988  37.976  23.163   4.314
35244W        W94989  37.411  11.176   3.642
35245W        W94990   1.825   8.804  11.862
35246W        W94991   6.733  41.912   4.803
35247W        W94992  24.011   0.250  12.897
35248W        W94993  22.039   2.261  11.980
35249W        W94994  21.733  26.694   2.315
35250W        W94995   6.243  21.696  10.468
35251W        W94996  23.071  28.435   5.214
35252W        W94997  27.627  35.861  13.964
35253W        W94998  11.277   2.757   2.368
35254W        W94999  10.323  11.263  12.514
35255W        W95000  10.289  41.346   9.947
35256W        W95001  13.737  31.615  11.395
35257W        W95002   8.310  32.995  11.036
35258W        W95003  27.487  28.533  13.438
35259W        W95004  27.517  37.541  12.024
35260W        W95005  17.130  14.623  10.586
35261W        W95006  12.682  23.491  11.089
35262W        W95007  22.697  14.681   1.228
35263W        W95008  34.467  11.659  12.053
35264W        W95009   5.739   3.858  13.443
35265W        W95010  29.473  25.085  11.442
35266W        W95011  29.440  43.376  12.363
35267W        W95012  41.992  28.569  13.924
35268W        W95013  32.981   3.246   1.245
35269W        W95014  35.884  34.115  12.937
35270W        W95015   2.883  29.092   0.733
35271W        W95016   6.262  16.679  14.850
35272W        W95017  13.289  24.534  13.061
35273W        W95018   3.357  36.978   2.233
35274W        W95019  31.633  30.506   1.747
35275W        W95020  22.249  40.355   3.718
35276W        W95021  41.934  21.160   4.348
35277W        W95022   7.397  20.074  13.015
35278W        W95023  26.673  12.357  13.358
35279W        W95024   4.771   1.274   4.264
35280W        W95025  35.492  11.159   2.288
35281W        W95026  43.868   4.258   3.189
35282W        W95027  20.713  35.864  14.949
35283W        W95028  41.983  18.767  11.395
35284W        W95029  19.272   5.205  12.523
35285W        W95030  32.083   5.314  10.896
35286W        W95031  20.706   4.902  13.504
35287W        W95032  21.247   9.383   3.370
35288W        W95033  28.006  24.526   0.436
35289W        W95034  35.477  10.789  10.961
35290W        W95035  18.549  22.215   1.752
35291W        W95036  40.934   5.355  13.522
35292W        W95037  35.051  33.437  10.442
35293W        W95038   0.945   2.409  12.389
35294W        W95039  19.163  24.068  10.984
35295W        W95040  29.035  24.684  14.506
35296W        W95041  19.258  38.361   4.759
35297W        W95042   5.216  22.022   0.910
35298W        W95043  39.476  31.593   0.413
35299W        W95044  15.675  10.375  14.933
35300W        W95045  11.314   3.755  10.911
35301W        W95046  17.305   1.305  14.837
35302W        W95047  23.196   2.892   5.277
35303W        W95048  24.553   3.820  10.972
35304W        W95049  43.364  28.039  13.956
35305W        W95050   6.272  43.356  11.455
35306W        W95051  20.760   7.902   4.705
35307W        W95052  13.156  19.614  10.587
35308W        W95053  10.345  43.439   3.772
35309W        W95054  39.885   9.306  10.427
35310W        W95055   7.206   1.411  11.056
35311W        W95056  19.243   3.814  13.934
35312W        W95057  17.721   6.857   2.772
35313W        W95058  13.311  19.699   4.773
35314W        W95059  38.935  19.538  10.474
35315W        W95060  16.709  27.037  14.312
35316W        W95061  42.812  21.023   4.223
35317W        W95062  21.635   1.902   3.860
35318W        W95063  33.616  37.452  10.932
35319W        W95064  17.695  41.990   0.757
35320W        W95065  12.172   3.347   2.730
35321W        W95066  25.056  35.074   4.198
35322W        W95067  40.799   6.833  10.579
35323W        W95068  27.107  40.880  13.461
35324W        W95069   6.197  15.220   0.798
35325W        W95070  25.533  27.536  13.999
35326W        W95071  26.983   5.316  10.450
35327W        W95072  33.384  19.536  10.062
35328W        W95073  22.219  15.759   2.815
35329W        W95074  34.511   9.312   2.246
35330W        W95075   3.260   5.779   3.805
35331W        W95076   6.908  44.906   0.461
35332W        W95077   2.769  42.363   3.803
35333W        W95078  28.499  17.567   0.758
35334W        W95079   7.795   6.890  14.833
35335W        W95080  19.253  26.492   4.754
35336W        W95081  34.964  11.670   4.162
35337W        W95082  33.577  29.555   1.697
35338W        W95083  13.733   5.309  11.118
35339W        W95084   5.719  21.048  14.404
35340W        W95085  42.911  41.020   1.831
35341W        W95086  40.827   0.947  12.570
35342W        W95087  22.721  26.026   4.620
35343W        W95088  17.306   5.390  12.920
35344W        W95089  31.624  44.482   4.679
35345W        W95090   2.456   3.368   4.337
35346W        W95091   8.900  21.241   3.216
35347W        W95092  29.926   7.845   1.731
35348W        W95093  41.306   5.422  14.435
35349W        W95094  34.591  31.412  14.489
35350W        W95095  40.986  23.547   2.312
35351W        W95096  29.943  42.480   4.659
35352W        W95097  38.914  43.822  14.463
35353W        W95098  42.424  18.204  14.022
35354W        W95099  20.763  41.324  14.336
35355W        W95100  10.741  25.100   2.290
35356W        W95101  27.959  43.929   2.328
35357W        W95102  29.513   2.235  11.426
35358W        W95103  22.714  14.270   2.238
35359W        W95104  10.777  26.068  12.872
35360W        W95105  35.018   9.830  14.856
35361W        W95106  35.865   9.845   3.742
35362W        W95107  44.312  37.878  12.508
35363W        W95108  18.261  29.108   1.781
35364W        W95109  33.100  44.300   0.922
35365W        W95110   3.324  30.615   2.384
35366W        W95111   5.314  32.622  11.456
35367W        W95112   7.389  31.113  14.788
35368W        W95113  34.415  18.275  11.938
35369W        W95114  14.741  27.639  12.004
35370W        W95115  26.660  44.277   2.181
35371W        W95116  28.439  36.351  14.930
35372W        W95117  24.540  10.773   1.212
35373W        W95118   6.270  17.218   0.245
35374W        W95119  14.282  18.730  11.073
35375W        W95120  18.178  14.714  10.438
35376W        W95121   1.912   4.290  13.336
35377W        W95122   6.725  33.051   1.741
35378W        W95123  26.689  35.874   2.317
35379W        W95124  44.360  21.052   0.444
35380W        W95125  40.350  36.383  11.399
35381W        W95126  14.261  17.761   4.198
35382W        W95127   1.259  43.815  11.971
35383W        W95128  41.988  11.318  13.422
35384W        W95129  10.273  13.220  12.529
35385W        W95130  14.699  38.395  12.936
35386W        W95131  27.110  18.603   4.187
35387W        W95132  17.555  32.975  10.536
35388W        W95133  34.058  36.045  11.115
35389W        W95134   6.915  29.609   4.643
35390W        W95135  44.262   7.678   5.271
35391W        W95136  29.137  42.483  13.847
35392W        W95137   7.351   7.731  12.965
35393W        W95138  22.241  36.501   3.813
35394W        W95139  18.564  23.230  14.392
35395W        W95140  39.313  44.936   0.291
35396W        W95141  32.496  35.906   0.252
35397W        W95142  24.190  41.399  10.537
35398W        W95143   6.214  15.274  10.975
35399W        W95144  42.451  35.015   0.358
35400W        W95145  12.251  36.514   4.210
35401W        W95146  43.850   6.244   0.344
35402W        W95147  17.718  13.293  13.360
35403W        W95148  24.644  12.800  14.935
35404W        W95149  26.040  30.501   4.243
35405W        W95150  44.448   7.909  14.951
35406W        W95151  24.127  24.977   1.402
35407W        W95152  26.503  25.591   0.837
35408W        W95153  31.548   3.309   1.434
35409W        W95154  32.482  41.984  13.547
35410W        W95155  23.661  24.586   0.278
35411W        W95156  42.381   4.360  11.545
35412W        W95157  16.087  41.487   2.866
35413W        W95158  29.463  11.831  12.480
35414W        W95159   5.792  39.507  11.439
35415W        W95160  21.630  42.787   2.414
35416W        W95161  14.323  42.850  10.077
35417W        W95162  26.038  11.742   2.838
35418W        W95163  35.910  10.366   0.345
35419W        W95164  10.697  34.053  12.041
35420W        W95165   2.393  17.245   3.170
35421W        W95166  28.096   3.447  12.887
35422W        W95167  31.002  25.582   2.286
35423W        W95168   1.781  36.042   0.420
35424W        W95169   6.769   5.795   4.821
35425W        W95170   3.338  43.486  12.852
35426W        W95171  19.547  29.609   4.637
35427W        W95172  44.366  25.694   3.263
35428W        W95173  15.809  17.707   1.353
35429W        W95174  28.054   6.825   2.815
35430W        W95175  27.632  39.351  14.979
35431W        W95176  22.598  18.080  10.150
35432W        W95177  21.205  31.525  10.599
35433W        W95178  36.413  14.740  13.466
35434W        W95179  23.097  24.212   0.784
35435W        W95180  34.096  35.599  14.427
35436W        W95181  19.180  13.213   2.770
35437W        W95182   6.720  13.710   2.220
35438W        W95183  25.570  13.637  12.846
35439W        W95184   4.860   1.272  11.876
35440W        W95185  16.774  44.834   3.835
35441W        W95186   4.386  29.661  11.415
35442W        W95187  32.591  15.280   4.749
35443W        W95188  17.696  24.103   1.241
35444W        W95189  18.200  43.786   3.196
35445W        W95190  34.613  20.549   4.604
35446W        W95191  35.460  33.107  11.034
35447W        W95192  36.909  43.824  10.526
35448W        W95193  37.403  34.041  13.919
35449W        W95194  31.531  42.969  14.777
35450W        W95195  18.711  16.143  13.804
35451W        W95196  36.007  13.828   4.338
35452W        W95197  10.716  26.460  10.094
35453W        W95198  43.354  18.069  13.064
35454W        W95199  21.257  15.819  14.318
35455W        W95200  42.477   0.982  11.964
35456W        W95201  37.378  13.760   4.743
35457W        W95202  40.350  11.136   2.831
35458W        W95203  38.965   6.376  12.919
35459W        W95204  25.139  43.764   3.273
35460W        W95205  21.020  32.988   2.231
35461W        W95206  12.846  16.239  13.964
35462W        W95207   0.958  17.594  13.811
35463W        W95208  27.022   5.323   0.729
35464W        W95209  14.319  24.666  10.993
35465W        W95210  11.739  35.040  12.405
35466W        W95211  30.103  24.565   1.351
35467W        W95212  40.926   5.704   2.871
35468W        W95213  37.452   8.310  12.555
35469W        W95214  22.097   8.221  14.968
35470W        W95215  43.478  23.558   2.856
35471W        W95216   5.873  31.417  10.519
35472W        W95217  13.648  14.195   2.801
35473W        W95218  15.582  23.054   3.690
35474W        W95219  40.841  28.631   1.442
35475W        W95220  16.151  26.195   2.689
35476W        W95221  41.507  39.544  12.439
35477W        W95222  26.030  23.056   1.860
35478W        W95223  38.478  19.686   0.840
35479W        W95224  39.497  10.770  14.822
35480W        W95225  13.689  36.036  11.590
35481W        W95226   2.360  33.423  11.027
35482W        W95227  37.384  35.953   1.767
35483W        W95228  25.965  22.534  12.963
35484W        W95229  42.291  14.097   3.653
35485W        W95230   0.914  24.167  11.119
35486W        W95231  19.541  10.372  13.991
35487W        W95232   6.741  44.344   2.735
35488W        W95233   0.808  14.258  13.543
35489W        W95234  35.397   0.755  14.483
35490W        W95235  32.557   7.296  12.497
35491W        W95236  36.866  28.586   0.893
35492W        W95237  21.704  33.508   4.241
35493W        W95238  13.160  42.800   4.180
35494W        W95239  33.884  28.045  13.459
35495W        W95240  20.698  37.375  12.943
35496W        W95241  11.814  23.579   4.746
35497W        W95242   1.479  37.398  13.986
35498W        W95243  19.213  32.050   3.727
35499W        W95244  16.799  36.077  12.540
35500W        W95245   5.845  26.584   0.870
35501W        W95246   0.877  34.041   9.959
35502W        W95247  11.842   8.879   0.263
35503W        W95248  33.558  28.950  10.911
35504W        W95249  20.157  16.178  13.399
35505W        W95250  22.567  32.062  13.971
35506W        W95251  30.962  18.577  13.034
35507W        W95252  36.379  12.797   2.376
35508W        W95253  33.515  40.464  13.506
35509W        W95254  25.690  15.088   2.746
35510W        W95255  25.083  40.978  13.374
35511W        W95256  26.521  20.169  13.334
35512W        W95257  30.414  15.307  14.852
35513W        W95258  15.621  27.582  13.469
35514W        W95259  44.756  13.793   4.793
35515W        W95260  31.487  10.729  10.434
35516W        W95261   3.227   1.247  12.370
35517W        W95262  14.590  30.415   1.218
35518W        W95263  29.528  20.223  11.585
35519W        W95264   9.881  21.522  13.310
35520W        W95265  11.371  13.735   0.740
35521W        W95266   7.387  34.613   3.711
35522W        W95267  10.812  37.941  12.904
35523W        W95268   0.819  17.282   3.632
35524W        W95269  14.678  27.956   1.290
35525W        W95270  43.987  26.979  14.020
35526W        W95271  13.716  19.661   3.177
35527W        W95272  25.563   2.337  11.443
35528W        W95273  31.470   0.337   3.260
35529W        W95274  34.057  23.554   4.261
35530W        W95275  27.181  23.000   1.902
35531W        W95276  38.913   3.800  11.000
35532W        W95277   8.173  11.136  12.994
35533W        W95278  28.973  18.130   2.336
35534W        W95279  16.304  41.889   4.658
35535W        W95280  17.244  33.968   4.197
35536W        W95281  34.120  29.010   1.781
35537W        W95282  22.640  18.664  14.892
35538W        W95283   3.783   8.384  10.894
35539W        W95284  37.883  10.316  10.975
35540W        W95285  37.846  28.964  12.479
35541W        W95286  28.539  12.648  14.031
35542W        W95287  29.616  14.159   3.749
35543W        W95288  35.487   5.331   1.448
35544W        W95289  16.675  21.142   1.385
35545W        W95290  35.584  26.057  12.488
35546W        W95291   1.899  10.184  11.006
35547W        W95292  20.144  36.990   2.348
35548W        W95293  32.090   9.779   3.839
35549W        W95294  40.374  16.577  10.916
35550W        W95295  24.015  17.113   4.759
35551W        W95296  15.644  36.969   3.279
35552W        W95297  28.605  35.985  10.923
35553W        W95298   5.309   4.750   1.826
35554W        W95299  14.773   0.750   2.366
35555W        W95300  28.000  41.967  11.467
35556W        W95301   4.412   0.935   2.350
35557W        W95302   1.394  34.476  11.110
35558W        W95303  30.084  12.722   4.771
35559W        W95304  30.051  25.581   1.793
35560W        W95305  30.517  14.299   0.786
35561W        W95306  38.333  33.500  13.362
35562W        W95307   8.174  44.462  14.963
35563W        W95308  22.110  11.196   0.939
35564W        W95309  26.120  14.590  11.550
35565W        W95310  22.044   2.941  14.954
35566W        W95311   8.303  21.734   4.762
35567W        W95312  25.675  30.584  11.379
35568W        W95313  33.477  44.777   2.782
35569W        W95314  27.005  13.763   3.283
35570W        W95315  33.622  22.657  13.816
35571W        W95316  43.987  44.772   2.227
35572W        W95317  29.974  37.562  11.020
35573W        W95318  24.044  29.469   3.695
35574W        W95319  24.195  37.073   1.694
35575W        W95320  17.274  11.175  14.030
35576W        W95321  25.103  24.603   0.879
35577W        W95322  25.049   9.220   1.288
35578W        W95323  29.456  15.264  11.109
35579W        W95324  22.141  22.578   1.364
35580W        W95325   2.246  31.437   2.287
35581W        W95326  11.839  18.173   1.237
35582W        W95327  39.011  38.896  12.917
35583W        W95328   9.162  42.922   2.784
35584W        W95329  26.009  25.524  11.929
35585W        W95330   1.875   0.913  11.070
35586W        W95331  30.113  41.957   2.752
35587W        W95332  16.173  19.125   4.701
35588W        W95333  18.196  24.201   3.862
35589W        W95334  42.923  14.134   0.766
35590W        W95335  41.336  15.673  14.871
35591W        W95336  35.032  23.216  13.524
35592W        W95337  15.310  19.612  11.419
35593W        W95338  11.700   4.383  11.994
35594W        W95339  37.898   8.737  10.946
35595W        W95340   6.291  14.631  13.854
35596W        W95341   3.427   6.222  12.378
35597W        W95342   0.818  11.861  12.381
35598W        W95343  19.732   9.258   2.673
35599W        W95344  23.708  28.049  10.569
35600W        W95345   2.380   6.274  11.558
35601W        W95346  16.689  18.259   4.707
35602W        W95347  42.466   3.814  13.356
35603W        W95348   3.894  16.739  11.015
35604W        W95349  12.854   8.258   3.783
35605W        W95350  41.509   6.923  10.405
35606W        W95351  42.306   4.311   4.679
35607W        W95352  23.654  15.769  11.400
35608W        W95353  18.195  30.923   0.372
35609W        W95354  34.518  22.134   1.865
35610W        W95355  39.040  20.176  13.020
35611W        W95356  13.232   7.202   2.403
35612W        W95357  31.151  18.232   3.703
35613W        W95358  41.421  44.801  12.048
35614W        W95359  19.069   5.815  10.973
35615W        W95360   9.329   6.887   0.384
35616W        W95361  24.122  43.790   1.804
35617W        W95362  36.379   8.269   4.786
35618W        W95363  36.031   2.725   4.790
35619W        W95364   3.289   0.346  11.468
35620W        W95365  22.701   0.386   3.793
35621W        W95366   5.427   4.292   4.169
35622W        W95367  10.208  18.259  11.520
35623W        W95368  12.127  28.004   0.466
35624W        W95369   7.396  17.614  14.780
35625W        W95370  25.130  24.531   4.212
35626W        W95371  37.916  41.312   4.236
35627W        W95372  28.509  35.079   2.806
35628W        W95373  30.073  19.545  11.531
35629W        W95374  30.460  16.726  13.983
35630W        W95375  22.239   8.170  13.318
35631W        W95376   3.451  29.038   0.742
35632W        W95377  18.292  10.144  14.441
35633W        W95378  10.748  39.492  14.759
35634W        W95379  42.003  15.709   4.142
35635W        W95380  32.505  37.080  11.889
35636W        W95381   8.888  38.038   0.791
35637W        W95382  25.053  15.230  13.995
35638W        W95383  19.138   6.781   4.177
35639W        W95384  39.039  16.800  13.792
35640W        W95385  13.714  36.441   3.710
35641W        W95386   9.348  16.242  14.324
35642W        W95387  17.677   3.949   3.279
35643W        W95388  28.146  21.613   3.203
35644W        W95389  35.539   3.845   1.903
35645W        W95390   7.221  24.173  11.518
35646W        W95391   2.453  33.507  10.414
35647W        W95392  31.943  28.006  10.489
35648W        W95393  37.923   7.710   3.321
35649W        W95394  37.517   5.889   1.313
35650W        W95395  37.461  41.306   3.280
35651W        W95396  23.182  32.533   1.804
35652W        W95397   6.276  12.293  11.564
35653W        W95398  42.953  16.258   2.691
35654W        W95399  43.016  15.260  14.856
35655W        W95400  11.168  17.728  12.873
35656W        W95401   5.215  19.707   2.342
35657W        W95402  33.994  40.929  14.010
35658W        W95403  12.665   0.913   4.224
35659W        W95404  33.936  44.950   4.306
35660W        W95405   2.241  36.014   2.331
35661W        W95406  37.531   2.325   3.801
35662W        W95407  15.734   1.249  14.962
35663W        W95408  17.158  37.889  11.536
35664W        W95409  15.739  22.653   3.725
35665W        W95410  18.199  43.496  11.912
35666W        W95411  39.021  23.156   3.347
35667W        W95412  10.333  32.595   2.359
35668W        W95413  22.701   1.360  14.511
35669W        W95414  12.786  25.012   0.877
35670W        W95415  10.850  42.444   0.454
35671W        W95416  18.170  11.743   3.669
35672W        W95417   9.221  44.312   2.857
35673W        W95418  16.164  24.045   2.702
35674W        W95419  20.138  36.518  14.397
35675W        W95420  21.708  37.940  14.988
35676W        W95421  40.804  44.376  14.490
35677W        W95422  22.646   0.794  14.764
35678W        W95423  29.480  38.510  12.463
35679W        W95424  22.116  11.668   0.409
35680W        W95425  26.655  18.145  12.062
35681W        W95426  17.247  20.719   2.883
35682W        W95427   6.870  12.734   4.644
35683W        W95428  39.975  40.334   0.850
35684W        W95429  20.658  21.621  11.597
35685W        W95430  27.566  36.500   0.775
35686W        W95431  38.845  14.671  12.826
35687W        W95432  12.314  16.227   0.950
35688W        W95433   1.804  30.068  10.106
35689W        W95434  21.107  21.194  13.419
35690W        W95435   3.408  32.066  14.932
35691W        W95436  26.585  34.462  10.080
35692W        W95437  20.210  24.046  14.334
35693W        W95438  22.162  27.989  11.591
35694W        W95439  33.954  11.228  10.491
35695W        W95440  35.934   8.697  14.393
35696W        W95441  21.633  17.747  14.896
35697W        W95442  15.802  36.862  10.471
35698W        W95443   3.909  19.193   0.916
35699W        W95444  38.468   7.172  10.534
35700W        W95445   9.296  20.257   4.201
35701W        W95446  28.578  24.066  10.935
35702W        W95447  21.215  31.149  10.440
35703W        W95448  24.226   1.297   5.684
35704W        W95449  15.186  39.471  12.398
35705W        W95450  26.166  13.350  10.507
35706W        W95451   8.281   3.871  11.878
35707W        W95452  15.284  21.253   0.360
35708W        W95453  22.124  36.476  10.540
35709W        W95454  18.251  17.068  12.890
35710W        W95455  42.496  13.217  13.863
35711W        W95456  15.636   8.690   1.398
35712W        W95457  14.263  29.503  14.460
35713W        W95458   6.320  33.910   2.324
35714W        W95459  34.892  23.497  12.005
35715W        W95460  43.904  37.439   1.788
35716W        W95461   2.234  44.502  13.889
35717W        W95462  15.684  23.185  11.967
35718W        W95463   0.811  39.352   0.399
35719W        W95464  17.584  36.367   4.337
35720W        W95465  14.097  36.911   2.403
35721W        W95466  36.898  17.657   2.901
35722W        W95467  38.359  22.225   0.742
35723W        W95468  40.822   7.888   3.767
35724W        W95469  30.557  18.603  11.965
35725W        W95470  30.502  41.439   1.720
35726W        W95471  27.609   7.883  13.495
35727W        W95472  21.025  17.648  10.901
35728W        W95473  42.881  16.183  12.451
35729W        W95474  26.105  37.020   3.848
35730W        W95475   6.186  29.455   2.865
35731W        W95476  31.617  26.663   4.625
35732W        W95477  12.626  10.639   4.324
35733W        W95478   6.373  39.426   0.399
35734W        W95479  32.971  35.451  11.111
35735W        W95480   8.752   9.774   3.367
35736W        W95481   2.925  22.590  13.984
35737W        W95482  15.273  11.258   4.805
35738W        W95483  30.471  30.135   1.927
35739W        W95484  20.580   6.835  13.925
35740W        W95485  37.433  31.421  13.826
35741W        W95486  19.607  14.717  12.438
35742W        W95487  29.501  39.815   3.801
35743W        W95488  22.638   8.364   4.785
35744W        W95489   7.680   8.711  10.608
35745W        W95490  33.584  39.814   1.928
35746W        W95491  11.127  33.417  14.342
35747W        W95492  15.744  25.497  10.928
35748W        W95493  21.724  32.926  11.949
35749W        W95494  26.106   2.347  11.035
35750W        W95495  34.022  16.767   1.794
35751W        W95496  32.421  17.769   5.146
35752W        W95497  34.398  10.373   4.274
35753W        W95498  26.615  16.269   0.249
35754W        W95499  37.338  31.970   3.751
35755W        W95500  25.689  33.032  13.450
35756W        W95501  22.524  35.467  13.959
35757W        W95502   8.395  35.922  10.992
35758W        W95503   0.874  24.131  13.907
35759W        W95504  36.410  25.074  10.502
35760W        W95505  22.629  34.082  13.512
35761W        W95506  30.427  31.560  10.954
35762W        W95507  23.719  39.473   1.248
35763W        W95508  25.981  19.621   0.887
35764W        W95509  38.893   7.666   4.654
35765W        W95510  20.129  15.606  11.120
35766W        W95511   2.424   2.893  12.013
35767W        W95512  14.290  30.623  13.863
35768W        W95513  18.684  39.907   2.695
35769W        W95514   9.872  14.686   3.196
35770W        W95515   9.771  17.150  14.451
35771W        W95516  40.905  42.883  10.629
35772W        W95517   2.419  32.470   3.304
35773W        W95518  37.412   6.200  13.972
35774W        W95519  28.680  20.086  14.011
35775W        W95520  33.578  17.660  13.806
35776W        W95521  23.135   0.493  12.423
35777W        W95522  10.174   3.452  13.411
35778W        W95523   9.247  33.029   1.767
35779W        W95524  19.229   0.893   4.202
35780W        W95525  30.515   0.354  13.463
35781W        W95526   3.381  30.439   3.374
35782W        W95527   9.390  29.114  11.602
35783W        W95528  30.625   3.450   3.681
35784W        W95529   3.242   4.321  12.481
35785W        W95530  17.671  25.492  12.066
35786W        W95531  23.733  10.733   4.823
35787W        W95532  33.096   8.898  10.476
35788W        W95533  19.589  31.558   0.323
35789W        W95534  39.450  22.511  11.000
35790W        W95535  42.860  16.602  10.013
35791W        W95536  28.001   2.918  12.923
35792W        W95537  29.032  18.710  11.053
35793W        W95538  30.047  25.676   3.707
35794W        W95539  17.580   8.261  12.360
35795W        W95540  14.236  27.539   4.758
35796W        W95541  38.886   3.917   1.278
35797W        W95542  17.606   1.349   4.244
35798W        W95543   9.362  37.987   3.208
35799W        W95544  28.594  41.425   0.306
35800W        W95545  29.607  29.616  11.458
35801W        W95546  37.360  22.718   3.375
35802W        W95547   2.961  35.037   3.236
35803W        W95548  37.069   4.795  12.551
35804W        W95549   7.351  14.221   2.862
35805W        W95550  10.652  31.604  14.884
35806W        W95551   5.214  30.627  13.907
35807W        W95552  41.801  44.272  10.408
35808W        W95553   0.782  27.991  12.973
35809W        W95554  30.090  35.037   2.877
35810W        W95555   5.852  30.510  12.936
35811W        W95556  16.591  42.997   2.397
35812W        W95557   4.247  18.779  11.914
35813W        W95558  17.118  32.011  11.611
35814W        W95559  40.345   0.456   1.359
35815W        W95560  27.978  26.099   2.368
35816W        W95561  12.713  38.435  12.512
35817W        W95562  14.614  32.039   3.674
35818W        W95563  13.732  24.183  12.903
35819W        W95564  41.452  36.582   2.873
35820W        W95565  36.485  35.524  11.011
35821W        W95566  43.462  25.120   1.827
35822W        W95567  35.424   0.427  13.388
35823W        W95568  27.109  44.479   4.186
35824W        W95569  29.580  16.746  11.385
35825W        W95570  28.015   9.265   2.863
35826W        W95571   6.834  41.419  13.513
35827W        W95572   8.824  43.504   1.894
35828W        W95573  12.319  35.375  13.336
35829W        W95574   0.475  32.006  10.936
35830W        W95575  12.741  31.545  10.602
35831W        W95576   9.255  28.134   3.379
35832W        W95577  18.606   6.851   3.804
35833W        W95578   5.349  23.658  14.926
35834W        W95579  41.915  37.425  14.029
35835W        W95580   3.407  23.629  14.938
35836W        W95581  13.346   4.795  12.395
35837W        W95582  27.074  37.848  14.364
35838W        W95583  23.087  28.590   2.322
35839W        W95584  12.623  30.926  13.915
35840W        W95585  34.993  32.481  12.096
35841W        W95586  19.242  20.565  12.477
35842W        W95587   9.162  29.564  13.474
35843W        W95588  29.955  43.500  11.929
35844W        W95589   3.247  14.761  11.898
35845W        W95590  15.685  22.563   3.296
35846W        W95591  33.591  24.181  10.928
35847W        W95592  14.192  37.951   4.221
35848W        W95593   2.739  31.942  14.881
35849W        W95594  30.115  44.319  12.851
35850W        W95595  10.872  19.090   3.373
35851W        W95596  28.668  24.146   2.315
35852W        W95597  42.329   8.790  13.333
35853W        W95598  17.227  17.063  14.890
35854W        W95599  25.508   3.324  12.031
35855W        W95600  21.112  14.650   1.339
35856W        W95601  25.029  16.788  12.426
35857W        W95602  43.481   4.767   2.717
35858W        W95603   5.707  33.017  13.975
35859W        W95604   4.336  24.550   4.214
35860W        W95605  42.846  28.483   0.433
35861W        W95606  12.786  38.404  14.030
35862W        W95607  36.960  22.174  11.970
35863W        W95608  15.213   7.372  14.960
35864W        W95609  36.923  23.216  13.395
35865W        W95610  35.478  33.536  10.582
35866W        W95611  12.735  38.026  14.312
35867W        W95612  17.212  41.894  11.876
35868W        W95613  19.210   2.464   5.097
35869W        W95614   9.663  13.755   1.366
35870W        W95615  11.181  40.892  13.366
35871W        W95616  20.641  27.088  13.055
35872W        W95617   1.481  42.853  13.829
35873W        W95618  39.451  19.222  10.512
35874W        W95619   8.843  36.926  14.947
35875W        W95620  12.765  17.081  14.334
35876W        W95621  10.322   8.214  11.421
35877W        W95622   5.265  36.580  14.450
35878W        W95623  15.788  27.590   3.646
35879W        W95624  27.158  23.116  10.502
35880W        W95625  33.900   9.759   2.693
35881W        W95626   3.757  31.447  13.451
35882W        W95627   2.468  19.674  13.055
35883W        W95628   1.916  15.644  11.516
35884W        W95629  28.097   6.428   3.835
35885W        W95630  13.144   8.716  11.439
35886W        W95631  12.358  43.950   2.377
35887W        W95632  35.561   3.339  10.583
35888W        W95633   2.452  10.331   1.849
35889W        W95634  20.067   9.734   4.293
35890W        W95635  27.188  17.614  13.497
35891W        W95636  44.953  11.762  14.994
35892W        W95637  22.048  40.344  14.981
35893W        W95638  17.305  40.416  11.118
35894W        W95639  16.610   0.828   3.808
35895W        W95640  32.113  32.618   3.196
35896W        W95641  40.439   9.852  13.412
35897W        W95642  29.623  43.426   0.865
35898W        W95643   0.491   0.449  10.561
35899W        W95644  13.603   8.666   2.880
35900W        W95645  42.887   2.234   2.286
35901W        W95646   7.697  44.799  11.570
35902W        W95647   3.409   5.286  13.986
35903W        W95648  16.623   4.769   4.706
35904W        W95649  20.093  30.471   5.297
35905W        W95650  16.141  11.280  14.957
35906W        W95651  25.034  18.234  11.873
35907W        W95652  38.523  27.455  14.030
35908W        W95653  24.608  25.174   0.440
35909W        W95654   8.852  29.046   2.771
35910W        W95655   8.719   5.379  12.863
35911W        W95656   5.415  40.893  12.087
35912W        W95657  36.841  18.260   2.401
35913W        W95658   3.301   9.160  14.001
35914W        W95659  36.469   6.876   0.455
35915W        W95660  31.980  31.082  10.563
35916W        W95661  26.208  26.550  14.986
35917W        W95662  18.131  14.261  10.996
35918W        W95663   5.361  38.384  14.455
35919W        W95664  33.513  34.407   3.273
35920W        W95665  12.215  42.390   4.302
35921W        W95666  18.242   7.321  11.594
35922W        W95667  29.984  15.765   3.674
35923W        W95668  12.263  17.651   2.775
35924W        W95669   2.926  31.101  13.507
35925W        W95670  44.925   4.838  14.377
35926W        W95671  14.766  31.073   1.810
35927W        W95672   0.444  10.720   2.354
35928W        W95673   8.198   7.690   2.893
35929W        W95674  22.156  19.585   3.172
35930W        W95675  39.884  43.382   1.771
35931W        W95676   5.240   9.163  13.825
35932W        W95677  20.114  13.143  12.537
35933W        W95678   6.834  25.630   0.932
35934W        W95679  18.782   7.731  11.386
35935W        W95680  37.988  30.069  11.080
35936W        W95681  18.596   8.375  13.389
35937W        W95682  42.977  43.434   1.390
35938W        W95683  12.119   5.404   4.344
35939W        W95684  42.798  39.033   3.279
35940W        W95685  21.105  35.993   0.375
35941W        W95686   3.750  17.076  11.594
35942W        W95687  32.925  26.198  13.328
35943W        W95688  28.126  16.620   2.298
35944W        W95689   1.391   2.759   2.875
35945W        W95690  24.989   6.310  14.436
35946W        W95691  12.189  21.523  13.820
35947W        W95692  41.323  26.176   1.787
35948W        W95693  22.675  22.654   1.403
35949W        W95694   8.327  31.508   0.346
35950W        W95695  35.924  27.980   1.398
35951W        W95696  21.690  31.556  14.413
35952W        W95697  24.139  19.647   0.964
35953W        W95698  12.245  13.346  13.951
35954W        W95699  16.745  14.227   1.389
35955W        W95700   8.780   3.314   2.688
35956W        W95701   5.369  30.490  11.542
35957W        W95702  44.790  36.978   1.324
35958W        W95703  34.417  15.616  12.393
35959W        W95704  17.567  43.503   2.231
35960W        W95705  40.479  11.236  13.025
35961W        W95706  16.277  17.280   0.893
35962W        W95707  22.570  10.680   4.220
35963W        W95708  30.429  30.630  10.619
35964W        W95709  14.817   7.257   2.393
35965W        W95710  17.072  20.127  13.792
35966W        W95711  40.367  30.931  12.560
35967W        W95712  15.212   9.320   0.279
35968W        W95713  11.698  22.051  11.548
35969W        W95714  31.531  43.410   4.636
35970W        W95715  22.075  31.074   3.281
35971W        W95716   2.352  33.961   4.138
35972W        W95717  31.068  36.586  13.879
35973W        W95718  38.344  36.981   0.825
35974W        W95719  27.557  20.181  10.934
35975W        W95720   2.944   0.745  12.533
35976W        W95721  41.393  37.395   4.813
35977W        W95722  43.384   4.833  13.536
35978W        W95723  30.625  21.078  14.986
35979W        W95724  32.887  13.241   0.441
35980W        W95725  18.747  40.431  14.974
35981W        W95726  40.353  28.620  13.912
35982W        W95727  24.682   9.233  14.310
35983W        W95728  43.369   6.756  11.118
35984W        W95729  42.961  20.271  12.449
35985W        W95730   5.400  19.713   2.666
35986W        W95731   8.360  38.528  12.059
35987W        W95732  17.658  22.117  14.802
35988W        W95733  35.601   0.344   3.778
35989W        W95734   2.885  12.302   0.373
35990W        W95735   8.332   9.778  10.506
35991W        W95736   5.744  34.891  11.865
35992W        W95737  38.361  27.527   1.363
35993W        W95738  21.663  37.870   2.840
35994W        W95739  11.271  25.119  13.488
35995W        W95740  40.307  38.403  10.888
35996W        W95741  39.388  43.874   0.397
35997W        W95742   9.680  35.916   3.729
35998W        W95743  28.438  11.708   2.755
35999W        W95744  30.948   0.930  11.857
36000W        W95745  25.638  16.210   3.859
36001W        W95746  25.182  13.325  14.347
36002W        W95747  10.714  40.367  14.991
36003W        W95748  19.692  33.044   4.232
36004W        W95749   5.320  32.950  11.470
36005W        W95750  33.601   3.725   4.619
36006W        W95751  12.353  32.582  11.041
36007W        W95752   4.358   8.293   1.215
36008W        W95753   5.792   7.799  13.381
36009W        W95754   6.298  13.797  14.487
36010W        W95755   5.266  35.071  13.938
36011W        W95756  16.789  35.050   3.214
36012W        W95757  11.152  15.743   3.634
36013W        W95758  22.232   3.849   1.852
36014W        W95759  29.634  30.924   2.316
36015W        W95760  22.610  30.995   0.276
36016W        W95761  23.198  19.105  12.990
36017W        W95762   6.206   1.862   4.629
36018W        W95763  44.846   3.845   2.900
36019W        W95764  34.451  30.921   0.286
36020W        W95765  31.071  22.692   2.751
36021W        W95766  26.958  41.331  14.954
36022W        W95767  41.495  37.858   0.418
36023W        W95768  16.300   0.356   1.822
36024W        W95769  23.070   6.204  14.486
36025W        W95770  42.368   3.359   0.326
36026W        W95771  14.131   1.337   1.435
36027W        W95772  18.587  19.669  13.465
36028W        W95773  14.597  41.872   0.419
36029W        W95774  42.937  16.715  13.035
36030W        W95775   2.767  33.955   2.715
36031W        W95776   5.899  43.367   0.391
36032W        W95777   5.341   8.181   0.906
36033W        W95778  10.877  40.418   0.941
36034W        W95779  41.788   7.379  12.370
36035W        W95780  42.929  37.866  10.927
36036W        W95781  34.013   7.301   2.211
36037W        W95782  41.439  40.844   3.736
36038W        W95783   8.703  27.623   0.965
36039W        W95784  18.722  16.220   1.935
36040W        W95785   3.449  26.508   0.743
36041W        W95786  38.410  15.090   1.790
36042W        W95787   6.884  19.575  14.324
36043W        W95788  13.807  19.615   2.845
36044W        W95789  36.382  14.159   0.960
36045W        W95790  30.964   8.803   1.430
36046W        W95791   6.759  32.018  14.414
36047W        W95792  23.085  13.280   4.825
36048W        W95793  35.473   9.678  11.900
36049W        W95794  11.311  11.738  14.797
36050W        W95795  31.505  17.179   2.282
36051W        W95796  10.799  22.067   4.619
36052W        W95797  33.436  29.078  12.887
36053W        W95798   1.361   2.753   2.251
36054W        W95799  24.106  10.733   0.480
36055W        W95800  39.930  38.067  13.987
36056W        W95801   4.908   9.703   2.196
36057W        W95802  18.292  29.511  13.978
36058W        W95803   3.750  37.380  12.078
36059W        W95804   3.446   1.442  10.645
36060W        W95805  32.953  11.672   4.814
36061W        W95806  25.013   4.927   0.326
36062W        W95807  38.416  28.601   3.176
36063W        W95808  37.492  26.475  13.463
36064W        W95809  15.775  36.383   1.760
36065W        W95810  14.176  10.165   3.821
36066W        W95811  35.548   4.449  12.412
36067W        W95812   6.897  40.943  14.029
36068W        W95813   1.330  38.467   1.346
36069W        W95814  36.889  25.160   0.334
36070W        W95815  27.028  36.855  12.455
36071W        W95816   5.260  14.762  13.793
36072W        W95817   0.273   3.300   4.733
36073W        W95818  25.523   3.903  11.898
36074W        W95819  31.607  31.489  10.537
36075W        W95820   7.375  25.149  10.527
36076W        W95821  35.098  29.147   4.767
36077W        W95822   2.439  33.008  14.978
36078W        W95823  40.003  38.919  10.507
36079W        W95824   0.456  36.044   2.684
36080W        W95825  31.639   6.186  13.486
36081W        W95826  28.442  16.656  13.327
36082W        W95827   0.886  43.398  13.471
36083W        W95828  19.638  25.600  13.056
36084W        W95829  12.673  28.500  12.504
36085W        W95830  33.967   0.866   2.408
36086W        W95831  35.518  30.498  13.357
36087W        W95832   0.966  29.036   1.269
36088W        W95833  10.719   4.431  13.484
36089W        W95834   4.922  37.020   2.750
36090W        W95835  44.295  15.756   3.222
36091W        W95836  26.561  39.481  14.357
36092W        W95837   8.786  28.646  10.505
36093W        W95838  13.273   8.243  14.378
36094W        W95839  40.541  35.590  14.358
36095W        W95840  20.573  11.698   3.261
36096W        W95841  19.071   7.763  12.996
36097W        W95842  42.484  23.037   3.746
36098W        W95843   7.196   5.328  14.980
36099W        W95844  14.633  41.521   1.827
36100W        W95845  20.159  24.984   1.415
36101W        W95846  37.429  31.974  14.858
36102W        W95847  41.488  44.289   2.395
36103W        W95848  16.745   6.825   3.361
36104W        W95849  14.266  19.702  13.481
36105W        W95850  23.161  17.801  11.549
36106W        W95851  22.581  26.548   3.742
36107W        W95852  30.573  10.223   5.162
36108W        W95853  40.003  24.081  14.853
36109W        W95854  40.516  15.668  10.980
36110W        W95855  29.497  44.320  14.859
36111W        W95856  36.077   4.768   5.147
36112W        W95857   0.446  30.591   0.873
36113W        W95858  16.298  35.484   1.852
36114W        W95859  36.526  30.456   4.753
36115W        W95860  22.574  11.176   5.301
36116W        W95861  12.336  16.654   3.781
36117W        W95862  39.877  42.374  12.039
36118W        W95863  41.530  13.348   3.851
36119W        W95864  17.207  28.440   3.278
36120W        W95865  41.944   3.826   4.177
36121W        W95866  12.292   4.402   2.238
36122W        W95867   2.912  19.144   0.290
36123W        W95868  42.456  42.846   0.764
36124W        W95869  16.707  20.650  14.032
36125W        W95870  40.487   2.394   5.141
36126W        W95871  17.194  12.230   4.687
36127W        W95872  37.482  41.934   4.648
36128W        W95873  16.125  16.307  12.977
36129W        W95874  24.484   9.815  10.505
36130W        W95875   0.474  36.070  10.062
36131W        W95876  27.954  38.041  14.007
36132W        W95877  41.841   9.366  14.862
36133W        W95878   4.829  42.437   4.116
36134W        W95879  10.347  13.221   0.467
36135W        W95880  28.657  10.263  11.432
36136W        W95881  28.992  40.935  14.964
36137W        W95882  24.489  16.205   3.865
36138W        W95883  44.343  19.756  10.972
36139W        W95884  37.460  40.514  14.516
36140W        W95885  28.940   2.316   1.214
36141W        W95886  29.102   1.337   3.661
36142W        W95887  27.588  15.261   1.717
36143W        W95888  20.140  44.913  14.420
36144W        W95889  33.102  29.163  12.835
36145W        W95890  42.520  21.165   1.862
36146W        W95891  20.668  12.690  14.844
36147W        W95892  21.757   2.936   2.221
36148W        W95893  13.764   3.874  12.850
36149W        W95894   3.820  13.830  13.862
36150W        W95895  20.034  38.346  14.839
36151W        W95896  20.703  41.487   4.275
36152W        W95897  33.966   7.863   4.125
36153W        W95898   8.694  11.662  14.876
36154W        W95899   1.253  16.809   5.686
36155W        W95900  35.963  38.976  11.895
36156W        W95901  25.983  33.992  11.540
36157W        W95902  36.425  38.515  13.868
36158W        W95903  26.683  26.963   3.743
36159W        W95904  26.123  18.682   4.273
36160W        W95905  20.058  32.107  13.344
36161W        W95906  18.135   7.210  12.977
36162W        W95907  13.196  32.090   1.881
36163W        W95908  37.900   2.878  11.862
36164W        W95909  31.032  11.840   4.676
36165W        W95910  21.631  43.470   2.761
36166W        W95911  33.086   8.654  13.471
36167W        W95912  10.755  27.681  11.085
36168W        W95913  12.845  38.974  11.525
36169W        W95914  16.207  20.678   2.686
36170W        W95915  18.664   7.843   3.288
36171W        W95916  44.008  12.691  10.411
36172W        W95917  10.873  21.195  13.967
36173W        W95918  13.115   9.858  14.772
36174W        W95919  41.533   5.398   3.379
36175W        W95920  21.580   1.402  12.539
36176W        W95921  34.114  19.199   2.867
36177W        W95922   5.382   9.199   4.182
36178W        W95923  12.145  10.144   4.177
36179W        W95924  43.350  10.793   2.289
36180W        W95925  15.622  13.178   1.883
36181W        W95926  29.641   8.358   1.718
36182W        W95927   1.879  29.135  12.920
36183W        W95928   0.946  13.629  11.086
36184W        W95929  21.635  34.437  10.440
36185W        W95930  34.068  15.798   1.446
36186W        W95931  24.159  24.566  11.977
36187W        W95932  20.549  35.897   2.841
36188W        W95933   4.784  40.451   1.861
36189W        W95934  15.299  35.574  14.938
36190W        W95935  30.962  14.225   3.291
36191W        W95936  38.908  21.514   4.207
36192W        W95937  20.048  19.551  10.562
36193W        W95938  33.010   9.156  12.067
36194W        W95939  14.700   3.326   4.663
36195W        W95940  22.663  33.440  13.386
36196W        W95941  44.470  26.056   3.278
36197W        W95942  40.832  14.831  12.016
36198W        W95943  43.806  10.304   4.824
36199W        W95944   1.323  11.185   4.674
36200W        W95945  33.043  38.881   0.284
36201W        W95946  39.376  17.067   0.313
36202W        W95947  32.029  21.666   0.444
36203W        W95948   9.810  22.182  10.473
36204W        W95949   7.714  30.485  12.562
36205W        W95950  32.420   9.228  10.064
36206W        W95951  40.037   6.742   3.244
36207W        W95952  17.795  31.128   3.356
36208W        W95953   1.446  15.261  12.385
36209W        W95954   0.318  34.594   2.758
36210W        W95955   8.773  19.122   2.372
36211W        W95956  36.452  39.927  14.429
36212W        W95957  26.996  14.177  12.414
36213W        W95958   2.429  13.686  13.356
36214W        W95959  37.055  40.984   4.147
36215W        W95960  29.660  21.683  14.402
36216W        W95961  30.124   2.363   0.334
36217W        W95962  20.624   2.721   5.750
36218W        W95963  31.432  36.473  14.275
36219W        W95964  35.526  40.806  14.281
36220W        W95965  34.497  13.657  14.858
36221W        W95966  18.702  14.626  14.331
36222W        W95967  15.660  18.138   4.219
36223W        W95968  23.543  32.930   5.275
36224W        W95969  21.664  41.946   0.264
36225W        W95970  21.210   6.729   4.195
36226W        W95971  39.498  11.655  11.512
36227W        W95972  39.415  33.072  12.456
36228W        W95973  26.038  22.629  11.855
36229W        W95974  21.139  39.405  10.440
36230W        W95975   4.829  15.814  13.889
36231W        W95976  19.726  37.877  12.377
36232W        W95977   5.841  42.943  14.368
36233W        W95978  37.566  13.167  10.421
36234W        W95979  12.632  18.293   0.455
36235W        W95980  15.606  34.532  14.794
36236W        W95981  34.559   6.698   2.400
36237W        W95982  22.587  35.047  14.892
36238W        W95983   8.829   6.198  12.064
36239W        W95984   0.789  42.822   5.229
36240W        W95985  30.940  16.581  10.490
36241W        W95986  44.891  36.573   3.835
36242W        W95987  29.597  36.859   3.759
36243W        W95988   0.954  13.751  13.006
36244W        W95989  39.551  22.124   1.343
36245W        W95990   2.865   7.700  13.452
36246W        W95991  17.132  16.737   0.946
36247W        W95992  25.701   7.772   2.664
36248W        W95993  33.426  19.678  11.564
36249W        W95994  40.452  18.264  13.395
36250W        W95995  27.456   2.241  13.523
36251W        W95996  43.825   2.341   2.856
36252W        W95997  16.086   3.396   3.655
36253W        W95998  25.154  43.918  12.000
36254W        W95999   9.868  30.528  14.768
36255W        W96000   0.896  39.902  12.431
36256W        W96001  16.115  40.818   1.831
36257W        W96002  33.016  10.805   1.276
36258W        W96003  26.041  14.627   4.125
36259W        W96004  42.516  16.214   1.347
36260W        W96005  37.576  42.783   2.702
36261W        W96006  32.398  22.742   4.188
36262W        W96007   6.820   7.890  13.881
36263W        W96008  30.573   4.430  13.538
36264W        W96009  40.355  28.543  11.043
36265W        W96010  27.122  30.449  11.011
36266W        W96011  38.452  16.765   3.250
36267W        W96012   4.432  36.965  10.930
36268W        W96013  42.449   2.449   1.814
36269W        W96014  34.478  15.805   1.902
36270W        W96015  37.844  11.695  12.048
36271W        W96016  29.667  23.082   4.301
36272W        W96017  31.932  36.404  14.760
36273W        W96018  42.812   2.394   0.341
36274W        W96019  27.571  31.523  13.334
36275W        W96020   8.876   4.840   0.247
36276W        W96021   4.770   2.735   2.711
36277W        W96022  21.150  14.606   0.793
36278W        W96023  17.647  29.123   4.785
36279W        W96024   3.822  15.296  11.072
36280W        W96025  30.978   0.908  10.908
36281W        W96026  13.820  37.443   9.529
36282W        W96027  21.038   9.677  13.953
36283W        W96028   6.727  25.182   3.294
36284W        W96029  37.361   9.833  10.408
36285W        W96030  11.744  31.489  13.983
36286W        W96031  39.867   4.277   4.196
36287W        W96032   6.904   1.288   2.253
36288W        W96033  30.990  32.544   2.409
36289W        W96034  12.641  25.468   1.757
36290W        W96035  32.023  13.605  13.987
36291W        W96036   2.306  41.520  14.960
36292W        W96037  43.397  21.083   2.805
36293W        W96038  29.645   4.323   1.703
36294W        W96039   1.305  22.587  13.527
36295W        W96040  29.134   5.325  14.864
36296W        W96041   3.278  15.150  12.420
36297W        W96042  34.562   7.253   2.325
36298W        W96043  36.440  32.633  14.958
36299W        W96044  15.167  27.667   4.696
36300W        W96045   8.698  20.718   0.859
36301W        W96046  41.024  11.307  10.905
36302W        W96047  26.110  19.747  10.466
36303W        W96048  32.534  23.700   1.919
36304W        W96049  37.087  14.828   4.254
36305W        W96050  28.652  26.683  13.913
36306W        W96051  31.554  34.097  13.438
36307W        W96052  41.982   2.743  14.841
36308W        W96053   4.765  44.359  10.405
36309W        W96054  29.134  30.944   4.808
36310W        W96055  31.598  29.026  12.055
36311W        W96056  27.119  35.876  11.095
36312W        W96057  21.562  30.976  11.923
36313W        W96058  10.140   4.351   1.840
36314W        W96059  30.430  18.565   5.199
36315W        W96060  16.689   6.844  12.361
36316W        W96061  33.489   4.277   4.793
36317W        W96062  39.011  34.546  13.963
36318W        W96063  37.896  35.455   1.869
36319W        W96064  19.712  17.089  13.334
36320W        W96065   9.343  40.319  14.452
36321W        W96066   1.370  10.655  10.533
36322W        W96067  10.669  26.083   3.782
36323W        W96068  37.898  35.435   0.834
36324W        W96069  14.744  11.281   2.196
36325W        W96070  37.032  44.311   4.291
36326W        W96071   6.778  18.284  12.470
36327W        W96072  10.735  42.022   3.380
36328W        W96073  34.387  43.509  12.049
36329W        W96074   1.866  18.583  11.411
36330W        W96075  34.918   4.943   5.238
36331W        W96076  25.664  31.022   1.826
36332W        W96077   3.732  24.009  11.496
36333W        W96078   5.346   5.756  12.384
36334W        W96079  42.913   9.804   1.783
36335W        W96080  42.793  27.077  13.542
36336W        W96081  32.989  42.412  10.560
36337W        W96082  13.726  33.060   1.738
36338W        W96083  20.184  41.390  12.976
36339W        W96084  41.877   4.814  14.880
36340W        W96085   9.725  10.654   4.743
36341W        W96086   4.219  41.877  12.573
36342W        W96087   3.714  13.720   1.901
36343W        W96088  16.179   4.204   2.881
36344W        W96089  38.437  35.080   3.274
36345W        W96090  21.260   9.273   5.197
36346W        W96091  42.481  13.621   4.668
36347W        W96092   5.727   5.758   1.858
36348W        W96093  43.405  12.816  11.385
36349W        W96094  13.640  10.818  12.863
36350W        W96095  17.668  19.100   2.863
36351W        W96096  23.031  33.045   0.345
36352W        W96097  18.747  21.632   2.405
36353W        W96098  22.725  13.623   2.839
36354W        W96099  39.962  24.669   2.402
36355W        W96100  19.767  15.287  13.461
36356W        W96101  15.670  42.900  14.760
36357W        W96102   5.694  12.123  14.925
36358W        W96103  43.827   0.882   1.699
36359W        W96104  32.116  23.655   4.249
36360W        W96105  28.007  26.585   2.662
36361W        W96106  18.592  41.386   1.705
36362W        W96107  42.368  20.554   4.189
36363W        W96108  31.957  26.598  12.084
36364W        W96109  43.312  23.557   0.764
36365W        W96110  31.981  30.415  13.404
36366W        W96111  25.102   5.919   4.719
36367W        W96112  23.050  10.774  11.576
36368W        W96113  31.026  40.883   4.289
36369W        W96114   8.761  12.291   1.357
36370W        W96115  39.996   2.372   1.827
36371W        W96116   7.225  31.045  13.794
36372W        W96117  38.951  33.495  11.994
36373W        W96118   6.420   3.866   4.837
36374W        W96119  31.445  28.090  11.493
36375W        W96120  32.391  12.830   0.892
36376W        W96121   6.273  18.247   0.481
36377W        W96122  25.595   1.238  10.970
36378W        W96123   5.287  31.917   5.087
36379W        W96124  38.439  23.691  12.429
36380W        W96125  23.690  21.026   4.179
36381W        W96126  44.482  23.178   2.187
36382W        W96127  42.525   0.825   3.845
36383W        W96128  25.696  36.514  13.376
36384W        W96129  29.170  37.988  14.348
36385W        W96130   1.331  27.064   3.871
36386W        W96131  41.390   8.168   3.200
36387W        W96132  11.821  15.167   4.695
36388W        W96133  34.943  43.436   0.776
36389W        W96134  31.454  24.087  10.961
36390W        W96135  10.253  27.523  14.440
36391W        W96136  27.571  21.645   4.203
36392W        W96137  22.541  13.197  10.890
36393W        W96138  35.036  43.934   2.368
36394W        W96139  34.016  22.086  12.040
36395W        W96140  13.807  25.070  10.591
36396W        W96141  19.662   5.795   1.917
36397W        W96142  38.927  38.942  14.325
36398W        W96143  27.106  36.893  13.423
36399W        W96144   2.441  29.561   3.267
36400W        W96145  31.954  34.928  12.831
36401W        W96146  25.073  18.082   3.317
36402W        W96147  40.392  34.894  11.030
36403W        W96148  30.964  38.928  12.889
36404W        W96149  33.523  33.602  11.930
36405W        W96150  43.507  26.153  11.479
36406W        W96151  10.843  22.018   2.888
36407W        W96152  28.574  38.930  12.362
36408W        W96153  41.392  19.264  11.573
36409W        W96154  16.252  10.773   1.217
36410W        W96155  32.091   3.258   3.669
36411W        W96156  35.921   4.897   1.725
36412W        W96157  31.403  12.301   2.336
36413W        W96158  44.878   5.820  10.977
36414W        W96159   0.876  19.175   0.342
36415W        W96160  25.049   2.957  10.909
36416W        W96161   2.777  21.663   2.409
36417W        W96162  39.458  11.640   0.840
36418W        W96163   6.899  28.982   3.751
36419W        W96164  22.235  23.094   2.204
36420W        W96165  37.549  27.502  11.556
36421W        W96166  27.160  34.982   4.733
36422W        W96167  34.403  20.709  13.964
36423W        W96168   3.878  17.591   1.293
36424W        W96169  15.124  39.532  14.916
36425W        W96170   2.880  26.958  12.424
36426W        W96171   3.808   6.262  11.015
36427W        W96172  36.477  41.421   2.807
36428W        W96173  10.355  28.026   1.425
36429W        W96174   7.238  44.911  13.808
36430W        W96175  13.817   6.687   2.366
36431W        W96176  23.062   3.833  12.381
36432W        W96177  31.136  43.277   0.875
36433W        W96178  35.871   1.877  11.429
36434W        W96179  40.338   0.754  13.846
36435W        W96180  21.238   0.980   2.282
36436W        W96181  19.212  14.760  13.527
36437W        W96182   0.427  18.206   2.304
36438W        W96183  20.129   9.849   1.841
36439W        W96184  35.363  42.520   2.266
36440W        W96185  28.580  10.331  14.931
36441W        W96186   6.226  32.989   2.682
36442W        W96187   4.428  17.279  10.943
36443W        W96188  39.365  27.014   1.753
36444W        W96189  33.448  35.601   1.350
36445W        W96190  11.755   2.934   2.794
36446W        W96191  38.966  42.823  12.987
36447W        W96192  39.898  18.109  13.488
36448W        W96193  21.611  39.065   1.828
36449W        W96194  19.155  39.814  12.352
36450W        W96195  43.400  23.504  11.559
36451W        W96196   4.365  18.168   4.655
36452W        W96197  29.950   6.812   0.891
36453W        W96198   2.300   5.735   0.871
36454W        W96199   0.975  28.458   0.294
36455W        W96200  28.103  26.991  12.068
36456W        W96201  41.444  13.284  14.987
36457W        W96202  38.847  24.118  12.995
36458W        W96203  40.804  34.539   1.841
36459W        W96204  34.544   7.378   1.903
36460W        W96205  27.174  11.196   1.804
36461W        W96206  30.029  36.933   4.785
36462W        W96207  34.010  39.482  12.849
36463W        W96208  17.774  27.106  11.118
36464W        W96209  40.416  34.417   0.419
36465W        W96210   7.322   1.975   2.675
36466W        W96211  38.519   0.339  11.126
36467W        W96212   3.345  21.615   0.833
36468W        W96213  37.565  17.200   2.807
36469W        W96214  10.332  39.954  13.055
36470W        W96215  15.589  15.637  10.584
36471W        W96216   4.368  33.589  14.008
36472W        W96217  38.462  16.306   4.649
36473W        W96218   0.284   4.389   1.856
36474W        W96219  41.353  33.914  10.445
36475W        W96220  18.174  19.201  13.906
36476W        W96221  41.484   3.947  12.340
36477W        W96222   6.860   8.229  13.475
36478W        W96223   2.810  37.495  13.532
36479W        W96224   7.252  31.576  14.767
36480W        W96225  14.101  31.976   1.385
36481W        W96226  35.973  40.374   4.243
36482W        W96227  17.260  26.551  11.084
36483W        W96228  41.816  25.602  14.853
36484W        W96229  27.630   6.916  14.964
36485W        W96230  34.038  22.677  12.870
36486W        W96231  27.458   2.235   0.368
36487W        W96232  27.964  18.659   2.750
36488W        W96233  20.550   3.922   4.278
36489W        W96234  19.220  32.521  10.970
36490W        W96235  26.031  32.909   1.349
36491W        W96236  10.659  32.603   3.367
36492W        W96237   9.300  31.493  11.462
36493W        W96238   8.756   5.378  13.336
36494W        W96239   8.715   8.400   4.231
36495W        W96240  10.286  39.429  11.903
36496W        W96241  37.375  27.564   0.474
36497W        W96242  15.206  41.510  12.369
36498W        W96243   5.728  27.050  13.847
36499W        W96244  16.657  24.626  10.941
36500W        W96245  34.442  16.158  14.777
36501W        W96246  25.039  33.458   4.719
36502W        W96247  34.893  13.315  11.119
36503W        W96248  35.969  14.251   3.199
36504W        W96249   3.903   9.353  11.495
36505W        W96250  35.002  19.711   9.938
36506W        W96251  26.062  31.521   2.820
36507W        W96252   4.925  13.825  13.825
36508W        W96253  18.106  28.014   3.858
36509W        W96254  41.849   5.901   2.258
36510W        W96255   8.393  17.207  12.870
36511W        W96256  44.929  38.007  14.968
36512W        W96257  19.146  29.975  14.799
36513W        W96258   7.872   7.725   3.766
36514W        W96259  26.123  30.658  13.430
36515W        W96260  28.636  38.993   2.853
36516W        W96261  11.849  20.085   1.300
36517W        W96262  30.540  19.246   1.406
36518W        W96263   3.939   9.759  13.922
36519W        W96264  22.608  44.317   2.366
36520W        W96265   8.313  10.319  14.429
36521W        W96266  27.605  13.677   0.739
36522W        W96267  38.034  23.667   2.183
36523W        W96268  26.078   5.417   1.428
36524W        W96269  10.852  35.404  14.778
36525W        W96270  42.406  12.219   3.744
36526W        W96271  21.133  11.348  13.910
36527W        W96272  36.370  34.934  11.111
36528W        W96273  43.400   7.872  11.438
36529W        W96274  14.158   9.363   2.823
36530W        W96275   7.800  32.945  13.434
36531W        W96276  29.666  42.487  10.552
36532W        W96277  26.026  21.745  11.604
36533W        W96278   6.834   6.743  14.403
36534W        W96279  30.497   3.916   1.763
36535W        W96280  34.507   4.823  14.302
36536W        W96281  43.013  18.129   0.877
36537W        W96282  42.860  44.368   3.206
36538W        W96283  10.206  24.166  13.039
36539W        W96284   7.869  10.674   2.310
36540W        W96285  10.847  17.161   0.276
36541W        W96286   6.338  33.894   2.855
36542W        W96287   9.650  24.205   1.265
36543W        W96288  21.028  32.046  14.329
36544W        W96289  42.881   9.154  12.009
36545W        W96290  32.452   8.655  11.940
36546W        W96291   2.346  11.362  11.892
36547W        W96292  36.512   0.257  10.553
36548W        W96293   8.838  19.112  12.087
36549W        W96294  39.940  31.123   3.213
36550W        W96295  21.585  36.010   5.300
36551W        W96296  40.883  13.657  10.584
36552W        W96297  15.168  37.010   4.820
36553W        W96298  17.249  29.080   2.367
36554W        W96299  17.142  26.952  13.401
36555W        W96300  24.599  29.089   1.894
36556W        W96301  36.865  43.353  14.461
36557W        W96302   8.369  11.650   1.259
36558W        W96303  20.153  32.077  13.910
36559W        W96304  32.067  25.516  12.832
36560W        W96305  32.567  43.994   2.270
36561W        W96306  29.087  26.674   4.161
36562W        W96307   4.746  20.070  14.343
36563W        W96308  38.885  37.445  14.833
36564W        W96309   6.714   6.898   4.286
36565W        W96310  20.584  20.683  12.858
36566W        W96311  12.270  30.973  13.041
36567W        W96312  13.154   1.886   2.757
36568W        W96313   0.489   9.315   4.293
36569W        W96314  44.913   9.643  13.353
36570W        W96315  34.613  33.570   4.119
36571W        W96316   7.369   7.173  12.000
36572W        W96317  14.695  27.540   4.182
36573W        W96318  22.745  27.181   0.957
36574W        W96319  35.460  20.236   1.925
36575W        W96320  19.160  15.765  11.379
36576W        W96321   4.833  27.511  11.557
36577W        W96322   0.757  34.077  10.415
36578W        W96323  33.446   5.413   3.655
36579W        W96324  13.837   1.433  14.980
36580W        W96325  15.190   5.258  10.935
36581W        W96326  43.393   7.216   3.815
36582W        W96327  34.477   3.272  10.602
36583W        W96328   9.241  27.546  14.814
36584W        W96329  27.553   7.792  12.908
36585W        W96330   7.398  32.542   3.224
36586W        W96331  37.368  26.191  13.874
36587W        W96332   3.222  27.031   3.771
36588W        W96333  29.582   2.250   3.697
36589W        W96334  36.911  44.312   3.696
36590W        W96335  20.233  12.280  14.935
36591W        W96336  17.597  10.722  13.423
36592W        W96337  22.145  24.532   2.226
36593W        W96338  17.203  11.635   2.186
36594W        W96339  33.002   8.350  10.511
36595W        W96340  35.451  31.536   0.844
36596W        W96341  36.503  33.995  13.373
36597W        W96342   1.410  29.007   0.906
36598W        W96343   5.873  22.644   2.716
36599W        W96344  22.121  41.885  12.424
36600W        W96345  11.349  43.392  10.563
36601W        W96346   2.330  15.172  11.536
36602W        W96347  17.293  40.545  12.535
36603W        W96348  29.430  33.574   4.306
36604W        W96349  28.987  13.767   3.864
36605W        W96350  12.263  37.418   4.305
36606W        W96351  41.030  19.539  14.445
36607W        W96352   5.838  34.402  11.122
36608W        W96353  43.878   1.781   1.798
36609W        W96354  16.091   6.364  10.471
36610W        W96355  12.752  44.003   3.368
36611W        W96356  24.500  13.203   4.350
36612W        W96357   5.223  19.697   4.718
36613W        W96358  40.541  32.891   4.752
36614W        W96359  19.137  44.451  12.532
36615W        W96360   3.307  23.498   4.670
36616W        W96361  27.460  13.206  12.427
36617W        W96362  31.043  19.572   2.861
36618W        W96363  42.928  26.119   4.342
36619W        W96364   2.409   4.409   0.786
36620W        W96365   1.732  35.466   1.881
36621W        W96366   9.230   0.866   3.641
36622W        W96367   5.807  33.498   2.297
36623W        W96368  37.022  11.291   2.692
36624W        W96369  32.921  42.781   2.332
36625W        W96370  32.491  31.592   2.388
36626W        W96371   3.261  29.995  13.515
36627W        W96372   6.243  20.115   2.715
36628W        W96373  23.667  20.536  14.818
36629W        W96374  34.017  43.340  14.370
36630W        W96375  11.285  34.434  12.412
36631W        W96376  36.058   0.480  13.052
36632W        W96377  13.705  36.406   0.346
36633W        W96378  36.006  16.774  14.377
36634W        W96379   0.361  37.557   0.882
36635W        W96380  21.565  42.920  13.931
36636W        W96381  43.963  21.704  10.592
36637W        W96382  19.200  20.625  11.462
36638W        W96383  22.173  28.957   4.197
36639W        W96384  15.790  40.310   0.934
36640W        W96385  19.237  12.220   0.923
36641W        W96386   8.226  26.490   0.823
36642W        W96387  36.510  42.919   0.370
36643W        W96388  40.811  17.182   0.938
36644W        W96389  14.197   7.878   2.685
36645W        W96390  44.785  10.210   2.814
36646W        W96391  32.437  10.668  13.546
36647W        W96392  32.497  29.468  12.858
36648W        W96393  12.729  10.307   4.771
36649W        W96394  16.776   6.918  12.982
36650W        W96395   0.804  29.132  12.418
36651W        W96396  24.625  24.653  10.425
36652W        W96397  44.868   1.448  13.507
36653W        W96398  19.244   6.733   1.272
36654W        W96399  10.314  11.284   4.791
36655W        W96400  32.011  10.813   1.441
36656W        W96401  29.592  24.687  11.398
36657W        W96402  41.011  30.113  13.848
36658W        W96403   6.282  25.178   2.389
36659W        W96404  21.583   8.668   4.771
36660W        W96405   4.786  42.435   3.690
36661W        W96406  24.504  24.644  13.947
36662W        W96407  10.655   4.374   1.275
36663W        W96408  21.018   3.397   0.351
36664W        W96409  42.390   6.734  14.822
36665W        W96410  18.582   0.778   3.734
36666W        W96411  14.610  16.597   1.825
36667W        W96412  14.834  12.327  13.513
36668W        W96413  15.225   9.872  14.826
36669W        W96414  28.610  21.591   0.814
36670W        W96415  17.141   7.271  12.868
36671W        W96416  16.686  37.872  11.441
36672W        W96417  26.526  18.597  13.027
36673W        W96418  23.498  34.378   4.127
36674W        W96419   8.277   1.316  12.371
36675W        W96420  18.097  37.026   0.413
36676W        W96421  33.103  16.583  10.496
36677W        W96422  42.470  17.648  10.478
36678W        W96423  43.785  12.827   1.744
36679W        W96424   7.886  26.673   1.845
36680W        W96425  12.322  11.648   4.321
36681W        W96426  40.411  22.120   4.210
36682W        W96427  25.524  37.455  10.641
36683W        W96428  17.220   3.868   4.644
36684W        W96429  27.146  30.501  12.016
36685W        W96430  12.360   4.738  12.917
36686W        W96431  17.559  11.677  13.831
36687W        W96432  44.330   2.463   1.323
36688W        W96433   2.435  20.056   0.878
36689W        W96434  37.987  43.453  10.427
36690W        W96435  31.978  40.817  10.571
36691W        W96436  19.210  33.979   1.293
36692W        W96437   9.715  31.065  13.910
36693W        W96438  16.159  32.070   3.670
36694W        W96439  41.420  24.524   1.237
36695W        W96440   6.828  39.048  10.433
36696W        W96441  16.226  12.715   0.800
36697W        W96442  31.473  31.484   2.192
36698W        W96443  20.108  13.176   2.736
36699W        W96444  12.735  41.463   1.804
36700W        W96445  16.593  19.731   2.681
36701W        W96446  17.569  25.582  11.035
36702W        W96447  32.477  11.724   2.218
36703W        W96448  36.480   7.735  10.907
36704W        W96449  19.261  30.533  11.068
36705W        W96450  31.001  41.811  12.373
36706W        W96451   0.454   7.269  11.374
36707W        W96452  26.993   9.829  12.011
36708W        W96453  21.678  11.838  14.899
36709W        W96454  38.425   7.251   1.402
36710W        W96455  14.777   1.413   2.379
36711W        W96456   9.705   5.241   2.697
36712W        W96457  27.594  37.838  14.325
36713W        W96458  17.617  30.528  12.549
36714W        W96459  41.816   9.199  11.969
36715W        W96460  42.856  25.541  12.879
36716W        W96461  44.830   4.863   4.203
36717W        W96462   1.902  20.751   0.800
36718W        W96463  40.482  27.970  11.910
36719W        W96464  10.740  20.738  11.941
36720W        W96465  12.331   6.203  13.894
36721W        W96466  19.073   6.343  14.298
36722W        W96467  37.837  30.933  11.016
36723W        W96468  23.537  19.624   2.252
36724W        W96469  22.511  42.782   3.210
36725W        W96470  22.212  11.861  10.143
36726W        W96471  17.091  31.907   2.801
36727W        W96472  26.641  20.672  12.058
36728W        W96473  21.708   7.352   4.137
36729W        W96474  29.138   7.889  11.055
36730W        W96475  31.134  20.240  11.105
36731W        W96476  44.375  20.227  13.399
36732W        W96477  30.518  43.835  13.024
36733W        W96478   9.378   4.305   3.158
36734W        W96479   6.691   1.428  10.626
36735W        W96480  18.121  29.537   1.449
36736W        W96481  20.127  40.543   1.224
36737W        W96482  33.903  43.866  14.502
36738W        W96483  14.112  13.228   1.249
36739W        W96484  15.631  21.191  12.481
36740W        W96485  25.620  22.681  11.439
36741W        W96486  13.603  29.501   0.429
36742W        W96487  26.457  30.534  13.421
36743W        W96488  39.430   8.187   2.676
36744W        W96489  31.527  30.983   2.303
36745W        W96490  16.601  15.702   4.235
36746W        W96491  40.888   4.709  11.093
36747W        W96492  36.563  22.728   2.287
36748W        W96493   2.320  21.182  13.325
36749W        W96494  24.560  27.966  10.524
36750W        W96495  14.826   6.755   1.924
36751W        W96496  41.305  23.633   4.613
36752W        W96497  19.758  12.822  12.497
36753W        W96498   5.696  25.986  11.480
36754W        W96499  17.248   7.225  10.469
36755W        W96500  13.745   1.281   0.885
36756W        W96501  15.771   7.366  12.556
36757W        W96502  10.640   9.879  14.502
36758W        W96503  31.117  38.383  12.842
36759W        W96504  12.835  18.715   4.729
36760W        W96505  29.511  14.254   4.258
36761W        W96506  42.979  31.575  13.433
36762W        W96507  30.636  22.057   2.818
36763W        W96508  34.928  39.987  14.969
36764W        W96509  30.971  11.826   0.302
36765W        W96510  15.295   5.772  12.341
36766W        W96511  23.155  21.064   3.753
36767W        W96512  34.044  27.040  10.559
36768W        W96513  25.207  43.476  12.378
36769W        W96514  43.807  12.125   2.292
36770W        W96515   2.237  26.488  10.534
36771W        W96516   9.802  34.540   3.311
36772W        W96517   4.350  16.567   3.859
36773W        W96518  33.521  38.052   1.339
36774W        W96519  16.655  36.037  12.925
36775W        W96520  18.054  21.042  12.396
36776W        W96521  27.084   8.187   0.795
36777W        W96522  17.798  22.687  13.053
36778W        W96523  20.226  27.979   1.858
36779W        W96524   1.444  15.590  14.800
36780W        W96525  29.637  15.328   3.206
36781W        W96526  17.258  43.299  11.543
36782W        W96527   2.269  14.303   1.805
36783W        W96528  26.141  33.460  13.343
36784W        W96529  22.576   2.737  10.545
36785W        W96530  10.783  16.266   1.781
36786W        W96531   9.789   3.760   2.895
36787W        W96532   7.786  24.153  14.005
36788W        W96533  15.691   2.326  14.791
36789W        W96534   0.493  43.351  12.885
36790W        W96535  31.548   0.792  14.769
36791W        W96536  42.799  11.649  14.417
36792W        W96537  17.641  34.032   0.364
36793W        W96538  12.832  40.924   2.289
36794W        W96539  17.762   8.883  14.943
36795W        W96540  17.139   5.914  12.575
36796W        W96541  11.284   3.836  14.924
36797W        W96542  36.001  40.017   0.272
36798W        W96543  30.484  18.297  13.841
36799W        W96544  42.350   4.357  13.337
36800W        W96545  17.715  16.149   1.889
36801W        W96546  20.184  27.484  10.897
36802W        W96547  22.738  26.099  11.129
36803W        W96548  10.707  12.629  14.302
36804W        W96549  30.604  35.508   3.757
36805W        W96550   4.773  14.745   2.736
36806W        W96551  19.637  20.568   1.214
36807W        W96552  19.208  21.191  12.441
36808W        W96553  15.262  13.323   3.746
36809W        W96554  14.246  11.663  12.075
36810W        W96555  43.818  14.253   0.743
36811W        W96556   1.737  30.096  11.938
36812W        W96557   7.404  37.515  13.823
36813W        W96558   2.316  38.860  12.866
36814W        W96559  12.317  24.065   3.837
36815W        W96560   3.942  42.313  12.938
36816W        W96561   7.415   9.324  14.813
36817W        W96562  26.042  28.155   4.203
36818W        W96563  16.078   9.152  10.626
36819W        W96564  35.435  21.612   4.815
36820W        W96565   0.978  42.980   3.769
36821W        W96566  36.503  10.334   0.314
36822W        W96567  20.065  16.220  10.534
36823W        W96568  25.669  38.555   2.812
36824W        W96569  31.628  24.086   2.215
36825W        W96570  44.396  12.789  11.858
36826W        W96571   6.385  27.111  12.074
36827W        W96572  11.752  18.573   3.758
36828W        W96573  14.178   1.866   3.784
36829W        W96574  22.606   5.293  13.444
36830W        W96575  43.978   3.302   2.898
36831W        W96576  24.494  26.996   1.392
36832W        W96577  41.484   9.760   4.139
36833W        W96578   2.851   5.313   0.390
36834W        W96579  15.282  29.637  11.115
36835W        W96580  24.209  40.905  13.948
36836W        W96581  36.569   2.723  13.464
36837W        W96582  17.282   4.363  12.440
36838W        W96583   3.740   5.385  14.894
36839W        W96584   6.236   3.773   3.190
36840W        W96585  21.676  42.873   0.946
36841W        W96586  26.193  38.546   4.168
36842W        W96587   5.755   3.796  12.427
36843W        W96588  42.788   2.932  14.294
36844W        W96589   1.422   5.282  11.493
36845W        W96590  35.532   1.732  11.954
36846W        W96591  21.154  20.080   1.931
36847W        W96592   5.856  20.222  10.108
36848W        W96593  38.455   2.427  14.789
36849W        W96594  20.123  11.288   1.365
36850W        W96595  41.336   0.908   1.443
36851W        W96596  19.705   1.336   5.572
36852W        W96597  18.677  44.796   1.252
36853W        W96598  12.837  11.823   1.303
36854W        W96599   4.395  12.679   4.830
36855W        W96600  41.440   5.895  12.345
36856W        W96601  24.724  30.639   3.264
36857W        W96602   8.393  28.054   0.943
36858W        W96603  28.151  38.980   3.210
36859W        W96604  15.119  39.426   1.833
36860W        W96605  26.125   0.323  10.571
36861W        W96606  42.885   7.175  11.567
36862W        W96607   0.961   2.278   4.666
36863W        W96608   8.828  10.332   4.131
36864W        W96609  12.648  18.248  13.900
36865W        W96610  44.475  11.200  10.928
36866W        W96611  10.341  11.796   0.463
36867W        W96612   1.976  37.347  14.788
36868W        W96613   6.914  38.921  12.990
36869W        W96614  21.056  20.180  13.328
36870W        W96615   1.801  17.628  14.915
36871W        W96616  43.923  28.987  13.417
36872W        W96617  30.940  33.593  13.403
36873W        W96618   8.386  31.647  10.644
36874W        W96619  18.214  42.344  14.491
36875W        W96620  16.185  25.477  13.812
36876W        W96621  33.048  33.077  12.966
36877W        W96622  14.677  41.974  14.419
36878W        W96623  21.664   2.754  13.064
36879W        W96624   0.482  18.586  13.924
36880W        W96625   9.378  44.855  13.059
36881W        W96626   9.302  12.741   5.288
36882W        W96627  11.692  41.406  13.878
36883W        W96628  25.046  40.832  14.417
36884W        W96629  25.603   3.867   9.978
36885W        W96630   7.178  21.708   4.732
36886W        W96631  38.568  24.552  11.945
36887W        W96632  27.989   7.354  14.305
36888W        W96633  10.642  17.248  14.363
36889W        W96634  28.136  17.778  10.888
36890W        W96635  35.895  42.357   0.387
36891W        W96636  13.756  20.553   2.352
36892W        W96637  20.527  14.674  14.830
36893W        W96638  16.686   8.845  12.361
36894W        W96639  28.141   9.197  10.990
36895W        W96640  40.831  36.520  13.494
36896W        W96641  38.463   1.832  11.575
36897W        W96642  31.097   5.218  12.492
36898W        W96643  43.447  19.776  14.315
36899W        W96644   2.271  42.393  12.471
36900W        W96645  15.712  37.533  12.453
36901W        W96646  17.654  12.224   4.228
36902W        W96647  15.201  10.675  11.125
36903W        W96648  33.492   1.904   2.250
36904W        W96649   3.886  22.569   4.785
36905W        W96650  31.967   9.350  13.982
36906W        W96651  20.695  15.724   1.830
36907W        W96652  28.949   0.481   2.395
36908W        W96653  42.446  12.313   0.805
36909W        W96654   5.741  18.705  11.480
36910W        W96655  15.173  13.748   0.764
36911W        W96656  14.222  28.630  14.900
36912W        W96657   2.321  30.103  12.426
36913W        W96658  37.484  10.642  13.931
36914W        W96659   9.708  19.114   1.416
36915W        W96660  10.680  40.952  13.013
36916W        W96661  21.587   3.773   5.567
36917W        W96662   8.317   5.333  11.035
36918W        W96663  27.150  12.175   1.373
36919W        W96664  41.459  42.835   2.320
36920W        W96665  39.015  33.088   2.219
36921W        W96666   6.760  17.763  14.403
36922W        W96667   1.263   4.305   1.447
36923W        W96668   2.448  14.144  10.450
36924W        W96669  28.552  42.516   0.745
36925W        W96670  36.011  35.066  13.803
36926W        W96671   0.824  24.028   3.350
36927W        W96672  21.667  35.449   2.817
36928W        W96673  30.074   1.921   1.259
36929W        W96674  14.195   7.259   3.641
36930W        W96675  17.782  27.986  14.953
36931W        W96676  32.103  16.220  12.052
36932W        W96677  37.426  22.737   4.327
36933W        W96678  31.915  31.097  13.004
36934W        W96679  21.212  36.489  14.342
36935W        W96680   9.357  11.674   3.258
36936W        W96681  38.050  43.019  14.335
36937W        W96682  15.180   5.395  12.568
36938W        W96683  30.608  24.617   4.344
36939W        W96684  41.042  33.616  12.515
36940W        W96685  38.465  33.426  14.782
36941W        W96686  20.571  30.065  14.931
36942W        W96687  37.071  16.159  12.081
36943W        W96688  35.466  42.469  14.822
36944W        W96689  19.543   0.903   5.082
36945W        W96690  30.494   9.648   1.709
36946W        W96691   4.418  21.698   0.388
36947W        W96692  37.507  29.124   3.716
36948W        W96693  11.838  40.867   1.730
36949W        W96694   3.852   1.474   1.231
36950W        W96695  36.391  29.468   0.794
36951W        W96696  37.877  40.451   4.242
36952W        W96697  27.022  22.656   1.903
36953W        W96698  27.462  43.899   0.470
36954W        W96699  25.194   3.265  12.995
36955W        W96700   4.855  13.794   4.276
36956W        W96701  32.571  31.443  12.906
36957W        W96702   5.219  14.177  14.832
36958W        W96703  28.646  34.416   3.693
36959W        W96704  32.140   9.158  12.480
36960W        W96705   0.803  39.360  12.435
36961W        W96706  36.909  32.042  13.001
36962W        W96707  28.462  32.104   0.318
36963W        W96708  27.155  31.146  10.895
36964W        W96709  23.166  17.620   4.794
36965W        W96710  17.268  14.233  10.094
36966W        W96711  40.876  11.645   4.766
36967W        W96712  16.143  10.327   1.330
36968W        W96713  17.285  10.279   4.653
36969W        W96714   3.262  13.798  12.968
36970W        W96715  42.011  36.502   0.894
36971W        W96716  36.901  12.806   4.677
36972W        W96717  34.097   3.227  14.280
36973W        W96718   3.440   2.439   0.314
36974W        W96719  21.601  40.427  14.888
36975W        W96720  17.710  35.537   2.752
36976W        W96721   2.796  27.643   3.346
36977W        W96722  29.097  29.670   3.310
36978W        W96723  27.624  30.588   3.256
36979W        W96724  16.209  20.757  12.393
36980W        W96725  24.976  25.701  13.034
36981W        W96726  44.474   5.920   4.778
36982W        W96727  28.038   2.749  14.875
36983W        W96728   2.457  43.947  12.441
36984W        W96729  22.661  16.616   4.276
36985W        W96730   5.313   7.811   4.787
36986W        W96731  11.745  14.731   4.758
36987W        W96732  13.281  16.128   2.194
36988W        W96733  29.074  19.649  13.926
36989W        W96734   7.830  12.298   3.298
36990W        W96735  13.167  25.686   3.752
36991W        W96736   5.414  23.553   3.731
36992W        W96737   3.327  34.013  14.307
36993W        W96738  44.301  15.087  12.972
36994W        W96739  23.656  42.932   4.755
36995W        W96740  40.318  24.482   0.746
36996W        W96741  38.003  43.899  14.363
36997W        W96742  20.191  22.176   1.827
36998W        W96743  28.656  37.060   4.179
36999W        W96744  31.015  20.202  14.408
37000W        W96745  37.524   8.861  11.903
37001W        W96746  34.011  43.469   0.407
37002W        W96747  23.199  13.302   5.320
37003W        W96748  35.489   5.208  13.513
37004W        W96749   3.267  29.582   1.754
37005W        W96750   0.770  27.053   4.695
37006W        W96751  26.026  34.033  13.410
37007W        W96752  36.980  31.071   1.726
37008W        W96753  36.977   0.837  14.484
37009W        W96754  43.983  10.805   1.335
37010W        W96755  23.039  10.341   2.217
37011W        W96756  28.651  37.013   0.268
37012W        W96757  32.045  11.368  12.507
37013W        W96758   5.360  30.441  13.545
37014W        W96759  36.538  23.230   1.755
37015W        W96760  38.546  41.470  14.952
37016W        W96761   8.172   5.399   1.757
37017W        W96762   2.883   0.863   3.760
37018W        W96763  17.115  26.521   0.434
37019W        W96764  16.145  39.854   2.761
37020W        W96765   4.256  32.429   0.862
37021W        W96766  27.142  21.062   0.348
37022W        W96767  23.640  10.297   4.629
37023W        W96768  34.900  13.842  13.403
37024W        W96769   4.345  24.514   2.684
37025W        W96770  20.096  27.070  14.335
37026W        W96771  23.226  21.674  10.639
37027W        W96772  29.555  42.906  14.878
37028W        W96773  29.591   0.268  14.284
37029W        W96774  11.778  39.400   9.982
37030W        W96775  23.620  40.983   2.413
37031W        W96776  17.717   0.905  11.561
37032W        W96777  44.001  37.004   2.746
37033W        W96778  40.019  18.256   1.320
37034W        W96779  27.454  32.956   4.646
37035W        W96780   7.347  37.846  11.526
37036W        W96781  18.644  41.385   3.731
37037W        W96782  35.106  26.662  13.539
37038W        W96783  40.854  32.636  14.362
37039W        W96784  33.442  31.571   3.199
37040W        W96785  43.776  23.229  12.445
37041W        W96786  43.908  21.686   0.923
37042W        W96787  38.549   6.384  13.023
37043W        W96788   7.753  35.864   5.086
37044W        W96789  36.415  32.485   0.813
37045W        W96790  32.589  44.934  14.309
37046W        W96791  24.042  21.243  13.385
37047W        W96792  33.897  10.826   3.868
37048W        W96793  34.896  11.342   1.721
37049W        W96794   4.241   4.793  13.511
37050W        W96795  35.574  37.432   3.815
37051W        W96796  27.665  44.409  11.008
37052W        W96797  29.515  23.647  14.467
37053W        W96798  32.446  26.508   1.855
37054W        W96799  36.538  35.386  12.517
37055W        W96800   3.448  26.004   0.340
37056W        W96801  42.524   6.768  11.033
37057W        W96802  23.175  21.700   1.422
37058W        W96803  28.637  19.081   1.223
37059W        W96804  40.995  43.303   2.406
37060W        W96805   7.309  13.141  11.533
37061W        W96806  23.710   8.347  13.494
37062W        W96807   1.473  21.060  13.930
37063W        W96808   1.954  42.782  12.466
37064W        W96809   5.714   7.349   3.724
37065W        W96810  43.834  22.221  14.948
37066W        W96811  22.599  37.988  10.075
37067W        W96812  30.101  36.869   1.225
37068W        W96813   4.731  26.471   1.348
37069W        W96814  29.046  15.177  10.602
37070W        W96815  36.565   1.462   1.917
37071W        W96816  10.635  43.307  13.412
37072W        W96817  22.021  42.339   2.771
37073W        W96818  41.324   9.800  13.987
37074W        W96819  43.874  19.747  10.473
37075W        W96820   7.386  37.048   2.375
37076W        W96821  10.664  31.976   1.296
37077W        W96822  10.152  43.289   2.727
37078W        W96823   7.703  29.944   2.288
37079W        W96824  19.602   2.914   2.319
37080W        W96825  13.182  31.413  12.875
37081W        W96826   4.894  24.723  14.493
37082W        W96827   5.275  29.577  12.382
37083W        W96828   8.218   0.337   2.808
37084W        W96829  21.200   8.855  13.456
37085W        W96830   0.959   1.394  13.394
37086W        W96831   7.389  29.116  14.928
37087W        W96832  41.514  28.027  11.988
37088W        W96833  10.214  21.532  10.578
37089W        W96834  29.670  38.004   2.322
37090W        W96835  27.663   7.196  12.432
37091W        W96836   5.200  35.417  13.806
37092W        W96837   5.918  31.483   1.263
37093W        W96838  40.377  39.809   3.306
37094W        W96839  18.102  18.242   4.225
37095W        W96840  36.493   2.287  14.891
37096W        W96841  30.969  33.880   2.851
37097W        W96842   9.338  14.198   1.739
37098W        W96843  28.644  37.951  11.390
37099W        W96844   3.336  32.054   1.699
37100W        W96845  11.329  34.930  12.484
37101W        W96846  28.440  33.439  11.489
37102W        W96847  29.989  19.189  13.821
37103W        W96848   9.856  27.515   2.250
37104W        W96849  19.655  27.619  12.870
37105W        W96850  14.656  39.420   3.368
37106W        W96851   6.773  31.573  13.526
37107W        W96852  15.730  16.222   5.265
37108W        W96853  21.060  24.044  14.944
37109W        W96854   3.943  17.687   3.376
37110W        W96855  29.441  20.756  12.544
37111W        W96856  29.551  24.119  13.414
37112W        W96857  41.820   4.863  12.450
37113W        W96858  23.214   3.250   1.695
37114W        W96859   5.366   4.820  13.994
37115W        W96860  37.345   8.218  14.002
37116W        W96861  30.445  37.018   3.190
37117W        W96862   7.777  32.035  12.544
37118W        W96863  34.038   4.385   2.742
37119W        W96864   5.216  43.767   0.281
37120W        W96865  30.105  38.948  11.478
37121W        W96866  10.728  29.116  13.848
37122W        W96867  14.119   0.365  13.468
37123W        W96868  33.406   5.729   3.232
37124W        W96869  25.135  44.778   3.853
37125W        W96870  13.764   7.188  13.952
37126W        W96871   6.268  30.512  14.885
37127W        W96872   0.852   2.235  10.931
37128W        W96873   3.274   0.372   0.377
37129W        W96874  10.758  28.462   3.216
37130W        W96875   1.783  26.590  14.019
37131W        W96876   3.841   6.759   4.206
37132W        W96877  27.664  23.651  14.778
37133W        W96878   2.274  40.048  10.979
37134W        W96879  37.469   7.379   4.692
37135W        W96880  36.971  42.334  14.442
37136W        W96881  15.623  23.642   2.751
37137W        W96882  19.690   0.300   2.392
37138W        W96883  35.445  24.192  12.345
37139W        W96884  11.748   3.916  12.901
37140W        W96885  23.581   4.737   4.186
37141W        W96886   6.867   9.647  14.453
37142W        W96887  24.998  32.509   5.777
37143W        W96888  28.658  19.067   3.870
37144W        W96889  31.988  44.765  14.507
37145W        W96890  15.112  27.638  13.001
37146W        W96891  26.668  39.903   1.277
37147W        W96892  24.001   8.901   0.377
37148W        W96893  28.133  21.712  11.988
37149W        W96894   1.923   1.334   0.270
37150W        W96895  26.501  34.951  13.009
37151W        W96896  22.688   1.292  14.931
37152W        W96897  18.744  35.107   1.756
37153W        W96898  18.737  18.074  11.461
37154W        W96899  21.077  30.924  11.912
37155W        W96900  17.145  12.246   3.247
37156W        W96901  35.500   6.745   4.725
37157W        W96902  18.560   8.757   5.168
37158W        W96903   0.778  19.254   0.888
37159W        W96904   6.750  10.815  13.531
37160W        W96905  34.512  31.116   2.786
37161W        W96906  26.580  38.556   4.288
37162W        W96907   3.882  23.205  14.404
37163W        W96908  12.123  42.828   4.694
37164W        W96909  10.275   2.963   0.923
37165W        W96910  43.983  34.997   4.675
37166W        W96911   8.326  11.855   2.850
37167W        W96912  21.706  24.679   1.228
37168W        W96913  42.465  10.735   3.285
37169W        W96914  24.521  35.425  14.314
37170W        W96915  20.052  33.121   4.160
37171W        W96916  14.172  35.036  11.927
37172W        W96917  21.048   5.290  10.586
37173W        W96918  32.924  44.439   4.740
37174W        W96919  29.640  31.644   2.221
37175W        W96920   1.446  33.070   3.758
37176W        W96921  26.602  31.424  10.942
37177W        W96922   5.903  26.588   4.265
37178W        W96923  40.317  29.940  10.460
37179W        W96924  28.177  23.535  14.463
37180W        W96925  36.507   4.766  13.042
37181W        W96926  35.048   3.403   3.845
37182W        W96927   9.851  14.671   4.838
37183W        W96928   8.279  43.463   0.801
37184W        W96929  34.949  37.440   1.888
37185W        W96930  43.904  13.806   1.761
37186W        W96931  15.693  16.758   1.300
37187W        W96932   8.826  25.083  14.779
37188W        W96933   4.802  27.576  10.977
37189W        W96934  30.419  23.512   1.748
37190W        W96935  25.024   8.811   0.278
37191W        W96936  40.343  43.394   4.635
37192W        W96937  12.857  20.735  11.612
37193W        W96938  11.622  13.845   0.915
37194W        W96939   4.224   6.267  11.876
37195W        W96940  25.568  20.726   3.253
37196W        W96941  32.599  11.172   4.820
37197W        W96942  11.224  38.964  13.861
37198W        W96943  14.619  19.163  12.871
37199W        W96944  14.283  38.423  13.445
37200W        W96945  24.093  41.374  12.524
37201W        W96946  11.325   5.222   4.264
37202W        W96947  25.626   5.759  11.019
37203W        W96948  32.431  33.587   2.251
37204W        W96949  16.118  15.665   1.323
37205W        W96950  25.648  12.256  13.500
37206W        W96951  21.024  38.994   2.857
37207W        W96952  10.228  30.087  12.018
37208W        W96953   5.811   4.236  13.941
37209W        W96954   5.777  12.638  10.616
37210W        W96955  34.467  27.495   3.354
37211W        W96956  39.833  43.408  11.497
37212W        W96957  25.027   8.678  10.965
37213W        W96958   2.446  37.522   2.756
37214W        W96959  38.522  38.541  11.097
37215W        W96960  29.620  16.209   4.296
37216W        W96961  28.097  12.208   4.242
37217W        W96962  31.620   3.437   5.120
37218W        W96963  17.670  32.418  14.474
37219W        W96964  26.994   7.410   3.847
37220W        W96965  25.078  18.615  12.041
37221W        W96966  31.554   5.860   5.802
37222W        W96967   1.775  25.541  14.826
37223W        W96968  11.337  36.950   1.756
37224W        W96969  17.193  39.839  11.972
37225W        W96970  25.624  27.957  10.952
37226W        W96971  41.405  34.962  11.517
37227W        W96972  22.080  12.826  14.761
37228W        W96973  29.956  23.628   4.647
37229W        W96974  25.641  14.335  10.044
37230W        W96975  25.704  42.797  13.968
37231W        W96976   2.845  12.788  10.436
37232W        W96977  43.821   7.273   3.672
37233W        W96978   5.247  16.226  12.935
37234W        W96979  33.609  28.102  13.316
37235W        W96980  34.014  29.013  11.059
37236W        W96981   1.769   7.221   4.273
37237W        W96982  38.334  25.142   0.953
37238W        W96983  23.695   1.857   0.390
37239W        W96984  30.003   2.305   3.267
37240W        W96985  30.119  38.048   1.829
37241W        W96986  40.033  38.938  12.351
37242W        W96987   7.733   8.270   4.116
37243W        W96988  39.910   2.471  14.777
37244W        W96989  18.580   9.810  13.063
37245W        W96990  36.358  26.171   2.805
37246W        W96991  32.947  35.382  10.643
37247W        W96992   0.409   4.795  11.080
37248W        W96993  28.958  21.727  13.794
37249W        W96994  38.068   9.152  11.122
37250W        W96995  40.908   2.806   4.132
37251W        W96996  15.757   2.435   5.121
37252W        W96997   4.366  11.625  11.417
37253W        W96998  34.537  42.332  12.404
37254W        W96999  44.439   0.901   0.785
37255W        W97000   8.363  42.519  10.430
37256W        W97001   4.360   0.492   2.197
37257W        W97002  44.284  12.183  14.504
37258W        W97003  12.310  18.240  11.934
37259W        W97004  23.039  28.006  14.935
37260W        W97005  14.713  44.956  12.482
37261W        W97006  21.661  27.028  10.965
37262W        W97007  20.105   4.274  10.956
37263W        W97008  43.288  11.681   0.915
37264W        W97009  34.371  42.844   3.775
37265W        W97010   3.721  29.452  11.381
37266W        W97011  35.974  23.523   1.897
37267W        W97012  16.604  35.589  13.945
37268W        W97013  10.763   2.232  10.643
37269W        W97014   9.789   1.343  14.863
37270W        W97015  21.050  32.532  10.526
37271W        W97016  43.789  31.041   3.305
37272W        W97017  16.629  26.171  10.905
37273W        W97018   4.354  28.681   3.827
37274W        W97019  38.328  44.286   0.835
37275W        W97020  13.717  38.029   5.211
37276W        W97021  16.135  11.181  12.065
37277W        W97022  23.586   6.745  13.523
37278W        W97023  36.546  17.623   0.247
37279W        W97024  37.861  13.798   0.814
37280W        W97025  33.481  11.731  12.896
37281W        W97026   1.784  20.622  13.340
37282W        W97027  22.735  37.347   1.400
37283W        W97028   7.218   3.254  11.488
37284W        W97029  28.518  35.487  13.818
37285W        W97030   9.777  24.577   4.148
37286W        W97031  37.964   3.264   3.818
37287W        W97032  13.302   0.870   3.162
37288W        W97033  18.650  18.086  14.779
37289W        W97034  42.018   5.419  13.376
37290W        W97035  40.053   6.718   0.871
37291W        W97036  20.043  39.995  11.572
37292W        W97037  36.371   1.451   2.895
37293W        W97038  35.395  20.729  12.067
37294W        W97039  28.061  37.357   2.273
37295W        W97040  10.739  38.019  13.961
37296W        W97041  18.139  22.072   1.900
37297W        W97042  17.223  24.031   0.897
37298W        W97043   0.479  24.116   0.482
37299W        W97044  35.359  11.304  10.435
37300W        W97045   7.256  43.427  14.311
37301W        W97046  42.433  31.932  13.829
37302W        W97047  24.538   7.377  13.797
37303W        W97048  23.713  43.884   4.310
37304W        W97049  29.453  44.503  10.018
37305W        W97050  18.629  31.440  11.948
37306W        W97051  24.009  28.493  11.492
37307W        W97052  35.568  28.111   4.802
37308W        W97053   8.792  22.237   2.745
37309W        W97054  15.303  42.319  11.067
37310W        W97055  12.730  12.633   4.283
37311W        W97056   0.301   7.183   1.815
37312W        W97057  39.390  37.536  12.838
37313W        W97058  30.627   4.755  13.876
37314W        W97059  33.065  23.578  10.514
37315W        W97060   5.210  37.864  13.967
37316W        W97061   6.379  14.199  10.620
37317W        W97062  21.261  19.541  14.974
37318W        W97063  32.125   3.378   0.404
37319W        W97064  32.919  29.942  14.856
37320W        W97065  35.405  44.984   1.828
37321W        W97066  28.104   2.470   4.774
37322W        W97067  30.416  40.318   1.746
37323W        W97068  25.662  19.553  12.954
37324W        W97069   2.467  41.461   1.926
37325W        W97070  15.611   0.430  14.411
37326W        W97071  25.696  21.256  14.389
37327W        W97072  10.314  10.773  13.829
37328W        W97073  24.626  10.698  13.924
37329W        W97074  41.039  17.193   2.383
37330W        W97075   4.743   3.379   9.968
37331W        W97076  26.973   9.243   2.874
37332W        W97077  32.036  24.547  12.451
37333W        W97078  28.930   6.362   0.327
37334W        W97079  40.837  30.060  12.027
37335W        W97080  29.655  26.568  11.934
37336W        W97081  10.815   5.744   0.377
37337W        W97082  44.839  19.669   4.154
37338W        W97083  18.221   6.253   1.733
37339W        W97084   7.812  21.184   3.768
37340W        W97085  33.386  28.659  13.916
37341W        W97086  43.787  23.530   4.287
37342W        W97087   4.406  24.197  14.473
37343W        W97088  25.641  14.680  12.061
37344W        W97089   2.853  20.598   2.404
37345W        W97090   0.260  11.626  12.930
37346W        W97091  36.505  20.767  12.431
37347W        W97092  36.469  28.559  12.869
37348W        W97093  10.826   8.705  12.355
37349W        W97094  38.567  44.265  13.367
37350W        W97095  17.562  15.167  14.275
37351W        W97096  15.681  40.407   1.860
37352W        W97097   7.295  24.973   4.274
37353W        W97098  39.819  38.063  14.366
37354W        W97099  11.236  34.473   2.789
37355W        W97100  22.503   9.356  14.797
37356W        W97101  41.472  25.070   2.773
37357W        W97102   2.440  15.134   3.231
37358W        W97103  32.066  11.266  11.460
37359W        W97104  39.532  21.646  11.961
37360W        W97105  24.157  26.459   4.602
37361W        W97106   1.433  12.183   1.232
37362W        W97107  35.892  34.379  10.574
37363W        W97108   8.341   0.393  12.093
37364W        W97109  12.713   5.913   3.220
37365W        W97110  26.532  11.214  14.412
37366W        W97111  25.137   8.664   1.906
37367W        W97112  35.476  40.341   3.649
37368W        W97113  22.242  12.212  13.481
37369W        W97114  14.271   7.302   4.165
37370W        W97115  29.564  29.474   3.866
37371W        W97116  26.992  13.239   9.501
37372W        W97117  32.399   1.299  12.455
37373W        W97118   6.903  18.702   1.837
37374W        W97119  11.791  10.818  14.282
37375W        W97120   6.865   8.166   1.836
37376W        W97121   7.908  12.208  13.825
37377W        W97122  17.673  29.027  12.350
37378W        W97123  32.458  42.354  13.405
37379W        W97124  41.033  29.089  13.858
37380W        W97125  40.420  12.182   4.699
37381W        W97126  15.689  10.161  11.913
37382W        W97127  13.293  10.148   0.319
37383W        W97128  30.590  25.171  14.861
37384W        W97129  40.547  31.590  10.896
37385W        W97130  27.487  39.329   3.200
37386W        W97131   5.268   9.681  13.411
37387W        W97132   9.731  19.752   2.688
37388W        W97133  42.027  15.773  14.942
37389W        W97134  31.904  16.245   4.827
37390W        W97135  25.049  21.618   3.848
37391W        W97136  44.317  19.131   4.259
37392W        W97137   3.922   9.825  14.350
37393W        W97138  25.636  36.027   2.893
37394W        W97139  32.462  33.069  14.918
37395W        W97140  37.032  19.241  13.813
37396W        W97141  35.516  12.116   4.825
37397W        W97142   0.483  34.458  10.494
37398W        W97143  27.994  17.202   0.482
37399W        W97144  28.024  31.994  14.944
37400W        W97145  14.336   6.877   2.722
37401W        W97146  26.187  12.359   1.776
37402W        W97147  37.390  44.389  12.497
37403W        W97148  41.839  12.757   5.182
37404W        W97149  32.095  42.851  13.907
37405W        W97150  40.927   4.396   4.183
37406W        W97151  11.320  39.481  11.893
37407W        W97152  31.097  26.599   0.288
37408W        W97153  30.467   7.274   3.659
37409W        W97154  23.234  13.232  13.844
37410W        W97155  39.903  10.371   2.346
37411W        W97156  43.999  22.736   4.638
37412W        W97157  25.571  25.108   9.969
37413W        W97158   6.279  10.193  14.456
37414W        W97159   4.807  11.230   0.326
37415W        W97160  37.916  25.994  14.375
37416W        W97161  14.141  37.910   4.715
37417W        W97162  12.349  41.944  12.096
37418W        W97163  30.440  31.979  10.567
37419W        W97164  33.607  37.422  14.005
37420W        W97165  17.714   9.298   4.305
37421W        W97166  23.601  37.923   1.350
37422W        W97167   7.693   6.871   4.797
37423W        W97168  20.054   3.726  11.492
37424W        W97169  33.569  39.410  13.944
37425W        W97170  23.584   4.426  13.469
37426W        W97171  28.573  22.660   1.311
37427W        W97172   2.381  43.980  13.547
37428W        W97173  18.172   0.942   0.411
37429W        W97174   8.773  14.179   3.810
37430W        W97175  44.848  14.799   4.307
37431W        W97176  43.923   3.760  10.573
37432W        W97177  36.583   5.384   4.803
37433W        W97178  38.872  34.106  13.533
37434W        W97179  24.104  16.692   1.747
37435W        W97180  42.496  38.347  13.065
37436W        W97181  35.572  26.163  13.436
37437W        W97182  40.534  14.149  10.494
37438W        W97183  34.493  44.420  13.477
37439W        W97184  10.656  12.214   0.813
37440W        W97185  15.612  15.753  13.526
37441W        W97186   6.269  41.348   5.190
37442W        W97187  14.181   9.742   1.221
37443W        W97188   4.700  19.151  12.077
37444W        W97189  24.647   4.857  14.986
37445W        W97190   4.328  21.158  12.007
37446W        W97191   7.318  21.080   1.844
37447W        W97192  27.992  20.271  10.976
37448W        W97193  23.703   9.742   2.726
37449W        W97194  23.669  11.809   9.988
37450W        W97195  42.441  38.842  11.998
37451W        W97196  25.644  31.129  14.422
37452W        W97197  35.508  23.692   4.331
37453W        W97198  30.448  19.758   1.290
37454W        W97199  23.028   9.666  10.445
37455W        W97200  26.619  19.558   4.747
37456W        W97201   0.910   1.756  13.537
37457W        W97202  30.918   6.714   3.764
37458W        W97203  28.591  31.547   1.888
37459W        W97204  22.561  42.451  14.942
37460W        W97205  39.531   9.162  11.029
37461W        W97206  19.619  13.135  11.551
37462W        W97207   5.763  18.151   2.669
37463W        W97208  30.972  31.018   1.695
37464W        W97209  35.100   2.742  12.456
37465W        W97210  24.052  37.509   4.660
37466W        W97211  19.188  27.984   0.887
37467W        W97212  30.612  33.615  11.498
37468W        W97213  15.606  28.047  12.084
37469W        W97214  20.172  15.273  11.436
37470W        W97215  25.093  13.320   0.869
37471W        W97216  30.033  20.566   0.457
37472W        W97217  26.494  11.658   2.401
37473W        W97218  37.517  39.315  12.399
37474W        W97219  43.999  31.015  11.002
37475W        W97220  25.118  27.610  13.527
37476W        W97221   2.764   3.316   2.337
37477W        W97222  12.776  33.383   0.263
37478W        W97223  15.690  41.042  10.148
37479W        W97224  25.566  10.634  14.414
37480W        W97225  22.698  39.824  10.532
37481W        W97226  18.245  30.919   4.825
37482W        W97227  13.730  42.411   0.876
37483W        W97228  32.458  25.150  11.873
37484W        W97229  24.683  21.600   1.211
37485W        W97230  30.079  16.225   3.756
37486W        W97231  32.113  15.329  11.465
37487W        W97232  34.392  42.489  14.952
37488W        W97233  17.189   9.165   4.662
37489W        W97234   6.310  13.627  12.085
37490W        W97235  40.861  14.638  11.438
37491W        W97236  38.862  38.056   5.102
37492W        W97237  18.660  43.991  11.870
37493W        W97238  31.907  44.780   3.668
37494W        W97239   0.880  17.570   0.303
37495W        W97240   8.871   1.896  12.899
37496W        W97241  25.713  23.993   4.194
37497W        W97242  25.018  11.233  14.498
37498W        W97243   5.791  13.693   1.781
37499W        W97244  36.021   3.933  12.885
37500W        W97245  17.640  39.945  11.532
37501W        W97246  26.511  33.878  12.566
37502W        W97247   2.376  39.395   1.804
37503W        W97248   8.893  33.535   0.431
37504W        W97249   9.185  32.450  14.815
37505W        W97250  22.669  40.366   1.739
37506W        W97251  11.285  16.637   3.824
37507W        W97252  11.673  41.419  11.420
37508W        W97253   1.476   2.923   1.887
37509W        W97254   3.244   8.327  10.455
37510W        W97255  34.600   3.833  12.505
37511W        W97256  38.512  18.680  10.520
37512W        W97257  24.148   1.817  14.904
37513W        W97258  11.822   0.866  14.366
37514W        W97259   4.904  36.393  13.956
37515W        W97260  11.214  28.528   1.776
37516W        W97261  42.287  28.617  12.929
37517W        W97262  25.093  13.228  10.948
37518W        W97263   4.920  21.547  13.802
37519W        W97264   0.365  42.526  10.998
37520W        W97265  29.486   0.307   4.126
37521W        W97266   2.819  39.462  14.846
37522W        W97267  32.984  18.095  11.044
37523W        W97268   3.289  13.350  13.963
37524W        W97269  15.715  34.554  13.347
37525W        W97270  24.591  15.655   0.747
37526W        W97271  35.929  13.679   1.851
37527W        W97272  27.159  22.200   2.227
37528W        W97273  20.060  13.746   2.761
37529W        W97274   6.688  17.776   0.840
37530W        W97275   7.891  26.057  11.038
37531W        W97276  29.110   1.407   3.252
37532W        W97277  18.751  10.728   0.942
37533W        W97278   0.253  43.793   0.884
37534W        W97279  30.006   6.413   3.779
37535W        W97280  33.888  17.624   0.465
37536W        W97281   3.955  33.513   3.736
37537W        W97282   6.855  15.285  10.535
37538W        W97283  11.776  44.269  13.039
37539W        W97284  27.680  33.609  11.423
37540W        W97285  31.007  38.854   5.241
37541W        W97286  23.122  37.449   4.240
37542W        W97287  23.057  23.241   4.237
37543W        W97288  13.654  25.537   0.839
37544W        W97289  18.279   3.954   5.286
37545W        W97290  29.014  11.227  11.531
37546W        W97291   0.435  18.690   1.747
37547W        W97292  26.682  28.034  11.542
37548W        W97293  23.534  32.545   4.598
37549W        W97294  32.536   9.239   3.263
37550W        W97295  12.357  40.540   3.726
37551W        W97296  14.662  21.187  12.936
37552W        W97297   0.789  29.997  12.909
37553W        W97298  25.977  41.990   4.639
37554W        W97299  23.562  37.394   0.955
37555W        W97300   4.323  27.601  14.360
37556W        W97301  28.540   5.297  11.857
37557W        W97302  30.043  17.582   1.238
37558W        W97303  42.875  11.812   3.212
37559W        W97304   8.780  28.130   1.704
37560W        W97305   4.856  28.083   5.245
37561W        W97306  27.140   5.771  11.433
37562W        W97307   5.257  16.239   1.397
37563W        W97308  20.595   7.261  10.558
37564W        W97309  29.492  34.058  11.428
37565W        W97310   5.765   5.208  12.090
37566W        W97311  13.607  15.761  11.096
37567W        W97312  22.187  29.082  14.946
37568W        W97313  12.251  29.005  12.498
37569W        W97314  41.325  42.964   2.729
37570W        W97315   3.796  12.665  14.808
37571W        W97316  25.125  44.474   4.327
37572W        W97317  10.746  28.439  10.470
37573W        W97318  30.506  23.098  14.874
37574W        W97319  13.838  24.002   0.401
37575W        W97320  27.462  35.971  11.371
37576W        W97321  35.976  25.129   1.218
37577W        W97322  42.347  33.512   3.774
37578W        W97323  19.578  12.753  12.832
37579W        W97324  33.445  38.437   1.928
37580W        W97325  18.692  36.945  11.117
37581W        W97326   6.397  33.448  10.989
37582W        W97327   3.355  16.726  14.960
37583W        W97328  26.677  38.974   5.247
37584W        W97329   6.366  17.095   4.125
37585W        W97330   6.295  34.020   1.265
37586W        W97331  16.566  14.228   4.829
37587W        W97332  24.504   9.722  14.824
37588W        W97333  19.676  12.347   0.346
37589W        W97334  22.099  35.104   1.308
37590W        W97335  10.794  14.123  13.935
37591W        W97336   3.432   2.342   1.275
37592W        W97337  33.406  37.048  14.848
37593W        W97338  29.476   0.897  12.516
37594W        W97339  30.479  30.591   1.314
37595W        W97340  40.508  20.217  13.813
37596W        W97341  29.446  16.732   4.189
37597W        W97342  40.050  17.800   1.805
37598W        W97343   0.905  24.696  14.836
37599W        W97344  31.081  26.566  13.869
37600W        W97345   1.256  23.515  13.791
37601W        W97346  44.503  41.445  12.575
37602W        W97347  29.979   8.654   1.701
37603W        W97348  22.152   2.758  13.902
37604W        W97349  14.758  29.979  13.900
37605W        W97350  41.021  13.824   2.399
37606W        W97351  27.139   0.782   3.848
37607W        W97352  14.697   9.366   0.912
37608W        W97353  17.585  20.160  12.504
37609W        W97354  11.774  15.224   1.416
37610W        W97355   1.360   5.834   3.370
37611W        W97356  38.336   5.706  12.064
37612W        W97357  39.554  42.886   0.770
37613W        W97358  32.120   4.279  14.968
37614W        W97359  35.569  40.011  10.545
37615W        W97360   1.415  37.962  12.492
37616W        W97361  16.152  43.999  13.389
37617W        W97362   7.277  42.991  12.506
37618W        W97363  11.297  22.190   4.658
37619W        W97364  44.866  34.610   2.683
37620W        W97365  32.548  44.862  10.959
37621W        W97366   4.734  16.597  14.316
37622W        W97367   7.176  24.000  14.979
37623W        W97368   9.187   5.844  13.388
37624W        W97369  42.008  39.346   3.345
37625W        W97370  44.271  22.662   5.303
37626W        W97371  10.260  28.944   4.249
37627W        W97372  28.935  22.047  14.283
37628W        W97373  39.314  17.556   3.343
37629W        W97374   8.697   0.381  14.968
37630W        W97375  36.888  23.207   4.750
37631W        W97376  14.737  44.996  13.373
37632W        W97377  40.902  39.947   3.286
37633W        W97378  35.058  30.634   1.925
37634W        W97379   2.226  18.563   2.782
37635W        W97380  36.438  33.429   0.472
37636W        W97381  18.099  28.548  11.584
37637W        W97382  38.511  11.147   1.385
37638W        W97383  33.901  22.673  13.798
37639W        W97384  40.393  38.034   2.753
37640W        W97385  15.084  25.471  10.502
37641W        W97386  43.941  44.921  14.970
37642W        W97387  24.714  35.859  11.883
37643W        W97388  41.830  38.885   1.351
37644W        W97389  23.622   3.426  14.292
37645W        W97390  30.567  14.218  14.882
37646W        W97391   5.363  23.081   1.875
37647W        W97392  27.064   1.466   0.353
37648W        W97393  29.121  39.833   2.310
37649W        W97394  28.181  18.068  11.855
37650W        W97395   8.169  29.574   2.418
37651W        W97396  20.617  34.079   1.305
37652W        W97397  39.518  13.174   3.333
37653W        W97398  31.626  31.079   3.359
37654W        W97399  37.046   0.850  13.309
37655W        W97400  25.098  19.226   3.824
37656W        W97401  14.121  22.526   0.307
37657W        W97402  16.752   5.862   2.898
37658W        W97403  32.916  11.249   1.746
37659W        W97404  12.834  28.490   0.882
37660W        W97405  23.725  10.231  10.950
37661W        W97406  41.368   1.300   4.838
37662W        W97407   5.256   6.857   2.237
37663W        W97408  20.261  27.486   1.328
37664W        W97409  31.033  29.507  14.783
37665W        W97410  12.172  34.568   0.787
37666W        W97411  18.558  32.110   4.714
37667W        W97412  27.023   7.299  11.481
37668W        W97413   5.786  36.487   2.403
37669W        W97414  20.691  11.778  12.873
37670W        W97415  36.905  35.564   1.762
37671W        W97416  16.794  38.492   4.248
37672W        W97417  17.746  15.744   3.188
37673W        W97418  44.493  40.309   1.747
37674W        W97419   7.868  17.290   2.348
37675W        W97420   0.250  34.057  14.412
37676W        W97421  42.474  11.771  11.426
37677W        W97422  12.749  11.730  14.784
37678W        W97423  38.936   8.196   1.250
37679W        W97424  32.132  23.502   9.973
37680W        W97425  21.613  43.850  10.633
37681W        W97426  28.502  11.813  12.076
37682W        W97427  34.595   1.347   3.739
37683W        W97428  37.884  37.405   4.259
37684W        W97429   8.762  39.827   0.745
37685W        W97430  21.054  41.501  12.867
37686W        W97431  10.666  44.989   0.746
37687W        W97432   9.330  17.216  13.987
37688W        W97433  33.460  11.298  10.627
37689W        W97434  32.484  22.173   0.776
37690W        W97435  14.195  32.060  13.925
37691W        W97436  34.580   6.370   3.771
37692W        W97437  37.373  26.974   2.724
37693W        W97438  25.522  29.626  12.422
37694W        W97439  31.074  14.760  12.839
37695W        W97440   7.846  20.755   2.814
37696W        W97441  38.366   8.841  11.418
37697W        W97442   9.655  22.251   3.278
37698W        W97443  25.546  14.738   1.277
37699W        W97444  15.214  31.965   3.359
37700W        W97445   6.823  44.911  14.394
37701W        W97446  32.418  40.869   0.886
37702W        W97447  29.986  38.985  12.046
37703W        W97448  13.790   9.358   4.821
37704W        W97449  14.313  17.724   3.851
37705W        W97450   8.190  42.974  10.981
37706W        W97451  27.136  29.027  14.933
37707W        W97452  42.796  11.629  10.620
37708W        W97453  28.671  44.814  14.811
37709W        W97454  36.957  14.155   2.267
37710W        W97455   8.745  17.734   0.851
37711W        W97456  14.614  32.028  13.432
37712W        W97457  32.561  35.404  14.855
37713W        W97458  32.095  34.902  14.959
37714W        W97459  19.194   4.439  14.820
37715W        W97460  44.825  23.004   3.634
37716W        W97461  43.289   4.856   2.413
37717W        W97462  29.008  21.574   2.348
37718W        W97463  11.750  15.279  12.948
37719W        W97464  27.690  18.609  10.426
37720W        W97465   9.735  17.121   0.917
37721W        W97466  33.538  26.117  12.436
37722W        W97467  27.161  37.012  14.852
37723W        W97468  11.638   0.905  13.325
37724W        W97469  23.556  28.126  12.469
37725W        W97470  22.024  36.468   2.794
37726W        W97471  23.232  13.266  12.037
37727W        W97472  25.999  34.458  14.902
37728W        W97473  44.446  10.633   0.426
37729W        W97474  33.470  40.983  10.581
37730W        W97475   9.201   4.848  10.534
37731W        W97476  31.114  42.881   4.797
37732W        W97477  12.731  38.880  14.901
37733W        W97478  10.744  34.466   2.797
37734W        W97479  20.613   5.771   3.845
37735W        W97480   4.308  21.139   0.917
37736W        W97481   4.226   8.340   4.172
37737W        W97482  33.973  20.641   1.769
37738W        W97483  39.027  19.681  13.439
37739W        W97484  26.576  27.612  13.856
37740W        W97485  10.700   9.753   1.248
37741W        W97486  31.516  10.815   4.742
37742W        W97487  42.333  27.495   3.176
37743W        W97488  26.080  28.605  12.975
37744W        W97489  23.584   3.757  12.935
37745W        W97490   3.902  36.591   0.762
37746W        W97491  13.669  44.341   3.696
37747W        W97492   7.806   3.410  10.540
37748W        W97493  33.092  41.990   0.357
37749W        W97494   2.893  36.494   4.117
37750W        W97495  22.253  24.126  11.059
37751W        W97496  27.012  19.166  13.468
37752W        W97497  25.575   0.897  14.451
37753W        W97498  34.553  30.604   1.334
37754W        W97499  26.172  36.051  11.112
37755W        W97500  38.413  17.753   1.230
37756W        W97501   9.335   1.897   0.754
37757W        W97502  10.726  34.568  10.600
37758W        W97503  22.545  15.764  12.857
37759W        W97504  29.038  39.927   0.264
37760W        W97505  35.473  13.705   4.204
37761W        W97506  43.324  36.427   2.292
37762W        W97507  11.749  38.849   3.754
37763W        W97508  26.083  41.974  10.937
37764W        W97509  32.410  32.535   3.688
37765W        W97510  26.117  31.925  11.910
37766W        W97511   3.407  25.092  12.061
37767W        W97512  15.192  37.842   9.450
37768W        W97513  42.385  27.017   3.284
37769W        W97514  16.602   0.302   3.209
37770W        W97515  23.227  34.436   4.124
37771W        W97516  22.136  21.022   4.299
37772W        W97517   8.369  36.497  13.863
37773W        W97518  15.666  42.426  11.996
37774W        W97519  34.447  29.479   0.295
37775W        W97520  41.848  21.147  14.370
37776W        W97521  44.304   1.833  10.419
37777W        W97522  18.166  18.600  12.063
37778W        W97523  14.230  10.695   3.181
37779W        W97524  18.715  44.803   4.282
37780W        W97525  28.943  27.621   2.215
37781W        W97526  38.837  18.266  12.025
37782W        W97527  28.475  30.502   3.651
37783W        W97528  40.839  12.623  11.533
37784W        W97529  40.797  16.284  13.974
37785W        W97530  23.172  44.835   1.929
37786W        W97531  13.274  41.460   2.764
37787W        W97532  35.524  10.697   1.351
37788W        W97533  36.971  19.193  14.924
37789W        W97534  19.733  24.056  11.501
37790W        W97535  43.990  42.479   1.828
37791W        W97536  39.035  21.029  13.984
37792W        W97537  12.682  43.294  13.391
37793W        W97538   2.904  38.377  14.904
37794W        W97539  19.568  36.542   2.419
37795W        W97540   3.359  10.816   3.264
37796W        W97541  36.979   2.763  13.389
37797W        W97542  43.961  40.500  12.346
37798W        W97543   2.735  17.617   3.177
37799W        W97544   6.373  25.029   1.338
37800W        W97545  23.535  36.549   1.393
37801W        W97546   9.273  25.618   4.329
37802W        W97547  27.095  33.494  14.805
37803W        W97548  19.687   6.200  12.014
37804W        W97549  19.710  28.523  14.880
37805W        W97550  42.895  38.500  12.958
37806W        W97551  42.832  30.629   9.988
37807W        W97552  23.213  31.908   3.263
37808W        W97553   0.317  13.666  14.788
37809W        W97554  43.778  38.336   2.857
37810W        W97555  34.950   2.430   3.153
37811W        W97556   2.950  23.229  14.844
37812W        W97557  34.440   0.974  11.077
37813W        W97558  20.245  32.137   2.252
37814W        W97559   9.298  24.213   4.736
37815W        W97560  21.069   8.312  11.479
37816W        W97561  16.744  29.966  10.619
37817W        W97562  21.101  10.706  13.867
37818W        W97563   6.251  17.153  14.824
37819W        W97564  36.533  27.645  11.090
37820W        W97565  13.333  13.637   1.751
37821W        W97566  29.150  44.431   0.296
37822W        W97567  15.109  22.109  11.871
37823W        W97568  11.862  30.939   4.173
37824W        W97569  23.003   2.253  14.378
37825W        W97570   8.202  32.971  14.335
37826W        W97571  43.929   5.424   1.239
37827W        W97572  30.967  30.966  14.021
37828W        W97573  23.142  43.848   1.775
37829W        W97574  13.197  38.988   5.211
37830W        W97575  24.500  18.145  14.292
37831W        W97576  32.922  24.115   0.388
37832W        W97577  18.162  42.010  12.022
37833W        W97578  26.990   1.774  13.435
37834W        W97579  44.418   6.844  11.915
37835W        W97580   6.333   1.810   1.771
37836W        W97581  20.540  19.182   2.318
37837W        W97582  20.758  41.357  10.418
37838W        W97583  28.069  15.190   4.823
37839W        W97584  36.892   1.325  13.949
37840W        W97585  22.680  26.198  11.514
37841W        W97586   4.264  40.052   2.734
37842W        W97587   1.243  36.982  10.951
37843W        W97588  29.128  23.231   4.741
37844W        W97589  30.122  11.299  10.519
37845W        W97590  36.006  10.830  11.100
37846W        W97591   6.405  18.216   3.260
37847W        W97592  23.027  34.445  14.462
37848W        W97593  14.833  26.073  13.362
37849W        W97594  17.791  14.658   0.889
37850W        W97595  31.593  34.553  14.305
37851W        W97596   8.755   3.833   2.895
37852W        W97597   7.417  28.460  11.104
37853W        W97598   9.341  43.819  14.286
37854W        W97599   8.711  24.643   2.782
37855W        W97600  38.368  41.798   3.263
37856W        W97601  28.165  40.364   1.861
37857W        W97602  27.985  41.825   4.138
37858W        W97603  31.507  27.462  11.379
37859W        W97604  25.102   4.859   5.117
37860W        W97605   9.363  25.622  12.411
37861W        W97606  44.300  26.105  12.826
37862W        W97607  41.348   3.720   1.296
37863W        W97608  16.224  17.192  14.994
37864W        W97609  14.658  11.273  11.077
37865W        W97610  11.860  20.154  12.852
37866W        W97611  34.900  24.621  11.942
37867W        W97612   3.243  19.120  10.507
37868W        W97613  26.600  13.290   1.397
37869W        W97614  32.435  13.690   4.258
37870W        W97615  30.631  12.156   1.282
37871W        W97616  40.891  27.613   2.310
37872W        W97617   7.329  25.153   2.197
37873W        W97618  10.672  32.020  14.337
37874W        W97619   7.177   7.172   3.682
37875W        W97620   6.183   9.697  14.300
37876W        W97621  35.526  20.679  11.458
37877W        W97622   4.737   6.717  13.853
37878W        W97623  33.567  37.561   5.124
37879W        W97624   5.698  10.306   3.356
37880W        W97625  37.416  37.432  10.499
37881W        W97626  19.214  41.953   0.941
37882W        W97627   9.381  33.963  13.421
37883W        W97628  11.701   2.314   1.372
37884W        W97629  11.687  24.038   0.389
37885W        W97630   6.224  33.033  13.377
37886W        W97631  14.737   9.334   3.330
37887W        W97632   5.814   4.447  11.374
37888W        W97633   7.366  15.254   0.338
37889W        W97634  23.005  32.972  13.337
37890W        W97635  37.938  29.458  10.450
37891W        W97636  24.166  39.013  10.056
37892W        W97637   6.805  22.075   1.382
37893W        W97638  34.428   2.379   2.210
37894W        W97639  34.899   9.657   1.719
37895W        W97640  26.017  14.097  12.065
37896W        W97641  44.889  15.603   1.765
37897W        W97642  12.174  17.575  11.873
37898W        W97643  15.108  25.984   0.769
37899W        W97644  13.141  10.357  14.903
37900W        W97645  30.427  41.866  13.514
37901W        W97646  29.050  33.625   1.228
37902W        W97647   9.820  21.156   2.206
37903W        W97648  38.324  42.476   4.315
37904W        W97649  42.465  28.446   2.830
37905W        W97650  11.813  26.991  13.806
37906W        W97651  20.052  40.869   4.189
37907W        W97652  28.596  23.492  12.074
37908W        W97653   0.382   0.782  12.529
37909W        W97654   9.781  28.584  11.450
37910W        W97655   8.899  37.021  10.620
37911W        W97656   3.382  25.609  13.474
37912W        W97657  20.070  24.056   1.265
37913W        W97658   4.878  20.599  14.495
37914W        W97659  27.950  12.137   2.251
37915W        W97660  32.045  37.922  10.583
37916W        W97661  39.844  22.210   0.727
37917W        W97662  18.619  29.000  10.134
37918W        W97663   9.847  34.591  14.761
37919W        W97664  16.767  13.322  12.942
37920W        W97665   2.458  44.360  10.504
37921W        W97666  16.628  21.173   3.148
37922W        W97667  31.104  21.111   1.401
37923W        W97668  34.032  28.070   3.200
37924W        W97669  35.879  15.225  13.406
37925W        W97670  31.473  39.422   1.894
37926W        W97671  31.969  20.088   3.337
37927W        W97672  26.524   4.333   0.730
37928W        W97673  43.493  38.549   3.295
37929W        W97674  15.190  10.250   0.773
37930W        W97675   5.759  24.639   4.610
37931W        W97676  31.614  44.905   4.127
37932W        W97677   6.186  26.584   4.835
37933W        W97678  18.102  43.479   2.272
37934W        W97679  30.558  31.480   2.682
37935W        W97680  34.937  12.815   4.278
37936W        W97681  18.277  12.761   0.482
37937W        W97682  30.433  29.437   1.783
37938W        W97683  26.582  10.221   4.767
37939W        W97684  44.329   2.237   4.286
37940W        W97685  41.866  32.026  13.895
37941W        W97686  44.778   0.468   1.930
37942W        W97687   1.812   1.236   2.814
37943W        W97688  41.489  31.506  13.046
37944W        W97689  29.139  39.465   3.232
37945W        W97690  22.174  11.738   4.690
37946W        W97691  34.584  23.153   2.393
37947W        W97692  36.454  26.101  13.028
37948W        W97693  32.635  12.617  12.868
37949W        W97694  27.587  30.102   2.846
37950W        W97695  19.095   6.301   1.248
37951W        W97696  35.902  30.104  13.418
37952W        W97697  13.153  28.040  11.100
37953W        W97698  32.434  12.224  13.815
37954W        W97699  26.534  29.980   4.691
37955W        W97700  36.012  40.817  11.558
37956W        W97701  38.406  33.533  13.032
37957W        W97702   8.857  29.559  14.784
37958W        W97703  23.552   0.952   4.200
37959W        W97704  27.024  22.591  10.004
37960W        W97705   2.781  31.587  13.900
37961W        W97706   9.265  11.303  12.371
37962W        W97707  26.460  19.596   2.365
37963W        W97708   4.720   5.249   1.694
37964W        W97709  34.563  41.980   2.308
37965W        W97710  10.321  13.760   4.154
37966W        W97711  18.268  35.023  14.393
37967W        W97712  10.860   0.748  12.467
37968W        W97713  24.097  42.339   2.187
37969W        W97714  14.717  12.308   1.245
37970W        W97715   5.731  16.296  14.002
37971W        W97716  26.656   3.445  12.903
37972W        W97717  28.607  29.560  12.063
37973W        W97718  15.738  30.153  11.019
37974W        W97719  20.215  29.107   2.817
37975W        W97720  19.282   7.785   3.657
37976W        W97721   6.677   8.870  14.439
37977W        W97722  21.254  35.578   1.430
37978W        W97723  22.066  27.490  13.377
37979W        W97724  21.557  28.664  10.592
37980W        W97725  33.879  13.195   4.828
37981W        W97726   0.467  23.625   2.785
37982W        W97727   5.327  22.721  13.826
37983W        W97728  42.857  20.705   4.805
37984W        W97729  24.484  33.409  11.923
37985W        W97730   8.761  22.716  11.435
37986W        W97731  42.288  31.419   2.824
37987W        W97732  43.416  20.030   0.861
37988W        W97733  17.089  42.362  12.025
37989W        W97734   6.824  23.070  11.577
37990W        W97735   2.840  33.049  13.007
37991W        W97736  22.551   5.274  12.074
37992W        W97737  43.960  27.473   0.925
37993W        W97738  12.671  11.681  11.073
37994W        W97739  12.845  34.103   4.168
37995W        W97740  41.865  42.287  10.542
37996W        W97741  11.800  37.561  10.467
37997W        W97742   6.323  15.090   3.812
37998W        W97743  14.210  34.111   3.763
37999W        W97744   4.248   5.195  11.549
38000W        W97745  40.825  41.883   3.164
38001W        W97746   1.338  18.061  14.865
38002W        W97747  24.011  27.125  12.572
38003W        W97748  31.547  31.510   4.656
38004W        W97749  26.591  34.010   1.357
38005W        W97750  38.506  15.137  14.845
38006W        W97751   4.320  37.016   0.435
38007W        W97752   4.861   6.226  11.855
38008W        W97753  10.811  17.079   1.214
38009W        W97754  21.527  26.146   1.223
38010W        W97755   4.423  10.277   3.280
38011W        W97756  12.763  34.020   0.419
38012W        W97757  25.985  10.198   3.245
38013W        W97758  30.029  33.432   5.096
38014W        W97759  37.455  24.992   9.964
38015W        W97760  24.176   8.396  11.461
38016W        W97761  26.005  41.844  13.943
38017W        W97762  19.183  20.716  10.916
38018W        W97763   7.790  19.219  10.611
38019W        W97764  32.391  20.729   3.281
38020W        W97765  32.063   7.299  10.451
38021W        W97766  42.905   5.268   4.168
38022W        W97767  39.385  21.544  13.989
38023W        W97768  17.075   0.415   3.341
38024W        W97769  13.842  40.468   1.866
38025W        W97770  42.348  37.385   3.702
38026W        W97771  11.242  38.862   4.771
38027W        W97772  16.129  43.798   4.346
38028W        W97773  38.491   4.781   1.784
38029W        W97774  25.979   7.726   0.935
38030W        W97775   9.859  11.843  10.621
38031W        W97776  41.470  22.082  10.928
38032W        W97777  21.594   7.197  12.080
38033W        W97778  33.408   1.844   1.877
38034W        W97779  29.570   6.694  14.309
38035W        W97780  38.538  26.121   0.390
38036W        W97781  27.155  14.286  14.908
38037W        W97782  19.270  44.408  11.431
38038W        W97783  17.078  13.798   1.234
38039W        W97784  27.645   6.906  13.931
38040W        W97785  32.939  10.154  10.416
38041W        W97786  23.503  37.914  13.808
38042W        W97787  42.460   2.954  10.559
38043W        W97788   8.698  43.841   1.899
38044W        W97789  44.279  21.042   3.300
38045W        W97790  40.921  14.332   4.156
38046W        W97791  27.135  33.474   2.678
38047W        W97792  30.957  10.642   1.763
38048W        W97793   4.413   8.381  12.047
38049W        W97794  32.528  37.370   5.100
38050W        W97795  16.737   6.364  13.997
38051W        W97796  43.282  42.871   2.330
38052W        W97797  41.008  33.451   4.782
38053W        W97798  23.490  28.957  13.028
38054W        W97799  41.354  22.557  10.939
38055W        W97800   7.702  13.144   1.442
38056W        W97801  22.248   5.239  10.567
38057W        W97802  19.202  41.393   3.267
38058W        W97803  36.849  27.601  13.389
38059W        W97804  40.016   5.711   1.891
38060W        W97805  35.053  17.762   1.335
38061W        W97806  41.504  13.325   0.483
38062W        W97807  17.648  26.167   1.340
38063W        W97808  26.069  12.209  14.503
38064W        W97809  37.377  20.533   4.261
38065W        W97810  43.343   5.436  12.409
38066W        W97811  30.468  16.588  12.033
38067W        W97812   4.909  21.553   3.739
38068W        W97813  30.493  15.206   2.339
38069W        W97814  23.583  15.806   3.319
38070W        W97815  11.285  12.218  14.877
38071W        W97816  37.347   5.749   2.835
38072W        W97817  18.555  30.495  14.847
38073W        W97818  15.257  38.015   4.198
38074W        W97819  40.025   4.903   0.860
38075W        W97820  20.767  14.265  10.608
38076W        W97821  11.794  30.149  10.911
38077W        W97822  22.029  31.902  11.950
38078W        W97823  40.957   1.855  11.470
38079W        W97824   1.263  28.167   0.324
38080W        W97825  18.173  28.941   3.382
38081W        W97826  14.785  30.641  12.555
38082W        W97827   5.268  14.771  12.839
38083W        W97828  29.571   4.440  13.525
38084W        W97829  25.108   6.819  12.360
38085W        W97830  11.712  14.612   0.820
38086W        W97831   7.764   8.842  10.962
38087W        W97832  37.405  25.988   1.365
38088W        W97833  15.710  34.046   2.260
38089W        W97834   5.239   2.730   0.839
38090W        W97835  41.514  12.339  13.063
38091W        W97836  43.896  27.078   4.616
38092W        W97837  34.607  40.898   4.226
38093W        W97838  35.368  15.277   1.843
38094W        W97839   1.363  16.105   0.813
38095W        W97840  28.044   9.858   0.266
38096W        W97841  41.450  19.542  14.501
38097W        W97842  38.003  30.968  12.018
38098W        W97843  12.769  34.382   1.733
38099W        W97844  20.543   7.357  11.995
38100W        W97845  31.519   8.900  12.019
38101W        W97846  28.448  19.744   4.675
38102W        W97847  12.280   3.374   3.842
38103W        W97848  28.650  13.794  11.467
38104W        W97849  32.060  13.121  10.553
38105W        W97850  25.047  31.084  14.321
38106W        W97851  38.392  14.605   2.892
38107W        W97852  44.010   7.253  11.006
38108W        W97853  17.611  26.050  11.613
38109W        W97854  32.001  34.084   0.831
38110W        W97855  40.383  36.994   1.812
38111W        W97856  15.785  34.919  14.377
38112W        W97857  22.536  19.710  12.014
38113W        W97858  24.991   3.326   5.803
38114W        W97859  31.136   9.814  11.896
38115W        W97860  13.791  20.627  10.438
38116W        W97861  12.292  13.135  11.040
38117W        W97862  29.084  39.466   4.338
38118W        W97863  38.545  39.865   1.804
38119W        W97864   6.783   6.353  11.505
38120W        W97865  22.193  27.590   4.745
38121W        W97866  35.415  17.136  10.904
38122W        W97867  44.367  28.586   3.771
38123W        W97868  31.987  24.061  12.890
38124W        W97869  17.288  12.782  14.999
38125W        W97870  44.301  14.662  13.930
38126W        W97871  26.173  16.725  14.841
38127W        W97872   4.347   4.831  14.319
38128W        W97873  12.238   0.434  14.022
38129W        W97874  18.786   9.160   3.631
38130W        W97875  28.483  33.461  11.066
38131W        W97876  32.477  43.914  14.918
38132W        W97877  12.617  30.048  13.036
38133W        W97878  42.331  27.585  10.527
38134W        W97879  12.219  15.801  11.951
38135W        W97880  27.669  22.508   4.722
38136W        W97881  13.151  33.553   9.667
38137W        W97882  15.803  16.712   2.833
38138W        W97883  19.583  24.708   3.770
38139W        W97884  23.012  13.196   1.310
38140W        W97885  32.021  31.505   3.712
38141W        W97886  30.626  24.693   0.942
38142W        W97887  22.668  37.564  14.338
38143W        W97888  24.107  31.126   0.371
38144W        W97889   8.746  39.819  12.440
38145W        W97890  26.564   6.342   4.309
38146W        W97891  15.161  26.049   4.719
38147W        W97892  38.892  18.591  13.034
38148W        W97893  16.660   4.313  10.908
38149W        W97894  12.771  33.107  14.915
38150W        W97895  29.597  22.653  11.929
38151W        W97896  33.442  12.139   3.299
38152W        W97897   2.250  36.074  11.109
38153W        W97898  35.930   0.387   0.323
38154W        W97899   9.779  17.205  10.909
38155W        W97900  35.530  17.662  13.987
38156W        W97901   6.865  25.180   2.746
38157W        W97902   0.417  33.958   1.440
38158W        W97903  32.602  17.773  14.808
38159W        W97904   7.241   0.282  11.505
38160W        W97905   9.883  19.107   3.685
38161W        W97906  12.131  40.871  12.891
38162W        W97907  21.076  15.670  14.004
38163W        W97908  28.025  41.345   1.374
38164W        W97909   0.925  31.140   5.647
38165W        W97910  26.995  29.509  14.484
38166W        W97911  21.025  18.750  12.074
38167W        W97912  43.779  19.103  11.863
38168W        W97913  16.204  34.495   0.466
38169W        W97914  21.650   5.739  13.876
38170W        W97915  44.942  37.425  13.510
38171W        W97916  36.540  42.795  10.460
38172W        W97917  29.575  14.622   0.371
38173W        W97918  29.959  13.342  10.549
38174W        W97919  30.071  37.505   1.782
38175W        W97920  37.902  26.157  11.115
38176W        W97921   1.308  19.753   1.775
38177W        W97922  31.973   6.703   2.225
38178W        W97923  10.377  23.715  13.852
38179W        W97924  16.183   4.265  14.457
38180W        W97925  39.392  23.654  11.972
38181W        W97926  39.963   7.251  11.105
38182W        W97927  22.664  11.733   4.750
38183W        W97928   7.737  33.084  10.624
38184W        W97929  30.082  20.680   9.630
38185W        W97930  28.588  21.617   2.693
38186W        W97931   6.201  40.411   0.874
38187W        W97932  17.233   0.455   2.375
38188W        W97933  15.108  36.536   0.829
38189W        W97934  33.903   5.223   0.349
38190W        W97935  17.140  10.281  11.071
38191W        W97936   1.399  26.023  11.059
38192W        W97937  32.034  15.089   4.260
38193W        W97938  24.086   1.964   3.824
38194W        W97939  30.931  27.161   2.178
38195W        W97940  10.770   3.898  11.988
38196W        W97941  29.086  13.264   4.828
38197W        W97942  36.383  15.578  13.452
38198W        W97943  18.229  40.368   1.734
38199W        W97944  31.148  10.144  10.084
38200W        W97945  43.438   6.841   3.866
38201W        W97946  20.555  36.584   3.360
38202W        W97947  31.063  29.496   0.877
38203W        W97948   2.344  31.974  11.006
38204W        W97949   2.352  25.499   4.766
38205W        W97950  12.682  30.621  12.419
38206W        W97951   8.852  25.977   3.744
38207W        W97952  36.993  38.861  13.451
38208W        W97953  30.527  20.671  13.872
38209W        W97954  15.625  24.190   3.147
38210W        W97955  39.535  20.216   0.396
38211W        W97956  16.216  13.717  12.460
38212W        W97957  12.218  32.111   3.745
38213W        W97958   8.246   1.789  12.419
38214W        W97959   5.812  23.572  11.553
38215W        W97960  10.197  34.065  11.918
38216W        W97961  20.685  44.307  11.938
38217W        W97962  36.964   4.861  11.943
38218W        W97963   9.798  25.645  11.401
38219W        W97964  25.013   8.846  14.032
38220W        W97965  26.554  40.520   5.131
38221W        W97966  43.935   2.400   3.233
38222W        W97967  44.270  19.645   9.983
38223W        W97968  16.208  19.601  13.523
38224W        W97969  23.116  10.316   1.412
38225W        W97970  12.817  15.793  10.637
38226W        W97971  42.517   1.473  13.393
38227W        W97972  38.015  42.975   3.270
38228W        W97973  14.206  14.795  10.437
38229W        W97974  29.090  20.225  11.459
38230W        W97975  23.697  40.418   0.468
38231W        W97976  32.115  25.540   4.302
38232W        W97977  18.731  23.718   4.670
38233W        W97978  17.626   2.942  14.412
38234W        W97979  27.944  42.362   1.365
38235W        W97980  24.485  11.160  13.829
38236W        W97981   9.817  32.100   4.788
38237W        W97982  21.237  44.850   4.751
38238W        W97983  43.480  27.544   3.292
38239W        W97984  12.683  11.814  12.977
38240W        W97985  41.509  10.240  10.961
38241W        W97986   9.731   4.258   4.210
38242W        W97987  25.047  26.679  13.349
38243W        W97988  26.546  13.703  11.950
38244W        W97989  16.809  43.928  11.992
38245W        W97990  37.346  11.197  11.059
38246W        W97991  16.293   6.795   1.385
38247W        W97992  32.462   9.655  14.875
38248W        W97993   7.352  34.522  10.977
38249W        W97994  35.912  18.671   0.291
38250W        W97995  16.247   8.198   3.311
38251W        W97996  15.121   0.281   2.898
38252W        W97997  13.169  10.246   1.813
38253W        W97998  13.836   0.969  11.120
38254W        W97999   7.315  41.325   0.825
38255W        W98000  16.654   5.239   1.410
38256W        W98001  11.838   7.888  11.992
38257W        W98002  20.254  10.351  12.438
38258W        W98003   4.437  23.184  12.448
38259W        W98004  37.876  37.953   0.448
38260W        W98005  41.893  19.606  12.361
38261W        W98006  17.723   3.781  10.627
38262W        W98007  17.797  29.997  11.909
38263W        W98008  11.852  12.159   3.779
38264W        W98009  41.901  43.282   4.645
38265W        W98010  33.125   2.241   2.206
38266W        W98011  28.583  26.582   4.272
38267W        W98012  25.550  29.659   4.325
38268W        W98013  11.266  41.028  12.926
38269W        W98014  31.071   5.840  12.042
38270W        W98015   6.346  42.902  11.889
38271W        W98016  30.127  33.985  14.378
38272W        W98017   5.702  27.589   1.744
38273W        W98018  44.301   3.932   1.266
38274W        W98019  35.573  20.728   4.819
38275W        W98020   3.829  10.867  12.838
38276W        W98021  24.496  13.743  13.979
38277W        W98022   2.800  31.101   0.394
38278W        W98023  42.872  16.282  14.455
38279W        W98024  43.338  31.411   3.812
38280W        W98025  31.626   2.278  13.329
38281W        W98026  41.468  24.094  14.806
38282W        W98027   9.201  15.695   0.463
38283W        W98028  44.440  25.100   5.095
38284W        W98029  43.956  40.036  14.902
38285W        W98030  11.159   9.766  10.977
38286W        W98031  28.135   4.940  11.984
38287W        W98032  42.809  21.622  11.894
38288W        W98033  43.371  12.222  13.907
38289W        W98034   1.885  31.919  10.080
38290W        W98035  39.044  21.239  14.417
38291W        W98036  27.458  11.717   0.466
38292W        W98037  18.756   4.290   3.198
38293W        W98038  28.598  12.838  13.340
38294W        W98039  16.102   7.666   2.816
38295W        W98040  36.847  22.222  14.320
38296W        W98041  21.115  30.530  10.935
38297W        W98042   5.733  28.152   0.337
38298W        W98043   3.336  39.536  10.982
38299W        W98044  41.934  30.524  12.340
38300W        W98045   2.429   7.310   1.436
38301W        W98046   5.339   0.251   1.930
38302W        W98047  40.928  44.934  12.521
38303W        W98048  14.310  44.395  14.513
38304W        W98049  14.131   9.395   2.375
38305W        W98050  40.411  31.973  14.810
38306W        W98051  15.591  34.980   2.679
38307W        W98052  43.898  34.864   0.755
38308W        W98053  29.099   8.757  10.544
38309W        W98054  20.745  18.688  11.955
38310W        W98055   0.267  11.326   2.694
38311W        W98056  12.774  27.958   0.297
38312W        W98057  30.618  42.502   2.814
38313W        W98058  25.081  13.236  10.431
38314W        W98059  17.666  22.667   4.631
38315W        W98060  34.909  29.535  13.355
38316W        W98061   6.791  37.965   4.266
38317W        W98062  24.996   1.732  13.888
38318W        W98063   6.252  37.369   4.732
38319W        W98064  35.486  26.020  13.884
38320W        W98065  10.296  34.537  12.967
38321W        W98066  24.587   2.310   0.346
38322W        W98067  20.044  28.641   1.224
38323W        W98068  30.480   3.837  12.040
38324W        W98069   5.796  34.462  11.532
38325W        W98070  34.545  38.855  10.021
38326W        W98071  43.808  30.547   1.384
38327W        W98072   8.687  42.319   3.349
38328W        W98073  23.577   4.320  13.040
38329W        W98074  32.522   9.329   0.257
38330W        W98075  29.994  31.120  11.513
38331W        W98076  12.618   7.737  10.537
38332W        W98077  39.862  34.908   3.704
38333W        W98078  28.945  19.607   1.234
38334W        W98079  34.462   1.807   0.788
38335W        W98080  37.924   3.259  12.473
38336W        W98081  24.693  38.378  12.008
38337W        W98082  29.668  16.733   1.876
38338W        W98083  13.706  39.906  14.974
38339W        W98084  34.974  44.957   1.328
38340W        W98085   2.853  30.936  14.759
38341W        W98086  43.499  44.389   3.336
38342W        W98087  38.416  15.665   4.772
38343W        W98088  20.555   8.188  13.004
38344W        W98089   7.852   3.911  13.980
38345W        W98090  29.448  32.132  12.903
38346W        W98091  10.289  43.463  12.358
38347W        W98092   5.291   9.235  11.044
38348W        W98093  43.312  39.827  10.528
38349W        W98094   7.694  24.135   0.480
38350W        W98095  10.833  28.014   4.800
38351W        W98096  24.716   4.791   0.402
38352W        W98097  12.755  43.410   3.291
38353W        W98098  42.353   8.346  11.095
38354W        W98099  28.984  42.346  12.051
38355W        W98100  20.697  30.432  11.516
38356W        W98101  37.983  24.041   3.720
38357W        W98102  22.702  33.911   0.783
38358W        W98103  13.179  11.355   2.900
38359W        W98104  25.171  18.293  10.578
38360W        W98105  10.755  12.197   4.686
38361W        W98106  10.272  14.229   0.818
38362W        W98107  35.464  21.569  12.068
38363W        W98108  35.063  41.942  12.372
38364W        W98109  22.551   1.783   2.740
38365W        W98110  11.208  32.430  12.427
38366W        W98111  29.511  29.457   1.382
38367W        W98112   5.330  15.603   1.922
38368W        W98113  38.355  26.568  12.428
38369W        W98114  40.995  19.112   0.967
38370W        W98115  35.065   2.837  14.981
38371W        W98116   6.877  13.636   4.335
38372W        W98117  16.102  42.382  13.375
38373W        W98118  30.911  43.944  10.534
38374W        W98119  11.668  26.094   4.757
38375W        W98120  33.536   5.799  13.427
38376W        W98121  40.403   0.319   4.754
38377W        W98122  36.531  37.423   0.963
38378W        W98123  20.603   1.905   3.363
38379W        W98124  44.957   9.804   1.390
38380W        W98125   4.854   5.325  14.026
38381W        W98126  40.532  23.146  10.480
38382W        W98127   0.987  10.872   3.271
38383W        W98128  43.936  23.722   1.887
38384W        W98129  16.708  43.458  12.928
38385W        W98130   1.469  31.998   2.688
38386W        W98131  30.523  26.668   3.835
38387W        W98132  22.723   8.202   2.417
38388W        W98133  44.501  38.553   3.149
38389W        W98134  37.554  14.642  13.472
38390W        W98135  25.990  37.576   5.196
38391W        W98136  28.177  35.558   1.436
38392W        W98137  11.172  38.521  13.536
38393W        W98138  33.992  34.081  10.583
38394W        W98139  43.905  43.322   3.727
38395W        W98140  27.993  36.953  14.363
38396W        W98141   7.838  15.711  12.492
38397W        W98142  38.462  24.594  12.413
38398W        W98143  39.008   0.478   3.352
38399W        W98144  36.510  24.108  12.050
38400W        W98145  39.390  13.825  12.924
38401W        W98146  19.598  20.100   2.246
38402W        W98147  39.963   4.821  14.871
38403W        W98148   9.664  27.010   1.702
38404W        W98149  32.885  43.808   0.825
38405W        W98150  40.503  24.164  13.809
38406W        W98151  26.611  25.679  10.569
38407W        W98152  33.911   5.777  12.081
38408W        W98153   1.393  16.184  13.412
38409W        W98154   0.263  33.621   3.315
38410W        W98155  13.307  27.958   0.845
38411W        W98156   5.238   1.952   1.225
38412W        W98157  27.567  20.243   4.175
38413W        W98158  12.770  42.022  12.041
38414W        W98159  44.862  36.543  12.537
38415W        W98160  41.478  37.354   0.364
38416W        W98161  10.296  43.785   2.790
38417W        W98162  14.162  35.389   4.139
38418W        W98163  11.825  15.179  11.021
38419W        W98164  14.623  26.548  14.479
38420W        W98165   1.769  36.876  14.995
38421W        W98166  37.938  15.309   2.869
38422W        W98167  19.654  34.503  10.467
38423W        W98168  10.690  17.175  12.928
38424W        W98169  35.539   2.298  14.952
38425W        W98170  17.765  18.292  12.547
38426W        W98171  42.832  11.711  11.967
38427W        W98172  18.183  36.858   3.718
38428W        W98173  11.815  42.339   3.738
38429W        W98174  44.817   2.726   2.666
38430W        W98175   1.773  26.197   1.872
38431W        W98176  13.268  33.407  12.564
38432W        W98177  20.636   3.824  13.362
38433W        W98178  10.138  43.500  13.926
38434W        W98179  16.227  37.036   3.810
38435W        W98180  40.937  18.290  14.812
38436W        W98181  36.916  34.477   4.272
38437W        W98182  17.800   1.239   4.630
38438W        W98183  31.975  21.071   2.896
38439W        W98184   8.776  38.513   3.713
38440W        W98185  23.491  27.518  13.800
38441W        W98186  12.778  13.619   4.659
38442W        W98187  10.724  18.659   4.192
38443W        W98188  34.110  32.023  11.470
38444W        W98189  26.977  17.757  10.960
38445W        W98190  38.912  12.755  11.005
38446W        W98191  26.018  18.616   3.633
38447W        W98192  28.624  39.554   4.726
38448W        W98193  36.057  10.160  10.619
38449W        W98194  35.592  27.512  10.448
38450W        W98195  14.251  43.818  12.061
38451W        W98196  37.481  11.192   4.212
38452W        W98197  40.541  11.719  12.979
38453W        W98198  23.186   1.279   1.370
38454W        W98199  31.476  42.301  14.428
38455W        W98200  37.542  41.875  12.936
38456W        W98201  36.532   7.243  10.463
38457W        W98202  25.544  44.886   0.811
38458W        W98203  22.654   2.322   1.828
38459W        W98204   3.822  27.616   0.897
38460W        W98205  17.611  36.589   9.510
38461W        W98206  34.084   7.327   0.332
38462W        W98207  42.886  29.522   4.779
38463W        W98208   2.889  42.507   2.367
38464W        W98209  27.054  17.214   0.949
38465W        W98210  13.844  32.947  11.415
38466W        W98211  20.731  15.593  11.568
38467W        W98212  25.110   7.783   2.302
38468W        W98213  33.045  27.480   2.838
38469W        W98214  43.913  41.968   1.723
38470W        W98215  39.492   2.922  14.510
38471W        W98216  24.666  11.131   3.166
38472W        W98217  24.094   3.369   2.762
38473W        W98218  23.568   6.411   3.296
38474W        W98219   7.364  40.815   2.684
38475W        W98220  17.268  40.314   4.167
38476W        W98221   5.417  25.015   4.135
38477W        W98222  21.024  11.185   4.157
38478W        W98223  35.928  37.040   1.775
38479W        W98224  20.585  43.392  12.444
38480W        W98225  32.052  33.009  13.353
38481W        W98226   4.358   1.807   0.327
38482W        W98227  43.346  28.576  11.905
38483W        W98228   1.353   2.819   0.770
38484W        W98229   7.266  11.213  14.316
38485W        W98230  41.964  11.158  14.464
38486W        W98231  39.401  29.527   0.363
38487W        W98232  21.156  14.592  14.281
38488W        W98233  29.513  25.642  14.444
38489W        W98234  34.430  25.648  11.971
38490W        W98235  33.026  18.706   4.175
38491W        W98236  10.312  28.493  10.411
38492W        W98237  19.734   8.299   2.717
38493W        W98238  44.451  20.250   4.275
38494W        W98239  44.942  40.978  11.580
38495W        W98240  15.170  25.174   4.660
38496W        W98241  14.603   2.471   4.144
38497W        W98242  44.386  11.163  11.901
38498W        W98243  22.226  42.775   2.187
38499W        W98244  14.197  15.632   4.314
38500W        W98245   2.230  37.056  14.819
38501W        W98246  26.113  41.502  10.506
38502W        W98247   3.860  26.517   0.820
38503W        W98248   6.739  39.860  10.449
38504W        W98249  26.010   2.925  12.827
38505W        W98250  30.617  41.016   3.361
38506W        W98251  43.949   6.699  12.399
38507W        W98252  20.629  31.069  14.891
38508W        W98253  38.822  11.365  14.972
38509W        W98254  44.003   5.905   2.371
38510W        W98255  17.241  10.825   0.790
38511W        W98256  16.674  11.276   2.878
38512W        W98257  29.117  36.977   2.325
38513W        W98258  41.476  15.664   0.467
38514W        W98259   1.868   6.388   4.166
38515W        W98260  17.584  25.542  13.519
38516W        W98261  30.964   6.289  10.505
38517W        W98262  36.080  22.016   2.250
38518W        W98263  10.169  43.812  12.850
38519W        W98264  23.676  32.134  14.514
38520W        W98265   2.897   2.780   3.811
38521W        W98266  27.554  42.780  12.354
38522W        W98267  31.020  18.594   3.820
38523W        W98268  32.894  21.117   9.670
38524W        W98269  13.639  40.875  10.925
38525W        W98270  13.825  17.292   0.418
38526W        W98271  11.750  19.630   1.289
38527W        W98272  18.646   7.772   3.826
38528W        W98273  43.392  38.558   1.440
38529W        W98274  26.534  19.538  10.983
38530W        W98275   4.874   2.371  12.012
38531W        W98276  30.444  24.179  14.438
38532W        W98277  15.749  41.361   2.743
38533W        W98278   9.862  29.942   3.774
38534W        W98279  26.523  11.350   4.224
38535W        W98280  10.775  25.011   1.792
38536W        W98281  30.577  20.064   4.607
38537W        W98282  16.746  26.980  14.013
38538W        W98283  10.175  27.622   1.859
38539W        W98284   1.339   6.857   4.700
38540W        W98285  15.108  33.940   3.351
38541W        W98286  17.099   0.403   4.701
38542W        W98287  39.350  14.622   3.293
38543W        W98288  42.388  24.053  14.945
38544W        W98289  29.581   9.151   1.238
38545W        W98290  31.087  20.687   4.655
38546W        W98291   7.338  17.153  14.772
38547W        W98292  26.176  36.977  13.976
38548W        W98293  42.476  39.368   2.851
38549W        W98294  18.196  26.557  12.569
38550W        W98295  36.966  36.979  12.003
38551W        W98296   6.271  21.164   0.955
38552W        W98297  31.040   9.736  14.902
38553W        W98298   3.445   2.350  14.410
38554W        W98299  13.249  28.647   0.892
38555W        W98300  34.082  42.790   0.793
38556W        W98301   2.731   3.949   3.851
38557W        W98302   6.241  22.113   0.313
38558W        W98303  36.583  21.594  14.032
38559W        W98304  17.119   8.178  12.499
38560W        W98305  13.290  37.423   3.265
38561W        W98306  28.473  35.404   3.179
38562W        W98307  43.879   9.376  14.507
38563W        W98308   9.817  20.592   4.146
38564W        W98309  29.464  43.765   4.325
38565W        W98310  10.770   3.455   2.283
38566W        W98311   4.774  33.969   2.365
38567W        W98312   0.312  32.517  10.405
38568W        W98313  31.056  19.230  11.880
38569W        W98314   0.273  24.985  11.567
38570W        W98315  38.372  16.310  13.890
38571W        W98316  10.750  24.519   2.886
38572W        W98317   0.823   8.788  12.065
38573W        W98318   1.320  29.540   0.961
38574W        W98319  35.953  35.879   4.210
38575W        W98320  38.055  32.062   5.245
38576W        W98321  38.338  14.810   1.785
38577W        W98322  20.611  24.570  11.591
38578W        W98323  17.600  35.010  14.508
38579W        W98324  25.578  38.877   2.812
38580W        W98325  34.068  40.898   4.343
38581W        W98326  22.060   7.808  13.894
38582W        W98327  28.659  35.949  13.051
38583W        W98328   0.464  16.567   3.801
38584W        W98329  42.352  41.995  14.013
38585W        W98330  41.948   4.378   1.368
38586W        W98331  37.394   8.396   3.269
38587W        W98332  42.936   0.314  10.609
38588W        W98333   3.345  11.850  11.024
38589W        W98334  27.046  22.137  11.514
38590W        W98335  33.926  22.186  10.063
38591W        W98336  22.125   1.280  14.775
38592W        W98337  16.787  34.978   4.647
38593W        W98338   6.299   2.768  11.098
38594W        W98339  32.062  43.870   0.823
38595W        W98340  17.184  14.604   2.179
38596W        W98341  43.812  25.572   0.876
38597W        W98342   4.741  38.003  11.560
38598W        W98343  19.661  17.091   5.224
38599W        W98344  10.190  17.731   4.214
38600W        W98345  32.088  20.223   1.831
38601W        W98346   3.361  44.465  11.877
38602W        W98347  22.556   4.893   0.433
38603W        W98348  37.381  12.360  10.544
38604W        W98349   8.217   9.885   1.772
38605W        W98350  31.472   0.930  14.405
38606W        W98351  14.139  23.632  13.848
38607W        W98352  44.412   0.250  14.498
38608W        W98353  35.913  42.335   2.826
38609W        W98354  15.248   3.243   4.210
38610W        W98355  32.997   9.740   0.255
38611W        W98356   0.985  25.968   0.818
38612W        W98357  34.520  31.964   1.872
38613W        W98358  44.772   5.379   3.293
38614W        W98359  37.368  19.771   2.757
38615W        W98360  34.546  33.941   2.822
38616W        W98361  19.665  17.302   1.710
38617W        W98362   6.293  38.526   3.861
38618W        W98363  18.675  26.560   5.190
38619W        W98364   9.889  39.496   0.806
38620W        W98365  35.071   8.392   1.269
38621W        W98366  42.888  28.525  11.099
38622W        W98367   8.784  33.012   3.363
38623W        W98368  26.457  19.073  10.487
38624W        W98369  25.156   1.963   3.377
38625W        W98370  14.125  27.088   4.737
38626W        W98371  23.192  39.447  12.383
38627W        W98372  23.005  30.135   3.322
38628W        W98373  44.499  33.487   1.908
38629W        W98374  30.504  18.715   9.445
38630W        W98375  16.665  14.264  13.833
38631W        W98376  31.452  22.164  13.003
38632W        W98377  14.277  37.031   5.094
38633W        W98378  18.562  10.152  13.833
38634W        W98379  27.954   4.295  11.892
38635W        W98380  11.219  44.840  11.428
38636W        W98381  26.987  29.121   4.141
38637W        W98382  31.473  16.157   4.275
38638W        W98383  16.087   4.304  13.988
38639W        W98384  29.942  23.615   3.286
38640W        W98385   0.821  28.586  12.453
38641W        W98386  13.290  32.474   3.846
38642W        W98387  38.992  40.468   1.742
38643W        W98388  26.534  30.615  14.392
38644W        W98389  10.835  43.814   2.728
38645W        W98390  41.941  20.617  12.352
38646W        W98391  11.361  40.979   1.343
38647W        W98392  30.919   1.369  14.830
38648W        W98393   3.713  25.175  13.531
38649W        W98394  16.620   8.227   0.958
38650W        W98395   3.415  20.642   1.845
38651W        W98396  29.934  32.512  12.461
38652W        W98397  38.037  20.601   2.299
38653W        W98398  29.011  21.595   3.653
38654W        W98399  31.443   9.233   0.961
38655W        W98400   4.358   5.791   3.257
38656W        W98401  40.340  38.019   0.899
38657W        W98402  25.557  12.849  11.966
38658W        W98403  36.449  38.382  11.546
38659W        W98404  12.809   1.281   3.288
38660W        W98405  44.347  22.177  12.477
38661W        W98406   2.790  19.564   2.256
38662W        W98407  23.558   8.164  14.004
38663W        W98408   2.849  23.056  13.000
38664W        W98409   8.790  17.724   3.737
38665W        W98410   9.291   9.370  14.288
38666W        W98411  38.850  38.006   4.135
38667W        W98412  33.057  35.499   3.154
38668W        W98413  32.448  38.493  11.379
38669W        W98414   3.907  20.683  12.078
38670W        W98415   3.315   3.249  11.376
38671W        W98416  13.752  18.280  13.421
38672W        W98417  41.335  29.084  10.418
38673W        W98418   8.178  32.987  12.047
38674W        W98419  43.278   1.736   0.439
38675W        W98420  38.552  37.961  12.876
38676W        W98421  40.984  23.504   0.762
38677W        W98422  28.657  31.931  10.410
38678W        W98423  40.531  25.190  13.791
38679W        W98424  40.974  16.093   4.655
38680W        W98425  39.918  15.217   1.351
38681W        W98426  28.116  18.659  11.568
38682W        W98427   5.418  22.149  14.006
38683W        W98428  39.881  31.430   1.707
38684W        W98429  32.399  19.040  11.015
38685W        W98430   3.425  12.698  10.619
38686W        W98431   4.921  13.713   3.299
38687W        W98432  42.359  15.299  13.379
38688W        W98433  27.504  30.544  14.847
38689W        W98434  36.499  13.749  10.918
38690W        W98435  21.734  40.458   4.151
38691W        W98436  34.397  26.638  14.837
38692W        W98437  40.997  29.998   0.966
38693W        W98438  20.743   9.675  11.374
38694W        W98439  43.490  14.234   2.318
38695W        W98440   8.676   4.338  14.392
38696W        W98441   2.424   9.360  14.465
38697W        W98442  27.031  16.654  14.815
38698W        W98443  11.217  40.449   2.763
38699W        W98444   0.405  34.963   0.247
38700W        W98445  36.588  30.450   4.305
38701W        W98446  20.129   6.339  10.447
38702W        W98447  43.500  41.402  14.781
38703W        W98448   0.876  20.257  14.380
38704W        W98449  31.453  12.765  12.965
38705W        W98450   8.776  26.677   1.216
38706W        W98451   5.704  41.509   1.304
38707W        W98452  35.951  19.587   5.208
38708W        W98453   6.322   0.398   3.775
38709W        W98454  24.661  27.151   1.931
38710W        W98455  11.307  22.625  11.586
38711W        W98456  33.904  40.983  11.945
38712W        W98457  29.463  43.433  14.901
38713W        W98458  17.780  34.010   3.664
38714W        W98459   3.940  12.639  12.935
38715W        W98460  30.945  11.370   1.352
38716W        W98461  32.607  31.048   0.919
38717W        W98462   1.833  34.587  14.298
38718W        W98463  37.368  22.650   0.330
38719W        W98464  10.718   9.804  13.400
38720W        W98465   8.392  13.266  14.872
38721W        W98466  21.549   0.310   1.387
38722W        W98467   6.712  12.286  11.903
38723W        W98468  27.562  26.644   3.330
38724W        W98469  43.812  37.967   9.592
38725W        W98470   9.800  19.252   3.159
38726W        W98471  29.130  10.840   1.266
38727W        W98472  13.277  39.378  13.843
38728W        W98473  42.833  42.019   1.308
38729W        W98474  29.118  29.600  14.286
38730W        W98475   0.804   9.746   0.826
38731W        W98476  23.587  21.592  12.927
38732W        W98477   8.796  31.924  14.981
38733W        W98478   9.705  21.663   4.293
38734W        W98479   8.292   6.842   2.822
38735W        W98480  12.717   8.400   2.323
38736W        W98481  35.453  34.396  12.348
38737W        W98482  41.432  17.679  14.760
38738W        W98483  12.314  23.508   0.873
38739W        W98484  34.589  44.884   3.348
38740W        W98485  43.793  15.199  13.444
38741W        W98486   9.778   6.328  14.798
38742W        W98487   3.770  10.195  11.473
38743W        W98488   7.332   4.838  12.976
38744W        W98489  25.701   6.370   4.130
38745W        W98490  32.626  24.031  10.577
38746W        W98491  15.188  37.847   5.625
38747W        W98492   4.269   4.731  11.949
38748W        W98493  36.068   6.261   3.702
38749W        W98494  32.126  41.906   2.808
38750W        W98495   3.906  26.639  12.560
38751W        W98496  29.449  23.209  11.873
38752W        W98497  17.569  33.598  12.360
38753W        W98498   7.699  17.161  11.946
38754W        W98499   5.208   0.909   0.776
38755W        W98500  12.308  32.054  13.497
38756W        W98501  36.921  10.737   1.795
38757W        W98502  23.665  20.590   2.197
38758W        W98503  16.090  21.737   0.345
38759W        W98504   9.217   5.787  14.326
38760W        W98505  36.026  15.114   4.741
38761W        W98506  36.572  25.552  11.018
38762W        W98507  20.123  41.942  13.934
38763W        W98508  16.126  36.411   3.250
38764W        W98509  42.844  44.862  11.561
38765W        W98510  27.950  13.677   2.749
38766W        W98511   8.214  40.525  10.479
38767W        W98512  42.363  42.362  13.471
38768W        W98513   1.435  43.825  10.533
38769W        W98514  29.939  11.314  11.969
38770W        W98515  12.779  25.525   3.737
38771W        W98516  17.598  37.558   4.702
38772W        W98517   6.876  10.201  14.494
38773W        W98518  10.206  30.035   3.170
38774W        W98519  25.538  15.167  12.360
38775W        W98520  34.502  19.581   0.774
38776W        W98521   1.977  12.253  10.620
38777W        W98522  44.273   3.856  10.606
38778W        W98523  21.587  40.811   4.701
38779W        W98524  35.910  28.571  14.967
38780W        W98525  24.095  20.609   1.836
38781W        W98526  33.585  44.000  14.453
38782W        W98527  33.094  21.084   5.631
38783W        W98528  41.953  38.395  11.920
38784W        W98529   6.249   5.203  11.877
38785W        W98530  16.106  40.484  14.359
38786W        W98531  27.073  30.120   1.819
38787W        W98532   2.262  21.195   4.298
38788W        W98533   7.838  33.382   1.443
38789W        W98534  16.280  25.086  12.042
38790W        W98535  37.572  33.130  14.819
38791W        W98536  18.125  33.031   0.360
38792W        W98537   8.890  34.521  13.861
38793W        W98538  34.429  30.655   9.936
38794W        W98539   1.333  44.409  12.991
38795W        W98540  15.234  27.136  13.800
38796W        W98541  44.347  38.856  12.340
38797W        W98542   0.897  26.477  12.919
38798W        W98543  39.824  30.059  14.340
38799W        W98544   3.308  35.992   3.824
38800W        W98545  18.208  21.670  14.791
38801W        W98546  23.540  18.114  12.903
38802W        W98547  36.086  39.064   1.839
38803W        W98548   1.890  37.921  14.845
38804W        W98549   2.951   0.380  10.497
38805W        W98550  42.940  11.852   0.426
38806W        W98551  33.991  22.573   0.314
38807W        W98552  27.083   1.348  11.974
38808W        W98553  24.220   1.444  11.001
38809W        W98554  26.627  42.456   2.334
38810W        W98555  44.929  23.663   2.292
38811W        W98556   5.232   8.221  11.450
38812W        W98557  24.503  34.021  13.442
38813W        W98558   1.241  35.919  11.491
38814W        W98559  25.991   4.364   4.686
38815W        W98560   8.867  30.469   3.712
38816W        W98561  36.393  28.975  13.037
38817W        W98562  26.565  44.913  11.866
38818W        W98563  31.433  33.004   9.490
38819W        W98564  31.524  14.633  11.951
38820W        W98565   5.245   2.296   1.829
38821W        W98566  29.555  28.073  14.781
38822W        W98567  38.047  19.536   2.396
38823W        W98568   9.843  20.195  13.539
38824W        W98569   9.676  23.639   0.755
38825W        W98570  38.972  17.231  10.488
38826W        W98571   3.862  28.185   1.291
38827W        W98572   9.767  22.684  13.869
38828W        W98573  17.231   8.791  14.307
38829W        W98574   4.422  31.508   2.756
38830W        W98575  39.348  24.578  11.555
38831W        W98576   6.885  10.735   2.329
38832W        W98577   7.693  31.072  11.954
38833W        W98578  26.676  35.361   4.624
38834W        W98579  40.897  32.478   0.335
38835W        W98580  11.282   3.745  12.084
38836W        W98581  41.907  30.045  11.980
38837W        W98582   9.235   3.791  11.483
38838W        W98583   4.289   4.880  14.848
38839W        W98584  28.647  35.003  14.954
38840W        W98585   8.187  32.557  12.973
38841W        W98586  12.137  18.148   0.399
38842W        W98587  35.462   0.900   0.373
38843W        W98588  24.536  38.853  11.104
38844W        W98589   6.889  42.954  12.837
38845W        W98590  25.093   1.837   2.375
38846W        W98591  15.111  38.971  11.515
38847W        W98592  41.395   6.367   2.210
38848W        W98593  29.020  16.302   3.805
38849W        W98594  32.470  15.219  12.521
38850W        W98595   1.476  19.052   0.281
38851W        W98596  28.536  24.601   2.370
38852W        W98597  38.412  32.420   4.838
38853W        W98598  40.804  28.454  14.394
38854W        W98599  21.194  35.430  10.963
38855W        W98600   6.800  27.172   0.790
38856W        W98601   2.741  11.189  14.009
38857W        W98602  21.550  40.429  14.489
38858W        W98603  39.550  27.123   1.406
38859W        W98604   0.803  14.167  10.542
38860W        W98605   0.347  38.462   5.114
38861W        W98606  17.703  36.565   0.758
38862W        W98607  18.267  19.708   2.845
38863W        W98608  15.323   3.862  13.008
38864W        W98609  13.195  15.787  10.595
38865W        W98610  18.122  18.290   4.655
38866W        W98611  25.184  33.394   4.287
38867W        W98612  19.638  33.460  11.866
38868W        W98613  37.058  32.019   2.395
38869W        W98614  24.214  29.559  14.999
38870W        W98615  29.580  21.681  13.915
38871W        W98616  28.987   8.793  12.474
38872W        W98617  26.637  25.107  11.121
38873W        W98618  21.733   3.746   0.351
38874W        W98619   2.381   9.772   2.195
38875W        W98620   6.896  16.609   3.651
38876W        W98621   9.764   3.764   1.316
38877W        W98622  19.285  31.921   0.763
38878W        W98623  39.345  18.670  13.791
38879W        W98624  39.811  18.566  14.955
38880W        W98625  44.315  34.425  14.505
38881W        W98626  19.097  10.675   2.337
38882W        W98627   9.309  39.385   1.401
38883W        W98628   2.455  41.433  10.487
38884W        W98629   4.844   6.272   9.986
38885W        W98630  19.676  21.200  12.043
38886W        W98631  34.500   5.262  12.070
38887W        W98632   6.343  31.067  11.990
38888W        W98633  14.650  37.850   0.733
38889W        W98634  27.013   4.910  11.422
38890W        W98635  16.316   9.707  13.044
38891W        W98636  16.609  38.028  10.911
38892W        W98637   6.872  14.198   4.282
38893W        W98638  28.530  14.111  13.393
38894W        W98639  10.299  19.110   2.412
38895W        W98640  27.569  11.708   0.778
38896W        W98641  28.548  27.944  10.056
38897W        W98642   8.817  11.149   0.295
38898W        W98643  10.196  28.163   5.234
38899W        W98644  30.124  34.385   1.771
38900W        W98645   8.175   5.899  14.950
38901W        W98646  10.816  13.834  12.077
38902W        W98647  37.381   5.860  11.039
38903W        W98648  13.118  33.471  13.942
38904W        W98649  41.788  37.895   0.429
38905W        W98650  15.201  24.093   3.699
38906W        W98651   7.820  29.561  12.955
38907W        W98652  32.006   6.816   0.371
38908W        W98653  22.219  18.683   3.354
38909W        W98654  42.375  27.651  14.460
38910W        W98655  29.992  35.947   4.827
38911W        W98656  42.873   5.703  14.397
38912W        W98657  37.511  37.550   0.904
38913W        W98658  25.690   8.291  11.013
38914W        W98659  43.477   3.710   2.305
38915W        W98660   0.266  31.000  11.093
38916W        W98661   7.173   4.796  14.286
38917W        W98662   9.775   1.957  13.048
38918W        W98663  33.952  13.149   3.831
38919W        W98664  39.390   3.372   0.881
38920W        W98665  29.559  27.649  12.422
38921W        W98666  29.425   5.731  14.876
38922W        W98667   6.742  37.504  11.027
38923W        W98668  11.136  44.499  12.976
38924W        W98669  36.576  44.892  14.403
38925W        W98670  31.437   3.795  10.059
38926W        W98671  17.603  12.307   0.826
38927W        W98672   1.757  30.603   0.831
38928W        W98673  43.299  22.587   2.762
38929W        W98674  43.796  33.930   2.267
38930W        W98675  33.884  43.792   2.410
38931W        W98676   1.365  44.308   3.215
38932W        W98677  19.766   9.721   2.262
38933W        W98678  31.508  43.854   1.346
38934W        W98679  40.370   8.681   4.653
38935W        W98680  35.428   9.848  12.850
38936W        W98681  35.403  42.458  13.401
38937W        W98682   2.448  38.854   2.720
38938W        W98683  34.015  40.525  13.023
38939W        W98684   4.394  11.830  11.049
38940W        W98685  24.680  28.135  14.775
38941W        W98686   2.398  13.137   2.387
38942W        W98687  25.533  11.142  13.406
38943W        W98688  30.082  36.906  13.522
38944W        W98689  38.037  30.955   3.851
38945W        W98690  34.003  18.785   2.836
38946W        W98691  14.680  36.061  10.523
38947W        W98692  31.943  37.443   3.280
38948W        W98693  16.698  16.146  12.955
38949W        W98694   5.432  16.101   3.322
38950W        W98695  18.658   0.744   1.930
38951W        W98696  30.978   8.890  10.985
38952W        W98697  14.675  10.746   3.822
38953W        W98698  28.112  22.153  12.414
38954W        W98699   4.296  16.183   3.666
38955W        W98700   9.246  10.664   0.407
38956W        W98701  27.003  15.754  10.008
38957W        W98702  17.764   6.295  14.963
38958W        W98703  36.946  16.109  10.518
38959W        W98704  44.890  26.485   3.279
38960W        W98705   3.894   2.247   3.247
38961W        W98706  31.418   7.879   0.760
38962W        W98707  31.964  27.946   5.144
38963W        W98708   5.332   4.743  12.410
38964W        W98709   4.916  11.674  13.964
38965W        W98710  19.186  14.594   1.324
38966W        W98711  39.392   2.427  11.412
38967W        W98712  10.712  44.457   4.309
38968W        W98713  19.257  10.338   2.899
38969W        W98714  41.812  27.614   0.899
38970W        W98715  38.554  39.045   2.741
38971W        W98716  13.344  43.851   2.869
38972W        W98717  16.795   4.345  11.384
38973W        W98718  18.251  42.863  12.874
38974W        W98719  27.517  22.736   0.247
38975W        W98720   8.321  11.333  13.392
38976W        W98721  26.056  11.357   4.832
38977W        W98722   6.738  22.027  12.495
38978W        W98723  20.572  32.402   0.966
38979W        W98724  28.571   7.814   0.259
38980W        W98725  10.797  26.021   2.890
38981W        W98726  20.124   8.305  14.860
38982W        W98727  12.280  39.948  12.061
38983W        W98728  37.404  25.186   4.168
38984W        W98729   9.376   1.828   1.750
38985W        W98730   0.403   6.890  12.544
38986W        W98731   1.405   2.367   4.794
38987W        W98732  43.982  44.320   4.792
38988W        W98733   8.344  30.148   2.193
38989W        W98734  13.727   5.758  13.473
38990W        W98735  23.659  20.158  13.052
38991W        W98736   7.898  26.637  10.027
38992W        W98737   3.756  32.053   5.255
38993W        W98738  12.116  10.255  11.118
38994W        W98739  33.538  10.214   5.307
38995W        W98740  44.973  29.964   1.317
38996W        W98741  26.685  41.961   3.866
38997W        W98742  41.449   4.387  11.976
38998W        W98743  33.590  26.086   1.830
38999W        W98744   8.741   8.239   4.704
39000W        W98745  14.802  26.018  14.474
39001W        W98746  42.331  38.394   1.433
39002W        W98747  40.891  32.547  12.352
39003W        W98748   7.283  17.635   2.753
39004W        W98749  38.558   3.430  11.898
39005W        W98750  22.105  38.542   4.817
39006W        W98751  34.025  31.467  14.920
39007W        W98752  15.818  13.840  14.807
39008W        W98753  27.668  43.767   1.283
39009W        W98754  27.578  26.525   0.804
39010W        W98755  19.283  42.366   4.694
39011W        W98756   9.306  15.305   2.237
39012W        W98757  31.646   9.766  12.565
39013W        W98758  38.076  28.619   0.300
39014W        W98759  37.900  27.990   4.744
39015W        W98760   0.420  43.911   0.400
39016W        W98761  20.690  39.014   0.429
39017W        W98762  23.994  39.028  14.417
39018W        W98763  33.448  23.076   1.318
39019W        W98764  25.602   3.295  11.491
39020W        W98765  26.642   4.767   3.307
39021W        W98766  23.237  17.083  11.459
39022W        W98767  18.690  42.925   3.703
39023W        W98768   3.306  31.065  14.331
39024W        W98769  34.563  14.682  14.760
39025W        W98770  33.002  35.538   2.695
39026W        W98771   8.870  42.380  14.409
39027W        W98772  33.391  17.630   3.682
39028W        W98773  23.723  30.596  12.891
39029W        W98774  38.838  25.609  11.119
39030W        W98775  25.482  35.943   3.750
39031W        W98776  42.946  26.106  13.429
39032W        W98777  33.110  37.392   4.823
39033W        W98778  19.105   7.685   4.183
39034W        W98779  19.677  20.737   0.894
39035W        W98780  38.995  37.409  13.812
39036W        W98781  13.304  20.557  11.985
39037W        W98782   3.841  36.570  10.611
39038W        W98783  29.504  31.533   3.218
39039W        W98784   9.651   0.457   0.780
39040W        W98785   8.819  11.659  12.540
39041W        W98786  10.188   6.209  10.617
39042W        W98787  42.294  14.316   0.265
39043W        W98788   3.897  33.433   0.930
39044W        W98789  24.522  33.018   2.819
39045W        W98790   0.306  30.469   3.158
39046W        W98791  25.620  14.711   3.689
39047W        W98792  37.510  36.986  12.961
39048W        W98793   2.236   0.788   3.708
39049W        W98794  40.010  19.758  14.976
39050W        W98795  30.443  17.130  13.892
39051W        W98796  39.935   0.348  14.490
39052W        W98797  27.030  23.173   2.681
39053W        W98798  22.054   2.781   0.780
39054W        W98799   4.450  43.876  11.409
39055W        W98800  40.311  22.704   2.721
39056W        W98801  28.603  39.057  13.865
39057W        W98802  14.619  32.046  12.075
39058W        W98803  21.573  13.190  12.037
39059W        W98804  32.601  27.585   2.829
39060W        W98805  11.803  41.336  14.489
39061W        W98806  11.683  27.995  12.387
39062W        W98807  23.148  44.830   2.217
39063W        W98808  31.017   9.387   9.938
39064W        W98809  35.988   1.939   1.311
39065W        W98810  11.147   5.702  11.927
39066W        W98811  38.043  13.812  13.452
39067W        W98812  37.344  15.182  13.514
39068W        W98813   9.820  37.869   1.409
39069W        W98814  17.625  42.857   3.793
39070W        W98815  11.761  24.224  14.435
39071W        W98816  28.161  35.080  10.020
39072W        W98817  20.169  20.210   4.751
39073W        W98818  15.711  44.768  12.988
39074W        W98819  27.184  31.054   5.775
39075W        W98820  10.299  29.053   2.414
39076W        W98821  24.709  28.660   5.229
39077W        W98822  25.064   1.300   1.329
39078W        W98823   3.868  27.469  14.311
39079W        W98824  43.496  34.934  13.534
39080W        W98825  18.100  27.520  10.545
39081W        W98826  24.629  42.394  13.887
39082W        W98827  37.952  33.911   1.413
39083W        W98828  29.626  15.677  11.091
39084W        W98829  22.709   6.387  14.975
39085W        W98830   5.787  14.295  13.846
39086W        W98831  43.928  22.183  11.400
39087W        W98832  30.060   1.273  12.380
39088W        W98833  14.203  23.167   2.298
39089W        W98834  21.604  43.299  10.966
39090W        W98835   0.907  43.448   4.742
39091W        W98836  35.601  19.065  12.502
39092W        W98837  42.466  27.044   1.247
39093W        W98838  31.603   2.854   9.544
39094W        W98839  15.219  21.247  14.384
39095W        W98840  25.681  32.906   1.734
39096W        W98841  23.637  37.002  13.853
39097W        W98842  42.426   5.818  12.414
39098W        W98843  15.325  29.550  12.444
39099W        W98844  27.105  24.988  10.992
39100W        W98845  40.513  31.084  13.508
39101W        W98846  17.285  19.142  11.066
39102W        W98847   9.777   5.688   0.892
39103W        W98848  41.440  14.220   2.395
39104W        W98849  27.658  23.654  12.056
39105W        W98850  28.545  40.431   1.370
39106W        W98851  41.854  35.464   0.878
39107W        W98852  15.748  40.031  13.897
39108W        W98853  34.050  14.700  10.471
39109W        W98854  25.198   6.184   3.817
39110W        W98855  34.907  31.431   2.870
39111W        W98856  30.619  33.431  10.550
39112W        W98857  34.921  14.131   1.935
39113W        W98858   5.863  34.612  13.514
39114W        W98859   1.966  38.559  12.442
39115W        W98860  16.225  20.582   0.293
39116W        W98861  17.598  10.877   3.316
39117W        W98862  37.976  15.803  10.560
39118W        W98863   3.787  23.646  11.502
39119W        W98864   4.219   0.314  12.004
39120W        W98865   1.276  17.132  11.068
39121W        W98866  20.732   9.304  12.027
39122W        W98867  20.552   5.342   3.804
39123W        W98868  32.553   6.372   0.792
39124W        W98869  21.718  37.926   4.156
39125W        W98870  39.817  36.385   0.941
39126W        W98871  44.284  10.381   5.279
39127W        W98872  26.619  44.334   2.848
39128W        W98873  35.496  29.032   4.144
39129W        W98874  31.087  13.793   0.929
39130W        W98875  16.696   2.839  11.397
39131W        W98876  11.850  20.074  14.867
39132W        W98877   4.360  19.056   1.724
39133W        W98878  32.398  10.150   4.328
39134W        W98879  13.309  43.982   2.206
39135W        W98880  35.469  25.487  13.841
39136W        W98881   2.961  44.790  10.554
39137W        W98882  20.217  33.558  10.132
39138W        W98883  14.160  34.510  11.993
39139W        W98884   8.346  33.947  12.986
39140W        W98885  44.469   1.831   1.934
39141W        W98886  40.334  21.222   2.199
39142W        W98887  42.359  39.539   3.254
39143W        W98888  21.220   9.212   1.214
39144W        W98889  16.655  15.313   2.896
39145W        W98890  40.524  24.646   2.826
39146W        W98891  35.398  39.849  11.051
39147W        W98892   0.843  32.444   0.956
39148W        W98893  31.113  23.206  14.377
39149W        W98894  15.641  18.112  13.485
39150W        W98895   7.310  17.114  11.391
39151W        W98896  36.976   4.206  11.531
39152W        W98897  22.735  27.995  10.942
39153W        W98898  23.684  13.220   0.255
39154W        W98899  32.608  24.994  12.534
39155W        W98900  32.046  28.596  14.505
39156W        W98901  12.221  25.616  12.076
39157W        W98902  31.438   6.774   5.088
39158W        W98903  22.194  21.063   1.817
39159W        W98904  27.483  18.070  13.522
39160W        W98905   3.379  38.072   2.855
39161W        W98906  43.936  19.686   2.335
39162W        W98907  37.988   1.961   1.290
39163W        W98908  28.019  43.301   4.641
39164W        W98909  14.761   6.215   2.402
39165W        W98910   4.260   2.942   3.358
39166W        W98911   8.162  15.169   2.742
39167W        W98912  18.742  29.929   0.481
39168W        W98913  43.867  43.939  11.511
39169W        W98914  25.598  38.361  13.955
39170W        W98915   3.402  23.625   4.168
39171W        W98916  15.776  34.471  10.422
39172W        W98917   8.184  35.027  11.915
39173W        W98918   9.730  16.100   4.710
39174W        W98919   8.873  29.078   4.608
39175W        W98920   1.932  24.630   2.897
39176W        W98921  20.230  43.492  13.367
39177W        W98922  42.289  14.702   4.240
39178W        W98923  16.251  21.540   1.338
39179W        W98924  12.808   4.741   2.265
39180W        W98925  29.062  32.000   3.257
39181W        W98926  40.368   1.242  13.991
39182W        W98927   0.831  18.626   2.287
39183W        W98928   5.713  27.083   2.251
39184W        W98929   1.731   6.724   4.799
39185W        W98930  11.639   8.860   0.727
39186W        W98931  33.116  29.168  11.417
39187W        W98932  36.420  30.646   2.219
39188W        W98933   7.870   3.244  13.846
39189W        W98934  38.960  25.206   3.787
39190W        W98935  29.669  43.470   1.302
39191W        W98936   7.308   2.309  11.605
39192W        W98937  32.044  27.551  14.296
39193W        W98938  17.692  34.084   1.376
39194W        W98939  34.930  44.429   1.336
39195W        W98940  37.060   0.941   0.773
39196W        W98941  20.672   7.310   4.656
39197W        W98942   8.314   3.925   1.445
39198W        W98943  12.652  10.369  14.405
39199W        W98944  11.300   5.294   3.256
39200W        W98945   9.755  25.120   4.206
39201W        W98946  29.153   5.890   3.148
39202W        W98947  25.494   8.783  12.463
39203W        W98948  11.284  27.133  13.331
39204W        W98949   0.317   5.349  12.904
39205W        W98950  18.241  38.379  10.913
39206W        W98951  23.612  23.639   3.837
39207W        W98952  36.994  24.130   0.387
39208W        W98953  41.911  15.716   0.251
39209W        W98954  13.155  43.359   0.433
39210W        W98955  21.663  34.022  14.295
39211W        W98956  15.808  11.233  11.958
39212W        W98957  35.405  14.825   3.727
39213W        W98958   9.810  35.973  14.814
39214W        W98959   2.345  35.048   0.875
39215W        W98960  11.307   9.845  12.987
39216W        W98961  44.909  35.548   1.291
39217W        W98962  27.014   4.331   3.729
39218W        W98963  14.691  20.716   2.179
39219W        W98964   5.832  26.029   0.319
39220W        W98965  24.543  20.042   4.731
39221W        W98966   6.335  23.045   1.370
39222W        W98967  38.009   5.295   4.709
39223W        W98968  43.968  26.552  13.342
39224W        W98969  27.161  24.483  10.477
39225W        W98970  30.099  19.070   3.336
39226W        W98971  24.206  12.657   0.331
39227W        W98972  34.949  24.485   0.806
39228W        W98973  19.077  34.030   1.841
39229W        W98974  38.820  32.012  14.341
39230W        W98975  26.992  19.256  11.460
39231W        W98976  36.469   8.829   2.673
39232W        W98977  22.178   8.682   2.846
39233W        W98978  27.548  25.133   1.828
39234W        W98979  32.597   1.309   3.317
39235W        W98980  23.178  35.866   1.315
39236W        W98981  10.791  30.485  11.984
39237W        W98982  15.167  24.148   2.341
39238W        W98983  22.570  20.208  13.518
39239W        W98984  42.781  34.970   1.788
39240W        W98985  14.713  42.449  13.464
39241W        W98986  14.834  18.272   4.182
39242W        W98987  42.842  43.338   3.761
39243W        W98988  10.167  32.114  12.830
39244W        W98989  25.696  22.085   0.455
39245W        W98990  36.890  19.578  12.078
39246W        W98991  17.751  21.701   3.787
39247W        W98992  14.275  38.048  14.448
39248W        W98993  19.164  29.428  12.827
39249W        W98994  10.308  34.932   2.218
39250W        W98995  24.530  34.924  10.407
39251W        W98996  31.565  30.515  12.380
39252W        W98997  26.982  29.522  12.501
39253W        W98998  10.774  37.996   1.226
39254W        W98999  34.542   7.264   1.311
39255W        W99000  26.057  36.583   0.756
39256W        W99001  36.497  41.812  13.468
39257W        W99002   8.175   6.412   0.251
39258W        W99003  22.090  32.902  12.913
39259W        W99004  36.040  25.045  13.404
39260W        W99005  19.064  32.412   1.921
39261W        W99006  28.998  29.110   0.358
39262W        W99007  33.473  12.218  12.501
39263W        W99008  28.963  17.661  13.843
39264W        W99009  13.711   7.194  13.354
39265W        W99010  26.187  30.093  12.417
39266W        W99011  40.015  29.495  10.925
39267W        W99012   5.904  12.290  10.954
39268W        W99013  41.378   1.458   2.812
39269W        W99014   3.332  37.529   5.622
39270W        W99015  17.576  41.300   4.676
39271W        W99016   1.367  31.644   0.305
39272W        W99017  19.765  40.806  13.499
39273W        W99018  43.995  29.651   3.690
39274W        W99019  24.148  25.133  10.431
39275W        W99020  19.627   2.386   2.274
39276W        W99021  16.675   3.888  14.433
39277W        W99022   0.290  31.546  12.375
39278W        W99023  23.657   6.902  14.371
39279W        W99024   6.249  11.193   2.340
39280W        W99025   5.895  20.093  11.373
39281W        W99026  30.435  34.382   4.189
39282W        W99027  32.944  20.079   3.212
39283W        W99028   3.342  32.490   0.428
39284W        W99029  10.637  41.886  11.015
39285W        W99030  16.715  42.282  13.932
39286W        W99031  23.650  35.869   3.278
39287W        W99032  37.371  12.325  12.869
39288W        W99033   6.817   5.732   1.427
39289W        W99034  17.558  12.221   3.380
39290W        W99035   8.213  40.044  11.969
39291W        W99036  27.655  18.140  12.454
39292W        W99037   0.885  30.653   2.285
39293W        W99038  25.071  41.828   0.876
39294W        W99039  12.297  29.484   2.861
39295W        W99040  14.145  18.598   0.878
39296W        W99041  11.232  21.135   4.713
39297W        W99042  17.754  36.477   4.622
39298W        W99043  16.286  40.026  12.084
39299W        W99044  34.976  17.622  12.958
39300W        W99045  27.981  38.862   1.875
39301W        W99046   1.388  35.924   0.440
39302W        W99047  19.705  14.820  14.951
39303W        W99048  14.240  13.181  14.429
39304W        W99049  40.493   6.855  11.406
39305W        W99050  18.674  37.416  13.495
39306W        W99051  15.187   7.284  13.025
39307W        W99052  10.848  34.995   9.960
39308W        W99053  32.954  18.064  14.820
39309W        W99054   8.689  32.928  14.769
39310W        W99055  19.176  25.112   2.254
39311W        W99056   1.285  34.865  13.944
39312W        W99057  11.264  26.578   0.887
39313W        W99058  37.344  15.197  12.424
39314W        W99059  39.492  19.070   1.839
39315W        W99060  21.590   8.698   4.184
39316W        W99061   3.794  33.543  14.924
39317W        W99062   8.881  11.804   0.483
39318W        W99063   5.720  26.081  14.780
39319W        W99064  35.464  27.530   4.808
39320W        W99065  40.332  35.594   4.644
39321W        W99066  15.792  11.648   3.301
39322W        W99067  13.620  41.907  13.002
39323W        W99068  34.903  13.608  14.831
39324W        W99069   1.952  19.069  11.966
39325W        W99070   6.336  28.071  11.594
39326W        W99071  18.765  34.610  14.387
39327W        W99072  20.764  25.017   1.783
39328W        W99073  19.262  43.929  14.275
39329W        W99074  38.829  23.147  12.957
39330W        W99075  12.692   7.406  13.823
39331W        W99076  13.800  15.161   0.295
39332W        W99077  29.000  23.105   2.350
39333W        W99078   4.713   4.722   1.434
39334W        W99079  28.106   4.380   1.935
39335W        W99080  20.713   0.911  12.912
39336W        W99081  36.864  32.571  11.455
39337W        W99082  44.293  34.099   0.307
39338W        W99083  32.128  38.506  12.505
39339W        W99084  32.469  13.842   4.740
39340W        W99085  23.541  33.095  12.488
39341W        W99086  40.441  42.868  14.848
39342W        W99087  10.169  26.039   1.853
39343W        W99088   5.377  24.132   0.963
39344W        W99089  27.686  19.664  12.083
39345W        W99090  36.404  27.519   4.770
39346W        W99091   4.765   2.453  10.534
39347W        W99092  19.754   4.346  13.950
39348W        W99093   2.412  10.176   3.265
39349W        W99094   7.846  34.613   1.884
39350W        W99095  39.065   2.449   3.786
39351W        W99096  26.160  30.634   0.882
39352W        W99097  33.024  11.351   2.375
39353W        W99098   9.845   9.800  11.080
39354W        W99099   2.736  39.040   1.902
39355W        W99100  23.152  15.098  11.373
39356W        W99101  31.587   4.406  11.961
39357W        W99102  28.511  11.224  11.503
39358W        W99103  36.482  13.244  14.398
39359W        W99104  42.836  23.190  14.836
39360W        W99105  26.104  23.178   4.771
39361W        W99106  14.729  31.068  12.889
39362W        W99107  11.638  33.550   3.278
39363W        W99108  32.597  36.903   2.252
39364W        W99109  18.680  10.644  14.319
39365W        W99110  22.694  33.104  13.024
39366W        W99111  23.685   2.918   5.172
39367W        W99112  25.467   5.421   2.769
39368W        W99113   4.715  11.772   0.744
39369W        W99114  18.692  21.703  13.810
39370W        W99115  39.875  15.323   4.332
39371W        W99116   9.191  11.149   1.748
39372W        W99117   7.796  20.747  12.852
39373W        W99118  34.909   6.855  12.879
39374W        W99119  35.517   1.280  12.964
39375W        W99120  34.518  24.223   3.195
39376W        W99121  13.776  26.531   1.862
39377W        W99122  15.309  33.016  10.019
39378W        W99123  37.862  12.759  12.883
39379W        W99124  25.142   9.684  14.281
39380W        W99125  24.674   7.268   0.282
39381W        W99126  44.887   9.706   1.801
39382W        W99127  44.938  43.910  11.538
39383W        W99128   5.208  34.429   4.801
39384W        W99129  43.293  31.085   3.336
39385W        W99130  28.152  34.380  13.508
39386W        W99131   7.705  11.138   1.901
39387W        W99132  38.537  16.148   1.868
39388W        W99133   4.781   3.715  14.380
39389W        W99134  32.556  36.499   4.683
39390W        W99135   2.739  39.968   0.397
39391W        W99136  30.522  23.994  11.481
39392W        W99137  18.653  18.107   0.364
39393W        W99138  32.551  32.528   1.420
39394W        W99139  38.453  25.206  13.009
39395W        W99140   2.852  18.632  14.316
39396W        W99141  32.563  34.989  10.585
39397W        W99142  32.457  37.345   2.762
39398W        W99143   7.752   3.376   3.718
39399W        W99144  15.114  44.307  13.387
39400W        W99145   0.944  21.647  14.949
39401W        W99146  34.575  14.710  11.542
39402W        W99147  20.142  26.002   0.400
39403W        W99148  20.697  30.530   0.866
39404W        W99149  15.692  34.891  11.539
39405W        W99150  11.735   2.426   0.363
39406W        W99151   6.252  27.184   3.209
39407W        W99152  24.063  12.287   4.831
39408W        W99153  12.127  41.440  11.463
39409W        W99154  44.833  42.389  13.393
39410W        W99155  13.135   2.369  12.514
39411W        W99156  35.095  29.025   2.277
39412W        W99157  16.608  32.127   3.839
39413W        W99158  16.134  34.913  14.998
39414W        W99159  26.638   0.484   2.685
39415W        W99160   9.847  13.318   1.436
39416W        W99161  12.708  27.644  14.927
39417W        W99162   8.765  10.336   3.727
39418W        W99163  11.185  31.578   2.760
39419W        W99164  31.090   9.852   3.809
39420W        W99165  27.171  38.426  11.022
39421W        W99166   4.204   0.360  12.411
39422W        W99167  10.182  35.396   2.889
39423W        W99168  17.173  20.672   3.725
39424W        W99169  10.335  40.318   3.279
39425W        W99170  25.573  41.466   2.233
39426W        W99171   3.826   8.763  13.501
39427W        W99172  32.982  13.844   1.432
39428W        W99173  19.147  19.711  13.531
39429W        W99174  27.073   3.881   3.753
39430W        W99175  25.025  13.107  10.103
39431W        W99176   3.400  28.091   3.234
39432W        W99177  42.505   1.908  13.357
39433W        W99178  20.535  17.095   2.344
39434W        W99179  26.047  32.957  11.077
39435W        W99180  14.274  10.703  12.373
39436W        W99181  22.534  23.627  14.902
39437W        W99182  30.085   1.733   4.177
39438W        W99183   3.876  39.889  14.325
39439W        W99184  39.004   6.922  14.482
39440W        W99185  26.147  11.296   0.462
39441W        W99186  41.969   3.805   3.651
39442W        W99187  32.062  34.012  13.500
39443W        W99188  34.116  33.603  14.814
39444W        W99189  31.973  26.598  13.535
39445W        W99190  31.037  30.567   1.841
39446W        W99191  30.419  29.590   3.284
39447W        W99192  24.138  35.569  13.968
39448W        W99193   2.798  11.205  10.479
39449W        W99194   5.210  42.926   0.874
39450W        W99195  21.156  39.017   1.719
39451W        W99196  29.922  44.827  14.509
39452W        W99197  11.187  29.008  12.547
39453W        W99198  14.595   5.306   1.416
39454W        W99199  37.862  33.019   3.195
39455W        W99200  28.663  28.572  13.424
39456W        W99201  25.573  11.348   0.794
39457W        W99202  36.870   8.679   3.779
39458W        W99203   0.373  17.088  13.427
39459W        W99204  35.080  42.351  10.927
39460W        W99205   4.816  18.174   1.251
39461W        W99206  34.898  20.650   2.806
39462W        W99207  13.723  10.305   4.703
39463W        W99208  41.014  12.127   3.744
39464W        W99209  28.945  31.640   3.191
39465W        W99210  36.946  13.266   2.893
39466W        W99211  38.958   4.764   1.868
39467W        W99212  22.110  32.503   0.915
39468W        W99213  35.519   6.289  10.984
39469W        W99214  43.289  15.317   1.303
39470W        W99215  43.509  14.753  13.054
39471W        W99216  20.116  12.173   2.369
39472W        W99217  27.629  41.957   3.269
39473W        W99218  25.149  31.974   3.766
39474W        W99219  23.706  15.596   1.284
39475W        W99220  27.669  13.817   2.263
39476W        W99221  13.771   8.729   3.641
39477W        W99222  23.142   8.809   0.290
39478W        W99223  40.034   9.315  12.352
39479W        W99224  38.503  13.718  11.424
39480W        W99225  16.800  36.545   3.862
39481W        W99226  18.225  26.556  13.324
39482W        W99227   5.226  30.129  13.843
39483W        W99228  41.309  18.289  14.415
39484W        W99229  21.110  24.622   3.331
39485W        W99230  22.734   8.256   1.405
39486W        W99231  13.830  39.315  10.917
39487W        W99232  18.257  13.792  12.952
39488W        W99233  10.164  44.934   3.687
39489W        W99234  10.217  30.459   0.833
39490W        W99235   3.279  21.148   1.789
39491W        W99236  24.181  39.906  10.423
39492W        W99237   3.271  39.418  14.949
39493W        W99238  29.611  14.778   1.434
39494W        W99239  16.231  44.898   2.863
39495W        W99240  19.573  41.370  14.802
39496W        W99241  34.000  26.066  10.942
39497W        W99242  30.043   5.197   4.787
39498W        W99243  30.045  27.974   2.183
39499W        W99244  11.146   1.263  10.908
39500W        W99245  21.594  24.559  14.836
39501W        W99246  42.354  27.571   2.805
39502W        W99247  23.634   6.808   0.245
39503W        W99248   3.406  42.344   1.894
39504W        W99249  30.926  33.568   2.293
39505W        W99250  23.160  25.097  12.550
39506W        W99251  18.208   8.401   2.381
39507W        W99252  40.469  23.209   2.407
39508W        W99253   7.741  40.973   0.797
39509W        W99254  20.101  42.844   0.777
39510W        W99255  40.404   6.681   4.643
39511W        W99256   2.307  25.641  14.379
39512W        W99257   9.850   1.806  13.925
39513W        W99258  13.826  42.381   3.227
39514W        W99259  33.493  11.131   4.310
39515W        W99260  34.461  20.137   1.212
39516W        W99261  44.950  12.199   0.373
39517W        W99262  35.544  34.953   1.722
39518W        W99263  20.067  38.837   0.399
39519W        W99264  29.492  10.823   1.235
39520W        W99265  22.022  43.884   1.451
39521W        W99266   4.297  39.889  13.013
39522W        W99267  19.759  23.709   0.815
39523W        W99268  17.154  26.148   4.774
39524W        W99269  33.946  23.008   1.273
39525W        W99270  21.181  35.062   3.810
39526W        W99271   8.680  12.353  10.986
39527W        W99272  22.120  12.343  14.891
39528W        W99273   9.744  15.134   2.207
39529W        W99274   3.374   6.685  12.093
39530W        W99275  29.059  13.666  10.475
39531W        W99276   3.881  40.946  14.394
39532W        W99277  27.515  26.973   3.709
39533W        W99278   4.699  42.398   0.373
39534W        W99279   8.274  25.624  13.927
39535W        W99280  20.061   0.420  11.381
39536W        W99281  17.152   0.947  13.887
39537W        W99282   2.227   0.980  12.529
39538W        W99283   4.349   0.839   3.640
39539W        W99284  29.649   8.696   3.358
39540W        W99285  34.428  18.212   0.736
39541W        W99286  25.652  10.325  10.537
39542W        W99287  43.371  39.519   1.747
39543W        W99288  12.121  23.531  11.927
39544W        W99289  41.423  30.948  11.545
39545W        W99290  39.435  10.770  14.505
39546W        W99291   5.809   3.351   0.457
39547W        W99292  14.228  34.538  14.438
39548W        W99293  34.552  44.824  11.378
39549W        W99294  33.103   1.286  13.484
39550W        W99295  17.121  44.302  13.968
39551W        W99296   5.401   0.951  12.366
39552W        W99297  23.519  32.127  11.473
39553W        W99298   9.358  33.898  12.065
39554W        W99299  12.203   9.148   3.779
39555W        W99300  24.016  37.431  13.387
39556W        W99301  33.501  20.146   5.618
39557W        W99302  18.187   1.238   9.522
39558W        W99303  16.131   6.755   2.307
39559W        W99304   0.290   9.690   2.726
39560W        W99305  17.753  14.176   3.761
39561W        W99306  38.905  16.742  12.533
39562W        W99307  17.624  23.625   3.281
39563W        W99308   3.874  21.691  12.913
39564W        W99309  20.720  15.170   4.290
39565W        W99310  28.590  10.725  10.924
39566W        W99311  27.194  11.867  12.992
39567W        W99312  14.248  16.764  14.900
39568W        W99313  27.509   8.817  12.462
39569W        W99314   2.853  39.535  11.037
39570W        W99315  17.242  40.914   2.766
39571W        W99316  33.573  35.103   2.399
39572W        W99317  35.885  23.601  12.374
39573W        W99318  23.031   5.339   1.875
39574W        W99319  34.068  40.975  11.030
39575W        W99320  25.968  28.573   4.703
39576W        W99321  34.497  39.893  14.942
39577W        W99322  27.600  27.182   4.312
39578W        W99323  14.729  43.282  12.397
39579W        W99324  31.142  28.029  13.974
39580W        W99325  16.144  44.318  11.456
39581W        W99326  44.958  25.626   4.614
39582W        W99327  26.004  36.944  13.373
39583W        W99328  28.071  44.758  13.943
39584W        W99329  25.642  20.730  12.355
39585W        W99330   9.225  10.857   4.808
39586W        W99331   9.829  12.799  13.465
39587W        W99332  11.312  23.987   4.682
39588W        W99333  39.934  39.045  14.338
39589W        W99334  19.549  12.627  13.473
39590W        W99335  42.018  17.074   5.225
39591W        W99336  42.888  14.772   3.788
39592W        W99337   7.194  17.767   4.766
39593W        W99338  29.118  38.053   2.317
39594W        W99339  17.695  11.369   1.357
39595W        W99340  19.102   1.922  12.027
39596W        W99341   9.660  20.148  10.551
39597W        W99342  39.009  44.437  14.817
39598W        W99343  39.478  30.614  11.412
39599W        W99344  23.168  40.907  14.341
39600W        W99345  13.250  19.075   3.311
39601W        W99346   8.729  43.868  14.959
39602W        W99347  22.995  28.544  12.440
39603W        W99348  17.785   9.700  12.559
39604W        W99349   2.956  10.231   9.937
39605W        W99350  18.778  28.047   3.303
39606W        W99351  39.857  42.507  13.366
39607W        W99352   4.205  26.551  12.035
39608W        W99353   8.359   9.842   3.374
39609W        W99354   8.345  29.120  12.952
39610W        W99355  44.387  10.665  12.525
39611W        W99356  35.381  20.608  13.373
39612W        W99357  41.951  28.511   3.284
39613W        W99358  26.959   8.898   4.823
39614W        W99359  40.440  20.237  13.400
39615W        W99360  37.877  11.634   3.846
39616W        W99361   7.314   4.364  14.350
39617W        W99362  12.762  11.279   2.224
39618W        W99363   4.876  19.149   1.378
39619W        W99364  33.446   0.953  14.419
39620W        W99365  27.036  39.343   2.277
39621W        W99366  13.731  16.129  11.124
39622W        W99367   7.371  31.478   2.374
39623W        W99368  18.207   9.269   0.245
39624W        W99369  10.875   4.262   2.751
39625W        W99370  20.127  39.910   2.291
39626W        W99371  30.027  27.977  13.943
39627W        W99372  41.000  41.386   0.896
39628W        W99373  43.425  24.484   2.873
39629W        W99374  14.761  18.657   4.152
39630W        W99375  39.480   9.790  11.589
39631W        W99376  36.920   5.853  10.580
39632W        W99377   1.965  25.476  13.980
39633W        W99378  17.250  35.939  13.480
39634W        W99379  39.459  19.114   3.846
39635W        W99380   0.412   4.762   4.234
39636W        W99381   1.925  10.777   3.180
39637W        W99382  27.983  31.446   1.931
39638W        W99383   2.937  21.578   1.758
39639W        W99384  25.189  40.904   1.447
39640W        W99385  10.302  44.433   0.414
39641W        W99386  21.666  41.033   4.328
39642W        W99387  32.475  23.092  13.375
39643W        W99388  24.698  32.121   2.902
39644W        W99389  17.712  14.223  14.930
39645W        W99390  21.545  43.822  12.960
39646W        W99391  40.842  15.325   4.339
39647W        W99392  35.539  35.967  10.570
39648W        W99393   7.861  33.571  11.440
39649W        W99394  20.603  29.637   2.874
39650W        W99395  28.945  18.140   4.819
39651W        W99396  12.291   8.818  13.949
39652W        W99397  20.126  14.287  14.019
39653W        W99398  13.614   4.408  11.424
39654W        W99399  25.000  43.908   1.221
39655W        W99400  36.468  33.952   1.418
39656W        W99401  28.059  29.528  10.087
39657W        W99402  38.529  15.282   3.297
39658W        W99403   0.435   1.785   1.713
39659W        W99404  41.002  27.994   3.198
39660W        W99405  41.974  11.263   0.441
39661W        W99406  17.598   8.406   4.700
39662W        W99407  26.082  33.520  13.060
39663W        W99408   3.919  33.908   1.330
39664W        W99409  12.157  23.724  14.990
39665W        W99410   6.676   9.278  14.281
39666W        W99411   4.888  28.545   1.886
39667W        W99412  36.997  12.807  13.513
39668W        W99413   5.813  29.940   3.292
39669W        W99414  10.328  22.137  10.053
39670W        W99415  12.849   2.729  11.593
39671W        W99416   5.219  17.080   1.221
39672W        W99417   7.255  16.685   0.962
39673W        W99418   0.464  10.234   5.081
39674W        W99419  19.249  36.524   2.411
39675W        W99420  17.626   5.898  11.954
39676W        W99421  10.646  15.679  12.987
39677W        W99422  21.707  27.035   2.756
39678W        W99423  27.590  28.116   3.327
39679W        W99424  33.615  18.626  12.087
39680W        W99425   9.149   0.477  12.499
39681W        W99426  27.532  36.056   4.830
39682W        W99427  26.189  40.806   1.445
39683W        W99428  35.947  12.216  13.914
39684W        W99429  27.095  14.137   1.738
39685W        W99430  43.794  11.213   4.642
39686W        W99431  14.320  25.661   3.333
39687W        W99432  28.540  42.467   3.344
39688W        W99433  39.314  22.019   2.883
39689W        W99434   3.909   3.385   4.609
39690W        W99435  33.603  24.155   1.327
39691W        W99436  23.526  17.204  10.580
39692W        W99437   8.663  41.966  12.560
39693W        W99438  41.912  29.948  13.488
39694W        W99439  23.020  14.653   0.883
39695W        W99440  20.751  34.420  10.066
39696W        W99441  40.450  39.462  11.033
39697W        W99442  27.174  34.096   5.631
39698W        W99443  18.778  23.178   0.838
39699W        W99444   9.647  32.489   4.150
39700W        W99445  28.475  18.181  13.510
39701W        W99446  36.548   5.403  13.355
39702W        W99447  42.877  38.420   1.698
39703W        W99448  31.483   6.233   3.283
39704W        W99449  32.016  44.428   2.883
39705W        W99450  14.673  15.198  10.409
39706W        W99451   0.365  33.600   0.460
39707W        W99452  26.671  23.046   3.147
39708W        W99453   6.871   1.434  13.483
39709W        W99454  41.957  25.219   4.800
39710W        W99455   1.319   2.235   1.326
39711W        W99456  33.970  32.043  13.330
39712W        W99457  24.512   3.898  13.428
39713W        W99458  14.315  38.845  13.353
39714W        W99459  40.994  21.712  14.873
39715W        W99460   6.751   7.234  11.059
39716W        W99461  30.032  24.637  13.486
39717W        W99462  10.868   8.774   3.807
39718W        W99463  11.258  13.770  14.929
39719W        W99464  41.830  32.035   4.262
39720W        W99465  30.576   8.771   4.253
39721W        W99466  23.569   7.376   0.828
39722W        W99467  13.660  41.871  14.785
39723W        W99468  30.628   3.435  13.546
39724W        W99469   5.931  15.160  13.050
39725W        W99470  23.993  44.402  12.936
39726W        W99471  11.338  34.506   3.809
39727W        W99472   0.957   6.418   1.902
39728W        W99473  24.497  26.973   4.174
39729W        W99474  24.111  32.040  13.443
39730W        W99475  32.494   9.394  11.985
39731W        W99476  39.514   1.408  10.483
39732W        W99477  23.580   3.949  13.879
39733W        W99478  23.169  38.567  11.058
39734W        W99479  24.163  37.027   0.833
39735W        W99480  20.621  33.389   3.358
39736W        W99481   9.392  19.231   4.148
39737W        W99482  15.301  21.148   0.965
39738W        W99483  13.316  31.050  11.455
39739W        W99484  20.092  33.115   5.655
39740W        W99485   4.244   9.807   3.851
39741W        W99486  38.493  40.892   1.421
39742W        W99487  43.425  32.084   3.209
39743W        W99488  38.531  20.085  14.298
39744W        W99489  24.100   1.444   4.127
39745W        W99490   9.812   8.404  11.942
39746W        W99491  39.518  30.041  12.537
39747W        W99492  28.473  44.340  11.078
39748W        W99493  39.336  24.053   0.259
39749W        W99494  15.169  32.902   0.260
39750W        W99495  41.516  15.197  11.916
39751W        W99496   2.295  28.156   1.710
39752W        W99497   7.285  21.640   0.296
39753W        W99498  13.602   9.721   1.797
39754W        W99499   1.327  11.314  14.343
39755W        W99500  26.152  14.140   3.273
39756W        W99501  10.290  20.688   4.198
39757W        W99502  20.697  27.185   0.468
39758W        W99503  33.033  22.740  13.851
39759W        W99504  37.516  39.831  13.009
39760W        W99505  28.047  18.143  13.815
39761W        W99506   9.293  35.567   1.760
39762W        W99507  40.999  27.998  14.870
39763W        W99508  31.928  23.675  12.926
39764W        W99509  31.472  24.113   1.840
39765W        W99510  32.094  43.286   3.180
39766W        W99511  14.110  13.194  10.596
39767W        W99512  32.038  26.030   3.816
39768W        W99513  16.732  24.076   1.896
39769W        W99514   1.286  42.855  12.390
39770W        W99515  16.743  36.021   1.858
39771W        W99516  29.990  34.088   1.307
39772W        W99517   3.864  15.685   4.620
39773W        W99518  10.184  42.316   2.730
39774W        W99519  18.115  41.384  10.509
39775W        W99520  43.512  15.818  12.490
39776W        W99521  15.163  36.450   2.724
39777W        W99522   1.264   5.294   3.178
39778W        W99523  42.479  22.638  11.564
39779W        W99524  29.046   5.834   3.866
39780W        W99525  37.550   5.416   1.322
39781W        W99526  39.861  28.530   3.692
39782W        W99527  25.574   2.792  13.850
39783W        W99528  40.328  30.486   4.195
39784W        W99529  19.600  32.989   3.749
39785W        W99530  28.578   7.833  14.957
39786W        W99531  22.236  36.066   4.228
39787W        W99532  33.105  13.622   4.235
39788W        W99533  36.018   5.824  13.047
39789W        W99534  42.880  15.244   4.765
39790W        W99535  33.095  40.876  11.610
39791W        W99536  35.916  41.494   0.887
39792W        W99537  36.517  34.012  14.866
39793W        W99538   4.243  19.705  11.075
39794W        W99539  30.044  11.218   0.311
39795W        W99540  33.521  10.140  11.033
39796W        W99541  12.746  17.774  11.420
39797W        W99542  22.177  20.551  13.961
39798W        W99543   4.245  11.854   2.370
39799W        W99544  15.204  11.776   4.661
39800W        W99545  24.172  11.650   2.190
39801W        W99546  26.520  32.477  10.488
39802W        W99547  38.981  10.330  12.031
39803W        W99548  20.541  39.976   3.840
39804W        W99549  30.046  42.452   2.287
39805W        W99550  34.918  22.173  12.423
39806W        W99551  35.991  24.064  11.868
39807W        W99552  22.576  30.909  13.854
39808W        W99553  18.606  16.271  12.902
39809W        W99554  21.590   2.862   2.733
39810W        W99555  38.922  25.546   4.648
39811W        W99556  41.871  43.417  13.525
39812W        W99557  30.936  27.168  12.573
39813W        W99558  41.008  34.868   0.404
39814W        W99559  25.201   4.427  10.925
39815W        W99560   5.792  35.500   0.758
39816W        W99561  17.196  28.036  12.838
39817W        W99562  28.631   7.306   3.358
39818W        W99563   5.900  30.524  14.479
39819W        W99564  27.015   9.250   0.815
39820W        W99565   5.870   4.417   1.729
39821W        W99566   0.427  25.483  11.992
39822W        W99567  25.177  21.734  11.502
39823W        W99568  42.298  12.162  12.507
39824W        W99569  16.696  27.588   2.312
39825W        W99570  36.561  41.367  14.803
39826W        W99571  21.700  41.412  14.775
39827W        W99572  18.082  17.641   1.393
39828W        W99573  12.842  24.514  13.876
39829W        W99574   2.403  19.144  12.432
39830W        W99575  27.014  43.295  10.936
39831W        W99576  18.626  16.119   0.274
39832W        W99577  16.783   0.925  10.897
39833W        W99578  34.470  42.465   2.762
39834W        W99579  39.504  14.137  10.486
39835W        W99580  17.611  42.858   2.794
39836W        W99581  37.480  40.016  11.475
39837W        W99582  16.256  19.669   2.662
39838W        W99583  14.689  24.674   1.332
39839W        W99584  19.647  38.887  14.828
39840W        W99585  20.159  32.129   4.122
39841W        W99586  36.591   3.779   4.129
39842W        W99587  24.656  31.593  12.453
39843W        W99588  28.089  18.739   0.738
39844W        W99589  27.523   6.792  10.499
39845W        W99590  28.470  34.527   2.820
39846W        W99591  35.025  40.984  11.921
39847W        W99592   3.839  38.979   2.766
39848W        W99593  12.161   0.298  13.446
39849W        W99594  23.128   4.423   3.293
39850W        W99595  17.690  24.708  14.870
39851W        W99596  35.065   3.809  11.501
39852W        W99597  42.408   3.933  12.956
39853W        W99598  28.469  34.026   2.401
39854W        W99599  28.436  43.992  12.559
39855W        W99600  31.974  27.631   1.423
39856W        W99601   0.926   6.837  12.570
39857W        W99602  38.474  37.989   0.464
39858W        W99603  10.246  24.130   1.889
39859W        W99604  40.516  24.050   3.220
39860W        W99605  37.430  22.664  13.311
39861W        W99606  32.501  16.678  12.510
39862W        W99607  38.018  28.505   3.718
39863W        W99608  15.189  11.353  14.964
39864W        W99609  10.364  29.167  13.950
39865W        W99610  36.897  27.681   3.350
39866W        W99611  14.103  23.664  13.396
39867W        W99612  31.511  38.836  12.367
39868W        W99613  39.519  15.629  14.896
39869W        W99614  12.251  17.232   2.410
39870W        W99615  38.516   8.191   4.821
39871W        W99616   7.320  31.636   0.766
39872W        W99617  21.137  32.926   3.172
39873W        W99618  11.262  31.094  10.500
39874W        W99619  27.029   2.927   1.733
39875W        W99620  35.083   4.361  10.617
39876W        W99621  30.551  15.728   0.888
39877W        W99622  11.631   8.254  13.335
39878W        W99623  19.668  24.986  13.520
39879W        W99624  18.635  29.143   1.347
39880W        W99625  28.184  29.482  14.477
39881W        W99626  27.959  24.518   4.709
39882W        W99627  12.691  27.456  13.881
39883W        W99628  35.018  17.665   0.314
39884W        W99629  20.245   8.872   4.277
39885W        W99630  37.581   5.860   0.415
39886W        W99631  40.007  40.527  11.375
39887W        W99632  26.573  27.583   0.784
39888W        W99633  21.085  38.552  14.931
39889W        W99634  33.542  36.064  10.572
39890W        W99635  21.513  28.992   1.932
39891W        W99636  37.360  14.830   2.680
39892W        W99637  31.125  33.603   1.350
39893W        W99638  13.834  25.480   2.854
39894W        W99639  20.686  39.836   4.116
39895W        W99640  12.672  27.021   2.745
39896W        W99641   5.311  13.712   0.951
39897W        W99642   0.988  42.307   4.697
39898W        W99643  40.523  39.929   9.979
39899W        W99644  12.715  33.955  13.874
39900W        W99645   4.831   3.713  12.977
39901W        W99646   6.739  18.205   2.271
39902W        W99647  18.189  33.028   4.822
39903W        W99648  11.353  26.698   4.214
39904W        W99649   8.894   2.267   5.130
39905W        W99650  34.388  16.584   4.242
39906W        W99651  20.202  36.894   0.729
39907W        W99652  17.114   6.411   0.811
39908W        W99653  12.125  42.283  13.386
39909W        W99654  27.976   9.867  11.600
39910W        W99655  38.554  42.342   1.888
39911W        W99656  17.298  16.241   4.328
39912W        W99657  27.162   3.303   2.371
39913W        W99658  18.787  35.047   0.253
39914W        W99659  20.662  30.110  12.558
39915W        W99660  21.531   5.829   4.318
39916W        W99661  44.826   6.867   0.842
39917W        W99662  13.134  40.055   1.727
39918W        W99663  16.148   3.355  11.948
39919W        W99664  26.613   6.748  13.960
39920W        W99665  17.208  33.027   3.852
39921W        W99666   7.189  12.670   4.803
39922W        W99667  19.224  29.494   3.295
39923W        W99668  27.491  37.367   4.139
39924W        W99669   4.406  31.083   4.784
39925W        W99670  25.209  13.249  13.390
39926W        W99671  14.699  24.199   3.631
39927W        W99672   6.809  20.225   2.362
39928W        W99673   4.443  14.318   3.219
39929W        W99674  37.425  19.693  13.888
39930W        W99675  41.895  33.491  14.486
39931W        W99676   2.455  19.214  10.459
39932W        W99677   2.728  37.914   0.935
39933W        W99678  29.035  28.436   5.125
39934W        W99679  23.540  34.570   1.863
39935W        W99680  32.143  15.655   2.861
39936W        W99681  34.924  41.019  11.092
39937W        W99682  32.565  39.873   2.849
39938W        W99683  30.139  37.469  10.496
39939W        W99684  44.887   4.736   3.838
39940W        W99685  17.203  42.806  12.456
39941W        W99686  42.842   2.416   4.662
39942W        W99687  43.497  29.435  14.980
39943W        W99688  37.569  12.309  14.927
39944W        W99689   0.303   6.346  11.874
39945W        W99690  16.727  38.957  13.934
39946W        W99691  13.241  18.684   3.337
39947W        W99692   5.746   3.219   5.170
39948W        W99693   7.905  23.624   0.961
39949W        W99694  42.427  18.606  10.462
39950W        W99695  37.567  31.516   2.194
39951W        W99696  39.999  42.928   0.837
39952W        W99697  34.038  17.740   1.895
39953W        W99698  36.581   2.344   3.198
39954W        W99699  30.442  10.275   3.842
39955W        W99700  13.769  17.101   4.617
39956W        W99701  15.746   9.245   2.841
39957W        W99702  33.509  17.208   1.337
39958W        W99703  13.615   4.786  10.142
39959W        W99704   5.835  28.026  14.512
39960W        W99705  29.645   8.340  12.046
39961W        W99706  31.461  35.952  13.445
39962W        W99707  42.847   9.711   1.399
39963W        W99708  10.198   5.771   2.704
39964W        W99709   3.801  11.132   3.276
39965W        W99710  29.926   6.689   2.301
39966W        W99711  23.542   6.329   3.630
39967W        W99712   3.410  37.973   5.588
39968W        W99713  11.317  41.439  13.877
39969W        W99714  18.608  37.391   0.459
39970W        W99715  22.648  24.163  11.879
39971W        W99716   8.759   2.460  14.359
39972W        W99717  30.125  44.373  12.531
39973W        W99718   4.369  34.516   0.403
39974W        W99719  10.695  26.157   4.768
39975W        W99720  30.607   6.200  13.821
39976W        W99721   0.829  16.252  10.611
39977W        W99722  15.213  43.492   0.939
39978W        W99723  28.579   3.917   2.354
39979W        W99724   1.349   3.359   0.757
39980W        W99725   9.308   7.271  12.085
39981W        W99726  31.634   6.346  13.874
39982W        W99727  39.386   1.432   3.282
39983W        W99728  12.270  26.146   0.317
39984W        W99729   1.269  23.673   2.747
39985W        W99730  28.084   0.349  11.536
39986W        W99731  16.158  29.624  13.973
39987W        W99732  35.515  35.931  11.559
39988W        W99733  25.186  22.099   4.737
39989W        W99734  14.765  16.794  13.988
39990W        W99735  18.261  36.082  12.827
39991W        W99736  27.143  43.992   3.244
39992W        W99737  34.482  30.426   3.176
39993W        W99738  38.415  30.915  11.075
39994W        W99739  31.475  23.490  13.866
39995W        W99740  22.577  35.360  12.438
39996W        W99741   1.449   3.268   4.298
39997W        W99742  35.023   9.889   1.239
39998W        W99743   7.319  34.119  12.897
39999W        W99744  28.539  44.485   0.453
40000W        W99745  36.352   4.287   0.384
40001W        W99746  26.127  24.554   0.893
40002W        W99747  39.839  10.809   3.169
40003W        W99748  26.664  41.396   0.312
40004W        W99749  29.927  20.041   2.769
40005W        W99750  12.646   7.383  14.927
40006W        W99751  31.087   8.198   3.344
40007W        W99752  25.652  23.000  11.007
40008W        W99753  12.832  44.758   2.725
40009W        W99754  41.799  15.291   1.935
40010W        W99755  12.238  12.807  10.974
40011W        W99756  44.959  34.955  13.978
40012W        W99757  29.112  13.844   2.321
40013W        W99758  40.046  11.825  11.501
40014W        W99759  20.675  20.557   3.830
40015W        W99760   3.849  28.666  13.409
40016W        W99761  22.177  37.007   3.717
40017W        W99762  31.477  28.059   3.856
40018W        W99763  23.627  32.403  11.435
40019W        W99764  11.757  43.911   3.840
40020W        W99765  22.207  30.929  14.343
40021W        W99766   0.875   8.901   2.793
40022W        W99767  23.113  19.063   3.271
40023W        W99768  37.561  23.076   1.863
40024W        W99769  10.348  44.980  10.461
40025W        W99770  31.028  26.554   1.872
40026W        W99771  22.158  27.597  12.035
40027W        W99772   1.378  11.338  13.435
40028W        W99773   6.366  13.722  11.395
40029W        W99774   8.359   2.442  13.511
40030W        W99775  10.245  10.675  12.967
40031W        W99776  22.045  20.239   2.765
40032W        W99777   3.438  27.454   4.267
40033W        W99778  12.688  20.194   2.873
40034W        W99779   7.670  26.076   2.819
40035W        W99780  23.116  30.569  12.935
40036W        W99781  14.597  20.109   1.331
40037W        W99782   4.331  23.581  11.981
40038W        W99783  44.877   8.339   4.620
40039W        W99784   6.905  21.750   3.385
40040W        W99785  24.012  30.637  10.094
40041W        W99786  20.191  35.038  10.942
40042W        W99787  11.846  28.155   1.222
40043W        W99788  30.579  44.282   3.170
40044W        W99789   7.670   3.400  13.495
40045W        W99790  32.550  33.422   1.892
40046W        W99791   3.770  39.062  14.960
40047W        W99792   9.342  20.543  14.941
40048W        W99793  12.770   1.262  13.864
40049W        W99794  22.071  27.095   2.792
40050W        W99795   6.240   1.755   0.321
40051W        W99796  31.920  22.552  13.994
40052W        W99797   7.277  21.659   1.386
40053W        W99798   6.282  27.991  14.514
40054W        W99799   7.279  32.517  14.859
40055W        W99800  35.075  39.810  13.489
40056W        W99801   6.882  38.406  14.514
40057W        W99802  35.884  29.600   0.303
40058W        W99803  32.917   2.283  12.345
40059W        W99804  21.561  30.477  11.421
40060W        W99805  20.674  22.130  13.920
40061W        W99806  29.547  37.535  13.309
40062W        W99807   3.461  31.471   3.689
40063W        W99808  38.947   2.346   0.437
40064W        W99809   4.374   8.734   0.911
40065W        W99810  40.916   5.355  12.424
40066W        W99811  16.267  42.913   3.221
40067W        W99812  32.065   7.215  11.101
40068W        W99813  38.882   0.454   1.305
40069W        W99814  43.306  35.949  11.414
40070W        W99815  36.559  23.604   1.743
40071W        W99816  40.413   3.230  10.929
40072W        W99817   3.713  10.327   5.136
40073W        W99818  16.654  20.713   1.707
40074W        W99819  25.005  14.149   0.364
40075W        W99820  15.091  41.395   1.931
40076W        W99821  26.480  29.656   4.277
40077W        W99822  23.670  40.797   3.820
40078W        W99823  31.997   7.784   3.176
40079W        W99824   1.241  37.052  13.350
40080W        W99825  36.981   5.305  12.544
40081W        W99826   9.860  29.078  13.013
40082W        W99827  44.910  37.853  13.523
40083W        W99828  16.187  23.052   2.830
40084W        W99829  34.098  31.545   0.390
40085W        W99830  43.423  32.522   4.786
40086W        W99831  14.771   2.441   3.152
40087W        W99832  23.644   2.282   2.706
40088W        W99833  26.551  19.052   1.291
40089W        W99834  27.596  41.406   4.605
40090W        W99835  30.432  22.514   5.284
40091W        W99836  19.122  29.610   4.279
40092W        W99837  17.612  29.942   1.902
40093W        W99838  31.947  34.957   1.734
40094W        W99839  22.238  20.192  11.057
40095W        W99840  15.803  40.970  14.819
40096W        W99841  16.153  38.966  14.302
40097W        W99842  41.472  29.520  12.032
40098W        W99843   4.884  12.708  14.371
40099W        W99844  32.947  26.957  12.991
40100W        W99845  32.947  15.147  11.891
40101W        W99846  24.502   8.302  14.318
40102W        W99847  24.069  17.731   3.175
40103W        W99848  29.441  44.336   1.924
40104W        W99849  20.167  17.721   3.856
40105W        W99850   7.230   2.904   0.834
40106W        W99851  29.528  24.532  14.282
40107W        W99852  43.959  12.349  14.382
40108W        W99853  34.870  38.960   3.298
40109W        W99854  14.252  21.735  12.505
40110W        W99855  41.407  43.966   1.239
40111W        W99856  15.258  36.428   1.700
40112W        W99857  27.646  40.508   0.484
40113W        W99858  38.561  36.421   3.283
40114W        W99859  32.480  28.552   3.152
40115W        W99860   8.314  22.122  12.891
40116W        W99861  19.658  43.472  14.378
40117W        W99862  35.392  37.415   1.371
40118W        W99863  13.326  28.980   3.232
40119W        W99864  10.874  23.046  12.826
40120W        W99865  19.203   6.377   4.188
40121W        W99866  42.877  42.933  13.546
40122W        W99867   9.224  41.794   0.464
40123W        W99868  38.562   3.383   2.405
40124W        W99869  20.092   1.741   0.839
40125W        W99870  36.027  44.326   1.866
40126W        W99871  21.244   0.975   3.856
40127W        W99872  17.769  40.852  13.410
40128W        W99873   5.404  44.505  11.443
40129W        W99874  28.489  43.502  11.382
40130W        W99875  22.095  11.295  13.434
40131W        W99876  36.036  21.077   3.806
40132W        W99877  33.886  20.541   4.618
40133W        W99878  28.021  23.734   1.816
40134W        W99879  42.282  21.028   2.320
40135W        W99880  23.027  18.248  11.039
40136W        W99881  21.133  27.090  11.999
40137W        W99882  12.667  11.336  13.334
40138W        W99883  24.076  36.498   3.293
40139W        W99884  13.740  39.918   3.842
40140W        W99885  27.651  21.241   2.388
40141W        W99886  20.724  11.866  11.373
40142W        W99887  30.916  26.459   4.725
40143W        W99888  30.073  34.575   0.937
40144W        W99889  26.677  26.546   5.093
40145W        W99890  37.845   9.709   3.355
40146W        W99891   3.809   9.841   0.858
40147W        W99892  10.793   2.854   3.272
40148W        W99893  16.122   3.730   1.796
40149W        W99894  22.718  40.359  11.082
40150W        W99895   9.284   6.347  10.492
40151W        W99896   6.290  37.392  13.340
40152W        W99897  41.442   8.856  10.532
40153W        W99898  26.008  34.031   0.470
40154W        W99899   1.834  31.639  13.496
40155W        W99900  24.134  28.681  13.334
40156W        W99901  40.540  16.623   2.417
40157W        W99902  42.917   0.898  12.043
40158W        W99903  26.989  36.878   3.637
40159W        W99904  34.379   1.432   1.409
40160W        W99905   1.932  39.500   3.381
40161W        W99906  19.589  30.112   2.748
40162W        W99907  37.973   9.331  12.023
40163W        W99908  35.973  33.425  11.535
40164W        W99909  38.537   1.286  14.409
40165W        W99910   3.456   8.850   2.196
40166W        W99911  34.586   8.362  11.012
40167W        W99912  30.566  37.017  14.896
40168W        W99913  20.227  37.350   0.410
40169W        W99914  30.654  18.727   3.636
40170W        W99915   9.862  41.366   2.698
40171W        W99916  31.640  11.649   0.460
40172W        W99917  24.582   9.285   0.333
40173W        W99918  41.008  27.475  11.528
40174W        W99919  37.443  29.467  11.941
40175W        W99920  42.383  33.493   4.276
40176W        W99921   7.823   4.445   1.275
40177W        W99922  11.359  39.392   4.204
40178W        W99923   7.257  32.023   0.773
40179W        W99924   6.710  25.187   3.679
40180W        W99925  30.656  35.080  13.374
40181W        W99926  42.833  31.034  14.943
40182W        W99927  41.316   0.405  10.594
40183W        W99928  16.274  11.162   2.193
40184W        W99929  32.596  43.515  11.415
40185W        W99930   3.309  10.298  12.517
40186W        W99931  33.885   5.904   3.706
40187W        W99932  26.680  27.015   0.250
40188W        W99933  11.310  18.288  14.994
40189W        W99934  35.566  42.294   3.196
40190W        W99935   9.216  34.411  12.366
40191W        W99936  23.140  43.328  14.494
40192W        W99937  44.802  14.831  13.475
40193W        W99938   8.400   3.424   0.288
40194W        W99939  29.610  35.906  10.993
40195W        W99940  33.474  20.569  14.831
40196W        W99941   4.716   6.245  11.551
40197W        W99942   3.894  39.324   1.745
40198W        W99943  43.439  19.608  11.501
40199W        W99944  31.918  32.600   2.850
40200W        W99945   3.746  20.264  12.940
40201W        W99946  20.077   8.347  13.485
40202W        W99947  28.669  37.027   3.208
40203W        W99948  20.042  41.967  14.289
40204W        W99949   8.393  31.087   4.162
40205W        W99950  36.369  36.970  12.525
40206W        W99951  30.160  16.073   4.167
40207W        W99952   0.252  40.996  14.471
40208W        W99953  40.489  31.546  14.328
40209W        W99954  31.636   9.694  12.840
40210W        W99955  44.908   4.709  12.393
40211W        W99956  28.989   1.792   2.773
40212W        W99957  13.697  11.218   1.342
40213W        W99958  33.921  30.158  12.912
40214W        W99959  34.991  25.995  12.544
40215W        W99960  14.221  10.712  14.009
40216W        W99961   9.723  22.179  10.988
40217W        W99962  23.701  16.651  12.927
40218W        W99963  21.027  18.254   4.212
40219W        W99964  38.047  41.414  10.635
40220W        W99965  19.699  31.486   2.792
40221W        W99966  22.080  42.400  10.981
40222W        W99967  31.502  44.391  12.856
40223W        W99968  35.016   1.860  14.933
40224W        W99969  17.602  44.900   3.794
40225W        W99970  17.131  33.918   3.218
40226W        W99971  41.357  38.967  11.559
40227W        W99972  30.427  11.809   2.319
40228W        W99973  12.134  10.282   2.802
40229W        W99974   8.849  12.165   4.719
40230W        W99975   4.331  34.876  14.475
40231W        W99976   4.436  42.854   3.383
40232W        W99977  42.994  40.398   4.219
40233W        W99978  18.055  11.206   2.748
40234W        W99979  36.002   5.383  12.902
40235W        W99980   5.334   0.791  13.861
40236W        W99981  21.042  11.677  11.560
40237W        W99982  13.826  17.205  13.316
40238W        W99983  10.174  13.327   4.329
40239W        W99984  23.025  19.209  13.440
40240W        W99985  11.341  10.666  14.991
40241W        W99986  21.687  42.916  10.619
40242W        W99987  33.528  17.691  13.029
40243W        W99988  35.999  35.466  12.517
40244W        W99989   3.853  42.854  11.486
40245W        W99990  29.143   0.799  14.902
40246W        W99991  30.999   6.750  14.287
40247W        W99992  17.250   1.840  13.956
40248W        W99993  20.620  33.524  11.944
40249W        W99994  38.413  26.543   1.698
40250W        W99995  32.512  15.824   4.236
40251W        W99996  11.283  21.587   3.321
40252W        W99997  31.571  25.595   2.875
40253W        W99998  44.296  41.895   2.218
40254W        W99999   4.732  18.619  14.366
40255W        W    0  37.830  25.585  13.517
40256W        W    1  25.609  21.197  13.489
40257W        W    2  22.047  15.108  13.535
40258W        W    3  36.984  32.573  11.094
40259W        W    4  43.797  11.192  13.441
40260W        W    5  15.580  21.582   4.690
40261W        W    6  19.059  28.162  14.890
40262W        W    7  18.262  26.568  12.053
40263W        W    8   9.377  37.016  13.495
40264W        W    9  42.496  28.980  12.983
40265W        W   10   5.272  14.594  11.539
40266W        W   11  36.590  16.217  11.378
40267W        W   12   7.410  37.068  11.510
40268W        W   13  19.281  13.655   3.865
40269W        W   14  41.896  24.043  12.475
40270W        W   15  16.196   0.813   4.226
40271W        W   16  39.037  22.634   4.290
40272W        W   17  31.582  11.338   1.892
40273W        W   18   0.798   7.407   2.299
40274W        W   19  17.250   6.903  14.908
40275W        W   20   2.849  31.417  11.388
40276W        W   21  36.029  35.917   4.704
40277W        W   22  42.879   4.376  11.541
40278W        W   23  11.171  37.380   0.423
40279W        W   24  19.658  22.548   0.348
40280W        W   25  19.168  18.548   4.222
40281W        W   26   8.760  43.421   4.622
40282W        W   27   1.835  35.457  12.379
40283W        W   28  38.015  43.777   0.818
40284W        W   29  17.066  39.981  14.891
40285W        W   30   9.737  42.416  14.333
40286W        W   31  18.201   1.244  14.853
40287W        W   32   7.868  42.932   0.359
40288W        W   33  25.981  36.464  14.342
40289W        W   34  18.205  32.951   2.258
40290W        W   35   8.178   4.436  13.919
40291W        W   36   8.246  30.545   2.402
40292W        W   37  17.669   5.300   2.794
40293W        W   38   6.352  11.732  13.815
40294W        W   39  25.104  29.526  11.914
40295W        W   40  30.971  41.921   2.823
40296W        W   41  41.030  27.182   3.750
40297W        W   42   7.321  20.095   1.741
40298W        W   43  38.903  41.008  11.119
40299W        W   44   4.935  19.772   0.810
40300W        W   45  33.507  29.980  13.970
40301W        W   46  44.290  17.086  13.989
40302W        W   47  38.952   5.430  10.533
40303W        W   48  23.493  23.684   0.293
40304W        W   49   3.356  29.428   5.231
40305W        W   50   2.233  40.899   4.165
40306W        W   51  13.767  32.574   2.374
40307W        W   52   8.182  39.913   2.727
40308W        W   53   5.436  43.804  13.924
40309W        W   54  25.657   3.427   9.986
40310W        W   55  21.171  31.093  13.348
40311W        W   56  39.384  17.205   2.222
40312W        W   57  34.996  40.934  14.808
40313W        W   58   6.327  26.580  14.356
40314W        W   59  14.832  27.504   2.402
40315W        W   60  44.261   1.468   4.249
40316W        W   61  26.613  35.408   3.860
40317W        W   62  32.478  29.148   0.859
40318W        W   63  15.713  21.025   5.134
40319W        W   64  14.312  13.709   2.700
40320W        W   65  25.607  13.663  12.363
40321W        W   66  40.926  39.323  11.378
40322W        W   67  11.705  30.966   2.764
40323W        W   68  32.099   2.931   4.801
40324W        W   69  36.376  21.653  14.480
40325W        W   70  21.702   5.313  13.888
40326W        W   71  18.102   9.831  10.925
40327W        W   72  29.490   4.337   0.813
40328W        W   73  23.219   0.772  10.002
40329W        W   74  18.764  15.114   4.261
40330W        W   75   1.446   5.813   3.793
40331W        W   76  16.136  41.891  12.031
40332W        W   77  20.140  18.060   1.869
40333W        W   78  40.346  14.692   1.811
40334W        W   79  32.603  39.850  11.977
40335W        W   80  15.306  41.831  12.426
40336W        W   81  27.129   4.839  11.075
40337W        W   82  11.281  11.767  12.375
40338W        W   83  40.018  11.234  13.542
40339W        W   84   7.335  23.678   3.861
40340W        W   85   3.361  31.417   1.322
40341W        W   86  37.443  21.046   5.191
40342W        W   87  11.826  11.848   1.834
40343W        W   88  38.826   9.274  11.009
40344W        W   89  14.638   1.446   1.931
40345W        W   90  40.831  33.433   1.210
40346W        W   91  38.052  26.460   0.816
40347W        W   92  44.404  14.310   2.897
40348W        W   93  30.460  42.876   0.325
40349W        W   94  16.253  35.538  12.838
40350W        W   95  35.421  34.879  12.529
40351W        W   96  41.910  42.855  13.956
40352W        W   97   5.838  41.910   3.726
40353W        W   98  44.922  10.791  11.403
40354W        W   99  27.578  37.072   0.366
40355W        W  100  28.656  23.060   3.755
40356W        W  101  24.630  18.198   4.764
40357W        W  102  13.319  10.639   1.294
40358W        W  103   4.941   9.659   4.333
40359W        W  104  10.756  27.544  10.454
40360W        W  105  37.385  13.820   2.712
40361W        W  106  20.589  27.542  11.935
40362W        W  107  26.048  13.837  10.458
40363W        W  108  33.883  20.693  13.518
40364W        W  109  35.359  18.224   3.837
40365W        W  110  20.258  11.668   3.220
40366W        W  111   8.374  42.437   4.320
40367W        W  112   0.468   4.809  11.915
40368W        W  113  18.738   3.431  13.822
40369W        W  114  31.433   2.742  14.834
40370W        W  115  10.287  24.545  13.025
40371W        W  116  36.426  17.664   1.214
40372W        W  117  23.654  15.278  12.924
40373W        W  118  31.508   8.815  13.905
40374W        W  119  21.728  20.116  11.948
40375W        W  120  18.196  32.497  10.632
40376W        W  121  24.691  20.083  14.885
40377W        W  122  20.269  42.484   4.734
40378W        W  123  35.924  14.829  11.379
40379W        W  124   5.861  11.757  13.818
40380W        W  125  19.135   8.843   2.232
40381W        W  126   6.361   8.703   1.278
40382W        W  127  31.019  26.139  10.596
40383W        W  128   4.901  22.703   0.472
40384W        W  129  24.002   7.874   4.803
40385W        W  130  35.072   0.885   0.921
40386W        W  131  28.639  18.759   1.823
40387W        W  132  30.419  15.763  12.456
40388W        W  133   5.871  26.201  13.465
40389W        W  134   9.797  32.464  11.377
40390W        W  135  44.406  33.599  13.497
40391W        W  136  35.466  19.563  11.870
40392W        W  137  35.953   5.380   2.233
40393W        W  138   2.364  19.091  11.481
40394W        W  139   9.320   6.403  14.014
40395W        W  140   5.418   9.210  11.985
40396W        W  141  10.229   6.802  12.952
40397W        W  142  42.484  29.068   9.970
40398W        W  143   8.272  12.752  12.453
40399W        W  144  34.067  40.523   0.476
40400W        W  145   4.748  35.043   2.834
40401W        W  146   2.436   6.817  14.417
40402W        W  147  13.139  29.490   0.877
40403W        W  148   1.412  37.458   2.812
40404W        W  149  20.612  18.161  14.907
40405W        W  150  11.269   4.842  10.526
40406W        W  151  39.928  27.496   3.255
40407W        W  152  32.603  21.638  14.936
40408W        W  153  40.947  26.009  14.374
40409W        W  154  24.084  30.050  14.954
40410W        W  155  42.454  25.486   0.872
40411W        W  156  40.001  42.961  11.012
40412W        W  157  19.066  27.136   0.788
40413W        W  158   5.286  16.135   3.772
40414W        W  159  29.005  10.360  12.416
40415W        W  160  39.525  15.666   2.714
40416W        W  161  39.948  17.103  12.913
40417W        W  162  20.170  20.732  12.884
40418W        W  163  42.382   8.227   1.222
40419W        W  164   3.751  37.833   2.377
40420W        W  165   8.337  20.688   1.292
40421W        W  166   9.379  23.077   3.368
40422W        W  167  41.407  33.451   5.128
40423W        W  168   2.469  11.254  14.381
40424W        W  169   4.354   8.360  13.028
40425W        W  170  26.038  30.020  14.780
40426W        W  171  28.014   2.279  11.551
40427W        W  172  39.365   9.721  10.597
40428W        W  173  14.674  22.164   4.178
40429W        W  174  20.576  23.000  13.388
40430W        W  175  38.549   2.397   2.764
40431W        W  176  22.510  20.263   3.338
40432W        W  177  18.130  14.834   3.686
40433W        W  178  44.828   9.276   0.805
40434W        W  179  13.284  38.553   3.326
40435W        W  180  43.516  44.469  14.838
40436W        W  181  29.949  21.707  12.478
40437W        W  182  43.980  11.758   2.802
40438W        W  183  28.058  26.047  13.912
40439W        W  184  22.083  19.176  13.500
40440W        W  185  37.424   2.345  14.513
40441W        W  186  26.548  38.984  11.119
40442W        W  187  32.411  21.189  12.966
40443W        W  188  29.545   3.741  10.452
40444W        W  189   6.195   0.266   2.215
40445W        W  190  16.733   5.384  12.541
40446W        W  191   1.252  32.908  10.620
40447W        W  192   0.829   2.394   0.304
40448W        W  193  17.127  24.482   2.358
40449W        W  194  31.127  26.552  12.899
40450W        W  195  31.565  31.588   1.325
40451W        W  196  10.667  19.714  11.104
40452W        W  197   1.902  37.544   1.324
40453W        W  198   5.391  21.186  14.400
40454W        W  199  15.095  38.473   0.397
40455W        W  200  32.074  16.642   2.248
40456W        W  201   1.852  31.060   4.274
40457W        W  202  38.966  42.446   0.468
40458W        W  203  10.703  42.324  13.391
40459W        W  204  38.899   9.675  13.522
40460W        W  205  10.181  32.086   0.425
40461W        W  206  40.513  17.605   4.281
40462W        W  207  20.150  25.565  13.047
40463W        W  208  20.567  37.832   1.388
40464W        W  209  13.674  32.531  10.629
40465W        W  210  18.599  24.099  14.852
40466W        W  211  31.065  25.121   4.823
40467W        W  212  35.973   4.415   2.418
40468W        W  213  32.027  44.462  13.018
40469W        W  214  21.127  26.018  13.045
40470W        W  215  11.321  32.063   2.275
40471W        W  216  24.071  21.731   0.445
40472W        W  217  31.490  37.853   3.183
40473W        W  218  13.752  21.143   1.350
40474W        W  219  28.126  13.709   1.803
40475W        W  220  19.764   9.350   5.114
40476W        W  221  37.444   1.910   0.773
40477W        W  222   8.841  25.035   3.198
40478W        W  223  27.043  38.490   2.401
40479W        W  224  37.945  31.584   1.442
40480W        W  225  37.530   8.354   0.341
40481W        W  226  19.145  22.173   1.934
40482W        W  227  15.709  10.781   0.415
40483W        W  228  35.020  31.070  10.534
40484W        W  229  40.534  39.317  10.474
40485W        W  230  41.980   8.745   0.444
40486W        W  231  17.179   6.311  12.894
40487W        W  232  40.835  31.030  13.405
40488W        W  233  35.523  29.164   0.423
40489W        W  234  27.600  33.568   2.323
40490W        W  235  34.926  10.293  14.438
40491W        W  236  40.342  33.623   1.216
40492W        W  237  24.135  41.939   2.708
40493W        W  238  32.029  23.194  10.095
40494W        W  239  24.594  44.762  13.880
40495W        W  240  39.925  33.530  10.421
40496W        W  241  19.253  29.035  13.350
40497W        W  242   0.897  28.582  10.413
40498W        W  243   3.823   5.372  12.345
40499W        W  244   7.234  19.627  13.858
40500W        W  245  24.048  22.138   2.853
40501W        W  246   5.375  31.432   0.835
40502W        W  247   5.265  15.229   3.203
40503W        W  248  39.049  29.123   4.307
40504W        W  249  44.482   8.213  13.374
40505W        W  250   7.202   2.406  13.329
40506W        W  251  34.574  20.232  11.864
40507W        W  252  12.151   0.443   3.636
40508W        W  253  15.667  16.171   4.651
40509W        W  254  42.893  28.938   3.210
40510W        W  255  28.499  11.649  12.969
40511W        W  256   1.773   0.480  14.760
40512W        W  257   8.379  44.758   2.879
40513W        W  258   8.835  29.005   0.955
40514W        W  259  37.582  41.807  10.619
40515W        W  260  43.791  29.964   1.831
40516W        W  261   2.464  23.707  14.801
40517W        W  262  22.028  35.393   1.251
40518W        W  263  16.231  36.871   0.787
40519W        W  264  39.045  34.400   4.118
40520W        W  265  25.491  28.975   4.640
40521W        W  266  26.160   3.435   3.161
40522W        W  267  21.700  35.457  14.341
40523W        W  268   6.362  40.431  11.555
40524W        W  269  14.287  20.750   2.307
40525W        W  270  43.395  38.964  12.439
40526W        W  271  26.977  16.094  12.849
40527W        W  272  27.632  17.592   1.734
40528W        W  273  41.997  15.119  13.043
40529W        W  274  25.683  37.906  14.384
40530W        W  275   3.864  19.745   1.845
40531W        W  276   1.458   5.261   1.834
40532W        W  277  42.381  25.065   0.381
40533W        W  278   2.461  21.023  12.865
40534W        W  279  12.163  42.012   4.211
40535W        W  280  29.493   3.360   0.835
40536W        W  281   5.206   8.749  14.789
40537W        W  282   5.416  14.641   2.672
40538W        W  283  13.702  18.564  14.372
40539W        W  284  34.056  25.608   4.687
40540W        W  285  31.997   2.241  11.403
40541W        W  286  19.535  31.613  14.958
40542W        W  287  10.343  24.216   0.452
40543W        W  288  33.076  41.412   3.377
40544W        W  289   1.456  35.423  13.057
40545W        W  290  15.214  15.747   2.667
40546W        W  291  43.926  27.104  11.074
40547W        W  292   2.945  19.743  12.005
40548W        W  293  16.307  26.201  10.892
40549W        W  294   4.908  29.632  13.979
40550W        W  295  44.286  15.127   2.347
40551W        W  296  17.617  28.026   3.664
40552W        W  297   4.375  43.871   2.806
40553W        W  298   9.378   4.792  11.375
40554W        W  299  21.073  16.101  11.482
40555W        W  300   9.696  11.223   3.316
40556W        W  301   4.207  38.989   3.162
40557W        W  302  21.705   0.750  14.828
40558W        W  303   4.277  14.810  14.833
40559W        W  304   8.855  17.196   0.936
40560W        W  305   3.414   6.256  11.594
40561W        W  306  23.623   7.332   1.253
40562W        W  307  21.117  16.205   2.219
40563W        W  308  30.069  34.562   2.366
40564W        W  309   1.399  17.078  12.991
40565W        W  310  35.091  25.651   4.335
40566W        W  311  33.023  34.590   0.309
40567W        W  312  36.590  35.518   3.286
40568W        W  313   9.670  16.744  13.979
40569W        W  314  30.969  23.062  11.476
40570W        W  315   3.933  17.275  12.043
40571W        W  316  28.471   4.912  12.360
40572W        W  317   5.316   5.428   2.223
40573W        W  318   7.709  31.433   3.147
40574W        W  319   4.817   1.795   1.798
40575W        W  320  32.934  29.030  12.045
40576W        W  321  26.196  28.040   1.915
40577W        W  322  11.302  26.510   0.384
40578W        W  323   8.712  25.550   2.735
40579W        W  324  28.617   0.780  11.431
40580W        W  325  19.751  14.173   4.175
40581W        W  326  30.608  35.557   1.328
40582W        W  327   1.308  33.030  13.019
40583W        W  328  30.428  16.109  14.927
40584W        W  329  34.868  24.723  11.106
40585W        W  330   0.422  31.523   1.294
40586W        W  331  42.908  25.093   1.890
40587W        W  332  44.921  35.536   4.627
40588W        W  333  33.572  14.755  11.373
40589W        W  334  25.093  18.769   3.360
40590W        W  335   7.700  27.003   2.672
40591W        W  336   4.421  31.141  12.916
40592W        W  337  11.751  44.910  14.961
40593W        W  338   0.433  39.554   3.859
40594W        W  339   0.813   0.880  10.407
40595W        W  340  30.976  14.646  10.608
40596W        W  341  31.614  15.690   3.267
40597W        W  342  37.849  14.684   0.253
40598W        W  343  14.692  39.558  12.923
40599W        W  344   8.231  30.944   4.725
40600W        W  345  16.103  30.640  10.586
40601W        W  346  37.378  27.943  14.274
40602W        W  347  26.085  41.797   1.257
40603W        W  348   2.871  12.345  11.463
40604W        W  349   0.939  19.538  10.105
40605W        W  350   1.953  18.703   3.273
40606W        W  351  36.868  12.773   4.128
40607W        W  352   2.268   1.324   3.649
40608W        W  353  32.608   9.260   2.357
40609W        W  354  27.590  31.139   9.963
40610W        W  355  20.062   2.472   3.811
40611W        W  356  30.656  23.989   4.177
40612W        W  357  17.124  17.225  11.937
40613W        W  358  38.847  24.172   1.796
40614W        W  359   7.259  21.250   1.414
40615W        W  360  43.510  35.898  11.073
40616W        W  361  15.125  13.754   3.857
40617W        W  362  11.810   3.263  14.992
40618W        W  363   9.834  32.118   0.801
40619W        W  364   5.226  26.631  14.495
40620W        W  365  19.611  13.142  14.761
40621W        W  366  40.981  17.258  14.870
40622W        W  367  20.631   0.920  10.003
40623W        W  368  28.660  42.483   1.297
40624W        W  369  36.025  38.895  11.580
40625W        W  370  11.202  34.444   0.928
40626W        W  371  24.580  11.859  10.598
40627W        W  372  15.187  28.059  13.970
40628W        W  373  15.152   5.760  14.500
40629W        W  374  17.590  35.941   2.875
40630W        W  375   9.361   8.716   0.780
40631W        W  376  33.981  34.996  11.388
40632W        W  377  29.430  15.217  10.526
40633W        W  378  12.620   5.789  14.452
40634W        W  379  18.721  29.173  14.412
40635W        W  380  34.911  16.291   3.258
40636W        W  381  38.051   4.423   3.253
40637W        W  382  17.288  39.513   0.247
40638W        W  383  39.517  31.108   2.370
40639W        W  384  21.080  10.342   2.734
40640W        W  385  19.694  17.642  13.842
40641W        W  386  22.690   0.761  13.822
40642W        W  387  29.944   1.252   2.349
40643W        W  388  18.747  38.829   2.260
40644W        W  389   5.426  18.073  13.809
40645W        W  390   2.852  32.967  14.946
40646W        W  391  18.170   5.348  13.921
40647W        W  392  33.933   0.752  11.080
40648W        W  393  41.809  38.827  10.620
40649W        W  394  19.753  22.539  12.070
40650W        W  395  32.110  28.065   4.322
40651W        W  396  42.369  16.798   4.741
40652W        W  397  39.548  11.695  11.966
40653W        W  398  42.977   6.815   2.897
40654W        W  399  11.158  23.690  14.849
40655W        W  400  42.509  21.142   5.134
40656W        W  401  43.422  15.698  14.292
40657W        W  402  30.645  22.668   4.790
40658W        W  403  11.628  39.405  12.524
40659W        W  404  15.139   7.193   2.764
40660W        W  405  13.321   7.836   0.771
40661W        W  406  30.936  28.143   3.720
40662W        W  407  30.909  13.220  13.029
40663W        W  408  32.590  44.842   0.779
40664W        W  409  27.016  29.447  13.975
40665W        W  410  23.085  37.053   1.882
40666W        W  411  42.354   7.827   3.202
40667W        W  412  13.286  22.744   3.688
40668W        W  413  31.137  16.755   4.745
40669W        W  414  18.167  36.867   1.915
40670W        W  415  34.437  12.658  11.907
40671W        W  416  40.385  19.542  14.837
40672W        W  417  38.031  15.589   0.829
40673W        W  418  12.686   3.247  11.911
40674W        W  419  11.128  28.124   0.844
40675W        W  420   7.696  25.024   3.809
40676W        W  421  40.983  19.557  13.449
40677W        W  422  41.945   0.858  14.961
40678W        W  423   6.755  20.260  14.026
40679W        W  424  21.595   6.379   0.330
40680W        W  425  11.292  26.202  10.554
40681W        W  426  44.275  43.465   2.319
40682W        W  427  43.966   7.723   3.698
40683W        W  428  28.609  14.184   4.659
40684W        W  429   2.901  22.141  11.509
40685W        W  430  29.637  33.599   3.799
40686W        W  431   1.975  13.761  12.572
40687W        W  432   8.795   5.773   3.760
40688W        W  433  24.974   0.958   2.329
40689W        W  434  34.465   3.228  12.852
40690W        W  435  31.061  13.120   1.920
40691W        W  436  27.070   2.919   4.343
40692W        W  437  35.599  20.163   3.769
40693W        W  438  29.010  27.073  14.479
40694W        W  439  13.704  12.315  12.488
40695W        W  440   0.942  43.302   0.315
40696W        W  441   5.325  17.204   2.699
40697W        W  442  24.128  37.563   2.275
40698W        W  443   3.251   2.963   1.451
40699W        W  444  34.911  20.711   3.706
40700W        W  445  14.713  10.639   4.834
40701W        W  446   0.453  38.418  14.293
40702W        W  447  37.570  38.477   3.269
40703W        W  448  41.040  19.171  13.454
40704W        W  449  41.832   5.926   0.867
40705W        W  450  40.870  42.805   2.280
40706W        W  451  31.949  26.618   3.780
40707W        W  452  42.906  24.172   4.340
40708W        W  453  20.126  17.068  11.891
40709W        W  454  34.897   7.398   1.225
40710W        W  455  22.662  21.190  12.521
40711W        W  456  21.575   4.338   9.474
40712W        W  457  13.193  32.463  13.829
40713W        W  458  33.106  12.130   4.272
40714W        W  459  16.294  42.344  12.551
40715W        W  460  41.298  32.544   2.841
40716W        W  461  26.501  26.955  14.939
40717W        W  462  30.002  31.071  11.989
40718W        W  463  10.798   1.293   1.449
40719W        W  464  22.514  42.357  11.855
40720W        W  465  24.523  29.514  11.529
40721W        W  466  38.490  24.194   4.289
40722W        W  467  19.588  28.436   1.818
40723W        W  468   0.746  16.706   0.837
40724W        W  469  18.290  35.565  13.948
40725W        W  470   2.928  36.974   9.507
40726W        W  471   3.408   7.363  14.437
40727W        W  472  27.964  24.155  12.455
40728W        W  473   1.429  25.554   1.302
40729W        W  474  23.221   9.655   1.421
40730W        W  475   0.365  34.953  13.426
40731W        W  476  26.505  24.022   5.102
40732W        W  477  26.521  35.407  10.641
40733W        W  478  20.632  31.417   3.803
40734W        W  479  38.451   0.463   3.309
40735W        W  480   3.457   6.885   4.346
40736W        W  481  23.609   5.394  12.840
40737W        W  482   8.811  32.408  12.447
40738W        W  483  15.206  33.533   4.165
40739W        W  484  13.685  32.096   4.351
40740W        W  485  35.994  40.961  13.025
40741W        W  486  31.426  27.054   1.827
40742W        W  487  20.165  43.795   4.182
40743W        W  488   1.844  19.703  11.389
40744W        W  489   6.380  43.458   2.274
40745W        W  490  40.817   3.373   3.302
40746W        W  491  43.992  36.509  13.511
40747W        W  492  28.961  21.224   1.360
40748W        W  493  38.556   2.726  12.842
40749W        W  494  22.578   7.311  10.064
40750W        W  495  35.413  30.604   3.792
40751W        W  496  13.304  28.652  13.546
40752W        W  497  40.327  33.945  11.923
40753W        W  498   8.268  37.567   1.787
40754W        W  499  25.969  38.475   0.834
40755W        W  500  32.959  21.526  11.971
40756W        W  501  11.222  10.785  10.930
40757W        W  502   5.426  20.266   0.306
40758W        W  503   5.398  30.919   2.361
40759W        W  504  15.143  14.326  11.985
40760W        W  505  33.594  25.569  10.630
40761W        W  506  29.096  20.216   2.260
40762W        W  507  38.481  26.512   4.691
40763W        W  508  34.446   7.346  13.447
40764W        W  509   1.432  13.671  11.577
40765W        W  510  35.945  22.635   4.761
40766W        W  511  20.131  15.684  10.491
40767W        W  512  28.011  38.489   3.860
40768W        W  513  24.648  20.221  11.917
40769W        W  514  27.971   3.920  10.941
40770W        W  515  10.727  16.627  11.931
40771W        W  516  44.415  11.746   3.315
40772W        W  517  36.033  11.715  11.010
40773W        W  518  38.011  24.162   2.241
40774W        W  519  10.215   0.962   2.684
40775W        W  520   8.317  20.224  13.806
40776W        W  521  26.144  18.645  10.565
40777W        W  522  40.945  20.614  13.480
40778W        W  523  37.569   0.833   2.366
40779W        W  524  38.060   9.875  11.042
40780W        W  525  34.440  17.797  12.962
40781W        W  526  34.871  26.508  10.545
40782W        W  527  18.762   4.732  13.864
40783W        W  528  28.973  13.173   2.830
40784W        W  529  12.822  13.648  13.324
40785W        W  530  42.486  21.611  14.354
40786W        W  531  22.109  39.449  11.893
40787W        W  532   4.245  15.621  11.000
40788W        W  533  36.884  13.163  14.381
40789W        W  534  16.084  43.306   3.354
40790W        W  535   2.931  21.050  11.580
40791W        W  536  32.601  15.693  12.540
40792W        W  537  17.164   3.804  12.531
40793W        W  538  43.509  41.507   0.964
40794W        W  539  11.801  20.651   4.602
40795W        W  540  35.080  13.126   0.281
40796W        W  541   0.749   4.774  14.416
40797W        W  542  20.183  26.562  13.946
40798W        W  543  10.350   8.820   1.350
40799W        W  544  14.627  24.202   2.313
40800W        W  545  11.643  21.551  14.798
40801W        W  546  19.635  32.957  14.428
40802W        W  547  42.367   2.413  12.071
40803W        W  548   5.363  15.222  12.931
40804W        W  549  22.194  42.879  12.433
40805W        W  550   3.924  29.486  11.999
40806W        W  551  36.544   1.949   2.188
40807W        W  552   4.885  43.366  11.998
40808W        W  553  18.249  37.423   2.398
40809W        W  554  15.180  19.179   4.134
40810W        W  555  17.235  23.691   3.309
40811W        W  556  27.138   5.904  11.114
40812W        W  557  19.039  11.763  14.351
40813W        W  558   9.300   7.690  13.498
40814W        W  559   3.763  14.247   1.426
40815W        W  560   4.234  11.291   4.693
40816W        W  561  14.732  20.240  11.874
40817W        W  562  23.097  18.097  10.642
40818W        W  563   6.837   6.329  12.471
40819W        W  564  35.518  19.712  10.945
40820W        W  565  18.708  19.152   1.867
40821W        W  566  38.977  29.126  12.868
40822W        W  567  18.288  18.706   1.384
40823W        W  568  36.553   7.314  14.460
40824W        W  569  35.582  19.172  13.489
40825W        W  570  41.875  29.112   1.320
40826W        W  571   5.419  12.343   2.230
40827W        W  572  37.472  15.817   0.887
40828W        W  573   0.939  15.771  13.494
40829W        W  574   1.264  32.034  11.931
40830W        W  575  42.288   7.902   1.241
40831W        W  576  20.138   3.747  14.763
40832W        W  577  25.577  15.109   1.416
40833W        W  578  39.051  14.234   1.911
40834W        W  579  43.938   9.332  10.636
40835W        W  580  29.972  18.155  11.106
40836W        W  581  11.353  14.681   0.870
40837W        W  582   3.310  17.306   2.343
40838W        W  583  31.113  39.455  11.067
40839W        W  584  35.960  33.983   1.842
40840W        W  585  39.913  25.206   2.257
40841W        W  586   6.890  18.155   1.756
40842W        W  587  44.448  12.119   2.720
40843W        W  588  21.669  17.614   4.285
40844W        W  589  27.527  15.223   1.298
40845W        W  590  18.201  28.135   1.767
40846W        W  591  32.502  33.955  14.939
40847W        W  592  25.209  23.078  12.441
40848W        W  593   5.435  11.203  12.947
40849W        W  594  12.190   3.433  10.485
40850W        W  595  35.536   6.285  11.522
40851W        W  596  30.640  31.636  10.471
40852W        W  597   3.240  23.631   0.737
40853W        W  598  27.634  37.490   2.265
40854W        W  599  11.696  44.889   4.264
40855W        W  600  34.524  36.436   2.270
40856W        W  601  17.209  42.957   1.872
40857W        W  602  43.284   9.849  11.028
40858W        W  603   4.285  22.611   0.945
40859W        W  604  20.110  19.257  14.283
40860W        W  605  15.665  38.967  12.433
40861W        W  606  17.109  43.956   4.237
40862W        W  607  35.423  16.231  12.894
40863W        W  608  29.047  37.489   2.347
40864W        W  609   9.215  30.623  14.405
40865W        W  610  26.689  21.715  12.020
40866W        W  611  34.884   4.432   5.320
40867W        W  612  33.428  35.001   4.261
40868W        W  613  15.278  38.415   1.357
40869W        W  614  20.622  44.484   1.747
40870W        W  615  29.174   4.759   9.519
40871W        W  616  19.257   3.365   4.163
40872W        W  617  23.686  43.427  11.102
40873W        W  618   7.306  43.338   4.820
40874W        W  619   2.414  40.895  12.020
40875W        W  620  30.530  15.301  11.582
40876W        W  621  37.353  41.302  11.990
40877W        W  622  36.570   5.858  14.379
40878W        W  623  19.151  42.923  10.551
40879W        W  624  43.887  35.577   2.315
40880W        W  625  14.223   9.213   1.318
40881W        W  626  33.482  20.666   2.225
40882W        W  627  44.454  24.629  13.400
40883W        W  628  31.584  36.433   4.776
40884W        W  629  37.865  38.851   3.710
40885W        W  630   8.887  12.158  13.891
40886W        W  631  26.092  27.470  14.325
40887W        W  632   0.399  24.707  12.576
40888W        W  633  43.766  19.239   1.451
40889W        W  634  43.840  11.174  11.396
40890W        W  635  42.503  37.447   4.164
40891W        W  636  38.458  26.471  11.873
40892W        W  637  40.890  36.517   0.247
40893W        W  638   3.860  13.789  10.530
40894W        W  639  10.165   8.896  11.971
40895W        W  640  41.947  26.501   2.701
40896W        W  641   1.756  19.543   2.275
40897W        W  642  43.272  33.578   4.273
40898W        W  643  21.194   6.379  10.015
40899W        W  644  13.291  28.450  12.852
40900W        W  645  17.209   7.896  11.559
40901W        W  646  44.482  29.138   1.797
40902W        W  647   6.741  36.471   4.783
40903W        W  648  11.763   6.230  12.445
40904W        W  649  22.680   1.835   1.831
40905W        W  650  23.165  29.027  14.833
40906W        W  651  28.625  19.092  13.880
40907W        W  652  23.691  35.025   3.256
40908W        W  653  11.636  40.545   4.819
40909W        W  654  29.167  33.570  10.446
40910W        W  655  39.380  36.088  10.590
40911W        W  656  15.664  35.986   3.208
40912W        W  657  33.066  13.826  13.529
40913W        W  658  10.634  14.326   3.316
40914W        W  659   5.429  32.432  13.500
40915W        W  660  11.810  29.067   4.161
40916W        W  661  29.113  26.019   1.352
40917W        W  662  28.639  24.588   3.199
40918W        W  663  32.555  36.446  12.016
40919W        W  664   7.252  31.449  13.897
40920W        W  665  25.087  29.036  11.073
40921W        W  666  16.242  40.858  10.951
40922W        W  667  24.567  22.545   0.792
40923W        W  668  28.076  32.017  11.073
40924W        W  669  15.786   8.849   0.859
40925W        W  670  15.723  13.308   4.749
40926W        W  671  32.917  22.741  14.970
40927W        W  672  27.533  22.580   4.243
40928W        W  673  24.130  15.613   0.778
40929W        W  674  13.185  34.000  12.405
40930W        W  675  14.241  35.459   1.733
40931W        W  676  31.578  44.476   0.417
40932W        W  677   5.414  23.544  10.959
40933W        W  678  19.748  44.343   3.174
40934W        W  679   2.337  21.526   0.417
40935W        W  680   2.965  26.651   2.816
40936W        W  681  41.938  42.521  11.084
40937W        W  682  26.115  37.416   3.858
40938W        W  683  24.656  33.513  14.801
40939W        W  684  13.840  39.813  11.532
40940W        W  685  17.687   3.335  14.841
40941W        W  686  12.253  38.026   4.205
40942W        W  687  44.902  20.140   1.748
40943W        W  688  28.648  12.123  11.859
40944W        W  689  18.234  14.324  14.807
40945W        W  690   7.307  42.908   0.392
40946W        W  691  44.442  26.076   0.777
40947W        W  692   3.813  30.440   2.701
40948W        W  693   5.713  27.568  14.928
40949W        W  694   6.816   4.385  11.036
40950W        W  695  26.577  14.290   1.324
40951W        W  696   8.243  14.305   4.327
40952W        W  697  18.202  17.777  11.895
40953W        W  698  11.698  38.359   2.850
40954W        W  699  37.429   0.259   9.947
40955W        W  700  31.951   7.389   1.722
40956W        W  701  17.718   7.702  10.419
40957W        W  702   2.875  44.415  13.335
40958W        W  703  35.385  23.138   1.340
40959W        W  704  31.145   9.151  14.305
40960W        W  705  14.741  33.902  14.994
40961W        W  706  25.687  10.691   3.244
40962W        W  707  29.431  16.094   0.468
40963W        W  708  10.315  35.567  12.561
40964W        W  709  17.279  16.745  13.910
40965W        W  710  21.567  13.290  14.442
40966W        W  711  15.689  14.233   4.199
40967W        W  712  37.407   0.926   4.247
40968W        W  713   4.714  17.654   1.715
40969W        W  714  43.273  25.965  13.405
40970W        W  715  35.993   0.988   2.191
40971W        W  716  24.224  28.110  10.159
40972W        W  717  32.899  34.532  11.940
40973W        W  718  30.142  20.748   5.628
40974W        W  719  17.627   3.866   1.389
40975W        W  720  24.210  23.123  12.980
40976W        W  721  15.797  39.821  14.388
40977W        W  722   9.154  44.938   1.277
40978W        W  723  13.192   0.339   1.758
40979W        W  724  38.545   7.316   1.806
40980W        W  725  44.390  34.383   1.322
40981W        W  726  33.885  30.418   4.628
40982W        W  727   4.372  25.068  11.421
40983W        W  728   3.849  27.062  11.874
40984W        W  729  24.609  40.446  10.937
40985W        W  730   7.903  43.499  11.469
40986W        W  731  27.510  11.746  14.510
40987W        W  732   0.751  27.173   2.238
40988W        W  733  35.462  31.431   1.262
40989W        W  734  25.479  30.459  14.012
40990W        W  735  12.697  17.733   4.329
40991W        W  736  43.290   6.403   0.388
40992W        W  737  42.008  26.057   0.466
40993W        W  738  36.991  37.966  13.970
40994W        W  739  14.608  32.978   3.312
40995W        W  740   1.251   4.421  10.612
40996W        W  741   5.414  21.624   1.287
40997W        W  742   2.953  16.667   0.412
40998W        W  743   2.774  27.041   2.688
40999W        W  744  30.625  35.001  11.047
41000W        W  745  35.856  17.254  14.330
41001W        W  746  12.809  27.094  12.928
41002W        W  747  43.367  35.440   3.688
41003W        W  748  31.971  12.272   0.371
41004W        W  749  33.528  12.656  11.017
41005W        W  750   4.850  10.195  10.420
41006W        W  751  37.944  36.044  14.907
41007W        W  752  22.221  37.843   0.874
41008W        W  753  10.341   2.829   2.204
41009W        W  754  28.610  37.029   1.920
41010W        W  755  24.556   6.283   3.301
41011W        W  756   8.178   5.285  11.941
41012W        W  757   2.273   2.271   4.351
41013W        W  758  21.167  37.360  13.487
41014W        W  759  34.578  44.819  13.852
41015W        W  760   2.318   4.389  12.041
41016W        W  761  18.145  20.093  10.940
41017W        W  762  22.599  22.549  13.359
41018W        W  763   0.337  40.944  11.087
41019W        W  764  44.323  33.455  12.020
41020W        W  765  39.519  27.535   2.851
41021W        W  766  42.456  26.518  14.879
41022W        W  767  38.399  30.496   3.322
41023W        W  768  18.672  37.884   4.800
41024W        W  769  29.930  42.485  11.612
41025W        W  770  24.684  17.618   5.710
41026W        W  771  16.685  19.672   0.364
41027W        W  772  10.848  18.197  12.928
41028W        W  773   6.820  28.608   4.797
41029W        W  774  16.679  29.026   4.300
41030W        W  775  19.174  25.049  14.877
41031W        W  776  11.271  19.610   0.256
41032W        W  777  34.439  26.665   0.266
41033W        W  778  27.098  33.880   2.826
41034W        W  779  18.083  39.837  12.339
41035W        W  780  36.015  39.890  12.038
41036W        W  781   6.211  25.532   4.128
41037W        W  782  10.350   1.863   2.388
41038W        W  783  23.988  13.649  13.943
41039W        W  784  33.595  17.674  14.768
41040W        W  785   4.416  36.564   2.679
41041W        W  786   6.428  11.170   4.780
41042W        W  787  17.133  10.828  11.541
41043W        W  788   0.367  28.458  10.109
41044W        W  789  31.519  15.228   0.803
41045W        W  790   0.918   3.376   5.307
41046W        W  791  33.003  25.002  12.957
41047W        W  792  12.779  41.843  11.041
41048W        W  793  16.790   1.461   2.672
41049W        W  794   2.428  23.584  10.524
41050W        W  795   2.306   1.885   0.826
41051W        W  796  25.987  19.147  13.395
41052W        W  797  41.027  12.810   0.877
41053W        W  798  44.395  43.509  14.831
41054W        W  799  43.420  25.709  10.431
41055W        W  800  26.066  11.363   3.757
41056W        W  801  11.667  42.484  12.361
41057W        W  802  16.742  41.910   3.161
41058W        W  803  23.556   7.831  10.633
41059W        W  804   8.244  36.972  14.503
41060W        W  805   1.394  25.975  13.885
41061W        W  806  16.665  19.194   3.156
41062W        W  807  13.606   1.880   1.695
41063W        W  808  22.703   8.700  10.050
41064W        W  809  36.968  28.116   3.167
41065W        W  810  38.344   2.338   1.219
41066W        W  811  29.142  15.708  13.861
41067W        W  812  19.210   5.729  12.940
41068W        W  813  37.870  44.941   0.759
41069W        W  814  32.430  10.638  12.944
41070W        W  815  12.664  40.834  12.548
41071W        W  816  25.153  12.658   3.680
41072W        W  817  15.245  23.553   3.248
41073W        W  818   1.276   6.261   2.689
41074W        W  819   8.238  24.581  12.920
41075W        W  820   9.766   2.772  13.050
41076W        W  821  39.972  20.734   4.810
41077W        W  822   2.924  24.061   3.203
41078W        W  823  24.181   3.313  10.451
41079W        W  824  37.422   2.858   0.784
41080W        W  825  39.525  34.952   1.762
41081W        W  826  35.398  35.378  11.904
41082W        W  827  30.547  12.117  14.971
41083W        W  828   5.815   0.380  10.969
41084W        W  829  27.641   7.344   1.713
41085W        W  830   6.783  20.619   1.696
41086W        W  831   6.731  36.534  13.352
41087W        W  832  12.705  42.846  11.388
41088W        W  833  17.244  10.784  12.509
41089W        W  834  42.340  26.585   2.345
41090W        W  835  22.104  35.877   2.790
41091W        W  836  34.437  40.838  14.421
41092W        W  837  32.404  13.738  11.450
41093W        W  838  16.074  39.002   4.826
41094W        W  839   2.829  40.032  13.348
41095W        W  840  23.079  30.576  14.404
41096W        W  841  27.178  15.696  13.964
41097W        W  842  31.591   3.896   4.176
41098W        W  843  16.593  26.987  13.365
41099W        W  844   8.299  38.549   2.328
41100W        W  845  17.720   9.192  14.951
41101W        W  846  25.970  20.722   2.827
41102W        W  847  24.059   1.771  11.125
41103W        W  848  43.376  34.986  12.034
41104W        W  849   4.725  34.095   2.845
41105W        W  850  28.663  31.560  13.334
41106W        W  851  40.916  35.897  10.597
41107W        W  852  30.925  37.081   4.805
41108W        W  853   3.769   9.819   4.199
41109W        W  854  24.069  25.538  13.479
41110W        W  855  35.987  37.565   1.885
41111W        W  856  44.269  33.528   2.764
41112W        W  857  30.506  40.383  11.858
41113W        W  858  25.619  24.159   0.746
41114W        W  859  37.437  41.387  13.813
41115W        W  860  34.108   6.293   1.356
41116W        W  861  24.542  20.635   1.293
41117W        W  862  38.424  34.381  12.902
41118W        W  863   7.230  22.194  12.440
41119W        W  864  40.984  40.461   4.640
41120W        W  865  36.915   3.910  14.305
41121W        W  866   1.274   8.263  14.444
41122W        W  867  20.175  37.446   4.598
41123W        W  868  11.640   0.746   5.235
41124W        W  869  39.392  28.973  11.955
41125W        W  870  15.630   2.867  13.330
41126W        W  871  23.127  30.957   0.827
41127W        W  872  10.735  14.322   5.116
41128W        W  873   5.878  38.951  11.964
41129W        W  874  22.669  37.047  10.525
41130W        W  875  36.843  28.943   3.147
41131W        W  876  11.179  18.560  14.772
41132W        W  877  38.862  17.748   0.787
41133W        W  878  21.115  15.764  12.848
41134W        W  879   7.856  19.559  14.376
41135W        W  880  35.505  28.023  14.865
41136W        W  881  18.192  18.096   2.369
41137W        W  882   5.839  37.540  11.452
41138W        W  883  15.661  29.570  12.843
41139W        W  884   2.837  36.463   5.210
41140W        W  885  36.048  29.061  11.905
41141W        W  886  25.691  12.855  14.858
41142W        W  887   7.366  10.289  14.427
41143W        W  888  34.935  42.014   1.286
41144W        W  889   3.850  15.770  10.921
41145W        W  890  10.721  15.729   1.275
41146W        W  891  44.303  15.191   1.376
41147W        W  892  43.788  35.547   0.325
41148W        W  893   2.380  27.096   1.717
41149W        W  894  37.911  19.059  11.023
41150W        W  895  37.073  35.026   0.264
41151W        W  896   6.326  38.926   5.178
41152W        W  897  26.015  33.983  10.987
41153W        W  898   6.821  21.200   1.368
41154W        W  899  21.715  41.417  12.058
41155W        W  900  30.056  15.758   3.177
41156W        W  901  22.143  12.809   2.845
41157W        W  902  17.292   2.292  14.932
41158W        W  903  39.813  17.698   0.917
41159W        W  904  38.409  13.815  12.396
41160W        W  905   9.734   9.384  12.885
41161W        W  906   6.858  43.810  14.966
41162W        W  907  39.375   8.221   4.835
41163W        W  908  39.333   5.765  10.567
41164W        W  909  39.052  31.422  12.396
41165W        W  910  32.131  15.129   4.609
41166W        W  911   9.189  41.501  12.389
41167W        W  912  27.588  32.934   2.415
41168W        W  913  44.757  40.053   1.755
41169W        W  914  16.715  24.701  14.503
41170W        W  915   8.193  42.775   2.252
41171W        W  916  23.575  28.446  12.448
41172W        W  917  13.174   9.380  12.832
41173W        W  918  44.413  13.757   3.869
41174W        W  919  41.982  39.883   0.283
41175W        W  920   1.937   8.740   0.444
41176W        W  921   1.852  25.114  10.612
41177W        W  922  10.813  23.134  11.084
41178W        W  923   9.863  42.484   2.707
41179W        W  924  13.641  23.558   0.466
41180W        W  925  21.650  34.554   2.198
41181W        W  926   2.966  43.330  14.477
41182W        W  927  41.521   1.776   2.226
41183W        W  928  31.149  16.111  12.958
41184W        W  929   5.769  14.181  14.448
41185W        W  930   4.381   1.738   0.889
41186W        W  931  25.537  26.198  14.810
41187W        W  932  11.791  41.428   4.741
41188W        W  933  43.924  20.613  12.859
41189W        W  934   6.407   7.734  11.933
41190W        W  935   2.834  18.578   2.725
41191W        W  936  31.132  24.560  11.099
41192W        W  937   4.213  34.571   2.408
41193W        W  938   0.416  29.047   2.789
41194W        W  939  40.513  30.443  12.873
41195W        W  940  33.535  44.486  12.554
41196W        W  941  41.329  10.163  14.986
41197W        W  942  27.062   6.678   4.625
41198W        W  943  16.216  41.428  10.624
41199W        W  944  44.355  35.518   1.799
41200W        W  945   9.689   7.209   0.269
41201W        W  946  22.540  35.512  13.367
41202W        W  947  21.018  33.430   1.414
41203W        W  948  32.042   0.970  12.831
41204W        W  949   7.215  28.961   0.320
41205W        W  950   0.334  16.759   0.414
41206W        W  951  35.097   1.436  13.373
41207W        W  952  27.030  32.618  14.839
41208W        W  953   4.326  41.493   1.225
41209W        W  954  23.040  31.975   0.763
41210W        W  955  12.785   9.738  13.044
41211W        W  956   0.489  34.022  12.500
41212W        W  957  32.898  31.096   0.891
41213W        W  958  42.364  31.434   0.255
41214W        W  959  30.092  43.479   0.322
41215W        W  960   0.256   2.259  14.356
41216W        W  961  31.429  41.380  14.337
41217W        W  962  25.998  38.947   3.808
41218W        W  963  26.956   8.369   3.295
41219W        W  964   6.279  19.232  11.495
41220W        W  965   7.334  39.015   2.832
41221W        W  966  42.944   6.313   3.347
41222W        W  967  22.542   8.231  11.963
41223W        W  968  27.154  28.559  14.351
41224W        W  969  29.573  15.742   9.949
41225W        W  970   9.683  42.395  11.534
41226W        W  971   0.439  19.625  13.817
41227W        W  972  23.042   5.230   4.645
41228W        W  973  18.146  20.729   3.281
41229W        W  974   3.890   9.222  12.497
41230W        W  975   0.789   4.239  12.067
41231W        W  976  43.377  17.305  11.053
41232W        W  977  32.971   2.249  14.320
41233W        W  978  37.506  12.169  13.520
41234W        W  979  29.432  44.259  11.997
41235W        W  980  11.634  15.316  14.400
41236W        W  981  32.576  28.012   5.291
41237W        W  982  11.705  40.043  10.994
41238W        W  983  38.457  43.381  11.548
41239W        W  984  23.702  19.043  13.048
41240W        W  985   3.813  42.864   4.761
41241W        W  986  12.357   3.279   4.135
41242W        W  987  13.601  37.565   2.782
41243W        W  988  27.127  16.673   2.231
41244W        W  989  11.245  14.192  13.807
41245W        W  990  35.090  37.337   5.265
41246W        W  991  35.972  33.490   4.265
41247W        W  992  21.044  41.519  13.839
41248W        W  993   6.279  36.054   2.386
41249W        W  994   1.240  13.240  11.011
41250W        W  995  19.255   1.737   5.220
41251W        W  996  21.556   8.889   3.292
41252W        W  997  10.366  23.556  12.084
41253W        W  998  10.256   4.273   5.246
41254W        W  999  15.611  14.141  11.411
41255W        W 1000  34.977  20.244   1.343
41256W        W 1001  28.024  13.667  11.590
41257W        W 1002   4.723  18.196   4.213
41258W        W 1003   5.896  22.050  10.455
41259W        W 1004  26.566   2.344   2.205
41260W        W 1005   4.383  13.812  14.480
41261W        W 1006  18.597  37.008   2.675
41262W        W 1007  40.472  30.654   4.822
41263W        W 1008  25.575  35.565  11.003
41264W        W 1009  11.768  28.591   4.673
41265W        W 1010  10.291  20.216  11.984
41266W        W 1011   5.274  27.061   3.781
41267W        W 1012  32.413  32.431   4.270
41268W        W 1013  37.349  41.342  13.516
41269W        W 1014  23.144   3.862  11.448
41270W        W 1015  18.056  43.456   4.692
41271W        W 1016   8.818  30.940  12.052
41272W        W 1017  16.712  19.142  11.514
41273W        W 1018  42.982  44.433   4.674
41274W        W 1019  28.571  25.215   4.189
41275W        W 1020  31.143  30.499   0.449
41276W        W 1021  21.733  22.011  12.480
41277W        W 1022  20.255  22.062   4.250
41278W        W 1023   3.720  29.094   2.860
41279W        W 1024  25.027  24.498  11.897
41280W        W 1025  27.557   7.413  14.788
41281W        W 1026  43.294  27.633  14.871
41282W        W 1027  23.695  25.189   0.316
41283W        W 1028  18.783  35.447   1.280
41284W        W 1029  30.045  35.391  13.528
41285W        W 1030  27.597  35.900  11.968
41286W        W 1031  32.005  16.142  10.620
41287W        W 1032  38.986  43.515   3.243
41288W        W 1033  41.300  20.124  11.106
41289W        W 1034  35.036  44.931  13.928
41290W        W 1035  38.456  14.243  14.869
41291W        W 1036   7.214  22.087   4.726
41292W        W 1037  31.539  13.795  14.451
41293W        W 1038  25.103   6.707  11.867
41294W        W 1039  38.502  22.224  10.546
41295W        W 1040   3.714  19.170   3.314
41296W        W 1041  12.730  41.990  11.522
41297W        W 1042   8.313  42.325  12.877
41298W        W 1043  15.685  15.794   0.885
41299W        W 1044  41.321  20.585  13.434
41300W        W 1045  15.642  24.170  14.887
41301W        W 1046  40.350  21.062  12.577
41302W        W 1047   0.927  42.300   0.806
41303W        W 1048  17.740   3.355  11.468
41304W        W 1049  44.279  32.982   3.203
41305W        W 1050  22.557  38.072   1.881
41306W        W 1051   5.193  40.346   0.297
41307W        W 1052   2.304   2.879   4.221
41308W        W 1053   2.232  39.326  11.982
41309W        W 1054   4.895   2.773   3.715
41310W        W 1055  23.127  32.036   3.745
41311W        W 1056  15.659  34.376   3.220
41312W        W 1057  10.787   1.371  12.906
41313W        W 1058  24.149   0.311  14.861
41314W        W 1059   0.275  26.984  14.423
41315W        W 1060  43.954  26.111   1.730
41316W        W 1061  40.305  19.624   4.338
41317W        W 1062  15.772  23.668   3.334
41318W        W 1063  39.961  16.745   4.620
41319W        W 1064  28.497  31.957  12.032
41320W        W 1065  24.188  43.966   1.226
41321W        W 1066  11.829   5.901   1.260
41322W        W 1067   9.674  23.006  11.997
41323W        W 1068  41.955  42.870  10.611
41324W        W 1069  33.449  40.413   3.241
41325W        W 1070  26.119  35.014  10.496
41326W        W 1071  26.480  39.968  12.450
41327W        W 1072  13.170   0.420  14.491
41328W        W 1073  35.984  32.457  14.937
41329W        W 1074  31.930  12.237  13.056
41330W        W 1075  35.578  15.137  10.542
41331W        W 1076  39.378  31.043   2.670
41332W        W 1077  24.711  27.045  13.970
41333W        W 1078  17.592  42.491   4.638
41334W        W 1079  13.738  13.695   2.378
41335W        W 1080  27.527  33.496   2.731
41336W        W 1081  42.803   9.223  11.410
41337W        W 1082   4.715   8.845  10.635
41338W        W 1083   7.885  15.294   3.373
41339W        W 1084  33.560  44.939   0.769
41340W        W 1085  39.532  34.883   2.819
41341W        W 1086  23.583   1.918   3.737
41342W        W 1087  35.388  19.266  13.982
41343W        W 1088   1.889  34.394   4.253
41344W        W 1089  28.118  37.430  11.599
41345W        W 1090  35.094  17.256  12.967
41346W        W 1091   4.396  34.941  14.981
41347W        W 1092  29.933   2.877  12.021
41348W        W 1093  16.621  24.001   3.655
41349W        W 1094  43.989  34.440  13.498
41350W        W 1095  34.018  21.199  11.096
41351W        W 1096   4.833  13.241   1.396
41352W        W 1097  30.031  16.704   1.438
41353W        W 1098  31.963  44.504  12.533
41354W        W 1099  13.731  38.928  12.917
41355W        W 1100  40.399  14.313   4.760
41356W        W 1101  27.571  30.989   5.211
41357W        W 1102   3.906   0.318   3.737
41358W        W 1103  22.194  39.399   0.470
41359W        W 1104  28.169   3.769   0.245
41360W        W 1105  27.556   4.287   3.378
41361W        W 1106   8.817  28.042   3.181
41362W        W 1107  26.551  30.428  11.475
41363W        W 1108  34.581  25.999  13.401
41364W        W 1109  19.699  20.532   4.249
41365W        W 1110  29.627  17.192  14.414
41366W        W 1111  39.508  39.424  13.899
41367W        W 1112  33.459  36.545  12.923
41368W        W 1113   8.245  32.487  12.453
41369W        W 1114  34.107  15.198  14.897
41370W        W 1115  14.262  25.630   2.218
41371W        W 1116  35.922   9.237  14.925
41372W        W 1117  16.754  35.960  11.532
41373W        W 1118  42.961  18.646   1.852
41374W        W 1119  28.124   9.875  11.115
41375W        W 1120  22.148  13.295   4.150
41376W        W 1121   4.375   4.243   0.780
41377W        W 1122  23.494   8.229  12.388
41378W        W 1123  22.611   8.804   3.256
41379W        W 1124  34.042   5.294  14.326
41380W        W 1125  42.030   5.690   1.375
41381W        W 1126  40.534   0.939  11.120
41382W        W 1127  38.393  22.696  14.943
41383W        W 1128  27.464   7.370   3.738
41384W        W 1129  26.678  32.548  10.888
41385W        W 1130  28.045  39.824  12.847
41386W        W 1131   2.870  33.057  10.620
41387W        W 1132  17.230  29.545  14.360
41388W        W 1133  25.651  24.026  13.947
41389W        W 1134  21.607  38.410   4.732
41390W        W 1135  20.099  13.785  12.896
41391W        W 1136  40.029  10.299   5.299
41392W        W 1137  26.029  27.946  11.899
41393W        W 1138  40.549   4.895   3.338
41394W        W 1139  44.390  33.612  12.999
41395W        W 1140   0.424  30.128  13.499
41396W        W 1141  11.800  44.876   2.896
41397W        W 1142  22.598  25.168   4.119
41398W        W 1143   2.325  25.034   0.455
41399W        W 1144  38.048  35.910   4.784
41400W        W 1145   1.937   0.928   1.815
41401W        W 1146  44.316  35.040   3.315
41402W        W 1147  40.995  34.865  12.972
41403W        W 1148   9.215  43.934   4.793
41404W        W 1149  17.201  28.603  12.384
41405W        W 1150  35.043  18.604   5.132
41406W        W 1151  13.660  22.743  10.549
41407W        W 1152  34.439  26.598   4.815
41408W        W 1153  33.572  38.020  14.336
41409W        W 1154   9.781   5.748  14.425
41410W        W 1155  16.795  27.486  11.049
41411W        W 1156  39.482   6.335   1.900
41412W        W 1157  20.216  35.088   1.933
41413W        W 1158   0.931  31.084   1.857
41414W        W 1159  13.611  21.209   2.678
41415W        W 1160   5.725  30.919   2.365
41416W        W 1161   5.298  18.289  11.545
41417W        W 1162   4.340  32.033   1.330
41418W        W 1163  34.496  43.282   1.268
41419W        W 1164  11.768  23.011   3.267
41420W        W 1165   5.803  22.170  10.915
41421W        W 1166   8.224   6.760  12.937
41422W        W 1167  44.374  41.480   9.988
41423W        W 1168  43.316  37.390   5.298
41424W        W 1169   6.246  22.085   4.139
41425W        W 1170  33.518   0.957   0.301
41426W        W 1171  33.389   6.922  12.504
41427W        W 1172  32.625   9.863  12.841
41428W        W 1173  17.307  34.001  13.325
41429W        W 1174  18.729  43.842   3.727
41430W        W 1175   2.943   1.824   0.268
41431W        W 1176  27.190  24.571  11.028
41432W        W 1177  36.918  22.091   0.297
41433W        W 1178  17.261  20.666   4.279
41434W        W 1179   7.271  40.845   3.323
41435W        W 1180  27.152  34.504  10.553
41436W        W 1181  31.106  16.813  13.455
41437W        W 1182  18.250   9.845  14.989
41438W        W 1183   4.774   0.756   3.742
41439W        W 1184  28.944  33.572  12.067
41440W        W 1185  30.930  26.556   1.363
41441W        W 1186  16.261  12.840  14.850
41442W        W 1187   2.439  30.492  11.387
41443W        W 1188  21.684   3.231   3.702
41444W        W 1189   7.228   4.358  13.372
41445W        W 1190   1.960   3.260   2.891
41446W        W 1191  20.206   3.850   4.340
41447W        W 1192  21.168  36.389  14.921
41448W        W 1193  41.313  24.031  12.859
41449W        W 1194  28.104  15.312   2.334
41450W        W 1195  40.327  38.439   2.354
41451W        W 1196  38.912  14.678   0.851
41452W        W 1197  26.635   0.465   3.722
41453W        W 1198   7.409  40.393  14.383
41454W        W 1199  10.190  36.057   1.792
41455W        W 1200  42.286  10.249   3.847
41456W        W 1201  26.986  31.137   0.420
41457W        W 1202  18.571   3.717  14.341
41458W        W 1203  28.489  11.664  13.968
41459W        W 1204   4.227  34.084   4.662
41460W        W 1205  31.644   7.212   1.243
41461W        W 1206  15.672  36.917  12.034
41462W        W 1207  14.683   0.769   1.902
41463W        W 1208  31.990   8.866  10.119
41464W        W 1209  32.601  35.973  13.842
41465W        W 1210  21.715  10.672   4.320
41466W        W 1211   9.154  23.996  12.561
41467W        W 1212  20.532   8.746   4.727
41468W        W 1213  34.530   8.181   4.337
41469W        W 1214  22.150  25.055  12.021
41470W        W 1215  26.657  19.579  12.091
41471W        W 1216  27.952  22.133  10.637
41472W        W 1217   1.736   7.888   2.318
41473W        W 1218  13.281  15.227  13.392
41474W        W 1219  43.376   4.870  14.002
41475W        W 1220   9.235   7.683   4.749
41476W        W 1221  27.633  11.291   1.843
41477W        W 1222  36.977   6.741   1.325
41478W        W 1223  10.364   0.949  11.485
41479W        W 1224   8.889   5.863   4.811
41480W        W 1225  17.203   0.339   2.669
41481W        W 1226  41.434   0.389  12.521
41482W        W 1227   2.267  19.051  12.943
41483W        W 1228  29.135  20.165  13.811
41484W        W 1229  10.248  42.793   1.905
41485W        W 1230  34.426  32.142  14.910
41486W        W 1231  15.314  13.319   1.393
41487W        W 1232   1.892  17.560   1.877
41488W        W 1233  14.265  15.234   2.893
41489W        W 1234  41.453  28.592   4.230
41490W        W 1235  32.957  29.456  14.903
41491W        W 1236  43.834  42.429   3.715
41492W        W 1237  26.070  26.020   2.665
41493W        W 1238  29.996  37.088  14.761
41494W        W 1239  19.146  13.625   1.845
41495W        W 1240  28.081   3.386   1.934
41496W        W 1241  30.500  15.802   1.863
41497W        W 1242  24.543   6.828   2.235
41498W        W 1243  28.177  30.006   1.451
41499W        W 1244  42.384  12.671   0.481
41500W        W 1245   8.666  16.809  14.786
41501W        W 1246   1.755  17.593   3.199
41502W        W 1247  27.115  38.851  12.393
41503W        W 1248   7.773  33.044   4.726
41504W        W 1249   6.722  25.994   3.776
41505W        W 1250  19.705  27.058  14.991
41506W        W 1251  33.068   5.277  14.332
41507W        W 1252  33.981  29.431  14.471
41508W        W 1253  38.443  33.427   0.886
41509W        W 1254  41.426  36.464   3.158
41510W        W 1255  30.117   6.774  13.957
41511W        W 1256   1.357  23.508  14.303
41512W        W 1257  39.338   1.897  12.547
41513W        W 1258  29.572  25.038  12.847
41514W        W 1259  25.113  36.981   2.401
41515W        W 1260   3.866   9.663  12.577
41516W        W 1261  27.473   0.267   0.798
41517W        W 1262   7.281  38.535   2.694
41518W        W 1263  41.449  21.112  12.436
41519W        W 1264   5.276   6.184  13.991
41520W        W 1265   4.752   3.911  11.601
41521W        W 1266  25.508  29.669  14.890
41522W        W 1267  27.002  43.852  10.582
41523W        W 1268  31.912  26.976   1.750
41524W        W 1269   0.840  24.612  13.053
41525W        W 1270  37.912   9.870   1.351
41526W        W 1271  34.463  13.185  11.529
41527W        W 1272   5.698   9.322  13.394
41528W        W 1273  44.950  43.783  12.518
41529W        W 1274  21.117   1.851  12.581
41530W        W 1275  38.963  17.069   3.149
41531W        W 1276   9.775  15.255   3.751
41532W        W 1277  39.495  27.956  10.077
41533W        W 1278  42.944  37.353  12.069
41534W        W 1279  14.724  13.133  14.328
41535W        W 1280  20.241  32.019  12.079
41536W        W 1281  30.064  32.060  11.372
41537W        W 1282  39.499  37.580  14.880
41538W        W 1283  19.191   5.432  12.939
41539W        W 1284  27.068  26.677  10.476
41540W        W 1285  26.494  27.600   5.243
41541W        W 1286  17.731  40.476   2.755
41542W        W 1287   3.952  44.795  11.523
41543W        W 1288  24.205  38.428  14.292
41544W        W 1289  19.222  29.029   4.120
41545W        W 1290   9.664  29.455  13.898
41546W        W 1291  37.363  25.080   0.891
41547W        W 1292  35.522  23.199  10.622
41548W        W 1293   5.721   0.904  10.894
41549W        W 1294  24.195  38.937   1.907
41550W        W 1295  35.372  14.317   4.340
41551W        W 1296  20.753  29.929  11.090
41552W        W 1297  39.461  13.813   4.238
41553W        W 1298  25.572   1.389   4.810
41554W        W 1299   9.691   6.243  14.490
41555W        W 1300  36.556   7.821  13.356
41556W        W 1301  29.572  18.686   5.083
41557W        W 1302   3.717  23.675   1.222
41558W        W 1303  20.249  22.022   2.765
41559W        W 1304  42.009  35.007  12.033
41560W        W 1305  18.607  41.373   1.403
41561W        W 1306  38.028   2.957   0.339
41562W        W 1307  21.580   7.815   1.757
41563W        W 1308  12.160  25.105   0.943
41564W        W 1309  25.104  20.582   2.702
41565W        W 1310  42.961  22.703   0.873
41566W        W 1311  20.621  15.600  11.895
41567W        W 1312  12.757  14.609   4.136
41568W        W 1313  30.035  43.830  10.560
41569W        W 1314   0.901  19.267   2.732
41570W        W 1315  31.001  42.433   2.282
41571W        W 1316  26.548  44.339   3.639
41572W        W 1317  28.156  36.935   0.449
41573W        W 1318  27.060  39.882  12.357
41574W        W 1319  42.918  28.606  13.477
41575W        W 1320   2.418  23.611   4.141
41576W        W 1321  29.500   3.762  10.014
41577W        W 1322  21.521  13.298   0.960
41578W        W 1323  15.711  22.101  11.946
41579W        W 1324   1.364  21.707   4.351
41580W        W 1325  42.839  10.645   1.429
41581W        W 1326  37.860  41.330  13.943
41582W        W 1327  10.726  20.547   4.816
41583W        W 1328  39.470   4.731  12.565
41584W        W 1329  35.068  41.442   1.838
41585W        W 1330  40.441   4.242   2.308
41586W        W 1331  21.154  42.854   4.210
41587W        W 1332  15.153   3.939  11.590
41588W        W 1333  39.999   5.742  13.991
41589W        W 1334  19.106  35.947   3.378
41590W        W 1335  26.140  44.476   1.399
41591W        W 1336  23.230  43.772  12.438
41592W        W 1337  38.867  32.443   1.217
41593W        W 1338  37.838  14.683   2.198
41594W        W 1339  35.601  27.057  14.476
41595W        W 1340  32.111  34.098   3.871
41596W        W 1341  24.588  29.136   1.279
41597W        W 1342  29.473  21.744   1.730
41598W        W 1343  26.538   4.322  11.494
41599W        W 1344  10.350  43.511   5.276
41600W        W 1345   2.757  14.832   0.759
41601W        W 1346  33.024  14.654   2.839
41602W        W 1347  25.962  22.660   2.213
41603W        W 1348  14.702  26.507   2.308
41604W        W 1349  29.021  12.184  14.860
41605W        W 1350  23.493  14.764  11.958
41606W        W 1351  34.113  22.176   3.714
41607W        W 1352  38.552   8.839   3.858
41608W        W 1353  43.314  34.480   2.325
41609W        W 1354   7.776  39.413   0.863
41610W        W 1355   8.766  43.820   2.678
41611W        W 1356   5.884  30.035  11.920
41612W        W 1357  22.597  26.526   4.152
41613W        W 1358  43.953  33.129   3.335
41614W        W 1359  25.509  40.918   2.662
41615W        W 1360   7.903  34.922  13.937
41616W        W 1361  35.041  15.242   1.741
41617W        W 1362  19.193  22.096  14.398
41618W        W 1363  38.998  18.208   5.304
41619W        W 1364  34.027  41.843   3.173
41620W        W 1365  14.589  18.548   3.644
41621W        W 1366  13.206  16.584   0.893
41622W        W 1367  30.501  17.668  14.800
41623W        W 1368  41.808  26.105  11.927
41624W        W 1369  29.600  15.752   0.361
41625W        W 1370  34.535  28.638   2.785
41626W        W 1371  12.263  23.053  12.870
41627W        W 1372  40.869   8.893   0.369
41628W        W 1373  14.340  12.714  14.474
41629W        W 1374   4.906   2.858   4.150
41630W        W 1375   7.297   9.281  12.973
41631W        W 1376  33.919  43.942  11.017
41632W        W 1377  19.272  10.339  11.109
41633W        W 1378  35.599  43.377  13.810
41634W        W 1379   5.331   7.255   0.263
41635W        W 1380  28.106  11.247   0.356
41636W        W 1381   1.257  19.195   1.840
41637W        W 1382  21.534  42.353   0.412
41638W        W 1383  26.959  18.237  14.468
41639W        W 1384  12.793  42.893  12.935
41640W        W 1385  13.823  27.528  13.841
41641W        W 1386  38.506  14.119  10.625
41642W        W 1387  39.437  31.430   0.813
41643W        W 1388  34.973  28.128  13.870
41644W        W 1389  40.890   1.304  14.466
41645W        W 1390  31.545  25.974   0.923
41646W        W 1391   6.782  39.480   1.723
41647W        W 1392  35.879   0.291  14.369
41648W        W 1393   3.418  13.296  14.437
41649W        W 1394  44.904  44.985  11.900
41650W        W 1395  15.276  32.089   0.777
41651W        W 1396  43.444  32.907   0.758
41652W        W 1397  43.970  11.164  11.975
41653W        W 1398  24.487  23.735  13.934
41654W        W 1399   3.400  40.342   2.847
41655W        W 1400  40.528  29.047  14.969
41656W        W 1401  20.043   5.427  12.541
41657W        W 1402   6.341  21.529   4.782
41658W        W 1403   0.253   2.847   2.391
41659W        W 1404  16.195  38.076  10.992
41660W        W 1405  20.106  39.475   0.922
41661W        W 1406  26.657  34.499  14.344
41662W        W 1407  44.469  11.817   0.759
41663W        W 1408  11.658   2.728  13.035
41664W        W 1409  42.933  37.935   3.207
41665W        W 1410  37.944   4.860   1.742
41666W        W 1411  43.505  41.843  14.922
41667W        W 1412  41.023  39.838   0.462
41668W        W 1413  36.930  27.108  12.372
41669W        W 1414  41.008   1.254  11.908
41670W        W 1415  29.459  22.207   1.342
41671W        W 1416   5.413  40.935  13.952
41672W        W 1417  27.584   1.314  14.787
41673W        W 1418  39.962  14.720  12.456
41674W        W 1419  16.644  32.053   1.438
41675W        W 1420   8.292  20.174   4.722
41676W        W 1421  37.012  16.568  12.412
41677W        W 1422   6.761  13.189  11.865
41678W        W 1423   7.302   9.650   3.188
41679W        W 1424  18.741  15.254  10.542
41680W        W 1425  43.385  38.828   1.850
41681W        W 1426  29.626   8.695   0.948
41682W        W 1427   9.806   0.937   0.358
41683W        W 1428  44.320   7.735   3.691
41684W        W 1429  44.315  33.036   3.724
41685W        W 1430  24.676  13.606   0.918
41686W        W 1431   6.800  20.121   3.708
41687W        W 1432  38.895  27.036  14.386
41688W        W 1433  27.111  17.725  12.912
41689W        W 1434   6.860   3.285   1.249
41690W        W 1435   5.365  28.050   3.240
41691W        W 1436   5.772  35.057   0.281
41692W        W 1437  32.469  13.112   2.357
41693W        W 1438  10.741  37.860   2.823
41694W        W 1439   9.835  30.103  13.416
41695W        W 1440  41.364  17.254  13.482
41696W        W 1441  28.123  36.443  12.498
41697W        W 1442  37.428  21.717  14.396
41698W        W 1443  25.984   9.378   4.765
41699W        W 1444   6.288  40.012  13.863
41700W        W 1445  38.456   9.324   2.310
41701W        W 1446  14.156  14.752   1.797
41702W        W 1447   3.412  44.854   3.776
41703W        W 1448  12.275  24.709  13.878
41704W        W 1449  37.496  30.144  13.945
41705W        W 1450  14.192  10.669   3.811
41706W        W 1451  40.831  42.876   0.385
41707W        W 1452  11.250  11.777   1.414
41708W        W 1453  40.837   3.953   2.894
41709W        W 1454  38.831  43.816  12.829
41710W        W 1455  17.725   6.271   0.447
41711W        W 1456  22.503  11.309   2.205
41712W        W 1457  39.560  29.145   3.802
41713W        W 1458  35.874   3.429  12.526
41714W        W 1459  19.739  22.009   2.191
41715W        W 1460  37.559  34.453  13.493
41716W        W 1461  44.932  35.959   4.215
41717W        W 1462  42.403  15.111   0.891
41718W        W 1463   7.412  34.523   0.852
41719W        W 1464  20.652  12.836  11.892
41720W        W 1465  30.118  40.960  11.021
41721W        W 1466  42.871  27.600  11.547
41722W        W 1467  41.786  35.926   2.300
41723W        W 1468  36.490   7.806   3.697
41724W        W 1469  25.979   5.253  12.386
41725W        W 1470   5.861   9.805  11.502
41726W        W 1471  33.521  41.856   4.205
41727W        W 1472   3.316  30.434  13.434
41728W        W 1473  43.812   2.439  12.513
41729W        W 1474  17.142   4.230   3.699
41730W        W 1475  44.450   0.319   2.867
41731W        W 1476   4.318  13.634   0.397
41732W        W 1477  22.197  18.578  14.471
41733W        W 1478  41.392   8.681   4.771
41734W        W 1479  25.155  43.793  11.080
41735W        W 1480  43.950   0.746   0.358
41736W        W 1481  34.382   0.309   1.792
41737W        W 1482   5.194  44.259  11.886
41738W        W 1483  31.514   5.880  14.896
41739W        W 1484   2.308  26.481  12.841
41740W        W 1485   2.787  35.998   2.256
41741W        W 1486  34.040  21.692   1.224
41742W        W 1487  23.595  10.716  12.066
41743W        W 1488   9.297   7.382  13.381
41744W        W 1489  42.314  17.797  11.013
41745W        W 1490   9.187   8.778   3.367
41746W        W 1491  43.385  34.609  12.445
41747W        W 1492  17.084   7.739  10.493
41748W        W 1493  15.820  14.312  10.025
41749W        W 1494  23.032   5.424   1.254
41750W        W 1495  26.994  11.237   1.278
41751W        W 1496  23.040  35.502  11.543
41752W        W 1497   6.778  15.282   1.719
41753W        W 1498  17.642  15.711   2.339
41754W        W 1499  19.545  40.840   0.338
41755W        W 1500  18.590   5.827   1.226
41756W        W 1501  15.636  11.187  10.031
41757W        W 1502   1.839  14.703  14.950
41758W        W 1503  31.091   0.311  14.903
41759W        W 1504  11.626  28.436   4.139
41760W        W 1505  40.408  40.446   2.245
41761W        W 1506  27.096  21.090   3.697
41762W        W 1507  12.296  33.510   2.680
41763W        W 1508  21.745  13.300   2.765
41764W        W 1509  37.889   4.404  12.017
41765W        W 1510  30.557  42.880  13.444
41766W        W 1511  14.788  27.986  10.029
41767W        W 1512  37.887  20.712   4.294
41768W        W 1513  13.300  38.495  12.032
41769W        W 1514  36.460  37.932   4.736
41770W        W 1515   1.856   8.394   0.269
41771W        W 1516  17.594  13.668  11.397
41772W        W 1517  23.049  30.987  12.413
41773W        W 1518  35.383   9.651  11.463
41774W        W 1519  32.410  11.735  14.797
41775W        W 1520  34.110   3.448  12.939
41776W        W 1521  30.019   0.310  12.915
41777W        W 1522  38.550  19.729  11.460
41778W        W 1523  34.482  10.709  12.364
41779W        W 1524  30.555  12.337   3.828
41780W        W 1525   6.227   6.911  14.375
41781W        W 1526   7.724  18.671   5.256
41782W        W 1527   3.356  17.776   0.245
41783W        W 1528  36.514  10.762   2.339
41784W        W 1529  37.040  41.848   2.744
41785W        W 1530  20.762  30.483   1.703
41786W        W 1531  39.929  35.578  12.024
41787W        W 1532  38.375  32.101  12.468
41788W        W 1533  31.576  14.104   2.245
41789W        W 1534  33.623   2.894  10.927
41790W        W 1535   3.903  34.432  13.877
41791W        W 1536  32.574  14.117  10.050
41792W        W 1537  14.295  23.146  13.427
41793W        W 1538  20.741  41.368   1.934
41794W        W 1539  42.480   1.766   2.335
41795W        W 1540  31.957  41.409  12.965
41796W        W 1541   9.343  33.427  14.775
41797W        W 1542  15.193  39.828   3.702
41798W        W 1543  20.768   3.832  12.384
41799W        W 1544  16.259  36.956   3.188
41800W        W 1545  13.699  19.236  11.443
41801W        W 1546  34.031   3.920  14.376
41802W        W 1547   1.920  35.424   2.322
41803W        W 1548   9.282  31.935   0.897
41804W        W 1549  16.177  32.534   0.246
41805W        W 1550  26.999  11.222   2.199
41806W        W 1551  41.979   8.702  13.508
41807W        W 1552   9.724   8.248  11.415
41808W        W 1553  10.146  43.500   2.398
41809W        W 1554  31.447  15.597  13.369
41810W        W 1555  15.659  14.258  14.479
41811W        W 1556  21.550  39.897  12.089
41812W        W 1557   6.339   0.774  12.072
41813W        W 1558  21.199  17.756   2.808
41814W        W 1559   9.681  40.948   4.662
41815W        W 1560  19.121  11.229   2.387
41816W        W 1561   1.844   2.403   0.793
41817W        W 1562   0.349  25.503  11.019
41818W        W 1563  12.280  16.667   4.287
41819W        W 1564  23.700  31.147   0.911
41820W        W 1565  11.638  24.516   0.439
41821W        W 1566  44.791  10.805  12.826
41822W        W 1567  17.100  43.822  14.765
41823W        W 1568  43.329  39.046   3.703
41824W        W 1569  30.500  16.731   2.387
41825W        W 1570  39.939  24.063  13.838
41826W        W 1571  34.928  31.910  10.000
41827W        W 1572  34.515  41.379  13.526
41828W        W 1573   7.808  36.039   4.598
41829W        W 1574   8.337  16.713   0.250
41830W        W 1575  13.723  12.692   0.777
41831W        W 1576  25.593  17.765  12.949
41832W        W 1577   1.266  26.997   0.366
41833W        W 1578   1.905  25.497   3.798
41834W        W 1579  34.871  31.488  11.552
41835W        W 1580  18.742  12.744   2.672
41836W        W 1581  11.729  21.041   0.877
41837W        W 1582  30.115  44.485  14.390
41838W        W 1583  44.449  12.757   2.680
41839W        W 1584  42.402  22.733   3.298
41840W        W 1585  23.057  32.919   2.779
41841W        W 1586  24.545  14.231  13.314
41842W        W 1587  21.073  23.562   2.884
41843W        W 1588  16.596  31.016   0.323
41844W        W 1589   5.245  13.829  10.998
41845W        W 1590   9.786  29.578  11.574
41846W        W 1591  37.060  17.143   0.759
41847W        W 1592  40.877  21.726   0.479
41848W        W 1593  39.524  15.700  12.507
41849W        W 1594  27.516  10.749  12.835
41850W        W 1595  21.085  25.968  13.819
41851W        W 1596  37.894  10.858   1.928
41852W        W 1597  26.160   9.816   1.797
41853W        W 1598  35.477   5.818  14.853
41854W        W 1599   0.391  15.811   3.824
41855W        W 1600  40.798   0.923   4.114
41856W        W 1601  32.494  40.467  10.548
41857W        W 1602   5.369  43.422  12.885
41858W        W 1603  13.210  39.463  12.838
41859W        W 1604  36.845  44.376  10.587
41860W        W 1605  15.149  14.691   2.815
41861W        W 1606  12.638  30.907   2.293
41862W        W 1607   7.402   7.829   2.252
41863W        W 1608   3.953  15.601   1.826
41864W        W 1609  29.166  27.192   0.323
41865W        W 1610  34.025  22.176   5.133
41866W        W 1611   2.847  19.267  12.857
41867W        W 1612  25.623  12.762   1.867
41868W        W 1613   5.337   2.356  14.835
41869W        W 1614  22.182  24.071  13.996
41870W        W 1615  34.504  11.357   0.478
41871W        W 1616   9.871  34.929   2.833
41872W        W 1617   1.445  22.084   1.702
41873W        W 1618  21.661  27.599   3.750
41874W        W 1619  36.490  42.453  14.980
41875W        W 1620   3.324  21.094   2.719
41876W        W 1621  32.531  33.032   2.321
41877W        W 1622  26.119  22.048  11.374
41878W        W 1623   9.718   3.824  13.061
41879W        W 1624  24.654  35.951  14.764
41880W        W 1625  12.181   0.844   2.217
41881W        W 1626  40.474  19.595  12.569
41882W        W 1627  21.023  20.273  11.911
41883W        W 1628  31.409  39.373   2.272
41884W        W 1629  21.261  19.066  10.630
41885W        W 1630  27.953   6.838  13.059
41886W        W 1631   9.756  33.588   1.385
41887W        W 1632  40.425  39.525   2.258
41888W        W 1633  28.107   3.272   2.402
41889W        W 1634  14.315  19.538   0.759
41890W        W 1635  18.574   3.347   3.177
41891W        W 1636  38.409  30.125   4.283
41892W        W 1637  39.345  30.491   4.150
41893W        W 1638  26.591  35.881   0.428
41894W        W 1639  24.570   9.276  13.885
41895W        W 1640   8.833  31.050  11.063
41896W        W 1641   2.821  41.460  14.869
41897W        W 1642  12.251  10.775   3.833
41898W        W 1643  17.197  12.275  10.961
41899W        W 1644   1.237  40.980   3.731
41900W        W 1645  33.890  20.717   0.380
41901W        W 1646  19.652  16.103  14.347
41902W        W 1647  27.464  22.119   3.721
41903W        W 1648   6.858  18.097  10.422
41904W        W 1649   2.381  25.004  12.079
41905W        W 1650  10.312  18.580  14.384
41906W        W 1651  14.638  41.909  10.888
41907W        W 1652  37.536   4.799   1.377
41908W        W 1653  39.410  18.727   0.848
41909W        W 1654   0.772  27.145   1.735
41910W        W 1655  37.021   9.821   2.836
41911W        W 1656   6.748  18.600  10.418
41912W        W 1657   5.751  14.721   1.306
41913W        W 1658  20.695  41.797   0.328
41914W        W 1659  16.728  40.039   3.295
41915W        W 1660   7.381  17.724   3.703
41916W        W 1661   8.839  36.954  12.486
41917W        W 1662  23.143  35.856  12.554
41918W        W 1663  36.096   9.854  13.912
41919W        W 1664  28.078  39.513   1.831
41920W        W 1665  18.163  44.886  12.084
41921W        W 1666  29.543  14.189  13.921
41922W        W 1667  37.374  22.666  14.345
41923W        W 1668  31.085  10.262   1.865
41924W        W 1669   2.946  42.952   2.299
41925W        W 1670  29.489  40.515  11.074
41926W        W 1671  16.592  33.465  14.370
41927W        W 1672  25.583  34.906  12.085
41928W        W 1673  25.686  27.024   0.944
41929W        W 1674  15.688  35.580  13.313
41930W        W 1675  42.392  35.432   3.735
41931W        W 1676   6.399  37.541  14.411
41932W        W 1677  20.273  20.248   2.369
41933W        W 1678  10.234  12.149   3.262
41934W        W 1679   3.748  37.449  11.053
41935W        W 1680  11.231  10.196  14.963
41936W        W 1681   6.921  42.806   3.189
41937W        W 1682  17.249  42.896  12.970
41938W        W 1683  31.059  14.094   4.135
41939W        W 1684  29.627  32.559   0.774
41940W        W 1685  13.744  39.907   4.756
41941W        W 1686   1.246  11.813  14.023
41942W        W 1687  27.518  27.078   3.253
41943W        W 1688  19.285  39.333   0.284
41944W        W 1689   7.862  21.525   3.866
41945W        W 1690   4.920  23.049  11.583
41946W        W 1691  23.592  31.572  12.981
41947W        W 1692  39.988   7.905  13.841
41948W        W 1693  40.476  41.474   2.341
41949W        W 1694   0.397  27.070  10.976
41950W        W 1695  11.298  34.394   1.815
41951W        W 1696  31.918  44.838  11.587
41952W        W 1697  20.222  28.092  13.042
41953W        W 1698  41.389   5.245   1.783
41954W        W 1699  22.526  22.610  10.909
41955W        W 1700  10.298   7.794   0.826
41956W        W 1701  43.484  30.980  14.005
41957W        W 1702   9.221  37.867   1.444
41958W        W 1703  36.875   1.819   2.216
41959W        W 1704   9.759  35.954  11.121
41960W        W 1705  26.669   2.289   4.611
41961W        W 1706  42.353  42.846  13.804
41962W        W 1707  35.027   5.733   1.779
41963W        W 1708  26.574  28.103  10.957
41964W        W 1709  37.426  37.021  13.463
41965W        W 1710  40.871  35.958   2.685
41966W        W 1711  30.946   9.215  12.095
41967W        W 1712  33.394  28.033   2.897
41968W        W 1713  34.087  16.279  13.831
41969W        W 1714  12.839  41.295   0.383
41970W        W 1715  28.501  17.610   2.219
41971W        W 1716  22.150  25.563   2.709
41972W        W 1717   9.361  44.839  10.562
41973W        W 1718  39.446   9.314  12.405
41974W        W 1719  40.899  29.663   4.664
41975W        W 1720  27.072  13.635   4.254
41976W        W 1721  14.785  25.197   3.641
41977W        W 1722  15.245  32.084  12.066
41978W        W 1723  41.904  17.602   4.811
41979W        W 1724  22.065  27.081   1.811
41980W        W 1725   8.690  41.830  14.343
41981W        W 1726  16.741  26.606   4.604
41982W        W 1727   1.277  42.943   1.734
41983W        W 1728  44.864   1.935   4.119
41984W        W 1729  40.919   0.411  13.505
41985W        W 1730  18.771   6.425   1.235
41986W        W 1731  35.427  17.212  14.783
41987W        W 1732  42.793  32.019   4.776
41988W        W 1733  26.117  17.635   1.340
41989W        W 1734  40.953  24.180   1.315
41990W        W 1735  19.539  23.181  11.399
41991W        W 1736   6.320  31.585   4.634
41992W        W 1737  23.572  17.072   2.902
41993W        W 1738  44.370  30.156  11.948
41994W        W 1739  32.411  10.318  10.023
41995W        W 1740  14.112  29.033  14.317
41996W        W 1741  36.371  22.637   3.649
41997W        W 1742  19.730   3.866   1.820
41998W        W 1743   5.297  29.515  13.907
41999W        W 1744   3.817  10.736  13.858
42000W        W 1745  40.427  18.232   4.146
42001W        W 1746  13.183  24.208  13.946
42002W        W 1747   0.945  28.992   4.115
42003W        W 1748   1.977  41.531   2.216
42004W        W 1749  11.676  12.822  12.565
42005W        W 1750   3.277  30.658   2.813
42006W        W 1751  15.704  32.415  10.944
42007W        W 1752  33.626  27.090   1.904
42008W        W 1753  33.924  22.614  10.442
42009W        W 1754  31.056  21.206  11.904
42010W        W 1755  28.623   8.229   3.773
42011W        W 1756  44.893  39.038  11.966
42012W        W 1757   0.467   1.250  14.372
42013W        W 1758  12.238  19.716  12.537
42014W        W 1759  42.980   0.863  13.532
42015W        W 1760   0.292   5.364   2.726
42016W        W 1761  28.001  28.539  10.910
42017W        W 1762  26.592  27.970  10.633
42018W        W 1763   4.310  21.186   3.753
42019W        W 1764  44.903   6.232  10.440
42020W        W 1765  14.649  42.991   1.383
42021W        W 1766   8.201   0.373   2.295
42022W        W 1767   6.192  11.800  10.635
42023W        W 1768  24.109  12.743   2.221
42024W        W 1769  25.092  44.984  11.512
42025W        W 1770  21.118  44.309   0.336
42026W        W 1771  20.258  44.407   3.746
42027W        W 1772  30.631  43.270   4.774
42028W        W 1773  32.517  30.487   9.932
42029W        W 1774  32.581  16.676   0.441
42030W        W 1775   4.800   2.782  13.437
42031W        W 1776  31.963  37.388  13.359
42032W        W 1777  34.874  22.596  10.442
42033W        W 1778  34.370  23.024   3.632
42034W        W 1779  26.588  38.472  12.478
42035W        W 1780  42.938  17.709   3.234
42036W        W 1781  24.661  31.921   1.333
42037W        W 1782  41.977  27.943  14.945
42038W        W 1783  39.322  41.488   4.675
42039W        W 1784  20.666  22.672   1.824
42040W        W 1785  34.040  23.057   1.743
42041W        W 1786  37.352  33.422   1.419
42042W        W 1787   3.285  24.979   4.256
42043W        W 1788  20.167   1.357  13.846
42044W        W 1789   7.833  18.265  12.352
42045W        W 1790  44.340  18.605   1.870
42046W        W 1791  37.513  13.308   0.332
42047W        W 1792  28.005   9.753  14.012
42048W        W 1793  27.671  28.600  12.408
42049W        W 1794  17.750  26.953   2.331
42050W        W 1795   3.860   8.715   3.737
42051W        W 1796  10.807   5.932  11.073
42052W        W 1797  32.999  42.522   2.355
42053W        W 1798  10.258  18.120  12.061
42054W        W 1799  29.083  23.551   2.694
42055W        W 1800  12.716  42.389   4.132
42056W        W 1801  32.085   8.171  10.489
42057W        W 1802  16.792   4.293  10.629
42058W        W 1803  40.031  31.605  12.831
42059W        W 1804  10.743  44.845   4.238
42060W        W 1805  33.888  37.902  14.821
42061W        W 1806   8.826  43.861   3.703
42062W        W 1807   1.801  41.005   3.764
42063W        W 1808  12.137  41.377  10.913
42064W        W 1809   1.757  32.972  10.433
42065W        W 1810   2.731   8.361  11.384
42066W        W 1811  29.027   6.373  12.424
42067W        W 1812  41.511  20.081  10.615
42068W        W 1813  31.016  43.986  12.930
42069W        W 1814  19.223  28.451   3.736
42070W        W 1815  36.072   7.359   3.826
42071W        W 1816  26.581  23.987  11.478
42072W        W 1817  42.796  33.595  14.843
42073W        W 1818   7.363  30.438   0.280
42074W        W 1819  19.199   1.452  10.021
42075W        W 1820  42.395  24.724  10.585
42076W        W 1821  29.491  17.074  13.868
42077W        W 1822  20.186  33.452   2.778
42078W        W 1823  10.692   4.423  11.996
42079W        W 1824  25.628   8.801   1.874
42080W        W 1825  15.234  13.118  10.920
42081W        W 1826  31.025   9.865   3.254
42082W        W 1827  11.777  26.613  10.041
42083W        W 1828   6.877  22.088  13.974
42084W        W 1829   1.481  17.708   2.690
42085W        W 1830  16.699  42.491  11.593
42086W        W 1831  32.509  39.892  13.821
42087W        W 1832  34.543  31.014  10.912
42088W        W 1833  12.354   0.844  10.619
42089W        W 1834  21.620  10.203  14.007
42090W        W 1835  29.960  26.201   5.122
42091W        W 1836  19.154   7.839   0.307
42092W        W 1837   9.785  27.607  12.918
42093W        W 1838  31.938  31.036   2.392
42094W        W 1839  35.079  40.965   4.598
42095W        W 1840  14.215   4.782   2.758
42096W        W 1841  39.000  25.661   2.331
42097W        W 1842  14.120  23.732  11.941
42098W        W 1843  40.498  44.397   9.988
42099W        W 1844  14.686  29.427  10.004
42100W        W 1845  34.972  13.260  14.281
42101W        W 1846   5.280  35.528  10.605
42102W        W 1847  44.759   5.276   1.737
42103W        W 1848  38.342  38.570  11.933
42104W        W 1849  21.120  16.073  11.916
42105W        W 1850  34.430   5.762  12.566
42106W        W 1851  41.461   9.807   2.254
42107W        W 1852  37.920  20.104  14.361
42108W        W 1853  16.131  25.081  10.911
42109W        W 1854  28.597  20.527  11.858
42110W        W 1855  43.947   8.697   2.768
42111W        W 1856  32.984  22.061  11.030
42112W        W 1857   3.242  30.136  12.037
42113W        W 1858  33.559  21.709   0.320
42114W        W 1859   8.268  42.292  14.803
42115W        W 1860  34.062  42.895  12.359
42116W        W 1861  40.345  30.978   4.612
42117W        W 1862  10.181  13.758   0.809
42118W        W 1863  14.642  36.373   2.265
42119W        W 1864  29.457  11.305   3.647
42120W        W 1865  41.863  24.666   4.181
42121W        W 1866   1.360  37.416  13.431
42122W        W 1867  11.301   1.329   4.297
42123W        W 1868  33.039  34.581   1.272
42124W        W 1869   3.920  21.607  14.400
42125W        W 1870   2.396  14.171   3.807
42126W        W 1871  34.078  34.999  14.381
42127W        W 1872  42.416   1.301   2.880
42128W        W 1873   4.737  20.527   0.931
42129W        W 1874  13.819  20.042  10.448
42130W        W 1875  22.186   5.784   1.310
42131W        W 1876  39.941  21.721   2.360
42132W        W 1877  23.015  39.828  10.645
42133W        W 1878  28.594  10.208  12.545
42134W        W 1879  42.030  13.759  14.918
42135W        W 1880  16.711  24.080   3.307
42136W        W 1881  43.423  37.908   3.781
42137W        W 1882  44.362  31.927   1.829
42138W        W 1883  11.163  35.039   3.188
42139W        W 1884  36.367  23.579   0.812
42140W        W 1885  16.686  27.017  11.474
42141W        W 1886  33.510  19.163  12.550
42142W        W 1887   4.263  39.528  11.976
42143W        W 1888   5.387  31.062  12.493
42144W        W 1889  41.368  11.207  13.978
42145W        W 1890  35.523  12.254  12.856
42146W        W 1891  27.113  10.139   1.872
42147W        W 1892  18.632  21.675  14.991
42148W        W 1893  11.631  21.653  13.363
42149W        W 1894  24.621  29.935  10.557
42150W        W 1895  28.497  33.029  10.530
42151W        W 1896  25.517  10.701   2.296
42152W        W 1897   9.380  36.513  10.514
42153W        W 1898  19.065   8.331   2.275
42154W        W 1899   3.365   5.406  12.427
42155W        W 1900   4.917  20.691   1.708
42156W        W 1901  23.622   8.750  10.530
42157W        W 1902  13.252  43.298  13.939
42158W        W 1903  31.599  23.092  12.423
42159W        W 1904   3.322  23.233   4.131
42160W        W 1905   4.874  36.017   2.830
42161W        W 1906  26.576  40.463   1.885
42162W        W 1907   5.788   0.264   2.724
42163W        W 1908  40.400  30.006  11.985
42164W        W 1909  33.547  10.826   1.699
42165W        W 1910   6.266  21.643  14.947
42166W        W 1911  17.748  37.893  12.503
42167W        W 1912  23.103  27.192  13.355
42168W        W 1913   0.967  39.333  11.997
42169W        W 1914  18.220   5.387   0.268
42170W        W 1915  20.733  35.032   0.290
42171W        W 1916  11.328  37.433  13.903
42172W        W 1917  44.965   4.715   1.374
42173W        W 1918  25.567  18.778   3.153
42174W        W 1919  19.581   8.693   2.412
42175W        W 1920   3.752  14.623  12.915
42176W        W 1921   5.744  15.271  14.805
42177W        W 1922  10.703  15.807   1.872
42178W        W 1923  27.949  33.882   2.381
42179W        W 1924  42.971  40.822   4.623
42180W        W 1925  44.977   0.915  11.914
42181W        W 1926  31.105  12.293   2.305
42182W        W 1927   2.878  23.105   4.246
42183W        W 1928  22.582  15.219   0.773
42184W        W 1929  21.023  40.969   4.732
42185W        W 1930   4.768   9.651  11.935
42186W        W 1931  18.207  41.526   1.914
42187W        W 1932  44.473  25.644   2.385
42188W        W 1933  11.725  37.535  13.980
42189W        W 1934  37.402   8.843  12.411
42190W        W 1935  25.508  34.991   4.153
42191W        W 1936  36.915  27.119  13.025
42192W        W 1937  40.486  37.923  13.956
42193W        W 1938  27.063  30.453  10.448
42194W        W 1939  43.991  23.119  14.401
42195W        W 1940  32.976   0.457  14.355
42196W        W 1941   0.488  44.005   1.731
42197W        W 1942  29.625  44.357  12.452
42198W        W 1943  43.380  11.867   4.191
42199W        W 1944  13.347  36.468   2.800
42200W        W 1945   8.789   2.463  13.819
42201W        W 1946   1.240  44.445  10.085
42202W        W 1947  20.697  17.282  10.156
42203W        W 1948  30.563  38.430  13.395
42204W        W 1949  30.415  33.448   0.429
42205W        W 1950  18.226  24.640  12.528
42206W        W 1951  40.410  17.639  14.856
42207W        W 1952  28.473  21.535   3.271
42208W        W 1953  30.585  42.812  14.011
42209W        W 1954  26.654  39.940   2.216
42210W        W 1955  38.889   3.903   2.389
42211W        W 1956   4.918  11.758  12.950
42212W        W 1957  18.704  21.568  10.888
42213W        W 1958  20.574  44.346   0.909
42214W        W 1959  27.956   0.861   3.806
42215W        W 1960  29.124  14.686   3.791
42216W        W 1961  30.485  39.938   2.370
42217W        W 1962  31.417   5.839   3.254
42218W        W 1963  38.466  14.249  12.346
42219W        W 1964  22.511  10.160   3.317
42220W        W 1965  36.372  16.759  13.007
42221W        W 1966  24.652   6.421   1.310
42222W        W 1967  12.687   8.807  12.451
42223W        W 1968  15.092   7.844  14.815
42224W        W 1969  14.318  26.633  12.521
42225W        W 1970  32.067  20.651   2.275
42226W        W 1971  25.705  23.585   3.257
42227W        W 1972  12.117  35.075   3.825
42228W        W 1973  39.525  29.116   0.268
42229W        W 1974  36.508  17.744   9.926
42230W        W 1975  21.639  24.007  12.020
42231W        W 1976   1.460  34.037   0.374
42232W        W 1977  36.861  24.005   4.263
42233W        W 1978  40.962  27.565   0.293
42234W        W 1979  34.390  38.479  10.952
42235W        W 1980  27.680  26.543   0.444
42236W        W 1981  21.110  19.585   5.301
42237W        W 1982  17.586  37.497   9.517
42238W        W 1983  14.095   6.377  12.941
42239W        W 1984  14.330  29.549   2.201
42240W        W 1985  37.549   3.824   1.438
42241W        W 1986  23.677  30.550   1.384
42242W        W 1987  31.549  17.195  13.955
42243W        W 1988  25.641  17.144  14.940
42244W        W 1989  41.004  14.284   3.187
42245W        W 1990  14.689   7.767  13.460
42246W        W 1991  35.026   4.282  11.479
42247W        W 1992   4.387  13.234   2.804
42248W        W 1993  11.853  37.036  13.963
42249W        W 1994  42.957  29.591  14.980
42250W        W 1995  33.125   6.193   1.796
42251W        W 1996  32.442  22.661   1.851
42252W        W 1997   3.266  37.486  13.822
42253W        W 1998  44.894  22.564   4.686
42254W        W 1999  32.604  19.669  12.405
42255W        W 2000  31.588  16.602  10.464
42256W        W 2001  38.045   7.909  11.028
42257W        W 2002  42.009  27.670   3.301
42258W        W 2003   9.233  28.498   2.694
42259W        W 2004   1.938  23.082   0.887
42260W        W 2005  27.558  36.498   3.273
42261W        W 2006  11.267  13.736   1.385
42262W        W 2007  20.229  18.174  12.377
42263W        W 2008  23.663  23.091   1.765
42264W        W 2009  19.082  39.904  13.541
42265W        W 2010  23.991  22.625   2.861
42266W        W 2011  42.415  20.563   2.247
42267W        W 2012  35.425  43.503   3.689
42268W        W 2013  41.415  16.671   4.614
42269W        W 2014  22.136   8.330   4.766
42270W        W 2015  35.584  24.228  14.455
42271W        W 2016   2.381  15.242  10.889
42272W        W 2017  31.445  41.398   2.799
42273W        W 2018  31.503  31.913   3.313
42274W        W 2019   4.849   7.329  12.971
42275W        W 2020  26.088  20.708  11.582
42276W        W 2021  20.033   0.746  10.411
42277W        W 2022  13.116  23.697   3.714
42278W        W 2023   3.709  39.855   3.207
42279W        W 2024  10.656  12.765  13.919
42280W        W 2025  28.964  25.022  11.048
42281W        W 2026  16.746  41.927  11.982
42282W        W 2027   4.863  19.656   5.127
42283W        W 2028  36.899  28.170  10.421
42284W        W 2029  18.554  29.432  12.933
42285W        W 2030   8.828   1.800  14.878
42286W        W 2031  20.553  42.462  11.969
42287W        W 2032  10.175  12.794  12.416
42288W        W 2033  44.764  30.955   2.720
42289W        W 2034  44.327  22.604  14.476
42290W        W 2035  41.813  33.085   4.336
42291W        W 2036  16.125  17.066   0.455
42292W        W 2037  37.388  41.833  14.425
42293W        W 2038  17.242  34.569   5.647
42294W        W 2039   3.913  20.724   2.701
42295W        W 2040  24.061  37.908   2.322
42296W        W 2041  36.488  30.473   3.748
42297W        W 2042   2.311  35.545   0.868
42298W        W 2043  32.394  28.046  14.995
42299W        W 2044  23.009  36.938  14.996
42300W        W 2045  10.710   0.454   2.222
42301W        W 2046  27.052  14.263  10.591
42302W        W 2047  15.291  42.424  13.002
42303W        W 2048  20.641  23.517  12.547
42304W        W 2049  36.586  42.810   0.848
42305W        W 2050  19.236  12.296  14.796
42306W        W 2051  40.938  32.557  13.539
42307W        W 2052  24.033   8.819  10.467
42308W        W 2053   3.289  26.614   5.110
42309W        W 2054  32.985   1.773  12.464
42310W        W 2055  31.928  10.240   2.779
42311W        W 2056  36.561  43.290   4.688
42312W        W 2057  22.134   6.399  11.092
42313W        W 2058  29.493  37.005  14.398
42314W        W 2059   7.784   1.319  12.825
42315W        W 2060  19.623   3.774   2.416
42316W        W 2061  44.287   3.403   2.805
42317W        W 2062  24.078  31.039  13.023
42318W        W 2063   8.834  19.234  11.093
42319W        W 2064  39.011  13.218   4.146
42320W        W 2065  15.632   3.459   2.179
42321W        W 2066  22.038  33.125   1.903
42322W        W 2067  21.677   1.326   2.821
42323W        W 2068  36.462  40.499   1.871
42324W        W 2069  10.771  23.556  14.441
42325W        W 2070  37.926  17.684  13.994
42326W        W 2071  38.538  29.575  13.842
42327W        W 2072   3.422  13.148  10.954
42328W        W 2073  27.074  36.445  14.834
42329W        W 2074  32.910  16.601   2.345
42330W        W 2075  43.811  24.123  14.502
42331W        W 2076  13.253  26.063   0.298
42332W        W 2077  34.490  22.613   3.227
42333W        W 2078   9.347  18.210   5.244
42334W        W 2079  25.123  24.111  12.535
42335W        W 2080   2.241   0.255   4.311
42336W        W 2081  20.154   3.296  11.874
42337W        W 2082   2.366  42.372   4.247
42338W        W 2083   1.384  31.443  12.556
42339W        W 2084  19.634  35.994  10.428
42340W        W 2085  26.559  11.296   1.309
42341W        W 2086  19.223  35.439   3.250
42342W        W 2087  15.651  26.057  11.117
42343W        W 2088  43.291  10.302   4.190
42344W        W 2089   6.390  20.650  10.633
42345W        W 2090   5.747  14.303  10.510
42346W        W 2091  15.705   8.317   0.786
42347W        W 2092  18.728  19.624  13.964
42348W        W 2093  11.280  34.872  14.364
42349W        W 2094  35.970   5.801   1.857
42350W        W 2095  44.861  19.603   0.942
42351W        W 2096  17.266  28.493  12.980
42352W        W 2097  21.171  13.726  10.593
42353W        W 2098   0.269   1.743  10.491
42354W        W 2099  27.007  39.485   0.304
42355W        W 2100  33.563  44.296   1.726
42356W        W 2101   2.773  22.685  11.443
42357W        W 2102  36.385  11.193   0.456
42358W        W 2103  26.661  29.456  14.407
42359W        W 2104  37.342  19.044  13.359
42360W        W 2105  11.150   2.326  13.466
42361W        W 2106  28.160  13.632   1.401
42362W        W 2107   5.843  17.565  11.985
42363W        W 2108  16.098  42.302   0.807
42364W        W 2109   3.397  40.033  11.959
42365W        W 2110  30.478   9.253   5.219
42366W        W 2111   6.848  19.712  12.918
42367W        W 2112   2.774  34.508  10.498
42368W        W 2113  27.188  24.976  13.413
42369W        W 2114  35.514   3.843  14.432
42370W        W 2115  10.831   6.703   4.646
42371W        W 2116  16.072  33.976   1.850
42372W        W 2117  40.383  40.498   0.418
42373W        W 2118  12.783  28.065  11.483
42374W        W 2119  42.932  40.344  10.551
42375W        W 2120  35.389  20.525   4.347
42376W        W 2121  33.996  42.802  13.936
42377W        W 2122  23.564  41.883   4.672
42378W        W 2123  34.522   5.221  12.343
42379W        W 2124  12.644  38.330  12.030
42380W        W 2125  32.547  13.741  13.988
42381W        W 2126  19.748  19.258   3.293
42382W        W 2127  43.463   3.341  14.329
42383W        W 2128   8.333   7.277   3.248
42384W        W 2129  14.804  31.906  11.601
42385W        W 2130  26.465  12.362  12.404
42386W        W 2131  18.123  36.568  10.909
42387W        W 2132  29.601  14.253  10.518
42388W        W 2133   0.912  14.135   9.946
42389W        W 2134  43.916  27.051   3.736
42390W        W 2135  27.196   0.314  14.819
42391W        W 2136  31.606  23.518  14.852
42392W        W 2137  24.129   0.304   4.792
42393W        W 2138  41.940  20.113  11.945
42394W        W 2139   4.708  35.589   1.391
42395W        W 2140  44.408  33.539   0.919
42396W        W 2141   1.390  37.874   3.196
42397W        W 2142   7.707  21.736   1.224
42398W        W 2143  33.920  44.405  14.800
42399W        W 2144  38.869  38.432   3.866
42400W        W 2145  30.974  39.481  12.414
42401W        W 2146   6.381  43.431  12.580
42402W        W 2147   9.258  40.498   1.906
42403W        W 2148  18.183  21.600   1.755
42404W        W 2149  37.990  40.408   0.320
42405W        W 2150  26.541  31.127   9.613
42406W        W 2151  35.021   6.841   1.847
42407W        W 2152  11.785  16.609   4.833
42408W        W 2153  24.129  13.135   0.787
42409W        W 2154  41.346  12.764  13.814
42410W        W 2155  39.349  17.579  13.951
42411W        W 2156  21.606  21.511   4.749
42412W        W 2157   3.420   4.807   3.206
42413W        W 2158  38.505  23.042   3.859
42414W        W 2159  44.880  36.034  14.278
42415W        W 2160  41.408  13.795  11.921
42416W        W 2161  20.586  34.464   2.299
42417W        W 2162  42.918  30.566   5.139
42418W        W 2163  38.884  29.925   0.336
42419W        W 2164  16.316  31.448  13.007
42420W        W 2165   2.761  31.559  12.949
42421W        W 2166  31.624  35.856   1.756
42422W        W 2167  32.034  41.507   1.759
42423W        W 2168   7.741   2.940  13.953
42424W        W 2169  14.226  10.358   4.756
42425W        W 2170  32.082  42.837  11.891
42426W        W 2171   9.315  10.875   3.269
42427W        W 2172   7.758  41.917   3.669
42428W        W 2173   2.764  40.812  10.581
42429W        W 2174  28.035  31.139  14.317
42430W        W 2175  21.243  34.517  11.891
42431W        W 2176  35.974  32.548   1.751
42432W        W 2177  14.235  43.007  11.878
42433W        W 2178  21.228  19.057  11.554
42434W        W 2179  18.724  37.006  13.980
42435W        W 2180  33.975   1.957  10.497
42436W        W 2181   8.812  14.239   0.409
42437W        W 2182  16.792  22.731   3.169
42438W        W 2183   4.265  16.644   1.305
42439W        W 2184   7.359  28.166   4.682
42440W        W 2185  28.165  26.960   2.363
42441W        W 2186  17.603  21.518   3.190
42442W        W 2187   5.375  37.421   3.842
42443W        W 2188  40.002  26.144  11.917
42444W        W 2189  26.674  13.203   2.857
42445W        W 2190  40.875  42.965   3.655
42446W        W 2191  15.632  29.076  13.019
42447W        W 2192  41.828   3.391  10.159
42448W        W 2193  30.112  36.448  12.450
42449W        W 2194  27.024  27.087   3.682
42450W        W 2195  37.978   4.275  11.572
42451W        W 2196  42.897  39.953  12.553
42452W        W 2197  38.945   4.259  12.066
42453W        W 2198   4.875  11.793  12.090
42454W        W 2199  20.229  29.159  13.917
42455W        W 2200  37.365  19.153   0.836
42456W        W 2201  18.233  32.394  12.941
42457W        W 2202  34.922  14.209  12.951
42458W        W 2203  19.091  42.340   1.380
42459W        W 2204  16.212   9.695   2.740
42460W        W 2205  22.041  43.836  13.492
42461W        W 2206  36.454   6.847   4.212
42462W        W 2207  18.246  21.622   2.806
42463W        W 2208  12.830  30.483  14.371
42464W        W 2209   5.807  26.649   3.319
42465W        W 2210  14.628  28.551   3.746
42466W        W 2211  40.500  31.926  12.068
42467W        W 2212  35.025  36.446  11.395
42468W        W 2213  13.732   8.344   0.429
42469W        W 2214  42.353   8.295  12.382
42470W        W 2215  34.993  15.262   4.766
42471W        W 2216  31.502  22.105   3.709
42472W        W 2217   3.434  27.590   9.607
42473W        W 2218   3.950  19.247  13.887
42474W        W 2219  17.293  41.037   2.394
42475W        W 2220  35.379  18.222   1.792
42476W        W 2221  20.628   4.923   1.795
42477W        W 2222  26.621   5.416   5.215
42478W        W 2223   6.810  36.864  13.341
42479W        W 2224   8.369  12.200  10.540
42480W        W 2225  25.495  36.082  12.968
42481W        W 2226  29.554  13.275   1.371
42482W        W 2227  42.306  44.310  12.834
42483W        W 2228  24.204  38.425  11.481
42484W        W 2229  26.567  11.313   3.629
42485W        W 2230  42.366  31.086   4.826
42486W        W 2231   0.441  42.480   4.147
42487W        W 2232  15.085  18.769  14.451
42488W        W 2233  19.775  14.608  11.595
42489W        W 2234  32.636   2.442   1.362
42490W        W 2235  34.891   9.151   2.672
42491W        W 2236  27.100  42.820  11.121
42492W        W 2237  37.568  23.224  12.454
42493W        W 2238  26.586  39.852   4.277
42494W        W 2239  33.081  27.180   0.927
42495W        W 2240  43.316  29.145  13.875
42496W        W 2241  29.043  19.262   0.457
42497W        W 2242   2.733   3.847  13.322
42498W        W 2243  20.094   7.878  13.798
42499W        W 2244   9.734  38.836  13.352
42500W        W 2245  14.833  38.466   4.263
42501W        W 2246  31.135  38.987   1.904
42502W        W 2247  22.183  29.670  11.590
42503W        W 2248  27.484  11.306  11.028
42504W        W 2249   0.362  25.029  10.984
42505W        W 2250  41.384  34.873  12.831
42506W        W 2251  21.598  20.063   1.332
42507W        W 2252  24.003  33.575  10.938
42508W        W 2253  35.880  28.555  14.346
42509W        W 2254  26.993  33.524  12.096
42510W        W 2255   1.973   3.793  11.878
42511W        W 2256   8.174  20.544   2.192
42512W        W 2257  22.093   4.936  13.479
42513W        W 2258   7.281  40.334  12.025
42514W        W 2259  37.347   7.219   1.711
42515W        W 2260  26.000  23.090   3.718
42516W        W 2261  30.006   7.743   0.835
42517W        W 2262  16.252  15.248   3.809
42518W        W 2263  20.524  26.464  14.911
42519W        W 2264   3.310  31.918  10.585
42520W        W 2265  21.714   1.319   5.709
42521W        W 2266  11.238  35.924  11.519
42522W        W 2267  20.639  28.164   4.727
42523W        W 2268  27.071  42.357   4.670
42524W        W 2269   0.468  31.055   0.320
42525W        W 2270  40.836  44.367   3.657
42526W        W 2271   4.828  11.746  10.557
42527W        W 2272  35.407  24.585  11.427
42528W        W 2273  16.658  13.315   1.750
42529W        W 2274  27.089  34.065  14.979
42530W        W 2275  40.975  32.099  10.547
42531W        W 2276  40.332  40.327  12.997
42532W        W 2277  39.049  28.586   4.267
42533W        W 2278  22.658  21.043  10.152
42534W        W 2279   7.382  10.259  14.822
42535W        W 2280  33.090  35.063   3.744
42536W        W 2281   4.205  42.445  14.920
42537W        W 2282  17.260  11.129  11.379
42538W        W 2283   3.301  41.890  12.036
42539W        W 2284   2.416   0.855  14.938
42540W        W 2285  22.019  42.871  14.771
42541W        W 2286  40.859  41.493   3.163
42542W        W 2287  10.274   9.347   3.677
42543W        W 2288   9.671  27.451   2.808
42544W        W 2289  20.183  16.796   3.222
42545W        W 2290  19.587  21.034   3.196
42546W        W 2291  19.070  22.731   0.814
42547W        W 2292   1.441  24.113   4.261
42548W        W 2293  20.204  35.054  13.485
42549W        W 2294  22.109  23.633  10.542
42550W        W 2295  31.518   1.902   1.229
42551W        W 2296  35.891  35.007   2.356
42552W        W 2297  18.558   8.842   9.991
42553W        W 2298  14.271  16.690   1.823
42554W        W 2299   4.408  40.332   0.474
42555W        W 2300  17.079  38.828  13.523
42556W        W 2301   9.282   7.296   3.351
42557W        W 2302  22.539  26.537  12.411
42558W        W 2303  36.480  21.036   3.765
42559W        W 2304  43.007  36.073  10.978
42560W        W 2305  31.061  10.748  12.498
42561W        W 2306  41.962  32.527  13.820
42562W        W 2307   2.855  33.585   3.752
42563W        W 2308   5.734  36.996  13.032
42564W        W 2309  43.944  36.880   1.359
42565W        W 2310   7.181  18.121  13.420
42566W        W 2311   1.879  42.492  14.782
42567W        W 2312   6.343   8.690  10.417
42568W        W 2313  27.016   7.256   4.626
42569W        W 2314  35.857  30.434   3.227
42570W        W 2315  44.815  32.437  12.855
42571W        W 2316  28.958  24.114  14.956
42572W        W 2317  15.657  33.051   2.295
42573W        W 2318  10.836  41.830  12.383
42574W        W 2319  16.657  13.694   1.376
42575W        W 2320  11.271  35.092  14.961
42576W        W 2321  26.208  20.710   2.214
42577W        W 2322   1.418  24.585   3.775
42578W        W 2323  21.589  11.704  13.823
42579W        W 2324  14.710   3.401   3.748
42580W        W 2325  41.394  10.872  14.292
42581W        W 2326  24.600  17.228   9.541
42582W        W 2327  18.649   6.359   3.771
42583W        W 2328  14.214  27.160  10.439
42584W        W 2329  24.618  40.002   0.956
42585W        W 2330  42.526  30.655   1.716
42586W        W 2331  37.019  13.842  12.932
42587W        W 2332  42.931  35.447   2.767
42588W        W 2333  28.061   3.731   2.354
42589W        W 2334  29.654  40.936   2.872
42590W        W 2335  35.515   8.894   2.185
42591W        W 2336  21.130  37.566   2.347
42592W        W 2337   3.830  16.788  11.391
42593W        W 2338   5.739  43.956  10.559
42594W        W 2339  31.996  14.314   3.710
42595W        W 2340   9.867  25.572   2.714
42596W        W 2341  43.019  36.577  13.481
42597W        W 2342   1.240   1.242   1.845
42598W        W 2343  12.315  33.095  15.000
42599W        W 2344  25.972  13.749   1.708
42600W        W 2345   4.806  30.553   0.251
42601W        W 2346   2.868   2.840   1.714
42602W        W 2347   0.297  23.671   0.354
42603W        W 2348  34.073  32.020  12.486
42604W        W 2349  40.996  18.233   4.679
42605W        W 2350  11.306  33.399  11.420
42606W        W 2351   0.365  43.333  14.364
42607W        W 2352   1.867  28.649   5.083
42608W        W 2353  20.669   7.721   3.698
42609W        W 2354  40.989  17.776  12.488
42610W        W 2355  20.105  35.056  12.091
42611W        W 2356  32.989  36.489  14.912
42612W        W 2357  25.636  12.790   0.386
42613W        W 2358  43.506  15.752   2.757
42614W        W 2359  34.442  36.410   0.801
42615W        W 2360  24.571  21.571  11.888
42616W        W 2361  31.644   8.787  10.596
42617W        W 2362  11.370  44.331   1.745
42618W        W 2363  32.023   4.918   3.267
42619W        W 2364  42.856  12.278  14.971
42620W        W 2365  14.150  10.220  14.926
42621W        W 2366  35.587  40.489   1.443
42622W        W 2367  12.171  18.726  11.387
42623W        W 2368   3.269  11.637   2.185
42624W        W 2369  39.450   0.381  10.477
42625W        W 2370  42.847   3.911  11.879
42626W        W 2371  17.767  28.536   0.780
42627W        W 2372  29.095  23.531  12.565
42628W        W 2373  43.785  16.205  12.459
42629W        W 2374  12.685  34.392  11.495
42630W        W 2375  34.080   3.746   2.338
42631W        W 2376  14.214  42.338   3.794
42632W        W 2377  19.205  12.141  10.408
42633W        W 2378   1.274  21.200  13.411
42634W        W 2379   7.696  21.635  10.898
42635W        W 2380  14.338   5.362   0.465
42636W        W 2381  20.707  27.972   0.966
42637W        W 2382  17.240   1.906  14.880
42638W        W 2383  10.303  20.641  11.538
42639W        W 2384   0.359  17.568  13.022
42640W        W 2385  18.637  31.077  12.506
42641W        W 2386  36.536  30.953   1.444
42642W        W 2387  41.394  15.766  11.579
42643W        W 2388  39.887   1.828  11.935
42644W        W 2389  17.135  15.683  12.024
42645W        W 2390  37.854  24.658  11.572
42646W        W 2391  30.529  10.313   0.449
42647W        W 2392  21.124  27.008  13.863
42648W        W 2393  25.637  24.682   4.762
42649W        W 2394  35.895  28.464   2.801
42650W        W 2395   3.360   4.910   1.293
42651W        W 2396  35.101  34.884  14.815
42652W        W 2397   6.794   5.421  11.071
42653W        W 2398   2.832  40.815   0.482
42654W        W 2399  16.654  28.006  13.374
42655W        W 2400  32.059  41.357  10.522
42656W        W 2401  22.217  14.767   2.198
42657W        W 2402  14.766  20.678  10.935
42658W        W 2403  23.643  29.502  12.491
42659W        W 2404  20.223   2.344   1.380
42660W        W 2405  24.662  27.179  14.798
42661W        W 2406  11.138  16.074   0.803
42662W        W 2407  25.963   7.834  14.358
42663W        W 2408  34.983  16.239  14.365
42664W        W 2409   3.447  27.135  13.431
42665W        W 2410   0.787  37.079   1.449
42666W        W 2411  17.589  19.708   1.885
42667W        W 2412  25.094  24.635  12.377
42668W        W 2413   5.323  31.580  12.038
42669W        W 2414  19.127  14.282   0.420
42670W        W 2415  23.131  34.504  12.878
42671W        W 2416   7.752   6.736   3.248
42672W        W 2417  21.624   9.189   0.447
42673W        W 2418  13.601  24.566   2.325
42674W        W 2419  27.653   3.460  12.403
42675W        W 2420  37.565   9.152  12.450
42676W        W 2421  14.649  27.466  10.588
42677W        W 2422  16.665  26.064   3.216
42678W        W 2423  14.778  24.501  13.522
42679W        W 2424  24.019  44.818  13.822
42680W        W 2425  32.958  36.502   0.285
42681W        W 2426  13.196  13.839   4.809
42682W        W 2427   7.823  25.051  14.974
42683W        W 2428   9.873  11.162   2.822
42684W        W 2429  27.085   3.906  14.984
42685W        W 2430  17.700  35.978  14.472
42686W        W 2431  38.430  28.050   0.256
42687W        W 2432  14.229  22.998   1.931
42688W        W 2433  42.925  13.351  14.403
42689W        W 2434   6.237   2.252   0.945
42690W        W 2435  18.746  19.089  13.908
42691W        W 2436  42.505  33.406  13.501
42692W        W 2437  14.096   8.263   2.365
42693W        W 2438  31.098  38.011   1.713
42694W        W 2439  12.696   0.940  14.871
42695W        W 2440  10.878  21.037   4.323
42696W        W 2441  31.593   9.808  13.381
42697W        W 2442  17.796  14.792   0.282
42698W        W 2443  19.722  27.525  10.083
42699W        W 2444   9.185   3.744  14.778
42700W        W 2445  43.006  20.623  14.286
42701W        W 2446  39.345  41.804  13.383
42702W        W 2447  26.457  10.318   0.271
42703W        W 2448  41.000  34.043  10.612
42704W        W 2449  44.398   1.467  12.843
42705W        W 2450  33.129  17.100  12.925
42706W        W 2451   9.378  23.584  12.903
42707W        W 2452  43.363  38.005  12.877
42708W        W 2453  39.832   4.414  14.381
42709W        W 2454  28.050  24.086   2.337
42710W        W 2455  27.526  32.025   0.295
42711W        W 2456  31.990   7.221  14.823
42712W        W 2457   1.799   4.758  14.907
42713W        W 2458  31.405  16.600   4.670
42714W        W 2459  42.382   3.215  11.007
42715W        W 2460   7.357  32.526  12.009
42716W        W 2461  33.917   5.872   2.886
42717W        W 2462  24.181   0.415   3.368
42718W        W 2463  25.528  32.087  13.851
42719W        W 2464  12.355  24.520  13.541
42720W        W 2465  24.515  39.479  10.619
42721W        W 2466  20.160  34.068   4.276
42722W        W 2467  22.676  36.909   4.649
42723W        W 2468  21.242  10.195   4.253
42724W        W 2469  38.566   0.419  13.546
42725W        W 2470  42.394  36.579  13.417
42726W        W 2471  41.973   0.755  13.490
42727W        W 2472  40.490  24.044   2.794
42728W        W 2473  26.017  40.335  13.401
42729W        W 2474  35.969  30.961   4.320
42730W        W 2475  27.192  43.820   0.423
42731W        W 2476  37.389  22.182   4.256
42732W        W 2477   1.840   6.856  14.822
42733W        W 2478   2.820  21.193  11.923
42734W        W 2479   7.799   4.937  11.502
42735W        W 2480  29.658  32.573  11.901
42736W        W 2481  19.757  40.036   1.261
42737W        W 2482  28.096  23.137   4.636
42738W        W 2483  22.524  25.191   1.332
42739W        W 2484  21.579  24.670  11.446
42740W        W 2485  12.651   9.712   2.859
42741W        W 2486   0.828  27.975   5.592
42742W        W 2487  38.826  33.906   0.324
42743W        W 2488   2.740  29.652   1.263
42744W        W 2489  28.062  12.270   1.411
42745W        W 2490  40.317  44.005  12.053
42746W        W 2491  22.589  24.636  11.498
42747W        W 2492  25.688  17.726   4.234
42748W        W 2493  13.332  12.171   2.844
42749W        W 2494   4.292   6.207  12.858
42750W        W 2495  32.954  27.099  13.818
42751W        W 2496  23.608  19.091  11.444
42752W        W 2497  18.234   9.354  11.121
42753W        W 2498  13.112   8.272   2.671
42754W        W 2499  15.162  18.064  10.618
42755W        W 2500   4.896  10.664   3.306
42756W        W 2501   8.334  12.236   4.228
42757W        W 2502  36.979   1.883  10.438
42758W        W 2503  26.166   3.290  13.985
42759W        W 2504  21.581   5.281   4.804
42760W        W 2505  25.618  12.761  11.442
42761W        W 2506  20.606  17.190   0.391
42762W        W 2507  18.197  35.466  11.470
42763W        W 2508   6.688  15.739  12.475
42764W        W 2509  36.369  31.923   9.997
42765W        W 2510  22.141  21.730  11.524
42766W        W 2511  27.639   4.378  10.537
42767W        W 2512  12.671  16.639   0.862
42768W        W 2513  28.532   1.467  10.597
42769W        W 2514  17.723  18.130  13.334
42770W        W 2515  11.651  13.653   2.376
42771W        W 2516  12.183  29.447   1.859
42772W        W 2517   8.774  10.706  14.329
42773W        W 2518  14.116   2.333  14.309
42774W        W 2519  21.727  27.459  13.417
42775W        W 2520  41.512  43.404  13.991
42776W        W 2521  20.604  20.524  11.927
42777W        W 2522  33.048  14.309  11.929
42778W        W 2523   5.194  27.168   1.449
42779W        W 2524  29.926  16.211  13.823
42780W        W 2525  23.008  16.642  14.489
42781W        W 2526   5.733  23.058   1.797
42782W        W 2527  36.573  18.075  13.061
42783W        W 2528  40.976  15.696  14.762
42784W        W 2529  11.348  16.708   2.413
42785W        W 2530  13.701  21.727   2.862
42786W        W 2531  38.856  26.088  13.435
42787W        W 2532  35.404  20.728   3.183
42788W        W 2533  27.116  32.627   1.902
42789W        W 2534  41.359  40.526   2.677
42790W        W 2535  31.990   1.416   0.379
42791W        W 2536  40.544  15.725  13.038
42792W        W 2537  13.793  27.483   2.775
42793W        W 2538  15.157   1.824  10.540
42794W        W 2539  24.526  11.686  12.464
42795W        W 2540  17.234  40.537  14.025
42796W        W 2541  27.672  38.334  13.492
42797W        W 2542   1.243  32.489  11.966
42798W        W 2543  33.031  22.726   4.228
42799W        W 2544  40.004  36.508   3.380
42800W        W 2545  11.749  44.404   5.133
42801W        W 2546  37.545  33.989   4.273
42802W        W 2547  44.859  43.405   2.353
42803W        W 2548  40.343  30.036  12.956
42804W        W 2549  34.469  29.015   4.153
42805W        W 2550  42.822  35.999  13.844
42806W        W 2551  25.530  11.676   4.770
42807W        W 2552   2.924  23.125   2.697
42808W        W 2553   7.212  24.597  10.909
42809W        W 2554  41.421  11.342  15.000
42810W        W 2555   3.321  28.090  14.000
42811W        W 2556  30.565  12.288   0.793
42812W        W 2557   9.817  20.137  12.557
42813W        W 2558  14.609  22.182  10.918
42814W        W 2559  20.107  19.192   0.798
42815W        W 2560  43.275   1.264  14.461
42816W        W 2561  17.122   2.267  10.424
42817W        W 2562  20.711  11.769  14.426
42818W        W 2563   6.330  31.912   5.280
42819W        W 2564  33.400  11.652   2.777
42820W        W 2565  11.812  37.952  14.421
42821W        W 2566  27.592  19.093  14.373
42822W        W 2567  37.376  36.402   0.829
42823W        W 2568  33.049   9.287   0.421
42824W        W 2569   1.281  26.629  10.544
42825W        W 2570   2.742  20.040   0.904
42826W        W 2571   8.212  31.150  12.563
42827W        W 2572  19.047  13.316  14.783
42828W        W 2573  11.653  13.667  11.443
42829W        W 2574  29.087  27.079  13.053
42830W        W 2575  36.516   8.862   1.929
42831W        W 2576  44.788  39.843  11.119
42832W        W 2577  24.667   1.937   3.867
42833W        W 2578  12.179  14.195  12.008
42834W        W 2579  27.114  36.559   3.274
42835W        W 2580  17.075   0.980   2.276
42836W        W 2581  20.193  38.022  11.078
42837W        W 2582  20.047  26.571  11.490
42838W        W 2583  26.019   1.822   4.827
42839W        W 2584   5.905  44.003   3.737
42840W        W 2585  34.924  30.045  13.371
42841W        W 2586  15.655  13.257  12.057
42842W        W 2587   7.770  22.541   3.166
42843W        W 2588  20.052  36.358  11.970
42844W        W 2589  20.765  36.527   1.764
42845W        W 2590  28.661  37.469  11.104
42846W        W 2591  30.542  25.046   1.368
42847W        W 2592  31.633  36.016   3.719
42848W        W 2593   6.270  27.050   1.902
42849W        W 2594  14.786  29.087   4.150
42850W        W 2595  31.416  43.491   1.356
42851W        W 2596  15.731   5.376  10.509
42852W        W 2597  11.189  41.527   3.333
42853W        W 2598   8.189   0.373   4.795
42854W        W 2599  31.606   5.207   9.436
42855W        W 2600  38.562  28.987  10.961
42856W        W 2601  26.129  28.051  13.009
42857W        W 2602  33.622  15.141  14.367
42858W        W 2603  13.672  28.048  14.338
42859W        W 2604  27.124  35.047  13.868
42860W        W 2605  35.058   0.974   3.160
42861W        W 2606   2.372   2.740  14.336
42862W        W 2607  44.437  26.652  10.951
42863W        W 2608  22.594  42.291   0.243
42864W        W 2609   2.925  34.428   1.749
42865W        W 2610  15.577  25.963  11.912
42866W        W 2611   5.792  44.764   2.217
42867W        W 2612   5.768  24.158  10.534
42868W        W 2613  20.118   9.766   0.306
42869W        W 2614  35.584  31.644   3.298
42870W        W 2615  10.382  44.487  10.567
42871W        W 2616   7.777  37.337   0.331
42872W        W 2617  43.468   9.861   2.191
42873W        W 2618  39.958  18.547   1.837
42874W        W 2619  30.526  17.589  13.417
42875W        W 2620   7.764   9.643   3.736
42876W        W 2621  40.004  18.677   4.762
42877W        W 2622  24.155  22.645  10.515
42878W        W 2623  11.728  25.482  13.910
42879W        W 2624  24.084  19.146  13.016
42880W        W 2625  17.215  32.062  13.354
42881W        W 2626  16.772  10.213   3.786
42882W        W 2627   0.947   1.356   0.949
42883W        W 2628  14.742  16.734  14.767
42884W        W 2629  27.515  44.348   4.827
42885W        W 2630  14.599  36.451  11.912
42886W        W 2631  31.480  13.755   0.399
42887W        W 2632   9.826  36.408   2.378
42888W        W 2633  42.957  15.818   1.842
42889W        W 2634  19.705  24.175   4.674
42890W        W 2635  26.107   7.296   4.808
42891W        W 2636  13.773   4.808  14.503
42892W        W 2637  25.641  39.431  14.853
42893W        W 2638  14.098  18.575   2.225
42894W        W 2639  18.207  13.113   1.391
42895W        W 2640   1.280  30.441  13.857
42896W        W 2641  30.142  19.102   9.560
42897W        W 2642   6.692  14.601  10.620
42898W        W 2643  43.373   9.321  12.043
42899W        W 2644  15.131  38.557   0.815
42900W        W 2645  26.559  39.531  11.447
42901W        W 2646  21.027  34.885  11.445
42902W        W 2647  43.815  29.437  13.520
42903W        W 2648   7.902  25.680   1.342
42904W        W 2649  36.911  18.258   1.881
42905W        W 2650  33.582   9.875  10.590
42906W        W 2651  12.851  43.899  11.964
42907W        W 2652  37.466  37.504  10.115
42908W        W 2653  35.053  11.708  14.903
42909W        W 2654  12.170  31.527  10.471
42910W        W 2655  32.497   2.852  14.406
42911W        W 2656  40.306  27.635  11.002
42912W        W 2657  18.611  33.938   0.250
42913W        W 2658   1.958  21.179   3.654
42914W        W 2659  24.146  21.593   2.255
42915W        W 2660  26.135   2.337   3.633
42916W        W 2661  43.350  22.045   3.232
42917W        W 2662  28.933   8.318   5.244
42918W        W 2663  44.316  36.581  14.926
42919W        W 2664  30.164  29.997   2.803
42920W        W 2665  39.829  30.621   0.926
42921W        W 2666  20.757  33.889   4.206
42922W        W 2667   2.859   5.311  12.950
42923W        W 2668  36.425  20.542  11.923
42924W        W 2669  14.614  39.819   1.775
42925W        W 2670   3.835  17.574  13.405
42926W        W 2671  33.571  24.591   5.095
42927W        W 2672  37.395  33.426   3.785
42928W        W 2673  44.879  31.918   1.748
42929W        W 2674  36.916  41.423  10.604
42930W        W 2675  18.228  18.118  12.061
42931W        W 2676  12.329  19.695  11.451
42932W        W 2677   5.748  35.859   4.709
42933W        W 2678   1.483  31.118   0.366
42934W        W 2679   7.343   3.253   4.690
42935W        W 2680  24.548  37.535   0.441
42936W        W 2681   0.944  34.962  11.377
42937W        W 2682   2.401  12.256   4.678
42938W        W 2683   1.317  26.616   1.404
42939W        W 2684  11.314  25.160  10.929
42940W        W 2685   5.220  16.696  12.961
42941W        W 2686  30.416  22.747   4.152
42942W        W 2687  39.045   8.280  11.940
42943W        W 2688  26.518  24.973   0.476
42944W        W 2689  33.096  16.160   2.407
42945W        W 2690  11.297  20.031  14.811
42946W        W 2691   8.689  10.773   4.310
42947W        W 2692  30.644  40.543   3.705
42948W        W 2693  23.539  22.092   3.780
42949W        W 2694  36.578  28.076   4.642
42950W        W 2695  43.951  22.238   4.731
42951W        W 2696   1.387  27.004  11.421
42952W        W 2697   7.798  14.208   3.863
42953W        W 2698  25.021  11.216  11.506
42954W        W 2699  23.040  29.575  10.155
42955W        W 2700  17.701  12.640  14.922
42956W        W 2701  20.651  12.169   2.837
42957W        W 2702  32.433   2.424  11.970
42958W        W 2703  26.578  19.734  14.950
42959W        W 2704  36.584  21.537  10.970
42960W        W 2705  44.380  24.570   1.248
42961W        W 2706   8.745  21.019  12.048
42962W        W 2707  22.136  36.864   2.200
42963W        W 2708  26.496  24.578   1.281
42964W        W 2709   9.276   0.850  10.601
42965W        W 2710  21.755   2.230   1.714
42966W        W 2711  18.727   3.299   4.160
42967W        W 2712  41.990  32.058  11.508
42968W        W 2713  27.509  33.891  10.518
42969W        W 2714  33.130  40.844   4.158
42970W        W 2715  32.430  22.703  14.798
42971W        W 2716   8.332  10.179  13.886
42972W        W 2717  23.218   0.285   0.909
42973W        W 2718  37.918  20.694  13.005
42974W        W 2719  26.952  27.122   4.667
42975W        W 2720  27.056  24.697   4.125
42976W        W 2721  28.092  36.912  11.918
42977W        W 2722   7.371   1.481   2.292
42978W        W 2723  17.573  27.569  12.831
42979W        W 2724  36.356  22.129   3.747
42980W        W 2725  42.523   4.850   4.826
42981W        W 2726  28.665  29.581   2.752
42982W        W 2727  33.006  15.714   2.844
42983W        W 2728   2.959  28.016  11.014
42984W        W 2729  44.268  34.532   1.844
42985W        W 2730  41.949   2.879  14.284
42986W        W 2731  12.295  29.117   4.648
42987W        W 2732  40.318  35.913   2.852
42988W        W 2733  36.066  42.934   4.175
42989W        W 2734  40.801  28.661   3.767
42990W        W 2735  26.072  44.779  13.361
42991W        W 2736  18.775  34.591  10.509
42992W        W 2737  18.682   8.333   2.761
42993W        W 2738  18.204   9.291   1.273
42994W        W 2739  26.584   7.879  14.289
42995W        W 2740   6.314  26.163   0.824
42996W        W 2741   0.746  28.461   2.209
42997W        W 2742   2.323  20.565   4.324
42998W        W 2743  31.030  20.093  13.983
42999W        W 2744  39.893  29.643  12.390
43000W        W 2745  21.139  41.506  14.314
43001W        W 2746  34.402  36.376   4.783
43002W        W 2747  25.555  29.458   2.257
43003W        W 2748  35.480  28.936  14.800
43004W        W 2749   0.843  40.539  12.063
43005W        W 2750  22.015   3.376   4.636
43006W        W 2751  41.943  22.029  11.090
43007W        W 2752   2.245  38.538   2.866
43008W        W 2753  23.693  12.285  14.418
43009W        W 2754  10.291  15.123  14.433
43010W        W 2755  44.376   2.405  13.940
43011W        W 2756   0.807   3.284  12.896
43012W        W 2757   5.215  25.180  12.085
43013W        W 2758  31.037   7.278  11.529
43014W        W 2759   7.242  39.399  11.403
43015W        W 2760  21.169  18.661   3.730
43016W        W 2761  17.296  23.241   1.236
43017W        W 2762  33.472   5.794   0.829
43018W        W 2763  44.459  11.646  14.850
43019W        W 2764   7.240  19.542  11.594
43020W        W 2765   7.217  35.879   1.382
43021W        W 2766   5.793  43.360  11.571
43022W        W 2767  24.480   2.862   5.805
43023W        W 2768  44.300  24.502  14.838
43024W        W 2769  13.680  27.193   1.755
43025W        W 2770  32.019  37.856  11.913
43026W        W 2771  40.989  26.577   0.854
43027W        W 2772  38.407  23.170   0.254
43028W        W 2773   7.776  42.313  11.960
43029W        W 2774  26.462   3.371   4.222
43030W        W 2775   5.255  21.017  13.370
43031W        W 2776  30.647  14.244   1.290
43032W        W 2777  12.780  29.977  14.880
43033W        W 2778  42.327  21.190   3.684
43034W        W 2779  25.011  30.601  11.914
43035W        W 2780  41.967   6.832   1.696
43036W        W 2781   3.914  37.846  14.009
43037W        W 2782   0.849   6.769   0.831
43038W        W 2783  19.133   2.721  14.307
43039W        W 2784   6.242  12.173   1.834
43040W        W 2785  28.546  43.011  14.508
43041W        W 2786   2.963  29.473   0.854
43042W        W 2787   3.716  39.507  11.109
43043W        W 2788  35.986   6.765  11.561
43044W        W 2789   0.475  36.010   3.324
43045W        W 2790  28.616  21.148  12.898
43046W        W 2791  25.196   5.760   0.378
43047W        W 2792  17.262  24.661   4.229
43048W        W 2793  32.637   3.840  14.916
43049W        W 2794  43.424  13.106  12.962
43050W        W 2795  16.292  16.197  13.457
43051W        W 2796  26.496   3.286   3.742
43052W        W 2797  31.455  29.996   2.862
43053W        W 2798  39.033  41.932  12.563
43054W        W 2799  25.087  32.407   2.414
43055W        W 2800  39.383  17.778  10.991
43056W        W 2801  14.591  40.405  11.116
43057W        W 2802  14.134  19.063   0.813
43058W        W 2803  30.658   4.249  12.876
43059W        W 2804   6.416  43.494   1.223
43060W        W 2805   9.702   9.665   4.257
43061W        W 2806   0.810   5.755   1.829
43062W        W 2807   5.858  25.095   1.704
43063W        W 2808   5.818  24.105   4.816
43064W        W 2809  21.099  39.427  12.035
43065W        W 2810  25.649  10.677  14.947
43066W        W 2811  39.818  17.233  13.973
43067W        W 2812  14.835  27.966   0.349
43068W        W 2813  12.144  35.052  12.525
43069W        W 2814  24.706  35.562  13.350
43070W        W 2815  13.162  21.517   4.174
43071W        W 2816   1.806  31.603  13.850
43072W        W 2817   7.717  36.536   4.339
43073W        W 2818  31.020   2.337   2.330
43074W        W 2819  15.630  29.621   5.091
43075W        W 2820   5.895  42.288   0.452
43076W        W 2821  15.639   8.236   2.757
43077W        W 2822  32.911   0.360   2.285
43078W        W 2823  43.295  20.270   1.335
43079W        W 2824  19.250  25.086  11.917
43080W        W 2825  32.012  13.157   3.363
43081W        W 2826  30.571  35.958   3.638
43082W        W 2827  23.704  12.693  13.926
43083W        W 2828  17.200  32.619  14.865
43084W        W 2829  29.152  41.851  14.427
43085W        W 2830  29.570  38.010  10.613
43086W        W 2831   8.355  12.159  13.048
43087W        W 2832  28.959  44.328  14.296
43088W        W 2833  28.505   7.350   0.950
43089W        W 2834  16.177   3.907  11.531
43090W        W 2835  31.528  23.154  13.506
43091W        W 2836  36.911  24.064  14.315
43092W        W 2837  29.486  36.051  13.915
43093W        W 2838  39.382  38.368   2.853
43094W        W 2839   5.304  24.098  13.511
43095W        W 2840  14.221  18.267   4.640
43096W        W 2841  44.504  39.323  14.858
43097W        W 2842  30.436  41.480  12.369
43098W        W 2843  27.618  33.942  13.328
43099W        W 2844  10.794  20.730  13.960
43100W        W 2845  18.685   6.907   0.323
43101W        W 2846   9.322  14.155  11.528
43102W        W 2847   5.302   6.380   1.392
43103W        W 2848  13.147   0.311   2.307
43104W        W 2849  21.204  26.509  14.503
43105W        W 2850  11.838   4.784   4.684
43106W        W 2851  24.215  11.349  12.904
43107W        W 2852  16.622  33.542  12.858
43108W        W 2853   5.831   3.363   0.802
43109W        W 2854  40.388  43.852  10.460
43110W        W 2855  20.760  31.116   4.644
43111W        W 2856  18.722  16.181   2.788
43112W        W 2857   2.882  33.416  12.092
43113W        W 2858   3.448  39.954   2.738
43114W        W 2859  41.964  24.206   3.633
43115W        W 2860  41.849   9.792  14.967
43116W        W 2861   5.740  33.984   2.887
43117W        W 2862  21.065  27.948   3.311
43118W        W 2863  27.585   8.674   0.449
43119W        W 2864  28.465  23.713   3.665
43120W        W 2865  36.092  26.152  11.010
43121W        W 2866  36.455   0.380  11.409
43122W        W 2867   3.901  31.111  10.478
43123W        W 2868  15.094  18.604  14.919
43124W        W 2869  12.305  29.561  11.397
43125W        W 2870   0.327   9.278   0.884
43126W        W 2871  17.615  35.534  14.771
43127W        W 2872  29.135  44.262  11.580
43128W        W 2873  32.091  20.111  12.527
43129W        W 2874  19.140  11.757  10.939
43130W        W 2875  16.121  39.477  13.055
43131W        W 2876  26.203  21.729  10.498
43132W        W 2877  35.945  38.983  12.830
43133W        W 2878  23.489  14.693   3.644
43134W        W 2879  26.044  15.254  12.516
43135W        W 2880  38.038  38.031  13.819
43136W        W 2881  25.004   2.952  10.534
43137W        W 2882  25.193  43.772  14.807
43138W        W 2883  44.413  12.711   0.851
43139W        W 2884  15.766  13.739  13.340
43140W        W 2885  31.930  15.724   3.281
43141W        W 2886   7.720  42.362   3.312
43142W        W 2887   4.888  35.889   0.364
43143W        W 2888  14.826  36.882   1.421
43144W        W 2889  39.418   6.212   3.290
43145W        W 2890  35.975  25.145  13.907
43146W        W 2891  17.232  27.648  13.041
43147W        W 2892  44.907  25.092  12.976
43148W        W 2893  23.170  15.709  11.093
43149W        W 2894  22.565   1.347   1.794
43150W        W 2895  13.295   7.904  10.606
43151W        W 2896  11.703  17.138   2.839
43152W        W 2897   7.898   0.255  14.514
43153W        W 2898   6.884  30.133   0.935
43154W        W 2899  38.875   0.491   0.903
43155W        W 2900  11.765   3.804  12.080
43156W        W 2901  44.803  39.930  14.787
43157W        W 2902  35.570  42.514   0.878
43158W        W 2903  42.408  10.773  10.997
43159W        W 2904  33.886  36.371   4.602
43160W        W 2905  28.030  28.014   3.231
43161W        W 2906  27.149  18.223  13.513
43162W        W 2907  16.753  11.745   0.956
43163W        W 2908  28.637  25.993   2.866
43164W        W 2909   8.808   0.885  14.827
43165W        W 2910  22.693  33.936   3.788
43166W        W 2911  28.541  11.841   3.825
43167W        W 2912  35.407  10.763   2.779
43168W        W 2913  36.977  20.667   0.356
43169W        W 2914  36.423  25.210   5.314
43170W        W 2915  21.140  16.309   1.351
43171W        W 2916  33.008   7.842   0.780
43172W        W 2917  26.617  16.202  14.410
43173W        W 2918  43.465  19.094   1.741
43174W        W 2919  43.436  35.560   0.425
43175W        W 2920  41.911  11.230  10.458
43176W        W 2921  24.219   9.771  12.095
43177W        W 2922  12.823   9.754  10.906
43178W        W 2923   1.893  26.550  14.405
43179W        W 2924  29.086  13.640   2.675
43180W        W 2925  29.146  35.366   0.355
43181W        W 2926  22.525   3.876   2.320
43182W        W 2927  22.666  11.789  14.502
43183W        W 2928   8.175   5.207   4.813
43184W        W 2929  28.544  25.668   3.386
43185W        W 2930  11.322  17.101  14.938
43186W        W 2931  34.432  39.849   4.622
43187W        W 2932  39.849  22.012   2.315
43188W        W 2933  38.492  40.012  13.042
43189W        W 2934   3.271  33.517  12.887
43190W        W 2935  32.978  39.894  13.884
43191W        W 2936  27.650  21.578   1.214
43192W        W 2937   5.842  17.654  13.854
43193W        W 2938  28.572  27.168   0.956
43194W        W 2939  23.685  16.110   2.370
43195W        W 2940  30.995  32.456  12.445
43196W        W 2941  21.078  22.674   1.838
43197W        W 2942  31.618  26.078   5.706
43198W        W 2943   7.407  16.182   1.857
43199W        W 2944  12.640  19.253   1.281
43200W        W 2945  36.412  40.054  12.541
43201W        W 2946  31.063  25.540  12.081
43202W        W 2947  38.359  35.958   2.407
43203W        W 2948  15.623  31.948   1.421
43204W        W 2949   8.346   2.965  13.827
43205W        W 2950  25.013  19.098  14.787
43206W        W 2951   6.382  20.131  10.144
43207W        W 2952  40.927  26.028   2.261
43208W        W 2953   1.861   8.813   3.204
43209W        W 2954   1.449  13.248   2.315
43210W        W 2955  36.880  15.790   3.664
43211W        W 2956  40.864  37.475   3.669
43212W        W 2957   1.461   8.389   2.830
43213W        W 2958   8.875  41.362   0.764
43214W        W 2959   4.909  18.778   1.784
43215W        W 2960   1.238  26.997   0.824
43216W        W 2961  39.362   3.227  11.410
43217W        W 2962  42.396  13.173   1.409
43218W        W 2963   0.380   1.839   2.344
43219W        W 2964  25.148  38.826   2.279
43220W        W 2965   5.899  24.074   3.208
43221W        W 2966  44.334   5.885   0.939
43222W        W 2967  40.511  33.516   1.784
43223W        W 2968  41.827   3.782  12.065
43224W        W 2969  18.780  35.918   4.653
43225W        W 2970  22.627  35.040  10.944
43226W        W 2971  28.496  25.664  13.876
43227W        W 2972  12.190  44.327   0.432
43228W        W 2973  34.505   9.376   2.751
43229W        W 2974  32.903   1.368  13.001
43230W        W 2975   5.711  38.489   1.847
43231W        W 2976  41.469   5.727  12.893
43232W        W 2977  26.615  42.371  11.023
43233W        W 2978  37.337  38.910  10.484
43234W        W 2979   2.892   7.295   2.840
43235W        W 2980  34.504  25.998   0.893
43236W        W 2981  32.552  34.590  12.487
43237W        W 2982   0.485   3.716   3.343
43238W        W 2983  15.207  42.836  13.827
43239W        W 2984  17.667  35.073   5.236
43240W        W 2985  16.581  23.005   3.739
43241W        W 2986  31.547  35.558  12.939
43242W        W 2987  20.670  42.867   2.795
43243W        W 2988   5.886   6.420   3.291
43244W        W 2989   7.675  18.089  14.480
43245W        W 2990  19.721   0.389  11.993
43246W        W 2991   8.257  40.542   1.374
43247W        W 2992  21.259   7.670   3.698
43248W        W 2993  43.906  41.959   4.200
43249W        W 2994  33.982  11.137  14.482
43250W        W 2995   9.698   5.911  12.341
43251W        W 2996  33.103  34.115  13.361
43252W        W 2997   4.358  21.168   1.302
43253W        W 2998  21.726  31.104  12.931
43254W        W 2999  33.481  12.728   2.403
43255W        W 3000  32.121   3.435  10.045
43256W        W 3001  12.275  28.537  11.037
43257W        W 3002  30.451  27.461   3.343
43258W        W 3003  19.660  33.484  13.924
43259W        W 3004  37.380  39.369  13.928
43260W        W 3005   4.315  12.831  13.024
43261W        W 3006   5.761  26.559  12.065
43262W        W 3007  11.255  21.109   1.391
43263W        W 3008  34.098   6.340   0.323
43264W        W 3009  28.014  23.065   5.243
43265W        W 3010  42.410  15.790  10.089
43266W        W 3011  39.321  25.206   3.256
43267W        W 3012   5.402   1.959   1.824
43268W        W 3013  16.613  40.316   2.780
43269W        W 3014   2.401  41.349   3.747
43270W        W 3015  12.317  10.873   2.297
43271W        W 3016  12.241  36.967   0.837
43272W        W 3017  32.083  25.158   2.381
43273W        W 3018   1.406  12.200   1.798
43274W        W 3019  34.589   1.346   3.331
43275W        W 3020   0.879  14.266   1.772
43276W        W 3021  11.250  18.745  12.956
43277W        W 3022  29.007  21.112  10.612
43278W        W 3023  19.212  30.413   4.683
43279W        W 3024  36.866  11.148  10.942
43280W        W 3025  44.258  26.958   2.352
43281W        W 3026  43.795   4.852   4.248
43282W        W 3027  20.121  30.163  10.504
43283W        W 3028  30.588  20.644  10.511
43284W        W 3029  32.626  41.296  13.363
43285W        W 3030  21.093  33.446   3.190
43286W        W 3031  26.059   3.873  12.518
43287W        W 3032   5.198  36.940   1.810
43288W        W 3033  19.734  38.844   0.477
43289W        W 3034   9.389  34.382   0.788
43290W        W 3035   5.702  44.787   0.475
43291W        W 3036  25.531   5.287   0.884
43292W        W 3037  17.609  44.973   0.730
43293W        W 3038  17.675  44.323  14.997
43294W        W 3039  28.052  16.130   2.662
43295W        W 3040  22.729   7.705  13.501
43296W        W 3041  18.549  43.356  12.930
43297W        W 3042  15.129  29.467  11.975
43298W        W 3043  41.317  23.703  12.371
43299W        W 3044  11.262  43.459  14.790
43300W        W 3045  30.013   7.703   9.969
43301W        W 3046   5.825  33.478   1.743
43302W        W 3047  43.860  37.404  12.025
43303W        W 3048  13.700  25.181   5.087
43304W        W 3049  33.035  38.529   4.629
43305W        W 3050  16.244  39.007   0.818
43306W        W 3051  26.139   9.213  11.063
43307W        W 3052  28.960  23.568   4.838
43308W        W 3053  28.043  25.003   4.135
43309W        W 3054   0.832  29.609   0.908
43310W        W 3055  19.133  10.651   2.862
43311W        W 3056  11.781  41.805   2.287
43312W        W 3057   0.800  14.804   1.922
43313W        W 3058  30.993   4.895   2.268
43314W        W 3059  21.538  30.070  13.985
43315W        W 3060  40.935  36.524   1.876
43316W        W 3061   3.333  34.969  14.461
43317W        W 3062  36.531  13.754   2.185
43318W        W 3063  39.973  36.005   4.328
43319W        W 3064  36.854  13.287  14.815
43320W        W 3065  28.661  36.925  13.938
43321W        W 3066   4.876  41.400   0.371
43322W        W 3067  40.980  30.963  12.383
43323W        W 3068  40.973  32.508   1.796
43324W        W 3069  27.686  36.389  11.124
43325W        W 3070  37.971  22.605   4.803
43326W        W 3071  38.405  10.327  10.082
43327W        W 3072  25.180  33.466  12.966
43328W        W 3073  39.854   9.328  13.356
43329W        W 3074  15.132  31.582  14.381
43330W        W 3075  30.066  25.659   0.847
43331W        W 3076  36.989  37.527  13.924
43332W        W 3077  15.099  24.159  10.643
43333W        W 3078  15.276  17.595   3.695
43334W        W 3079  18.176  20.138   3.768
43335W        W 3080   9.836  17.748  11.938
43336W        W 3081  13.605  35.099   0.939
43337W        W 3082  20.644  29.663   0.961
43338W        W 3083  43.988  21.177  12.872
43339W        W 3084  34.535   2.944   9.463
43340W        W 3085  31.067  12.624   1.770
43341W        W 3086   0.952   7.738   1.719
43342W        W 3087  34.592   3.267   4.656
43343W        W 3088   1.837   9.791   4.827
43344W        W 3089  42.965  12.263  12.892
43345W        W 3090  17.693  16.222  11.452
43346W        W 3091  14.787  12.228  10.529
43347W        W 3092  26.675  30.443   0.778
43348W        W 3093  24.186   9.804   3.183
43349W        W 3094  24.106  10.169  13.882
43350W        W 3095  16.209   7.242  11.091
43351W        W 3096  24.154  28.644   0.265
43352W        W 3097  22.042  19.656   2.677
43353W        W 3098  12.694  30.118  12.073
43354W        W 3099  27.138  35.939  14.976
43355W        W 3100  19.723  27.960   3.158
43356W        W 3101  31.537  36.958   1.400
43357W        W 3102  43.369  18.142  14.354
43358W        W 3103   8.327  11.749  13.971
43359W        W 3104  39.056  10.820   0.967
43360W        W 3105  26.060  10.780   2.676
43361W        W 3106  19.215  21.659   0.378
43362W        W 3107  10.288  20.272   2.292
43363W        W 3108  12.854   7.720  14.289
43364W        W 3109  17.689  11.159   1.720
43365W        W 3110  36.391   6.677  10.596
43366W        W 3111  10.652  39.412   3.849
43367W        W 3112  36.053   5.438   1.732
43368W        W 3113  35.454   8.800   4.198
43369W        W 3114   6.286  29.157  10.156
43370W        W 3115   9.164  20.083  14.969
43371W        W 3116  23.149  10.148  13.011
43372W        W 3117  13.836  29.647   1.412
43373W        W 3118  11.838   3.877   3.666
43374W        W 3119  23.069  27.606   4.805
43375W        W 3120  20.193  29.663  14.769
43376W        W 3121  11.645  27.971  10.602
43377W        W 3122  35.486   9.696   2.220
43378W        W 3123  36.373  13.279  14.885
43379W        W 3124   9.801  34.899   3.735
43380W        W 3125   8.711  29.588   1.375
43381W        W 3126  28.516  11.640   1.799
43382W        W 3127   7.315  36.556   4.691
43383W        W 3128  19.552  18.119   4.697
43384W        W 3129   1.420   6.264  13.350
43385W        W 3130  43.843  25.160  12.388
43386W        W 3131   1.883  10.142   0.925
43387W        W 3132   1.907   6.313  12.876
43388W        W 3133   3.459   3.849   1.239
43389W        W 3134  21.258  18.261  13.416
43390W        W 3135  10.207  29.031   3.652
43391W        W 3136   0.875  13.759   2.322
43392W        W 3137   0.453  26.702  10.579
43393W        W 3138   3.250   2.949  11.562
43394W        W 3139   3.768  14.773  11.997
43395W        W 3140   0.807  26.618  12.087
43396W        W 3141  21.217  36.543  11.869
43397W        W 3142  32.609   2.264   4.626
43398W        W 3143  42.316  29.529   4.233
43399W        W 3144  16.208  39.950   1.893
43400W        W 3145  42.789  20.630   9.978
43401W        W 3146  21.024   7.215   0.347
43402W        W 3147  28.151  22.658  12.832
43403W        W 3148   0.313  24.606  13.388
43404W        W 3149  43.415  38.871   2.235
43405W        W 3150  34.000   9.654  14.857
43406W        W 3151  14.729   7.197   4.652
43407W        W 3152  17.660  39.859   3.305
43408W        W 3153  24.040  30.042  11.582
43409W        W 3154  15.249  39.006  14.769
43410W        W 3155  44.963  25.686  11.516
43411W        W 3156  36.458  32.531  13.805
43412W        W 3157  27.961   8.859  14.965
43413W        W 3158   5.791  17.303   0.965
43414W        W 3159   9.774  40.032   2.861
43415W        W 3160  42.438  12.250  11.525
43416W        W 3161   4.766  37.391   1.724
43417W        W 3162  40.544  42.520   4.689
43418W        W 3163  32.537  20.714   5.317
43419W        W 3164  29.048   2.419   2.222
43420W        W 3165  17.070  32.495   0.324
43421W        W 3166  20.629  19.124  13.334
43422W        W 3167  13.788   9.699  14.453
43423W        W 3168   8.689   3.238   1.217
43424W        W 3169   2.306   8.747  14.990
43425W        W 3170  24.701   0.750   0.385
43426W        W 3171  43.936  39.557   3.772
43427W        W 3172   5.849  20.257   9.564
43428W        W 3173  21.096  11.137   4.719
43429W        W 3174  30.123  32.562  12.868
43430W        W 3175  32.948  23.591  12.999
43431W        W 3176  16.183  21.621  10.936
43432W        W 3177  13.309  14.622  12.061
43433W        W 3178   0.418  11.261  13.384
43434W        W 3179  28.146  32.598  11.471
43435W        W 3180  39.492  30.592  10.580
43436W        W 3181  18.573  41.881   1.855
43437W        W 3182  17.069  26.118  13.979
43438W        W 3183  32.982   5.837   2.836
43439W        W 3184  33.453  32.120  13.476
43440W        W 3185   2.854   5.847  12.487
43441W        W 3186  43.441   7.889   2.878
43442W        W 3187  44.445   6.399   0.874
43443W        W 3188  15.722  38.056  14.343
43444W        W 3189  38.567  34.891   4.617
43445W        W 3190  30.995  25.660  11.026
43446W        W 3191  19.083   8.748   1.225
43447W        W 3192  35.373  38.415  13.890
43448W        W 3193   2.724  17.212  13.409
43449W        W 3194   8.792   1.330  14.921
43450W        W 3195  19.161  29.629  14.346
43451W        W 3196   9.393   5.214   4.168
43452W        W 3197  40.920  28.638   0.924
43453W        W 3198  15.203  21.757   4.631
43454W        W 3199  43.842  19.775  11.521
43455W        W 3200  44.753  21.623  13.416
43456W        W 3201  36.522   1.415  11.866
43457W        W 3202  33.993  29.460  12.428
43458W        W 3203  31.965   0.281  11.544
43459W        W 3204   6.697   2.236   2.183
43460W        W 3205  44.812  37.918   0.399
43461W        W 3206  13.344   7.219  14.310
43462W        W 3207   7.739  15.326   4.751
43463W        W 3208  33.053  21.107   3.217
43464W        W 3209   4.721   2.330  11.033
43465W        W 3210   5.710   4.706  10.931
43466W        W 3211  39.830   7.764   4.632
43467W        W 3212  37.859  34.095   3.338
43468W        W 3213   5.433  37.053  14.760
43469W        W 3214  31.635  24.668   0.431
43470W        W 3215  34.888  32.058  12.418
43471W        W 3216  43.012  22.012   1.795
43472W        W 3217  18.591  32.585   1.715
43473W        W 3218  28.502  24.208  13.308
43474W        W 3219  22.619  27.562   2.700
43475W        W 3220  12.213  16.133   2.215
43476W        W 3221  39.872  43.898  14.465
43477W        W 3222  25.556   0.834   3.317
43478W        W 3223   6.738  17.199  11.484
43479W        W 3224  16.750  42.926   0.910
43480W        W 3225  22.614   4.747  10.106
43481W        W 3226   7.785  14.624  10.940
43482W        W 3227  20.658  34.525  12.890
43483W        W 3228  26.989  11.629   0.763
43484W        W 3229  28.133  25.684  13.331
43485W        W 3230  22.047  20.099  14.832
43486W        W 3231  31.059  40.892  11.511
43487W        W 3232  44.480  43.004  11.430
43488W        W 3233   0.416   4.717   1.252
43489W        W 3234  18.232  16.808   0.249
43490W        W 3235  37.480  39.810   4.304
43491W        W 3236  16.713   5.316   3.630
43492W        W 3237  35.939  18.295   2.854
43493W        W 3238  10.820  19.748   3.259
43494W        W 3239  13.689   0.987   0.312
43495W        W 3240  13.164   0.429   9.958
43496W        W 3241  25.535  38.507   0.900
43497W        W 3242   8.389  26.953  14.900
43498W        W 3243  27.668  21.146   1.287
43499W        W 3244  36.486   8.227   0.908
43500W        W 3245  35.987  24.705  13.533
43501W        W 3246  44.959  26.658  12.986
43502W        W 3247   2.260  38.492  13.945
43503W        W 3248  30.601  28.955  12.963
43504W        W 3249  10.171  35.072   0.917
43505W        W 3250  42.283   3.741  11.024
43506W        W 3251  39.863   2.773  13.868
43507W        W 3252  26.579  44.489   4.275
43508W        W 3253  43.907   4.440  10.532
43509W        W 3254   7.236  22.693   3.339
43510W        W 3255  32.390   8.746   2.204
43511W        W 3256  33.612  43.808  14.008
43512W        W 3257   0.972  37.982   3.323
43513W        W 3258   7.675  14.673   0.365
43514W        W 3259  23.027  16.252   9.966
43515W        W 3260  43.801  12.702  10.908
43516W        W 3261  11.781  36.031   1.216
43517W        W 3262   4.305  43.301   3.745
43518W        W 3263   3.315  31.503   2.330
43519W        W 3264  14.669   2.411   1.702
43520W        W 3265  40.865  41.989   1.403
43521W        W 3266  35.953   1.331  10.562
43522W        W 3267  21.221  40.868   2.767
43523W        W 3268  36.862  24.098  10.406
43524W        W 3269  12.291  29.102   3.319
43525W        W 3270   3.953  29.611  10.630
43526W        W 3271  33.567  14.272   5.310
43527W        W 3272  24.632   0.927  10.572
43528W        W 3273  13.691  41.392  14.490
43529W        W 3274  35.389  11.227  12.893
43530W        W 3275  42.444  19.759   1.734
43531W        W 3276  40.374  20.595   2.247
43532W        W 3277  38.045  16.170   4.275
43533W        W 3278  39.836   0.416  10.565
43534W        W 3279   0.317  10.379   0.778
43535W        W 3280  21.660  14.823  12.394
43536W        W 3281  26.701  14.702   0.858
43537W        W 3282   9.849   6.346   0.447
43538W        W 3283   8.283   7.222   1.717
43539W        W 3284  10.140  41.934   4.805
43540W        W 3285   1.852  23.553   1.348
43541W        W 3286   0.786  44.348   0.743
43542W        W 3287  29.022  40.916  13.793
43543W        W 3288  41.851  21.188   4.604
43544W        W 3289   8.171  44.301   1.786
43545W        W 3290  41.853   5.712  14.324
43546W        W 3291  29.992  27.549  13.879
43547W        W 3292  18.687  16.189   2.327
43548W        W 3293  37.065  42.891  14.383
43549W        W 3294  33.452  22.635  14.821
43550W        W 3295  17.155  20.562   0.888
43551W        W 3296   2.754   6.732   2.863
43552W        W 3297  34.921  21.074  11.519
43553W        W 3298  11.337   8.711  13.389
43554W        W 3299  39.496   8.814   1.795
43555W        W 3300  34.562  16.568  13.405
43556W        W 3301  12.263  11.202  12.506
43557W        W 3302  11.192  10.698   0.794
43558W        W 3303  24.068   6.237  12.940
43559W        W 3304   3.371  27.529   0.734
43560W        W 3305  25.121  31.967  12.365
43561W        W 3306   0.475   6.874  11.912
43562W        W 3307  14.820  33.471  12.366
43563W        W 3308  42.284  39.340   4.759
43564W        W 3309  19.258  34.441   3.858
43565W        W 3310  23.149  12.621  11.583
43566W        W 3311  43.918  25.525   2.901
43567W        W 3312  42.417  36.900  13.999
43568W        W 3313  10.770  31.983  10.473
43569W        W 3314  28.024  36.934   2.851
43570W        W 3315  16.669  38.963   2.753
43571W        W 3316  34.579   7.360  14.465
43572W        W 3317   3.388  12.248   2.350
43573W        W 3318  12.731   1.378   3.682
43574W        W 3319  33.932   5.919   4.736
43575W        W 3320   7.897  17.177  12.999
43576W        W 3321  43.906  25.089  13.939
43577W        W 3322  24.707  30.618   3.696
43578W        W 3323   0.435   6.726  11.494
43579W        W 3324  11.367  36.037   2.251
43580W        W 3325   3.838  39.376  11.882
43581W        W 3326  23.118  18.082   0.304
43582W        W 3327  10.766   8.858   2.362
43583W        W 3328   6.776   9.762   4.612
43584W        W 3329  30.425   7.804  12.378
43585W        W 3330  15.114  32.555  13.929
43586W        W 3331  30.533   9.265   2.234
43587W        W 3332  24.532  44.953  10.634
43588W        W 3333  11.295  25.576  14.880
43589W        W 3334  16.100   2.941  13.838
43590W        W 3335  10.262  26.167   3.211
43591W        W 3336  16.287   6.918  14.942
43592W        W 3337  29.646   1.803  12.924
43593W        W 3338  20.670  24.698  12.931
43594W        W 3339  11.789  39.477   4.621
43595W        W 3340  40.489  38.352  13.437
43596W        W 3341   9.768  17.061   1.367
43597W        W 3342   0.298  30.943  13.349
43598W        W 3343  13.292  16.653   2.351
43599W        W 3344  35.952  15.632   5.166
43600W        W 3345   4.387  36.086   2.263
43601W        W 3346  37.009  35.081  14.435
43602W        W 3347  33.549   3.306  10.489
43603W        W 3348   1.927  20.689  10.470
43604W        W 3349  13.179   2.435  11.503
43605W        W 3350  32.446  44.458   3.847
43606W        W 3351  16.306  29.611  14.776
43607W        W 3352   8.334  11.240  11.559
43608W        W 3353  29.091  35.937  14.788
43609W        W 3354  28.173  32.400  11.922
43610W        W 3355  42.338  31.008   1.369
43611W        W 3356  43.958   3.812  13.344
43612W        W 3357  25.011  13.709   4.816
43613W        W 3358  24.537  10.811   4.642
43614W        W 3359  43.406  38.988   4.250
43615W        W 3360   3.761  20.579   1.928
43616W        W 3361  20.763  41.488   3.377
43617W        W 3362   9.291  14.228   3.679
43618W        W 3363  34.937  27.172   3.868
43619W        W 3364  22.138  36.033   4.627
43620W        W 3365   1.249  17.111  11.538
43621W        W 3366   8.896  10.828  12.574
43622W        W 3367   4.910  44.966  12.064
43623W        W 3368   0.457  22.098  12.381
43624W        W 3369  32.053   6.275  14.839
43625W        W 3370  22.995  38.989   0.454
43626W        W 3371  17.082   0.877   1.701
43627W        W 3372  43.878  36.925  12.388
43628W        W 3373   6.882  13.692   3.289
43629W        W 3374  36.398  37.561   4.308
43630W        W 3375  41.000   3.312  11.396
43631W        W 3376  43.511  17.703  11.489
43632W        W 3377  17.103  11.811   4.118
43633W        W 3378  12.353   3.391  13.474
43634W        W 3379  24.033  27.086  11.419
43635W        W 3380  27.463  16.767  12.506
43636W        W 3381  27.168  22.687   1.383
43637W        W 3382   8.196  25.062  14.834
43638W        W 3383  22.110   0.384   5.205
43639W        W 3384  19.270  24.110  11.920
43640W        W 3385  32.034  26.130  12.919
43641W        W 3386  24.146  35.358  13.530
43642W        W 3387  25.635  37.870   1.788
43643W        W 3388  21.534   0.309   2.195
43644W        W 3389  31.554  28.174  14.821
43645W        W 3390   4.829  17.156  11.095
43646W        W 3391  16.797  26.157   1.318
43647W        W 3392   1.478  20.057   2.692
43648W        W 3393  26.001  26.987   0.774
43649W        W 3394  13.668  24.611  14.967
43650W        W 3395   5.865  26.111   4.291
43651W        W 3396  20.570   7.347   3.666
43652W        W 3397  15.250  40.458   1.840
43653W        W 3398  36.087  33.981   2.289
43654W        W 3399  25.207  35.075  12.465
43655W        W 3400  34.990  18.699  11.904
43656W        W 3401   0.820  40.939  14.351
43657W        W 3402  22.055  15.814   1.404
43658W        W 3403  42.304   0.349   0.766
43659W        W 3404  18.224  14.835  11.041
43660W        W 3405  41.826  29.991   2.816
43661W        W 3406  26.189  13.261  12.969
43662W        W 3407  37.867  33.902  13.544
43663W        W 3408  25.139  25.965   2.405
43664W        W 3409  38.551  14.248  11.612
43665W        W 3410  24.485  44.286  11.587
43666W        W 3411  21.658  11.751   4.263
43667W        W 3412  43.782  14.625   3.743
43668W        W 3413  19.112  17.075  12.889
43669W        W 3414  14.680  35.934  12.825
43670W        W 3415   2.275  27.555   4.260
43671W        W 3416  29.096   2.886  12.410
43672W        W 3417  14.704  33.990   2.387
43673W        W 3418   0.449  27.605  12.851
43674W        W 3419  20.187  16.093  13.014
43675W        W 3420   1.874  38.846  14.032
43676W        W 3421  10.173  26.609   4.627
43677W        W 3422  37.547   7.825   1.297
43678W        W 3423  26.530  20.630  13.872
43679W        W 3424  16.683  29.431   3.314
43680W        W 3425  27.004  33.610   4.206
43681W        W 3426  31.008  27.548  12.461
43682W        W 3427  40.404  10.764   0.859
43683W        W 3428  36.053  13.792  13.858
43684W        W 3429  43.970  28.991   0.956
43685W        W 3430   2.927  23.148   4.695
43686W        W 3431   8.170  43.885  13.460
43687W        W 3432   8.889   9.161   2.295
43688W        W 3433  13.190  20.214  14.782
43689W        W 3434  16.203  34.585  10.429
43690W        W 3435  32.123  16.716   1.242
43691W        W 3436  34.477  21.698   0.728
43692W        W 3437   1.428  27.516  10.576
43693W        W 3438  10.189   5.426   1.818
43694W        W 3439  14.274  21.185  12.516
43695W        W 3440  24.100  34.912  14.009
43696W        W 3441  17.587  22.520   1.383
43697W        W 3442  18.696  11.336   9.977
43698W        W 3443  33.464  11.226  14.295
43699W        W 3444  38.058  14.769  11.457
43700W        W 3445   8.198   6.786   0.948
43701W        W 3446  38.909  36.580   2.734
43702W        W 3447  22.715  39.553   4.213
43703W        W 3448  22.022  37.482  13.443
43704W        W 3449  24.996   3.317  10.539
43705W        W 3450   4.824   3.369   2.359
43706W        W 3451  28.066  11.697   0.877
43707W        W 3452  44.470  21.619  12.476
43708W        W 3453   0.472  34.582   4.681
43709W        W 3454  27.184   8.899  14.425
43710W        W 3455   8.289  25.704  11.456
43711W        W 3456  20.199   5.800   2.829
43712W        W 3457  32.896   1.752  10.619
43713W        W 3458  36.998  18.187  14.357
43714W        W 3459  27.690  28.474  13.941
43715W        W 3460  35.424   3.872   2.762
43716W        W 3461   0.967  27.985   3.662
43717W        W 3462  25.689   6.360   5.170
43718W        W 3463  41.899  10.310   3.177
43719W        W 3464   4.926  40.047   2.256
43720W        W 3465  16.248   1.257  11.463
43721W        W 3466  16.798   0.295   2.872
43722W        W 3467  22.507   5.232  11.597
43723W        W 3468  40.349   5.872  11.570
43724W        W 3469  18.604  31.503  14.368
43725W        W 3470  16.591  41.428   3.749
43726W        W 3471  17.801   1.820  12.486
43727W        W 3472  11.130  24.707  11.894
43728W        W 3473  16.574  32.542  14.479
43729W        W 3474  31.006  16.140   2.232
43730W        W 3475  17.186   8.758   3.227
43731W        W 3476  31.026  44.303  12.348
43732W        W 3477  28.514  18.626  13.516
43733W        W 3478  21.157  12.348  11.549
43734W        W 3479  22.134  41.962  10.641
43735W        W 3480  11.673  44.382  13.879
43736W        W 3481  20.658  12.119   4.137
43737W        W 3482  37.485  37.357   5.199
43738W        W 3483  40.828  21.665   1.394
43739W        W 3484  39.543  34.059   2.413
43740W        W 3485  16.566  29.609   2.351
43741W        W 3486   4.891   9.659  10.578
43742W        W 3487  17.786  16.705  11.595
43743W        W 3488  35.009  29.611   0.354
43744W        W 3489  29.616  37.483  10.595
43745W        W 3490   0.947  17.634   9.657
43746W        W 3491  23.589  24.193   2.251
43747W        W 3492  39.951   2.281   4.721
43748W        W 3493   8.238  10.745  13.326
43749W        W 3494  14.612  34.537   3.338
43750W        W 3495  19.727  17.763   1.389
43751W        W 3496  28.128  23.008  11.075
43752W        W 3497   9.160  17.065  11.432
43753W        W 3498  44.394   3.791   4.179
43754W        W 3499  12.650  41.315  14.282
43755W        W 3500  26.207  34.962  14.907
43756W        W 3501  17.089  13.747  12.014
43757W        W 3502  16.184  42.997   2.302
43758W        W 3503  28.137  44.774  14.867
43759W        W 3504  13.225  40.425   2.831
43760W        W 3505  39.551  25.660   3.371
43761W        W 3506  32.539  41.413   3.232
43762W        W 3507  28.506  22.083   3.753
43763W        W 3508  38.353  14.689  12.571
43764W        W 3509  35.600  13.635   1.817
43765W        W 3510  18.227   0.268  11.972
43766W        W 3511  30.102  18.241   4.141
43767W        W 3512  24.140  37.930  12.398
43768W        W 3513  17.069  14.270  13.402
43769W        W 3514  19.167   0.354   4.720
43770W        W 3515   9.294  17.612  10.604
43771W        W 3516  29.632  44.406   3.297
43772W        W 3517  32.567   9.338   4.279
43773W        W 3518  35.964  36.921   0.746
43774W        W 3519  18.192  17.741   4.712
43775W        W 3520  18.196  14.301  12.437
43776W        W 3521  18.148  10.693   4.607
43777W        W 3522  27.972  22.522   5.164
43778W        W 3523   3.218  11.322   1.366
43779W        W 3524  10.213  40.862  14.338
43780W        W 3525  33.626  32.918  14.955
43781W        W 3526  43.796   4.450   4.271
43782W        W 3527  17.244  12.290  10.419
43783W        W 3528   0.482  15.688  11.096
43784W        W 3529  14.181   2.433   0.836
43785W        W 3530  13.114  41.472   4.233
43786W        W 3531  43.008  43.830   1.928
43787W        W 3532  17.295  36.078   0.256
43788W        W 3533  21.075   5.376   4.693
43789W        W 3534  34.394   6.423   9.991
43790W        W 3535  30.147   3.270  13.809
43791W        W 3536   7.214  30.453  13.005
43792W        W 3537  43.916  32.570   2.806
43793W        W 3538  11.840   0.330  12.873
43794W        W 3539  31.460  26.193  11.975
43795W        W 3540  33.380  26.466   4.276
43796W        W 3541  36.463   9.214  12.051
43797W        W 3542  38.561  20.555   0.952
43798W        W 3543  11.171  20.600   3.787
43799W        W 3544  35.499  25.487  10.404
43800W        W 3545   5.337   5.244   1.403
43801W        W 3546  36.559  20.083   4.744
43802W        W 3547  43.360  41.965  14.409
43803W        W 3548   3.713   3.779   2.692
43804W        W 3549  24.994   1.801   0.732
43805W        W 3550   0.951  44.299   1.337
43806W        W 3551   6.919   8.709   9.987
43807W        W 3552  41.789  35.974  11.913
43808W        W 3553  29.978  23.068  14.817
43809W        W 3554  29.533  24.678  12.398
43810W        W 3555  43.407  44.336   2.741
43811W        W 3556  44.927  23.722  12.449
43812W        W 3557  11.348   0.874  11.115
43813W        W 3558  10.366  41.012  11.493
43814W        W 3559   2.330  13.625   1.290
43815W        W 3560   8.332  39.513   0.291
43816W        W 3561  30.005  25.692  10.458
43817W        W 3562  29.509   1.382   2.738
43818W        W 3563  39.513  22.672   3.204
43819W        W 3564  38.460   2.953  13.916
43820W        W 3565  23.675  38.414   3.773
43821W        W 3566  27.162  18.279  10.536
43822W        W 3567  36.521  32.986   1.417
43823W        W 3568  30.996  42.961   2.774
43824W        W 3569  44.270  10.870  13.536
43825W        W 3570  41.942   1.377   1.414
43826W        W 3571  12.348  35.477   2.833
43827W        W 3572  26.158  23.626   3.199
43828W        W 3573  25.089  11.689   0.343
43829W        W 3574   4.394   5.321   3.192
43830W        W 3575   0.877   7.871   1.357
43831W        W 3576   5.305  17.772   9.580
43832W        W 3577  36.938  44.936  13.035
43833W        W 3578  17.564   0.831  10.530
43834W        W 3579  18.624  33.902   2.210
43835W        W 3580  18.234   1.953   2.667
43836W        W 3581  42.362  28.602  11.967
43837W        W 3582  29.066  42.501  11.373
43838W        W 3583   3.807  11.709  14.512
43839W        W 3584  36.587  13.779   1.219
43840W        W 3585  31.923  39.406   1.809
43841W        W 3586  13.239  35.972   2.726
43842W        W 3587  25.159  18.266  10.966
43843W        W 3588   6.229  43.992   2.750
43844W        W 3589  41.467   8.694  14.465
43845W        W 3590  25.601  13.277  14.895
43846W        W 3591  31.938  34.553   2.245
43847W        W 3592  43.470  20.603   0.368
43848W        W 3593   5.420  34.084  13.025
43849W        W 3594   2.819  10.744  10.576
43850W        W 3595  17.681  30.054  13.846
43851W        W 3596  34.452  18.061  12.826
43852W        W 3597  30.101  26.591   9.951
43853W        W 3598  26.666   7.253  11.870
43854W        W 3599  32.474  27.457  10.951
43855W        W 3600  19.213  17.593  13.959
43856W        W 3601  18.681  22.147  14.281
43857W        W 3602   1.801  43.358  12.903
43858W        W 3603  21.231  12.243   1.841
43859W        W 3604  44.381  44.943   0.897
43860W        W 3605  44.487  23.502   0.388
43861W        W 3606  29.473  29.562   3.192
43862W        W 3607   5.203  31.024  11.105
43863W        W 3608   9.709  31.107   2.416
43864W        W 3609  33.595  38.476   1.383
43865W        W 3610  43.447   5.857  11.419
43866W        W 3611  33.909  21.161   2.853
43867W        W 3612  19.249  44.388   3.631
43868W        W 3613  39.316  19.141  12.374
43869W        W 3614  34.901  34.476  13.044
43870W        W 3615   9.169  12.782  11.520
43871W        W 3616   3.930  17.186  12.381
43872W        W 3617  27.168  27.491   2.248
43873W        W 3618  22.050   2.376  11.381
43874W        W 3619   6.317  11.807   1.901
43875W        W 3620  23.571  29.567   2.205
43876W        W 3621  22.064   7.337  10.522
43877W        W 3622  17.705  42.448  14.789
43878W        W 3623  16.147  10.256   2.405
43879W        W 3624  28.469  18.648   4.191
43880W        W 3625  18.766  11.850   2.862
43881W        W 3626   5.823  41.512  10.410
43882W        W 3627  37.564  37.048   0.728
43883W        W 3628  26.120   6.888  11.590
43884W        W 3629  34.038  22.524   4.832
43885W        W 3630  24.978  24.066   1.273
43886W        W 3631  41.467  19.573   4.811
43887W        W 3632  42.809  19.770   3.767
43888W        W 3633   4.750   9.182   4.267
43889W        W 3634  42.004  12.251  13.398
43890W        W 3635  43.784  14.249   1.878
43891W        W 3636  13.228   6.796  12.530
43892W        W 3637   3.848  23.029  14.895
43893W        W 3638   8.778  25.709  11.980
43894W        W 3639  16.619  25.188  10.948
43895W        W 3640   9.884  12.767   3.761
43896W        W 3641  22.061  18.573   3.749
43897W        W 3642  38.890  20.236   4.180
43898W        W 3643  28.445  39.841  12.562
43899W        W 3644  39.951  40.521  13.326
43900W        W 3645  41.039  34.067   1.706
43901W        W 3646   7.857  39.360   2.401
43902W        W 3647  30.621  36.964  10.415
43903W        W 3648  20.660  13.758   2.235
43904W        W 3649  24.595   4.710  10.911
43905W        W 3650  26.973  26.700  14.504
43906W        W 3651  15.786   5.333  14.419
43907W        W 3652   1.453   7.687  12.567
43908W        W 3653  23.696  42.412  10.422
43909W        W 3654  23.109  43.487  12.851
43910W        W 3655   6.851  22.714   2.370
43911W        W 3656  41.339  23.582   3.231
43912W        W 3657  16.707   4.246   4.215
43913W        W 3658  33.513   4.831   1.315
43914W        W 3659  38.851   0.493  13.310
43915W        W 3660  44.910  37.418   2.829
43916W        W 3661  21.632   4.733  13.314
43917W        W 3662  17.276   8.396   2.682
43918W        W 3663   0.894  44.984   3.379
43919W        W 3664  25.127  39.405  13.869
43920W        W 3665  16.805  42.452  13.515
43921W        W 3666  20.261  14.606   9.939
43922W        W 3667  13.728  40.376  13.794
43923W        W 3668   9.707   7.745   4.240
43924W        W 3669   8.722   1.255   3.752
43925W        W 3670  31.644   6.854   3.724
43926W        W 3671  23.703  11.630   1.417
43927W        W 3672  41.837  21.130   2.382
43928W        W 3673  41.873  41.012  13.456
43929W        W 3674  44.437  18.198   3.269
43930W        W 3675   0.442  34.118   3.843
43931W        W 3676  36.486   4.439   3.790
43932W        W 3677  12.222  25.108   1.816
43933W        W 3678  32.059   7.751   4.183
43934W        W 3679   8.284  25.993   2.316
43935W        W 3680  28.062   6.680   1.236
43936W        W 3681   9.342  42.460   4.774
43937W        W 3682  11.667   2.325   2.232
43938W        W 3683   9.872  35.857  14.009
43939W        W 3684  35.368  19.251   4.669
43940W        W 3685   2.428  28.119  12.924
43941W        W 3686  37.930  15.150  13.348
43942W        W 3687   7.263   3.405   3.841
43943W        W 3688   2.962  21.636  13.024
43944W        W 3689   8.664  27.118  10.495
43945W        W 3690   2.737  26.049   0.355
43946W        W 3691  11.293  30.149   4.349
43947W        W 3692  31.079  38.550  10.484
43948W        W 3693  32.560  37.055  12.948
43949W        W 3694  10.834  37.977  14.771
43950W        W 3695  23.031  25.984  11.117
43951W        W 3696  28.148  40.398  10.410
43952W        W 3697  37.881   1.849  14.276
43953W        W 3698  42.911  41.335   3.747
43954W        W 3699  26.560  23.628  10.004
43955W        W 3700  11.682  18.191   0.847
43956W        W 3701  26.692  30.949  12.448
43957W        W 3702  27.074  36.054  13.022
43958W        W 3703  26.073  10.381   1.840
43959W        W 3704  39.875  20.265   3.365
43960W        W 3705  29.562  36.444   1.329
43961W        W 3706  21.512   8.262  13.816
43962W        W 3707  40.380  28.132   0.386
43963W        W 3708  26.072  12.792   3.648
43964W        W 3709  28.173  18.140   0.890
43965W        W 3710  44.454  34.566   3.730
43966W        W 3711   3.758  33.938   2.873
43967W        W 3712  38.923  27.671   0.826
43968W        W 3713  39.447  33.932   4.796
43969W        W 3714   2.387  41.040  11.026
43970W        W 3715  26.129  37.429   4.348
43971W        W 3716   0.912   4.240  12.918
43972W        W 3717  19.251  13.797  11.955
43973W        W 3718  29.535  20.631  13.061
43974W        W 3719  22.099   9.285  12.828
43975W        W 3720  42.806  22.208   3.255
43976W        W 3721  35.011  31.134   1.756
43977W        W 3722  36.435   4.371  12.366
43978W        W 3723  15.127  17.717   0.453
43979W        W 3724  43.893   9.665   1.776
43980W        W 3725  17.690  17.073  13.456
43981W        W 3726  17.584  41.514   3.264
43982W        W 3727  19.182  16.579   4.344
43983W        W 3728  29.581  44.470   0.875
43984W        W 3729  26.070  39.354   4.650
43985W        W 3730  14.176   1.322   3.199
43986W        W 3731  32.521  32.620   2.394
43987W        W 3732  25.552  11.810   0.359
43988W        W 3733  43.422  36.889   3.670
43989W        W 3734  12.333  10.379   0.458
43990W        W 3735   4.230  44.879  14.312
43991W        W 3736   4.735  33.520   1.435
43992W        W 3737   6.862   3.863  14.972
43993W        W 3738  19.705   7.359   4.122
43994W        W 3739   1.461   5.275   4.621
43995W        W 3740   0.896  39.454   4.831
43996W        W 3741  11.771  41.486   2.337
43997W        W 3742  35.093  27.104  10.980
43998W        W 3743  19.118   2.741   1.348
43999W        W 3744  13.341   4.929  10.585
44000W        W 3745  13.692  10.677  13.488
44001W        W 3746   2.416  42.444   1.267
44002W        W 3747  26.582  15.641   5.319
44003W        W 3748  22.581  35.987  11.993
44004W        W 3749   9.788  22.102  11.866
44005W        W 3750  36.003   0.408   0.814
44006W        W 3751  21.034  29.140  13.371
44007W        W 3752  24.059   1.420  14.980
44008W        W 3753   7.210  26.622  10.636
44009W        W 3754  22.251  36.853   2.666
44010W        W 3755  40.417  31.546   3.301
44011W        W 3756  27.545  23.993   2.842
44012W        W 3757  33.615  33.506   2.713
44013W        W 3758  26.664  28.997   2.817
44014W        W 3759  36.460   2.369   0.952
44015W        W 3760  42.834  21.153   5.170
44016W        W 3761  28.007  36.920  12.504
44017W        W 3762  21.128  39.856  14.798
44018W        W 3763  23.619  39.026  10.141
44019W        W 3764  13.123  25.047   3.229
44020W        W 3765   2.241  42.849  14.847
44021W        W 3766   3.331   4.207   2.696
44022W        W 3767  22.149  19.206   2.216
44023W        W 3768  36.375   1.925  10.056
44024W        W 3769  25.563  42.940   2.864
44025W        W 3770  13.653  21.597   1.261
44026W        W 3771  35.010  11.785  13.374
44027W        W 3772  31.127  31.098   3.206
44028W        W 3773  35.542  38.073   0.418
44029W        W 3774   9.833  30.576  13.821
44030W        W 3775  37.426  39.321  12.900
44031W        W 3776   3.727   4.231   2.845
44032W        W 3777  19.268  33.470  11.892
44033W        W 3778  40.016  38.466  11.378
44034W        W 3779  16.260   1.906   2.371
44035W        W 3780   6.765   2.273  10.967
44036W        W 3781  32.526  12.193  14.288
44037W        W 3782   1.904   4.382   3.692
44038W        W 3783  33.913  27.626   9.491
44039W        W 3784   8.725  18.271   4.614
44040W        W 3785  43.836  23.618  13.361
44041W        W 3786  33.051   6.227   3.836
44042W        W 3787  12.846  15.157  13.351
44043W        W 3788  26.489  15.578  13.442
44044W        W 3789  21.154  25.056   2.201
44045W        W 3790  36.454  43.940   4.307
44046W        W 3791   7.832  16.583  11.863
44047W        W 3792  42.971  34.878   5.178
44048W        W 3793  40.306  37.424   4.631
44049W        W 3794  42.513  14.809  13.422
44050W        W 3795  16.186  21.247  12.358
44051W        W 3796  34.502  20.222   0.324
44052W        W 3797  18.602  20.596   2.242
44053W        W 3798  23.628   4.357   0.870
44054W        W 3799  37.575  21.174   4.303
44055W        W 3800   5.773   8.296  12.044
44056W        W 3801  17.091  17.121   4.655
44057W        W 3802  24.980  20.750  12.063
44058W        W 3803  18.246  43.865   2.768
44059W        W 3804  30.489  31.590   3.840
44060W        W 3805  17.693  42.312   4.249
44061W        W 3806   3.457  31.939   4.705
44062W        W 3807  27.668  39.534   0.794
44063W        W 3808  12.627  44.318  14.822
44064W        W 3809  42.488  42.355   0.309
44065W        W 3810   1.409  40.931   4.133
44066W        W 3811  24.700  14.202   0.862
44067W        W 3812  37.996   8.766   2.325
44068W        W 3813   7.354   5.885   3.261
44069W        W 3814  19.621  26.155  12.028
44070W        W 3815  43.333  36.487  12.510
44071W        W 3816  25.661  29.095   1.210
44072W        W 3817  22.142   4.257   2.781
44073W        W 3818  32.577  11.654  12.486
44074W        W 3819  12.147  44.333  10.917
44075W        W 3820  41.504  42.867   5.141
44076W        W 3821  32.457  38.464  13.391
44077W        W 3822   6.732  13.322   4.789
44078W        W 3823   3.410  15.808  14.926
44079W        W 3824  18.094  41.512  14.416
44080W        W 3825  21.735   7.245  10.457
44081W        W 3826  44.447  12.746  14.927
44082W        W 3827  11.348  10.363  12.078
44083W        W 3828   0.431  17.174   3.760
44084W        W 3829  12.732  27.629  12.445
44085W        W 3830   1.768  27.173   0.344
44086W        W 3831  15.303  44.918   4.686
44087W        W 3832  42.932  23.531  14.919
44088W        W 3833   9.709  31.632   4.725
44089W        W 3834  12.657  40.997   0.865
44090W        W 3835   0.820  16.604  12.507
44091W        W 3836  43.907  38.461   5.580
44092W        W 3837   3.833   9.237   1.221
44093W        W 3838  21.536  24.553   0.366
44094W        W 3839  15.125  24.140  14.761
44095W        W 3840  26.675  28.183   1.397
44096W        W 3841  18.218  22.535  10.955
44097W        W 3842  43.873  39.945   4.146
44098W        W 3843  44.008  20.107  11.403
44099W        W 3844  26.039   1.310  10.539
44100W        W 3845  43.452  21.140   3.382
44101W        W 3846  43.283  15.175   1.860
44102W        W 3847   9.205  33.414  12.525
44103W        W 3848   0.816  14.122  13.054
44104W        W 3849   7.803   8.721  14.893
44105W        W 3850  10.253   8.900   2.191
44106W        W 3851  26.064  35.359   3.803
44107W        W 3852  17.191  20.765   0.403
44108W        W 3853  22.217  33.932  13.350
44109W        W 3854   2.358   8.341   1.286
44110W        W 3855  28.992  41.982  13.977
44111W        W 3856  38.325  32.403   2.690
44112W        W 3857  16.664  27.100   0.326
44113W        W 3858  12.153  35.504  11.409
44114W        W 3859   5.825  44.417   1.847
44115W        W 3860  25.147  23.569   3.358
44116W        W 3861   7.187  20.673   1.810
44117W        W 3862   3.862  42.031   1.768
44118W        W 3863  36.470  25.701   4.157
44119W        W 3864  41.341  24.047  10.439
44120W        W 3865  41.989  39.354   1.402
44121W        W 3866  22.151  30.448  11.064
44122W        W 3867  38.519  24.549   0.360
44123W        W 3868  27.173  42.306  11.866
44124W        W 3869  21.045  30.156   2.678
44125W        W 3870  27.691  19.157   0.741
44126W        W 3871  13.725  26.527  12.045
44127W        W 3872   7.845   0.881   2.680
44128W        W 3873  37.393  12.334   1.315
44129W        W 3874  17.189  44.270   2.764
44130W        W 3875  14.242  20.540   4.285
44131W        W 3876  44.962  38.379  12.417
44132W        W 3877  43.971  38.887   0.963
44133W        W 3878  24.034  43.453  12.542
44134W        W 3879  17.222  24.104   2.418
44135W        W 3880  24.682  18.100   3.177
44136W        W 3881   4.712  33.123  14.364
44137W        W 3882   8.774  19.278  12.362
44138W        W 3883  32.453   1.751  12.860
44139W        W 3884  16.175  14.812  14.021
44140W        W 3885   9.809  20.751   3.859
44141W        W 3886  33.952  36.429  11.921
44142W        W 3887  36.952   3.260   0.934
44143W        W 3888   8.160  20.737  14.511
44144W        W 3889  26.093  33.403   3.716
44145W        W 3890   3.831   5.703   4.127
44146W        W 3891   3.942  15.580   0.365
44147W        W 3892  24.545  22.679   3.278
44148W        W 3893  42.887  31.583  11.391
44149W        W 3894   0.283  12.178   0.788
44150W        W 3895  41.976   7.195  13.913
44151W        W 3896  20.133  36.056  14.951
44152W        W 3897   8.799  42.847  14.030
44153W        W 3898  17.257  22.144  12.388
44154W        W 3899   0.384  37.081  13.378
44155W        W 3900  31.067  23.553  10.528
44156W        W 3901   5.310  23.528  12.053
44157W        W 3902   7.844  34.519   2.327
44158W        W 3903  12.719  39.892  10.988
44159W        W 3904   1.355  42.434  12.988
44160W        W 3905   5.322  31.932  11.865
44161W        W 3906  40.388  25.714  14.823
44162W        W 3907  18.276  39.846   2.396
44163W        W 3908  27.455  42.781  10.096
44164W        W 3909   3.905  13.189   2.827
44165W        W 3910  17.295   7.305   3.314
44166W        W 3911  14.307  33.607   3.256
44167W        W 3912  14.134  27.037   1.397
44168W        W 3913  21.045  11.698   1.700
44169W        W 3914  42.496   0.824   0.761
44170W        W 3915  38.010   4.852  12.563
44171W        W 3916  13.301  43.844  13.833
44172W        W 3917  24.568  13.246   5.114
44173W        W 3918  42.427  37.545   1.920
44174W        W 3919  10.839  30.597   4.755
44175W        W 3920  15.615  15.234   0.869
44176W        W 3921  19.657  26.504  12.904
44177W        W 3922  37.913  22.163   1.811
44178W        W 3923  20.243  36.956  12.406
44179W        W 3924  20.199   9.682  11.450
44180W        W 3925  21.086  31.021  14.897
44181W        W 3926  43.372  19.213  13.819
44182W        W 3927  44.800  42.453   1.374
44183W        W 3928  40.903  15.730   4.242
44184W        W 3929  40.956  20.155  14.772
44185W        W 3930  12.634  10.247   3.283
44186W        W 3931  13.840   9.759   3.312
44187W        W 3932   2.812   1.474   1.373
44188W        W 3933  32.602  20.605  14.509
44189W        W 3934  38.431  38.474   3.851
44190W        W 3935  27.057   7.211  14.901
44191W        W 3936  26.157  35.043  11.480
44192W        W 3937  29.014  23.713   1.217
44193W        W 3938   8.342  23.540   0.330
44194W        W 3939  36.053  41.503  14.365
44195W        W 3940  21.194  18.276   3.307
44196W        W 3941  13.694  12.332  11.447
44197W        W 3942  29.438  21.051   3.812
44198W        W 3943  16.120   0.378  11.496
44199W        W 3944  26.015  37.350  14.451
44200W        W 3945  38.452  43.896  14.024
44201W        W 3946   0.824  42.016   5.120
44202W        W 3947  33.965  36.584   2.838
44203W        W 3948  41.011  14.159   2.752
44204W        W 3949  44.952  22.587   3.226
44205W        W 3950   0.942  36.439  10.928
44206W        W 3951  30.151   9.847  10.999
44207W        W 3952  39.027  33.576   5.210
44208W        W 3953  25.572  36.036  11.373
44209W        W 3954   4.344  31.476  11.533
44210W        W 3955  20.686  40.963  12.067
44211W        W 3956  20.648  18.556   1.935
44212W        W 3957  28.648  42.954  14.804
44213W        W 3958  42.466  37.850  14.785
44214W        W 3959   3.845   5.401   0.848
44215W        W 3960  36.449  10.840  11.607
44216W        W 3961  26.486  16.698   2.336
44217W        W 3962  35.936  40.987  10.420
44218W        W 3963  41.846  25.669   1.775
44219W        W 3964  23.513  35.366   4.652
44220W        W 3965   6.743   7.781  11.862
44221W        W 3966  19.175  14.296   4.136
44222W        W 3967  33.454   0.314   2.178
44223W        W 3968  24.609  33.402   1.838
44224W        W 3969  19.749   7.390   1.879
44225W        W 3970   1.879  44.403  11.045
44226W        W 3971  28.021  43.787  12.533
44227W        W 3972  11.645  10.738   1.385
44228W        W 3973   2.239  11.776   5.134
44229W        W 3974  33.099   4.757  14.338
44230W        W 3975  10.200  39.382   0.842
44231W        W 3976   5.359  27.672  13.860
44232W        W 3977  34.018  24.699  13.464
44233W        W 3978  19.083   3.740   4.304
44234W        W 3979  17.702  12.701   3.770
44235W        W 3980  31.151  15.718   0.950
44236W        W 3981   5.693  43.842   2.182
44237W        W 3982  28.598  21.107   0.878
44238W        W 3983  29.146  19.097  14.026
44239W        W 3984   4.772  40.500   2.794
44240W        W 3985   6.244   9.680  12.378
44241W        W 3986  21.681   4.312   5.121
44242W        W 3987   9.775  36.549   3.185
44243W        W 3988  19.192  11.200   1.844
44244W        W 3989  24.984  28.960   2.289
44245W        W 3990  33.077  22.087  14.890
44246W        W 3991  44.458  34.037  11.118
44247W        W 3992  38.840  18.678   4.642
44248W        W 3993  37.558   7.807  12.375
44249W        W 3994   2.730  32.483   4.292
44250W        W 3995  22.141  27.510  13.883
44251W        W 3996  42.360  39.528   1.844
44252W        W 3997   1.922  32.989   2.897
44253W        W 3998   5.922  19.637  13.982
44254W        W 3999  16.157  12.819  11.456
44255W        W 4000   9.671   4.915  12.850
44256W        W 4001   8.239  21.703  13.001
44257W        W 4002  11.821   1.764  10.150
44258W        W 4003  24.646  22.213  11.939
44259W        W 4004  21.553   4.232  11.856
44260W        W 4005   9.258   1.772   1.438
44261W        W 4006  28.062  28.156  14.965
44262W        W 4007  33.393  16.684   0.343
44263W        W 4008  19.740  11.205  14.916
44264W        W 4009  44.935   3.752  12.510
44265W        W 4010  41.441  21.144  13.460
44266W        W 4011   1.801  13.168  10.549
44267W        W 4012  17.259  43.404   0.371
44268W        W 4013   0.774   8.717  10.140
44269W        W 4014  18.620   2.904   4.802
44270W        W 4015   9.362  21.610  14.479
44271W        W 4016   4.847  18.059   3.715
44272W        W 4017   8.292  37.972  10.469
44273W        W 4018  17.151  34.060  14.027
44274W        W 4019  35.949  29.576   1.217
44275W        W 4020  44.992  16.789   2.252
44276W        W 4021  41.900  30.099  13.015
44277W        W 4022  22.129  29.658  14.023
44278W        W 4023  35.558   4.775   2.215
44279W        W 4024  32.136   0.846  14.417
44280W        W 4025  32.608  38.030   0.273
44281W        W 4026  44.871  21.183   5.235
44282W        W 4027  20.537  15.200   3.809
44283W        W 4028   6.213  38.447   0.967
44284W        W 4029  44.887  12.229   1.775
44285W        W 4030   5.338  40.968  13.447
44286W        W 4031  14.219  38.825   2.246
44287W        W 4032  44.457   0.393  11.988
44288W        W 4033  27.063  34.062   0.948
44289W        W 4034  21.222  28.640   2.833
44290W        W 4035  25.612  34.576  12.483
44291W        W 4036  28.472  41.842  14.887
44292W        W 4037  27.471   5.764  13.368
44293W        W 4038   2.345  22.523   1.801
44294W        W 4039  38.882  17.128   0.421
44295W        W 4040  37.348  15.272  11.389
44296W        W 4041  21.641   4.882  13.983
44297W        W 4042  18.226   2.465   1.293
44298W        W 4043  16.150   3.390   1.271
44299W        W 4044  13.839  11.188  13.799
44300W        W 4045  40.513   0.934  11.862
44301W        W 4046  16.077  44.975  14.398
44302W        W 4047  21.618  39.941  14.431
44303W        W 4048  19.080  30.069   3.289
44304W        W 4049  27.494  41.415   1.801
44305W        W 4050  36.942  29.134  13.447
44306W        W 4051  33.536  40.902   0.867
44307W        W 4052  40.326  17.214   2.702
44308W        W 4053  38.976  11.258   2.758
44309W        W 4054   8.803  41.912   4.303
44310W        W 4055   6.402   5.238  12.458
44311W        W 4056  30.451  25.560   0.735
44312W        W 4057  42.883   3.742  14.346
44313W        W 4058  18.689  33.595   1.858
44314W        W 4059  28.995   1.396   0.428
44315W        W 4060  37.027  14.182  13.830
44316W        W 4061  32.964  14.267  11.506
44317W        W 4062   5.231  19.695  13.392
44318W        W 4063  28.980   8.161  10.527
44319W        W 4064  39.549  14.258   3.297
44320W        W 4065  14.747  19.586   4.837
44321W        W 4066   0.269  16.193   2.297
44322W        W 4067   5.731  19.167  14.477
44323W        W 4068  12.805  11.800   4.222
44324W        W 4069  24.051  11.824   1.737
44325W        W 4070  16.074   1.812  13.008
44326W        W 4071  36.972   4.710   4.778
44327W        W 4072   4.272  21.107  12.846
44328W        W 4073   5.438  35.398   4.153
44329W        W 4074   3.796  28.664  12.420
44330W        W 4075  33.477  26.978  10.484
44331W        W 4076   1.767  13.229   4.252
44332W        W 4077  15.618  25.043   2.236
44333W        W 4078   0.859  23.230  13.346
44334W        W 4079  27.153  28.084   4.199
44335W        W 4080  25.113   4.210   0.801
44336W        W 4081  33.541  21.704  11.549
44337W        W 4082  17.104  38.902   0.836
44338W        W 4083   1.450   0.374  10.570
44339W        W 4084   7.813  18.712  14.277
44340W        W 4085  26.051   7.284  14.440
44341W        W 4086  41.366   9.291   4.197
44342W        W 4087  29.650  43.413   3.664
44343W        W 4088  18.261  24.521   4.197
44344W        W 4089   9.349  43.317  12.547
44345W        W 4090  30.509  36.582   4.611
44346W        W 4091  34.056   2.447   3.729
44347W        W 4092  12.823  26.206  11.529
44348W        W 4093  15.290  25.583   1.733
44349W        W 4094  20.116  34.418   0.262
44350W        W 4095  33.588   4.841   0.466
44351W        W 4096  43.856  11.827  11.493
44352W        W 4097  41.432  18.241   0.888
44353W        W 4098  41.502  25.471   5.193
44354W        W 4099  12.749  15.662   3.367
44355W        W 4100  15.794  17.091  13.792
44356W        W 4101  21.221  11.240   0.257
44357W        W 4102  23.567  18.727  11.998
44358W        W 4103  33.509  32.466  14.767
44359W        W 4104  13.266  33.043   2.705
44360W        W 4105  33.506  23.557   5.237
44361W        W 4106  34.973  28.182  11.538
44362W        W 4107  34.443  28.542  12.410
44363W        W 4108  44.974   3.792   0.242
44364W        W 4109  23.060  21.144  13.947
44365W        W 4110   0.488   0.956  13.544
44366W        W 4111  28.447  31.928   1.353
44367W        W 4112  38.927  30.488   2.730
44368W        W 4113  17.282  36.960   9.604
44369W        W 4114  23.996  38.325  14.942
44370W        W 4115   0.370  19.258  11.379
44371W        W 4116  18.194  23.517   4.243
44372W        W 4117  44.289  21.656   0.401
44373W        W 4118  20.258  29.078   4.794
44374W        W 4119  28.547  42.873  10.451
44375W        W 4120  38.888  26.017  14.831
44376W        W 4121  41.327  19.555  14.819
44377W        W 4122  26.649  24.619   3.728
44378W        W 4123  37.856  11.344   4.327
44379W        W 4124  19.244  43.840   3.291
44380W        W 4125  27.569  10.189  12.448
44381W        W 4126   7.820  25.998  12.975
44382W        W 4127  26.182  28.633   2.193
44383W        W 4128  22.106   9.807  13.858
44384W        W 4129  13.670  23.128  12.909
44385W        W 4130  31.546  44.971  11.034
44386W        W 4131  26.576   7.868  12.521
44387W        W 4132   8.801   4.746  14.488
44388W        W 4133  14.173  24.178  10.470
44389W        W 4134  17.288  16.567   1.922
44390W        W 4135   5.194  19.716  12.825
44391W        W 4136  34.038  20.077   1.751
44392W        W 4137  26.605   9.181   0.393
44393W        W 4138  14.595  34.551   0.415
44394W        W 4139   0.837  15.301   4.822
44395W        W 4140  13.682  28.438   1.216
44396W        W 4141  43.484   5.341  10.615
44397W        W 4142  26.522   4.883   4.814
44398W        W 4143  24.078   5.408  10.104
44399W        W 4144  32.475  42.942   3.690
44400W        W 4145  15.206   4.350  10.505
44401W        W 4146  42.023  10.211   1.853
44402W        W 4147  14.781   4.727   3.704
44403W        W 4148  42.464  11.228   3.864
44404W        W 4149  11.174  15.124  12.868
44405W        W 4150  32.557  25.020   3.681
44406W        W 4151  17.791  11.251   3.718
44407W        W 4152   2.836  38.072   9.488
44408W        W 4153  22.228   5.413   1.229
44409W        W 4154  16.318  18.277  10.970
44410W        W 4155  16.233  34.552  14.879
44411W        W 4156  11.707   9.830   4.698
44412W        W 4157  20.028   3.426  12.550
44413W        W 4158  21.605   3.850   2.246
44414W        W 4159  33.514  11.148   1.268
44415W        W 4160  16.745  23.989  11.005
44416W        W 4161  41.024  10.802   2.802
44417W        W 4162  44.440  35.879   2.253
44418W        W 4163  42.511  37.075   0.469
44419W        W 4164   8.349  22.999  11.979
44420W        W 4165  41.813  34.480   9.939
44421W        W 4166  31.043  23.720  13.806
44422W        W 4167  13.798  16.660   3.377
44423W        W 4168   9.853  30.993   1.385
44424W        W 4169   8.718  21.099   0.853
44425W        W 4170  21.131   4.367  11.435
44426W        W 4171  22.661   2.767   9.581
44427W        W 4172  26.172  11.143  14.023
44428W        W 4173  14.185  10.693   4.642
44429W        W 4174  22.645  40.474   5.234
44430W        W 4175  25.483  40.051   1.298
44431W        W 4176  28.046  21.021  11.960
44432W        W 4177  32.430  35.098  13.880
44433W        W 4178  12.750  20.125   4.315
44434W        W 4179   8.898  42.813  11.389
44435W        W 4180   0.782   4.780   3.280
44436W        W 4181  19.214  25.501   2.204
44437W        W 4182  15.181  19.700   1.216
44438W        W 4183  28.057  42.019  14.332
44439W        W 4184  34.412  27.993   0.444
44440W        W 4185   3.738  23.178   2.856
44441W        W 4186  23.219  36.568  10.434
44442W        W 4187   0.752  34.451   4.722
44443W        W 4188  33.539  11.271   2.714
44444W        W 4189  28.956  18.593   1.398
44445W        W 4190   7.885  12.126  14.823
44446W        W 4191   6.686  24.703   3.173
44447W        W 4192  16.238  14.247   0.308
44448W        W 4193  20.690  22.677   0.380
44449W        W 4194   3.896   7.822  13.967
44450W        W 4195  30.487  14.641   2.295
44451W        W 4196  35.869  40.831  12.346
44452W        W 4197  21.617   2.890   4.308
44453W        W 4198  33.434  17.632  10.155
44454W        W 4199   4.790  32.911   2.758
44455W        W 4200  19.694  31.987  14.878
44456W        W 4201  17.557   7.386  13.524
44457W        W 4202  29.510  15.744  13.375
44458W        W 4203  37.880   9.239  14.917
44459W        W 4204  19.765  37.388  14.885
44460W        W 4205   2.263   0.841   1.933
44461W        W 4206   1.747  39.958   4.302
44462W        W 4207  19.104  34.050  11.396
44463W        W 4208  37.849  26.480  12.889
44464W        W 4209  14.661  17.287   0.746
44465W        W 4210  41.997   4.335  14.835
44466W        W 4211   6.849  43.496   2.722
44467W        W 4212  27.097  43.399   1.734
44468W        W 4213  11.228  36.954  10.970
44469W        W 4214  21.617  11.732   4.732
44470W        W 4215   0.278  32.042   5.260
44471W        W 4216   9.680  11.852   0.265
44472W        W 4217   7.724   1.859   5.170
44473W        W 4218  25.519   2.903   1.811
44474W        W 4219  21.529  21.607  13.020
44475W        W 4220  16.613   5.339  14.986
44476W        W 4221  16.707  33.025   1.865
44477W        W 4222  10.867  33.425   2.714
44478W        W 4223  38.446   9.697   4.213
44479W        W 4224  30.448  39.494   2.413
44480W        W 4225  40.906  28.157  11.101
44481W        W 4226   6.712  21.064   0.292
44482W        W 4227  37.017  26.644  12.883
44483W        W 4228  17.204  17.680  13.931
44484W        W 4229  15.168  28.478   4.817
44485W        W 4230  27.046  24.595   3.827
44486W        W 4231  17.576  30.148  14.809
44487W        W 4232  31.949  16.093  11.384
44488W        W 4233  23.560  36.489   3.294
44489W        W 4234  38.055  12.640   0.793
44490W        W 4235  41.411   2.774   1.868
44491W        W 4236   9.827  29.557   2.851
44492W        W 4237  11.128  31.899  12.433
44493W        W 4238  43.512  10.242   1.714
44494W        W 4239  38.066  17.298   9.998
44495W        W 4240  33.935  18.613  13.979
44496W        W 4241  41.032  37.009   2.805
44497W        W 4242   8.200   4.714   2.271
44498W        W 4243  14.296  35.983   3.634
44499W        W 4244  31.404  44.385   1.426
44500W        W 4245  35.545  17.176   0.800
44501W        W 4246  31.997   2.844  13.332
44502W        W 4247  32.067   0.377  12.908
44503W        W 4248  30.133  41.885   3.368
44504W        W 4249   2.967  31.449  11.039
44505W        W 4250   0.910  17.101  14.912
44506W        W 4251   2.745  23.640  14.362
44507W        W 4252  36.531  43.309   2.322
44508W        W 4253  43.449  27.089   2.863
44509W        W 4254   7.360  21.110  10.472
44510W        W 4255   2.456  21.241   0.957
44511W        W 4256  22.243   4.280   4.619
44512W        W 4257   6.258  16.146   4.163
44513W        W 4258  42.889   6.329   2.396
44514W        W 4259   3.338   1.316  14.368
44515W        W 4260  25.669   8.293   4.715
44516W        W 4261  28.627  17.745   1.336
44517W        W 4262   1.974   7.198  11.399
44518W        W 4263  16.289  26.595   1.337
44519W        W 4264  14.312  30.942  13.900
44520W        W 4265   2.417  33.524   2.850
44521W        W 4266  41.801  27.663  12.828
44522W        W 4267  14.141  43.479   0.304
44523W        W 4268  44.300  13.805  11.478
44524W        W 4269   6.354  14.698  14.840
44525W        W 4270  43.333  11.304   2.335
44526W        W 4271  18.286  36.883  12.969
44527W        W 4272  44.352  43.375  12.894
44528W        W 4273  39.003   4.425  12.507
44529W        W 4274  15.592  39.002   1.904
44530W        W 4275   5.771  19.052  11.009
44531W        W 4276  27.678  17.574   0.952
44532W        W 4277  10.839  16.771  12.576
44533W        W 4278  28.560  30.081   2.679
44534W        W 4279  26.675  42.910   1.935
44535W        W 4280  22.746  10.170   2.797
44536W        W 4281  38.374   8.787   2.201
44537W        W 4282  37.957  27.967   1.863
44538W        W 4283   0.836  25.189   3.156
44539W        W 4284  25.051   1.319  13.911
44540W        W 4285  29.153   3.953  13.808
44541W        W 4286  12.697  38.835   4.688
44542W        W 4287  29.580  34.428  13.926
44543W        W 4288   7.720  33.901  10.500
44544W        W 4289  39.027  32.589   1.783
44545W        W 4290  39.064  38.329  14.840
44546W        W 4291  16.592  27.139   0.877
44547W        W 4292  23.136  16.634  10.486
44548W        W 4293  22.141  27.031  12.499
44549W        W 4294  16.605  29.034   2.269
44550W        W 4295  44.435  32.041  13.001
44551W        W 4296  41.877  28.070   0.820
44552W        W 4297  14.806  42.800   2.253
44553W        W 4298  18.572  44.442   4.729
44554W        W 4299  37.398  37.927   0.351
44555W        W 4300  37.373  25.076   4.768
44556W        W 4301   3.834  24.137  10.937
44557W        W 4302  18.579  39.475  13.933
44558W        W 4303  40.377  12.752   3.274
44559W        W 4304  31.097   3.310  12.449
44560W        W 4305  31.141  43.836   4.710
44561W        W 4306  36.041   2.436   4.702
44562W        W 4307  26.516   1.461  13.877
44563W        W 4308  17.679  22.160   2.780
44564W        W 4309  25.505  30.935  11.429
44565W        W 4310  43.916   7.187   2.337
44566W        W 4311  28.039  23.538   1.399
44567W        W 4312  35.506  17.236   4.290
44568W        W 4313  42.474  22.019   2.306
44569W        W 4314  10.718   7.415   2.368
44570W        W 4315   7.903   0.933  14.334
44571W        W 4316  19.045  42.427   4.267
44572W        W 4317  37.379   8.816   4.160
44573W        W 4318  24.975  13.194   4.336
44574W        W 4319  33.614  17.772  12.391
44575W        W 4320  17.065   2.352   0.845
44576W        W 4321  39.341  30.130   2.248
44577W        W 4322  29.591  32.522   3.267
44578W        W 4323  40.988  14.257   2.194
44579W        W 4324  40.904   1.868  13.329
44580W        W 4325  16.622   3.790  11.601
44581W        W 4326  18.711  39.438  11.910
44582W        W 4327  36.076  22.096  13.489
44583W        W 4328  37.073  17.160   4.771
44584W        W 4329  20.677  18.757  13.044
44585W        W 4330  30.535   2.389  12.896
44586W        W 4331  31.573   7.223   0.933
44587W        W 4332  34.587  12.119  10.542
44588W        W 4333   6.296  26.057  10.572
44589W        W 4334  27.649  41.361   1.391
44590W        W 4335  27.635  31.612  10.083
44591W        W 4336  24.705  25.036  13.400
44592W        W 4337   1.757  26.202   3.151
44593W        W 4338  41.300  26.182  14.956
44594W        W 4339  24.574  23.095   4.727
44595W        W 4340  28.579  13.286   0.287
44596W        W 4341  18.600  10.315   4.767
44597W        W 4342  33.116   6.400  12.096
44598W        W 4343  20.682   1.321  14.304
44599W        W 4344  23.646  36.362  13.922
44600W        W 4345  23.183   5.701   3.643
44601W        W 4346  19.237  33.083   2.694
44602W        W 4347  21.711  28.004  10.945
44603W        W 4348  23.110  33.591   3.233
44604W        W 4349  27.635  34.996  13.540
44605W        W 4350  27.128  31.403  14.960
44606W        W 4351  22.169  44.259   1.291
44607W        W 4352   4.335  15.624  12.827
44608W        W 4353  11.662  29.602   3.375
44609W        W 4354  34.028  14.133   1.247
44610W        W 4355  42.351  29.580  14.828
44611W        W 4356  42.798  25.075  14.820
44612W        W 4357  18.719  25.644   1.740
44613W        W 4358  39.984  33.586  10.939
44614W        W 4359  26.124   0.830   3.290
44615W        W 4360   2.443  27.976   3.293
44616W        W 4361  39.531  11.770   3.785
44617W        W 4362  15.247   2.956   1.725
44618W        W 4363  18.108  15.801  11.904
44619W        W 4364  22.054  44.444  12.991
44620W        W 4365  30.541   0.785   3.715
44621W        W 4366  23.180  17.622  11.919
44622W        W 4367  29.426  35.583   4.340
44623W        W 4368   2.822  22.234  12.953
44624W        W 4369  40.376  24.551  12.394
44625W        W 4370   1.872  27.996  14.880
44626W        W 4371  36.866  36.411  12.032
44627W        W 4372   8.299  30.550  10.539
44628W        W 4373  15.240  13.265   0.928
44629W        W 4374  23.108  29.112   3.816
44630W        W 4375  38.461  28.465  10.544
44631W        W 4376  20.536  17.225  12.361
44632W        W 4377   9.157  27.057   1.782
44633W        W 4378  28.159  33.514   3.719
44634W        W 4379  16.768   0.449  13.941
44635W        W 4380   6.914   9.844   3.311
44636W        W 4381  30.029  16.716   4.693
44637W        W 4382  36.099   6.902   3.849
44638W        W 4383  42.470  40.908   0.357
44639W        W 4384  31.404  40.840   4.163
44640W        W 4385  25.002   9.235  13.412
44641W        W 4386  23.127  44.472   0.450
44642W        W 4387  10.198  40.891   0.803
44643W        W 4388  28.055  16.667  12.840
44644W        W 4389  40.953   2.909   0.339
44645W        W 4390   8.247   6.681   4.599
44646W        W 4391  14.601  12.138  14.973
44647W        W 4392  44.371  17.685   0.967
44648W        W 4393  16.091  18.163   2.402
44649W        W 4394  20.669   9.153   3.847
44650W        W 4395   8.785  21.719  14.471
44651W        W 4396  40.941   6.710  14.955
44652W        W 4397   0.846  13.220  10.456
44653W        W 4398  24.663  24.596   4.641
44654W        W 4399  14.792  40.412   4.649
44655W        W 4400  31.063   3.787  10.637
44656W        W 4401  23.062  16.316  10.961
44657W        W 4402  25.962  17.687  11.003
44658W        W 4403  38.456  31.615   3.194
44659W        W 4404  10.346  26.585  11.385
44660W        W 4405  14.179  30.150   3.341
44661W        W 4406  15.649  44.266  14.982
44662W        W 4407   9.378  42.878  13.376
44663W        W 4408  20.252  12.312  14.024
44664W        W 4409  18.060   0.849   2.680
44665W        W 4410   2.340   6.322   1.814
44666W        W 4411  25.470  41.993  11.963
44667W        W 4412  43.017   8.321   0.928
44668W        W 4413  18.763   5.210  13.834
44669W        W 4414  31.487  10.280  12.960
44670W        W 4415  16.202  40.529  13.394
44671W        W 4416  39.457  30.010  11.437
44672W        W 4417   5.334  29.494   4.217
44673W        W 4418  24.613  22.682  10.609
44674W        W 4419  42.416  21.244  12.033
44675W        W 4420  41.491  24.227   4.771
44676W        W 4421  42.887  16.654   1.380
44677W        W 4422  11.345  23.997  11.921
44678W        W 4423  39.461   1.970   4.823
44679W        W 4424  26.479   4.369  14.437
44680W        W 4425  44.318   0.969   3.664
44681W        W 4426   8.387  30.638  14.858
44682W        W 4427  19.584  29.093  12.399
44683W        W 4428  35.858  35.074  11.471
44684W        W 4429  10.852  31.646   3.848
44685W        W 4430  42.380  27.960  13.355
44686W        W 4431  40.365  29.483  12.073
44687W        W 4432   6.269  21.085   4.301
44688W        W 4433  25.658  35.868  13.975
44689W        W 4434  40.394  24.585   3.864
44690W        W 4435  39.473   1.255  13.340
44691W        W 4436  30.950  27.670   5.169
44692W        W 4437  40.491  20.247   4.188
44693W        W 4438  23.544  36.478   0.906
44694W        W 4439  21.518  36.472  11.037
44695W        W 4440   2.734  27.672   4.180
44696W        W 4441  42.861  41.039   2.270
44697W        W 4442  29.096   3.422  14.460
44698W        W 4443  29.551  30.009   1.344
44699W        W 4444  44.455  20.587  12.498
44700W        W 4445  11.866  25.571   4.220
44701W        W 4446  27.525   9.381  13.053
44702W        W 4447  39.934  42.451  12.925
44703W        W 4448  23.652  21.196   2.297
44704W        W 4449  23.610  38.354  13.039
44705W        W 4450   9.754  23.547   4.232
44706W        W 4451  12.265  16.811  12.421
44707W        W 4452  35.102   7.303  11.426
44708W        W 4453  41.427  29.922   1.422
44709W        W 4454  34.000   4.788   0.749
44710W        W 4455  43.303  26.577   4.335
44711W        W 4456  36.988   3.884  13.887
44712W        W 4457  18.777  35.059  12.957
44713W        W 4458   8.900   8.835  11.020
44714W        W 4459  24.703  41.954  12.876
44715W        W 4460  43.495  22.223  10.899
44716W        W 4461  27.520  29.470  11.446
44717W        W 4462  37.996  33.074   4.729
44718W        W 4463  40.374  33.940  10.482
44719W        W 4464  27.473   5.411  11.871
44720W        W 4465  40.386  22.695  13.923
44721W        W 4466  11.271  17.177   3.745
44722W        W 4467  28.515  40.826  10.582
44723W        W 4468  10.695  12.215   1.312
44724W        W 4469  16.105  27.944   1.859
44725W        W 4470  35.571  34.508  14.458
44726W        W 4471  22.686  18.732   2.719
44727W        W 4472   9.288   8.854  14.778
44728W        W 4473  17.583  11.211  13.468
44729W        W 4474   6.718   9.796  13.420
44730W        W 4475  11.828  31.646  11.453
44731W        W 4476   4.714   6.846   4.693
44732W        W 4477   0.449  21.524  12.085
44733W        W 4478  13.221  26.567   0.922
44734W        W 4479  21.067  32.988  13.503
44735W        W 4480  10.167  30.037   3.642
44736W        W 4481  34.537  34.058   0.445
44737W        W 4482  13.199  44.387  13.456
44738W        W 4483  30.453   3.747   0.411
44739W        W 4484  31.403  24.213  13.837
44740W        W 4485  33.585   6.253  10.893
44741W        W 4486  29.554  12.318   3.315
44742W        W 4487  38.504  20.673  11.988
44743W        W 4488  22.224  32.474   4.642
44744W        W 4489  14.259  22.530  12.416
44745W        W 4490  35.484  26.580   0.379
44746W        W 4491  11.678   5.248   0.812
44747W        W 4492  40.011  21.160  13.475
44748W        W 4493  42.976  12.808  14.968
44749W        W 4494  43.871  32.627  12.373
44750W        W 4495  44.381  14.676   3.862
44751W        W 4496  40.044   6.238   4.701
44752W        W 4497  33.052  29.654   0.410
44753W        W 4498  34.955  11.147  11.479
44754W        W 4499   1.872  42.799  14.020
44755W        W 4500   3.779   1.870  11.560
44756W        W 4501  23.226   7.234  12.873
44757W        W 4502  32.957  44.960  12.825
44758W        W 4503  41.465   5.270  13.871
44759W        W 4504  28.455  36.852   2.283
44760W        W 4505   4.234  42.989  14.433
44761W        W 4506  33.451   2.437   1.707
44762W        W 4507  11.654   4.705   4.279
44763W        W 4508  21.719   9.288   2.252
44764W        W 4509  43.299   7.299  14.480
44765W        W 4510  37.856  17.252  11.068
44766W        W 4511  35.486  38.964   1.412
44767W        W 4512  13.259  29.615   0.352
44768W        W 4513  18.132  16.306  12.510
44769W        W 4514   2.295  23.619  11.931
44770W        W 4515   4.852  33.936  12.020
44771W        W 4516   9.739  34.944  14.391
44772W        W 4517   8.296   4.867  14.939
44773W        W 4518   3.458   5.733   1.909
44774W        W 4519  29.007  38.067   4.346
44775W        W 4520  32.462  36.436   1.854
44776W        W 4521   7.288  26.650  13.825
44777W        W 4522  34.027   7.391   3.156
44778W        W 4523  39.436  36.503  14.807
44779W        W 4524  24.670  20.096  13.885
44780W        W 4525  11.835  13.830  13.545
44781W        W 4526  32.911  43.004  11.125
44782W        W 4527  13.312  15.094  12.511
44783W        W 4528   1.253   1.793  14.507
44784W        W 4529  27.678   7.356   2.858
44785W        W 4530  21.187  40.028   3.314
44786W        W 4531  27.558  29.475   0.762
44787W        W 4532   0.288  24.702   0.967
44788W        W 4533  32.978  36.356  14.395
44789W        W 4534  31.581   4.927   3.641
44790W        W 4535   9.679  20.111   0.828
44791W        W 4536  22.051  18.085   2.732
44792W        W 4537  31.145  29.072   2.890
44793W        W 4538  24.170  18.272   9.994
44794W        W 4539  34.402  43.958  12.893
44795W        W 4540   8.679  36.959   2.345
44796W        W 4541   5.690  13.200  10.994
44797W        W 4542   1.770  16.796   4.218
44798W        W 4543  16.275   2.289  12.009
44799W        W 4544  40.840  33.477   4.136
44800W        W 4545  15.110  18.567   4.632
44801W        W 4546  42.807  26.096   2.701
44802W        W 4547  16.256  43.479  11.868
44803W        W 4548  29.609  30.458  13.389
44804W        W 4549  17.178  32.941  13.826
44805W        W 4550  16.761  32.636  12.917
44806W        W 4551  44.288  34.999   0.914
44807W        W 4552  33.540  12.133  14.470
44808W        W 4553  35.946   4.404  10.632
44809W        W 4554  42.345  24.049   0.949
44810W        W 4555   9.852  35.867  12.891
44811W        W 4556  16.196  36.394  13.948
44812W        W 4557  28.953  20.667   0.293
44813W        W 4558  27.167  29.132  14.291
44814W        W 4559   4.294  27.620   2.885
44815W        W 4560  10.266  17.301   1.743
44816W        W 4561  22.635  36.090  12.478
44817W        W 4562  29.514  35.011  13.361
44818W        W 4563  15.798   6.423   0.268
44819W        W 4564  33.039  27.104   2.696
44820W        W 4565   6.820   8.321   0.764
44821W        W 4566  44.011  39.887  13.871
44822W        W 4567  33.399  41.390   3.725
44823W        W 4568  10.698  41.413  11.083
44824W        W 4569  38.026   1.966  12.043
44825W        W 4570  21.174  24.694   2.328
44826W        W 4571  34.092  13.241  14.852
44827W        W 4572  40.851  43.778  12.070
44828W        W 4573   4.933  26.200  14.402
44829W        W 4574  23.075   1.443   5.747
44830W        W 4575  22.066   2.958  14.343
44831W        W 4576  37.950  35.462  11.905
44832W        W 4577  31.930  23.122  11.972
44833W        W 4578  30.911  17.196   4.222
44834W        W 4579   2.295  10.368  12.507
44835W        W 4580  40.858   6.735   1.317
44836W        W 4581  17.572  22.738  10.448
44837W        W 4582  10.790  20.547   0.774
44838W        W 4583  25.202  13.823  11.417
44839W        W 4584  35.971  15.140  13.888
44840W        W 4585  18.678  25.180  12.849
44841W        W 4586  18.106  21.602  12.930
44842W        W 4587  25.477  12.265   0.845
44843W        W 4588   5.338  39.865  11.608
44844W        W 4589  38.380   3.252   0.770
44845W        W 4590  13.841  14.212  12.405
44846W        W 4591  37.472  37.470  14.993
44847W        W 4592  30.062  32.063  12.979
44848W        W 4593  14.673  35.985  13.419
44849W        W 4594   9.656  25.657   1.330
44850W        W 4595  24.046  41.365   3.691
44851W        W 4596  38.917  38.993  10.926
44852W        W 4597  22.547   5.921  14.404
44853W        W 4598  17.279   5.802  12.994
44854W        W 4599  12.286  21.626   1.382
44855W        W 4600  17.742  27.162   1.929
44856W        W 4601   7.199  42.379  12.354
44857W        W 4602  20.260  24.713  13.965
44858W        W 4603  43.995  22.238  10.441
44859W        W 4604  29.531  12.309  14.360
44860W        W 4605   1.409  41.532   0.438
44861W        W 4606  15.636   8.858   3.387
44862W        W 4607  44.838  24.524   3.190
44863W        W 4608  16.681  12.722  13.056
44864W        W 4609  28.013   1.923   3.332
44865W        W 4610   8.298   7.328   4.255
44866W        W 4611  24.506  27.599  14.849
44867W        W 4612  11.176  12.290   1.772
44868W        W 4613  24.604  41.330   1.265
44869W        W 4614  34.382  14.236  12.000
44870W        W 4615   5.380  24.509  12.492
44871W        W 4616   1.429   5.832  11.003
44872W        W 4617  39.874  28.447   2.398
44873W        W 4618  23.568   1.969   1.280
44874W        W 4619  36.044  33.945   0.865
44875W        W 4620  31.025  18.145  12.534
44876W        W 4621  30.133   7.800  12.064
44877W        W 4622  43.298  20.734  14.392
44878W        W 4623  11.728  28.077   4.724
44879W        W 4624  40.991  42.979  11.481
44880W        W 4625   6.300  38.328   1.737
44881W        W 4626  18.783  15.698  11.019
44882W        W 4627   3.845  27.628  13.416
44883W        W 4628  39.386  17.800   3.713
44884W        W 4629  44.441  38.965  11.559
44885W        W 4630  33.562  16.805  12.979
44886W        W 4631   3.741  12.123   4.317
44887W        W 4632  12.685  19.694  13.398
44888W        W 4633   9.241   5.273  11.430
44889W        W 4634   2.954   3.249  12.536
44890W        W 4635  30.022  17.595   3.229
44891W        W 4636  33.991   2.766   5.136
44892W        W 4637   8.229  25.491  11.068
44893W        W 4638  35.565   8.359  11.477
44894W        W 4639  26.671  13.156  14.947
44895W        W 4640  30.619   2.428   0.338
44896W        W 4641  15.604  31.647   2.800
44897W        W 4642  33.951  25.058   2.850
44898W        W 4643  17.623  30.023  14.363
44899W        W 4644  31.093  23.677   2.411
44900W        W 4645  17.226  30.527  13.912
44901W        W 4646  14.759   8.306   3.208
44902W        W 4647  11.277   2.797   3.222
44903W        W 4648  27.481   2.362   3.760
44904W        W 4649  32.592  25.169   1.439
44905W        W 4650  23.028   4.900   2.228
44906W        W 4651  12.803  23.087  11.403
44907W        W 4652  14.185  40.360   5.322
44908W        W 4653  24.187   1.438   3.250
44909W        W 4654  30.650  25.081  11.968
44910W        W 4655   0.898   9.316   4.827
44911W        W 4656  41.308  14.793   2.672
44912W        W 4657   2.930   6.199  14.784
44913W        W 4658   5.421   2.433   0.388
44914W        W 4659   1.358  16.761   4.615
44915W        W 4660  19.170  40.358  11.458
44916W        W 4661  42.496  12.286  13.513
44917W        W 4662   1.847   5.429   4.807
44918W        W 4663   4.899  31.560  14.789
44919W        W 4664   9.686   0.421   3.257
44920W        W 4665  22.659  12.741  11.943
44921W        W 4666  38.398  25.166   5.170
44922W        W 4667  11.722   3.232   2.871
44923W        W 4668  12.797  35.389   2.383
44924W        W 4669  43.378   0.445   2.179
44925W        W 4670  10.337  21.727  13.793
44926W        W 4671  26.018  27.447   0.387
44927W        W 4672   7.835   9.192   1.224
44928W        W 4673  42.425  22.211  14.366
44929W        W 4674  11.643  29.451   3.864
44930W        W 4675  43.826  42.386  14.847
44931W        W 4676  23.530  32.916   1.347
44932W        W 4677  34.006  23.655   1.843
44933W        W 4678  38.024  19.055  14.387
44934W        W 4679  35.106  27.662   0.261
44935W        W 4680  22.656  11.641  13.471
44936W        W 4681   6.336  36.860   0.413
44937W        W 4682   4.374  38.354   1.233
44938W        W 4683   3.799  17.070   1.410
44939W        W 4684  26.194  43.823   3.265
44940W        W 4685   5.415  14.666  12.095
44941W        W 4686  41.440  16.739  10.498
44942W        W 4687   3.403  27.573  10.562
44943W        W 4688  11.856   2.345  12.467
44944W        W 4689  41.336  16.255  11.433
44945W        W 4690  20.596  24.159  14.485
44946W        W 4691   9.838  37.012  14.937
44947W        W 4692  11.833  13.128  14.858
44948W        W 4693  22.710  16.123   0.926
44949W        W 4694  13.159  10.703  13.952
44950W        W 4695   5.712  36.905   4.166
44951W        W 4696  23.999  41.467   5.234
44952W        W 4697  11.719  25.636   1.903
44953W        W 4698  14.683  32.570  11.043
44954W        W 4699  39.857  31.460   2.892
44955W        W 4700  34.513  43.340  13.022
44956W        W 4701  22.570  33.902   4.274
44957W        W 4702  27.585  34.479   1.336
44958W        W 4703  34.919  34.553   1.829
44959W        W 4704  41.423   4.410  14.487
44960W        W 4705  41.374   3.223   1.708
44961W        W 4706  28.593  44.889   4.837
44962W        W 4707   3.282  20.108  14.406
44963W        W 4708  41.305  10.209  13.944
44964W        W 4709   6.893   2.935  13.454
44965W        W 4710   7.344  24.125   2.392
44966W        W 4711  22.560  18.710  13.976
44967W        W 4712  16.741  20.670  10.575
44968W        W 4713  36.559  15.809  10.068
44969W        W 4714  31.428  25.580   2.333
44970W        W 4715   8.773  15.313   4.278
44971W        W 4716   2.371  41.512  12.476
44972W        W 4717  39.488  35.373  11.454
44973W        W 4718  44.755  35.861  11.107
44974W        W 4719  41.829   1.334   2.291
44975W        W 4720  36.411  42.418   1.449
44976W        W 4721  31.022  43.378  14.461
44977W        W 4722  38.030   8.260   3.798
44978W        W 4723  15.189  24.014  13.050
44979W        W 4724   0.789  19.251  12.381
44980W        W 4725   7.318  41.311  12.976
44981W        W 4726  27.185   1.784   3.309
44982W        W 4727  17.214  17.195  12.925
44983W        W 4728   2.939  22.145  10.529
44984W        W 4729  11.760  42.861  12.928
44985W        W 4730   9.645  38.331   4.656
44986W        W 4731   4.433   7.218   4.659
44987W        W 4732  35.909  13.754  11.019
44988W        W 4733  31.935   2.346  12.458
44989W        W 4734  38.363  14.697   3.176
44990W        W 4735  31.460  25.072   3.251
44991W        W 4736   0.915  32.456  12.833
44992W        W 4737  24.092  29.488   1.387
44993W        W 4738  31.017   0.449   0.454
44994W        W 4739  23.085   3.853  12.066
44995W        W 4740   9.674   4.809   3.376
44996W        W 4741  22.051  38.922   2.272
44997W        W 4742  33.416   9.726  13.920
44998W        W 4743  40.991  35.879  14.798
44999W        W 4744   6.902   7.293   2.183
45000W        W 4745  16.298   7.179  13.543
45001W        W 4746  21.225  42.390  11.120
45002W        W 4747  18.194  30.047   2.416
45003W        W 4748   0.315  44.800   3.853
45004W        W 4749  35.540  32.555  11.963
45005W        W 4750  32.507   5.744  14.925
45006W        W 4751   1.444  27.994   2.729
45007W        W 4752   2.737  38.072   1.773
45008W        W 4753  27.502   4.852  11.064
45009W        W 4754  13.282  17.286  10.491
45010W        W 4755  26.021  40.498  11.559
45011W        W 4756  39.932  35.929  13.382
45012W        W 4757  25.019  42.972  12.876
45013W        W 4758  44.815  34.442  13.463
45014W        W 4759  21.107  14.121  13.000
45015W        W 4760   6.744  43.413   1.778
45016W        W 4761  42.444  35.882   1.897
45017W        W 4762   7.235   7.215  12.384
45018W        W 4763  15.092  23.023  14.767
45019W        W 4764  10.283  42.525   4.823
45020W        W 4765   9.805  15.310  10.629
45021W        W 4766  14.206  44.491   4.205
45022W        W 4767   5.207   1.454  12.967
45023W        W 4768  25.580  30.007  12.044
45024W        W 4769  12.729  17.120   4.211
45025W        W 4770  30.629  44.373   1.920
45026W        W 4771  32.125  40.335  12.443
45027W        W 4772   5.845  40.889   4.618
45028W        W 4773  18.170  36.561   3.354
45029W        W 4774   4.343   5.853   3.795
45030W        W 4775  24.194  23.215   4.625
45031W        W 4776   0.983  10.711   2.743
45032W        W 4777   2.814  13.816   1.734
45033W        W 4778  24.196   1.291   2.415
45034W        W 4779   2.463  24.086  10.897
45035W        W 4780  31.647   4.212  14.890
45036W        W 4781  20.103  20.117  11.867
45037W        W 4782   0.347  43.771   4.140
45038W        W 4783  25.487   9.774   3.659
45039W        W 4784  42.314  39.865   3.685
45040W        W 4785  29.530  35.085  13.905
45041W        W 4786  26.017  29.535  10.127
45042W        W 4787   5.783   9.223  10.628
45043W        W 4788   2.806  12.271  14.405
45044W        W 4789  44.872  25.106   3.775
45045W        W 4790  30.125  18.650   2.831
45046W        W 4791   4.239  22.120   0.861
45047W        W 4792  43.313  25.202  12.341
45048W        W 4793  36.515  16.661  11.970
45049W        W 4794  18.754   7.262   1.854
45050W        W 4795  34.011  25.982  10.564
45051W        W 4796  16.618   2.881  13.345
45052W        W 4797  19.271  43.315  11.426
45053W        W 4798  21.556  35.580  13.993
45054W        W 4799  12.226  21.108   9.949
45055W        W 4800  27.061   3.767  13.511
45056W        W 4801  28.631  38.367  11.563
45057W        W 4802  20.161  12.685  14.284
45058W        W 4803   3.313  15.768  12.972
45059W        W 4804  38.058  43.783  14.001
45060W        W 4805  35.437  31.616   4.161
45061W        W 4806  35.042  14.325  13.419
45062W        W 4807  10.746   0.799  11.975
45063W        W 4808  25.528  18.658  11.087
45064W        W 4809  42.512  10.778   4.745
45065W        W 4810  23.578   3.377  10.471
45066W        W 4811  27.637  34.104  11.490
45067W        W 4812  44.367  39.923  13.509
45068W        W 4813  24.566  32.632   2.805
45069W        W 4814  20.064   2.352   4.238
45070W        W 4815  12.723  25.099  12.544
45071W        W 4816   3.406  26.993  14.501
45072W        W 4817   3.727  15.171   4.803
45073W        W 4818   4.798  29.548  10.991
45074W        W 4819  24.003  25.195   0.811
45075W        W 4820  44.803  23.036  13.000
45076W        W 4821  27.004  34.092   3.655
45077W        W 4822  22.085  20.263  13.809
45078W        W 4823  26.605   8.394   4.621
45079W        W 4824  30.478  20.543  11.420
45080W        W 4825  23.128   0.450   2.414
45081W        W 4826  31.948  21.076  12.866
45082W        W 4827   0.755  20.251   0.827
45083W        W 4828  37.531  32.897  12.889
45084W        W 4829  12.615  18.549   4.127
45085W        W 4830  24.627  41.317  14.967
45086W        W 4831  23.555  21.084   3.294
45087W        W 4832  43.940   0.954  12.433
45088W        W 4833  13.794   8.709  14.448
45089W        W 4834  17.794  30.134   0.783
45090W        W 4835  37.945  29.648   4.157
45091W        W 4836  32.926  21.564  10.018
45092W        W 4837  30.944  31.143  12.373
45093W        W 4838  34.896  31.573   0.847
45094W        W 4839  25.211  22.193   2.868
45095W        W 4840  24.565  28.146  11.904
45096W        W 4841  24.639  13.684   2.263
45097W        W 4842  10.185  29.616  14.871
45098W        W 4843  11.702  19.144  11.372
45099W        W 4844  27.034  20.609  12.032
45100W        W 4845  15.748  24.087   3.816
45101W        W 4846  34.478   5.330  13.531
45102W        W 4847  29.974  20.274   1.803
45103W        W 4848  41.462  21.517   3.852
45104W        W 4849  20.529  29.038   3.642
45105W        W 4850  37.923  33.384   1.915
45106W        W 4851  16.613  23.183  13.893
45107W        W 4852  40.830   2.345  14.309
45108W        W 4853  32.606  20.646   4.240
45109W        W 4854  35.393   1.976  11.077
45110W        W 4855  13.714  39.857  10.025
45111W        W 4856  40.937  16.165  11.877
45112W        W 4857  33.463  37.405  12.542
45113W        W 4858  16.075  17.584   4.125
45114W        W 4859   9.777   3.402   1.817
45115W        W 4860   7.753  26.018   3.153
45116W        W 4861   5.752   0.822   3.336
45117W        W 4862  23.679  24.699  13.480
45118W        W 4863  34.584  37.876   3.655
45119W        W 4864  32.038  17.799   1.387
45120W        W 4865  13.349   9.705  11.003
45121W        W 4866  34.532   4.252   0.339
45122W        W 4867  15.172  21.612  11.927
45123W        W 4868   7.351  34.408  10.418
45124W        W 4869  19.275  21.675  14.820
45125W        W 4870   7.179  12.147   2.868
45126W        W 4871   9.285  15.779  14.320
45127W        W 4872  19.692  17.072   3.177
45128W        W 4873  28.589   5.901  14.920
45129W        W 4874  20.037  33.080  10.083
45130W        W 4875   2.317  30.459  12.070
45131W        W 4876  30.107  25.589  14.328
45132W        W 4877   6.306  16.657  11.538
45133W        W 4878  39.837  35.431  14.787
45134W        W 4879  20.228  21.200   2.887
45135W        W 4880  19.586  36.417   1.714
45136W        W 4881   9.684  27.995  13.319
45137W        W 4882  41.031  32.037  12.076
45138W        W 4883  37.368  13.810  14.454
45139W        W 4884  25.525  35.853   2.402
45140W        W 4885   6.258  36.421   4.353
45141W        W 4886  32.137  36.957   1.744
45142W        W 4887  33.472  13.639   1.893
45143W        W 4888  39.414  17.290  10.995
45144W        W 4889  33.918  27.113   3.705
45145W        W 4890  16.142   5.873   3.158
45146W        W 4891  40.891  42.498  13.023
45147W        W 4892  28.934  37.367  14.289
45148W        W 4893   9.214  41.037   1.739
45149W        W 4894  32.105   6.425  12.374
45150W        W 4895  14.249   6.918   1.381
45151W        W 4896  13.286  17.623   4.295
45152W        W 4897  14.160  28.126   2.183
45153W        W 4898  26.668  43.874   3.285
45154W        W 4899  38.822  27.954   1.290
45155W        W 4900  20.750   0.398   1.931
45156W        W 4901  10.645  25.075   0.963
45157W        W 4902  35.504  33.484  10.976
45158W        W 4903   9.202  23.193  13.943
45159W        W 4904  38.493  31.943   2.250
45160W        W 4905  20.156  23.556   4.320
45161W        W 4906   6.752  13.220   2.333
45162W        W 4907   4.269  40.017   0.440
45163W        W 4908  21.751  21.177  10.888
45164W        W 4909   6.338  18.590  12.893
45165W        W 4910  23.621  24.049  10.488
45166W        W 4911  35.402  24.037   1.793
45167W        W 4912   4.419   4.430  12.488
45168W        W 4913   9.647  17.648  11.505
45169W        W 4914  36.933   4.442   3.790
45170W        W 4915  17.282  10.738  14.794
45171W        W 4916  14.653   7.189   4.121
45172W        W 4917  35.423   3.336  14.485
45173W        W 4918  19.050   0.868   1.794
45174W        W 4919  32.940   7.358   2.855
45175W        W 4920  41.308   4.262   3.230
45176W        W 4921  26.044  13.669   2.832
45177W        W 4922  13.825   6.222   1.726
45178W        W 4923  16.656  40.919  12.906
45179W        W 4924  42.877  16.117   4.307
45180W        W 4925  34.028   1.251  11.920
45181W        W 4926  33.575  27.528  12.052
45182W        W 4927   1.958  23.659  11.612
45183W        W 4928  13.139   1.800   1.268
45184W        W 4929  12.841  11.340  13.797
45185W        W 4930  36.945  20.527   1.276
45186W        W 4931   7.856  34.023   0.344
45187W        W 4932  31.492  26.619  13.538
45188W        W 4933  41.965  36.402   2.293
45189W        W 4934  31.074  19.279  12.404
45190W        W 4935  39.327   2.293   0.844
45191W        W 4936  44.925  15.709  12.909
45192W        W 4937   3.416   9.185   5.287
45193W        W 4938  26.693  20.198   2.276
45194W        W 4939   1.332  35.581  13.816
45195W        W 4940  38.879  43.408  10.588
45196W        W 4941  43.896  44.321   4.189
45197W        W 4942  32.512   9.349  14.024
45198W        W 4943  30.455   6.902  11.896
45199W        W 4944  15.779  21.662  12.575
45200W        W 4945  26.092  44.269   4.765
45201W        W 4946   2.904  19.562  13.405
45202W        W 4947   3.371  14.788   1.728
45203W        W 4948  16.106   1.921  11.572
45204W        W 4949  39.482  38.952  13.866
45205W        W 4950  32.110  43.272   1.722
45206W        W 4951  21.521  21.134   4.198
45207W        W 4952  19.736  25.980   0.936
45208W        W 4953  40.444  40.329   4.611
45209W        W 4954   0.303  28.050  14.277
45210W        W 4955  31.507  10.319   4.139
45211W        W 4956  37.880  11.654   4.246
45212W        W 4957   7.858  42.802   4.837
45213W        W 4958  30.424  26.152   2.199
45214W        W 4959   8.737  17.103  12.380
45215W        W 4960  25.101   9.842  12.073
45216W        W 4961  39.900  44.285   0.953
45217W        W 4962  21.087  26.191   3.672
45218W        W 4963  11.643   1.294  14.324
45219W        W 4964  33.476  26.695  14.847
45220W        W 4965  10.848  41.454   3.828
45221W        W 4966  33.499  17.758   1.376
45222W        W 4967  13.329  32.969  10.994
45223W        W 4968  36.064  18.686  11.378
45224W        W 4969  36.566  14.126  14.434
45225W        W 4970  24.713  29.563   4.202
45226W        W 4971  17.652  28.954   3.655
45227W        W 4972  34.600  31.485   3.325
45228W        W 4973   5.360  24.067  12.516
45229W        W 4974  40.880  24.133  14.784
45230W        W 4975  36.098  42.003   4.222
45231W        W 4976  14.312  18.114   2.820
45232W        W 4977   0.928  29.954   0.258
45233W        W 4978  21.559   1.966   3.372
45234W        W 4979  17.223  37.913  11.946
45235W        W 4980  35.599   5.239  11.485
45236W        W 4981  22.075  16.751   2.339
45237W        W 4982   2.378   5.771   1.344
45238W        W 4983  17.641  37.451  10.139
45239W        W 4984  38.464  16.285   3.737
45240W        W 4985  38.009  13.323  12.423
45241W        W 4986  29.564   5.262   1.802
45242W        W 4987  37.353  43.919  11.438
45243W        W 4988   0.802  31.063  12.414
45244W        W 4989  25.105  33.612  11.491
45245W        W 4990  32.013   5.873  13.946
45246W        W 4991   1.785  13.339   0.913
45247W        W 4992  35.919  27.631  14.878
45248W        W 4993  39.818  30.907   4.204
45249W        W 4994  28.530  31.100   2.419
45250W        W 4995  33.003  43.327  14.311
45251W        W 4996   7.411  13.327   1.319
45252W        W 4997  30.632  40.413   2.878
45253W        W 4998  17.084  43.391  14.464
45254W        W 4999  33.977  34.054   1.811
45255W        W 5000  22.240  42.319   1.384
45256W        W 5001  29.047   0.427  12.531
45257W        W 5002  44.461  37.375  14.794
45258W        W 5003  39.324   0.254   0.303
45259W        W 5004  12.826  39.504  12.958
45260W        W 5005  18.657  27.578   0.861
45261W        W 5006   1.893   0.905   4.279
45262W        W 5007  39.867  27.007  11.072
45263W        W 5008   6.815  14.589  14.419
45264W        W 5009  33.107   2.366   1.352
45265W        W 5010  40.493  14.312  13.930
45266W        W 5011  23.200  25.575  12.556
45267W        W 5012  38.971   3.224  11.055
45268W        W 5013  11.812  39.999   3.255
45269W        W 5014  20.722  31.517   0.391
45270W        W 5015  16.193  17.568   3.692
45271W        W 5016   7.729  10.251  13.022
45272W        W 5017  38.426   3.899  10.979
45273W        W 5018  25.692  27.610   2.885
45274W        W 5019  19.566   5.690  14.401
45275W        W 5020  30.934  17.070   3.234
45276W        W 5021  22.513  33.583  12.553
45277W        W 5022  25.611   3.298   1.397
45278W        W 5023   3.229  31.022   2.226
45279W        W 5024  12.297  12.343   0.421
45280W        W 5025  30.959  25.212  10.520
45281W        W 5026  26.543   7.865   4.151
45282W        W 5027  15.172  40.307   0.372
45283W        W 5028  44.813  43.362   1.415
45284W        W 5029   2.955   8.215  11.865
45285W        W 5030  29.575   1.803   3.684
45286W        W 5031   1.321  22.190  12.036
45287W        W 5032  40.361  34.047  10.995
45288W        W 5033  37.405   6.245   4.755
45289W        W 5034  40.989  34.439  14.321
45290W        W 5035  28.055   5.847   0.362
45291W        W 5036  22.630  43.948  14.908
45292W        W 5037  12.765  14.737   3.373
45293W        W 5038  31.414  29.985   0.911
45294W        W 5039  42.941   3.387  12.404
45295W        W 5040  17.274  32.433   0.844
45296W        W 5041  21.106  32.421   3.636
45297W        W 5042  20.049  33.071   1.294
45298W        W 5043  38.419  16.081   3.299
45299W        W 5044  17.788  10.788  14.407
45300W        W 5045  34.538  39.978  13.421
45301W        W 5046  43.430  20.542  13.826
45302W        W 5047  31.964  11.338  14.430
45303W        W 5048  36.912   8.888  13.800
45304W        W 5049  26.571  41.962  10.990
45305W        W 5050  29.106  42.868   4.250
45306W        W 5051  28.163   7.267   4.201
45307W        W 5052  30.092  13.803  14.982
45308W        W 5053  21.586   9.336  11.861
45309W        W 5054   6.737   7.330  11.430
45310W        W 5055   2.776  14.219   3.168
45311W        W 5056  27.513  22.534  12.502
45312W        W 5057  40.464   8.768  11.896
45313W        W 5058  35.081  22.205  11.967
45314W        W 5059  25.196  16.656  13.524
45315W        W 5060  33.047  36.094  10.497
45316W        W 5061  39.063  33.521   1.809
45317W        W 5062  17.742   4.287  11.978
45318W        W 5063  17.648  34.584   0.320
45319W        W 5064  43.811  41.026   1.269
45320W        W 5065   2.778  10.860   3.809
45321W        W 5066  19.193  33.440   1.800
45322W        W 5067  33.592  28.994   4.792
45323W        W 5068  35.049  14.313   2.314
45324W        W 5069  14.282  19.571   1.747
45325W        W 5070  43.309   0.979   4.203
45326W        W 5071   6.717  35.967   0.833
45327W        W 5072  32.964  19.073  10.575
45328W        W 5073   9.848  18.148   0.740
45329W        W 5074  21.024  26.602   4.303
45330W        W 5075  36.515   3.837   3.198
45331W        W 5076  18.237  26.996   0.327
45332W        W 5077   2.891  37.860  11.491
45333W        W 5078  34.467  13.152   1.867
45334W        W 5079  27.463  33.434   5.220
45335W        W 5080  16.595  40.813   3.372
45336W        W 5081  15.751  20.763   0.483
45337W        W 5082   9.282  34.915  12.449
45338W        W 5083  22.998  23.538   1.306
45339W        W 5084  20.768  10.722   4.753
45340W        W 5085  17.079  27.032   4.679
45341W        W 5086  44.502  34.911   3.866
45342W        W 5087  37.401  32.516   3.278
45343W        W 5088  32.438  32.107   3.800
45344W        W 5089  21.144   4.366   4.610
45345W        W 5090  35.928  33.961  10.620
45346W        W 5091  44.341   1.377   4.790
45347W        W 5092  34.419   8.854  13.027
45348W        W 5093  27.036   1.285  11.564
45349W        W 5094  44.426  26.646   0.959
45350W        W 5095   5.286  26.199   1.805
45351W        W 5096  42.503  43.858   0.303
45352W        W 5097   9.284  26.205   3.680
45353W        W 5098  21.736  20.205  11.506
45354W        W 5099  39.501  15.156  12.823
45355W        W 5100  39.381   4.750   1.311
45356W        W 5101  39.059   0.403  11.128
45357W        W 5102  21.663   6.428  13.937
45358W        W 5103  13.677  30.534   0.862
45359W        W 5104  26.077   7.809   2.365
45360W        W 5105   0.465  41.962   0.453
45361W        W 5106  40.887   8.228   0.852
45362W        W 5107  19.104   1.883   3.341
45363W        W 5108  20.096   7.397   0.874
45364W        W 5109  44.309  17.766   4.715
45365W        W 5110  15.096  21.608   2.770
45366W        W 5111   2.248  36.479  13.050
45367W        W 5112  36.876  25.171  14.393
45368W        W 5113  24.490  31.472   2.239
45369W        W 5114  44.928  12.237  13.545
45370W        W 5115  12.273  22.602  10.438
45371W        W 5116   3.856  35.412  10.628
45372W        W 5117  22.249  28.135   2.368
45373W        W 5118  11.313   4.274  12.357
45374W        W 5119  42.787   0.876  13.830
45375W        W 5120  36.872  36.496  14.406
45376W        W 5121  41.515  31.104   0.742
45377W        W 5122  34.612  31.919  13.840
45378W        W 5123   6.312  44.356   1.255
45379W        W 5124  23.649  30.487   3.779
45380W        W 5125  29.019  12.789  11.042
45381W        W 5126  21.086   6.373   0.264
45382W        W 5127  38.332   7.297  14.491
45383W        W 5128   9.808   6.202  13.036
45384W        W 5129  42.016   8.274   4.642
45385W        W 5130  31.646  40.815  14.940
45386W        W 5131  34.870   4.286  12.446
45387W        W 5132   3.264  43.321  14.934
45388W        W 5133  26.560  37.990  13.905
45389W        W 5134  31.567  20.269  10.419
45390W        W 5135  16.185  42.922  10.955
45391W        W 5136  39.952  35.958  11.567
45392W        W 5137   2.400  35.045   4.165
45393W        W 5138  32.949  35.366   4.116
45394W        W 5139   3.794  37.351  13.820
45395W        W 5140  22.074  24.491  12.497
45396W        W 5141   2.852  41.343   4.662
45397W        W 5142  17.130  18.707   4.800
45398W        W 5143  14.308  23.615   1.734
45399W        W 5144  37.363  33.556   3.333
45400W        W 5145  31.037  20.719  14.858
45401W        W 5146  35.571  23.227   0.278
45402W        W 5147  13.249  40.517  11.582
45403W        W 5148  10.658  42.460   2.218
45404W        W 5149  40.032  31.436   1.419
45405W        W 5150  17.116  23.629  13.002
45406W        W 5151  21.064  36.072  10.958
45407W        W 5152  13.186  34.026   4.731
45408W        W 5153  33.434  14.115   4.259
45409W        W 5154  28.051  42.887  14.320
45410W        W 5155   0.938  30.466  10.461
45411W        W 5156  18.161   1.867   0.414
45412W        W 5157  22.567  36.034   4.695
45413W        W 5158  31.450  21.216   0.356
45414W        W 5159  17.796  10.765   2.181
45415W        W 5160  17.625  10.750  12.426
45416W        W 5161  26.156  26.104  13.429
45417W        W 5162  10.261  42.775  10.016
45418W        W 5163  19.686  15.186  10.576
45419W        W 5164  39.417  18.641  12.907
45420W        W 5165  42.422  10.703   1.907
45421W        W 5166  18.161  16.082  10.405
45422W        W 5167  24.036  30.580  13.800
45423W        W 5168  20.180  10.735  11.031
45424W        W 5169  41.957  32.978  10.981
45425W        W 5170  17.139  24.005   0.369
45426W        W 5171  25.634  44.987  14.484
45427W        W 5172  25.490  19.681  11.375
45428W        W 5173  32.439  23.141   1.866
45429W        W 5174  33.917  32.442   3.681
45430W        W 5175   4.305  19.704  13.825
45431W        W 5176  31.056  22.535  13.800
45432W        W 5177  34.973  28.168   2.249
45433W        W 5178  19.232  19.777   3.649
45434W        W 5179  38.543  27.038   2.182
45435W        W 5180  16.203   2.368   4.808
45436W        W 5181  34.606  16.274  10.438
45437W        W 5182   8.816  22.690  14.498
45438W        W 5183  31.506  36.531  10.971
45439W        W 5184  15.625  19.209  13.370
45440W        W 5185   1.445  32.573  13.350
45441W        W 5186  16.280  36.484   4.273
45442W        W 5187  27.183  18.761  11.476
45443W        W 5188  25.523  28.668  14.887
45444W        W 5189  39.529   2.339   4.286
45445W        W 5190  39.555  15.594   4.740
45446W        W 5191  41.846  12.142  13.869
45447W        W 5192  41.909  14.234  11.518
45448W        W 5193  35.551  33.976   0.910
45449W        W 5194  34.936  28.631   0.819
45450W        W 5195  30.028  27.043  10.470
45451W        W 5196  13.304  21.723   2.898
45452W        W 5197  29.072   0.481  10.618
45453W        W 5198  42.292  29.027   0.805
45454W        W 5199  13.834   3.813  11.485
45455W        W 5200   8.818  28.514   0.831
45456W        W 5201  15.772   4.263   5.292
45457W        W 5202  31.596  39.335  10.558
45458W        W 5203  34.987  18.789  10.122
45459W        W 5204  19.063   9.172   2.902
45460W        W 5205  34.488   7.177  11.464
45461W        W 5206  18.236   9.723  13.319
45462W        W 5207  14.793  14.792  14.023
45463W        W 5208  18.240   2.911   1.246
45464W        W 5209   1.422  18.270   1.927
45465W        W 5210   6.212  33.130  12.419
45466W        W 5211  36.854  21.064  13.468
45467W        W 5212  15.660  13.184  12.844
45468W        W 5213  32.440  37.391  11.094
45469W        W 5214   8.781   5.695  12.073
45470W        W 5215  17.239   7.396   2.349
45471W        W 5216   0.781   1.939   1.887
45472W        W 5217  26.159  42.978   2.756
45473W        W 5218   4.334   9.716   4.298
45474W        W 5219  16.122   3.741  13.313
45475W        W 5220  41.321   2.826   2.289
45476W        W 5221  29.992  10.710   2.760
45477W        W 5222  11.735  22.727   4.276
45478W        W 5223  20.134  12.143   1.836
45479W        W 5224   4.280  33.923   3.378
45480W        W 5225   7.339  29.454  13.384
45481W        W 5226  26.991  35.412  11.581
45482W        W 5227  14.315  36.473   4.184
45483W        W 5228  22.091  13.787   1.854
45484W        W 5229  31.961   0.899   3.839
45485W        W 5230  38.828   3.803  13.828
45486W        W 5231   3.439   4.337   1.910
45487W        W 5232  26.166  21.067  13.812
45488W        W 5233  10.354  20.759  11.861
45489W        W 5234  20.641  25.082   1.344
45490W        W 5235  40.391  29.044   2.845
45491W        W 5236  38.824  38.331  13.346
45492W        W 5237   8.736  29.106   1.702
45493W        W 5238   1.906  36.376   2.798
45494W        W 5239  22.705   2.322   0.750
45495W        W 5240  27.943   8.786   3.702
45496W        W 5241  29.161  35.588   1.719
45497W        W 5242  19.574  31.054  13.929
45498W        W 5243  17.675  22.164  13.505
45499W        W 5244  37.837  40.000  11.080
45500W        W 5245  26.130  19.133   0.403
45501W        W 5246  20.646  25.187  14.904
45502W        W 5247  11.623  14.594   2.676
45503W        W 5248  18.252   4.438   0.356
45504W        W 5249  28.644   1.468   0.358
45505W        W 5250   4.269  36.980   9.527
45506W        W 5251  39.315   9.862   3.289
45507W        W 5252  10.773  29.088   2.358
45508W        W 5253  29.539  24.489   3.738
45509W        W 5254   5.694  36.588  14.987
45510W        W 5255   3.388  15.119   2.838
45511W        W 5256  21.214  11.677   0.288
45512W        W 5257  15.266  27.579  11.569
45513W        W 5258  21.561  23.987   2.711
45514W        W 5259  13.608   5.305   2.321
45515W        W 5260  20.756  16.225   3.308
45516W        W 5261   9.275  15.707  10.031
45517W        W 5262  15.203  28.174  14.406
45518W        W 5263   5.908  15.673   2.335
45519W        W 5264  34.388   4.706  13.453
45520W        W 5265  18.791  35.935   0.278
45521W        W 5266  15.741  43.965   1.772
45522W        W 5267  36.859  40.990   2.729
45523W        W 5268   9.773  12.323  13.409
45524W        W 5269   4.923  10.693   1.797
45525W        W 5270  27.978  11.852   1.443
45526W        W 5271   5.412  16.649  12.577
45527W        W 5272   4.366  23.230   2.247
45528W        W 5273  43.510  23.599  14.905
45529W        W 5274  24.019  40.307  10.160
45530W        W 5275  33.575  14.291   1.437
45531W        W 5276  24.689   3.430  12.419
45532W        W 5277  29.454  39.817   1.431
45533W        W 5278  41.042  22.076   1.808
45534W        W 5279  14.778   5.362   0.758
45535W        W 5280  34.027  25.119   2.353
45536W        W 5281  12.836  34.865  14.980
45537W        W 5282  32.600  40.955  13.544
45538W        W 5283  39.935   5.841   2.235
45539W        W 5284  18.719  34.453   1.218
45540W        W 5285   8.780  39.458   4.818
45541W        W 5286  29.640  27.691   2.748
45542W        W 5287  41.946  18.205  13.405
45543W        W 5288  25.468   7.222  11.557
45544W        W 5289  43.864  38.511  14.515
45545W        W 5290  11.650  16.297  12.866
45546W        W 5291  21.605  44.760   3.693
45547W        W 5292  17.644  25.569   0.928
45548W        W 5293   1.292  26.553   0.285
45549W        W 5294   4.755  37.970  12.454
45550W        W 5295  37.879  13.202  11.058
45551W        W 5296  13.298  13.638   0.414
45552W        W 5297   6.917  36.879   4.173
45553W        W 5298   1.853  29.957   2.333
45554W        W 5299  43.492  38.379   2.244
45555W        W 5300  44.490  40.841   4.653
45556W        W 5301  35.561  32.520  12.420
45557W        W 5302  41.899  31.083   1.264
45558W        W 5303  21.693  38.434   4.121
45559W        W 5304  39.952  10.205  14.341
45560W        W 5305   1.932  18.138  13.424
45561W        W 5306  25.703   7.848   3.147
45562W        W 5307  18.735  40.040  12.485
45563W        W 5308  15.284   4.735   0.836
45564W        W 5309  17.702  32.927  13.434
45565W        W 5310  38.543   2.282   4.679
45566W        W 5311  19.267  37.575  12.520
45567W        W 5312  10.189  16.179   2.232
45568W        W 5313  14.125   9.261  12.035
45569W        W 5314  34.903  31.408  14.937
45570W        W 5315  37.999   4.865  10.553
45571W        W 5316   2.867   2.461   3.657
45572W        W 5317  18.123  15.284  12.076
45573W        W 5318  32.538   3.869  14.012
45574W        W 5319   4.902   8.396  13.932
45575W        W 5320  14.222  22.684   2.390
45576W        W 5321  32.596  29.443  13.821
45577W        W 5322  37.470   1.307   4.139
45578W        W 5323  26.184   9.169  12.844
45579W        W 5324  17.095   8.708   2.193
45580W        W 5325  25.618   1.932  13.452
45581W        W 5326   7.802  38.399  12.085
45582W        W 5327  36.526  26.701  10.944
45583W        W 5328  11.859   1.858   0.769
45584W        W 5329   0.854   2.258   2.698
45585W        W 5330  43.298  38.069  13.474
45586W        W 5331  21.664  27.134   3.805
45587W        W 5332  13.115   8.757  13.992
45588W        W 5333   3.409  17.237   4.280
45589W        W 5334   5.396  12.310   4.805
45590W        W 5335  27.446   1.292   1.726
45591W        W 5336  12.116  11.748  11.896
45592W        W 5337  37.852  23.997   4.729
45593W        W 5338   2.383   6.878  12.494
45594W        W 5339   6.766  20.044  13.043
45595W        W 5340  31.023   9.383   4.238
45596W        W 5341  16.589  25.177  10.439
45597W        W 5342  19.732  29.053   4.802
45598W        W 5343  44.374  44.425   2.724
45599W        W 5344  34.436  14.307  12.461
45600W        W 5345   8.347  19.720  10.947
45601W        W 5346  25.578   7.306  13.521
45602W        W 5347  26.498   7.221   4.254
45603W        W 5348  34.890  16.669   0.904
45604W        W 5349  31.574  31.515   2.815
45605W        W 5350   6.722  23.712  14.785
45606W        W 5351  20.714   5.198  11.389
45607W        W 5352  43.302   7.291   1.823
45608W        W 5353   6.190  20.661   3.162
45609W        W 5354  35.461  20.058  10.474
45610W        W 5355  36.449  40.831  11.583
45611W        W 5356  24.192   6.275   1.387
45612W        W 5357  15.716  32.069  12.925
45613W        W 5358  26.594  37.354  14.847
45614W        W 5359  42.355  41.833   0.752
45615W        W 5360  11.343  15.127   1.740
45616W        W 5361  25.113  33.979   1.275
45617W        W 5362  21.652  40.890   1.424
45618W        W 5363  14.607   3.336   0.269
45619W        W 5364  31.047  31.034   1.394
45620W        W 5365  14.094   3.822  11.942
45621W        W 5366  39.496  40.501  12.021
45622W        W 5367   7.852   7.867   1.346
45623W        W 5368   0.857  42.383  14.761
45624W        W 5369  26.614  15.268   4.642
45625W        W 5370  32.393  33.572   1.314
45626W        W 5371  27.049  15.665   0.933
45627W        W 5372  20.539  15.585  14.474
45628W        W 5373   7.387   4.353  12.029
45629W        W 5374  17.118  32.486   4.174
45630W        W 5375   3.255  21.629  10.482
45631W        W 5376  35.098  27.039  14.986
45632W        W 5377   9.739  16.748  10.408
45633W        W 5378  33.941  11.836   0.343
45634W        W 5379  15.310   9.382  10.405
45635W        W 5380  14.780  41.943   0.850
45636W        W 5381  17.279  25.592  13.324
45637W        W 5382  40.906   3.306  10.510
45638W        W 5383  38.420  16.280  14.990
45639W        W 5384  20.626  33.543   4.658
45640W        W 5385  13.142  14.720  10.519
45641W        W 5386  36.365   3.395   4.662
45642W        W 5387  27.050  11.847   2.257
45643W        W 5388  10.289  36.947  14.838
45644W        W 5389  42.438  35.925  10.592
45645W        W 5390   6.267  35.978   2.666
45646W        W 5391   9.259  32.020  12.493
45647W        W 5392  43.332  13.722  11.000
45648W        W 5393  43.438  37.067   2.669
45649W        W 5394   2.381   5.927  13.999
45650W        W 5395  33.878  24.594   1.812
45651W        W 5396  32.042  20.169   5.197
45652W        W 5397  35.925  19.240   2.776
45653W        W 5398  35.856   8.388   3.365
45654W        W 5399  10.297   3.377   9.962
45655W        W 5400  22.044  20.713   1.285
45656W        W 5401  15.239  22.198   3.331
45657W        W 5402  29.081  31.479  12.490
45658W        W 5403   4.387  29.023   1.354
45659W        W 5404  25.975  16.095   3.845
45660W        W 5405  35.516   8.774  14.321
45661W        W 5406  40.480  13.186   4.153
45662W        W 5407  42.970  22.042  13.864
45663W        W 5408  19.692  44.312  13.355
45664W        W 5409  39.488  38.833   2.222
45665W        W 5410  38.959   6.842   2.863
45666W        W 5411   1.339  15.233   2.691
45667W        W 5412   2.864   0.328   3.736
45668W        W 5413  13.655   4.229   0.740
45669W        W 5414   8.689  24.075  13.051
45670W        W 5415  43.796   4.446   0.463
45671W        W 5416  29.601  19.555   5.303
45672W        W 5417   4.931  16.092   2.884
45673W        W 5418  22.029  26.125  10.441
45674W        W 5419  23.651  43.925   0.308
45675W        W 5420   3.764  28.158  10.900
45676W        W 5421  21.041  36.003   3.746
45677W        W 5422  23.546  39.982  14.777
45678W        W 5423  24.134   2.360  13.941
45679W        W 5424  26.186  36.976  12.012
45680W        W 5425  15.097  38.074   2.814
45681W        W 5426  33.429  12.283   4.296
45682W        W 5427  15.167   7.688  13.905
45683W        W 5428  23.105   9.737   1.858
45684W        W 5429  38.010  41.997  12.929
45685W        W 5430  32.037  41.790   3.237
45686W        W 5431  23.628   4.932   3.226
45687W        W 5432  16.281  32.892   1.704
45688W        W 5433   5.930  41.872   4.766
45689W        W 5434  13.336  13.209  12.987
45690W        W 5435   9.682  17.107   4.126
45691W        W 5436  27.647  39.898   2.882
45692W        W 5437  28.155  26.616  13.430
45693W        W 5438  44.993  32.568   9.585
45694W        W 5439  12.353  39.557   2.350
45695W        W 5440   9.690  20.157   3.314
45696W        W 5441  27.046  26.685  11.128
45697W        W 5442  38.947  39.406  10.950
45698W        W 5443  33.469  30.587   2.742
45699W        W 5444   4.753  28.631  13.391
45700W        W 5445  11.279   9.849   4.132
45701W        W 5446  37.960  12.185  10.509
45702W        W 5447  18.597  44.954   3.292
45703W        W 5448  34.038  23.144  14.311
45704W        W 5449  39.043  13.834   4.265
45705W        W 5450  30.589  26.036   1.416
45706W        W 5451  39.509  29.066  14.512
45707W        W 5452  15.275   7.404  11.508
45708W        W 5453  11.290  33.577  12.426
45709W        W 5454  10.156  24.053   1.297
45710W        W 5455  33.927   2.943   2.711
45711W        W 5456  44.839  36.087   3.688
45712W        W 5457  41.927  25.995  12.990
45713W        W 5458  12.732  22.185   4.762
45714W        W 5459   3.842  28.993  11.470
45715W        W 5460   8.730  33.509  13.833
45716W        W 5461  18.775  34.971  13.492
45717W        W 5462  27.596  23.611   1.408
45718W        W 5463  25.066  37.864  14.900
45719W        W 5464   8.303  10.846   2.409
45720W        W 5465  13.722  33.099  11.079
45721W        W 5466  34.932  42.373   2.804
45722W        W 5467  17.191  27.130   4.347
45723W        W 5468  23.055  31.041   0.339
45724W        W 5469  33.131  39.373   3.197
45725W        W 5470  12.732  18.655   1.852
45726W        W 5471  42.809   7.307   4.744
45727W        W 5472  25.118  24.016  14.796
45728W        W 5473  34.397  32.480  11.930
45729W        W 5474   4.837  34.118  13.448
45730W        W 5475   4.704  19.719  11.379
45731W        W 5476  30.090  37.558   4.605
45732W        W 5477   6.409  16.274   2.290
45733W        W 5478  35.913  17.700   9.508
45734W        W 5479   6.850   0.421   3.242
45735W        W 5480  31.960  17.750  13.522
45736W        W 5481  10.181  27.623  11.011
45737W        W 5482  25.597  33.915  12.342
45738W        W 5483  29.522  11.773   0.906
45739W        W 5484  15.712   4.884   4.644
45740W        W 5485  29.931  22.126  14.959
45741W        W 5486  39.358  18.134   3.360
45742W        W 5487  25.219  29.457   2.776
45743W        W 5488  22.246  36.879  10.430
45744W        W 5489  30.123  21.667   9.569
45745W        W 5490  26.468  33.535   4.657
45746W        W 5491  23.210  30.491   5.650
45747W        W 5492  19.056  42.441   0.454
45748W        W 5493  29.148  35.409  10.953
45749W        W 5494  38.386   1.276  13.497
45750W        W 5495  12.787   8.817   4.142
45751W        W 5496  19.048  39.995  14.409
45752W        W 5497  17.711   1.896   3.224
45753W        W 5498  29.527  27.036  13.930
45754W        W 5499  20.660  16.765  12.564
45755W        W 5500   6.781  17.255   0.934
45756W        W 5501  39.016  19.682  14.418
45757W        W 5502  41.792  40.432   0.251
45758W        W 5503  12.695  41.292  10.445
45759W        W 5504  39.513  19.141   3.173
45760W        W 5505  33.434   9.889   4.828
45761W        W 5506  27.129  11.350  12.516
45762W        W 5507  41.866   7.331   2.355
45763W        W 5508   8.162   3.901  12.418
45764W        W 5509  11.759  39.376   3.195
45765W        W 5510  17.230   5.414  12.528
45766W        W 5511  12.788  20.575   0.747
45767W        W 5512  21.116   6.798  13.478
45768W        W 5513  41.836  13.813   3.154
45769W        W 5514   8.358   4.363  11.534
45770W        W 5515  37.959   8.865  12.017
45771W        W 5516  21.148  22.583   3.212
45772W        W 5517  28.592  39.479  14.299
45773W        W 5518  17.629  10.185  10.492
45774W        W 5519  17.092  14.328  12.897
45775W        W 5520  34.975   7.676   0.446
45776W        W 5521  11.253  30.540  13.340
45777W        W 5522   6.250  10.663   2.374
45778W        W 5523  11.635  34.031   4.249
45779W        W 5524  27.455   9.841   3.232
45780W        W 5525   6.879   2.291   0.480
45781W        W 5526  42.881  16.715   2.276
45782W        W 5527  39.441  36.005   1.766
45783W        W 5528   4.720  26.015   3.207
45784W        W 5529  20.634  34.517   0.261
45785W        W 5530  41.929  32.118  14.963
45786W        W 5531  35.433  12.819  14.994
45787W        W 5532  20.628   2.460  13.875
45788W        W 5533  33.043  14.827  12.084
45789W        W 5534  20.088  19.285   1.893
45790W        W 5535  14.799  17.734  11.888
45791W        W 5536   5.926   1.479   2.877
45792W        W 5537  37.544  10.231  11.503
45793W        W 5538   8.850  21.707   2.323
45794W        W 5539  28.989  31.548  12.901
45795W        W 5540  22.036   5.703  13.357
45796W        W 5541  30.627  28.057   2.861
45797W        W 5542  24.660   2.742  13.338
45798W        W 5543  11.286  14.624  12.927
45799W        W 5544  25.190  28.081   4.647
45800W        W 5545  13.273  23.511  12.865
45801W        W 5546  37.361  15.324   3.714
45802W        W 5547  22.248  39.843   0.265
45803W        W 5548  44.810   2.758   0.356
45804W        W 5549   0.284  43.497   2.367
45805W        W 5550   6.865   4.900  14.906
45806W        W 5551  22.186   4.699   1.859
45807W        W 5552  23.077  10.833   1.724
45808W        W 5553  27.549   9.217   1.415
45809W        W 5554   9.288  21.140  14.968
45810W        W 5555   8.359   6.214   1.701
45811W        W 5556  16.644   1.734  13.981
45812W        W 5557   1.899  41.470   4.794
45813W        W 5558  27.575  29.978   0.893
45814W        W 5559   9.758  13.154  11.030
45815W        W 5560  24.053   9.861   2.857
45816W        W 5561  30.511  24.196  14.761
45817W        W 5562  20.252   0.796  11.454
45818W        W 5563  16.275  24.079  10.570
45819W        W 5564  30.076  42.945   4.750
45820W        W 5565   4.426  44.408   2.409
45821W        W 5566  13.257  20.607   3.288
45822W        W 5567   7.682   1.325  10.572
45823W        W 5568  39.499  30.053   4.138
45824W        W 5569   7.374  24.172  13.536
45825W        W 5570   5.352  35.577  10.919
45826W        W 5571  39.046   3.339  12.825
45827W        W 5572  14.639  25.603   4.226
45828W        W 5573  43.971  12.165   2.708
45829W        W 5574  27.987   8.744   1.851
45830W        W 5575  18.567  29.042  12.885
45831W        W 5576   7.350   8.724   3.782
45832W        W 5577   2.723  38.409   0.870
45833W        W 5578  34.601   5.196   4.780
45834W        W 5579   6.868  43.411  10.436
45835W        W 5580  33.996   6.754  13.437
45836W        W 5581   7.185  24.626   0.248
45837W        W 5582  13.832  36.905   0.459
45838W        W 5583  35.907  17.631  11.420
45839W        W 5584   7.388   1.949  12.521
45840W        W 5585   5.895   9.313  13.812
45841W        W 5586  44.847  35.069   4.139
45842W        W 5587  15.176  17.153   3.700
45843W        W 5588  24.687  40.457   1.820
45844W        W 5589  40.891  41.968   1.709
45845W        W 5590  19.163   7.195   2.362
45846W        W 5591  33.062  34.614   3.224
45847W        W 5592  11.648  27.105  12.504
45848W        W 5593  28.649  42.379  13.406
45849W        W 5594  26.485   8.731  10.960
45850W        W 5595   0.789  38.447  11.094
45851W        W 5596   5.408  42.375   3.158
45852W        W 5597   8.361  16.227   3.757
45853W        W 5598  42.319  16.785  13.793
45854W        W 5599  26.080   1.397  14.838
45855W        W 5600  18.233   7.848   2.258
45856W        W 5601  41.024  43.369  12.968
45857W        W 5602  16.086  25.478   1.835
45858W        W 5603  23.708  36.916   0.376
45859W        W 5604  19.266  11.167  11.928
45860W        W 5605  20.267   1.237   2.675
45861W        W 5606  24.092  25.641   2.780
45862W        W 5607   8.256  38.005   0.467
45863W        W 5608  15.175  22.731  11.538
45864W        W 5609  37.961  12.156   0.396
45865W        W 5610  18.180   7.692   3.191
45866W        W 5611  44.260   6.836   2.860
45867W        W 5612  22.699   0.763  11.478
45868W        W 5613  24.158  27.983   2.402
45869W        W 5614  15.695   8.268  13.516
45870W        W 5615  43.831  30.426   0.479
45871W        W 5616   6.911  36.398   1.373
45872W        W 5617  29.559  20.589  11.914
45873W        W 5618  18.283   4.419   9.647
45874W        W 5619  23.241  13.763  13.823
45875W        W 5620  14.782  11.352  10.531
45876W        W 5621  44.853  21.625  11.457
45877W        W 5622  31.123   2.721   3.737
45878W        W 5623  27.629  34.960   2.822
45879W        W 5624  18.137  25.096   4.660
45880W        W 5625  34.925  23.034  14.308
45881W        W 5626  36.513  28.177   1.234
45882W        W 5627   1.833  42.402  11.498
45883W        W 5628  12.780  13.660  11.479
45884W        W 5629  34.539  16.596   3.770
45885W        W 5630  30.028  34.578   1.273
45886W        W 5631  19.533  34.096   1.698
45887W        W 5632   7.706  19.776  10.064
45888W        W 5633   6.789  30.005  12.854
45889W        W 5634   5.780  20.555   3.864
45890W        W 5635   6.361   1.252  10.900
45891W        W 5636  38.918  12.833  14.976
45892W        W 5637  22.741  28.139  10.604
45893W        W 5638   4.898  20.596   3.341
45894W        W 5639  34.384  44.875   2.342
45895W        W 5640  34.972  23.525  11.584
45896W        W 5641  10.667  31.594  12.871
45897W        W 5642   3.821  16.266   0.842
45898W        W 5643  34.007   9.776   0.738
45899W        W 5644   7.292  16.317   0.883
45900W        W 5645  41.851   4.326  14.407
45901W        W 5646  34.944  13.681   1.273
45902W        W 5647  16.747   4.851   4.328
45903W        W 5648  32.413  20.637  13.933
45904W        W 5649  18.770  13.670  14.906
45905W        W 5650   9.828  22.159   4.799
45906W        W 5651  15.232  32.528   0.457
45907W        W 5652   3.720  32.899  14.888
45908W        W 5653  28.446  32.063  12.848
45909W        W 5654  21.661   3.418   4.721
45910W        W 5655   3.863  34.109   4.194
45911W        W 5656  36.020  24.581   4.722
45912W        W 5657  24.148  18.156   0.306
45913W        W 5658  13.672  14.315  14.485
45914W        W 5659  27.168  44.352  12.567
45915W        W 5660  39.542   9.160   3.630
45916W        W 5661  41.968  37.414  14.309
45917W        W 5662  28.039  33.603   1.357
45918W        W 5663  26.110  38.460  13.991
45919W        W 5664  11.700  24.024  11.896
45920W        W 5665  36.360   9.296   3.819
45921W        W 5666  32.475  28.440   5.606
45922W        W 5667  18.054   2.962   4.621
45923W        W 5668  16.695   8.341   2.684
45924W        W 5669  11.216  39.392  11.060
45925W        W 5670  36.844  23.551  14.388
45926W        W 5671  43.975  27.550  14.431
45927W        W 5672  11.159  26.953  11.382
45928W        W 5673  36.447  27.121   2.233
45929W        W 5674  16.638   9.856   3.806
45930W        W 5675  12.734  24.226   2.205
45931W        W 5676   3.890   6.782  11.501
45932W        W 5677  29.992  33.477   4.278
45933W        W 5678  10.150  21.195   2.221
45934W        W 5679  21.103  12.231   4.779
45935W        W 5680   8.852  32.906  13.404
45936W        W 5681  16.722  16.579  13.899
45937W        W 5682  17.181  32.408   1.752
45938W        W 5683  41.956  43.441  13.906
45939W        W 5684  32.411  24.636   3.351
45940W        W 5685  32.047  20.617   0.455
45941W        W 5686  35.435   9.724  14.768
45942W        W 5687  25.493   6.780   0.362
45943W        W 5688  21.059  15.685  14.869
45944W        W 5689  35.098   4.328   2.213
45945W        W 5690  19.072   9.816  13.386
45946W        W 5691   6.795  11.795  10.895
45947W        W 5692   7.365  26.513  10.998
45948W        W 5693  34.972   0.883   5.112
45949W        W 5694  33.937  42.514  14.814
45950W        W 5695  26.620  12.683   4.638
45951W        W 5696   0.432   2.449   1.304
45952W        W 5697  32.510  27.063   2.281
45953W        W 5698  38.943   2.434  10.507
45954W        W 5699  35.063   4.305   1.372
45955W        W 5700  41.963  39.059   4.724
45956W        W 5701   4.709  28.957   5.173
45957W        W 5702  25.477   7.412   2.385
45958W        W 5703  14.131  15.108  14.998
45959W        W 5704  34.953  10.284  13.810
45960W        W 5705  14.808  24.586  13.820
45961W        W 5706  18.769  23.618  10.425
45962W        W 5707  14.211   4.268   4.661
45963W        W 5708  32.473  15.622   0.470
45964W        W 5709  36.026   0.461  11.941
45965W        W 5710  36.473  16.247   2.306
45966W        W 5711  26.961  28.184   0.894
45967W        W 5712  35.426  31.923  12.547
45968W        W 5713   4.219  19.227   9.469
45969W        W 5714  35.998  24.090  10.514
45970W        W 5715  29.488  22.616  10.087
45971W        W 5716   1.458  22.130  10.577
45972W        W 5717  18.593  21.518   0.853
45973W        W 5718  35.477   6.334  12.915
45974W        W 5719   5.856  25.570   2.299
45975W        W 5720  26.582  20.034   5.109
45976W        W 5721  32.627  31.472   2.782
45977W        W 5722  35.520  35.877   4.783
45978W        W 5723  18.231   1.969   2.231
45979W        W 5724  11.854  33.437  14.840
45980W        W 5725  40.840   8.678   1.264
45981W        W 5726  12.837   0.456  14.312
45982W        W 5727   1.737   1.949  13.880
45983W        W 5728  43.922  17.167  11.393
45984W        W 5729   3.310   0.919  13.011
45985W        W 5730  25.485  11.208  14.349
45986W        W 5731  18.758  35.991   3.825
45987W        W 5732  15.218   5.371  14.809
45988W        W 5733  16.623  24.019  12.521
45989W        W 5734  11.714   9.273  12.863
45990W        W 5735  20.091  33.387  12.541
45991W        W 5736   4.303  42.785  10.528
45992W        W 5737  10.296  22.532  10.888
45993W        W 5738  25.180   7.718  14.790
45994W        W 5739  19.582   8.320   3.163
45995W        W 5740  17.114  36.503   5.291
45996W        W 5741   1.334  41.794   0.959
45997W        W 5742  28.512  15.212  14.494
45998W        W 5743  25.016  14.803  14.895
45999W        W 5744  11.720  21.518  11.870
46000W        W 5745  44.327  17.748   1.341
46001W        W 5746   7.772  17.154  11.475
46002W        W 5747  39.476  39.873  12.904
46003W        W 5748  11.684  19.184   0.951
46004W        W 5749  14.604  35.375   1.842
46005W        W 5750   1.273  12.284  11.532
46006W        W 5751  36.070   4.762  12.431
46007W        W 5752  14.119  35.998  14.283
46008W        W 5753  23.600   7.304  11.077
46009W        W 5754  35.544   7.830   1.759
46010W        W 5755  18.733  33.040  14.976
46011W        W 5756   9.860  28.543  12.040
46012W        W 5757  10.300  27.484   0.456
46013W        W 5758  43.351  23.137   4.172
46014W        W 5759  24.056  18.732   3.267
46015W        W 5760  22.575  37.571  13.888
46016W        W 5761  43.436  14.116  12.090
46017W        W 5762  13.303  22.042   1.396
46018W        W 5763  29.450  14.117   2.251
46019W        W 5764  26.669  41.839  12.360
46020W        W 5765  44.768  19.083  14.786
46021W        W 5766   1.333  34.573   5.225
46022W        W 5767  30.546  16.737   0.905
46023W        W 5768  31.086  41.433  13.499
46024W        W 5769   4.920  39.864   2.713
46025W        W 5770  35.877  42.990  14.857
46026W        W 5771  23.715  16.674  12.096
46027W        W 5772   7.282   9.850  11.588
46028W        W 5773  25.065  10.176   0.462
46029W        W 5774  30.129  44.815   3.145
46030W        W 5775  32.039  20.654  13.955
46031W        W 5776  26.966  29.953  14.384
46032W        W 5777  13.313  14.199  14.352
46033W        W 5778  18.724   4.808  12.432
46034W        W 5779  19.127  33.447   2.249
46035W        W 5780  41.940  34.520   2.742
46036W        W 5781  14.197  21.537  14.318
46037W        W 5782  14.790  14.276  14.333
46038W        W 5783   7.187  24.548   2.692
46039W        W 5784  20.642  19.739   3.177
46040W        W 5785   7.778  44.444  14.898
46041W        W 5786  12.696  38.888  12.916
46042W        W 5787  26.134   5.348   4.174
46043W        W 5788  14.335  24.550   0.461
46044W        W 5789  19.649  42.853   4.331
46045W        W 5790   0.488   2.258   2.737
46046W        W 5791  42.322  31.593  12.496
46047W        W 5792  19.093  13.808   0.418
46048W        W 5793   6.728  33.514   1.307
46049W        W 5794  27.536  38.008  11.999
46050W        W 5795  11.639  12.667   0.821
46051W        W 5796  11.256  39.550   3.317
46052W        W 5797  23.689  29.628   0.837
46053W        W 5798   4.392  19.097  12.006
46054W        W 5799  40.899  42.476  14.461
46055W        W 5800   7.772  28.489  12.560
46056W        W 5801  13.264  41.862   2.804
46057W        W 5802  16.616  43.795   3.761
46058W        W 5803  32.997  43.013  11.426
46059W        W 5804  37.414  44.454  13.335
46060W        W 5805  16.629  36.369   1.387
46061W        W 5806  28.952  16.674   1.374
46062W        W 5807  42.842   7.290  12.962
46063W        W 5808  39.902  14.693  14.459
46064W        W 5809   7.286   6.909  11.580
46065W        W 5810  15.753  42.503  10.591
46066W        W 5811  23.654   5.317   2.182
46067W        W 5812  29.656   5.841   1.263
46068W        W 5813  24.976   2.293  12.450
46069W        W 5814   6.261  26.076  13.310
46070W        W 5815  16.072   9.227  14.009
46071W        W 5816   1.897   0.357   3.284
46072W        W 5817  18.708  26.141   1.445
46073W        W 5818  29.426  40.486   0.827
46074W        W 5819  25.009  21.069   0.783
46075W        W 5820  31.430  22.658   3.363
46076W        W 5821  42.827   4.724  10.537
46077W        W 5822  35.040  36.086  12.884
46078W        W 5823  12.845  23.713  11.574
46079W        W 5824  30.613  31.148   2.786
46080W        W 5825   9.644  35.457  14.796
46081W        W 5826   2.241   7.828   4.204
46082W        W 5827  28.183  35.458  13.488
46083W        W 5828  29.156   0.441  13.426
46084W        W 5829   8.352  15.620  13.524
46085W        W 5830  18.096  32.594   3.671
46086W        W 5831  15.650  29.632   1.868
46087W        W 5832  24.189  30.928  13.798
46088W        W 5833  30.998  18.141   5.160
46089W        W 5834  38.530  17.098  10.556
46090W        W 5835  36.523  16.311  11.978
46091W        W 5836  29.078  41.293   4.223
46092W        W 5837   3.883  37.418   5.580
46093W        W 5838  43.947  17.741   3.336
46094W        W 5839  19.281  23.535  12.021
46095W        W 5840  19.549  17.732   0.384
46096W        W 5841  43.974   6.216  11.534
46097W        W 5842   1.451  14.202   2.842
46098W        W 5843  16.681  16.724   2.305
46099W        W 5844   8.794  25.176   1.335
46100W        W 5845   8.885  43.893   9.950
46101W        W 5846   5.772  16.176   0.894
46102W        W 5847  44.323  27.653   2.724
46103W        W 5848  43.307  41.891  13.858
46104W        W 5849  31.946  25.169   2.743
46105W        W 5850   7.173   0.449  13.963
46106W        W 5851   1.363  33.397  11.605
46107W        W 5852  28.011  41.864  12.416
46108W        W 5853   1.459   0.447   0.938
46109W        W 5854  23.542  39.507   3.339
46110W        W 5855   1.805  42.286  11.868
46111W        W 5856  15.666  37.842   4.158
46112W        W 5857  33.563  12.818  14.354
46113W        W 5858   2.259   9.349  13.414
46114W        W 5859   3.423  41.453   1.403
46115W        W 5860  41.300  10.331  13.488
46116W        W 5861   5.423  18.788   3.244
46117W        W 5862  24.126  38.470   3.363
46118W        W 5863  33.901   5.854  10.525
46119W        W 5864  28.470  19.038  14.923
46120W        W 5865  37.439  36.981   4.826
46121W        W 5866  13.345   0.393  12.521
46122W        W 5867  19.597  30.429  14.503
46123W        W 5868  29.559  17.091  15.000
46124W        W 5869  13.218  19.159  12.424
46125W        W 5870   4.935  24.169   3.767
46126W        W 5871   9.698  22.741  12.022
46127W        W 5872  28.080  21.178  11.127
46128W        W 5873  18.291   8.319  12.561
46129W        W 5874  41.971  40.513  11.558
46130W        W 5875  24.489   8.212  12.958
46131W        W 5876  36.407  23.609   4.297
46132W        W 5877  10.822  14.690  12.354
46133W        W 5878   9.808  16.213  14.396
46134W        W 5879   1.975  36.097  12.378
46135W        W 5880  38.889  36.080   1.796
46136W        W 5881  16.591  39.857  11.517
46137W        W 5882  30.097  32.466   2.191
46138W        W 5883  37.880  11.327   0.788
46139W        W 5884  24.580  31.005   0.806
46140W        W 5885   0.841  11.678   4.244
46141W        W 5886  34.421  27.630   0.882
46142W        W 5887  33.414  15.694   3.697
46143W        W 5888   8.230  29.005  13.447
46144W        W 5889  37.514  30.988   3.769
46145W        W 5890  23.635  43.863  12.962
46146W        W 5891  27.478   6.914  11.054
46147W        W 5892  14.310   4.293   3.284
46148W        W 5893  35.502  30.972   4.762
46149W        W 5894  39.975  10.760  13.500
46150W        W 5895  44.774   4.252   0.808
46151W        W 5896  31.148  30.999   2.356
46152W        W 5897   3.768  26.070   1.868
46153W        W 5898  19.608  24.011   3.704
46154W        W 5899  35.069  21.105  13.514
46155W        W 5900  39.858  20.227   1.446
46156W        W 5901   1.851  19.696   1.406
46157W        W 5902  43.966  18.055   3.290
46158W        W 5903  18.084   1.393  14.470
46159W        W 5904  25.034  24.057  12.052
46160W        W 5905   4.225   4.787  13.889
46161W        W 5906   1.750  36.428  13.952
46162W        W 5907   2.334  26.025  11.556
46163W        W 5908  29.529  31.905   1.824
46164W        W 5909  39.958  36.902  13.476
46165W        W 5910  44.466  25.155   3.378
46166W        W 5911  25.052  11.264  11.095
46167W        W 5912  13.233  28.992  12.827
46168W        W 5913   3.260  25.482   2.744
46169W        W 5914  43.329   4.423  12.035
46170W        W 5915  20.177  33.465   2.401
46171W        W 5916  12.294   6.686  12.355
46172W        W 5917  30.553  25.065  13.984
46173W        W 5918   7.874  17.262  11.010
46174W        W 5919  35.567  20.252  12.901
46175W        W 5920  41.365   5.379   0.345
46176W        W 5921  30.050   3.409   3.724
46177W        W 5922  37.558  42.910   1.866
46178W        W 5923  34.902   3.371  10.112
46179W        W 5924   2.725   0.952   2.860
46180W        W 5925  44.951  14.176  10.957
46181W        W 5926   4.420  27.460   1.871
46182W        W 5927  32.545  32.535  11.560
46183W        W 5928   1.458  41.411  13.530
46184W        W 5929  21.059   2.456  11.405
46185W        W 5930   1.972  43.325   4.270
46186W        W 5931  24.177   3.423   2.329
46187W        W 5932  43.911  26.694  10.458
46188W        W 5933   8.168  24.484   1.736
46189W        W 5934  15.643  26.049   2.672
46190W        W 5935  27.016  37.451   1.862
46191W        W 5936  39.959  36.477   3.702
46192W        W 5937   6.821  31.467  14.324
46193W        W 5938  27.013  31.551  12.059
46194W        W 5939   0.372  19.125   2.187
46195W        W 5940   3.892  31.428  11.107
46196W        W 5941  41.418  33.567  14.928
46197W        W 5942  20.565  35.109   3.848
46198W        W 5943   3.315   2.761   4.192
46199W        W 5944  43.366  18.200  14.786
46200W        W 5945   0.901  39.845  12.954
46201W        W 5946  14.256   4.834   1.924
46202W        W 5947  41.464  26.972   3.871
46203W        W 5948  26.460  42.371  13.490
46204W        W 5949   7.816   8.861   4.657
46205W        W 5950  30.577  24.634  12.366
46206W        W 5951  25.659  28.122   4.617
46207W        W 5952  25.146  42.962  12.571
46208W        W 5953  30.504   8.205  11.535
46209W        W 5954  15.155  39.313  14.485
46210W        W 5955  11.708  25.503  14.515
46211W        W 5956  35.892  41.297   1.261
46212W        W 5957   9.194  25.692  14.428
46213W        W 5958  15.661  38.025   0.778
46214W        W 5959  33.626  20.146  12.988
46215W        W 5960  31.593  39.850  11.928
46216W        W 5961  14.632  25.120  13.852
46217W        W 5962  23.216  33.940   3.783
46218W        W 5963  40.976  13.791  14.760
46219W        W 5964  42.914  40.015  11.425
46220W        W 5965  34.435  23.635  12.427
46221W        W 5966   2.921   1.376   2.346
46222W        W 5967  11.797  16.753   2.836
46223W        W 5968  14.112  21.681   0.757
46224W        W 5969   0.789  44.832  11.492
46225W        W 5970  21.059  14.281   2.297
46226W        W 5971  14.254  24.177   0.866
46227W        W 5972  19.584  16.717  10.894
46228W        W 5973  19.579  18.661  12.915
46229W        W 5974  21.641  26.612  11.444
46230W        W 5975   7.181   6.847   3.367
46231W        W 5976  18.570  20.195  12.423
46232W        W 5977  37.021  40.010   3.351
46233W        W 5978   2.762   1.451  13.490
46234W        W 5979  42.985  43.014  12.344
46235W        W 5980  31.017  15.643  12.495
46236W        W 5981   9.365  40.903   3.721
46237W        W 5982  15.780  16.801  14.428
46238W        W 5983   6.232  24.216  13.901
46239W        W 5984  42.807  26.626   3.839
46240W        W 5985  18.092  13.693  13.843
46241W        W 5986  39.456  24.494  13.352
46242W        W 5987  30.648  10.756  12.984
46243W        W 5988  41.859   1.971  11.052
46244W        W 5989   9.171   2.288  10.645
46245W        W 5990  38.564  28.600  12.873
46246W        W 5991  10.859  27.106   4.231
46247W        W 5992  22.213   5.393  13.852
46248W        W 5993   5.319   2.377   0.870
46249W        W 5994   4.802   4.373  13.877
46250W        W 5995  43.516   4.433   4.329
46251W        W 5996  33.404   2.882  12.405
46252W        W 5997  19.093  16.589   2.900
46253W        W 5998  40.515  11.205   3.279
46254W        W 5999  44.969   6.686   1.363
46255W        W 6000  25.126   8.256   2.762
46256W        W 6001  18.069  16.257  13.385
46257W        W 6002  13.790  21.170   0.304
46258W        W 6003  10.335  44.930   4.114
46259W        W 6004  42.004   5.381  14.893
46260W        W 6005   6.258  11.670   3.164
46261W        W 6006  11.210  38.357   4.283
46262W        W 6007  31.557  24.184  14.947
46263W        W 6008  24.999   3.769   3.321
46264W        W 6009  42.336  10.346   1.909
46265W        W 6010  36.858  21.239   0.374
46266W        W 6011  25.655   1.348   0.259
46267W        W 6012  36.855  10.170   3.312
46268W        W 6013  39.485  17.755   0.913
46269W        W 6014   2.241   1.936  14.799
46270W        W 6015  44.332   5.835  14.785
46271W        W 6016  30.530  33.511   3.788
46272W        W 6017   6.251   4.801  12.388
46273W        W 6018  19.723  35.539  12.477
46274W        W 6019   4.429   0.447   2.689
46275W        W 6020  39.951  44.774  11.516
46276W        W 6021  14.255  12.158   1.288
46277W        W 6022   9.162  34.550  10.619
46278W        W 6023   4.397   1.469   1.409
46279W        W 6024   1.304  21.127  10.910
46280W        W 6025  39.934  33.025  14.789
46281W        W 6026  22.222  20.032  10.488
46282W        W 6027   6.258  39.879   2.820
46283W        W 6028  40.814   9.162   4.609
46284W        W 6029   3.924  16.156  10.948
46285W        W 6030  31.489  13.673  10.586
46286W        W 6031   8.781   5.331   4.290
46287W        W 6032  21.740  23.025  11.585
46288W        W 6033  40.368   0.769  10.590
46289W        W 6034  26.589  16.224   1.749
46290W        W 6035  38.975  36.437   0.872
46291W        W 6036  17.592  20.611  12.441
46292W        W 6037  31.908  38.966  13.064
46293W        W 6038  34.058  18.277   4.212
46294W        W 6039  30.941  27.179  13.469
46295W        W 6040  43.430  23.609  10.416
46296W        W 6041  20.745  39.447   3.324
46297W        W 6042  27.156   2.843  12.455
46298W        W 6043  14.623  43.293  12.908
46299W        W 6044  37.347  32.590  12.022
46300W        W 6045  21.707  44.355   4.693
46301W        W 6046  27.190  44.446  10.462
46302W        W 6047  41.920  23.526  11.489
46303W        W 6048  29.597  28.475   0.955
46304W        W 6049  38.444  44.358  14.462
46305W        W 6050  24.030  15.772  13.501
46306W        W 6051  26.160  24.198   2.384
46307W        W 6052  37.476  17.277   4.605
46308W        W 6053  35.508  27.641   2.234
46309W        W 6054  10.354   5.861  13.006
46310W        W 6055   4.369  22.050  10.500
46311W        W 6056  41.387   8.758  12.972
46312W        W 6057   5.312   5.403  14.967
46313W        W 6058  30.982  22.075   4.188
46314W        W 6059  34.544  43.411   3.709
46315W        W 6060  17.101  15.767   0.801
46316W        W 6061  27.450  24.066  11.589
46317W        W 6062  40.348  15.086  10.572
46318W        W 6063   8.881  21.735   0.407
46319W        W 6064  40.859  43.428   3.223
46320W        W 6065  34.463  32.486   4.613
46321W        W 6066  24.214  10.332   5.090
46322W        W 6067   8.321  44.007  11.591
46323W        W 6068  15.799  18.127  10.958
46324W        W 6069  30.651  25.680   3.360
46325W        W 6070   7.281   3.328  14.305
46326W        W 6071  13.689  37.050   1.739
46327W        W 6072   4.918  16.762  13.027
46328W        W 6073  28.961  12.780  10.549
46329W        W 6074   9.359  22.236   1.895
46330W        W 6075  36.532  12.356  12.961
46331W        W 6076  11.324  15.113   0.275
46332W        W 6077  31.420  25.699  12.428
46333W        W 6078   7.766  21.597  13.379
46334W        W 6079  18.781  39.340  14.322
46335W        W 6080  39.934   7.225  11.444
46336W        W 6081  41.361  41.869  12.496
46337W        W 6082  34.375   0.490   4.776
46338W        W 6083  38.486  37.505  12.000
46339W        W 6084  20.641  43.331   3.821
46340W        W 6085  39.002   0.768   4.273
46341W        W 6086  40.431   0.297  14.976
46342W        W 6087  39.459  39.367  14.794
46343W        W 6088  33.063   8.833   1.274
46344W        W 6089   7.881  14.290   5.237
46345W        W 6090  10.853   3.340  14.279
46346W        W 6091  32.070   2.916  14.472
46347W        W 6092  19.055  18.265  11.911
46348W        W 6093  31.585  33.014   4.314
46349W        W 6094  43.942  30.579  14.315
46350W        W 6095  15.219   6.233  10.953
46351W        W 6096   9.189  10.703  14.002
46352W        W 6097   0.468   0.983  10.534
46353W        W 6098   4.821  42.417   1.836
46354W        W 6099  25.159  29.621  13.055
46355W        W 6100  26.053  36.080  11.866
46356W        W 6101  42.373  35.361   2.860
46357W        W 6102  38.441  11.638   0.250
46358W        W 6103   5.884  40.967   3.295
46359W        W 6104  44.955  40.038  12.947
46360W        W 6105  10.254  25.658  12.017
46361W        W 6106  18.687  43.334  12.029
46362W        W 6107  43.918  19.179   2.721
46363W        W 6108  38.890  37.946   0.932
46364W        W 6109   7.180  19.057   0.729
46365W        W 6110  19.684   6.805   3.692
46366W        W 6111  44.460  12.659   3.154
46367W        W 6112  20.705  33.431  10.532
46368W        W 6113  13.139  38.570   2.324
46369W        W 6114  12.732  36.458  10.052
46370W        W 6115  12.194  26.680   1.262
46371W        W 6116  32.446  34.410  12.055
46372W        W 6117  19.102  19.568  10.601
46373W        W 6118  24.646   5.294   1.298
46374W        W 6119   7.847  22.520  10.049
46375W        W 6120  29.430  38.861  13.864
46376W        W 6121   9.165  31.087  13.063
46377W        W 6122   7.398  12.260   4.650
46378W        W 6123  13.169  22.713   2.831
46379W        W 6124  11.726   4.311   0.787
46380W        W 6125  42.447   5.777   4.754
46381W        W 6126  19.585  13.647   3.854
46382W        W 6127  30.571   8.212   2.228
46383W        W 6128  17.298  25.618  13.936
46384W        W 6129  29.014  34.370  11.565
46385W        W 6130   3.311  12.622   2.321
46386W        W 6131  26.201  10.738   0.397
46387W        W 6132   6.412  17.780  13.525
46388W        W 6133  36.057  21.167  14.863
46389W        W 6134  33.996  39.491  13.490
46390W        W 6135  43.911  10.232  10.531
46391W        W 6136  26.003  30.138  12.979
46392W        W 6137  13.766  42.880   2.236
46393W        W 6138  24.564  43.849   3.804
46394W        W 6139  33.594  38.025   2.322
46395W        W 6140  19.142  38.456   2.241
46396W        W 6141  25.062  41.299   4.626
46397W        W 6142  24.637  39.014  11.952
46398W        W 6143  25.980  39.493  13.373
46399W        W 6144  35.017  35.485   1.317
46400W        W 6145  37.525  44.876   2.394
46401W        W 6146  21.243  38.834   0.327
46402W        W 6147   9.375  24.565  13.947
46403W        W 6148  15.168   8.847  13.902
46404W        W 6149   5.751  24.212   1.210
46405W        W 6150  30.568  13.764   0.399
46406W        W 6151  34.392  21.546  10.979
46407W        W 6152  19.139  37.512  14.985
46408W        W 6153   8.400  34.879  14.402
46409W        W 6154  12.700   8.688   2.719
46410W        W 6155   1.457  11.627  10.967
46411W        W 6156  14.340  10.258   2.258
46412W        W 6157  18.607  29.598  14.343
46413W        W 6158  20.197  31.004   3.804
46414W        W 6159  22.152   9.240  12.448
46415W        W 6160   8.732  25.619   3.181
46416W        W 6161   4.775  14.799  14.340
46417W        W 6162  42.399  15.730  13.050
46418W        W 6163  30.137  42.970  14.913
46419W        W 6164  25.516   9.654   0.321
46420W        W 6165  19.236  26.179  10.524
46421W        W 6166   3.402   3.438  12.823
46422W        W 6167   7.203  41.996   0.822
46423W        W 6168  10.292  13.669   3.859
46424W        W 6169  30.054   8.705   1.280
46425W        W 6170  31.120   8.407   1.383
46426W        W 6171  21.111  44.815  12.356
46427W        W 6172  39.487  21.090   0.901
46428W        W 6173  44.386  17.209   1.405
46429W        W 6174  21.624   5.268   1.697
46430W        W 6175  21.128   6.748  14.444
46431W        W 6176  15.593  21.565  13.431
46432W        W 6177  29.444  37.361   3.304
46433W        W 6178  36.077  38.325   2.765
46434W        W 6179  29.538  22.227   4.661
46435W        W 6180  26.000  23.205   2.884
46436W        W 6181   9.198  12.740  13.035
46437W        W 6182   4.748  42.989  13.855
46438W        W 6183  31.430  19.189  14.029
46439W        W 6184  44.763  10.354  10.460
46440W        W 6185  23.626  39.335  12.840
46441W        W 6186   6.903  12.744  11.058
46442W        W 6187   9.797   9.212   3.832
46443W        W 6188  36.852  17.682  11.091
46444W        W 6189  32.021  34.551   3.211
46445W        W 6190  30.536  15.247   4.647
46446W        W 6191  11.307  24.645   4.157
46447W        W 6192  27.126  31.081   9.930
46448W        W 6193   7.820  10.773   0.436
46449W        W 6194  37.339   6.693  10.637
46450W        W 6195  23.044  21.165   4.723
46451W        W 6196  26.529  12.359  10.894
46452W        W 6197  28.645  21.224  13.367
46453W        W 6198  10.792  35.565   0.318
46454W        W 6199   9.321  22.691  11.498
46455W        W 6200  24.632  11.824  12.036
46456W        W 6201  41.417  30.439  11.883
46457W        W 6202  26.054   3.917   2.752
46458W        W 6203  35.508  28.461   4.135
46459W        W 6204  25.125   9.723   2.264
46460W        W 6205   2.352  10.744   4.801
46461W        W 6206  30.117  36.965   3.375
46462W        W 6207  36.056  17.132   1.793
46463W        W 6208  13.230   4.440  12.519
46464W        W 6209  43.825  29.942   1.419
46465W        W 6210  18.625  21.740  12.433
46466W        W 6211  34.568  33.099   1.730
46467W        W 6212  36.979   5.362  10.581
46468W        W 6213   0.911   3.850  11.037
46469W        W 6214  44.381  44.349   1.214
46470W        W 6215  27.666  35.077  14.890
46471W        W 6216  16.221  18.095  12.902
46472W        W 6217   5.759   2.813  14.758
46473W        W 6218  25.059  34.026   2.396
46474W        W 6219  30.112  29.043   1.871
46475W        W 6220   4.354   0.337   3.354
46476W        W 6221   3.437  18.192  12.095
46477W        W 6222   7.670   8.781   3.848
46478W        W 6223   7.896  38.022   0.471
46479W        W 6224  24.553  35.479   5.106
46480W        W 6225  37.887  25.078  13.517
46481W        W 6226  15.241  19.214  11.381
46482W        W 6227  43.344  44.329  13.052
46483W        W 6228   1.326  42.021  12.550
46484W        W 6229   3.322  30.100   3.805
46485W        W 6230  44.858  31.079   3.293
46486W        W 6231   2.436  33.879   3.742
46487W        W 6232   0.898   0.749  11.023
46488W        W 6233  38.896  32.969  13.470
46489W        W 6234  25.971  39.061  13.860
46490W        W 6235  29.615  40.953  14.340
46491W        W 6236   3.430  20.666   3.149
46492W        W 6237   2.833  25.524   4.338
46493W        W 6238  44.927  41.334   4.266
46494W        W 6239  27.173  42.015  12.937
46495W        W 6240  34.110   0.916  14.902
46496W        W 6241   4.752  41.835   2.753
46497W        W 6242  39.826  37.420  11.008
46498W        W 6243  21.223   5.745  14.814
46499W        W 6244  13.684  44.495   4.734
46500W        W 6245  14.633   8.683   4.199
46501W        W 6246  31.048  12.769   1.424
46502W        W 6247  16.786   9.367   3.202
46503W        W 6248  21.517  26.200  12.998
46504W        W 6249  21.720  43.336   4.638
46505W        W 6250  22.111  34.523   1.765
46506W        W 6251  37.868  34.981  11.499
46507W        W 6252  41.958   0.437   3.815
46508W        W 6253  39.478  10.814   1.237
46509W        W 6254  10.214   8.791  13.427
46510W        W 6255  43.343  38.333   4.730
46511W        W 6256  20.231   9.219   2.819
46512W        W 6257  37.440  23.499  13.346
46513W        W 6258  12.677  26.140   1.283
46514W        W 6259  36.416   5.227   2.369
46515W        W 6260   8.708  41.499   2.268
46516W        W 6261  32.117   0.831   4.210
46517W        W 6262  16.216   6.906   3.196
46518W        W 6263  20.130  33.088  12.838
46519W        W 6264  25.556  32.902   4.250
46520W        W 6265  25.523  44.943  12.570
46521W        W 6266   5.199  19.596  11.387
46522W        W 6267   6.331   0.378  11.380
46523W        W 6268   8.272   8.259   4.620
46524W        W 6269   2.903  43.812   2.205
46525W        W 6270  41.839  25.077   0.871
46526W        W 6271  14.277  13.612  13.884
46527W        W 6272  16.788  15.319  11.400
46528W        W 6273  33.977  37.342  13.323
46529W        W 6274   5.814  26.203  12.921
46530W        W 6275  12.308  42.503  13.963
46531W        W 6276  33.905  20.171   0.763
46532W        W 6277  17.642   0.427  13.429
46533W        W 6278   5.739   2.451   2.305
46534W        W 6279  21.617  14.791   2.741
46535W        W 6280   3.813  37.001   4.236
46536W        W 6281   6.396  32.532  13.354
46537W        W 6282   5.300  14.222   2.805
46538W        W 6283   7.401  37.959   3.327
46539W        W 6284  42.829   6.411   0.356
46540W        W 6285  29.075  34.563  14.936
46541W        W 6286  39.828  14.145   0.950
46542W        W 6287   5.263  25.076  14.937
46543W        W 6288  35.535  12.744  13.348
46544W        W 6289  30.498   2.264   2.676
46545W        W 6290   0.941  19.070   5.123
46546W        W 6291   2.317  44.965   0.470
46547W        W 6292   7.758  10.169   1.794
46548W        W 6293  29.598  11.716   2.806
46549W        W 6294   1.876  26.144   0.847
46550W        W 6295   4.208  21.211   1.747
46551W        W 6296  25.037   2.863  12.460
46552W        W 6297   5.296  33.608  13.856
46553W        W 6298  24.166  32.910  12.416
46554W        W 6299   9.175  11.310  14.409
46555W        W 6300  17.183   6.891  12.062
46556W        W 6301   0.772   0.446   9.937
46557W        W 6302  16.619   0.799   1.820
46558W        W 6303   3.787   7.767  12.511
46559W        W 6304  19.158  35.385  14.422
46560W        W 6305  14.787  39.899  11.009
46561W        W 6306  28.964  19.262   2.766
46562W        W 6307  22.693   3.837   3.675
46563W        W 6308  42.931  26.108   3.659
46564W        W 6309  33.432  29.114   4.314
46565W        W 6310  42.828  32.093  10.526
46566W        W 6311  16.706  17.668   1.264
46567W        W 6312   6.739  37.404  14.420
46568W        W 6313  29.667  10.731  15.000
46569W        W 6314   9.388  43.308  13.485
46570W        W 6315   6.307  26.647  13.518
46571W        W 6316  27.010  28.112  13.328
46572W        W 6317  32.892   2.261   2.753
46573W        W 6318  16.124  14.668   4.815
46574W        W 6319   6.900  35.036  13.841
46575W        W 6320   0.339  41.438  13.964
46576W        W 6321  16.236  28.651  13.988
46577W        W 6322  15.675  26.061   1.424
46578W        W 6323  19.659  15.593  14.471
46579W        W 6324  20.163  28.534   2.840
46580W        W 6325  32.622  20.567  13.395
46581W        W 6326  35.900  22.110  13.839
46582W        W 6327  39.933  28.485  12.943
46583W        W 6328  40.382  17.263  14.356
46584W        W 6329  37.545  15.795  12.899
46585W        W 6330  39.850   1.944   0.331
46586W        W 6331  31.462  14.304   4.352
46587W        W 6332  35.080   1.898   5.249
46588W        W 6333  22.701  35.917   0.436
46589W        W 6334  19.659  16.256  12.861
46590W        W 6335  27.055  28.440  13.967
46591W        W 6336  42.808  14.333   3.700
46592W        W 6337  26.598   9.781   3.804
46593W        W 6338  17.107  32.608  13.847
46594W        W 6339  34.061   3.311   1.833
46595W        W 6340  34.474  20.743  11.561
46596W        W 6341  10.870   8.242   1.732
46597W        W 6342  20.530  39.840  11.576
46598W        W 6343  27.002  12.671  13.890
46599W        W 6344  37.438  43.839  12.902
46600W        W 6345  21.077   5.901  12.581
46601W        W 6346  11.820  39.535  14.813
46602W        W 6347  21.018   7.851  12.048
46603W        W 6348  13.634  41.361   1.314
46604W        W 6349  23.550   2.263  12.849
46605W        W 6350  36.010  21.262   0.924
46606W        W 6351  41.292  25.175   2.238
46607W        W 6352  43.419  34.595   2.815
46608W        W 6353  29.491  36.936   2.380
46609W        W 6354  13.646   2.797  11.604
46610W        W 6355  23.076  26.530   0.439
46611W        W 6356   9.261   5.802  12.879
46612W        W 6357  25.220   4.888   3.279
46613W        W 6358  15.131  30.039  12.028
46614W        W 6359   4.308   0.749   3.290
46615W        W 6360  38.047  44.935  12.908
46616W        W 6361  39.040  37.520   4.812
46617W        W 6362  23.663  19.180  14.968
46618W        W 6363   3.420   9.300   0.740
46619W        W 6364  14.590  44.412   0.962
46620W        W 6365  23.603  24.577   3.704
46621W        W 6366  23.556  42.375  13.000
46622W        W 6367   8.785   3.777  11.386
46623W        W 6368  42.341  42.855   2.804
46624W        W 6369  17.269  26.134  12.533
46625W        W 6370  22.702  26.533   5.306
46626W        W 6371  31.460  38.410   3.713
46627W        W 6372  42.875   5.383  11.583
46628W        W 6373  28.649  15.719  13.440
46629W        W 6374  17.673  40.054  11.052
46630W        W 6375  35.085  33.607   0.358
46631W        W 6376  38.021  30.102  14.291
46632W        W 6377  44.260  36.592  11.978
46633W        W 6378  14.734  34.374   1.720
46634W        W 6379  28.143  28.940   0.473
46635W        W 6380  27.618  14.660  14.486
46636W        W 6381  40.803  11.638   0.404
46637W        W 6382  15.654  14.193   1.838
46638W        W 6383   8.692  35.894  14.394
46639W        W 6384  13.194  36.052  12.439
46640W        W 6385  32.462  37.965   1.804
46641W        W 6386  34.117  12.647  11.900
46642W        W 6387   4.404   5.332  14.851
46643W        W 6388  26.146   5.819  11.993
46644W        W 6389  32.054   6.715  14.873
46645W        W 6390  40.488  22.518  10.933
46646W        W 6391  23.694  19.129   4.204
46647W        W 6392  41.424  13.196  12.896
46648W        W 6393  24.517  21.239   0.903
46649W        W 6394   0.460  40.972   1.391
46650W        W 6395  34.043   7.709  11.561
46651W        W 6396  44.296   2.824   3.713
46652W        W 6397  24.683   8.683   3.306
46653W        W 6398  16.299  20.031   3.288
46654W        W 6399  44.420  12.651  14.429
46655W        W 6400   9.675  25.011  13.029
46656W        W 6401   3.775  44.336  10.077
46657W        W 6402  28.988   7.176   3.166
46658W        W 6403  35.859  35.085  14.422
46659W        W 6404  37.891  21.251   0.765
46660W        W 6405  15.228   5.879   3.651
46661W        W 6406  24.685  40.360   2.810
46662W        W 6407   8.398  39.814   1.710
46663W        W 6408  38.987  42.509   3.386
46664W        W 6409  31.447   2.841  11.460
46665W        W 6410  15.264  36.994   2.820
46666W        W 6411  31.932  38.402  13.999
46667W        W 6412  12.770   7.835  13.483
46668W        W 6413  39.554  10.847  12.579
46669W        W 6414  44.787  44.772   4.697
46670W        W 6415  32.909  31.980  11.997
46671W        W 6416  36.443  44.349  13.320
46672W        W 6417  34.404  29.494   1.807
46673W        W 6418  22.717  30.506  14.303
46674W        W 6419  28.518  11.663   4.272
46675W        W 6420  15.629  35.947   1.715
46676W        W 6421   5.210  13.105  10.634
46677W        W 6422  18.232  43.501   0.784
46678W        W 6423  36.363  28.483   4.142
46679W        W 6424  18.082   0.395   4.615
46680W        W 6425  15.781  21.080  14.842
46681W        W 6426  23.559  23.693  11.963
46682W        W 6427  44.434  41.359  14.373
46683W        W 6428  39.960  38.938  12.841
46684W        W 6429   2.800  31.640   4.281
46685W        W 6430  44.380   1.478  12.345
46686W        W 6431  40.809  19.749  12.574
46687W        W 6432  27.129  12.212  13.422
46688W        W 6433   0.472  12.656  11.939
46689W        W 6434  26.129   8.291  12.058
46690W        W 6435  11.715   6.876   2.255
46691W        W 6436   9.272  39.382  13.412
46692W        W 6437  42.454  43.965  12.370
46693W        W 6438  25.604  15.321  11.598
46694W        W 6439  13.635  23.148   4.156
46695W        W 6440  38.941  13.210   9.936
46696W        W 6441  39.315  25.171   3.720
46697W        W 6442  19.191   8.176   0.727
46698W        W 6443   9.655  33.108  14.459
46699W        W 6444  16.238   6.371  12.542
46700W        W 6445   8.892   5.701   0.879
46701W        W 6446  34.975  18.566  12.866
46702W        W 6447  43.291  18.223   0.831
46703W        W 6448   6.316  34.578  10.468
46704W        W 6449  36.930   3.818   4.180
46705W        W 6450  17.629   7.282   0.422
46706W        W 6451  15.254  40.841   2.737
46707W        W 6452  32.589  10.730  13.850
46708W        W 6453  40.405  42.831   1.393
46709W        W 6454  39.372  10.281  14.329
46710W        W 6455   0.347   4.396  10.990
46711W        W 6456  32.031   9.328  11.935
46712W        W 6457   4.324  37.415   0.251
46713W        W 6458  11.225  30.421  11.380
46714W        W 6459  33.438  21.751   1.883
46715W        W 6460  40.873  37.401  11.507
46716W        W 6461  23.090  42.324   1.318
46717W        W 6462  23.068   5.305  14.499
46718W        W 6463  44.428  18.195  14.324
46719W        W 6464   2.382  18.770  11.421
46720W        W 6465  22.611  32.950   4.644
46721W        W 6466  26.564  21.158  10.071
46722W        W 6467  26.678   0.961  11.123
46723W        W 6468  10.666  10.844  10.416
46724W        W 6469  15.196   5.438   3.177
46725W        W 6470  28.969   2.445   0.459
46726W        W 6471  37.900  20.110  12.890
46727W        W 6472  21.252  13.664   0.441
46728W        W 6473   4.736  35.517  10.991
46729W        W 6474  29.019  40.914   1.836
46730W        W 6475   2.889  43.455   4.175
46731W        W 6476  12.783  34.506  10.521
46732W        W 6477   8.382  28.940  11.008
46733W        W 6478   1.900  28.964  12.074
46734W        W 6479  29.469  24.006  14.358
46735W        W 6480  34.594  19.264  13.015
46736W        W 6481  28.650  36.457   0.254
46737W        W 6482  15.287  12.796   1.229
46738W        W 6483  36.452  32.046   1.351
46739W        W 6484  10.181   6.280   1.809
46740W        W 6485   0.336  17.195  12.095
46741W        W 6486   5.362  11.829   0.792
46742W        W 6487  25.553  41.336   3.272
46743W        W 6488  31.122  42.907   1.284
46744W        W 6489   2.288  28.955   1.772
46745W        W 6490  24.177  39.895  11.128
46746W        W 6491  27.988  10.787  14.028
46747W        W 6492  16.775  17.608  11.912
46748W        W 6493  36.872   5.887   4.146
46749W        W 6494  35.540   7.265  12.083
46750W        W 6495  35.863   3.830  14.791
46751W        W 6496  15.705   7.296  12.947
46752W        W 6497   4.938  22.520   1.413
46753W        W 6498  40.003  26.086  14.017
46754W        W 6499  25.186  33.883   4.213
46755W        W 6500  21.712  40.851  13.374
46756W        W 6501  17.191  17.151   4.337
46757W        W 6502  16.727  40.507  10.609
46758W        W 6503  22.054  44.427   2.740
46759W        W 6504   5.261  35.979   3.658
46760W        W 6505  11.695  19.075   1.223
46761W        W 6506  10.343   1.426   0.817
46762W        W 6507   1.852   7.868   3.244
46763W        W 6508   0.262  35.378   2.410
46764W        W 6509  33.518  35.573   0.956
46765W        W 6510  31.405  28.519   1.787
46766W        W 6511   9.157   6.416   1.269
46767W        W 6512  27.483  11.150   1.212
46768W        W 6513  16.282  15.188   1.410
46769W        W 6514  26.206  27.593   2.792
46770W        W 6515   1.357  22.717   2.178
46771W        W 6516  44.837  43.786   4.276
46772W        W 6517   7.842  13.211  10.896
46773W        W 6518  35.381   4.759   0.944
46774W        W 6519   2.942  18.596   1.740
46775W        W 6520   2.817   6.731  11.555
46776W        W 6521  21.057  10.380   2.243
46777W        W 6522  13.628  32.444   1.730
46778W        W 6523  41.348  21.213  12.904
46779W        W 6524  23.021  14.692   3.705
46780W        W 6525   3.376  13.205   5.114
46781W        W 6526   7.813  25.620   0.852
46782W        W 6527  33.562  27.163   0.894
46783W        W 6528   4.710   0.837  14.420
46784W        W 6529  13.117  32.532  12.572
46785W        W 6530   3.723  16.670  11.921
46786W        W 6531  20.552  24.008   2.796
46787W        W 6532  16.284  26.165  11.571
46788W        W 6533  38.333  10.262   1.294
46789W        W 6534  35.035  23.199  13.005
46790W        W 6535  26.639  18.610  14.913
46791W        W 6536  31.985   2.274   0.314
46792W        W 6537  14.819  27.022   2.336
46793W        W 6538  25.597  29.147  13.345
46794W        W 6539  36.479  36.479  11.408
46795W        W 6540  35.072  43.778  12.088
46796W        W 6541  22.570  13.712  12.842
46797W        W 6542   2.960   5.816   1.253
46798W        W 6543  38.424  19.627   1.886
46799W        W 6544  19.641  19.276  11.066
46800W        W 6545  27.953  42.372  14.481
46801W        W 6546  38.368  11.780   3.302
46802W        W 6547  39.498  28.572   4.270
46803W        W 6548  20.594  12.327  10.032
46804W        W 6549   9.826  25.534   0.765
46805W        W 6550  37.905   7.668  12.849
46806W        W 6551  43.828  19.178   2.184
46807W        W 6552  17.695  32.127  10.021
46808W        W 6553  20.658  16.302   2.251
46809W        W 6554  12.723  38.928   1.345
46810W        W 6555  16.111   1.255   2.389
46811W        W 6556  43.910  44.883   4.168
46812W        W 6557  24.012  17.588   1.723
46813W        W 6558  37.416  23.502  11.436
46814W        W 6559  20.731  24.483   1.797
46815W        W 6560   5.886  34.909  14.884
46816W        W 6561  10.730   5.737  11.490
46817W        W 6562  44.778  20.188   2.847
46818W        W 6563  40.424  31.934  10.408
46819W        W 6564  27.682   8.194  14.895
46820W        W 6565  34.526  25.123   1.423
46821W        W 6566  31.099  28.132   5.701
46822W        W 6567   1.940  19.157  11.383
46823W        W 6568  42.845  23.588  13.952
46824W        W 6569  14.623   0.274   3.737
46825W        W 6570   4.842  22.619   2.683
46826W        W 6571  16.283  29.171   0.959
46827W        W 6572  18.219  12.171  12.461
46828W        W 6573  25.652   4.345   0.467
46829W        W 6574  40.495  32.583   0.801
46830W        W 6575  10.780  23.493   4.634
46831W        W 6576  29.464   0.860   2.346
46832W        W 6577  28.483   5.930   2.749
46833W        W 6578  13.212  19.692  14.765
46834W        W 6579  37.505  16.212  10.412
46835W        W 6580   4.294  28.993  11.898
46836W        W 6581   7.899  26.125  12.578
46837W        W 6582  28.075  11.737  10.623
46838W        W 6583  16.142  33.891   3.648
46839W        W 6584  33.607  35.026  11.598
46840W        W 6585  23.167  29.137   2.717
46841W        W 6586  13.329   2.938  13.858
46842W        W 6587  35.041   6.314   1.250
46843W        W 6588  16.590  18.199   0.963
46844W        W 6589  44.414   8.792   2.343
46845W        W 6590  12.349  23.092  11.602
46846W        W 6591  36.420   5.240  12.925
46847W        W 6592   2.340  39.848  14.028
46848W        W 6593  11.152   6.903   4.828
46849W        W 6594  13.326  35.580   2.766
46850W        W 6595  33.510  30.019  14.372
46851W        W 6596  12.293  39.945   4.321
46852W        W 6597  39.835  23.218   1.837
46853W        W 6598   6.734   0.792   0.727
46854W        W 6599   4.265  30.052  12.541
46855W        W 6600  33.949  32.900  10.457
46856W        W 6601  43.510   3.340  13.859
46857W        W 6602   3.348  33.053   3.248
46858W        W 6603  15.205  10.212  14.958
46859W        W 6604  18.646  34.575  13.406
46860W        W 6605  17.704  36.859   9.590
46861W        W 6606  37.433  34.942   3.669
46862W        W 6607   3.366  28.001  14.386
46863W        W 6608   6.873  15.684   3.264
46864W        W 6609   8.696  34.035  12.496
46865W        W 6610  13.316  14.115   3.787
46866W        W 6611  24.160  30.128   5.791
46867W        W 6612  21.528  43.005   3.216
46868W        W 6613  28.465  42.851   1.734
46869W        W 6614  22.225  23.208  12.887
46870W        W 6615  29.092   1.426  11.934
46871W        W 6616   9.199  44.265  11.995
46872W        W 6617  31.962  18.559   2.849
46873W        W 6618   8.897  34.089  11.890
46874W        W 6619  24.149  38.075   3.695
46875W        W 6620  40.934   1.238  12.989
46876W        W 6621  17.688   1.332   1.410
46877W        W 6622  10.183  20.661  12.502
46878W        W 6623  26.659  13.628   0.478
46879W        W 6624  23.063  36.012   0.459
46880W        W 6625  39.314  11.655  14.775
46881W        W 6626  37.487  20.087  11.011
46882W        W 6627  43.898  40.976  13.020
46883W        W 6628  16.679  34.431   3.263
46884W        W 6629  15.102  28.066   3.799
46885W        W 6630  44.262  36.350   1.273
46886W        W 6631  44.383   0.899  13.939
46887W        W 6632   0.957  28.445  13.926
46888W        W 6633  44.009  38.391  11.570
46889W        W 6634   5.687  14.787   0.473
46890W        W 6635  25.506  17.559  11.408
46891W        W 6636   1.466   0.426   1.897
46892W        W 6637  11.341  25.485   0.451
46893W        W 6638  39.864   7.711   3.696
46894W        W 6639  10.357  27.531  12.548
46895W        W 6640   7.690   4.789  12.533
46896W        W 6641   9.368  28.943   1.426
46897W        W 6642  32.594  26.184  12.094
46898W        W 6643  37.367   4.310   1.925
46899W        W 6644  40.411  28.187  14.402
46900W        W 6645  10.820  23.718   2.337
46901W        W 6646  15.243  25.589  11.429
46902W        W 6647  34.993   6.696  14.819
46903W        W 6648  14.301   5.435  12.987
46904W        W 6649  10.878   5.317  13.973
46905W        W 6650  15.808  28.641   2.900
46906W        W 6651  17.647  37.568   3.314
46907W        W 6652   0.309  15.267  11.926
46908W        W 6653   6.841  41.413   1.786
46909W        W 6654  18.598  23.017  11.995
46910W        W 6655  44.849  21.229  13.805
46911W        W 6656  44.443  25.101   4.603
46912W        W 6657  25.637  34.008  13.340
46913W        W 6658  42.495  24.181  12.451
46914W        W 6659   4.783  30.114   0.774
46915W        W 6660  34.980  19.135   1.860
46916W        W 6661  31.485  35.977   0.302
46917W        W 6662   0.426   6.871   4.291
46918W        W 6663   8.198  11.687   0.255
46919W        W 6664  15.651  27.547  11.445
46920W        W 6665  15.202   2.300   2.332
46921W        W 6666  13.299  12.797  13.437
46922W        W 6667  31.933  22.696   2.221
46923W        W 6668  15.594   4.724   2.724
46924W        W 6669  34.380  38.434  14.484
46925W        W 6670  43.377  14.784   1.246
46926W        W 6671   9.171  20.768   4.250
46927W        W 6672  43.461  42.928  14.791
46928W        W 6673  23.568   8.813  11.969
46929W        W 6674  24.004  37.445  10.907
46930W        W 6675  13.834   3.332  14.367
46931W        W 6676  31.621  27.120   4.290
46932W        W 6677  35.431  25.010  12.549
46933W        W 6678  10.812   4.272  14.866
46934W        W 6679  23.079  33.077  14.441
46935W        W 6680  20.739   3.351  11.950
46936W        W 6681   3.749   2.889  13.983
46937W        W 6682  10.839  29.999  13.442
46938W        W 6683   3.288  32.610  11.374
46939W        W 6684  37.975  22.175   0.300
46940W        W 6685  21.525  40.345   2.368
46941W        W 6686  26.679  42.446   3.260
46942W        W 6687  10.372  14.799  12.486
46943W        W 6688  31.443  34.907   4.751
46944W        W 6689  20.130   0.308  14.786
46945W        W 6690  14.227  37.405  12.415
46946W        W 6691  33.923   6.681   2.728
46947W        W 6692  21.119  14.246   3.785
46948W        W 6693  26.969   3.441   0.456
46949W        W 6694  18.673   5.889  13.951
46950W        W 6695   6.868   4.445   2.723
46951W        W 6696  25.042  35.487   4.120
46952W        W 6697  11.825  10.718   4.280
46953W        W 6698  28.151  18.231  11.480
46954W        W 6699  12.711  24.484   4.192
46955W        W 6700   9.877  17.758  13.824
46956W        W 6701  26.956  16.577  13.545
46957W        W 6702   1.315   6.422   3.777
46958W        W 6703  24.166  25.053  10.113
46959W        W 6704  34.458   8.344  10.475
46960W        W 6705   1.863  26.548  12.849
46961W        W 6706  37.468   7.370   0.786
46962W        W 6707   7.719  21.174  12.359
46963W        W 6708  29.431   1.867   1.262
46964W        W 6709   9.808   9.172   2.862
46965W        W 6710  29.491  44.758  14.946
46966W        W 6711  12.757  30.510   0.952
46967W        W 6712  17.624   8.847  14.476
46968W        W 6713  13.140  29.568  11.038
46969W        W 6714  10.841  29.981   4.302
46970W        W 6715  29.664  30.437  13.064
46971W        W 6716  25.517  34.878  13.453
46972W        W 6717   8.207  22.234  11.931
46973W        W 6718   0.325  40.406  13.319
46974W        W 6719  20.754  25.167   0.472
46975W        W 6720  40.455  21.548  10.406
46976W        W 6721  12.815  37.509  13.308
46977W        W 6722  25.079  23.526  10.550
46978W        W 6723  16.278  28.654  12.427
46979W        W 6724  42.856  36.497  12.052
46980W        W 6725  34.520  35.518   4.201
46981W        W 6726  42.333  36.964   3.704
46982W        W 6727  17.191  18.649   3.378
46983W        W 6728   3.862  24.547  10.498
46984W        W 6729   7.697  31.573   2.342
46985W        W 6730  34.914  38.018   1.360
46986W        W 6731  43.953  28.613  12.010
46987W        W 6732   4.826   6.876  13.394
46988W        W 6733  42.391  32.434  14.277
46989W        W 6734  17.083  33.005  14.495
46990W        W 6735  28.151  39.471   2.329
46991W        W 6736  33.912  18.230   0.398
46992W        W 6737  44.964   7.909   4.724
46993W        W 6738  20.084  42.409  12.410
46994W        W 6739  31.401  26.564   3.339
46995W        W 6740  22.125  35.075  14.294
46996W        W 6741  18.053  15.201   1.265
46997W        W 6742  37.879   6.213  11.933
46998W        W 6743  13.603  43.485   1.367
46999W        W 6744   0.807  40.442   0.811
47000W        W 6745  16.184  30.938  14.839
47001W        W 6746  33.119  39.911  12.828
47002W        W 6747  22.024  42.360   0.960
47003W        W 6748  25.187  31.001   0.833
47004W        W 6749  34.612   5.786  11.875
47005W        W 6750  26.150  24.110  12.385
47006W        W 6751  40.396   8.271   2.207
47007W        W 6752   2.842  28.533   2.721
47008W        W 6753  30.420  42.469   3.160
47009W        W 6754   2.416  34.114   1.847
47010W        W 6755  21.256   6.734  11.887
47011W        W 6756  30.060  22.198  13.035
47012W        W 6757  26.996   2.365  12.974
47013W        W 6758   8.862  38.442  10.475
47014W        W 6759  20.560  22.562  13.800
47015W        W 6760  28.079   6.684   5.261
47016W        W 6761  17.169   8.312   3.835
47017W        W 6762  29.985  12.269   0.909
47018W        W 6763  38.052  10.787  11.904
47019W        W 6764   6.425  24.076   4.206
47020W        W 6765  11.751  13.827   0.275
47021W        W 6766  18.558  12.165  12.961
47022W        W 6767  18.087  28.460   2.376
47023W        W 6768   2.362  30.915  12.565
47024W        W 6769  18.745   4.846  11.520
47025W        W 6770  24.099  40.048  14.409
47026W        W 6771  22.550  36.962  11.117
47027W        W 6772  22.129   8.771   3.632
47028W        W 6773  34.399  12.278   1.405
47029W        W 6774  30.155  41.990  13.518
47030W        W 6775  16.307  22.112   1.330
47031W        W 6776  39.019   5.383   1.758
47032W        W 6777   5.847  39.549  10.628
47033W        W 6778  31.431   0.327  11.431
47034W        W 6779  22.157  22.674   0.737
47035W        W 6780  35.101  12.189  12.399
47036W        W 6781   1.426  26.162   9.999
47037W        W 6782  32.590   1.475   1.701
47038W        W 6783  41.523   7.892   2.283
47039W        W 6784  26.047  15.650   2.290
47040W        W 6785  17.583  34.505  13.879
47041W        W 6786  15.633  40.995   0.400
47042W        W 6787   8.198  16.182   4.213
47043W        W 6788   0.355   8.371   3.644
47044W        W 6789  32.033  17.084  14.011
47045W        W 6790  39.836  42.010   3.841
47046W        W 6791  14.812  28.567  13.456
47047W        W 6792  10.837  13.728  13.866
47048W        W 6793  27.176  40.874   1.223
47049W        W 6794  37.410  29.065   2.864
47050W        W 6795  16.664  13.774  11.549
47051W        W 6796  33.047  27.642  12.040
47052W        W 6797   4.334  12.315   1.265
47053W        W 6798  11.831  17.696  14.280
47054W        W 6799  29.569  18.648  10.961
47055W        W 6800  23.701  23.118   4.173
47056W        W 6801  21.219  26.151  10.988
47057W        W 6802  24.038  37.513  12.866
47058W        W 6803   4.246  24.045  11.885
47059W        W 6804  42.940  38.832   2.717
47060W        W 6805  17.703  26.099   1.793
47061W        W 6806  15.284  44.288   3.762
47062W        W 6807  34.011   2.941   0.874
47063W        W 6808  30.417   3.275   0.303
47064W        W 6809   9.343  28.025   4.305
47065W        W 6810   3.720   9.268   3.253
47066W        W 6811  27.086  11.337  14.773
47067W        W 6812  39.943   3.793   2.400
47068W        W 6813  10.634  17.607   3.375
47069W        W 6814  26.997  29.077   0.968
47070W        W 6815   3.287  33.599  11.508
47071W        W 6816  27.470  17.575   4.598
47072W        W 6817  34.106  38.896   2.222
47073W        W 6818  22.030  14.690  13.878
47074W        W 6819  38.890   4.221   0.347
47075W        W 6820  10.161  33.595  10.617
47076W        W 6821   0.818  31.630   2.280
47077W        W 6822  24.539  27.164  12.512
47078W        W 6823  27.177  15.091  10.477
47079W        W 6824  14.667   9.305  14.438
47080W        W 6825  44.832  27.146  12.079
47081W        W 6826  33.451  33.956   0.733
47082W        W 6827  17.561  19.093  13.026
47083W        W 6828  22.161  36.065   1.826
47084W        W 6829  25.047  28.655   2.289
47085W        W 6830  19.063  21.720  10.888
47086W        W 6831  24.525  12.642  10.910
47087W        W 6832  13.292  24.540  13.878
47088W        W 6833   6.209  22.563   2.691
47089W        W 6834  11.775  38.495  14.952
47090W        W 6835   2.461  15.307  14.957
47091W        W 6836  33.409  21.120   1.756
47092W        W 6837  31.434  33.013  12.045
47093W        W 6838  27.668  33.540   4.124
47094W        W 6839  11.230  28.961  10.470
47095W        W 6840  29.940  28.098   4.258
47096W        W 6841  13.329  10.741   2.863
47097W        W 6842  37.434  24.709  14.884
47098W        W 6843   5.861   0.908  11.460
47099W        W 6844   1.950  26.150  10.495
47100W        W 6845  23.635  26.627   3.804
47101W        W 6846  10.640  43.497  14.943
47102W        W 6847  43.791  36.449   4.790
47103W        W 6848  38.486   8.753   1.239
47104W        W 6849   2.332  43.339  12.555
47105W        W 6850  26.051  17.192  14.423
47106W        W 6851  30.581  40.014  13.476
47107W        W 6852   8.725  24.031  10.492
47108W        W 6853  37.896  10.878  11.106
47109W        W 6854  39.000  14.678   4.255
47110W        W 6855  29.059  26.638   2.233
47111W        W 6856  35.987  30.924   2.261
47112W        W 6857  10.770  31.142  13.321
47113W        W 6858  22.228  43.282   1.907
47114W        W 6859  24.056   3.866   2.872
47115W        W 6860  33.557  11.831   3.288
47116W        W 6861  20.031  38.428  13.337
47117W        W 6862   8.714  33.568   0.882
47118W        W 6863   8.303   7.869  14.914
47119W        W 6864   2.459  10.791  14.311
47120W        W 6865   7.239  34.437  14.396
47121W        W 6866  35.017  43.888  12.930
47122W        W 6867  15.128   8.803   5.164
47123W        W 6868  10.246  23.636   3.791
47124W        W 6869  26.584  44.424  14.890
47125W        W 6870  26.665  21.124  10.613
47126W        W 6871  21.692   9.724   0.761
47127W        W 6872   4.313   4.392   2.288
47128W        W 6873   0.837  21.750  11.578
47129W        W 6874  23.679  43.515  13.930
47130W        W 6875   9.198  19.095  13.022
47131W        W 6876  20.633  34.882  12.530
47132W        W 6877  15.288  39.015  10.013
47133W        W 6878   1.248  16.577  12.539
47134W        W 6879  31.506  24.543   3.277
47135W        W 6880  23.503  38.493   2.739
47136W        W 6881  17.282  35.413   1.736
47137W        W 6882  36.068  31.529  10.636
47138W        W 6883  26.131  36.882   0.421
47139W        W 6884  19.155  10.671  12.574
47140W        W 6885   6.184  19.592  13.352
47141W        W 6886   7.361  11.281   2.275
47142W        W 6887  43.362   7.711   3.703
47143W        W 6888   5.402  20.553  10.528
47144W        W 6889  20.642  36.539  14.515
47145W        W 6890  18.559  40.415   1.301
47146W        W 6891  13.251   7.854  11.950
47147W        W 6892   3.712  20.175  10.531
47148W        W 6893  27.047  20.581   4.774
47149W        W 6894  34.437  31.523  14.986
47150W        W 6895  44.335  16.309   1.212
47151W        W 6896   6.399  17.274  11.128
47152W        W 6897  29.127  13.641   3.342
47153W        W 6898  29.160  15.661   4.314
47154W        W 6899  15.586  17.625  11.010
47155W        W 6900  44.462  25.076   3.690
47156W        W 6901  22.124  22.081   3.263
47157W        W 6902   8.351  39.031  10.535
47158W        W 6903  41.883   4.894   4.236
47159W        W 6904  41.296  40.887  14.978
47160W        W 6905  31.632   1.800  11.904
47161W        W 6906  35.564   2.323  12.568
47162W        W 6907  17.111  18.671  14.029
47163W        W 6908   2.228  23.525   4.747
47164W        W 6909  20.546  40.938  13.980
47165W        W 6910  20.561  33.894  11.989
47166W        W 6911   5.693   8.676   0.257
47167W        W 6912  13.647   3.735  10.911
47168W        W 6913  35.861  21.023   0.275
47169W        W 6914  18.189  35.045  11.985
47170W        W 6915  16.728  11.370   1.827
47171W        W 6916  43.316  21.741   4.810
47172W        W 6917  12.128   4.401   4.335
47173W        W 6918  11.786  39.875  13.921
47174W        W 6919  33.620  21.020   1.283
47175W        W 6920  12.315  17.667   4.800
47176W        W 6921  24.209  18.697  11.102
47177W        W 6922  26.148  35.443   1.881
47178W        W 6923  41.029  16.710   0.399
47179W        W 6924   4.231  43.850   0.737
47180W        W 6925  14.301  17.638   0.355
47181W        W 6926  36.903   9.656   1.285
47182W        W 6927  42.785  37.556   1.420
47183W        W 6928  16.591   1.734   0.401
47184W        W 6929  26.137   1.882   3.264
47185W        W 6930  35.103  33.081   3.726
47186W        W 6931  39.314  24.590   3.243
47187W        W 6932  21.197  32.617  11.903
47188W        W 6933  42.890  39.358  10.963
47189W        W 6934  23.113  41.981  10.954
47190W        W 6935   4.806  39.329   9.993
47191W        W 6936  29.966  31.520  13.357
47192W        W 6937  31.500  22.704  13.433
47193W        W 6938  18.723  42.384   2.409
47194W        W 6939  32.489  41.866   0.811
47195W        W 6940  26.019  11.698  11.471
47196W        W 6941  44.999  25.107   2.826
47197W        W 6942   1.952   8.791  13.810
47198W        W 6943  25.131  44.260   0.274
47199W        W 6944  15.104   9.654   4.118
47200W        W 6945  31.616   6.811   0.813
47201W        W 6946  37.904  23.630  13.051
47202W        W 6947  19.050   8.887   3.369
47203W        W 6948  43.949  31.916   2.903
47204W        W 6949  37.421  17.105  11.523
47205W        W 6950  44.375  41.832  13.395
47206W        W 6951  21.201  16.110  14.463
47207W        W 6952  15.183  22.647  13.882
47208W        W 6953  20.542  13.688  12.912
47209W        W 6954  24.714  31.941  11.463
47210W        W 6955  24.139  12.621   1.784
47211W        W 6956  43.342  17.222   3.642
47212W        W 6957   6.391  22.571  13.388
47213W        W 6958   2.450  14.759   4.349
47214W        W 6959  31.900  38.956  13.442
47215W        W 6960  24.176  40.947   2.689
47216W        W 6961   1.863   9.810   3.364
47217W        W 6962  30.642   4.718  12.419
47218W        W 6963  24.119  41.356   3.366
47219W        W 6964   1.469  35.488   5.800
47220W        W 6965   0.272  14.696  12.905
47221W        W 6966   6.915  34.962  14.343
47222W        W 6967  17.149  34.083   1.806
47223W        W 6968  43.392   4.444  14.488
47224W        W 6969   1.351  39.056   5.198
47225W        W 6970   3.904  36.928   5.774
47226W        W 6971  10.366  26.100   0.757
47227W        W 6972  38.377   4.704  12.076
47228W        W 6973  35.510   7.358   3.325
47229W        W 6974   5.430  27.046  11.384
47230W        W 6975  28.015  18.762   0.411
47231W        W 6976   5.337  19.108   1.268
47232W        W 6977   5.401  39.951   3.663
47233W        W 6978  26.968  26.148  10.491
47234W        W 6979  35.974  23.548   2.256
47235W        W 6980   8.666  11.861   0.857
47236W        W 6981  10.816  24.604   0.799
47237W        W 6982  38.336  21.613  12.908
47238W        W 6983  22.067  24.078   0.406
47239W        W 6984  12.174  44.925   1.434
47240W        W 6985  39.062  13.743   2.823
47241W        W 6986  28.452   7.332  14.821
47242W        W 6987  38.075  17.188  12.535
47243W        W 6988  25.156   7.783   4.741
47244W        W 6989   2.844  26.163   4.649
47245W        W 6990  10.159  40.046   4.195
47246W        W 6991  42.943   5.802   3.830
47247W        W 6992  11.624  36.040   2.778
47248W        W 6993  33.485  12.323  12.919
47249W        W 6994  20.202   7.807   2.307
47250W        W 6995  44.992  36.078   0.388
47251W        W 6996  29.154   3.840   2.244
47252W        W 6997  41.402  18.078  12.828
47253W        W 6998  18.657  16.163  14.816
47254W        W 6999  25.569  31.922   0.389
47255W        W 7000   7.733  30.573  10.946
47256W        W 7001  44.911  32.503   0.822
47257W        W 7002  31.033  44.011  10.974
47258W        W 7003  12.313  17.757  14.802
47259W        W 7004  21.252  20.629   3.286
47260W        W 7005  21.662   2.286  13.328
47261W        W 7006  38.979  23.716  14.009
47262W        W 7007  43.419  25.548   4.639
47263W        W 7008  39.418  17.750  14.919
47264W        W 7009  40.421  26.526   1.275
47265W        W 7010  30.102  36.506   2.732
47266W        W 7011  32.918  11.643   0.393
47267W        W 7012  27.556  19.603   3.838
47268W        W 7013   3.741  35.443  13.811
47269W        W 7014   3.425   2.380  14.002
47270W        W 7015  31.467  12.270   0.326
47271W        W 7016  16.774  30.563  13.841
47272W        W 7017  31.625  31.946  12.537
47273W        W 7018  38.482  10.746   4.226
47274W        W 7019  29.458  12.707  12.392
47275W        W 7020  22.707  39.470   3.163
47276W        W 7021  21.218   0.845   5.704
47277W        W 7022  36.021  41.961   3.657
47278W        W 7023  40.043   1.241   4.774
47279W        W 7024  23.061  15.199  12.454
47280W        W 7025  14.698  33.059  14.300
47281W        W 7026  41.377   0.383   2.685
47282W        W 7027  38.926  42.499   0.914
47283W        W 7028  19.040  16.585  10.428
47284W        W 7029  14.629  40.341  13.399
47285W        W 7030  16.121  34.868  14.365
47286W        W 7031  38.978  33.577   0.460
47287W        W 7032  25.596   6.385  13.950
47288W        W 7033  23.150  32.546  13.437
47289W        W 7034  39.891  41.305   3.203
47290W        W 7035  23.640   5.394  13.833
47291W        W 7036  23.030  37.417   2.310
47292W        W 7037  20.218  18.736  11.030
47293W        W 7038  13.636  10.194   1.892
47294W        W 7039  19.228  24.698   4.303
47295W        W 7040  23.239  26.951  11.400
47296W        W 7041  41.476   8.281  11.383
47297W        W 7042  38.826  14.684  14.932
47298W        W 7043  14.128  44.493   0.934
47299W        W 7044   2.453  19.648   0.411
47300W        W 7045   7.320   1.891   4.159
47301W        W 7046   4.308  21.622  10.519
47302W        W 7047   0.276   1.411   4.690
47303W        W 7048  35.521  37.562  11.074
47304W        W 7049   2.854   8.216  12.919
47305W        W 7050  17.698  27.040   1.308
47306W        W 7051  14.217  26.203  10.566
47307W        W 7052  42.366  20.550   1.427
47308W        W 7053   0.345  13.795   3.380
47309W        W 7054  40.365  13.734  13.544
47310W        W 7055  30.916  18.129   0.862
47311W        W 7056  18.591  20.109   3.244
47312W        W 7057  24.604   9.241  11.545
47313W        W 7058  17.781  35.100   4.312
47314W        W 7059  28.127  21.159  10.015
47315W        W 7060  43.782  30.436   2.667
47316W        W 7061  32.564  13.631  10.910
47317W        W 7062   9.342  30.050   1.416
47318W        W 7063  41.326   9.766   3.663
47319W        W 7064  28.940  41.981   0.465
47320W        W 7065  25.162  37.497  11.048
47321W        W 7066  21.660  27.603  10.522
47322W        W 7067   5.405  20.195   3.310
47323W        W 7068  19.638   5.204   0.401
47324W        W 7069   8.712  32.501  13.040
47325W        W 7070  12.815   2.723   0.259
47326W        W 7071  20.077  23.160   3.682
47327W        W 7072  14.123  30.975   4.751
47328W        W 7073   6.270  15.793  11.051
47329W        W 7074  15.795   0.405  14.960
47330W        W 7075  36.921  14.288   3.263
47331W        W 7076  34.530  13.740   0.888
47332W        W 7077  37.054   9.275   4.679
47333W        W 7078  21.116   4.378  12.564
47334W        W 7079  36.405  43.885   3.284
47335W        W 7080  20.593  19.223  12.466
47336W        W 7081  26.573  32.120   2.702
47337W        W 7082  26.508  22.585   3.742
47338W        W 7083  21.017   4.253  14.290
47339W        W 7084  44.754   2.778   0.872
47340W        W 7085   9.319  14.733  11.507
47341W        W 7086   9.674  26.694   4.117
47342W        W 7087  10.328  35.481  14.310
47343W        W 7088  16.075  36.987   2.694
47344W        W 7089  16.159   5.905  12.835
47345W        W 7090  23.985  27.596  11.889
47346W        W 7091  28.582  22.146   4.347
47347W        W 7092   8.353  23.085  14.810
47348W        W 7093  42.881  16.689   2.814
47349W        W 7094  42.515  22.624  14.328
47350W        W 7095   6.690  40.310  14.864
47351W        W 7096   5.271  17.654   1.699
47352W        W 7097  12.796  23.231   3.153
47353W        W 7098   9.341  40.995  10.520
47354W        W 7099   1.257  16.581  11.973
47355W        W 7100  27.188  13.163  10.618
47356W        W 7101  22.649  17.774  11.572
47357W        W 7102   3.254  24.210   5.248
47358W        W 7103  20.065   2.310   0.827
47359W        W 7104  36.916   7.677  11.073
47360W        W 7105  11.836   5.353   2.396
47361W        W 7106   3.237  13.602   1.317
47362W        W 7107  37.378  39.867  13.858
47363W        W 7108  11.274  38.411   1.400
47364W        W 7109  34.110  16.107  10.934
47365W        W 7110  42.020  42.826   0.309
47366W        W 7111   2.235  35.104  12.995
47367W        W 7112   0.439  16.777   2.210
47368W        W 7113  22.167  44.395   3.696
47369W        W 7114  28.551   0.488   0.428
47370W        W 7115  32.124  11.311   2.362
47371W        W 7116  37.453  28.143  11.930
47372W        W 7117   0.439  29.937  11.452
47373W        W 7118   1.362  16.288  10.599
47374W        W 7119  24.709  21.752  12.904
47375W        W 7120  18.659  25.521  13.862
47376W        W 7121   2.421  44.886   2.368
47377W        W 7122  43.969  16.802  14.401
47378W        W 7123   0.288   1.309   2.716
47379W        W 7124   7.721  31.641   4.690
47380W        W 7125  24.599   3.412  10.906
47381W        W 7126  15.161  41.438   3.353
47382W        W 7127   4.778  28.087   3.772
47383W        W 7128  20.186  14.233  14.331
47384W        W 7129  40.896  42.788  14.476
47385W        W 7130  15.297  42.324  13.364
47386W        W 7131  41.368  35.357   0.826
47387W        W 7132  19.747  37.577  11.543
47388W        W 7133  19.282  34.963   1.871
47389W        W 7134  38.945  22.546   1.432
47390W        W 7135  40.927   4.212  14.776
47391W        W 7136  36.427  20.235  12.489
47392W        W 7137  10.280  31.079  14.987
47393W        W 7138  44.007  29.972  12.038
47394W        W 7139  13.287  22.174  13.383
47395W        W 7140  12.327  11.173   0.800
47396W        W 7141  22.725   8.204  14.997
47397W        W 7142  39.927   0.440  13.513
47398W        W 7143  31.913  23.167  10.450
47399W        W 7144  44.503  34.581  12.042
47400W        W 7145   0.789  20.590   4.345
47401W        W 7146  38.563  36.949  13.519
47402W        W 7147   2.294  27.629   2.335
47403W        W 7148  17.175  42.013  14.496
47404W        W 7149  41.509  23.657  13.336
47405W        W 7150  15.159   6.413  14.878
47406W        W 7151   2.435  11.157   0.918
47407W        W 7152  40.411  36.013   5.123
47408W        W 7153  33.882  34.406  12.522
47409W        W 7154  41.854   7.232  11.584
47410W        W 7155   3.455   3.746  14.286
47411W        W 7156  37.493  15.651  13.962
47412W        W 7157   2.722  13.659   2.742
47413W        W 7158  44.267  10.322  13.447
47414W        W 7159  12.300  34.506   3.241
47415W        W 7160  37.870  26.134   0.879
47416W        W 7161  15.224  17.284  10.955
47417W        W 7162  37.850   8.246   4.226
47418W        W 7163  24.721  27.067  11.910
47419W        W 7164   7.355  18.681  14.946
47420W        W 7165  41.897  41.298   0.825
47421W        W 7166   3.859  36.029   3.633
47422W        W 7167  35.422  18.281   0.910
47423W        W 7168   1.951  28.102  11.892
47424W        W 7169   0.786  10.875  13.498
47425W        W 7170  38.042  38.343  11.978
47426W        W 7171  35.900  34.091   4.719
47427W        W 7172  17.137  25.183  14.816
47428W        W 7173   3.318  40.902   0.441
47429W        W 7174   1.285   4.790   4.274
47430W        W 7175  29.991  15.292   0.939
47431W        W 7176  17.739  11.332  13.890
47432W        W 7177   4.811   7.172   4.713
47433W        W 7178  35.962  28.009   0.825
47434W        W 7179  10.759  17.303  12.387
47435W        W 7180  12.685  14.220   4.770
47436W        W 7181  21.615  29.099  11.970
47437W        W 7182  36.907   3.828  11.982
47438W        W 7183   0.399   0.434   3.268
47439W        W 7184  23.701  21.710  14.773
47440W        W 7185   0.811  27.635   2.664
47441W        W 7186  14.114  11.316   4.809
47442W        W 7187  39.919  39.001   3.338
47443W        W 7188  21.689  37.032   0.796
47444W        W 7189  10.813  44.889   0.286
47445W        W 7190  32.526  33.522   4.277
47446W        W 7191  40.480  13.118   0.348
47447W        W 7192  31.570  31.006  11.961
47448W        W 7193  19.766  42.872   3.322
47449W        W 7194  19.081  27.985  12.472
47450W        W 7195  44.424   5.704   4.256
47451W        W 7196  38.446  10.356   3.682
47452W        W 7197  23.598  29.617  13.363
47453W        W 7198  14.785   3.925  10.566
47454W        W 7199  18.760  43.946  11.080
47455W        W 7200   2.822  16.189   4.706
47456W        W 7201  44.334  24.147  12.574
47457W        W 7202  41.877  27.055   2.404
47458W        W 7203  24.054  23.548  12.351
47459W        W 7204   9.336  41.529  11.980
47460W        W 7205  33.060  26.489   0.798
47461W        W 7206  19.119  24.566  14.289
47462W        W 7207   5.386  38.420   1.263
47463W        W 7208  25.121  26.695  12.554
47464W        W 7209   5.352   2.442  12.517
47465W        W 7210  22.110  25.539   3.267
47466W        W 7211   0.460  44.858  11.938
47467W        W 7212  41.948  17.149  11.433
47468W        W 7213  22.099   5.902  14.461
47469W        W 7214  23.720  29.005   0.321
47470W        W 7215  15.127  34.510   2.188
47471W        W 7216  26.987  41.941  10.464
47472W        W 7217  25.542  17.193  13.495
47473W        W 7218  33.472  35.542   3.671
47474W        W 7219  19.657  28.031  12.832
47475W        W 7220  18.223  16.159   0.892
47476W        W 7221  26.164  42.911  14.417
47477W        W 7222  34.112  29.008   4.328
47478W        W 7223  12.690  14.285   5.204
47479W        W 7224   3.801  23.136  12.526
47480W        W 7225  37.496  27.507  14.999
47481W        W 7226  33.914   5.735  13.046
47482W        W 7227  21.599   8.685   1.237
47483W        W 7228  33.492  38.945   0.950
47484W        W 7229   3.459   9.860  12.409
47485W        W 7230  43.807  34.453   4.138
47486W        W 7231  19.277  25.007   3.328
47487W        W 7232   4.210  44.880  10.536
47488W        W 7233   2.469  39.050   0.434
47489W        W 7234   3.720   1.407   4.685
47490W        W 7235  34.499  34.508   4.829
47491W        W 7236  33.894  30.450   4.270
47492W        W 7237  29.520  39.465  11.124
47493W        W 7238  43.948   8.723   4.292
47494W        W 7239  27.161  37.357   4.616
47495W        W 7240  28.528   6.910   3.385
47496W        W 7241  38.014   1.367   1.446
47497W        W 7242  30.573   2.786  14.832
47498W        W 7243  16.170  39.524   4.600
47499W        W 7244  11.816  26.059  11.592
47500W        W 7245   6.802  19.039   3.753
47501W        W 7246  21.123  26.484  12.833
47502W        W 7247  38.350   6.425  14.031
47503W        W 7248  32.451   7.874  12.493
47504W        W 7249  34.543  20.764  13.379
47505W        W 7250  38.041  40.330   2.725
47506W        W 7251  26.997   5.293  12.438
47507W        W 7252  17.753  34.413   4.831
47508W        W 7253   4.716  28.119   2.332
47509W        W 7254  13.180  31.508   2.202
47510W        W 7255   7.693  44.420  12.386
47511W        W 7256  22.556   6.346  13.976
47512W        W 7257  43.476  15.187  11.590
47513W        W 7258  31.619   7.859   0.371
47514W        W 7259  16.713  12.224  11.508
47515W        W 7260  26.558   1.466  12.853
47516W        W 7261  10.805   2.728   4.642
47517W        W 7262   8.299  11.187   0.322
47518W        W 7263  31.053  16.609  14.873
47519W        W 7264  11.858  38.829  14.405
47520W        W 7265   0.487  28.528  14.418
47521W        W 7266  12.736  11.137   0.745
47522W        W 7267   1.399  37.008   3.309
47523W        W 7268  39.898   4.763  10.097
47524W        W 7269   8.287  30.123   4.711
47525W        W 7270   8.833  23.205   0.956
47526W        W 7271  34.878   5.342   0.941
47527W        W 7272  41.934  34.551   4.654
47528W        W 7273   8.290   1.399   4.739
47529W        W 7274  41.967  39.421   0.804
47530W        W 7275  39.342  26.578   3.631
47531W        W 7276  25.597  12.614   4.208
47532W        W 7277  32.023   3.860   3.665
47533W        W 7278  19.676   7.858  10.617
47534W        W 7279  22.219  41.512  11.468
47535W        W 7280  30.468   1.449   4.738
47536W        W 7281   3.366   7.868   1.921
47537W        W 7282   7.791   7.703  12.454
47538W        W 7283  22.030   7.198   2.232
47539W        W 7284   9.366  26.164   1.260
47540W        W 7285  17.790  28.033  12.889
47541W        W 7286   2.935  10.747  11.558
47542W        W 7287  13.221  15.187   4.735
47543W        W 7288  19.584  32.954   0.377
47544W        W 7289  34.370  37.499   3.252
47545W        W 7290  38.441  26.192   2.765
47546W        W 7291  28.488  32.033   1.760
47547W        W 7292  24.603   9.853   4.655
47548W        W 7293  31.917  32.456  12.921
47549W        W 7294  39.856   9.225   2.747
47550W        W 7295  42.469  24.557   3.671
47551W        W 7296  35.404   7.896  12.414
47552W        W 7297  34.565   8.728  10.599
47553W        W 7298  39.811  39.882  12.085
47554W        W 7299  13.137  19.056  11.399
47555W        W 7300  21.629  16.159  10.476
47556W        W 7301  36.006   9.679   1.292
47557W        W 7302  38.447  15.699   2.680
47558W        W 7303  41.881  23.221   2.855
47559W        W 7304  40.307   6.774  14.774
47560W        W 7305  16.680  32.075   2.878
47561W        W 7306  36.352  33.909   4.742
47562W        W 7307  28.469  44.428   3.220
47563W        W 7308  22.684  22.607   2.740
47564W        W 7309  30.650  14.745   3.243
47565W        W 7310  26.524  18.281  12.380
47566W        W 7311  30.441  11.360  10.443
47567W        W 7312  17.173  44.785   4.776
47568W        W 7313  38.411  41.023  14.358
47569W        W 7314  43.309  41.399   2.705
47570W        W 7315  29.075  32.959  12.048
47571W        W 7316  20.155  13.248   3.701
47572W        W 7317  12.252  38.003  14.367
47573W        W 7318  11.676  30.089  13.382
47574W        W 7319  13.758  43.799   3.731
47575W        W 7320  12.807  26.519   1.241
47576W        W 7321  10.155  25.675  10.552
47577W        W 7322  26.556  25.642   0.287
47578W        W 7323  40.344  25.004  11.886
47579W        W 7324   1.747  34.421   1.341
47580W        W 7325  27.146  40.323  14.787
47581W        W 7326  24.214  43.509  13.897
47582W        W 7327  42.519  17.261  14.855
47583W        W 7328   5.432  32.073   3.724
47584W        W 7329  20.182  32.957   2.385
47585W        W 7330   8.268  33.884  10.591
47586W        W 7331  36.917  15.256  12.937
47587W        W 7332   4.418  42.020   2.223
47588W        W 7333  13.692  38.002   2.680
47589W        W 7334  20.724   2.918   2.407
47590W        W 7335  32.953  41.336   2.264
47591W        W 7336   2.304  22.512   4.144
47592W        W 7337  27.057   0.984  12.511
47593W        W 7338  39.485  37.994  14.996
47594W        W 7339  17.600   3.324  10.426
47595W        W 7340  23.514  34.444   4.689
47596W        W 7341  20.531  13.301  11.443
47597W        W 7342  28.946  22.048   4.234
47598W        W 7343  42.778  27.029  10.894
47599W        W 7344   4.249  40.318  14.396
47600W        W 7345   4.844   9.662  14.847
47601W        W 7346  37.858  24.608   2.230
47602W        W 7347  19.700  22.250   1.371
47603W        W 7348  38.408  29.121  12.847
47604W        W 7349  12.192  23.653   2.714
47605W        W 7350  38.916  10.353   2.326
47606W        W 7351  27.972   0.285  14.467
47607W        W 7352   7.406  32.117  13.062
47608W        W 7353  39.870  22.668   0.385
47609W        W 7354  26.163  30.566  10.974
47610W        W 7355  35.906  34.884  11.994
47611W        W 7356  44.817  18.232  13.872
47612W        W 7357  29.631  26.517   0.785
47613W        W 7358   5.379  34.530  11.508
47614W        W 7359  44.385   9.694   2.879
47615W        W 7360   1.970  16.802   5.098
47616W        W 7361  15.611  30.989   0.838
47617W        W 7362  42.864  20.717  11.387
47618W        W 7363  33.486   1.830  11.914
47619W        W 7364  40.392  26.682  13.325
47620W        W 7365   3.294   0.256   1.282
47621W        W 7366  44.477  42.854  10.907
47622W        W 7367  27.479  35.912   4.198
47623W        W 7368   9.643  21.213   4.161
47624W        W 7369   1.959  40.881   1.241
47625W        W 7370  29.437  25.492  11.960
47626W        W 7371   2.465  28.961  14.839
47627W        W 7372  29.581  17.606  10.013
47628W        W 7373  13.647  24.623  11.963
47629W        W 7374   7.386   1.836   3.288
47630W        W 7375  22.133  15.582   3.383
47631W        W 7376   2.920  18.091   1.763
47632W        W 7377  27.665  44.462   1.385
47633W        W 7378  13.717  36.990  13.485
47634W        W 7379   4.427  32.964  13.463
47635W        W 7380   5.874   8.793  13.309
47636W        W 7381  23.232  15.093  14.866
47637W        W 7382  18.257  19.151   1.398
47638W        W 7383   4.811   4.229   0.342
47639W        W 7384  30.460  12.261  12.085
47640W        W 7385  14.795  27.190  13.911
47641W        W 7386  20.110  27.176   1.833
47642W        W 7387  23.528  41.462   3.377
47643W        W 7388  27.590  44.956   4.815
47644W        W 7389  30.528  12.853   1.322
47645W        W 7390  34.528  35.405  12.036
47646W        W 7391  13.710  17.622   0.423
47647W        W 7392  11.205  16.629  13.819
47648W        W 7393  22.744  37.424  10.578
47649W        W 7394  25.583   7.669  14.812
47650W        W 7395  20.153   3.901   0.318
47651W        W 7396  15.083   2.736   4.780
47652W        W 7397  19.662  36.996   3.204
47653W        W 7398  15.717  36.507  13.904
47654W        W 7399  22.741  37.952   1.404
47655W        W 7400   5.837  16.277   3.804
47656W        W 7401  15.159  34.541  10.157
47657W        W 7402   0.939  18.679  13.049
47658W        W 7403  26.956  27.166   2.710
47659W        W 7404  22.654  27.633  13.509
47660W        W 7405  27.047  39.027  12.939
47661W        W 7406  30.153  12.282  11.989
47662W        W 7407  26.654   3.891  12.545
47663W        W 7408  18.705  32.604   2.726
47664W        W 7409  21.216  36.947  10.994
47665W        W 7410  10.764  40.524  12.360
47666W        W 7411  44.311  24.563  12.036
47667W        W 7412   7.672  14.651  11.452
47668W        W 7413   3.939  17.209  13.816
47669W        W 7414   2.414  11.801  11.110
47670W        W 7415  19.130   9.235   4.804
47671W        W 7416  13.336  34.098   5.174
47672W        W 7417  34.594  27.013  10.914
47673W        W 7418   8.738   5.268  11.545
47674W        W 7419  42.371  15.105  14.770
47675W        W 7420   0.803  23.535   4.238
47676W        W 7421  26.643  29.939   3.848
47677W        W 7422  12.214  32.587   4.687
47678W        W 7423  21.604  15.319  14.383
47679W        W 7424  41.410  32.093  13.546
47680W        W 7425  14.810   2.908  14.478
47681W        W 7426  43.465  12.182  12.948
47682W        W 7427   4.760  17.576  14.836
47683W        W 7428  44.909   5.354  14.769
47684W        W 7429  11.134  33.028   3.833
47685W        W 7430  35.455  21.533  11.546
47686W        W 7431   2.299  16.766  12.967
47687W        W 7432  27.538  23.578   4.209
47688W        W 7433  16.612  21.523  12.945
47689W        W 7434  22.252   4.890   1.433
47690W        W 7435  43.948   1.373  13.382
47691W        W 7436  17.623  16.606   3.320
47692W        W 7437  43.007  20.178   5.178
47693W        W 7438  14.308  19.252   3.285
47694W        W 7439  14.692  25.528   1.901
47695W        W 7440  35.878  29.617   3.309
47696W        W 7441   6.206  11.180  14.784
47697W        W 7442  17.776   0.744   0.806
47698W        W 7443  35.933  11.239  12.362
47699W        W 7444  44.776  28.534   0.420
47700W        W 7445  13.254  19.229   4.754
47701W        W 7446   6.312  32.954   4.607
47702W        W 7447  41.446  41.349  11.383
47703W        W 7448  39.331   9.358   3.207
47704W        W 7449   2.318  38.552   3.295
47705W        W 7450  33.547  34.007   3.728
47706W        W 7451  12.296   4.382  12.921
47707W        W 7452  22.687  19.663   3.829
47708W        W 7453  42.856   7.822  12.398
47709W        W 7454  23.586   0.975  10.979
47710W        W 7455  25.199  15.261  11.529
47711W        W 7456  34.383  36.452  14.369
47712W        W 7457  13.631  34.475   0.964
47713W        W 7458  33.595  18.677  14.495
47714W        W 7459  37.065  35.898   3.285
47715W        W 7460  36.027  23.196   4.738
47716W        W 7461  23.995  44.875  11.968
47717W        W 7462  34.098  31.052   0.414
47718W        W 7463  19.587  43.856   4.668
47719W        W 7464  16.670  26.972   4.276
47720W        W 7465  44.342  32.441   1.394
47721W        W 7466  32.577   6.838  11.951
47722W        W 7467   1.335  12.774   2.714
47723W        W 7468  31.076  28.118   0.277
47724W        W 7469  24.131  38.847   0.312
47725W        W 7470  41.934   3.407  10.601
47726W        W 7471  20.251  44.296  10.020
47727W        W 7472   6.283  32.046   2.715
47728W        W 7473  20.226  37.454  11.898
47729W        W 7474  28.948   7.207   2.397
47730W        W 7475  18.648  15.194   1.315
47731W        W 7476  40.929   5.372  14.956
47732W        W 7477  35.006   4.798  10.522
47733W        W 7478  24.654  39.041   4.174
47734W        W 7479  15.320  24.074  13.906
47735W        W 7480   1.897  27.637   2.880
47736W        W 7481  32.980   8.768   4.223
47737W        W 7482  28.552   1.792   4.668
47738W        W 7483  27.946  41.477   3.229
47739W        W 7484   3.358  11.221  14.839
47740W        W 7485   1.972  23.519  13.475
47741W        W 7486  32.139  17.781  10.894
47742W        W 7487  41.883  25.655  10.535
47743W        W 7488  32.964   4.932   0.242
47744W        W 7489   5.698  13.202   3.385
47745W        W 7490   6.390  15.811   1.709
47746W        W 7491  34.383  42.846   4.633
47747W        W 7492  24.667   7.398   2.793
47748W        W 7493  28.942  29.491   2.847
47749W        W 7494  23.145   6.239   2.677
47750W        W 7495  23.051  34.485  10.584
47751W        W 7496  35.381  33.423   0.243
47752W        W 7497  37.448  27.010   0.927
47753W        W 7498  32.903   0.474   4.134
47754W        W 7499  24.048   1.372  10.483
47755W        W 7500  33.947  40.050   4.819
47756W        W 7501  33.038  43.900  13.898
47757W        W 7502  37.900  22.737  12.477
47758W        W 7503  14.681  35.504  14.866
47759W        W 7504  33.031  14.138  13.823
47760W        W 7505  33.428  43.307  11.372
47761W        W 7506   4.282   9.258   0.919
47762W        W 7507   4.785  40.013  14.443
47763W        W 7508  37.370  34.524   0.842
47764W        W 7509  33.404  41.940   3.145
47765W        W 7510  16.619   7.416   0.315
47766W        W 7511  42.967  30.153   3.825
47767W        W 7512  39.412  42.795   4.281
47768W        W 7513  12.361  12.775  13.013
47769W        W 7514  42.867  12.739  11.575
47770W        W 7515  29.473  42.852  11.455
47771W        W 7516   0.961   6.189   1.212
47772W        W 7517  27.084   8.778   0.315
47773W        W 7518  28.972   6.697  11.590
47774W        W 7519  37.844  36.020   0.311
47775W        W 7520  22.140  41.353  14.445
47776W        W 7521  13.655  15.788   0.896
47777W        W 7522  33.015   8.845   4.644
47778W        W 7523  36.519  44.358  12.016
47779W        W 7524   7.289  35.459   1.825
47780W        W 7525  41.870   8.264  14.387
47781W        W 7526  10.265   3.846   0.922
47782W        W 7527  41.002  10.879   0.822
47783W        W 7528  41.491  22.587   1.816
47784W        W 7529  43.453   0.940   2.259
47785W        W 7530  37.576   9.765   2.719
47786W        W 7531  32.076  15.191   1.713
47787W        W 7532  16.720  36.474   0.352
47788W        W 7533  12.227   9.837   0.347
47789W        W 7534   0.981  32.564   2.729
47790W        W 7535  29.477  15.670  14.435
47791W        W 7536   8.254  37.388   3.738
47792W        W 7537  36.030  43.412   3.235
47793W        W 7538  22.056  17.172   2.688
47794W        W 7539   2.924  36.350  12.437
47795W        W 7540  33.929  20.659  14.334
47796W        W 7541  25.669  20.667   2.208
47797W        W 7542  35.859   2.314  12.568
47798W        W 7543  23.496  38.483   4.624
47799W        W 7544   6.692  12.749  13.843
47800W        W 7545  17.654  37.437  12.424
47801W        W 7546   1.739  31.079   0.381
47802W        W 7547  13.759  38.341   0.410
47803W        W 7548  11.160  19.238  13.983
47804W        W 7549  42.396  30.434  14.000
47805W        W 7550  40.890  12.122  11.032
47806W        W 7551  20.709  33.408   2.364
47807W        W 7552  40.307  14.680   0.878
47808W        W 7553   6.683  17.199  13.486
47809W        W 7554  23.665  42.843  13.380
47810W        W 7555  27.583  25.139  13.425
47811W        W 7556  36.483  33.983   0.760
47812W        W 7557   8.273   4.761  13.518
47813W        W 7558  29.062  17.217   4.180
47814W        W 7559  41.876  35.363  14.965
47815W        W 7560  38.009   8.867  10.547
47816W        W 7561  37.873   8.188  10.951
47817W        W 7562   0.812  41.817  11.399
47818W        W 7563  17.302  25.117   2.243
47819W        W 7564  29.503  43.438   1.801
47820W        W 7565   8.710  16.101   0.740
47821W        W 7566  33.443  20.576   0.812
47822W        W 7567   9.775  30.630  14.326
47823W        W 7568  44.322  10.226   3.268
47824W        W 7569   2.265  28.493   0.747
47825W        W 7570  11.860  29.119  14.013
47826W        W 7571  29.007  11.338   4.834
47827W        W 7572  27.079  27.560   1.912
47828W        W 7573  43.854  26.141   3.852
47829W        W 7574  22.609  29.466  12.054
47830W        W 7575  44.773   2.730  12.494
47831W        W 7576   3.931  38.859   3.686
47832W        W 7577  33.535  38.928   3.840
47833W        W 7578  24.491   3.332   2.278
47834W        W 7579   3.916  40.430  13.057
47835W        W 7580   8.332  13.178  11.968
47836W        W 7581  15.668   8.698   0.387
47837W        W 7582  11.868  10.652  12.426
47838W        W 7583  32.540   3.741   3.718
47839W        W 7584  16.135  13.830   1.358
47840W        W 7585  18.654  25.649   2.209
47841W        W 7586  37.403  29.082  10.457
47842W        W 7587  37.446   0.801  14.316
47843W        W 7588   8.698  30.079  14.472
47844W        W 7589   3.234   2.270  14.815
47845W        W 7590   1.301  27.636  11.888
47846W        W 7591  21.704  25.621  14.483
47847W        W 7592  15.596  27.031   1.421
47848W        W 7593  32.547  40.497   2.403
47849W        W 7594  29.639  31.981   3.794
47850W        W 7595  28.990  39.396   2.683
47851W        W 7596  25.568  10.647   4.699
47852W        W 7597  38.504   3.790   3.194
47853W        W 7598   9.180  21.206   3.241
47854W        W 7599  44.009   4.770  13.422
47855W        W 7600  43.374  23.655   0.259
47856W        W 7601  42.830  19.716   4.794
47857W        W 7602  22.183  14.185  14.375
47858W        W 7603  33.564  21.646   4.761
47859W        W 7604  31.558   9.653  14.883
47860W        W 7605   3.459  13.703  14.019
47861W        W 7606  35.540   3.396  12.083
47862W        W 7607   4.240  26.537   3.869
47863W        W 7608   1.837   7.189  11.074
47864W        W 7609   1.796  20.110  11.465
47865W        W 7610  16.303  37.465   2.289
47866W        W 7611  27.562  17.618   3.176
47867W        W 7612   7.769   6.188   5.320
47868W        W 7613  23.607   8.360   4.158
47869W        W 7614  38.561   4.705   4.115
47870W        W 7615  15.823  12.628  14.946
47871W        W 7616  42.979  17.146  14.425
47872W        W 7617  11.774  32.108  11.021
47873W        W 7618  12.355  12.116  10.611
47874W        W 7619  27.113  40.017  11.127
47875W        W 7620  20.148  43.942  11.121
47876W        W 7621  14.098  41.295   3.276
47877W        W 7622  12.631  23.218  12.572
47878W        W 7623  20.174  21.749   3.674
47879W        W 7624  44.469  13.663   1.749
47880W        W 7625  31.551  20.182  14.452
47881W        W 7626  12.676  10.172   1.412
47882W        W 7627  10.177   9.727   0.268
47883W        W 7628  25.480  18.081  10.911
47884W        W 7629  39.041  28.518  10.997
47885W        W 7630   7.884  39.018   1.882
47886W        W 7631   0.379  42.454   1.747
47887W        W 7632  24.206  44.325  10.520
47888W        W 7633   1.301  20.201   0.874
47889W        W 7634  34.903  43.839   2.882
47890W        W 7635  31.573  32.543  11.117
47891W        W 7636   0.309  27.493   1.911
47892W        W 7637   4.865   7.831   4.329
47893W        W 7638  23.160  41.830  10.582
47894W        W 7639  23.146   8.676   4.828
47895W        W 7640   6.362  31.451   2.307
47896W        W 7641   6.829  27.072  12.369
47897W        W 7642  34.024  39.032  11.004
47898W        W 7643  32.988  38.015   4.603
47899W        W 7644  29.561   1.859   0.278
47900W        W 7645  36.501  12.276  14.796
47901W        W 7646  30.617  28.964   2.221
47902W        W 7647  27.449  42.430   1.345
47903W        W 7648  37.046  39.959   4.762
47904W        W 7649   2.240   4.945  14.808
47905W        W 7650  38.570   5.849  14.812
47906W        W 7651   4.821  39.026  10.126
47907W        W 7652  18.631  15.713  13.392
47908W        W 7653   8.819  12.283  11.938
47909W        W 7654  43.394  30.501   0.457
47910W        W 7655  16.602  18.636  10.455
47911W        W 7656  30.577   1.252  12.440
47912W        W 7657  31.946  40.043   1.812
47913W        W 7658   3.437  43.874   2.261
47914W        W 7659   2.286  20.162  13.328
47915W        W 7660  16.623  25.079  11.860
47916W        W 7661  21.169  24.031   0.475
47917W        W 7662  44.934   1.237  14.968
47918W        W 7663  12.357  30.614   2.216
47919W        W 7664   8.816  38.491   3.188
47920W        W 7665  16.087  29.498   3.852
47921W        W 7666  35.082  10.832  14.787
47922W        W 7667   6.742  21.695   0.374
47923W        W 7668  40.433  24.152  14.864
47924W        W 7669  10.799  14.223   1.275
47925W        W 7670  29.668   4.733  14.772
47926W        W 7671  34.040  25.197  14.378
47927W        W 7672  27.574  40.384   2.823
47928W        W 7673  42.394  39.408  12.482
47929W        W 7674   6.370  37.837  11.002
47930W        W 7675   6.231  33.552   5.182
47931W        W 7676  22.247   4.800  12.033
47932W        W 7677  36.865  30.025   3.870
47933W        W 7678  12.623  43.285  10.472
47934W        W 7679  32.997   2.959   3.355
47935W        W 7680  28.031   9.275   1.234
47936W        W 7681  21.238  17.758  10.442
47937W        W 7682   8.277  42.818  10.420
47938W        W 7683  41.013  25.670  12.016
47939W        W 7684  13.639   2.917  14.468
47940W        W 7685   5.301  16.253   0.418
47941W        W 7686  19.642  23.006  13.468
47942W        W 7687  20.677  11.239   1.424
47943W        W 7688  30.447  32.410  13.458
47944W        W 7689   5.899  30.155  13.799
47945W        W 7690  18.747  42.406  14.790
47946W        W 7691  26.083  31.995  12.972
47947W        W 7692   4.224  31.421   4.209
47948W        W 7693  26.594  35.015  12.069
47949W        W 7694   5.385   8.257   0.356
47950W        W 7695  18.204   2.754  12.437
47951W        W 7696   1.882  21.251  11.127
47952W        W 7697   7.307  33.007  11.080
47953W        W 7698   9.835  33.923   3.846
47954W        W 7699  26.134  11.234  14.791
47955W        W 7700  30.938  23.041   4.287
47956W        W 7701  37.035  36.955  14.899
47957W        W 7702   9.873  34.957   4.735
47958W        W 7703   4.928  25.035   0.729
47959W        W 7704  13.251  44.457   4.837
47960W        W 7705  34.069  23.121   5.121
47961W        W 7706  28.960  30.990  10.914
47962W        W 7707  41.410  26.636  14.479
47963W        W 7708  30.502   6.923   3.228
47964W        W 7709   0.475   4.250   0.313
47965W        W 7710  38.494  27.607  11.532
47966W        W 7711  25.517  20.124  11.567
47967W        W 7712   9.185  18.125   3.331
47968W        W 7713   0.325  29.019   2.252
47969W        W 7714  17.151  34.414  12.078
47970W        W 7715   9.883   1.246   3.688
47971W        W 7716  26.208  31.509  14.416
47972W        W 7717  19.093  38.960  14.341
47973W        W 7718   0.832  40.835   0.347
47974W        W 7719   0.850  28.478   5.237
47975W        W 7720  27.527  39.864   1.428
47976W        W 7721   1.953   5.924  14.474
47977W        W 7722  27.942  22.663   0.872
47978W        W 7723  22.233  17.105  11.111
47979W        W 7724  29.633   5.272  14.838
47980W        W 7725  23.575  19.556   1.790
47981W        W 7726   2.310  31.001  13.934
47982W        W 7727  22.658  34.119   3.214
47983W        W 7728  28.041   4.264  13.919
47984W        W 7729   4.357  44.301  10.482
47985W        W 7730   3.900  27.122  12.580
47986W        W 7731  12.744   9.301   4.196
47987W        W 7732  16.785  15.136   2.336
47988W        W 7733  42.473   5.821   0.387
47989W        W 7734  19.568  42.330  11.611
47990W        W 7735   6.680  42.433   0.734
47991W        W 7736  38.490  39.045  11.449
47992W        W 7737  35.108  12.687   5.238
47993W        W 7738  36.511  10.660  12.966
47994W        W 7739  25.695  33.041   2.763
47995W        W 7740   9.865  13.604  14.483
47996W        W 7741  20.711   8.807   2.288
47997W        W 7742  32.397  31.906   0.323
47998W        W 7743  18.127  31.986  14.946
47999W        W 7744  35.892  41.036  13.438
48000W        W 7745  42.880  18.766  10.091
48001W        W 7746  19.625  21.241  13.989
48002W        W 7747  14.287   9.828   3.838
48003W        W 7748  30.643  35.410  13.531
48004W        W 7749   3.737  24.517   0.949
48005W        W 7750   7.709  32.520   0.354
48006W        W 7751  30.965  43.339   2.812
48007W        W 7752   8.379  37.356  11.927
48008W        W 7753  24.178  28.007   1.252
48009W        W 7754   1.876  23.511  13.840
48010W        W 7755  23.627  44.280   2.743
48011W        W 7756   2.725  43.870  11.072
48012W        W 7757  18.752  40.374   1.756
48013W        W 7758   9.670   4.403  12.056
48014W        W 7759   9.341  27.599  11.563
48015W        W 7760  42.957  26.616  14.887
48016W        W 7761  38.371  41.392   3.665
48017W        W 7762  13.780  15.243  11.964
48018W        W 7763   7.739  14.243  10.444
48019W        W 7764  27.094  29.966   9.559
48020W        W 7765  25.691  13.120   0.730
48021W        W 7766  40.798   3.460  13.037
48022W        W 7767  22.081   8.763   3.209
48023W        W 7768  21.524  39.410  13.412
48024W        W 7769  41.787  18.599  11.995
48025W        W 7770  38.944  32.973  12.571
48026W        W 7771  21.514  24.638  12.485
48027W        W 7772   8.694  39.999   2.408
48028W        W 7773  35.858  12.639  11.511
48029W        W 7774  36.400  16.160  13.350
48030W        W 7775  43.794   6.689  14.408
48031W        W 7776   5.348  15.141   2.396
48032W        W 7777  38.513   4.769  10.557
48033W        W 7778  41.880   6.390   4.656
48034W        W 7779  10.312  17.784  10.911
48035W        W 7780   9.238   8.711   5.103
48036W        W 7781   5.840  10.687  12.069
48037W        W 7782  16.137  22.072   4.216
48038W        W 7783  14.111  24.565   0.921
48039W        W 7784  17.164  44.966   3.287
48040W        W 7785  20.626  23.081  12.974
48041W        W 7786  14.169   1.376  10.418
48042W        W 7787  43.915  26.611  14.991
48043W        W 7788  29.551  44.835  10.522
48044W        W 7789   8.846  20.221   3.370
48045W        W 7790  23.680   7.177   2.797
48046W        W 7791  13.324   0.972  11.497
48047W        W 7792   7.208  15.611  12.542
48048W        W 7793  35.983  12.245   4.163
48049W        W 7794  18.207  36.568  11.934
48050W        W 7795   8.873   8.701   4.788
48051W        W 7796  17.267  26.995  11.526
48052W        W 7797  38.965  33.607  14.428
48053W        W 7798  32.040  28.492  13.404
48054W        W 7799   7.345   3.406  12.060
48055W        W 7800  31.145  30.916   5.219
48056W        W 7801  39.835   8.838   4.223
48057W        W 7802  26.649  13.844   1.427
48058W        W 7803  29.462  30.571   1.786
48059W        W 7804  38.523  11.700   1.417
48060W        W 7805  18.554   8.244  10.496
48061W        W 7806   1.939   4.212   2.902
48062W        W 7807  42.394  24.686  13.947
48063W        W 7808   2.832  19.162  13.352
48064W        W 7809   5.437   0.316   4.604
48065W        W 7810   4.389   4.877   0.327
48066W        W 7811   3.754   4.325  10.644
48067W        W 7812  40.987  12.819   1.882
48068W        W 7813  26.193  11.279  11.106
48069W        W 7814  25.605   2.268   4.328
48070W        W 7815   3.794  31.145  12.861
48071W        W 7816  13.702  37.335  11.535
48072W        W 7817  25.546   0.831  11.006
48073W        W 7818  34.459  10.170   4.799
48074W        W 7819  29.511  22.237  10.632
48075W        W 7820  21.538  37.065  10.458
48076W        W 7821  34.922  42.905   4.227
48077W        W 7822  14.678   7.343  12.989
48078W        W 7823  42.853   1.806   1.770
48079W        W 7824  43.874  28.938   3.729
48080W        W 7825  44.948  31.138   0.354
48081W        W 7826  23.524  32.937   9.951
48082W        W 7827  43.390  36.011  10.473
48083W        W 7828  13.719  41.380  13.870
48084W        W 7829  37.022  40.949  10.939
48085W        W 7830   0.418  18.172   2.748
48086W        W 7831  18.785  15.579   2.228
48087W        W 7832  42.294  26.654   0.853
48088W        W 7833  26.188  33.116   4.808
48089W        W 7834  20.044  26.044   3.639
48090W        W 7835  42.970  42.477   4.347
48091W        W 7836  12.338  30.155  11.445
48092W        W 7837  25.471  19.777   0.875
48093W        W 7838  38.977  40.513   3.644
48094W        W 7839  24.050  14.232   1.885
48095W        W 7840  25.104  39.029  14.803
48096W        W 7841  21.592  29.919   2.293
48097W        W 7842  42.874  17.077  12.958
48098W        W 7843  20.192   7.873  14.466
48099W        W 7844  35.940  39.540  13.963
48100W        W 7845  13.284  22.530  12.576
48101W        W 7846  10.152  29.996  10.029
48102W        W 7847  34.566  40.434   2.186
48103W        W 7848  36.504  28.681   0.837
48104W        W 7849   6.698  10.790  14.836
48105W        W 7850  27.521  38.030  14.796
48106W        W 7851  14.123   8.860   0.954
48107W        W 7852  33.416  25.586   4.634
48108W        W 7853  16.073  44.327   0.272
48109W        W 7854  19.636  35.555  12.063
48110W        W 7855  15.654  22.625  10.919
48111W        W 7856  31.936  34.009  12.992
48112W        W 7857  12.292  19.587   0.732
48113W        W 7858  19.246   2.903   3.178
48114W        W 7859  24.567  19.761   3.178
48115W        W 7860  34.396  15.140  13.328
48116W        W 7861  16.141  37.563  14.847
48117W        W 7862  18.235  22.095  10.942
48118W        W 7863  38.886  12.670   5.107
48119W        W 7864  19.053  18.679  13.344
48120W        W 7865  26.109  12.179   3.344
48121W        W 7866  10.762  23.676  11.494
48122W        W 7867  23.054   4.762  14.812
48123W        W 7868   2.229  15.222   0.340
48124W        W 7869  26.478   6.183  12.009
48125W        W 7870  44.317  23.578   2.664
48126W        W 7871  40.375  19.547  11.581
48127W        W 7872   6.348  19.258  10.515
48128W        W 7873  30.580  22.186   4.730
48129W        W 7874  17.785  40.035   1.800
48130W        W 7875  41.039  10.674  10.474
48131W        W 7876  44.920   7.343   0.959
48132W        W 7877  30.616  40.494  11.515
48133W        W 7878  40.038   0.768   2.395
48134W        W 7879  34.388   6.345  11.430
48135W        W 7880  23.197  23.572   4.646
48136W        W 7881  11.705   7.254   9.957
48137W        W 7882   3.890  26.055  13.015
48138W        W 7883  13.202  29.961  10.592
48139W        W 7884  43.986  10.265   0.283
48140W        W 7885  40.874  35.577  10.426
48141W        W 7886   6.236  24.124   1.740
48142W        W 7887  28.560  38.045  14.759
48143W        W 7888  43.795  17.280   2.184
48144W        W 7889   2.307  14.699  11.943
48145W        W 7890  20.583  34.395   2.736
48146W        W 7891  17.226  18.259  10.016
48147W        W 7892  37.979  16.314   3.312
48148W        W 7893  31.940  17.074  14.401
48149W        W 7894  37.537  17.302  13.017
48150W        W 7895  22.041   3.788  11.874
48151W        W 7896  42.822  29.582   9.615
48152W        W 7897  40.923  37.537  11.017
48153W        W 7898  22.710  14.228  12.859
48154W        W 7899  15.695  27.010  11.860
48155W        W 7900  42.455   3.217  10.481
48156W        W 7901   0.434  44.876   4.144
48157W        W 7902  18.744  28.166  10.110
48158W        W 7903  41.476  32.391   4.135
48159W        W 7904  18.224  13.648  12.502
48160W        W 7905  25.674  22.050   2.744
48161W        W 7906  23.569   6.775   2.706
48162W        W 7907   5.797   9.293   2.861
48163W        W 7908  25.544  23.022   0.951
48164W        W 7909   3.905  39.926   4.292
48165W        W 7910  20.537  22.606   2.302
48166W        W 7911  28.983  28.636  12.858
48167W        W 7912  24.020  44.951   4.826
48168W        W 7913  35.501   2.240  10.463
48169W        W 7914  24.225  20.661  13.005
48170W        W 7915  10.675  11.833   3.751
48171W        W 7916  22.573  16.216  14.389
48172W        W 7917  26.638   0.365   4.312
48173W        W 7918   8.308  24.229  11.985
48174W        W 7919  24.131   4.772  14.821
48175W        W 7920  21.089  21.516   2.226
48176W        W 7921  17.663  21.551  10.481
48177W        W 7922  13.813  18.735  11.425
48178W        W 7923  36.442  28.656   0.378
48179W        W 7924   8.241  23.525   1.701
48180W        W 7925  42.386   2.895   4.627
48181W        W 7926   1.784  14.239   0.444
48182W        W 7927   0.361  39.836   1.740
48183W        W 7928  14.330  17.696  13.445
48184W        W 7929  29.157  22.645   1.334
48185W        W 7930  41.891  10.654   3.760
48186W        W 7931  14.639  44.914  12.863
48187W        W 7932  17.187   8.797  11.889
48188W        W 7933   5.422  13.142  12.942
48189W        W 7934  17.604  31.904   4.744
48190W        W 7935  39.389  14.779   4.672
48191W        W 7936  18.587  36.537  10.475
48192W        W 7937   4.820  34.558  14.892
48193W        W 7938  40.359   5.782   0.279
48194W        W 7939   8.752   2.809  13.371
48195W        W 7940  10.776   5.195   2.823
48196W        W 7941  41.856  40.409  13.433
48197W        W 7942  13.159   6.707  10.418
48198W        W 7943  27.641  33.399  10.489
48199W        W 7944  23.689  25.023  13.525
48200W        W 7945   2.864  20.670  14.419
48201W        W 7946  28.444  16.582  10.504
48202W        W 7947  38.462  11.804   0.775
48203W        W 7948  34.101  13.155  10.598
48204W        W 7949  35.075  20.052   5.217
48205W        W 7950  23.677  17.672   4.192
48206W        W 7951  21.184  11.833  14.278
48207W        W 7952  42.995  27.151   0.959
48208W        W 7953   7.242   8.241   2.897
48209W        W 7954  18.695  31.081  14.842
48210W        W 7955  26.005  10.689   4.688
48211W        W 7956   7.200  18.147   3.783
48212W        W 7957  13.110  18.753   0.405
48213W        W 7958  26.157  39.066   0.378
48214W        W 7959  25.543  31.419   3.228
48215W        W 7960  43.003   8.707   0.343
48216W        W 7961  17.194  20.725  14.373
48217W        W 7962  27.644  29.933   4.710
48218W        W 7963  28.620  10.761   3.641
48219W        W 7964   9.153  27.621   2.319
48220W        W 7965   3.431  39.492   4.802
48221W        W 7966   4.296  42.395   3.748
48222W        W 7967  18.584  17.067   2.228
48223W        W 7968   5.343  19.122   3.867
48224W        W 7969  32.609  30.477   3.690
48225W        W 7970   6.424   1.426   0.901
48226W        W 7971  22.557  41.957   0.483
48227W        W 7972  20.265  22.728   1.358
48228W        W 7973   1.794  36.936   1.416
48229W        W 7974  17.127   3.380  14.416
48230W        W 7975  18.127  41.909   3.290
48231W        W 7976  42.508  35.462   0.280
48232W        W 7977  30.143  32.452   1.426
48233W        W 7978  27.166  43.934  11.937
48234W        W 7979  19.625  16.250   1.351
48235W        W 7980  17.227  35.543   2.837
48236W        W 7981  41.943  29.098   4.130
48237W        W 7982  11.182  10.693   0.380
48238W        W 7983  38.485  35.523  14.995
48239W        W 7984   7.204  14.289   4.166
48240W        W 7985  29.998  32.906   3.800
48241W        W 7986  10.695   9.879   2.386
48242W        W 7987  31.093   3.327   5.595
48243W        W 7988  24.217  42.931  13.830
48244W        W 7989  24.686  34.432  13.974
48245W        W 7990  35.002  30.512   4.780
48246W        W 7991  15.201   5.199  14.348
48247W        W 7992  33.416  43.289  13.348
48248W        W 7993   9.727  37.951  10.429
48249W        W 7994   6.203  34.975   5.109
48250W        W 7995  36.947  40.501  12.385
48251W        W 7996   5.773  28.145  10.969
48252W        W 7997  11.854  26.016  10.913
48253W        W 7998   8.269  27.688   0.247
48254W        W 7999   7.222   9.388   4.631
48255W        W 8000  14.788   2.437  13.326
48256W        W 8001   5.910  14.184   1.694
48257W        W 8002  21.198  33.460   0.380
48258W        W 8003   9.383   5.731   2.320
48259W        W 8004  34.409   0.453  12.089
48260W        W 8005  31.559  30.490  14.362
48261W        W 8006  39.515  44.417   2.898
48262W        W 8007   1.324  38.462   2.809
48263W        W 8008   4.882  37.378   3.653
48264W        W 8009  13.727  12.626   2.328
48265W        W 8010  35.919  12.195  11.010
48266W        W 8011  41.301  18.164  11.553
48267W        W 8012  13.337  21.073  12.980
48268W        W 8013  22.248  24.634   3.175
48269W        W 8014   2.249   1.245  14.454
48270W        W 8015  39.875  26.206  14.407
48271W        W 8016   3.401  26.670   1.389
48272W        W 8017  17.149   6.240   4.682
48273W        W 8018  35.019  43.514   1.770
48274W        W 8019   1.790  11.277  14.297
48275W        W 8020  10.731  34.046  13.043
48276W        W 8021  21.044  17.645  11.954
48277W        W 8022  36.858  19.639  11.579
48278W        W 8023  22.250  20.143  13.033
48279W        W 8024  43.911  25.084   1.901
48280W        W 8025  31.487   8.255  10.580
48281W        W 8026  41.333  24.108   1.857
48282W        W 8027  19.264  26.606   2.388
48283W        W 8028   6.720  17.675   1.435
48284W        W 8029  35.369  31.463  13.348
48285W        W 8030   2.725  26.570  11.017
48286W        W 8031  12.803  14.187  10.906
48287W        W 8032   7.377   0.896  14.325
48288W        W 8033  41.456  26.492   5.237
48289W        W 8034  16.753  37.005  10.936
48290W        W 8035   9.235  16.700  11.494
48291W        W 8036  31.515  33.895  11.580
48292W        W 8037  18.669  17.623   3.814
48293W        W 8038  20.713  23.533  11.964
48294W        W 8039  25.075  11.642   2.229
48295W        W 8040  10.694  26.589   1.790
48296W        W 8041  31.576  32.107   5.157
48297W        W 8042  44.442  22.185  10.517
48298W        W 8043   4.772   8.265   3.667
48299W        W 8044  31.912   1.943   0.472
48300W        W 8045   2.795   7.366   4.289
48301W        W 8046  21.216  42.775  11.074
48302W        W 8047  34.473   9.211  13.888
48303W        W 8048  28.646  13.805   3.722
48304W        W 8049  10.323  20.592  11.025
48305W        W 8050  41.519  21.158   0.789
48306W        W 8051   4.224  31.439  13.365
48307W        W 8052  17.162   5.374   4.127
48308W        W 8053  20.034  22.032  13.915
48309W        W 8054  18.765  41.323  12.346
48310W        W 8055  38.342  42.494  14.968
48311W        W 8056  11.226   2.266   2.813
48312W        W 8057  18.142  12.227   1.413
48313W        W 8058  24.514  42.813   3.716
48314W        W 8059  18.113   2.281   4.348
48315W        W 8060  12.120  14.700  11.557
48316W        W 8061   9.810  25.645   4.819
48317W        W 8062  23.028   3.828   3.808
48318W        W 8063   2.775  40.873  14.397
48319W        W 8064  12.338  36.534   2.408
48320W        W 8065  21.075  33.952   2.378
48321W        W 8066  23.555   0.454  14.470
48322W        W 8067   5.289  44.495  13.986
48323W        W 8068  32.555  12.291  12.393
48324W        W 8069  36.032  24.632  12.888
48325W        W 8070  32.944  43.993  12.085
48326W        W 8071  29.538  26.080   3.317
48327W        W 8072   8.406  13.222   2.759
48328W        W 8073  17.152  42.493   0.915
48329W        W 8074  30.078  22.665   0.399
48330W        W 8075  41.817  35.014   0.423
48331W        W 8076  29.476  23.653  13.419
48332W        W 8077   3.331  15.760   1.882
48333W        W 8078  41.926  17.199  13.315
48334W        W 8079  29.549  25.198   4.287
48335W        W 8080  18.651   3.247   5.114
48336W        W 8081   0.810  21.160   3.631
48337W        W 8082  42.440  44.766   4.673
48338W        W 8083  28.575  43.888  12.939
48339W        W 8084  22.228  34.939  12.892
48340W        W 8085  15.224  30.922  13.308
48341W        W 8086  21.071  16.182  14.006
48342W        W 8087  22.172   4.298  14.419
48343W        W 8088  41.840  41.905   3.332
48344W        W 8089  11.266   2.961   0.378
48345W        W 8090  18.743   5.336   2.888
48346W        W 8091  37.833   6.356  13.035
48347W        W 8092   6.405  26.506   2.735
48348W        W 8093  13.150  28.446   1.834
48349W        W 8094  20.767  30.105  11.521
48350W        W 8095  41.374  11.724  14.473
48351W        W 8096  30.539  21.577  11.532
48352W        W 8097  35.474   6.231   2.771
48353W        W 8098  14.251  11.820  11.054
48354W        W 8099  28.457  13.823   2.292
48355W        W 8100  14.677  30.562   0.847
48356W        W 8101  44.826  33.002  12.941
48357W        W 8102  36.846  30.931  13.884
48358W        W 8103  11.194  44.929   0.927
48359W        W 8104  13.160  18.686   1.890
48360W        W 8105   9.769  18.602  11.004
48361W        W 8106  25.671  32.026  11.887
48362W        W 8107  25.012  28.500  12.433
48363W        W 8108  24.190  20.084   3.683
48364W        W 8109  15.729  21.204  14.400
48365W        W 8110  16.715   8.406  11.379
48366W        W 8111  33.477  15.681  12.084
48367W        W 8112  44.800   6.736  11.121
48368W        W 8113  27.127   8.395  13.472
48369W        W 8114   2.471  41.387  10.996
48370W        W 8115  19.540  16.125   5.182
48371W        W 8116  29.638  17.778  10.422
48372W        W 8117  42.982  23.605  11.006
48373W        W 8118  21.690  44.859   0.265
48374W        W 8119  41.423   0.248  12.049
48375W        W 8120  23.109  41.027  10.897
48376W        W 8121  30.560  22.093   3.262
48377W        W 8122  34.904   4.699   2.316
48378W        W 8123  19.772  28.529  12.872
48379W        W 8124   2.877  20.712  12.488
48380W        W 8125  22.097   5.281   4.716
48381W        W 8126  29.940  35.074  12.569
48382W        W 8127  26.183  40.930   3.318
48383W        W 8128  11.738  11.189  13.805
48384W        W 8129  17.712  36.512   5.706
48385W        W 8130   8.661  38.547  14.359
48386W        W 8131   8.739  11.825  13.911
48387W        W 8132   7.842   3.291  11.538
48388W        W 8133   5.345  11.192   2.771
48389W        W 8134  11.189   2.873  12.045
48390W        W 8135  28.167  20.093   0.471
48391W        W 8136   4.223  39.808   1.223
48392W        W 8137  39.420  16.151   3.367
48393W        W 8138  24.618  11.654   4.336
48394W        W 8139  31.630  23.535   2.331
48395W        W 8140  21.097  16.132   3.371
48396W        W 8141   4.284  16.725  13.056
48397W        W 8142  38.499  26.096   3.787
48398W        W 8143  19.043  15.161   0.305
48399W        W 8144  43.388   5.318   1.412
48400W        W 8145   8.870  40.507   3.753
48401W        W 8146  34.063  44.504  10.941
48402W        W 8147  40.805   4.354   1.450
48403W        W 8148  19.635   5.798   0.348
48404W        W 8149  22.153  21.135   4.752
48405W        W 8150  11.145  11.767   0.790
48406W        W 8151  35.003  36.401   3.834
48407W        W 8152  30.536   1.465   0.843
48408W        W 8153  37.368  40.319  12.927
48409W        W 8154   4.343  24.026   4.331
48410W        W 8155   3.277  17.295   0.955
48411W        W 8156  11.143  17.731  11.087
48412W        W 8157   8.202  17.186  13.451
48413W        W 8158  28.508  39.484  11.956
48414W        W 8159  15.301  16.087  13.307
48415W        W 8160   0.867   4.699  11.581
48416W        W 8161  11.213  18.246  11.385
48417W        W 8162  10.193   4.825  12.427
48418W        W 8163  21.672  11.149   3.156
48419W        W 8164  29.504   2.298   1.788
48420W        W 8165  12.339  20.599   2.377
48421W        W 8166  17.718  18.101   4.183
48422W        W 8167  29.597  26.650   0.294
48423W        W 8168  36.003  29.977  14.353
48424W        W 8169   4.772  30.499  13.037
48425W        W 8170  21.675  39.961  12.502
48426W        W 8171   8.713  21.235  11.059
48427W        W 8172  40.386  42.948  12.430
48428W        W 8173  28.074  20.765  12.956
48429W        W 8174  31.598  36.411  11.575
48430W        W 8175  17.300  37.512  10.947
48431W        W 8176   8.372  15.772  14.767
48432W        W 8177  38.369  23.573   2.686
48433W        W 8178  34.993   5.343   1.249
48434W        W 8179  25.017   4.273  13.399
48435W        W 8180  41.997  24.675  13.004
48436W        W 8181   3.794  44.853  12.061
48437W        W 8182  13.322  12.234   0.379
48438W        W 8183   8.820  43.944  13.359
48439W        W 8184  17.746   5.811   2.848
48440W        W 8185  44.927  38.424   2.399
48441W        W 8186  19.780  23.626  14.463
48442W        W 8187  24.997   1.298  14.997
48443W        W 8188  26.179  13.634  14.392
48444W        W 8189  14.722  39.975  14.917
48445W        W 8190  28.105  38.433   4.761
48446W        W 8191  44.285  24.186   5.242
48447W        W 8192  20.228   5.425   0.805
48448W        W 8193  25.589   2.914  11.571
48449W        W 8194   5.288  37.537   4.649
48450W        W 8195  40.008   4.397   1.318
48451W        W 8196  38.418   2.919  12.090
48452W        W 8197  10.837  17.679  14.854
48453W        W 8198   9.775   0.252   1.358
48454W        W 8199  16.318  35.424   2.333
48455W        W 8200  11.334  29.489  11.518
48456W        W 8201  12.823  14.635   3.820
48457W        W 8202   3.293  42.463  13.842
48458W        W 8203  23.059   8.353  10.515
48459W        W 8204  40.031  44.434  10.501
48460W        W 8205  34.599  14.137   3.734
48461W        W 8206  22.022  35.597   1.902
48462W        W 8207  15.643  14.331   2.240
48463W        W 8208   9.236  30.534   0.774
48464W        W 8209  23.649   6.396   0.460
48465W        W 8210   8.177  14.304   2.676
48466W        W 8211  30.040  39.815   2.230
48467W        W 8212  31.131  14.240   1.833
48468W        W 8213   2.469  25.537  14.881
48469W        W 8214   1.900   6.236   3.766
48470W        W 8215  26.993  38.010   0.956
48471W        W 8216  26.604  34.425   4.347
48472W        W 8217  33.384   9.839   0.476
48473W        W 8218  36.529  38.052   2.865
48474W        W 8219  24.163  42.779   4.194
48475W        W 8220  38.057  28.536   0.889
48476W        W 8221  40.456  26.471  10.639
48477W        W 8222  39.483   8.291   4.115
48478W        W 8223  43.306  27.962  12.530
48479W        W 8224   6.915  39.963  11.596
48480W        W 8225  34.024  37.422   3.370
48481W        W 8226  24.109  27.085  14.882
48482W        W 8227  10.811  27.009  13.367
48483W        W 8228   8.843  19.677  12.487
48484W        W 8229  36.371  44.812  10.628
48485W        W 8230  20.065  24.620  10.448
48486W        W 8231  36.401  30.111  11.972
48487W        W 8232  24.196  10.210  10.102
48488W        W 8233  35.965   5.698   0.771
48489W        W 8234  32.414  11.630  11.375
48490W        W 8235  17.177  10.291  14.814
48491W        W 8236  35.854  18.693  10.130
48492W        W 8237  29.099  18.777   3.340
48493W        W 8238  12.136  22.008   2.692
48494W        W 8239  12.746   5.302   0.872
48495W        W 8240  36.973  27.663   3.674
48496W        W 8241  28.080  37.875  12.396
48497W        W 8242  18.562  39.896   1.278
48498W        W 8243  23.156  24.583   2.364
48499W        W 8244   7.760  29.098  10.959
48500W        W 8245  36.541  28.528  10.927
48501W        W 8246   6.226  43.495   3.164
48502W        W 8247  18.566   2.772  10.409
48503W        W 8248  42.368  24.724  13.325
48504W        W 8249  11.361   7.271   3.224
48505W        W 8250  23.078  25.703   4.600
48506W        W 8251  20.765  16.099  13.309
48507W        W 8252   9.317  38.942  12.526
48508W        W 8253  35.564  33.974  14.299
48509W        W 8254  19.076  40.536  10.434
48510W        W 8255  37.342  13.141   1.846
48511W        W 8256  41.919   7.908  14.817
48512W        W 8257  15.311  10.870   1.322
48513W        W 8258  25.201  28.091  14.893
48514W        W 8259  10.681  33.541  13.800
48515W        W 8260  20.081  16.661  13.842
48516W        W 8261  15.796  31.453   1.230
48517W        W 8262   0.942  41.458   2.726
48518W        W 8263  44.443  25.211  12.875
48519W        W 8264  43.403  31.506   0.956
48520W        W 8265  18.196  21.051   1.822
48521W        W 8266  28.634  39.839  13.945
48522W        W 8267  44.789  32.450  10.499
48523W        W 8268  24.673  34.918   5.286
48524W        W 8269  22.095  19.194  13.948
48525W        W 8270  12.194  20.242  13.947
48526W        W 8271  11.218  23.148   2.352
48527W        W 8272   8.732  24.012   3.655
48528W        W 8273  10.219  25.647   0.422
48529W        W 8274  42.827  42.949   1.370
48530W        W 8275  22.045   9.656  12.488
48531W        W 8276  19.621   9.759   2.859
48532W        W 8277  22.029  12.736   0.250
48533W        W 8278   1.304   2.368  11.089
48534W        W 8279  42.508  16.724  12.356
48535W        W 8280  43.879  23.198   2.408
48536W        W 8281  43.398  40.978   4.221
48537W        W 8282  11.263  40.529  14.368
48538W        W 8283  35.868  32.889  13.511
48539W        W 8284  15.722  32.506  13.397
48540W        W 8285  38.334   5.421  12.547
48541W        W 8286  44.924  32.117   9.577
48542W        W 8287   0.801  22.108   4.701
48543W        W 8288  15.134  23.557   1.799
48544W        W 8289  44.786  20.100   4.284
48545W        W 8290   6.409  39.446  10.445
48546W        W 8291   9.857  14.601   0.436
48547W        W 8292  33.524  42.909  11.856
48548W        W 8293  21.109   5.277  12.995
48549W        W 8294  35.008  22.747   0.254
48550W        W 8295  16.621   3.868   2.715
48551W        W 8296  18.749  34.462   4.151
48552W        W 8297  34.933  40.418   4.300
48553W        W 8298  14.697  37.951   0.380
48554W        W 8299   3.749  21.631  13.318
48555W        W 8300  14.785  34.582  11.078
48556W        W 8301  40.464  22.677  11.567
48557W        W 8302   7.884  23.601  13.489
48558W        W 8303  16.263  24.629   3.292
48559W        W 8304  37.568  27.946  12.383
48560W        W 8305  15.725  10.812   2.837
48561W        W 8306  37.352  29.173  12.064
48562W        W 8307  40.432   4.850  12.449
48563W        W 8308  29.440  43.291  13.373
48564W        W 8309  29.986  39.847   0.747
48565W        W 8310   6.199  37.047  14.318
48566W        W 8311  34.883  40.510   2.765
48567W        W 8312  14.179   7.762  11.546
48568W        W 8313   4.873   0.949   4.808
48569W        W 8314   6.324  39.350  13.948
48570W        W 8315  11.745  26.583   2.235
48571W        W 8316  32.128  38.488   3.854
48572W        W 8317   2.252  44.313  12.031
48573W        W 8318  38.430  18.738  13.872
48574W        W 8319  38.545  18.769  12.520
48575W        W 8320  38.038  25.152  10.966
48576W        W 8321   2.289  32.398  11.579
48577W        W 8322   0.248   9.686   1.821
48578W        W 8323  18.273  16.752  13.418
48579W        W 8324  10.815  20.681   1.287
48580W        W 8325  28.121  13.156  13.910
48581W        W 8326  29.174  29.956   3.636
48582W        W 8327  42.428  26.674  10.621
48583W        W 8328  22.516  42.845   2.757
48584W        W 8329  15.692  44.357  12.856
48585W        W 8330  19.040   1.464   0.449
48586W        W 8331  26.639  22.167   3.220
48587W        W 8332  34.590  14.252  13.992
48588W        W 8333  14.832  36.580   0.300
48589W        W 8334  43.313  13.690  12.085
48590W        W 8335  22.719  30.426   3.355
48591W        W 8336  30.922  34.448  12.851
48592W        W 8337  30.932   9.820   0.287
48593W        W 8338  37.069  22.687  13.495
48594W        W 8339  35.403  20.199  13.457
48595W        W 8340  15.816  36.459  14.458
48596W        W 8341  21.162  33.922   1.835
48597W        W 8342   2.227  27.573   1.845
48598W        W 8343  10.151  39.385   2.826
48599W        W 8344  37.472  31.979   1.279
48600W        W 8345  11.203  44.835   1.840
48601W        W 8346  44.349   6.867  14.374
48602W        W 8347   4.341  12.298   4.744
48603W        W 8348  37.541  18.062   4.191
48604W        W 8349  28.939  21.253   4.202
48605W        W 8350  38.057  39.018  13.469
48606W        W 8351  31.404   5.419   2.837
48607W        W 8352  26.517  28.520   3.177
48608W        W 8353  10.711  24.057  13.848
48609W        W 8354  22.704  35.430   2.869
48610W        W 8355  44.799   2.879  12.027
48611W        W 8356  11.192  22.675  10.631
48612W        W 8357  40.442   6.756  14.452
48613W        W 8358  27.474  11.228  14.283
48614W        W 8359  12.773  33.907   2.309
48615W        W 8360  12.196  16.106  14.281
48616W        W 8361  30.954  11.833   1.318
48617W        W 8362  40.936  17.158  12.560
48618W        W 8363  44.296  13.830   4.677
48619W        W 8364  37.033  34.951  12.978
48620W        W 8365  24.481   1.456   5.721
48621W        W 8366  11.805  35.872   5.197
48622W        W 8367  22.049   1.905   0.371
48623W        W 8368  41.427  34.984   1.905
48624W        W 8369  28.983  31.459   0.768
48625W        W 8370  35.476  30.070  12.965
48626W        W 8371  40.865   7.364   0.778
48627W        W 8372  38.414  15.639  10.967
48628W        W 8373  41.821  40.311  11.017
48629W        W 8374  30.659  42.026   2.679
48630W        W 8375  12.763  22.097   1.872
48631W        W 8376  17.603  20.620  14.291
48632W        W 8377   9.251   3.388  14.813
48633W        W 8378   4.237  25.468   4.156
48634W        W 8379  29.056  42.525  10.516
48635W        W 8380   5.200  11.146   0.938
48636W        W 8381   8.834  19.585   1.367
48637W        W 8382  36.589  41.986  10.573
48638W        W 8383  29.553  21.708  11.501
48639W        W 8384  32.457   7.415   5.103
48640W        W 8385  22.679   9.284   0.843
48641W        W 8386   5.925  37.544   0.927
48642W        W 8387  38.968  39.976  13.472
48643W        W 8388   9.367  20.144   4.796
48644W        W 8389  19.555  42.499  12.895
48645W        W 8390  34.083  34.388   1.825
48646W        W 8391  32.957  44.912  14.472
48647W        W 8392  10.636   7.235  12.030
48648W        W 8393  28.438  28.130  12.987
48649W        W 8394   1.238  44.981  14.294
48650W        W 8395   6.726  33.503   1.798
48651W        W 8396  32.552  42.410   3.675
48652W        W 8397  23.115   8.755  10.577
48653W        W 8398  13.249  21.516  14.328
48654W        W 8399  39.025  12.720  11.481
48655W        W 8400   9.372  17.226   3.211
48656W        W 8401  12.746  33.905   1.337
48657W        W 8402  25.082  19.178  14.376
48658W        W 8403  24.621   5.302  13.863
48659W        W 8404   1.306   2.821   1.396
48660W        W 8405  23.661  13.230   3.250
48661W        W 8406   5.876  40.969  11.986
48662W        W 8407  26.135  34.879   2.886
48663W        W 8408  44.904  22.744   2.361
48664W        W 8409  24.596   1.440  11.505
48665W        W 8410   7.200   7.857  10.580
48666W        W 8411  25.100   3.321   2.863
48667W        W 8412   2.729   7.839  14.789
48668W        W 8413  26.020   6.323   4.727
48669W        W 8414  35.930  24.528   1.927
48670W        W 8415   2.909  22.227  13.814
48671W        W 8416  33.030   4.898   2.375
48672W        W 8417  38.501   9.349   1.914
48673W        W 8418  39.366  43.843   2.663
48674W        W 8419  26.124   0.438   3.341
48675W        W 8420   3.300  24.665  14.410
48676W        W 8421   9.282  12.738   4.625
48677W        W 8422  41.797  36.357  13.822
48678W        W 8423  15.266  39.967   0.866
48679W        W 8424  44.795  26.692  12.554
48680W        W 8425  44.264   2.391   1.910
48681W        W 8426  27.515   2.903   4.749
48682W        W 8427  22.054  33.033  13.447
48683W        W 8428  21.613   6.684   2.798
48684W        W 8429  15.657  33.973   1.880
48685W        W 8430   8.820   2.810   3.230
48686W        W 8431  18.241   8.327  12.095
48687W        W 8432  30.650  19.044   0.869
48688W        W 8433  35.373  31.973  13.390
48689W        W 8434  38.566  28.164   4.353
48690W        W 8435  26.209  38.497   3.248
48691W        W 8436  38.503   2.468   3.671
48692W        W 8437  22.007  25.644   4.245
48693W        W 8438  24.485  44.794   2.276
48694W        W 8439  19.057  16.807   1.766
48695W        W 8440   8.233  28.438  12.510
48696W        W 8441  20.737  40.530   2.897
48697W        W 8442  36.095  16.771  11.016
48698W        W 8443  14.595  36.960   2.395
48699W        W 8444  40.489  27.483  13.382
48700W        W 8445   8.208  40.458   4.321
48701W        W 8446   3.780   5.394   3.330
48702W        W 8447   2.294  17.573  13.423
48703W        W 8448  34.091  13.257   0.355
48704W        W 8449   9.747   8.164   1.262
48705W        W 8450  25.525   8.341  13.824
48706W        W 8451  44.832  23.091  11.493
48707W        W 8452  31.975   5.399  14.445
48708W        W 8453  44.452  10.653  11.106
48709W        W 8454  31.467  41.843   0.374
48710W        W 8455  33.977   8.177  13.526
48711W        W 8456   7.407  28.116  12.982
48712W        W 8457   3.351  38.544   2.785
48713W        W 8458  31.466  30.963   5.775
48714W        W 8459  27.972  42.881  10.978
48715W        W 8460  34.477  28.080  12.522
48716W        W 8461  18.133  34.568   4.279
48717W        W 8462  44.847  14.697   3.781
48718W        W 8463  10.246  41.399   2.279
48719W        W 8464   9.856  34.959  13.929
48720W        W 8465  29.465  10.873   3.277
48721W        W 8466   9.719  27.961  14.775
48722W        W 8467  20.235  43.887  14.907
48723W        W 8468  12.836  21.662  14.798
48724W        W 8469  10.843  33.108   4.604
48725W        W 8470  12.340  14.781   4.136
48726W        W 8471  40.001  29.051  13.814
48727W        W 8472  41.975  35.567  13.803
48728W        W 8473   6.227  34.908   2.220
48729W        W 8474  13.615   4.316   2.396
48730W        W 8475   8.824   1.955   0.300
48731W        W 8476  15.127  33.582   1.922
48732W        W 8477   9.802  40.342  12.912
48733W        W 8478  41.847  43.476   1.414
48734W        W 8479  44.799  39.475  11.487
48735W        W 8480  42.446  23.557   0.812
48736W        W 8481  23.643  25.604   2.683
48737W        W 8482  14.113  31.999   3.742
48738W        W 8483   3.298  33.551   0.376
48739W        W 8484  33.421  32.585  13.517
48740W        W 8485  35.962   3.351  10.980
48741W        W 8486  31.978  30.919  11.573
48742W        W 8487   8.686  40.442  14.286
48743W        W 8488   1.924  18.254  12.414
48744W        W 8489  16.232  18.670   0.469
48745W        W 8490  24.694  32.576   1.237
48746W        W 8491   4.358   9.216   3.830
48747W        W 8492  39.551  37.977   2.848
48748W        W 8493   1.289  43.010   5.197
48749W        W 8494   5.815  22.046  11.888
48750W        W 8495   6.236  42.997   2.739
48751W        W 8496  29.551  30.655   2.268
48752W        W 8497  26.067   1.443  11.898
48753W        W 8498  13.831  35.586  13.492
48754W        W 8499  20.057   5.797   3.831
48755W        W 8500  32.057  43.324  12.968
48756W        W 8501  37.069  16.253   4.635
48757W        W 8502   1.819   8.832   4.683
48758W        W 8503   5.929  10.147  10.505
48759W        W 8504  36.978  29.152   3.700
48760W        W 8505   0.825   2.279   4.342
48761W        W 8506  34.024  12.830  14.486
48762W        W 8507   7.719   3.382   4.203
48763W        W 8508  39.028   8.758   1.241
48764W        W 8509  37.482   3.873   3.356
48765W        W 8510   5.850  26.024   1.352
48766W        W 8511  43.470  38.544   2.685
48767W        W 8512  17.107  32.041   4.137
48768W        W 8513   7.720   3.841   3.308
48769W        W 8514   6.902   7.305  13.878
48770W        W 8515  22.637  25.190   2.752
48771W        W 8516  19.141   2.821  12.508
48772W        W 8517  23.722   9.328   0.282
48773W        W 8518   8.243  27.105   1.283
48774W        W 8519  42.859   0.478   4.330
48775W        W 8520  36.475  13.253  11.991
48776W        W 8521  10.206  15.300  13.810
48777W        W 8522  35.090  16.688   1.718
48778W        W 8523  43.974  41.020   2.327
48779W        W 8524  24.011  36.580   4.635
48780W        W 8525  15.215   6.244  13.367
48781W        W 8526   3.348  14.727  10.594
48782W        W 8527  26.115  27.066   1.709
48783W        W 8528  26.056  27.192  13.490
48784W        W 8529   0.473   9.193   4.626
48785W        W 8530  12.148   6.684   2.877
48786W        W 8531  30.128  22.043   2.717
48787W        W 8532  42.825  33.902  13.962
48788W        W 8533  39.062   7.892   3.828
48789W        W 8534  43.970  10.268  13.449
48790W        W 8535  39.356  43.813   3.692
48791W        W 8536  37.491  25.208   2.666
48792W        W 8537  13.330  32.912  12.434
48793W        W 8538  19.575  44.006   2.364
48794W        W 8539  29.526  26.631   5.196
48795W        W 8540  40.305  31.589   3.767
48796W        W 8541  35.465  42.427  11.918
48797W        W 8542  28.157  38.889   2.279
48798W        W 8543  20.115  44.458   1.307
48799W        W 8544  17.724  37.932   2.292
48800W        W 8545  17.566  28.442   1.397
48801W        W 8546   8.825  18.247  12.515
48802W        W 8547  40.039  20.633   1.720
48803W        W 8548  44.913  12.357   3.266
48804W        W 8549  27.589  33.986   0.441
48805W        W 8550  24.015  14.304  12.464
48806W        W 8551  43.919  30.654  11.443
48807W        W 8552  39.028   3.347  12.406
48808W        W 8553  23.554  25.201  14.825
48809W        W 8554  11.189  35.072   3.767
48810W        W 8555  12.302  31.506  12.351
48811W        W 8556   9.293  20.666   3.845
48812W        W 8557   6.388  11.634   2.249
48813W        W 8558  13.181  27.055  11.045
48814W        W 8559  42.030  34.519  14.971
48815W        W 8560  27.071  22.247   1.335
48816W        W 8561  27.634  15.265   4.803
48817W        W 8562  26.566  15.270  12.096
48818W        W 8563  22.535  25.008   2.211
48819W        W 8564  24.066  20.551   2.334
48820W        W 8565  44.756  14.211  12.431
48821W        W 8566   5.756  35.449   2.720
48822W        W 8567  41.821  31.000   4.699
48823W        W 8568  44.301  30.911   2.755
48824W        W 8569  31.006  34.614  10.069
48825W        W 8570  11.132   2.790   1.212
48826W        W 8571  37.985   4.227   4.228
48827W        W 8572  11.358  12.263  10.569
48828W        W 8573   0.262   6.695  12.921
48829W        W 8574  44.922  39.516   2.682
48830W        W 8575   0.780  16.166  11.067
48831W        W 8576  31.909   7.739  14.443
48832W        W 8577  34.518  28.571  14.904
48833W        W 8578  19.716  16.805  14.937
48834W        W 8579  27.189  37.523   2.318
48835W        W 8580  35.042  43.446  13.526
48836W        W 8581  20.558   2.303   1.438
48837W        W 8582  36.943  33.964   2.237
48838W        W 8583  14.266  41.017  14.313
48839W        W 8584  21.737  38.014   1.914
48840W        W 8585  23.583   5.919   3.257
48841W        W 8586  33.451  25.603  12.906
48842W        W 8587   4.438  43.850  12.021
48843W        W 8588  33.501  13.314  13.913
48844W        W 8589  17.629   7.187  11.543
48845W        W 8590  10.256  27.466  11.486
48846W        W 8591  13.611   6.752   0.439
48847W        W 8592   6.241  14.829  10.439
48848W        W 8593  39.337   0.884  14.779
48849W        W 8594  27.544  41.534   2.251
48850W        W 8595  19.559  19.167   0.894
48851W        W 8596   3.417   9.890  11.025
48852W        W 8597  15.144  19.062  13.317
48853W        W 8598  23.720  20.574  11.863
48854W        W 8599  41.869  27.037   0.410
48855W        W 8600  22.591   5.898  14.020
48856W        W 8601  34.037  10.323   2.863
48857W        W 8602  36.527  27.194  12.094
48858W        W 8603   2.256   8.186  14.802
48859W        W 8604  16.078  20.748  14.399
48860W        W 8605  22.649   4.811  12.934
48861W        W 8606  30.487   4.808   3.286
48862W        W 8607   1.287  25.209   5.140
48863W        W 8608  33.403  10.139   4.764
48864W        W 8609   4.796  35.454  14.420
48865W        W 8610   0.372  19.744  10.453
48866W        W 8611  30.638   9.163  11.481
48867W        W 8612  42.783  36.031  14.775
48868W        W 8613  41.850  20.135  12.864
48869W        W 8614  17.126   8.835  14.797
48870W        W 8615  38.360   7.394  13.381
48871W        W 8616  17.564  13.337   4.742
48872W        W 8617  21.202  26.561   1.447
48873W        W 8618   8.185   1.974  13.917
48874W        W 8619  35.943  21.038  14.495
48875W        W 8620  30.939  42.480   2.866
48876W        W 8621  27.535  13.250   1.391
48877W        W 8622   0.362  13.765  12.365
48878W        W 8623  33.072  29.595   0.858
48879W        W 8624   0.290  13.250   1.392
48880W        W 8625  19.625  25.029  11.911
48881W        W 8626   1.960  20.225   2.698
48882W        W 8627  16.113   6.878   0.290
48883W        W 8628  34.555  19.679   5.694
48884W        W 8629  10.261  36.885  12.522
48885W        W 8630  33.610   7.388   3.291
48886W        W 8631  43.479  14.105  14.441
48887W        W 8632  30.079  15.277   3.755
48888W        W 8633   6.351  14.307  11.425
48889W        W 8634  24.173  36.389   0.746
48890W        W 8635  31.015   9.204  10.627
48891W        W 8636  38.921  36.408   3.743
48892W        W 8637  26.529  40.955  11.938
48893W        W 8638  14.655  28.582   4.792
48894W        W 8639   7.339  39.448   4.726
48895W        W 8640   0.417  21.628  12.886
48896W        W 8641  34.892  24.081  11.398
48897W        W 8642  17.116  18.753   3.848
48898W        W 8643  41.899  20.540  11.400
48899W        W 8644  36.495  32.537   1.923
48900W        W 8645  37.999  34.587   3.698
48901W        W 8646  42.474  11.778   2.874
48902W        W 8647  37.546  32.628   0.828
48903W        W 8648  36.003  19.079   0.339
48904W        W 8649  42.887  27.017  14.801
48905W        W 8650   1.910   4.240  12.475
48906W        W 8651  35.600  30.565   2.364
48907W        W 8652  25.066   1.469   0.340
48908W        W 8653   2.904   6.244   2.804
48909W        W 8654  41.880   7.719  14.515
48910W        W 8655  20.056   9.684  13.462
48911W        W 8656  11.234  10.226   0.794
48912W        W 8657   9.692  20.666   4.706
48913W        W 8658  32.414  36.558  10.964
48914W        W 8659  12.618  13.727  14.847
48915W        W 8660  36.856  19.542   0.429
48916W        W 8661  22.043   9.729  11.109
48917W        W 8662  19.649  31.939   1.211
48918W        W 8663  26.471  29.104   4.343
48919W        W 8664  30.475  14.633  10.477
48920W        W 8665   3.886  28.984  11.078
48921W        W 8666  42.821  22.678  10.994
48922W        W 8667  23.699   2.889   4.684
48923W        W 8668  18.686  22.136   2.297
48924W        W 8669  10.707  18.561  14.341
48925W        W 8670   1.906   9.290  13.982
48926W        W 8671  10.362  26.162  12.550
48927W        W 8672  36.930  21.092  10.911
48928W        W 8673  38.862   7.385   2.345
48929W        W 8674  37.849  42.878  10.566
48930W        W 8675   5.690  28.643  11.945
48931W        W 8676   9.738  33.582  12.487
48932W        W 8677  25.573  37.558   1.800
48933W        W 8678  19.583   2.921   2.687
48934W        W 8679  31.126  20.589  14.409
48935W        W 8680  38.350   7.229  12.532
48936W        W 8681   8.215  12.814   3.760
48937W        W 8682  19.284  36.044  10.600
48938W        W 8683  29.571  11.842   2.234
48939W        W 8684  43.432  35.438   1.333
48940W        W 8685  26.023  38.045   3.227
48941W        W 8686  41.442   8.758   3.836
48942W        W 8687  17.260   0.942   5.148
48943W        W 8688  23.167  39.365   2.682
48944W        W 8689   3.363  39.057  12.082
48945W        W 8690  31.521  32.608   0.460
48946W        W 8691  42.823  16.159   3.281
48947W        W 8692   2.466  27.549  14.010
48948W        W 8693  26.558  22.150   2.850
48949W        W 8694   3.861   8.811  12.862
48950W        W 8695  37.521  39.040  11.030
48951W        W 8696  18.556   6.289   1.696
48952W        W 8697  42.318  44.754  12.922
48953W        W 8698  29.563  36.441  11.129
48954W        W 8699   9.816  37.050   2.771
48955W        W 8700  42.830  14.219  10.416
48956W        W 8701  41.812  40.863   0.840
48957W        W 8702  27.531   5.729  14.914
48958W        W 8703  34.421  29.986  10.551
48959W        W 8704  22.204  22.506   2.233
48960W        W 8705  30.971   6.311   0.782
48961W        W 8706  22.740  26.099   3.273
48962W        W 8707  35.990  21.735   2.322
48963W        W 8708  31.054  31.137   3.781
48964W        W 8709  21.543  16.076   2.254
48965W        W 8710  33.952  26.625  11.862
48966W        W 8711  11.359  43.325   1.354
48967W        W 8712   9.831  36.906   4.717
48968W        W 8713  12.149   2.327   2.765
48969W        W 8714  14.138   8.681  11.497
48970W        W 8715  41.436  11.647  10.960
48971W        W 8716   0.460  30.593  10.569
48972W        W 8717  32.535  31.915  13.947
48973W        W 8718  39.889  13.616  14.283
48974W        W 8719   5.338  42.797   0.277
48975W        W 8720  35.943  42.983   0.734
48976W        W 8721  23.687  26.198   3.750
48977W        W 8722  12.262  31.056  13.894
48978W        W 8723  40.978   4.823  11.379
48979W        W 8724  13.184  26.593  14.419
48980W        W 8725  18.738   1.961   3.352
48981W        W 8726  42.345   7.172   1.717
48982W        W 8727   1.883  15.772  10.448
48983W        W 8728  32.956  41.317  14.435
48984W        W 8729  43.911  23.177  10.609
48985W        W 8730  21.061  38.041   2.371
48986W        W 8731  41.922  37.447   1.258
48987W        W 8732  12.610  11.688  10.543
48988W        W 8733  11.318   6.385   3.323
48989W        W 8734  22.654  13.790  14.504
48990W        W 8735  32.022   2.810   2.220
48991W        W 8736  17.187  19.163  13.800
48992W        W 8737   3.265   7.870   5.173
48993W        W 8738  31.534   9.848   4.717
48994W        W 8739  22.680  10.143   1.291
48995W        W 8740  12.345  38.043  13.537
48996W        W 8741  38.567  38.431  13.980
48997W        W 8742  42.297  16.620  13.471
48998W        W 8743   0.423  34.567   1.719
48999W        W 8744  37.465  19.148   3.233
49000W        W 8745   0.880   3.375  10.476
49001W        W 8746  35.596  32.114  11.440
49002W        W 8747  19.186   7.340  13.888
49003W        W 8748  44.753  13.821  11.392
49004W        W 8749   7.771  35.522   3.780
49005W        W 8750  42.365   5.822  11.476
49006W        W 8751   8.818  20.557   3.698
49007W        W 8752  40.995  42.459  11.582
49008W        W 8753  33.608  11.307   9.972
49009W        W 8754  31.477  27.002  14.798
49010W        W 8755  13.325  33.400   2.791
49011W        W 8756   6.923  10.646  11.587
49012W        W 8757  29.533  43.352   3.238
49013W        W 8758  15.661  39.840  13.437
49014W        W 8759   9.858   1.443  13.365
49015W        W 8760  31.028   5.204   3.150
49016W        W 8761  15.283  41.936  13.435
49017W        W 8762  29.168  42.954  14.908
49018W        W 8763   9.647  31.972   3.371
49019W        W 8764  33.078  18.119  12.863
49020W        W 8765   3.743   6.328  12.403
49021W        W 8766  23.042   2.230  14.780
49022W        W 8767  26.481  11.217   4.637
49023W        W 8768   3.390  44.345  13.848
49024W        W 8769  29.928   1.451   4.641
49025W        W 8770  25.195  10.370   3.655
49026W        W 8771   2.347   1.768  11.079
49027W        W 8772   0.770  42.776   4.680
49028W        W 8773   6.867  22.138  11.400
49029W        W 8774  37.008   2.268  10.432
49030W        W 8775   8.297  28.642  11.001
49031W        W 8776  29.113  44.950  11.428
49032W        W 8777  14.246  40.843   3.349
49033W        W 8778  15.119  24.653   3.761
49034W        W 8779  11.743  10.730   4.806
49035W        W 8780  17.243  44.773  11.017
49036W        W 8781  28.467   1.280   4.197
49037W        W 8782  25.968  16.717  12.036
49038W        W 8783  15.326  11.679   1.891
49039W        W 8784  34.018   6.289  10.470
49040W        W 8785  20.088  30.531   2.674
49041W        W 8786  36.547   8.831  10.075
49042W        W 8787   0.858  36.088  11.873
49043W        W 8788  39.958  20.594  13.476
49044W        W 8789  35.490  38.383   3.645
49045W        W 8790   8.657  22.187   1.829
49046W        W 8791  19.225  27.684  10.955
49047W        W 8792  39.832  19.763   1.378
49048W        W 8793  40.319  32.455   4.262
49049W        W 8794  12.302  10.867  11.936
49050W        W 8795   7.905  13.201   0.918
49051W        W 8796  38.468  44.369  10.516
49052W        W 8797  41.016  23.237   2.371
49053W        W 8798  40.444   8.776   9.937
49054W        W 8799  21.110  42.943  10.635
49055W        W 8800  16.114  10.336   2.712
49056W        W 8801  22.126  30.434   1.813
49057W        W 8802   7.199   8.173  13.453
49058W        W 8803  12.695  15.645  13.504
49059W        W 8804  15.769  25.607   0.417
49060W        W 8805   4.892  28.491   0.919
49061W        W 8806  22.704  29.050  12.465
49062W        W 8807  24.230  19.687   5.179
49063W        W 8808   0.819   4.353   0.918
49064W        W 8809  32.108  41.932   1.392
49065W        W 8810   7.893  44.311   2.887
49066W        W 8811  30.012  40.944   2.271
49067W        W 8812  40.837  35.906   0.729
49068W        W 8813  26.587  20.666   1.318
49069W        W 8814  44.433  33.524   4.743
49070W        W 8815  17.207  22.103   2.893
49071W        W 8816  15.785   7.865  11.599
49072W        W 8817   2.774  10.357  12.544
49073W        W 8818  28.040  21.663  14.916
49074W        W 8819  10.160  18.070  12.392
49075W        W 8820  43.313  34.401   4.793
49076W        W 8821  41.401  17.156  12.856
49077W        W 8822  20.688  31.475   0.866
49078W        W 8823  14.697  13.282   1.710
49079W        W 8824  14.760  24.228  11.097
49080W        W 8825  27.004  27.085  13.381
49081W        W 8826   4.423  13.275   0.966
49082W        W 8827  32.404  14.161   1.861
49083W        W 8828  29.021  21.169   1.814
49084W        W 8829  21.058   9.771  12.066
49085W        W 8830  28.534   0.363   3.678
49086W        W 8831  35.069  12.332  11.938
49087W        W 8832   3.934  18.733   0.279
49088W        W 8833   5.754   8.713   3.223
49089W        W 8834  23.605  34.901   5.110
49090W        W 8835  24.534  18.590  13.413
49091W        W 8836  32.906  33.072  11.991
49092W        W 8837  35.506  15.591   0.408
49093W        W 8838  39.472  25.579   4.787
49094W        W 8839  15.805  29.074  11.578
49095W        W 8840  23.148  39.958   2.258
49096W        W 8841  36.923  34.939   3.162
49097W        W 8842  20.742   9.151  11.023
49098W        W 8843  29.438   6.411  10.918
49099W        W 8844  14.147  30.587  11.610
49100W        W 8845  20.085  33.445  14.963
49101W        W 8846  35.987   5.385   3.668
49102W        W 8847  27.509  26.159  10.613
49103W        W 8848  21.536  28.633  13.019
49104W        W 8849  40.870  29.662  13.906
49105W        W 8850  16.317  33.484   9.984
49106W        W 8851  26.527  10.368   5.095
49107W        W 8852  21.615   0.847  13.341
49108W        W 8853   8.393  30.934   1.795
49109W        W 8854  25.087   4.736  14.504
49110W        W 8855  13.809  35.058   9.943
49111W        W 8856  29.531   9.188   1.890
49112W        W 8857  25.702  22.604   4.257
49113W        W 8858  11.197   0.482  11.968
49114W        W 8859   6.329  44.316  10.519
49115W        W 8860  33.916  18.290   1.331
49116W        W 8861   0.410  16.793   2.721
49117W        W 8862  35.100   3.296  14.779
49118W        W 8863  12.822   9.159   1.723
49119W        W 8864  35.055  14.277   3.178
49120W        W 8865  22.638  41.320   1.285
49121W        W 8866  36.570  44.475  10.062
49122W        W 8867  29.984  25.676  12.488
49123W        W 8868  21.090  39.414   3.328
49124W        W 8869  44.918  30.620  13.435
49125W        W 8870   8.780  42.829  14.281
49126W        W 8871  17.211  32.486   4.727
49127W        W 8872  42.457  10.333  14.406
49128W        W 8873   3.427  22.538  12.945
49129W        W 8874  30.968  23.701  12.458
49130W        W 8875  24.625  18.650   1.324
49131W        W 8876   2.912  11.721   2.752
49132W        W 8877   3.335  40.842  11.086
49133W        W 8878  22.693  22.586  14.947
49134W        W 8879  24.191  41.322  14.914
49135W        W 8880  16.625  34.558  13.899
49136W        W 8881  32.074   4.337   2.221
49137W        W 8882  40.858   9.817   2.393
49138W        W 8883   3.231  43.859  12.366
49139W        W 8884  22.099  27.625   4.137
49140W        W 8885   5.263  40.038  11.002
49141W        W 8886  32.451  37.570   3.721
49142W        W 8887   0.362  24.691   1.740
49143W        W 8888  10.329  19.761   4.345
49144W        W 8889   0.825  34.432   0.750
49145W        W 8890  23.605   6.408   1.840
49146W        W 8891   6.183  24.977  14.281
49147W        W 8892  25.134   0.845   2.869
49148W        W 8893  11.349  35.445  14.513
49149W        W 8894  12.214  34.018   4.129
49150W        W 8895  34.865  29.499  11.124
49151W        W 8896   8.208  22.515  13.846
49152W        W 8897  37.426  41.828   2.776
49153W        W 8898  14.142  21.225   4.716
49154W        W 8899  25.099  27.023   1.309
49155W        W 8900  13.173  42.397   1.306
49156W        W 8901  30.645  26.501   1.301
49157W        W 8902  12.850   3.890  11.547
49158W        W 8903  39.843  40.963   2.801
49159W        W 8904   2.921  30.969   0.763
49160W        W 8905  32.900  25.647   1.860
49161W        W 8906   9.390  44.367   1.391
49162W        W 8907  35.587  17.622  14.298
49163W        W 8908  13.629  41.009   4.138
49164W        W 8909  36.866  10.378   4.812
49165W        W 8910   7.836  24.526   4.730
49166W        W 8911   9.271  18.188  12.057
49167W        W 8912  29.974  11.369  12.418
49168W        W 8913  41.980   7.755  13.980
49169W        W 8914  17.770  19.568  14.984
49170W        W 8915  38.520  18.594   0.440
49171W        W 8916  44.932  30.588   3.317
49172W        W 8917  30.996   2.890  11.877
49173W        W 8918  26.695  29.596  10.978
49174W        W 8919  23.001   1.471  13.544
49175W        W 8920   4.851  39.821  12.012
49176W        W 8921  19.080  30.093  12.077
49177W        W 8922  20.183   9.669  12.465
49178W        W 8923  40.866   1.959  11.970
49179W        W 8924  21.613  21.722   2.331
49180W        W 8925   8.218  41.525  11.601
49181W        W 8926  22.156  18.175  10.496
49182W        W 8927  10.759  38.562  10.072
49183W        W 8928   1.477   3.220   4.749
49184W        W 8929   5.855  30.035   0.927
49185W        W 8930  22.190  15.161   0.441
49186W        W 8931   6.308  18.552  13.377
49187W        W 8932   6.188  43.433   2.705
49188W        W 8933   9.885  11.301  12.532
49189W        W 8934  24.161  34.416   4.258
49190W        W 8935  36.446  37.009   1.925
49191W        W 8936   1.810  18.687   4.721
49192W        W 8937  31.975   5.719   0.789
49193W        W 8938   8.395  20.588   0.335
49194W        W 8939  33.019  40.948   1.815
49195W        W 8940  38.887   6.837  13.482
49196W        W 8941  13.814  33.502  13.966
49197W        W 8942   7.410  26.568   4.764
49198W        W 8943  24.030  25.477   3.183
49199W        W 8944  36.915  29.037   2.864
49200W        W 8945   1.961   1.856   1.313
49201W        W 8946  43.886  38.473   2.213
49202W        W 8947  22.683  44.845  14.808
49203W        W 8948  35.546  11.702  12.501
49204W        W 8949  13.257  25.007  14.495
49205W        W 8950   3.309  10.704   1.847
49206W        W 8951   2.844  27.990  14.370
49207W        W 8952  21.077  10.743   4.713
49208W        W 8953  13.332   6.875  11.552
49209W        W 8954  38.441  25.064   2.313
49210W        W 8955   7.355   2.788   1.839
49211W        W 8956  14.603  25.038  11.958
49212W        W 8957   9.225  43.392   2.792
49213W        W 8958  40.436  27.982   1.900
49214W        W 8959  10.639  26.096  10.547
49215W        W 8960   2.407  14.127   4.725
49216W        W 8961   7.261  32.035  14.418
49217W        W 8962  30.036  10.274  14.442
49218W        W 8963   0.275  43.393  14.925
49219W        W 8964  26.605  22.604  12.920
49220W        W 8965  29.463   7.903   0.966
49221W        W 8966  24.634  40.994  13.956
49222W        W 8967  22.195   3.881  12.397
49223W        W 8968  26.133  34.515  12.355
49224W        W 8969  37.411  32.631  11.607
49225W        W 8970  29.592   7.823  11.381
49226W        W 8971  28.591   8.822   0.260
49227W        W 8972  21.241  31.922   3.797
49228W        W 8973  18.295  34.430  13.441
49229W        W 8974  23.236  28.658   2.775
49230W        W 8975  39.417  36.401  12.978
49231W        W 8976  37.839   4.854   9.984
49232W        W 8977  31.032  22.637   4.792
49233W        W 8978   5.434   7.755   2.813
49234W        W 8979  14.274  29.491   4.693
49235W        W 8980  28.943  28.045   0.356
49236W        W 8981   8.271  14.655  11.066
49237W        W 8982   1.259  37.023  14.423
49238W        W 8983  16.592  17.252  14.841
49239W        W 8984  32.983   0.904  11.017
49240W        W 8985  25.130   1.934   4.244
49241W        W 8986   3.302   6.268   4.212
49242W        W 8987  21.630  14.679  13.930
49243W        W 8988  24.607  39.818  14.499
49244W        W 8989  39.988  13.128  13.864
49245W        W 8990  16.161  38.074   0.861
49246W        W 8991   1.958  24.042   2.367
49247W        W 8992  38.380  31.524   0.354
49248W        W 8993  38.529  11.173  11.525
49249W        W 8994  39.818   7.222   2.231
49250W        W 8995  18.756  31.012  13.974
49251W        W 8996  26.595  26.141  14.437
49252W        W 8997  26.602  13.206  13.902
49253W        W 8998   4.390   6.823  10.489
49254W        W 8999  35.942  14.243  11.990
49255W        W 9000  41.831  42.316   0.292
49256W        W 9001   8.370  13.233   3.832
49257W        W 9002  36.506  29.016  10.534
49258W        W 9003  31.520   7.338   1.750
49259W        W 9004  38.936  35.031   4.291
49260W        W 9005  11.288  43.917   3.351
49261W        W 9006  18.566  22.028   1.270
49262W        W 9007   4.334  26.651   0.858
49263W        W 9008  16.702   9.284   0.443
49264W        W 9009  21.217   1.417  11.945
49265W        W 9010  19.198  23.597   2.698
49266W        W 9011   0.451  29.075   1.217
49267W        W 9012  15.727   9.330   3.735
49268W        W 9013  42.891  41.921   3.669
49269W        W 9014  15.793  16.079   0.891
49270W        W 9015  10.676   9.353  13.367
49271W        W 9016  43.829  40.492   2.217
49272W        W 9017  38.565  34.951   1.281
49273W        W 9018   0.834  42.892   2.725
49274W        W 9019   8.893  20.523  10.083
49275W        W 9020  37.966  42.386  11.526
49276W        W 9021   2.411  33.582  14.994
49277W        W 9022   8.837  35.103  14.294
49278W        W 9023  43.807  20.164  13.847
49279W        W 9024  13.298   5.397  10.977
49280W        W 9025  39.317   3.255  12.911
49281W        W 9026  40.957  34.088   3.150
49282W        W 9027   9.678  41.447  13.932
49283W        W 9028  37.878  39.844  12.945
49284W        W 9029  22.542  40.338   2.348
49285W        W 9030  31.073  40.054   1.323
49286W        W 9031  42.521  34.965  12.507
49287W        W 9032   0.484  19.225   3.262
49288W        W 9033   7.268   4.870  10.501
49289W        W 9034  14.822  19.735  13.978
49290W        W 9035   7.843  37.352  11.610
49291W        W 9036  19.577  39.547  11.965
49292W        W 9037  16.674   0.745  12.536
49293W        W 9038  20.213  11.203  11.115
49294W        W 9039  12.729  10.807  12.408
49295W        W 9040  17.256  13.630  10.406
49296W        W 9041   4.379  38.509  10.024
49297W        W 9042   7.666  20.138   0.864
49298W        W 9043  12.618  15.581  14.510
49299W        W 9044  43.301  15.582  12.842
49300W        W 9045  44.448  14.814   4.243
49301W        W 9046   9.727  18.629   3.228
49302W        W 9047  38.453  44.327   0.294
49303W        W 9048  43.498  26.125  14.897
49304W        W 9049  11.220  34.081   1.712
49305W        W 9050  39.536  22.554  11.607
49306W        W 9051  12.191  33.499  14.497
49307W        W 9052  20.231  34.382  12.508
49308W        W 9053   8.818   7.894   4.228
49309W        W 9054  31.618  18.274   4.280
49310W        W 9055  23.025  37.476   0.357
49311W        W 9056   4.271  22.649  10.963
49312W        W 9057   8.688  19.761   3.766
49313W        W 9058  17.685   8.673  13.795
49314W        W 9059  16.167  32.915   9.948
49315W        W 9060  14.286   4.730   0.432
49316W        W 9061  22.532  40.030  13.037
49317W        W 9062   1.783  27.622   0.937
49318W        W 9063  42.789  25.560   2.202
49319W        W 9064  34.086  39.443  10.451
49320W        W 9065  33.514  33.904   5.232
49321W        W 9066  40.336  43.289  12.532
49322W        W 9067  32.507  42.856  14.942
49323W        W 9068  29.983  34.062  10.407
49324W        W 9069  44.268  42.782  13.359
49325W        W 9070   0.779   3.716   0.342
49326W        W 9071  11.136  36.364   2.705
49327W        W 9072   4.763  36.847   4.115
49328W        W 9073   1.401  24.007   4.659
49329W        W 9074  32.501   1.916   1.428
49330W        W 9075  28.028   6.738   0.437
49331W        W 9076  20.071  38.010  14.415
49332W        W 9077  31.475  31.611  13.873
49333W        W 9078   1.802  15.729   2.338
49334W        W 9079  32.549  28.576  14.962
49335W        W 9080  43.271  22.237   0.262
49336W        W 9081  36.363   6.693  13.850
49337W        W 9082  20.542   1.898   0.391
49338W        W 9083  43.957   0.845   2.314
49339W        W 9084  19.553  43.315   0.847
49340W        W 9085  33.480  21.027   0.735
49341W        W 9086   4.902  18.142   0.436
49342W        W 9087  15.304  25.536   4.730
49343W        W 9088  29.942  34.039  12.447
49344W        W 9089  13.196  43.983   0.246
49345W        W 9090   2.334  22.049   0.756
49346W        W 9091  26.560  22.670   0.289
49347W        W 9092  37.515  36.543  11.525
49348W        W 9093  11.742  43.904  13.002
49349W        W 9094   6.718  42.983  11.073
49350W        W 9095   9.276  26.474   4.710
49351W        W 9096  37.861  30.471  14.012
49352W        W 9097  12.759  25.711   0.914
49353W        W 9098   1.852  11.366  12.053
49354W        W 9099  44.822   6.897   1.901
49355W        W 9100  41.998  44.482  14.940
49356W        W 9101   7.741  29.980  14.411
49357W        W 9102   8.341  21.673  13.495
49358W        W 9103   3.379   1.785   3.246
49359W        W 9104  38.011  34.482  13.385
49360W        W 9105  10.824   0.291  10.462
49361W        W 9106  23.670   1.961  12.030
49362W        W 9107  41.404  26.678   3.810
49363W        W 9108  26.006   1.975  14.021
49364W        W 9109  20.215  37.518  11.480
49365W        W 9110  36.541  34.499   3.866
49366W        W 9111  39.063  23.597  13.322
49367W        W 9112  33.585  26.134  13.518
49368W        W 9113  14.781  37.449   4.733
49369W        W 9114  22.527   8.655   0.966
49370W        W 9115   5.415  20.145   4.714
49371W        W 9116  25.554  11.275  11.058
49372W        W 9117  36.461  17.136   1.446
49373W        W 9118  36.353  28.940  13.342
49374W        W 9119  12.690  44.952   4.120
49375W        W 9120   9.294  36.486   4.287
49376W        W 9121  32.069  27.166   2.319
49377W        W 9122  38.363  34.430   2.335
49378W        W 9123  30.413  31.943  11.384
49379W        W 9124   0.809  18.728   2.796
49380W        W 9125  40.820  27.186  11.924
49381W        W 9126   4.737  12.706   4.348
49382W        W 9127  25.497  44.364  14.925
49383W        W 9128   4.833  39.842  11.128
49384W        W 9129  19.176   3.321  13.057
49385W        W 9130  29.437  37.521  10.991
49386W        W 9131  29.103   3.393  13.976
49387W        W 9132  44.904  27.110   1.281
49388W        W 9133  28.453  21.718  11.534
49389W        W 9134  28.563  40.375  10.478
49390W        W 9135   7.264  31.454   3.797
49391W        W 9136  24.638   3.935  11.910
49392W        W 9137  34.532  36.439   1.788
49393W        W 9138  37.429  17.251  12.524
49394W        W 9139   9.882  36.497   1.350
49395W        W 9140  12.843  12.189   2.374
49396W        W 9141  15.266  36.422  12.976
49397W        W 9142  13.721  12.701   2.768
49398W        W 9143  11.172  29.173  11.462
49399W        W 9144  10.673  27.568  12.834
49400W        W 9145  15.669   7.754   5.311
49401W        W 9146  37.514  32.492   5.191
49402W        W 9147   9.855  42.953  11.529
49403W        W 9148  31.992  34.555   2.820
49404W        W 9149   9.272  30.977  10.520
49405W        W 9150  15.719   4.744  14.973
49406W        W 9151  23.188   4.259   0.759
49407W        W 9152   0.937  31.928   2.803
49408W        W 9153   0.948  25.564  12.963
49409W        W 9154  33.944  33.506  14.482
49410W        W 9155  38.833   7.402   4.821
49411W        W 9156  18.770  22.127  11.581
49412W        W 9157  10.711  21.629  10.588
49413W        W 9158  33.019  23.136   3.171
49414W        W 9159  36.964  44.428   1.333
49415W        W 9160  28.970  11.749   4.211
49416W        W 9161  27.627  17.612   2.791
49417W        W 9162  30.646   8.693   9.981
49418W        W 9163  17.301  37.434  12.579
49419W        W 9164  35.974  10.746  11.913
49420W        W 9165   3.396  26.052  13.353
49421W        W 9166  14.117  18.097   3.723
49422W        W 9167  25.475   6.375   2.831
49423W        W 9168  34.876  12.716   1.854
49424W        W 9169  11.682  15.802   4.310
49425W        W 9170   7.896   3.425   2.211
49426W        W 9171   9.338  35.558   0.352
49427W        W 9172  21.687   6.241   4.353
49428W        W 9173  31.966  30.123   5.761
49429W        W 9174  39.827  31.114  13.851
49430W        W 9175  18.629  35.976  13.514
49431W        W 9176  13.224  28.984  10.985
49432W        W 9177  40.427  12.624  12.414
49433W        W 9178  40.803  31.096  13.916
49434W        W 9179  12.287  16.766  10.625
49435W        W 9180  40.797   2.235   3.796
49436W        W 9181   8.744  40.531   4.610
49437W        W 9182   2.232  16.121  14.980
49438W        W 9183  31.448  43.385   0.888
49439W        W 9184  20.170  26.510  10.474
49440W        W 9185   4.778  32.909  10.548
49441W        W 9186  25.980  43.788   0.269
49442W        W 9187  40.915  40.921  10.932
49443W        W 9188   1.335  43.891   1.382
49444W        W 9189  16.147  23.126   0.480
49445W        W 9190   1.882  32.083  13.403
49446W        W 9191   2.286  39.527  11.034
49447W        W 9192  27.941  40.360  14.990
49448W        W 9193   0.745   7.315   0.924
49449W        W 9194  41.485   6.259  12.087
49450W        W 9195   0.261   5.280  13.958
49451W        W 9196   4.720  20.607   4.604
49452W        W 9197  35.517  27.590  13.852
49453W        W 9198  24.084   8.823   3.325
49454W        W 9199  44.489  40.928   2.818
49455W        W 9200   8.656  35.464   2.743
49456W        W 9201  28.462  20.057   0.809
49457W        W 9202  35.012  16.726   1.231
49458W        W 9203  22.535   7.903  11.510
49459W        W 9204  38.012  32.571   0.917
49460W        W 9205   4.757  23.112  13.983
49461W        W 9206  32.086  36.540  14.397
49462W        W 9207   2.463  15.683   4.276
49463W        W 9208   7.767   6.752  10.986
49464W        W 9209  34.492  27.947  14.381
49465W        W 9210  10.371   2.737  14.496
49466W        W 9211  26.993  36.030   0.288
49467W        W 9212   9.299   4.213   2.820
49468W        W 9213  18.110  37.068  13.897
49469W        W 9214  34.598   0.405  12.478
49470W        W 9215   4.709   0.427  12.552
49471W        W 9216  26.684  14.252  14.415
49472W        W 9217  41.006  27.078  13.909
49473W        W 9218  22.598   0.980   2.792
49474W        W 9219   8.405  22.218  14.278
49475W        W 9220  23.150  43.348  10.413
49476W        W 9221   1.810  35.550   0.794
49477W        W 9222  40.485  12.627  13.324
49478W        W 9223  33.091   0.764   2.681
49479W        W 9224   4.858  10.243   5.153
49480W        W 9225  15.171  30.423   4.635
49481W        W 9226  27.110  33.567   3.669
49482W        W 9227  30.917  34.545  13.449
49483W        W 9228  44.396  10.794  12.051
49484W        W 9229  21.609   2.852   5.146
49485W        W 9230  44.928  16.120  12.376
49486W        W 9231  15.802   2.312  12.870
49487W        W 9232  36.978   9.765  12.427
49488W        W 9233  10.261  30.497  12.558
49489W        W 9234  44.469  20.566   2.273
49490W        W 9235  23.685  39.477  14.784
49491W        W 9236  30.991  15.715   3.366
49492W        W 9237  20.619  18.061  11.939
49493W        W 9238   1.918  13.720  13.899
49494W        W 9239  19.148  41.839   0.252
49495W        W 9240  35.363  31.582   1.741
49496W        W 9241  24.705   0.327  12.355
49497W        W 9242   4.301  42.495  11.029
49498W        W 9243  24.497   1.382  11.973
49499W        W 9244  29.125  32.411  11.566
49500W        W 9245  14.146  32.426   2.819
49501W        W 9246  14.114  13.217   4.145
49502W        W 9247  13.599  31.609  12.462
49503W        W 9248  40.490   7.819  14.842
49504W        W 9249  35.081  15.254   2.676
49505W        W 9250  26.031  37.021   4.636
49506W        W 9251  21.597  40.468   3.752
49507W        W 9252  32.925  20.745  11.127
49508W        W 9253  42.841  35.933   2.838
49509W        W 9254  20.044  26.983  12.077
49510W        W 9255  26.616  30.911   0.345
49511W        W 9256   3.804  18.162   5.567
49512W        W 9257  32.613  14.813   4.120
49513W        W 9258  11.295  24.550  11.379
49514W        W 9259  33.057  29.476   3.208
49515W        W 9260   0.919   5.306  11.127
49516W        W 9261   7.198   4.390   4.230
49517W        W 9262   7.393   0.805  10.527
49518W        W 9263  14.302  37.984   2.217
49519W        W 9264   8.789  25.563   5.219
49520W        W 9265  28.533  32.610  11.573
49521W        W 9266  11.701  17.258  11.461
49522W        W 9267  21.025  15.206  11.562
49523W        W 9268  32.057   3.237   4.158
49524W        W 9269  23.123  27.622   3.840
49525W        W 9270  23.541   6.199  12.839
49526W        W 9271  40.332  38.949   4.776
49527W        W 9272   0.896   0.762   4.668
49528W        W 9273  11.274  21.688   4.738
49529W        W 9274   3.326  37.834   5.282
49530W        W 9275  10.259  35.869   4.634
49531W        W 9276  33.616   0.281  10.957
49532W        W 9277   2.378  32.446   3.771
49533W        W 9278  27.020  34.605   2.221
49534W        W 9279  10.244  18.160   3.691
49535W        W 9280   0.325   8.864  11.580
49536W        W 9281  28.650   9.242   0.323
49537W        W 9282  42.515  32.133   2.328
49538W        W 9283  10.752  10.643   4.262
49539W        W 9284  22.234   3.804   2.237
49540W        W 9285  11.262  22.577  11.048
49541W        W 9286  17.162  23.129   3.647
49542W        W 9287  32.018  30.076  10.543
49543W        W 9288  37.492  40.331   4.220
49544W        W 9289   6.348  17.592   4.759
49545W        W 9290  20.565  14.270   1.277
49546W        W 9291   2.794  41.973  11.919
49547W        W 9292  12.736  15.587  14.774
49548W        W 9293  27.473  21.734   3.313
49549W        W 9294  40.862  20.740  12.567
49550W        W 9295  33.523   6.188   3.239
49551W        W 9296  27.192  21.054  12.568
49552W        W 9297  22.531  37.904  11.534
49553W        W 9298  38.972  14.145  14.463
49554W        W 9299  40.051  24.555   3.709
49555W        W 9300  25.045   2.867  13.312
49556W        W 9301  21.137  20.735   1.364
49557W        W 9302  20.238  22.153  12.509
49558W        W 9303   0.952  39.399  10.107
49559W        W 9304  22.580  39.057  11.118
49560W        W 9305  12.719   6.706  10.438
49561W        W 9306  33.486   6.851   2.214
49562W        W 9307   0.754  12.256   4.282
49563W        W 9308   1.380  36.412   1.739
49564W        W 9309  44.394  36.370  14.508
49565W        W 9310  21.093   0.294   0.748
49566W        W 9311  19.668  35.493   1.248
49567W        W 9312  42.373   7.255   3.292
49568W        W 9313  44.285   8.181  10.541
49569W        W 9314  27.193  20.145   3.286
49570W        W 9315  43.421   2.799  12.075
49571W        W 9316  28.102  27.068   1.732
49572W        W 9317  27.168   8.733   3.784
49573W        W 9318  12.246  36.006  13.520
49574W        W 9319  14.652  32.430   5.091
49575W        W 9320  41.395  28.579   2.868
49576W        W 9321  10.212  38.966   5.280
49577W        W 9322   5.235  36.380   0.381
49578W        W 9323  22.621   5.218   0.252
49579W        W 9324  12.803   0.286   1.819
49580W        W 9325  25.165  39.966   4.712
49581W        W 9326  27.619  27.551   3.269
49582W        W 9327   1.459  41.961   2.282
49583W        W 9328  24.078  43.788  12.040
49584W        W 9329   0.800  38.450  13.036
49585W        W 9330  22.050   8.880  10.465
49586W        W 9331  15.747  22.553  12.040
49587W        W 9332  13.716   7.186   1.743
49588W        W 9333  27.181  24.520  11.440
49589W        W 9334  14.778  30.448  11.500
49590W        W 9335  14.740  24.172  11.862
49591W        W 9336  31.427  28.174   1.301
49592W        W 9337  16.626   8.353   2.191
49593W        W 9338  17.147   6.390   2.236
49594W        W 9339  22.029  21.214  14.847
49595W        W 9340  34.586   8.381   3.855
49596W        W 9341   0.300  44.272   3.260
49597W        W 9342   4.427  12.212   3.184
49598W        W 9343  11.231  28.451  11.463
49599W        W 9344  26.087  36.848   1.359
49600W        W 9345  23.515  38.021   0.792
49601W        W 9346  21.117   4.934   4.764
49602W        W 9347  44.986  20.162   1.391
49603W        W 9348  38.060  29.103   0.865
49604W        W 9349  37.857  21.584  12.412
49605W        W 9350  42.797  13.284   4.821
49606W        W 9351  23.564  11.230   0.878
49607W        W 9352  44.471   4.823  12.052
49608W        W 9353  43.977  39.434  12.977
49609W        W 9354  11.681   1.301   1.712
49610W        W 9355  16.738  35.053   2.793
49611W        W 9356  24.597  18.243  10.509
49612W        W 9357  20.168  21.055  13.503
49613W        W 9358  41.433  13.725  14.497
49614W        W 9359  27.054   6.420   1.782
49615W        W 9360  40.482  10.734  13.949
49616W        W 9361   1.742   8.369   4.279
49617W        W 9362  37.454  25.096  14.839
49618W        W 9363   8.314  14.784  12.469
49619W        W 9364  37.055   2.421   1.774
49620W        W 9365   1.417  10.332  14.803
49621W        W 9366  36.542  12.220  11.913
49622W        W 9367  33.070  12.674   3.232
49623W        W 9368  32.418  28.661  13.399
49624W        W 9369   1.387  35.538   3.771
49625W        W 9370  25.514  29.529   1.777
49626W        W 9371   7.389  42.309  13.487
49627W        W 9372  39.329  31.522  12.081
49628W        W 9373  13.626  31.048  11.077
49629W        W 9374  28.538  24.057   3.282
49630W        W 9375   7.257  38.346   2.400
49631W        W 9376  43.979  26.082   4.735
49632W        W 9377  44.472  44.792  14.937
49633W        W 9378  32.413  44.332  14.446
49634W        W 9379  42.979  43.325  12.379
49635W        W 9380  34.869   9.838   4.600
49636W        W 9381   7.340  31.062   0.783
49637W        W 9382  11.127  28.130   4.655
49638W        W 9383  20.555  33.029   4.150
49639W        W 9384  38.017  26.661   3.846
49640W        W 9385  11.734  29.504  10.074
49641W        W 9386   8.297   9.685  13.326
49642W        W 9387  21.141  31.609  11.401
49643W        W 9388  17.588  23.696  11.874
49644W        W 9389  21.698  28.073   4.797
49645W        W 9390  10.211  16.716  10.130
49646W        W 9391  34.457  37.014  14.914
49647W        W 9392  23.066   4.811   4.144
49648W        W 9393  24.615  42.502   4.607
49649W        W 9394  10.362   4.745   2.755
49650W        W 9395  19.076  29.610   1.213
49651W        W 9396  36.563  28.168  11.886
49652W        W 9397   0.280   9.388   0.357
49653W        W 9398  10.828  11.189  11.054
49654W        W 9399  26.459   2.439  14.026
49655W        W 9400  12.745  16.229   0.318
49656W        W 9401  34.891  12.683  10.441
49657W        W 9402  28.517  24.493   0.787
49658W        W 9403  37.444   7.276  11.498
49659W        W 9404  37.930  25.628  10.585
49660W        W 9405   9.675  25.627   3.725
49661W        W 9406  41.897  31.467  11.449
49662W        W 9407  34.959  12.225  13.507
49663W        W 9408  43.462  11.145  13.421
49664W        W 9409  25.171  32.603  10.560
49665W        W 9410  42.375  29.058   0.298
49666W        W 9411  32.565   2.965   0.323
49667W        W 9412  18.582  31.030  13.365
49668W        W 9413  25.530  12.151   4.205
49669W        W 9414  10.783  15.302  11.586
49670W        W 9415  29.468  17.215   3.177
49671W        W 9416  13.600  18.129   4.294
49672W        W 9417  40.871   8.202   3.808
49673W        W 9418  18.714  35.040   2.769
49674W        W 9419  32.487  29.123   2.358
49675W        W 9420  17.786  21.536   0.458
49676W        W 9421  37.511   5.336   1.824
49677W        W 9422  28.164  30.152   4.781
49678W        W 9423  15.648  15.275  13.888
49679W        W 9424  36.011  38.461  10.945
49680W        W 9425   4.257  30.930  10.424
49681W        W 9426   8.760  12.237  12.847
49682W        W 9427  19.577   7.705   3.728
49683W        W 9428   0.919  44.495  13.521
49684W        W 9429  42.983  40.850  14.469
49685W        W 9430   9.372  24.020   1.811
49686W        W 9431   0.970  21.210   0.252
49687W        W 9432  41.327  23.189  11.376
49688W        W 9433  35.513  13.304   4.251
49689W        W 9434  22.551  44.776  11.453
49690W        W 9435  41.024  10.233   1.722
49691W        W 9436   6.324  15.305   2.368
49692W        W 9437  16.233   1.429  12.467
49693W        W 9438  31.547  10.305   2.663
49694W        W 9439   0.378  23.154  14.461
49695W        W 9440  10.362  37.866  10.933
49696W        W 9441  18.094   6.249   4.266
49697W        W 9442  37.365   5.232  14.408
49698W        W 9443  15.822   5.703   0.748
49699W        W 9444  24.976  18.779   3.749
49700W        W 9445  43.957  29.073  11.018
49701W        W 9446  22.137  24.136   4.748
49702W        W 9447  17.092  21.623   0.765
49703W        W 9448  24.990  39.046   4.827
49704W        W 9449  20.697   5.764   4.330
49705W        W 9450   7.725   6.187   3.763
49706W        W 9451   6.788  28.070   2.892
49707W        W 9452  26.972  29.494  11.586
49708W        W 9453  41.804  25.162   4.240
49709W        W 9454  11.722  42.364  12.011
49710W        W 9455  35.550  32.532   3.157
49711W        W 9456  15.579  37.871   9.523
49712W        W 9457  29.556  35.423  14.835
49713W        W 9458   8.286  36.068   4.754
49714W        W 9459   3.924  33.393  12.462
49715W        W 9460  29.098   6.422   3.252
49716W        W 9461  21.531  22.550  13.058
49717W        W 9462  22.164   6.288   5.274
49718W        W 9463   7.891  17.717   3.782
49719W        W 9464   3.397  28.981   0.244
49720W        W 9465  30.023  41.536   2.271
49721W        W 9466  39.837  23.068   4.735
49722W        W 9467  34.009   1.423   1.420
49723W        W 9468   8.720   1.310   2.847
49724W        W 9469  19.684  44.787   4.284
49725W        W 9470  25.176  35.974  10.541
49726W        W 9471  40.013  23.213   3.787
49727W        W 9472  31.076   7.866   0.862
49728W        W 9473   4.398  19.166   2.336
49729W        W 9474  26.552   5.734  13.437
49730W        W 9475  39.320  34.870  14.350
49731W        W 9476  26.688  29.962   2.224
49732W        W 9477  14.292  42.790   2.269
49733W        W 9478   1.338  22.170   3.332
49734W        W 9479  18.193  39.921   0.806
49735W        W 9480  17.606  27.094  10.505
49736W        W 9481  28.128  26.156  14.365
49737W        W 9482  39.507  19.604   0.323
49738W        W 9483  16.598  10.640   0.869
49739W        W 9484   5.422   1.823  13.958
49740W        W 9485  38.819  14.696  12.555
49741W        W 9486  15.184  43.323  14.943
49742W        W 9487   3.332  32.397  13.370
49743W        W 9488   5.273  22.146  11.127
49744W        W 9489  17.705   2.431  11.479
49745W        W 9490  41.319   3.951   2.249
49746W        W 9491  37.446  26.611   0.830
49747W        W 9492  30.574  11.639  12.384
49748W        W 9493  11.215  31.018   4.636
49749W        W 9494  36.007  10.196  13.470
49750W        W 9495  43.780   3.427  11.502
49751W        W 9496   8.815  11.768   1.397
49752W        W 9497   4.272   7.706  12.425
49753W        W 9498  14.801   9.669   3.312
49754W        W 9499  13.609  29.014  13.028
49755W        W 9500  23.174   8.732   1.819
49756W        W 9501  11.650  32.947  12.357
49757W        W 9502  31.896  19.066   3.263
49758W        W 9503  25.487  18.052   0.396
49759W        W 9504  16.607  33.405  12.417
49760W        W 9505   1.911  21.042  12.339
49761W        W 9506  19.166  36.522   0.910
49762W        W 9507  35.881  11.288  11.897
49763W        W 9508   0.447  20.227   4.169
49764W        W 9509  11.256  23.132  13.372
49765W        W 9510   6.901   9.888   0.477
49766W        W 9511   6.805  27.038   3.653
49767W        W 9512  14.670   2.470   2.827
49768W        W 9513  32.571  32.074   1.894
49769W        W 9514  16.623   1.239  14.863
49770W        W 9515  21.218  42.836  12.358
49771W        W 9516  28.614   4.740  13.401
49772W        W 9517  34.505  29.501  14.420
49773W        W 9518  11.191  42.426   4.644
49774W        W 9519  38.400  33.069  11.056
49775W        W 9520  22.091  16.599   3.175
49776W        W 9521  34.073  44.011   4.767
49777W        W 9522  32.537  29.664   2.792
49778W        W 9523   7.215  19.207  11.591
49779W        W 9524  44.766  24.075   0.758
49780W        W 9525  20.740   6.785  14.952
49781W        W 9526  23.590  31.083   5.235
49782W        W 9527  33.539   4.372  12.889
49783W        W 9528  32.042  34.395  10.607
49784W        W 9529  16.078  44.840   1.899
49785W        W 9530  34.058  31.928  14.013
49786W        W 9531  11.793  33.071   1.376
49787W        W 9532  30.074  27.052   5.665
49788W        W 9533  11.862   3.898  13.964
49789W        W 9534  43.502  23.088   4.615
49790W        W 9535  32.491  32.414  12.838
49791W        W 9536  44.809  42.434   3.218
49792W        W 9537  16.753  39.972  14.031
49793W        W 9538  20.066  11.259   0.268
49794W        W 9539  39.918  11.164   4.645
49795W        W 9540  21.205   7.300  11.058
49796W        W 9541   1.239   0.935  14.807
49797W        W 9542  12.351  18.790  10.629
49798W        W 9543   1.874  44.848   3.351
49799W        W 9544   2.366  21.241   1.883
49800W        W 9545  12.646   9.882   3.151
49801W        W 9546   4.281  23.119  13.458
49802W        W 9547  43.362  43.423   0.480
49803W        W 9548  10.806  36.997  11.980
49804W        W 9549  23.690   5.344   4.776
49805W        W 9550   9.725   6.783   4.326
49806W        W 9551  11.648   0.837   3.170
49807W        W 9552  40.514  13.109  14.420
49808W        W 9553   1.351  27.658   3.669
49809W        W 9554  38.026   9.364  11.423
49810W        W 9555  29.656  28.454   1.722
49811W        W 9556  42.471  39.333  14.436
49812W        W 9557  44.771  30.486   5.169
49813W        W 9558  37.882  33.412   0.789
49814W        W 9559   2.258  35.865  10.548
49815W        W 9560  38.410  31.451  11.020
49816W        W 9561  37.069  42.781   4.726
49817W        W 9562   0.292  28.509   2.384
49818W        W 9563   1.937  33.514  10.625
49819W        W 9564  16.148  38.075   2.677
49820W        W 9565  15.781  20.675   2.255
49821W        W 9566  40.311  21.157  11.110
49822W        W 9567  40.949  22.564   3.261
49823W        W 9568  41.471   2.866  11.881
49824W        W 9569  14.096  30.607  12.027
49825W        W 9570  18.221   6.696  10.987
49826W        W 9571  43.337   5.401  11.403
49827W        W 9572  39.476  33.563  14.890
49828W        W 9573  13.342  40.429   0.763
49829W        W 9574  37.529  13.231  14.461
49830W        W 9575  18.175  37.880  11.059
49831W        W 9576  24.119  11.749   3.815
49832W        W 9577  11.837  39.488   2.665
49833W        W 9578  42.511  22.231  12.515
49834W        W 9579   7.317  27.051  11.394
49835W        W 9580   1.458  22.016   2.718
49836W        W 9581  30.618   7.800  11.900
49837W        W 9582  39.024  16.586   1.229
49838W        W 9583  21.188  41.982   0.402
49839W        W 9584  11.836  17.583   2.678
49840W        W 9585  22.676  19.055  11.500
49841W        W 9586  43.865   9.704  12.834
49842W        W 9587  32.024   6.334  13.987
49843W        W 9588  20.216   7.727  11.009
49844W        W 9589   9.280  34.104   0.265
49845W        W 9590   4.755  39.007   0.298
49846W        W 9591   7.367   4.413   4.799
49847W        W 9592  39.439  34.556  13.915
49848W        W 9593  17.675  17.153  14.992
49849W        W 9594  39.331  27.652   3.150
49850W        W 9595  30.144  26.097   1.802
49851W        W 9596  12.127  41.407   3.340
49852W        W 9597  44.307  27.021   0.917
49853W        W 9598  30.507  20.147   2.283
49854W        W 9599  14.226  12.321  10.632
49855W        W 9600  35.439   9.828   1.224
49856W        W 9601   4.833   5.931  13.926
49857W        W 9602  43.505  16.130   0.832
49858W        W 9603  13.151  29.074   4.716
49859W        W 9604  25.612  38.926  12.496
49860W        W 9605  33.394  37.484   2.884
49861W        W 9606   9.154  12.835   4.313
49862W        W 9607  25.552  35.404   1.787
49863W        W 9608  22.659  22.620   4.183
49864W        W 9609  37.490  32.070   2.346
49865W        W 9610  18.721  25.679   4.349
49866W        W 9611  26.578  38.966   2.760
49867W        W 9612  14.719   3.749   1.800
49868W        W 9613  18.634  39.872   3.797
49869W        W 9614  28.096   5.256  11.492
49870W        W 9615  24.143   5.294  10.575
49871W        W 9616  23.663  42.003  12.364
49872W        W 9617  40.469  15.753  11.964
49873W        W 9618  42.313  28.970   1.880
49874W        W 9619  11.754  25.093  11.422
49875W        W 9620  28.066   7.824  14.940
49876W        W 9621  12.185  29.990   3.205
49877W        W 9622  14.607  20.176   0.291
49878W        W 9623  41.955  43.895   3.730
49879W        W 9624  19.656  26.195  13.977
49880W        W 9625  12.743   0.820  10.468
49881W        W 9626  29.088   9.882   1.904
49882W        W 9627  10.302  16.112  13.469
49883W        W 9628  38.950  37.432  10.903
49884W        W 9629  18.597  32.024   4.155
49885W        W 9630  27.619   2.859   1.777
49886W        W 9631   5.808  40.994   4.137
49887W        W 9632  32.443  41.327   4.201
49888W        W 9633  19.776  13.640   3.286
49889W        W 9634   7.291   1.375   4.648
49890W        W 9635  23.495  17.144   4.120
49891W        W 9636  37.482  22.622  12.921
49892W        W 9637  10.150  31.632   2.201
49893W        W 9638   1.384  40.343   2.286
49894W        W 9639  40.895   4.924  14.993
49895W        W 9640  40.916  27.121   2.879
49896W        W 9641  14.298  15.233   4.621
49897W        W 9642  20.581  36.455  10.992
49898W        W 9643  36.379   8.845  12.434
49899W        W 9644  41.494   6.887   3.327
49900W        W 9645  39.039  42.968   1.805
49901W        W 9646  26.673  26.582   2.696
49902W        W 9647  21.676  32.097  14.513
49903W        W 9648  25.637  26.612  13.364
49904W        W 9649   0.978  26.639  12.542
49905W        W 9650   6.398  22.138   1.309
49906W        W 9651  19.687   6.336   2.835
49907W        W 9652  22.160  30.129  13.794
49908W        W 9653  33.552  36.419   2.855
49909W        W 9654  32.939   7.240  10.948
49910W        W 9655   3.414  25.629   1.415
49911W        W 9656  36.415   8.818  10.614
49912W        W 9657  28.532  27.538  11.890
49913W        W 9658  35.063  25.017  14.515
49914W        W 9659  40.480  34.102  12.446
49915W        W 9660   8.863  35.005   4.227
49916W        W 9661   0.255  32.542  12.900
49917W        W 9662  43.415  37.422  11.128
49918W        W 9663  39.858   0.820  13.434
49919W        W 9664  43.433  20.264  14.497
49920W        W 9665  20.696  30.968   0.856
49921W        W 9666  44.893  12.133  10.574
49922W        W 9667   5.804  18.603   4.831
49923W        W 9668  13.225  19.727  11.983
49924W        W 9669  14.708  13.630  11.926
49925W        W 9670   2.294  14.698   2.282
49926W        W 9671  31.584   4.933   0.851
49927W        W 9672   6.697  44.485  13.509
49928W        W 9673  44.777  20.184   3.223
49929W        W 9674   4.216  24.665   3.864
49930W        W 9675  16.806  19.691  14.516
49931W        W 9676  35.412  26.615   4.229
49932W        W 9677  18.083   6.902   1.376
49933W        W 9678   5.911  22.240   0.898
49934W        W 9679  22.147  28.515  11.855
49935W        W 9680  34.522   3.913   0.830
49936W        W 9681  43.366   6.415  13.989
49937W        W 9682  17.634  35.084   4.726
49938W        W 9683  19.731  24.601   4.114
49939W        W 9684  13.141  38.892   2.792
49940W        W 9685   7.855  18.053   3.236
49941W        W 9686  16.316  38.423   1.764
49942W        W 9687  29.993  37.371   3.652
49943W        W 9688  42.976  38.522  14.821
49944W        W 9689  29.482  22.147   0.889
49945W        W 9690  42.025  29.482   2.345
49946W        W 9691   3.307  14.664  13.968
49947W        W 9692   9.661  15.716  14.956
49948W        W 9693   2.762   2.946   0.907
49949W        W 9694  15.220   0.800  13.001
49950W        W 9695  42.896  44.908   2.233
49951W        W 9696  33.564  23.714  13.352
49952W        W 9697  14.276  24.163  14.398
49953W        W 9698  24.191  26.473   0.391
49954W        W 9699   1.270  32.558  14.912
49955W        W 9700  21.560  12.315   4.319
49956W        W 9701  18.186  26.190  13.026
49957W        W 9702  20.540  43.953   3.654
49958W        W 9703  10.792  25.551  14.941
49959W        W 9704  16.761  41.990  11.052
49960W        W 9705   7.273  22.663  14.025
49961W        W 9706   8.774  36.443  13.926
49962W        W 9707   3.332  39.560   0.318
49963W        W 9708   2.737  10.756  14.011
49964W        W 9709  25.529   9.268  12.534
49965W        W 9710  20.206  30.025  13.406
49966W        W 9711  29.541  31.099   2.843
49967W        W 9712  37.959  11.706  13.007
49968W        W 9713   7.690  28.582   2.853
49969W        W 9714  19.565  23.062  11.876
49970W        W 9715  31.122  24.161  14.351
49971W        W 9716  32.566  44.276   1.887
49972W        W 9717  41.826  27.498  10.931
49973W        W 9718  26.041  26.002  11.531
49974W        W 9719  25.488  27.612  12.531
49975W        W 9720  20.132   4.410  12.881
49976W        W 9721   3.811  28.111   3.679
49977W        W 9722   4.824  14.783  14.855
49978W        W 9723   9.785  39.522   4.258
49979W        W 9724  33.560  17.104  14.489
49980W        W 9725  32.437  22.608   0.898
49981W        W 9726  12.718   4.902   4.818
49982W        W 9727  21.622  34.448  11.126
49983W        W 9728  26.080   9.242   1.722
49984W        W 9729  15.776  30.513  14.313
49985W        W 9730  10.148  32.608   2.793
49986W        W 9731  18.103   4.938  12.411
49987W        W 9732  28.987   5.809  11.514
49988W        W 9733  20.554  23.079  10.899
49989W        W 9734  18.767  24.111   4.752
49990W        W 9735  23.725  22.029  11.984
49991W        W 9736   0.310  30.958   9.921
49992W        W 9737  40.474  34.867   1.380
49993W        W 9738   6.216   0.962   4.168
49994W        W 9739   3.729  16.140  12.396
49995W        W 9740  15.639  20.551   3.328
49996W        W 9741  43.404  44.269   3.715
49997W        W 9742  14.193  21.159   3.765
49998W        W 9743  25.977   3.808   2.357
49999W        W 9744  23.064  33.464  13.035
50000W        W 9745  32.590   3.903   5.623
50001W        W 9746  28.972  35.951  11.537
50002W        W 9747  21.663  20.180  11.098
50003W        W 9748  17.218   4.744  14.499
50004W        W 9749  14.109   1.288  13.507
50005W        W 9750  17.742   7.376  13.884
50006W        W 9751  34.444  36.982   0.467
50007W        W 9752   2.321  32.011  12.554
50008W        W 9753   3.260   5.881   0.884
50009W        W 9754  16.742  40.412   3.157
50010W        W 9755   7.303  32.562  13.405
50011W        W 9756   1.239  34.600   3.162
50012W        W 9757   1.826  33.556  14.939
50013W        W 9758  21.573  12.683  12.406
50014W        W 9759  21.152  19.136  13.329
50015W        W 9760  28.105  44.778   4.706
50016W        W 9761  29.144  20.552   2.709
50017W        W 9762  24.514  34.959   4.277
50018W        W 9763  29.466   3.939  10.997
50019W        W 9764  23.013  41.435   0.479
50020W        W 9765   4.778  12.348   0.839
50021W        W 9766  26.621   7.250   3.168
50022W        W 9767  37.902  16.725   0.444
50023W        W 9768  39.950  21.754  12.447
50024W        W 9769  23.656  25.008  11.477
50025W        W 9770   1.294  18.107   1.237
50026W        W 9771  39.974   9.227   2.374
50027W        W 9772  33.100  29.041  13.841
50028W        W 9773  22.045  22.049   2.852
50029W        W 9774  24.017  22.110  11.013
50030W        W 9775  17.263   9.219   1.281
50031W        W 9776   7.357  40.916   0.280
50032W        W 9777  43.802   0.447  14.447
50033W        W 9778   5.888  17.656   0.899
50034W        W 9779  26.610  16.159   3.346
50035W        W 9780  16.289  23.215   4.779
50036W        W 9781   4.414   7.760   1.327
50037W        W 9782  27.653  14.721  14.859
50038W        W 9783  29.108   5.201  13.028
50039W        W 9784  42.793  38.885  14.854
50040W        W 9785  26.457  13.219  14.327
50041W        W 9786   8.845  39.020   2.403
50042W        W 9787  10.293  18.746  13.966
50043W        W 9788  18.729  15.660   1.782
50044W        W 9789  42.779  13.135  12.993
50045W        W 9790   2.909   3.251  14.447
50046W        W 9791   9.783  15.287   0.896
50047W        W 9792  39.349  33.520  13.411
50048W        W 9793  14.171   8.374  13.435
50049W        W 9794   1.909  12.830  11.014
50050W        W 9795  10.849  30.128   4.651
50051W        W 9796  19.667  13.130   1.291
50052W        W 9797  27.003  10.314  10.027
50053W        W 9798  36.874  42.903  13.798
50054W        W 9799  38.520   7.805   0.406
50055W        W 9800  29.596   6.403   0.908
50056W        W 9801  10.799  15.636  10.899
50057W        W 9802  39.883  33.422   4.344
50058W        W 9803  39.491   7.710  13.362
50059W        W 9804  22.702  42.855   1.928
50060W        W 9805  41.814  11.326   2.307
50061W        W 9806  27.576  21.125  10.887
50062W        W 9807  41.423  35.417  13.983
50063W        W 9808  29.445  32.589   4.345
50064W        W 9809  33.902  23.025  14.837
50065W        W 9810   4.347  15.789  13.333
50066W        W 9811  37.422  23.614  10.435
50067W        W 9812  37.509   2.879   3.633
50068W        W 9813  41.530  38.461   3.680
50069W        W 9814  37.422  42.506  11.611
50070W        W 9815  13.810  39.843  14.466
50071W        W 9816  23.663  35.922   1.260
50072W        W 9817  44.792  29.173   0.966
50073W        W 9818   4.378  24.216  11.038
50074W        W 9819  32.527  40.516   4.651
50075W        W 9820  41.798  41.805   4.211
50076W        W 9821  10.811  40.473   2.794
50077W        W 9822  14.291  43.504   4.210
50078W        W 9823  43.955  21.223  11.955
50079W        W 9824  27.560   7.358  10.506
50080W        W 9825   4.328  18.719  12.868
50081W        W 9826  33.113  31.498  10.590
50082W        W 9827  30.907  13.652   2.381
50083W        W 9828   0.923  27.984  13.844
50084W        W 9829  40.944  23.560  13.537
50085W        W 9830  32.914   9.815  13.412
50086W        W 9831   0.251  24.591   2.763
50087W        W 9832  39.019   5.415  13.870
50088W        W 9833   5.760  30.963   0.362
50089W        W 9834  39.554  15.786  12.961
50090W        W 9835  42.521   0.833  14.302
50091W        W 9836  11.691  40.527   1.210
50092W        W 9837  34.107  12.633  13.341
50093W        W 9838  41.403  40.336  14.992
50094W        W 9839   0.798  24.556  14.402
50095W        W 9840  34.905  26.129   4.121
50096W        W 9841  31.146   0.460  14.390
50097W        W 9842  12.275  28.575   0.256
50098W        W 9843  20.132  40.886  11.445
50099W        W 9844  31.003  39.866  12.522
50100W        W 9845  16.304  44.332   2.228
50101W        W 9846  37.925  23.612  10.625
50102W        W 9847  18.585   4.866   2.698
50103W        W 9848  44.815   3.811   2.351
50104W        W 9849  33.549   9.825  13.363
50105W        W 9850  40.421  16.182  14.772
50106W        W 9851   7.227  17.264   0.903
50107W        W 9852  25.487   0.775   5.240
50108W        W 9853  32.072  13.248  11.518
50109W        W 9854   8.352  23.071   0.887
50110W        W 9855  36.495  33.110   3.293
50111W        W 9856  17.264  30.430   0.789
50112W        W 9857   5.780   4.361  11.037
50113W        W 9858  13.347  11.853   2.684
50114W        W 9859  41.313  32.445  13.837
50115W        W 9860  21.686   6.825  12.339
50116W        W 9861  20.198  29.169  14.306
50117W        W 9862  25.154   5.326  10.537
50118W        W 9863  18.550  26.161   4.306
50119W        W 9864  32.438  44.809  11.928
50120W        W 9865   4.310  12.761   2.785
50121W        W 9866  37.022  27.686   2.299
50122W        W 9867  18.224  28.114   2.296
50123W        W 9868  14.199  39.842   9.590
50124W        W 9869  31.931  31.510  12.530
50125W        W 9870  27.633  23.539  10.586
50126W        W 9871  24.065   0.985   4.143
50127W        W 9872  27.481  12.619  11.931
50128W        W 9873  37.839  31.911  10.071
50129W        W 9874  35.579  42.843  12.854
50130W        W 9875  15.085  22.209   2.802
50131W        W 9876  44.488  19.703  12.419
50132W        W 9877  18.092  14.237   3.642
50133W        W 9878   8.750  26.968   2.299
50134W        W 9879   7.317  31.021   4.661
50135W        W 9880  10.733  32.053  14.908
50136W        W 9881  29.115  43.946   1.913
50137W        W 9882  44.919  41.371  10.595
50138W        W 9883  14.764   1.827  13.848
50139W        W 9884   8.761   6.911   0.282
50140W        W 9885  12.728  26.558   0.382
50141W        W 9886  30.622  17.715  11.869
50142W        W 9887  11.310  18.168   0.244
50143W        W 9888   2.739  36.049   0.882
50144W        W 9889  25.498   4.759   1.261
50145W        W 9890   9.319   6.325   0.900
50146W        W 9891  44.351   5.850  13.005
50147W        W 9892  35.475  43.022   4.631
50148W        W 9893  11.232  29.480  13.826
50149W        W 9894  35.869  37.443  12.378
50150W        W 9895   2.434  12.726  11.494
50151W        W 9896  38.918  32.122   2.723
50152W        W 9897  43.916   7.861  13.907
50153W        W 9898   5.865  23.608   2.206
50154W        W 9899  43.458   1.884   5.089
50155W        W 9900  26.143   9.882   3.657
50156W        W 9901  23.133  42.019  11.930
50157W        W 9902  44.006  29.493   0.453
50158W        W 9903  31.502   7.713   3.845
50159W        W 9904   5.775   5.689  12.419
50160W        W 9905  15.620   6.854   2.197
50161W        W 9906  10.854  41.517  10.557
50162W        W 9907  36.994  38.503  10.973
50163W        W 9908  39.454  34.494   1.715
50164W        W 9909   7.848  29.155   0.873
50165W        W 9910  22.089  18.174  11.581
50166W        W 9911  34.450  16.118  11.054
50167W        W 9912   1.959  15.238   3.206
50168W        W 9913  20.108   7.237  10.455
50169W        W 9914  40.957  29.064   4.766
50170W        W 9915  24.718  16.643  14.821
50171W        W 9916  27.544  25.478   4.250
50172W        W 9917  14.784  18.157   1.251
50173W        W 9918   8.209  28.048  14.798
50174W        W 9919  10.876  25.697   4.767
50175W        W 9920  12.214  37.040  14.515
50176W        W 9921   8.733  41.788  13.829
50177W        W 9922  43.851  29.930  12.868
50178W        W 9923  22.180   1.732  12.952
50179W        W 9924  33.430   4.909   2.393
50180W        W 9925   1.331  25.486  12.349
50181W        W 9926  33.916   2.915   5.623
50182W        W 9927   7.396   8.697   2.191
50183W        W 9928  31.050  43.435   3.255
50184W        W 9929  17.101  14.799  12.057
50185W        W 9930  44.930  35.876   3.312
50186W        W 9931  33.529  16.687  13.474
50187W        W 9932  39.547  14.244   1.424
50188W        W 9933   1.409  20.743   1.310
50189W        W 9934  21.230  38.398  11.434
50190W        W 9935  27.585   2.267  14.761
50191W        W 9936   8.319   7.724   3.826
50192W        W 9937  36.841  28.177   3.629
50193W        W 9938  27.100   1.324  12.977
50194W        W 9939  14.723  16.126  13.503
50195W        W 9940  11.855  36.427   0.768
50196W        W 9941  11.206  40.954   2.754
50197W        W 9942  29.619  15.762   1.346
50198W        W 9943   1.439  33.963  12.832
50199W        W 9944  23.198  35.966   3.776
50200W        W 9945   0.257  27.590  14.957
50201W        W 9946  43.387  22.707  10.955
50202W        W 9947  24.093   7.767   2.327
50203W        W 9948  13.329  14.707  11.489
50204W        W 9949  18.183   5.705   1.225
50205W        W 9950  44.905  33.891   1.414
50206W        W 9951  33.078  33.566   4.117
50207W        W 9952  11.350  32.033   5.286
50208W        W 9953  35.414  27.648   1.345
50209W        W 9954  41.971  23.068   2.407
50210W        W 9955  30.443   2.757   3.712
50211W        W 9956  29.169  21.211   2.844
50212W        W 9957  35.104   2.962  11.090
50213W        W 9958  28.156  24.609  14.341
50214W        W 9959  33.902  38.438  13.038
50215W        W 9960  28.613   7.666  14.485
50216W        W 9961   1.861  12.800   2.843
50217W        W 9962   6.281   2.863   3.380
50218W        W 9963   9.829  22.046   2.742
50219W        W 9964  41.470  38.846  12.469
50220W        W 9965  36.436   8.213  10.473
50221W        W 9966  44.301  36.528  11.518
50222W        W 9967   7.787  31.535  12.887
50223W        W 9968  20.257  13.765   4.826
50224W        W 9969   1.353   5.423  14.808
50225W        W 9970  43.927   5.851  14.830
50226W        W 9971   0.960  42.319   2.278
50227W        W 9972  23.686   6.850   2.248
50228W        W 9973  34.590  34.957   4.735
50229W        W 9974   1.745   7.910  10.887
50230W        W 9975   9.718   0.778   1.913
50231W        W 9976  41.955  12.668   0.441
50232W        W 9977  40.932   2.731   3.821
50233W        W 9978  17.759  38.379   0.787
50234W        W 9979  33.404  22.100   4.233
50235W        W 9980  27.121  44.471  14.397
50236W        W 9981  33.123  39.059   3.256
50237W        W 9982  10.220  17.670   4.804
50238W        W 9983  28.125  24.691  13.951
50239W        W 9984  21.523   4.848  12.059
50240W        W 9985  29.962  42.828  13.997
50241W        W 9986  36.454  21.645   4.672
50242W        W 9987  21.234  27.471   2.809
50243W        W 9988  29.122  39.511  14.380
50244W        W 9989   9.255  25.602   0.894
50245W        W 9990   8.367  31.540  11.559
50246W        W 9991  28.091  32.452   2.305
50247W        W 9992  16.568  16.128  11.899
50248W        W 9993  32.400   6.412   2.404
50249W        W 9994  44.285  12.225   3.832
50250W        W 9995  30.942  44.367  11.373
50251W        W 9996  28.106   6.422  12.342
50252W        W 9997   5.419  28.019  10.515
50253W        W 9998  41.998  15.266  14.286
50254W        W 9999   3.233  31.144   0.947
50255W        W10000  35.471   4.785   3.354
50256W        W10001  39.064  26.962   2.724
50257W        W10002  44.352  31.063   2.380
50258W        W10003  11.790  30.454   4.630
50259W        W10004   2.468  10.182   3.783
50260W        W10005   6.305  14.701   1.226
50261W        W10006  44.835  23.720   3.146
50262W        W10007  29.598  28.048  11.916
50263W        W10008   6.242   9.326  13.446
50264W        W10009  40.867  42.969   4.650
50265W        W10010   6.833  27.120  10.438
50266W        W10011  13.660  20.214   0.326
50267W        W10012  39.482   3.249   3.722
50268W        W10013  19.581   4.849  13.501
50269W        W10014   6.423  39.483   4.671
50270W        W10015  33.599  32.886   0.362
50271W        W10016  32.005  17.675   0.377
50272W        W10017  28.593  28.442  14.423
50273W        W10018  15.645  32.048  11.543
50274W        W10019  10.815  17.240   0.961
50275W        W10020  33.116   9.194   1.857
50276W        W10021   5.278  37.408   0.453
50277W        W10022  17.236  11.745  13.947
50278W        W10023  18.092   4.893  14.835
50279W        W10024  18.676  42.395  11.471
50280W        W10025   7.902   4.880   1.225
50281W        W10026   4.845  23.114  14.460
50282W        W10027  15.176  20.176  11.959
50283W        W10028  29.090  34.106  13.805
50284W        W10029   3.410   8.688  14.790
50285W        W10030  41.409  16.649  13.981
50286W        W10031   0.882  39.967   3.323
50287W        W10032  42.507   2.967  12.835
50288W        W10033   4.314  18.774  14.904
50289W        W10034  29.464  19.101  13.480
50290W        W10035  40.978  30.440   4.689
50291W        W10036  43.381   1.268   3.309
50292W        W10037  12.786  18.258  14.498
50293W        W10038  14.305  16.698   1.257
50294W        W10039   0.955  14.333   5.278
50295W        W10040  35.468  32.897  10.596
50296W        W10041  40.951  11.212   2.379
50297W        W10042  22.597  11.161  11.538
50298W        W10043  36.964   6.211   1.319
50299W        W10044  38.982  17.693  10.906
50300W        W10045  17.091   4.825   1.297
50301W        W10046  26.482  20.714   0.873
50302W        W10047  23.120  27.140   0.452
50303W        W10048  25.969  26.146   3.173
50304W        W10049  27.068  24.230  14.333
50305W        W10050  13.252  37.870  14.464
50306W        W10051  35.042  38.952   1.300
50307W        W10052   2.258  31.986  14.485
50308W        W10053  28.590  42.965   4.742
50309W        W10054  27.656  14.329  14.440
50310W        W10055  40.802  39.927   2.300
50311W        W10056  15.138  24.587  13.482
50312W        W10057  30.921  15.632  12.853
50313W        W10058   9.668  31.103  11.887
50314W        W10059  27.182  39.377  14.380
50315W        W10060  24.674   0.299   3.182
50316W        W10061  34.597  44.998   4.683
50317W        W10062   9.757   4.381   4.837
50318W        W10063  40.829  14.221  11.525
50319W        W10064  33.435   2.237  14.974
50320W        W10065  17.636  35.080   0.871
50321W        W10066  27.588  32.481  10.412
50322W        W10067   3.266  34.944  14.824
50323W        W10068  14.619  29.047  13.890
50324W        W10069  42.991  19.267  12.480
50325W        W10070   2.899  30.074   1.293
50326W        W10071  37.924   6.784   3.789
50327W        W10072  14.207   3.434   0.360
50328W        W10073   4.340  35.855  12.577
50329W        W10074   0.494  17.673   4.150
50330W        W10075  34.409  11.325   1.299
50331W        W10076  40.417   1.817  14.776
50332W        W10077  11.727  43.935   2.903
50333W        W10078  28.503  13.620  13.382
50334W        W10079  44.395  24.158   0.874
50335W        W10080  20.194  15.267  10.934
50336W        W10081   9.698   4.221  12.449
50337W        W10082  30.919  17.177  11.945
50338W        W10083   9.244  27.141  14.005
50339W        W10084  20.044   4.308   4.293
50340W        W10085  42.302   5.302  13.513
50341W        W10086  38.396  13.736   4.118
50342W        W10087  12.149  13.705  11.119
50343W        W10088   1.900  19.253  13.840
50344W        W10089  11.750  36.409  10.436
50345W        W10090  10.170  32.053   4.646
50346W        W10091  24.608  12.236  14.427
50347W        W10092  36.506   7.350  14.797
50348W        W10093  15.796  39.540   3.691
50349W        W10094  22.240  17.175  12.862
50350W        W10095   9.328  14.182  13.903
50351W        W10096  18.120  13.819   4.641
50352W        W10097  40.873  29.006   2.408
50353W        W10098   4.796  18.056  13.498
50354W        W10099  10.818  20.217   4.295
50355W        W10100  17.283  18.102  12.434
50356W        W10101  17.206  11.227  11.890
50357W        W10102  37.526  35.901   3.640
50358W        W10103   9.710  41.923   4.242
50359W        W10104  16.658   6.770  13.400
50360W        W10105   2.468  16.788   2.412
50361W        W10106  18.227  17.085   4.634
50362W        W10107   6.303  16.791   0.755
50363W        W10108  20.039  39.855  12.351
50364W        W10109  30.478  11.624  14.328
50365W        W10110  18.107  42.318  10.640
50366W        W10111  37.537   2.906  14.494
50367W        W10112  37.955   6.729  12.381
50368W        W10113  41.038  26.152  13.975
50369W        W10114  38.886  39.554   2.814
50370W        W10115   4.844   0.821   1.754
50371W        W10116  11.234   6.682  13.050
50372W        W10117  10.796  28.539   1.226
50373W        W10118  35.497   7.797  11.041
50374W        W10119   2.429  33.045  11.534
50375W        W10120   5.705   9.390   0.263
50376W        W10121  31.450  12.258   2.747
50377W        W10122  23.099   8.394   2.316
50378W        W10123  30.063  28.494  14.505
50379W        W10124  36.579  36.934   3.303
50380W        W10125  40.835  29.620   0.406
50381W        W10126  23.512  24.995  12.964
50382W        W10127  32.498  12.243   0.843
50383W        W10128  11.688   5.432   4.187
50384W        W10129  30.455  23.141   1.388
50385W        W10130  18.236  28.048  13.950
50386W        W10131  35.894  13.306   3.642
50387W        W10132   0.432  28.441   0.391
50388W        W10133  30.654  29.127   1.911
50389W        W10134  26.055   4.857   2.703
50390W        W10135  36.052  16.289   3.736
50391W        W10136  27.961  18.182   0.243
50392W        W10137  22.733  19.058  12.444
50393W        W10138   2.366   1.747   4.803
50394W        W10139  42.428   9.190   4.778
50395W        W10140  31.413  13.724  10.926
50396W        W10141  15.707   1.313  11.602
50397W        W10142   9.175  10.203  13.529
50398W        W10143  34.090  13.701   3.656
50399W        W10144   5.270   1.837  13.455
50400W        W10145  29.171  15.115   1.214
50401W        W10146  15.724  40.500  11.124
50402W        W10147  23.625  18.556   3.835
50403W        W10148  23.629  10.735  14.324
50404W        W10149   5.933  29.080  13.798
50405W        W10150  36.028  22.190  11.603
50406W        W10151   1.939  15.124   0.783
50407W        W10152  30.536  31.017   0.350
50408W        W10153  34.895  28.025  10.094
50409W        W10154  39.336  42.936  12.080
50410W        W10155  40.441  20.697   1.351
50411W        W10156  44.452   7.236   4.325
50412W        W10157  23.667   7.227   1.810
50413W        W10158  43.505  27.509   2.287
50414W        W10159  24.642  29.979  12.359
50415W        W10160  20.168  36.058   9.979
50416W        W10161  16.201  23.015  10.997
50417W        W10162  35.899  43.508  11.453
50418W        W10163  20.234  34.992  14.389
50419W        W10164  44.007   0.866   3.314
50420W        W10165  23.089  12.236   1.434
50421W        W10166  19.574  32.560   5.235
50422W        W10167  32.498  14.258  13.476
50423W        W10168  34.550   8.701   0.430
50424W        W10169   8.868   0.451  12.058
50425W        W10170   0.812  35.557  14.944
50426W        W10171  37.499  27.133  13.412
50427W        W10172  32.396  31.547  11.405
50428W        W10173  14.663  18.692   5.152
50429W        W10174  37.992  32.138   2.697
50430W        W10175  20.610  24.567  14.791
50431W        W10176  34.026  12.307  14.949
50432W        W10177  14.245  22.707  14.502
50433W        W10178  20.043  37.381   0.786
50434W        W10179  31.981   9.889   0.425
50435W        W10180  26.504  26.062  12.578
50436W        W10181  39.870   2.382   0.966
50437W        W10182  37.024  13.632  10.986
50438W        W10183   5.364  29.011   3.264
50439W        W10184  23.553  42.459  11.494
50440W        W10185  27.058  21.110  13.435
50441W        W10186   4.775  21.098  11.567
50442W        W10187   4.376  30.506   4.790
50443W        W10188   2.326   1.404   1.223
50444W        W10189  14.328   0.400  12.556
50445W        W10190  44.391  44.968  13.812
50446W        W10191  28.004  35.899   1.763
50447W        W10192  40.959  41.301  14.917
50448W        W10193  41.950   6.306  11.002
50449W        W10194  33.944  34.026  10.914
50450W        W10195  37.957  15.280  13.910
50451W        W10196   8.686  14.630  12.422
50452W        W10197   7.668  36.074   2.836
50453W        W10198   2.262   3.880  12.839
50454W        W10199  31.116  24.179   0.248
50455W        W10200   7.863  39.408   1.761
50456W        W10201   7.717  11.761   9.950
50457W        W10202  19.094   2.734  13.058
50458W        W10203  36.403   6.832   2.706
50459W        W10204  19.242  42.976  14.427
50460W        W10205  16.218   0.439  13.010
50461W        W10206  14.756   5.857  10.452
50462W        W10207  27.579  22.235  13.057
50463W        W10208  19.229  36.558   0.452
50464W        W10209  13.218  36.048  14.504
50465W        W10210  11.179   2.819   3.751
50466W        W10211  29.136  37.885   2.721
50467W        W10212  15.809  22.204   3.749
50468W        W10213  38.030   9.689   4.708
50469W        W10214  26.049  43.953  11.048
50470W        W10215  17.632  39.830   3.800
50471W        W10216   1.801  27.946   1.781
50472W        W10217  41.898  14.243   1.705
50473W        W10218  12.258  27.600  14.290
50474W        W10219  37.979  14.750   4.716
50475W        W10220  43.275  42.789  11.880
50476W        W10221  41.012  14.729   1.900
50477W        W10222  19.745  27.544   1.707
50478W        W10223  30.969  12.270  12.546
50479W        W10224  33.524  29.438  11.451
50480W        W10225  28.599   0.759  12.859
50481W        W10226  23.170  35.564  14.476
50482W        W10227  27.660  39.867  13.798
50483W        W10228  44.860  14.610  12.902
50484W        W10229  30.931  36.444  12.096
50485W        W10230  44.405  11.800   4.231
50486W        W10231   0.973  40.849  12.561
50487W        W10232  23.111   8.206  11.991
50488W        W10233   4.743  43.382  10.438
50489W        W10234  44.876   6.222  14.489
50490W        W10235  28.156   2.875   1.318
50491W        W10236  25.631   3.380  11.058
50492W        W10237  17.250   9.759  10.926
50493W        W10238  14.605  30.088  13.058
50494W        W10239   3.317  41.496  13.960
50495W        W10240  17.250   9.765  12.502
50496W        W10241   1.438  29.424  13.046
50497W        W10242  39.004  29.506  12.439
50498W        W10243   5.215  43.501  13.516
50499W        W10244  28.942  22.024  11.905
50500W        W10245  11.694  43.429   3.765
50501W        W10246  19.108   1.251  13.843
50502W        W10247  24.499  44.779  12.537
50503W        W10248  28.492  41.023  11.560
50504W        W10249   1.959  20.547   1.864
50505W        W10250  12.206  16.175  14.004
50506W        W10251   6.678   0.988  14.813
50507W        W10252  42.318   5.417  14.384
50508W        W10253  32.553  39.872  11.542
50509W        W10254   7.277  33.998  13.908
50510W        W10255  17.734   2.927   4.791
50511W        W10256  14.758  38.459   2.867
50512W        W10257   8.279  28.983   1.349
50513W        W10258  39.017  26.141   1.255
50514W        W10259  27.678  13.316  13.038
50515W        W10260  18.220   2.750   1.916
50516W        W10261  38.050  28.949  11.501
50517W        W10262  10.862   5.894   3.836
50518W        W10263   6.857   6.318  13.326
50519W        W10264  18.083   1.916   0.727
50520W        W10265  27.185  42.904   4.116
50521W        W10266  41.320  14.224   2.752
50522W        W10267  41.009  32.957   3.361
50523W        W10268  20.035  41.802  13.350
50524W        W10269  19.646   9.328  14.864
50525W        W10270  19.261  17.122  10.618
50526W        W10271  41.995   2.278  14.019
50527W        W10272  41.485  24.546  12.415
50528W        W10273  24.003   3.864  12.522
50529W        W10274  43.844  16.262  11.892
50530W        W10275   8.769  24.998  12.022
50531W        W10276   0.751  31.111  13.821
50532W        W10277   7.670  20.609  13.914
50533W        W10278  13.775  13.145   3.757
50534W        W10279   3.780  16.700   3.337
50535W        W10280   6.791  33.993   3.185
50536W        W10281  24.114   3.738  11.068
50537W        W10282  18.706  31.583   1.355
50538W        W10283  22.118  43.318  14.787
50539W        W10284  30.000  43.789  13.977
50540W        W10285  43.812  23.023  13.009
50541W        W10286  36.424   8.186   1.406
50542W        W10287  12.210  15.271  12.524
50543W        W10288  27.565  30.964  12.433
50544W        W10289  38.051  44.478  14.992
50545W        W10290   0.848  13.836  10.642
50546W        W10291  30.574  35.008  13.864
50547W        W10292  29.041   9.762  12.574
50548W        W10293  24.576   5.381  13.457
50549W        W10294  17.103   2.732   4.264
50550W        W10295  35.866   5.696   3.643
50551W        W10296  32.031  24.191   2.221
50552W        W10297  43.417  12.359  13.346
50553W        W10298   3.362  33.894   0.890
50554W        W10299  35.075  14.330   0.751
50555W        W10300  41.520  32.951   0.749
50556W        W10301  40.540  32.079  13.838
50557W        W10302  35.583  33.022   1.724
50558W        W10303  17.659  26.195   2.857
50559W        W10304  15.139  21.062  11.977
50560W        W10305  40.547  28.100  10.900
50561W        W10306  17.561  23.102  11.095
50562W        W10307  37.572  26.010  11.870
50563W        W10308  11.238  12.611   3.382
50564W        W10309  35.024  14.631   2.703
50565W        W10310  20.701  33.118   4.721
50566W        W10311  31.083   0.272  10.614
50567W        W10312  38.329  13.629   2.840
50568W        W10313  32.043  12.247   3.182
50569W        W10314  12.774  26.562  11.512
50570W        W10315  35.061  20.093   0.393
50571W        W10316  42.826  36.404  13.983
50572W        W10317   0.309  34.009   1.906
50573W        W10318  25.982  16.758   4.768
50574W        W10319  27.955  17.716  14.956
50575W        W10320  10.272  22.501  13.018
50576W        W10321  44.888  24.174   3.695
50577W        W10322  23.210  26.475   2.737
50578W        W10323   1.890   0.987  10.510
50579W        W10324  33.006  10.376   2.223
50580W        W10325  35.055  29.923   0.884
50581W        W10326   4.445  29.098  11.447
50582W        W10327  42.993   8.868  12.910
50583W        W10328   0.382  39.978   1.226
50584W        W10329  23.208  43.484  11.573
50585W        W10330  36.555  22.674   9.948
50586W        W10331  15.160  10.844  12.852
50587W        W10332   9.393  40.515  12.957
50588W        W10333  39.013  30.093  13.803
50589W        W10334  37.871  17.626   2.270
50590W        W10335  25.684  41.941  10.590
50591W        W10336  35.006  43.322   4.710
50592W        W10337  25.134  11.852  13.901
50593W        W10338  41.959  34.052   3.658
50594W        W10339  35.994  10.176  10.090
50595W        W10340  38.502   8.670  14.002
50596W        W10341  39.979   8.283   1.930
50597W        W10342  31.078  28.980   3.662
50598W        W10343  23.615  11.827   5.194
50599W        W10344  43.277  17.722   3.691
50600W        W10345  35.573  20.141   5.135
50601W        W10346  25.211  31.573   2.704
50602W        W10347  20.703  36.394  12.999
50603W        W10348   5.373  33.382   2.851
50604W        W10349  29.521  43.769  11.547
50605W        W10350  24.573   6.917   4.755
50606W        W10351  30.081   8.353  11.891
50607W        W10352  12.324   8.815   0.476
50608W        W10353  41.392   7.173  12.514
50609W        W10354   7.295  42.426  10.954
50610W        W10355  12.849  40.394  14.017
50611W        W10356  41.348  36.589  14.407
50612W        W10357  12.827  36.016   2.775
50613W        W10358  43.342  44.496  13.873
50614W        W10359  11.837  41.463   0.888
50615W        W10360  20.767  43.425   4.294
50616W        W10361  26.995  43.990  11.484
50617W        W10362  41.013  14.319  13.059
50618W        W10363  25.515  33.967  10.889
50619W        W10364  27.520  20.233   0.868
50620W        W10365  40.530  38.936   0.778
50621W        W10366  15.216  18.090  14.441
50622W        W10367  19.722   0.280  13.035
50623W        W10368  21.609  43.778  13.517
50624W        W10369  20.191  27.080  10.476
50625W        W10370  26.162  32.002   1.296
50626W        W10371   4.944  22.200  11.546
50627W        W10372   6.366  15.243   1.901
50628W        W10373  13.110  29.440  11.903
50629W        W10374  30.047   8.829   4.354
50630W        W10375  19.725   8.389   1.873
50631W        W10376  35.420  42.924  11.931
50632W        W10377  22.183  25.477  12.913
50633W        W10378   0.745  18.255  14.470
50634W        W10379  29.470  23.058  12.539
50635W        W10380   9.212   4.364  12.951
50636W        W10381  18.183   8.178   3.203
50637W        W10382  11.790  24.585   1.728
50638W        W10383   2.782  22.683  13.027
50639W        W10384  13.266  13.650  14.768
50640W        W10385  23.622  19.104   0.759
50641W        W10386   6.289  12.224  14.286
50642W        W10387  44.354  44.007  12.094
50643W        W10388  33.901  24.109   2.396
50644W        W10389  16.110  13.133   3.231
50645W        W10390  39.835  19.054  11.872
50646W        W10391  20.124  16.080   9.525
50647W        W10392  32.976   3.749  14.308
50648W        W10393  44.347  20.057   3.150
50649W        W10394  26.971   1.240   2.754
50650W        W10395  39.555  12.654  10.624
50651W        W10396  12.741  21.551   4.300
50652W        W10397   7.899  35.068   4.351
50653W        W10398  44.906  15.686  12.016
50654W        W10399  31.952  22.016   2.358
50655W        W10400  34.038  26.971  13.860
50656W        W10401  30.552  10.650  13.875
50657W        W10402  33.948  32.632   1.793
50658W        W10403  25.602  24.197  13.476
50659W        W10404   7.761  43.369  13.040
50660W        W10405   7.176  25.606   0.430
50661W        W10406  16.252  36.387  11.913
50662W        W10407  35.572  14.166  10.930
50663W        W10408  44.816  28.444   3.655
50664W        W10409  44.347  32.410  14.428
50665W        W10410  32.477  26.012   3.369
50666W        W10411  11.178   6.762  13.481
50667W        W10412  13.842  31.547  13.990
50668W        W10413  26.050  20.625  12.354
50669W        W10414  22.586   5.722  10.921
50670W        W10415  21.202  14.801  12.541
50671W        W10416   0.482  43.882   4.744
50672W        W10417   0.802  26.126  11.115
50673W        W10418   7.397  29.495   4.698
50674W        W10419   3.429   8.245  14.480
50675W        W10420  22.618  42.008  11.958
50676W        W10421  21.256  34.409   0.798
50677W        W10422  32.417  26.145   2.396
50678W        W10423  28.930  24.547  11.589
50679W        W10424  15.605   5.308  12.885
50680W        W10425  39.042  38.853   1.857
50681W        W10426  32.394   6.693  10.631
50682W        W10427  11.728  42.387   2.348
50683W        W10428  35.589  41.861  13.356
50684W        W10429  39.503  18.620   1.910
50685W        W10430  14.815  38.988  12.856
50686W        W10431  22.999  23.081   3.365
50687W        W10432  22.183  37.999   3.204
50688W        W10433   3.228  37.069   3.679
50689W        W10434  23.190  35.410   4.151
50690W        W10435  24.198  37.065   4.326
50691W        W10436  18.784   4.751   9.950
50692W        W10437  23.174  14.769  13.803
50693W        W10438   2.763  10.144  13.520
50694W        W10439  34.090  35.439   1.243
50695W        W10440  37.551  18.583  14.335
50696W        W10441   2.438  28.462  11.490
50697W        W10442  43.905  22.025  13.918
50698W        W10443  16.238  14.096   4.343
50699W        W10444  39.315   7.304  12.352
50700W        W10445  25.586  36.515  14.818
50701W        W10446  22.535  38.877   2.662
50702W        W10447  25.665  11.232   1.774
50703W        W10448   5.202  42.957   3.861
50704W        W10449  26.079  17.700  12.526
50705W        W10450   8.799  16.075  12.431
50706W        W10451   9.274  13.745   1.891
50707W        W10452  44.396  14.336  11.451
50708W        W10453  30.955  25.196  11.057
50709W        W10454  30.933   1.466  10.018
50710W        W10455  16.760   8.755   0.372
50711W        W10456   1.837  20.734   4.688
50712W        W10457  23.006  36.522   4.827
50713W        W10458  31.452  11.797   2.685
50714W        W10459  11.740  24.093  12.426
50715W        W10460   5.436  27.598   2.730
50716W        W10461  18.564   5.439   4.771
50717W        W10462  38.336  24.098   4.712
50718W        W10463  30.503  13.617   0.863
50719W        W10464  22.720   5.358   1.335
50720W        W10465  30.479  37.902   1.921
50721W        W10466  23.999  44.313   3.374
50722W        W10467   3.805  20.581  13.436
50723W        W10468   0.431  23.020   2.329
50724W        W10469  31.995  20.028   0.839
50725W        W10470  24.062  38.362   3.849
50726W        W10471  17.610  38.565  14.347
50727W        W10472  43.831  19.155  13.412
50728W        W10473  27.652  37.001  12.405
50729W        W10474  26.564   3.226   2.818
50730W        W10475  34.090  22.645   3.307
50731W        W10476  13.684  36.459  10.642
50732W        W10477  22.086   8.347  14.475
50733W        W10478  43.319  18.789  10.424
50734W        W10479   6.294  31.064  12.952
50735W        W10480  17.748  29.068  14.345
50736W        W10481  30.073  23.201  13.409
50737W        W10482  41.448  34.552   2.752
50738W        W10483  30.459  24.487  11.123
50739W        W10484  31.435  18.064  11.872
50740W        W10485  33.888  40.931  14.982
50741W        W10486  25.124  14.242  11.880
50742W        W10487   7.836  40.332   0.477
50743W        W10488  14.646   0.874   3.790
50744W        W10489  18.106   9.692  14.484
50745W        W10490  43.319  32.569  10.980
50746W        W10491  21.598   7.276   3.233
50747W        W10492  39.936  32.964  10.513
50748W        W10493  14.675  24.223   9.935
50749W        W10494  42.924  28.039  14.341
50750W        W10495   4.307  39.952  13.906
50751W        W10496  11.808  38.487   0.840
50752W        W10497  19.568  29.650  14.364
50753W        W10498  18.770  22.042  11.120
50754W        W10499  38.974   1.369  14.493
50755W        W10500  18.585  31.146   3.836
50756W        W10501  24.715  11.799  13.527
50757W        W10502  24.640  28.077   3.234
50758W        W10503   3.834  40.883  11.890
50759W        W10504  37.520   3.800   4.700
50760W        W10505   7.799  21.668  12.951
50761W        W10506  30.109  19.622  12.503
50762W        W10507  16.109  15.624  11.392
50763W        W10508   6.362  19.649   3.856
50764W        W10509  35.102  15.627  12.575
50765W        W10510  24.207  20.231  13.492
50766W        W10511  33.423   7.368  11.528
50767W        W10512  42.916  27.020   2.826
50768W        W10513   8.260  32.528  14.430
50769W        W10514  10.250  33.121   0.423
50770W        W10515  15.727  34.864  13.928
50771W        W10516  44.359  29.581  12.443
50772W        W10517  29.132   6.265  14.845
50773W        W10518  19.152  23.227  14.286
50774W        W10519   7.356  17.075  12.354
50775W        W10520  21.742  25.167   0.772
50776W        W10521   4.423  41.450  11.554
50777W        W10522   1.238  14.104  12.969
50778W        W10523  31.107   4.408   4.305
50779W        W10524  24.187  28.166   2.772
50780W        W10525  19.608   5.214  10.983
50781W        W10526  13.622   0.814   1.258
50782W        W10527  36.551  20.731   3.771
50783W        W10528  24.110   9.842   2.348
50784W        W10529  31.450  26.166  11.493
50785W        W10530  29.644  17.103   5.201
50786W        W10531  42.453  19.690  14.310
50787W        W10532  13.293  28.472   0.280
50788W        W10533  38.507  32.979   2.695
50789W        W10534   0.353  16.580   1.361
50790W        W10535   4.729   7.813  14.896
50791W        W10536  21.726  19.586  13.376
50792W        W10537  22.624  44.416  12.419
50793W        W10538  38.833   6.901   3.661
50794W        W10539  12.342  44.285   4.660
50795W        W10540   4.801  28.992   1.929
50796W        W10541  27.675   6.253   4.743
50797W        W10542   8.727  19.622   3.385
50798W        W10543  42.309   1.942   3.847
50799W        W10544  40.549  11.209   1.761
50800W        W10545  34.440  39.513  11.524
50801W        W10546  20.709   7.790  14.878
50802W        W10547   7.374   7.282  14.796
50803W        W10548  11.327  26.188   1.699
50804W        W10549  39.476  30.563   3.297
50805W        W10550   8.719  30.014   3.267
50806W        W10551  32.090  43.797  10.973
50807W        W10552  23.616   5.406   3.247
50808W        W10553  27.988  32.503   0.434
50809W        W10554  13.188  28.116  11.942
50810W        W10555  17.188  12.657   2.391
50811W        W10556  24.709   5.244   3.284
50812W        W10557  32.505  42.283   1.793
50813W        W10558  19.658   9.870  13.447
50814W        W10559   9.204   5.426   0.726
50815W        W10560  25.581  15.601   1.240
50816W        W10561  35.030   4.762  11.078
50817W        W10562  24.995  40.899   1.836
50818W        W10563  22.095  21.657   1.812
50819W        W10564  31.937  29.612   2.827
50820W        W10565   5.195  34.873   4.712
50821W        W10566  39.424  27.146  14.505
50822W        W10567  30.544  42.298   2.325
50823W        W10568   5.307  35.464   2.292
50824W        W10569  36.400  37.488   1.731
50825W        W10570   9.274  24.510  11.013
50826W        W10571   0.857  16.113  14.878
50827W        W10572   3.814  16.696   3.871
50828W        W10573  29.923  15.605  11.015
50829W        W10574  31.054  40.486  13.456
50830W        W10575  12.668   1.407  11.117
50831W        W10576  18.139  42.988  13.850
50832W        W10577  15.259   0.975  14.317
50833W        W10578  34.564  17.710   3.163
50834W        W10579  10.340  28.608   1.407
50835W        W10580  10.706  30.603   0.771
50836W        W10581  30.607  11.684  14.884
50837W        W10582  17.093   2.823  12.872
50838W        W10583  15.296   2.402  11.447
50839W        W10584  11.807  34.561  10.128
50840W        W10585  24.513  43.898  12.913
50841W        W10586  15.244  15.632   4.279
50842W        W10587  16.278   7.753   3.683
50843W        W10588   3.230  22.655   2.410
50844W        W10589   9.163  12.849  12.398
50845W        W10590  13.805   2.790  10.925
50846W        W10591   4.898  31.125  11.497
50847W        W10592   3.336  27.054  12.882
50848W        W10593  26.639   9.358   3.841
50849W        W10594  35.442  37.046   3.155
50850W        W10595  42.884  23.117   0.736
50851W        W10596  30.978   2.799  12.833
50852W        W10597  11.743   0.342  10.544
50853W        W10598  35.435  21.147   1.850
50854W        W10599  23.651   0.431   3.788
50855W        W10600  30.078  27.512   9.601
50856W        W10601  41.405  16.095   3.372
50857W        W10602  24.184  40.454   0.894
50858W        W10603  18.649  17.678   4.232
50859W        W10604  36.065   4.881   0.817
50860W        W10605  12.229  35.472   0.480
50861W        W10606  13.657   4.264   2.803
50862W        W10607  39.837  44.998   2.356
50863W        W10608  22.098  15.687  14.902
50864W        W10609  26.017  38.926   4.254
50865W        W10610   5.738   2.247  11.878
50866W        W10611  31.958  43.387   0.451
50867W        W10612  18.133  34.445   1.249
50868W        W10613  43.300  12.744   4.240
50869W        W10614   0.367   9.800   2.415
50870W        W10615  39.396  32.053  11.496
50871W        W10616  13.734  26.083  14.780
50872W        W10617   2.871  41.492   3.696
50873W        W10618  17.777   0.946  12.013
50874W        W10619  27.668   9.214   0.780
50875W        W10620   4.422  39.363   4.772
50876W        W10621  33.493  17.582   4.711
50877W        W10622   5.368   0.921   2.218
50878W        W10623  41.811   3.288   4.127
50879W        W10624  30.564  43.790   0.309
50880W        W10625   7.200  20.738   3.688
50881W        W10626   1.873  34.882  13.352
50882W        W10627  42.465  29.477   1.792
50883W        W10628   9.183  37.563   4.194
50884W        W10629  28.153  28.995  14.421
50885W        W10630  16.724  10.794  12.853
50886W        W10631   2.886   4.927   3.382
50887W        W10632  14.778  12.248   0.854
50888W        W10633  28.538  21.656   0.321
50889W        W10634  39.012  14.821   1.751
50890W        W10635   4.880   7.848   0.389
50891W        W10636  38.500  22.692  13.976
50892W        W10637  16.708  29.996   4.645
50893W        W10638  29.102  30.949   1.871
50894W        W10639   3.783   4.261  13.399
50895W        W10640  23.156  29.493  13.471
50896W        W10641  11.370  44.493   4.648
50897W        W10642   1.734  39.912   2.192
50898W        W10643  22.244   9.738  10.534
50899W        W10644  25.561  40.867   1.309
50900W        W10645  43.470   1.266   0.257
50901W        W10646  31.906  14.263  14.360
50902W        W10647  33.113  30.447  11.968
50903W        W10648  18.293  19.127  10.982
50904W        W10649  30.103  14.732  14.794
50905W        W10650  12.265  28.031  10.505
50906W        W10651  37.929  36.053   2.330
50907W        W10652   5.727  44.917   3.375
50908W        W10653  24.218  39.883  12.990
50909W        W10654  29.558   1.939  14.806
50910W        W10655  43.958  42.946  12.440
50911W        W10656  16.287  22.236   0.902
50912W        W10657  18.257   2.281  10.965
50913W        W10658  37.926  37.350   3.318
50914W        W10659   9.339   5.374   1.225
50915W        W10660  33.989   0.352  14.514
50916W        W10661  28.987   7.683   4.121
50917W        W10662  14.663   2.784   1.867
50918W        W10663  36.975  17.728   1.426
50919W        W10664  37.935   6.314  14.823
50920W        W10665  37.384  23.631   2.214
50921W        W10666   3.444  43.451   1.730
50922W        W10667   3.414   2.241   0.788
50923W        W10668  35.498  43.950  11.447
50924W        W10669  32.893  41.371   4.261
50925W        W10670  37.364  24.172   5.161
50926W        W10671  39.055  14.304  13.486
50927W        W10672  19.767  29.496   0.967
50928W        W10673  21.642  33.458  13.912
50929W        W10674  10.855   7.194   2.775
50930W        W10675  27.082  39.035  13.421
50931W        W10676  17.206  14.210  10.601
50932W        W10677  25.535   4.910  14.879
50933W        W10678  14.334   5.904   3.272
50934W        W10679  39.336  20.214  11.123
50935W        W10680  32.535  18.722   0.412
50936W        W10681  20.758   3.751  12.927
50937W        W10682  29.931   9.228  12.036
50938W        W10683  15.810   0.913  13.486
50939W        W10684   2.924  24.052   0.766
50940W        W10685  19.241  30.582   5.253
50941W        W10686  25.987  36.457   3.296
50942W        W10687  40.490  28.478   3.776
50943W        W10688  40.799  14.671  10.489
50944W        W10689  32.579  16.179   3.851
50945W        W10690   7.736  28.150   1.343
50946W        W10691  27.628  34.429   2.409
50947W        W10692  35.594  30.088  14.789
50948W        W10693  11.706  34.501   5.320
50949W        W10694  16.263  14.634  13.399
50950W        W10695  34.870  34.109   1.904
50951W        W10696  10.637   5.354   3.797
50952W        W10697  41.886   3.934  13.422
50953W        W10698  15.694  35.595  14.480
50954W        W10699   9.212  30.978   2.869
50955W        W10700  28.592  44.355  13.315
50956W        W10701  44.427  32.993  14.484
50957W        W10702  31.973  40.312  11.122
50958W        W10703   3.455  14.175   5.233
50959W        W10704  25.498  29.985   3.631
50960W        W10705  12.756  41.330  11.442
50961W        W10706  16.755  35.875  13.516
50962W        W10707  26.513   9.884   0.318
50963W        W10708  12.265  24.634   4.166
50964W        W10709   0.883  31.434   1.818
50965W        W10710  14.783   5.703   2.410
50966W        W10711  41.927  36.371  14.354
50967W        W10712  18.768   6.262  14.787
50968W        W10713  33.401   2.766   0.750
50969W        W10714  15.136  44.927   0.482
50970W        W10715   3.923   4.744   3.168
50971W        W10716  42.985  36.356   4.752
50972W        W10717  40.304  26.640  12.481
50973W        W10718  16.239  24.588   2.663
50974W        W10719  16.122  29.130  13.832
50975W        W10720  20.068   2.301  13.995
50976W        W10721  26.670  34.889   2.888
50977W        W10722  12.674  27.126  14.297
50978W        W10723  23.521  12.251   4.342
50979W        W10724  30.462  15.653  10.987
50980W        W10725  33.385  29.145   5.270
50981W        W10726  35.453  10.311   2.792
50982W        W10727  41.326  24.008  13.818
50983W        W10728  36.531  22.033  12.890
50984W        W10729  40.969  19.553   2.324
50985W        W10730  10.863   2.407  12.064
50986W        W10731  28.182   7.299   5.218
50987W        W10732  30.497  38.380   3.640
50988W        W10733   7.755  43.776   4.224
50989W        W10734  31.115  14.666  14.425
50990W        W10735   3.792  18.741   3.258
50991W        W10736  16.684  12.141  14.977
50992W        W10737  23.577   1.380  10.000
50993W        W10738  42.291   2.383  13.839
50994W        W10739  37.049   6.722  14.363
50995W        W10740  14.661   5.331  14.484
50996W        W10741  13.239  34.454  10.557
50997W        W10742  35.975   6.713  10.951
50998W        W10743  17.769   9.731   3.326
50999W        W10744   3.249  36.909  12.938
51000W        W10745  19.272  28.582  11.601
51001W        W10746  16.636  42.816  14.011
51002W        W10747   5.213  15.170  11.947
51003W        W10748   1.973   8.727   0.924
51004W        W10749   0.957  11.853   1.242
51005W        W10750  27.969  31.099  13.351
51006W        W10751  41.535  28.462   0.773
51007W        W10752   8.218  39.043  13.935
51008W        W10753  16.222  33.538   0.827
51009W        W10754  17.075  21.025   4.149
51010W        W10755  43.421   0.436  14.989
51011W        W10756   1.758  13.724   1.847
51012W        W10757  17.080  26.689  14.422
51013W        W10758  42.451  19.070   3.815
51014W        W10759  13.776  26.573  13.547
51015W        W10760  16.605   3.935   2.247
51016W        W10761   1.814  13.163  13.393
51017W        W10762  34.514   0.262  13.949
51018W        W10763  26.975   9.833   3.709
51019W        W10764   1.888  18.063   3.223
51020W        W10765  13.732  37.510   3.318
51021W        W10766  39.932   6.390  13.494
51022W        W10767  22.156  26.548  14.395
51023W        W10768  43.772  13.196  11.126
51024W        W10769  20.606  19.164   3.168
51025W        W10770  41.032  24.508   2.857
51026W        W10771  16.768  18.620   0.252
51027W        W10772   5.439  21.639   0.832
51028W        W10773  33.111  25.526  11.574
51029W        W10774   6.740  24.119  10.503
51030W        W10775  39.969  14.320  14.492
51031W        W10776  37.392  44.455   2.788
51032W        W10777  43.009  27.559  12.350
51033W        W10778  19.721   6.343  13.544
51034W        W10779  37.424  24.980  11.510
51035W        W10780  13.744  40.540   2.711
51036W        W10781   9.375  35.438   3.160
51037W        W10782  11.731  41.405   1.891
51038W        W10783  11.855  14.284  14.788
51039W        W10784  35.409   2.411  11.086
51040W        W10785  32.072  23.593  10.462
51041W        W10786   9.857   7.796   3.640
51042W        W10787   3.307  11.824   1.768
51043W        W10788   5.838  41.437   0.437
51044W        W10789  29.488  28.164  14.516
51045W        W10790  19.541  33.576  13.411
51046W        W10791  37.926   0.381  11.404
51047W        W10792   9.371  30.907  11.102
51048W        W10793  22.574   2.332  14.498
51049W        W10794  42.372  39.411   3.855
51050W        W10795  41.962  42.835   3.311
51051W        W10796   3.382  35.542   4.780
51052W        W10797   6.725  30.112  14.982
51053W        W10798  17.251  32.988  13.526
51054W        W10799  40.544   4.713   3.827
51055W        W10800  32.469  12.720   3.684
51056W        W10801   8.748  22.107  10.123
51057W        W10802  19.063  23.033   1.343
51058W        W10803  24.579  42.959   0.849
51059W        W10804  10.717  25.525   2.737
51060W        W10805   0.449  19.232  13.377
51061W        W10806  35.045  22.661   4.661
51062W        W10807  34.888  40.466  10.942
51063W        W10808  35.919  41.877  10.417
51064W        W10809  14.680  20.219   3.373
51065W        W10810  11.287  15.596  14.897
51066W        W10811  37.064  23.070   3.782
51067W        W10812  27.022  33.130  14.850
51068W        W10813   3.813   5.820  11.128
51069W        W10814  10.317  35.092  10.613
51070W        W10815  25.105  33.610  14.401
51071W        W10816  34.592  18.761  13.361
51072W        W10817  13.786   0.379  11.111
51073W        W10818  15.704  42.525  12.961
51074W        W10819  43.923  44.327  14.830
51075W        W10820  38.502  39.354  13.890
51076W        W10821  19.102  22.053   3.651
51077W        W10822  41.043   5.873  12.568
51078W        W10823   2.853  35.028   0.905
51079W        W10824  43.420  27.472   3.701
51080W        W10825  34.869  36.052   9.951
51081W        W10826  10.327  20.124   5.116
51082W        W10827  34.013  38.988  10.597
51083W        W10828  43.350  19.664  13.998
51084W        W10829  29.460  17.178  11.545
51085W        W10830  15.812   6.884   0.785
51086W        W10831  10.197  33.910   3.733
51087W        W10832  33.124  38.849   0.937
51088W        W10833  27.489   6.382   2.399
51089W        W10834   4.429  37.046   1.426
51090W        W10835  35.508  41.840   3.633
51091W        W10836  16.631  30.458   2.303
51092W        W10837  12.775   4.788  14.313
51093W        W10838   1.968  42.807  14.998
51094W        W10839  30.088   8.762  11.988
51095W        W10840  37.579   4.403  11.516
51096W        W10841   6.694  40.949  12.017
51097W        W10842  44.815   9.280   0.343
51098W        W10843   3.759  42.424  10.640
51099W        W10844  35.457  20.751  12.420
51100W        W10845  24.193   3.383   1.858
51101W        W10846  16.181  39.500   0.429
51102W        W10847   6.324   9.888  11.066
51103W        W10848  44.418  28.577   5.083
51104W        W10849  38.415  42.825  11.049
51105W        W10850   7.299  41.321   1.812
51106W        W10851  24.064  15.648   1.234
51107W        W10852   0.889  28.591   0.877
51108W        W10853  14.311  35.886  10.149
51109W        W10854   9.753  24.568  14.473
51110W        W10855  25.481  34.059  14.968
51111W        W10856  34.029   9.375  13.817
51112W        W10857  14.630  36.969  14.001
51113W        W10858  39.880   5.376   4.797
51114W        W10859  20.033  36.917  11.487
51115W        W10860  19.042  25.477  12.066
51116W        W10861  30.125  14.623   2.855
51117W        W10862  39.044  21.623   0.426
51118W        W10863  12.190  40.408  10.908
51119W        W10864  38.999  38.000   1.243
51120W        W10865  17.283  14.099   1.391
51121W        W10866  12.239  44.832  10.621
51122W        W10867  11.157  11.267  12.881
51123W        W10868  10.303   2.867  14.953
51124W        W10869   0.970  35.468  12.926
51125W        W10870  17.792  37.838  14.308
51126W        W10871   3.753   5.714   9.933
51127W        W10872  18.285  40.542  11.864
51128W        W10873  21.539  13.323  14.889
51129W        W10874  26.491  27.641  13.516
51130W        W10875  30.643  14.271  11.918
51131W        W10876  34.435  39.457   1.325
51132W        W10877  32.408  35.485  13.344
51133W        W10878  32.004   8.778  11.973
51134W        W10879  42.314  38.477   2.251
51135W        W10880  12.720  42.939  11.923
51136W        W10881  33.592  22.572   1.858
51137W        W10882   7.842   8.343   1.282
51138W        W10883  25.504  41.787  11.118
51139W        W10884  22.513   4.732  10.567
51140W        W10885  33.052   6.264   3.245
51141W        W10886   0.961  37.540  10.588
51142W        W10887   6.833  19.565  12.027
51143W        W10888   6.226  16.722  12.959
51144W        W10889   0.799  22.717   2.377
51145W        W10890  41.484  33.979   1.348
51146W        W10891  35.388  28.442  11.906
51147W        W10892  29.922  43.375   0.726
51148W        W10893  42.419  41.446  11.948
51149W        W10894   1.399  42.319   1.376
51150W        W10895  20.548  44.277  11.064
51151W        W10896   5.251  23.201  13.847
51152W        W10897  25.033  24.072   2.412
51153W        W10898   2.432  24.140   0.848
51154W        W10899  13.790  39.976   2.227
51155W        W10900  17.107  44.470   1.839
51156W        W10901  36.446  17.220  12.540
51157W        W10902  31.585  37.486  11.454
51158W        W10903  16.123  31.105  12.900
51159W        W10904  15.250  10.726   4.305
51160W        W10905   4.863   4.793  12.857
51161W        W10906  31.135   8.690   4.625
51162W        W10907  24.025  24.677   4.625
51163W        W10908   5.247  18.631  14.022
51164W        W10909  41.501   5.355  12.572
51165W        W10910  17.083   4.312  11.072
51166W        W10911  16.734   3.249   2.829
51167W        W10912   4.420   7.689  11.903
51168W        W10913  31.943  15.268   3.804
51169W        W10914  29.579  36.358   0.424
51170W        W10915  39.325   0.385   0.736
51171W        W10916  40.402  26.121   4.625
51172W        W10917  16.615  29.558   2.663
51173W        W10918  37.419  22.536   2.851
51174W        W10919  44.862  10.354   4.346
51175W        W10920  39.988  28.034  10.583
51176W        W10921  41.854  13.737  11.567
51177W        W10922  32.489   4.328   2.365
51178W        W10923   8.806  28.089  13.973
51179W        W10924   3.349  35.526  11.441
51180W        W10925  44.402   7.300  11.605
51181W        W10926  10.237  44.923   4.684
51182W        W10927  18.565  11.247   3.382
51183W        W10928  29.493   2.394  12.842
51184W        W10929  24.648  21.190   4.806
51185W        W10930   1.282  26.004   1.240
51186W        W10931  40.362  32.951  12.059
51187W        W10932  16.741  10.262  11.100
51188W        W10933  22.050   5.385  11.412
51189W        W10934  22.596  13.825  13.975
51190W        W10935  37.569   9.370   1.249
51191W        W10936  37.957  23.233  14.386
51192W        W10937  44.784  13.110  12.488
51193W        W10938  36.557   0.862  13.517
51194W        W10939  36.356   3.291   2.264
51195W        W10940  25.568   2.930   2.721
51196W        W10941   8.402  28.103   1.917
51197W        W10942  13.689  38.902   4.652
51198W        W10943  16.751  33.964  13.878
51199W        W10944  30.107  23.217  14.000
51200W        W10945  28.124  10.262  12.545
51201W        W10946  13.706  34.463   1.920
51202W        W10947  38.326  10.681  10.942
51203W        W10948   1.410  44.860  10.949
51204W        W10949  16.172  43.503  10.644
51205W        W10950   6.335  21.099   9.999
51206W        W10951  15.698  36.041  12.387
51207W        W10952  12.324  42.404   4.701
51208W        W10953  35.498  31.096   0.754
51209W        W10954  36.478   0.274  12.899
51210W        W10955  21.086  22.193   4.225
51211W        W10956   5.763  39.933  13.890
51212W        W10957   0.268   3.935  10.411
51213W        W10958   2.729  41.947   2.792
51214W        W10959  19.746  19.046  10.518
51215W        W10960  44.843   3.443   3.661
51216W        W10961   0.808  44.995  10.575
51217W        W10962  21.245  37.357   1.231
51218W        W10963  11.858  25.082  12.025
51219W        W10964  39.503   1.387  11.932
51220W        W10965  35.969  27.538   1.286
51221W        W10966  10.368  26.988   2.758
51222W        W10967  38.826  23.569   3.313
51223W        W10968  21.257  32.063  12.001
51224W        W10969  40.517   7.798   1.820
51225W        W10970  18.244  24.058   2.720
51226W        W10971   1.282   6.357  11.910
51227W        W10972   3.283   1.445   4.623
51228W        W10973  43.934  36.418  14.376
51229W        W10974  29.477  42.011  14.334
51230W        W10975   9.760  27.685   0.407
51231W        W10976  31.459  24.043   3.649
51232W        W10977  32.083  39.543  11.377
51233W        W10978   5.235  12.629   1.271
51234W        W10979  31.450  27.021  10.579
51235W        W10980  20.144  18.784   4.638
51236W        W10981  44.850  18.057  10.034
51237W        W10982  23.605  19.112  14.408
51238W        W10983  10.799  29.653  10.110
51239W        W10984  16.738  39.959  11.894
51240W        W10985  42.443   6.845   0.289
51241W        W10986  39.314  15.293   0.456
51242W        W10987  21.108  13.769   3.386
51243W        W10988  26.142  28.671   3.845
51244W        W10989   9.700  17.221   2.846
51245W        W10990   1.311   7.389  11.023
51246W        W10991  20.230  10.837   0.409
51247W        W10992  31.152  25.216   3.295
51248W        W10993   0.949  35.999   4.323
51249W        W10994  32.024  44.267  10.951
51250W        W10995  32.580  32.103  11.874
51251W        W10996  29.533  33.564  12.486
51252W        W10997  23.617   1.353  12.980
51253W        W10998  35.931   2.363  13.884
51254W        W10999  23.680   0.442   2.279
51255W        W11000  35.557  28.034   0.436
51256W        W11001  21.201  23.515   4.837
51257W        W11002  13.108  29.509  13.950
51258W        W11003  42.415  30.033   3.179
51259W        W11004  17.734   7.667   4.599
51260W        W11005  42.323   3.399   0.933
51261W        W11006  23.180  24.211  10.907
51262W        W11007  30.924  32.889   1.304
51263W        W11008  22.597  15.317  13.052
51264W        W11009  33.091  25.480  11.952
51265W        W11010  13.286  20.252  13.315
51266W        W11011   1.926  29.664   1.210
51267W        W11012  25.647   3.450  12.998
51268W        W11013  19.710  41.925   0.283
51269W        W11014  33.976  13.684  13.805
51270W        W11015  27.068  13.629   3.762
51271W        W11016  36.582   6.690   0.748
51272W        W11017  28.440  30.120  12.932
51273W        W11018  29.668  30.415   9.951
51274W        W11019  38.542   5.862  14.429
51275W        W11020  20.131   6.817   2.190
51276W        W11021  43.984   8.689  13.333
51277W        W11022  30.006  24.638  11.484
51278W        W11023  33.883  42.947   2.784
51279W        W11024  37.044  41.872   1.438
51280W        W11025  13.614  19.707  10.477
51281W        W11026  37.834  39.498  12.541
51282W        W11027  41.852  30.046  11.048
51283W        W11028  33.995  27.958   4.346
51284W        W11029  41.381  40.316   4.182
51285W        W11030  17.188  16.136   3.253
51286W        W11031   4.343  27.445  14.943
51287W        W11032  22.694  36.011   2.263
51288W        W11033  12.230  18.148  11.042
51289W        W11034  20.759   2.294   0.966
51290W        W11035   2.379  19.699  10.982
51291W        W11036  19.746  43.930   3.356
51292W        W11037   7.833  27.137   3.363
51293W        W11038   5.309  26.690  12.012
51294W        W11039  35.893  18.746   5.148
51295W        W11040  19.153   8.682   3.728
51296W        W11041  23.509  23.705   3.211
51297W        W11042   4.842  41.394  13.429
51298W        W11043  31.409  16.566   9.641
51299W        W11044  17.078  28.022   5.314
51300W        W11045  30.454  17.661   0.852
51301W        W11046   8.814   1.780  11.595
51302W        W11047  15.155  31.556  12.947
51303W        W11048  26.611  35.084   3.203
51304W        W11049  13.335  39.415   0.289
51305W        W11050   7.754   4.412  12.391
51306W        W11051  16.155  36.461   1.823
51307W        W11052  31.637  17.663   2.207
51308W        W11053  11.839  30.475  12.023
51309W        W11054   0.985  21.061  12.434
51310W        W11055   6.281   4.944  14.859
51311W        W11056  33.121  23.126   4.269
51312W        W11057   4.919  15.636   2.735
51313W        W11058  26.077  43.884  11.899
51314W        W11059  19.758  42.826  12.370
51315W        W11060  10.189  36.592  11.053
51316W        W11061  28.491  33.128  11.609
51317W        W11062   3.950  16.307   1.421
51318W        W11063   5.931  42.811   3.171
51319W        W11064   8.395   8.718  12.925
51320W        W11065  30.561  13.750  11.531
51321W        W11066   6.725  44.290   0.899
51322W        W11067  11.821  19.157  13.490
51323W        W11068  25.993  42.823  13.355
51324W        W11069  31.443  20.607   1.784
51325W        W11070  22.164  13.280   0.284
51326W        W11071  35.902   6.232   2.769
51327W        W11072  35.462   1.444  11.493
51328W        W11073  21.053  28.090  14.796
51329W        W11074   5.382  29.934  13.475
51330W        W11075  32.594  24.629   0.250
51331W        W11076   5.782  31.596  11.107
51332W        W11077  34.396  14.297  11.371
51333W        W11078  39.367  23.087  12.469
51334W        W11079   2.898   2.461   2.276
51335W        W11080  19.688   1.808   5.681
51336W        W11081  25.183   5.415   3.261
51337W        W11082   7.843  41.426  14.991
51338W        W11083  23.720  23.105   1.390
51339W        W11084  36.473  36.075  13.829
51340W        W11085  33.086  41.307   0.260
51341W        W11086  21.050  35.599   4.817
51342W        W11087  27.983  30.621  11.492
51343W        W11088  43.282  14.236   3.830
51344W        W11089  28.060  39.894   1.789
51345W        W11090  23.092  38.899  11.450
51346W        W11091  35.554   0.976  12.485
51347W        W11092  34.516   9.275  11.485
51348W        W11093  23.086  41.928  13.348
51349W        W11094  15.605  43.423  14.821
51350W        W11095  21.258  24.026   2.679
51351W        W11096  20.714  28.564  12.064
51352W        W11097  23.184  41.925   0.371
51353W        W11098  12.857   5.845   0.786
51354W        W11099  44.976   8.318  10.452
51355W        W11100  31.497  43.764   4.138
51356W        W11101   6.397  27.622   0.409
51357W        W11102   7.381  22.075   4.233
51358W        W11103  40.860   9.776   1.828
51359W        W11104  23.718  34.417  14.433
51360W        W11105  41.351  17.765  12.576
51361W        W11106  13.230  31.613   0.880
51362W        W11107  15.613   7.751   3.781
51363W        W11108  39.340   8.768  12.853
51364W        W11109  20.165  26.069  14.930
51365W        W11110  32.434  17.204   3.745
51366W        W11111  44.459  14.785  11.406
51367W        W11112  10.817   0.292   3.330
51368W        W11113   2.249  20.132  13.816
51369W        W11114   3.888  40.986  11.491
51370W        W11115  12.139  19.608  14.840
51371W        W11116  19.066   6.245  11.376
51372W        W11117  14.290  24.542   2.679
51373W        W11118  26.495  44.335  12.570
51374W        W11119  22.669  19.757  12.967
51375W        W11120  17.763  28.133   0.389
51376W        W11121  12.801  17.191   0.909
51377W        W11122  42.355  20.752   2.887
51378W        W11123   4.755  31.611  13.903
51379W        W11124  38.982  12.206  14.385
51380W        W11125  17.267  18.555  12.021
51381W        W11126   7.855  38.071  13.969
51382W        W11127  10.750  34.023   4.204
51383W        W11128  19.126  10.231  13.355
51384W        W11129   0.959  32.518  14.500
51385W        W11130   5.420   1.876  12.503
51386W        W11131   4.203  24.589  14.439
51387W        W11132  18.586  24.646  14.763
51388W        W11133  29.167  33.042  12.467
51389W        W11134  42.414   6.858  12.385
51390W        W11135  18.213  28.000   0.361
51391W        W11136  28.933  37.910   3.211
51392W        W11137   0.894  42.799   1.695
51393W        W11138  33.077  35.580   1.754
51394W        W11139  43.914  18.714  12.830
51395W        W11140  25.594  31.521   2.792
51396W        W11141  17.593  27.566  13.490
51397W        W11142  31.085   6.359   2.382
51398W        W11143  25.560  44.419   0.332
51399W        W11144  28.612  28.503  13.025
51400W        W11145  33.093  37.875   3.310
51401W        W11146  41.794  23.579   0.788
51402W        W11147  19.051   8.228  11.406
51403W        W11148  25.148  30.418  10.095
51404W        W11149  32.978  33.007  13.834
51405W        W11150   7.821  26.990   1.710
51406W        W11151  13.191  26.572   2.855
51407W        W11152  25.079   3.343   1.876
51408W        W11153  31.571  11.627   1.821
51409W        W11154  30.993  30.638   0.882
51410W        W11155  29.171  18.213  11.482
51411W        W11156  15.292   4.935   4.646
51412W        W11157  27.037  15.291   2.410
51413W        W11158  29.011  10.693  11.071
51414W        W11159  43.000  25.986  12.906
51415W        W11160  31.424   5.781   4.234
51416W        W11161  18.706  34.106   0.822
51417W        W11162  18.246  13.693  12.063
51418W        W11163  25.181  16.768  12.044
51419W        W11164  18.753   8.304   0.254
51420W        W11165   0.328   2.772  10.576
51421W        W11166   2.360  13.314   1.745
51422W        W11167  33.958  24.046  10.984
51423W        W11168  12.214  41.414  13.464
51424W        W11169  35.924  42.990   5.192
51425W        W11170  34.444   2.322  12.999
51426W        W11171  23.617  32.030   3.192
51427W        W11172  20.198   2.730  14.798
51428W        W11173  40.361  15.824   2.403
51429W        W11174  25.037  17.794  14.824
51430W        W11175  28.498  15.170   2.210
51431W        W11176  41.444  42.438   2.306
51432W        W11177  32.460  20.697   3.664
51433W        W11178  40.908  39.050   1.448
51434W        W11179  33.999  32.003  12.017
51435W        W11180  35.400  42.422  10.956
51436W        W11181  14.749  23.734  10.641
51437W        W11182  28.568  32.518   2.324
51438W        W11183  15.182   8.900   1.747
51439W        W11184  18.171  38.976   3.354
51440W        W11185  36.939  31.431  12.375
51441W        W11186  37.920   2.228   2.835
51442W        W11187  31.124  31.456   2.323
51443W        W11188  41.396  12.818   0.825
51444W        W11189  13.130  26.597  14.910
51445W        W11190  28.074  39.050  11.533
51446W        W11191   1.348  32.633  11.115
51447W        W11192  39.990  18.626  10.973
51448W        W11193   8.332   8.772  14.507
51449W        W11194  31.139  27.065   5.804
51450W        W11195   3.842  36.856  12.425
51451W        W11196  18.711  16.251   3.660
51452W        W11197  35.394  22.044  12.949
51453W        W11198   4.714   8.880   4.605
51454W        W11199  20.227   9.384  12.886
51455W        W11200  36.408  20.242   3.802
51456W        W11201  10.151  18.601   3.861
51457W        W11202  27.661   5.254  13.910
51458W        W11203  31.508   6.847  11.013
51459W        W11204  33.891  38.399   4.137
51460W        W11205   4.393  18.274  12.353
51461W        W11206  11.840  27.650   2.360
51462W        W11207  24.131  15.711  12.339
51463W        W11208   9.321  14.167  12.478
51464W        W11209  16.777  42.292   0.433
51465W        W11210  34.095   7.705   5.171
51466W        W11211   3.927  17.630  14.993
51467W        W11212  13.352  13.176   0.943
51468W        W11213  32.402  19.690   0.425
51469W        W11214  25.587   8.788   1.302
51470W        W11215  20.046  43.416   0.475
51471W        W11216  12.645  18.099  10.558
51472W        W11217  19.265  44.281   3.337
51473W        W11218  37.373   1.906   3.365
51474W        W11219  16.206   2.376   2.877
51475W        W11220  25.673  31.036  14.807
51476W        W11221  22.198  28.039   4.192
51477W        W11222  13.812   0.248   3.190
51478W        W11223   5.235  39.830   1.789
51479W        W11224  25.203  19.075   3.330
51480W        W11225   5.894   1.952  13.417
51481W        W11226  44.348  33.913   1.300
51482W        W11227  11.315  26.069   4.322
51483W        W11228  32.502  23.105   2.418
51484W        W11229   4.786  15.185   0.269
51485W        W11230  18.604  31.982   2.864
51486W        W11231   0.902  40.801  10.934
51487W        W11232  29.552  11.347  11.566
51488W        W11233   4.236   4.329  14.389
51489W        W11234  26.015  19.260   0.933
51490W        W11235  44.332  21.653  12.911
51491W        W11236  44.816   0.975   1.700
51492W        W11237  34.049  31.020   3.760
51493W        W11238  23.511  30.921  12.038
51494W        W11239  29.524  33.897   2.399
51495W        W11240   0.331  25.504   0.904
51496W        W11241  44.824   0.761  10.118
51497W        W11242  42.950  30.917  13.990
51498W        W11243  14.618  27.559   3.811
51499W        W11244  26.209  32.516   1.316
51500W        W11245  13.828  28.959   0.380
51501W        W11246   2.435  21.108   3.697
51502W        W11247  25.571  22.022  14.788
51503W        W11248  31.132  14.316  12.535
51504W        W11249  28.511  26.194   0.297
51505W        W11250  27.047  25.116   2.262
51506W        W11251  36.079  33.942  11.874
51507W        W11252  23.612  14.122   2.762
51508W        W11253   9.377   8.217  14.777
51509W        W11254  28.981  27.161  11.561
51510W        W11255  24.649  35.991   9.603
51511W        W11256  20.604  22.073   3.189
51512W        W11257  13.292   2.912  12.890
51513W        W11258  23.986  20.044  12.007
51514W        W11259  34.940   7.177  13.347
51515W        W11260  22.695  28.510  12.025
51516W        W11261   8.854   2.238  10.515
51517W        W11262  25.066  15.680  13.538
51518W        W11263  14.678  15.305   2.285
51519W        W11264  29.450   7.900   4.306
51520W        W11265   6.877   8.747  12.536
51521W        W11266  38.450  35.029  13.528
51522W        W11267   9.733  12.300  14.017
51523W        W11268  17.178   0.451  13.916
51524W        W11269  16.121  40.320   1.905
51525W        W11270  18.610   3.716  11.390
51526W        W11271  35.972  43.476  14.516
51527W        W11272  19.760  33.128   3.277
51528W        W11273  22.124  30.970  13.967
51529W        W11274  42.797  21.701   2.351
51530W        W11275  27.177  31.405   2.765
51531W        W11276  34.955  29.072  12.479
51532W        W11277  21.692  36.904   3.788
51533W        W11278  28.139  33.085  14.314
51534W        W11279  17.800  28.665  14.439
51535W        W11280   0.322  40.982   2.222
51536W        W11281  42.364  24.641   3.167
51537W        W11282  27.659  11.791   4.126
51538W        W11283  43.284  22.068  12.044
51539W        W11284  11.825  25.560  13.008
51540W        W11285  13.694  29.932  11.500
51541W        W11286  28.117   6.228  10.951
51542W        W11287  30.605  28.112   4.667
51543W        W11288   6.720  11.695   3.147
51544W        W11289   7.830  40.898   1.900
51545W        W11290   3.346  40.905   1.300
51546W        W11291  44.938  23.616  10.618
51547W        W11292   1.373  17.798  12.873
51548W        W11293  26.175  16.169  14.417
51549W        W11294  31.435   5.203  14.984
51550W        W11295  17.272   3.427  13.529
51551W        W11296  44.417   9.826   4.611
51552W        W11297   0.932  30.037  13.882
51553W        W11298  16.587  37.516  12.908
51554W        W11299  36.977   8.861   1.289
51555W        W11300   4.938  34.108  12.998
51556W        W11301  22.053  31.539  13.452
51557W        W11302  30.519  37.855   0.909
51558W        W11303  14.296  32.561  12.931
51559W        W11304  42.520  33.477  11.374
51560W        W11305  41.498   2.369  13.429
51561W        W11306  40.945   9.222  12.864
51562W        W11307  41.991  32.506   1.759
51563W        W11308  29.034  35.562  14.799
51564W        W11309   3.845   6.918   2.183
51565W        W11310  42.982  42.010   2.214
51566W        W11311  29.541  30.973   0.298
51567W        W11312  35.412  34.003   3.232
51568W        W11313   3.833   7.317  14.399
51569W        W11314  16.298   9.159  11.079
51570W        W11315  16.612  29.476  10.490
51571W        W11316  35.052  10.231  11.866
51572W        W11317  12.742   0.827   0.854
51573W        W11318   7.376  24.711   3.343
51574W        W11319  27.649   5.808  13.851
51575W        W11320  16.596  33.891   2.273
51576W        W11321  10.169  10.742   1.805
51577W        W11322  10.344  43.859  14.362
51578W        W11323  39.509  10.721   3.692
51579W        W11324  40.517   2.236   2.762
51580W        W11325  21.686  38.970  10.622
51581W        W11326  13.689  38.050  14.500
51582W        W11327  23.501  26.960  13.022
51583W        W11328   8.378  21.047   2.884
51584W        W11329   8.753  15.100  10.496
51585W        W11330   0.850  37.449   0.422
51586W        W11331   6.896  27.616   1.927
51587W        W11332   0.474  39.037  14.915
51588W        W11333  35.552  11.852  10.952
51589W        W11334  13.704  32.031   0.483
51590W        W11335  25.640  39.966   0.751
51591W        W11336  18.651  37.916  14.783
51592W        W11337  21.688  17.232   2.322
51593W        W11338  30.443   4.773   0.729
51594W        W11339   5.851  29.002   1.261
51595W        W11340  39.336   3.805   1.878
51596W        W11341  34.528   6.314  10.997
51597W        W11342   3.380  20.109   3.845
51598W        W11343  14.180  27.605   2.871
51599W        W11344  14.595  10.371  13.410
51600W        W11345  27.963  41.477   1.759
51601W        W11346   5.313  22.698  10.543
51602W        W11347   2.788  36.977   3.673
51603W        W11348   4.318   9.379  11.576
51604W        W11349  17.181   6.761   3.703
51605W        W11350   6.383  43.885   4.278
51606W        W11351   2.470   6.898   0.840
51607W        W11352  10.360   3.942  11.375
51608W        W11353   2.835   9.809  11.064
51609W        W11354  18.718  26.526  13.055
51610W        W11355  34.911  22.709  11.027
51611W        W11356  17.298  32.550  11.511
51612W        W11357  39.327   1.432  11.120
51613W        W11358  16.201  15.233   4.824
51614W        W11359   8.830   4.410  13.970
51615W        W11360  24.025   9.231   3.368
51616W        W11361  13.752  19.101  10.939
51617W        W11362  24.696  42.963  13.465
51618W        W11363  21.521  39.337   1.717
51619W        W11364  34.004   2.896   2.237
51620W        W11365   8.759  36.011  10.538
51621W        W11366  37.996  12.661  12.487
51622W        W11367  23.607  34.547  14.807
51623W        W11368  20.047  31.640   4.225
51624W        W11369  27.189  28.615   2.251
51625W        W11370  28.570  26.701  11.862
51626W        W11371  34.556   0.855  10.414
51627W        W11372   1.742  26.083   0.348
51628W        W11373  29.997  26.545  12.470
51629W        W11374  11.250  17.683   2.720
51630W        W11375  18.191  23.509   1.303
51631W        W11376  24.100  39.500  10.584
51632W        W11377  19.257  16.682   4.659
51633W        W11378  36.087  42.002   4.671
51634W        W11379  41.536   4.765  13.880
51635W        W11380   0.262   6.391   1.283
51636W        W11381   6.288  21.627   1.439
51637W        W11382  27.103  42.328  13.521
51638W        W11383  10.379  19.726   1.324
51639W        W11384  40.053  27.032   2.201
51640W        W11385  10.277  35.970  10.619
51641W        W11386  22.613   5.391  12.867
51642W        W11387  39.014  27.516   3.225
51643W        W11388  18.140  33.066  11.088
51644W        W11389  11.674   4.751   3.268
51645W        W11390  14.322   4.884  10.457
51646W        W11391  16.634  40.497   3.766
51647W        W11392  22.651  27.125  12.464
51648W        W11393  40.445   8.322  12.067
51649W        W11394  31.017   5.317  11.480
51650W        W11395  33.401   3.765   3.357
51651W        W11396   2.393  41.940   5.238
51652W        W11397   1.828   7.725   2.855
51653W        W11398  14.209   8.853   2.403
51654W        W11399  36.530  39.437   3.285
51655W        W11400  26.682  32.586   5.682
51656W        W11401  34.480   6.372  13.322
51657W        W11402  26.995  30.161  12.448
51658W        W11403  26.174  14.126  12.881
51659W        W11404  26.149  21.225   4.138
51660W        W11405   5.256  36.583  11.090
51661W        W11406  11.233  35.535  12.032
51662W        W11407  22.125   2.966  10.940
51663W        W11408  43.345  42.445  12.963
51664W        W11409  36.021  32.562  12.465
51665W        W11410  43.497  31.442   4.334
51666W        W11411   6.191  40.908  11.546
51667W        W11412   4.933  40.034  10.010
51668W        W11413  20.216  34.468   1.381
51669W        W11414  35.412  17.761   1.702
51670W        W11415  19.597  40.383  10.998
51671W        W11416  13.705  32.499  11.446
51672W        W11417  26.534   1.405  13.511
51673W        W11418   0.933  32.132  10.497
51674W        W11419  35.559  13.239  14.824
51675W        W11420  36.550  39.908   3.173
51676W        W11421  36.391  38.492   2.353
51677W        W11422   7.906  13.834   2.717
51678W        W11423  16.072  14.678  12.971
51679W        W11424  12.157   7.368   1.795
51680W        W11425  19.108  37.891  11.385
51681W        W11426   2.284   0.286  11.995
51682W        W11427   3.265  21.619   2.381
51683W        W11428  30.649  13.294  12.547
51684W        W11429  37.554   7.282  14.504
51685W        W11430  37.942  14.281   4.636
51686W        W11431  34.896   7.311   5.239
51687W        W11432   7.374  15.583   1.382
51688W        W11433  33.601  13.224  11.510
51689W        W11434   0.349  11.160   3.746
51690W        W11435   8.664  42.496  12.477
51691W        W11436  39.033  23.511   3.860
51692W        W11437  32.407  43.338   1.784
51693W        W11438  43.282  27.001  14.898
51694W        W11439  36.435  21.037  10.924
51695W        W11440  27.161  33.548   0.440
51696W        W11441  33.124  17.148  10.636
51697W        W11442   7.193  19.149  11.885
51698W        W11443  26.158  19.631  12.839
51699W        W11444  35.057  29.130  11.586
51700W        W11445   2.265  13.760  14.880
51701W        W11446  41.949  11.852   5.247
51702W        W11447  35.055   0.360  11.879
51703W        W11448  41.803   7.905   2.845
51704W        W11449  19.095  31.920  11.378
51705W        W11450  38.542   1.370  11.995
51706W        W11451  11.312  41.479  11.510
51707W        W11452   8.206  19.107  14.026
51708W        W11453  37.543   7.211   3.651
51709W        W11454   2.886   1.415   0.775
51710W        W11455  31.605   6.399   5.138
51711W        W11456  31.965  38.871   0.792
51712W        W11457   9.337  27.985  12.533
51713W        W11458  10.236  39.520   2.297
51714W        W11459  38.068  33.392  10.590
51715W        W11460  21.562  17.267   3.254
51716W        W11461  21.639  11.327   4.783
51717W        W11462  23.658   8.798  14.951
51718W        W11463  41.467   2.813   3.286
51719W        W11464  24.664  44.324   3.297
51720W        W11465  10.165  29.167  14.783
51721W        W11466  38.352  24.518   1.777
51722W        W11467  44.823  24.147  13.483
51723W        W11468  30.649  35.921  13.478
51724W        W11469  11.186  35.570  12.937
51725W        W11470   6.797  33.518  13.511
51726W        W11471   1.277   6.428  14.485
51727W        W11472   0.370  33.111   3.292
51728W        W11473  20.667  14.786   2.322
51729W        W11474  35.389  11.806   4.828
51730W        W11475  26.133  25.189  13.419
51731W        W11476   0.286   3.323   0.792
51732W        W11477  29.662  27.513   0.888
51733W        W11478  37.975  14.261   0.453
51734W        W11479  15.719  36.577   3.307
51735W        W11480   1.885  27.180   2.844
51736W        W11481  12.200  27.084   2.888
51737W        W11482   9.165  16.143   3.689
51738W        W11483  21.219  42.352   4.801
51739W        W11484  19.214   7.902   0.795
51740W        W11485   2.299  27.629   3.358
51741W        W11486  44.795  11.143   4.139
51742W        W11487  34.874   8.245   4.776
51743W        W11488  41.516  24.191   2.869
51744W        W11489   2.412   7.382   1.795
51745W        W11490  37.392  34.100  13.515
51746W        W11491  17.675  32.914   3.166
51747W        W11492  38.519  24.218   1.299
51748W        W11493  33.928  15.247   4.283
51749W        W11494  41.447  18.582  13.416
51750W        W11495   0.947  21.201   4.266
51751W        W11496  33.060   9.683  13.839
51752W        W11497   5.259  15.816   3.307
51753W        W11498  35.101  37.918  13.855
51754W        W11499  28.466  38.475  13.804
51755W        W11500   3.460  20.185  12.833
51756W        W11501  14.121  25.214   3.831
51757W        W11502  26.463   8.679  13.468
51758W        W11503  10.307  13.845   3.252
51759W        W11504  25.532  11.802   1.210
51760W        W11505  12.686  36.901   0.956
51761W        W11506  41.836  39.852   3.210
51762W        W11507  17.122   4.931  13.933
51763W        W11508  39.915  33.595   2.220
51764W        W11509   4.802  26.573   0.740
51765W        W11510  40.963  35.089  11.608
51766W        W11511  24.578  28.091   2.402
51767W        W11512  18.654  23.719   3.199
51768W        W11513   0.818  41.421   1.385
51769W        W11514  21.651  26.683  14.459
51770W        W11515  17.663  13.713   4.114
51771W        W11516  27.672  30.988   4.323
51772W        W11517  44.897  33.468  10.502
51773W        W11518  38.557   1.391  10.549
51774W        W11519  20.721  14.309  10.029
51775W        W11520  22.507  32.945   2.773
51776W        W11521  17.221  34.457   5.161
51777W        W11522   7.783  18.264  12.089
51778W        W11523   9.650  38.473   1.384
51779W        W11524  22.629  29.921   3.750
51780W        W11525   3.439   3.757  14.894
51781W        W11526  27.559  19.682  13.871
51782W        W11527   0.355  22.658   3.654
51783W        W11528  23.116  27.503   4.205
51784W        W11529  32.513  39.364   4.175
51785W        W11530  26.568  26.170   3.649
51786W        W11531  14.783  20.204   0.863
51787W        W11532   2.255   6.407  14.856
51788W        W11533  17.099   3.220  12.405
51789W        W11534  23.189  35.974   4.295
51790W        W11535   8.312  12.265  12.369
51791W        W11536   5.418  41.806   1.810
51792W        W11537  24.005   8.708   2.340
51793W        W11538  17.757  17.732  13.461
51794W        W11539  31.995  31.943  14.772
51795W        W11540  11.803   3.222   3.384
51796W        W11541  30.587  31.981  12.370
51797W        W11542   7.687  22.241   4.612
51798W        W11543   1.795   6.396   0.814
51799W        W11544  40.952  16.156  13.450
51800W        W11545  28.980  14.649  12.886
51801W        W11546  25.709   8.802  13.970
51802W        W11547  11.176  40.029  10.931
51803W        W11548  41.455  27.189   0.896
51804W        W11549  44.979  34.508   3.291
51805W        W11550  12.757  40.369  11.061
51806W        W11551  14.301  38.471   4.255
51807W        W11552  37.347  23.733  14.275
51808W        W11553  34.375  24.069  13.474
51809W        W11554  25.014  26.628   4.729
51810W        W11555  35.563  22.598   3.239
51811W        W11556  11.287   8.889   2.410
51812W        W11557  43.305  19.639   3.361
51813W        W11558  43.958  22.633  14.509
51814W        W11559  40.863  30.495  14.297
51815W        W11560   3.899  41.506   1.247
51816W        W11561  30.423  30.066   3.797
51817W        W11562  39.022  28.051   4.739
51818W        W11563  10.281  21.123  12.960
51819W        W11564  12.694  16.765   2.315
51820W        W11565  44.322  36.383  13.957
51821W        W11566   8.683   0.980   1.876
51822W        W11567  11.320  40.921  12.552
51823W        W11568  33.586  30.140   5.702
51824W        W11569   0.820  38.522   3.151
51825W        W11570  36.914   4.911  10.484
51826W        W11571  28.932  43.403   2.769
51827W        W11572  21.638  23.205  12.508
51828W        W11573  34.949  22.679  13.803
51829W        W11574   0.803  33.477   4.698
51830W        W11575  27.515  41.037   3.707
51831W        W11576  38.553  22.699  10.410
51832W        W11577  41.800  11.199   4.116
51833W        W11578   3.347  18.687   2.682
51834W        W11579  41.793  36.053  11.374
51835W        W11580   8.879  26.568  13.467
51836W        W11581   8.663  27.156  13.335
51837W        W11582  30.025  31.412  12.414
51838W        W11583  29.500  31.048  13.878
51839W        W11584   8.748  11.176   3.843
51840W        W11585  21.658  22.610   0.443
51841W        W11586  14.829  11.136  14.280
51842W        W11587  11.234  12.337   0.283
51843W        W11588  14.188  32.097   4.718
51844W        W11589  28.945  36.940  14.827
51845W        W11590   5.845  25.535  13.886
51846W        W11591  17.078  42.935  14.482
51847W        W11592  10.313   3.220  11.947
51848W        W11593  25.603  44.875  13.450
51849W        W11594   9.149  20.724   1.841
51850W        W11595  35.576  12.749  13.002
51851W        W11596   5.779   7.812  11.088
51852W        W11597  19.600  27.130  11.422
51853W        W11598   3.323  13.772   3.711
51854W        W11599   3.318  42.461  11.377
51855W        W11600   8.190  39.939  12.859
51856W        W11601   0.930   3.955  11.956
51857W        W11602  42.427  40.396  14.340
51858W        W11603  27.613  18.067  11.579
51859W        W11604  32.055  18.134   4.271
51860W        W11605  35.986  30.165  12.021
51861W        W11606  42.938   4.702   2.825
51862W        W11607  33.482  13.280  11.070
51863W        W11608  44.961  22.109  11.484
51864W        W11609  33.079  31.503   1.694
51865W        W11610  33.482   8.217   2.726
51866W        W11611   1.749  38.559  13.536
51867W        W11612  31.980  17.573   5.726
51868W        W11613   2.271   3.861  11.561
51869W        W11614  13.274  29.539   4.603
51870W        W11615  24.722  12.847  14.312
51871W        W11616  35.533  34.948   1.292
51872W        W11617   4.283  23.720  13.402
51873W        W11618   9.286  35.461   4.175
51874W        W11619  15.615   2.938  10.405
51875W        W11620   1.445  37.856   0.781
51876W        W11621  19.073  17.166  12.463
51877W        W11622   4.926  17.796  13.503
51878W        W11623  23.180  27.184  14.441
51879W        W11624  43.879  35.507  13.993
51880W        W11625   3.259  13.633   0.447
51881W        W11626  41.472  21.074  10.929
51882W        W11627  27.659  43.411   4.187
51883W        W11628  43.994  39.893   4.825
51884W        W11629  31.602  40.494   2.687
51885W        W11630  15.769  41.986   2.304
51886W        W11631  40.967   1.375   2.389
51887W        W11632   6.703  13.667   0.913
51888W        W11633  14.179  43.797   3.188
51889W        W11634  22.223  27.452  14.987
51890W        W11635  12.790   1.433  12.501
51891W        W11636  21.534   0.784   5.304
51892W        W11637  42.514  28.932   3.320
51893W        W11638  34.895  37.883   0.384
51894W        W11639  10.759  27.509   1.731
51895W        W11640  10.815  22.598  11.531
51896W        W11641  27.971  34.413   1.270
51897W        W11642   5.281  44.898   1.394
51898W        W11643   3.909  11.633  13.393
51899W        W11644  23.017  20.236  12.935
51900W        W11645  41.041  13.143   4.190
51901W        W11646   7.274   6.699   2.903
51902W        W11647   1.283  40.830  12.041
51903W        W11648   5.736  15.775  14.335
51904W        W11649  22.586  12.667  14.906
51905W        W11650  28.529  33.390  10.141
51906W        W11651  23.652  14.809  10.550
51907W        W11652  41.387  23.675  10.431
51908W        W11653  37.412  25.203  12.416
51909W        W11654   1.389  33.997   9.589
51910W        W11655  44.972   2.874   2.328
51911W        W11656  37.575  33.005   0.458
51912W        W11657  28.511  40.361   4.187
51913W        W11658  16.308  28.666  13.489
51914W        W11659  14.156  41.876  11.485
51915W        W11660  35.548  43.341  14.822
51916W        W11661  39.907   7.722  12.500
51917W        W11662  42.323  33.935   2.743
51918W        W11663  21.700  32.418  11.572
51919W        W11664   4.387  16.219   2.880
51920W        W11665  28.660  18.595  12.861
51921W        W11666  11.803  12.856   4.765
51922W        W11667  43.318  43.364  11.483
51923W        W11668   5.711  40.015  12.568
51924W        W11669   1.948   7.219  13.498
51925W        W11670   1.850  44.858  11.917
51926W        W11671  44.363  20.266  12.523
51927W        W11672   8.403   3.316  14.473
51928W        W11673   7.835  16.130  12.094
51929W        W11674  12.613  10.715   1.331
51930W        W11675  43.784   8.368   1.852
51931W        W11676   7.905  10.825   1.287
51932W        W11677  28.506   6.274  11.542
51933W        W11678   4.855  16.713   1.426
51934W        W11679  10.644  42.799   5.219
51935W        W11680  40.346  22.705   0.331
51936W        W11681  20.248  33.525   3.353
51937W        W11682  28.051  41.841  10.055
51938W        W11683  22.065  16.308   2.850
51939W        W11684  36.376  41.919   0.431
51940W        W11685  22.564   3.388   0.755
51941W        W11686  31.964  18.206   9.506
51942W        W11687  20.140   7.730  12.512
51943W        W11688  38.877   6.306   0.965
51944W        W11689  22.225   5.814   2.343
51945W        W11690  44.922  16.101   4.706
51946W        W11691  30.470  39.896  13.962
51947W        W11692  32.612  41.322   3.857
51948W        W11693  37.961  34.496   4.603
51949W        W11694  23.566   1.450   1.782
51950W        W11695  44.294   6.266   0.357
51951W        W11696  40.042  40.876  12.478
51952W        W11697  15.155  41.328   4.341
51953W        W11698  42.506  41.821  10.941
51954W        W11699  35.550  42.780  13.429
51955W        W11700  25.156  36.513  14.832
51956W        W11701   5.219   5.840  13.041
51957W        W11702  23.557   8.819   4.200
51958W        W11703   9.782  35.448  13.884
51959W        W11704  34.980  10.693   2.270
51960W        W11705  32.503  18.096  13.450
51961W        W11706  30.634  17.707   0.359
51962W        W11707  38.992  37.952   3.327
51963W        W11708  28.026  13.608   4.800
51964W        W11709   1.787  31.926   1.859
51965W        W11710  27.468  41.802   4.236
51966W        W11711   5.841   8.291  12.884
51967W        W11712   1.745   1.891   0.337
51968W        W11713   7.293   2.409  13.031
51969W        W11714   3.418  42.338  11.113
51970W        W11715  17.756  22.205   1.314
51971W        W11716  25.073  30.596   3.250
51972W        W11717   3.796  13.271   0.330
51973W        W11718  16.712  12.275   4.135
51974W        W11719   9.388  18.720  13.953
51975W        W11720   3.753  34.031  12.513
51976W        W11721  25.542   1.919   3.212
51977W        W11722  28.071  31.085  12.849
51978W        W11723  19.198  12.217   3.758
51979W        W11724   1.336  28.166  12.923
51980W        W11725   4.240  29.610  10.948
51981W        W11726  22.107  39.014   3.237
51982W        W11727  18.559  44.492  10.104
51983W        W11728  43.359  31.959  10.936
51984W        W11729  21.026  35.930  14.785
51985W        W11730  28.939  21.730   4.786
51986W        W11731  34.519   2.725  14.791
51987W        W11732   0.278  22.223  15.000
51988W        W11733  39.817  22.729   1.873
51989W        W11734   3.436  23.160  11.103
51990W        W11735  11.330  19.175  14.479
51991W        W11736  38.979  29.514  10.438
51992W        W11737  21.585  28.938  14.393
51993W        W11738  34.371   4.350   3.705
51994W        W11739  17.307  16.072   0.895
51995W        W11740  18.133  42.905  12.042
51996W        W11741  38.541  18.243   1.800
51997W        W11742  20.164  23.176  14.979
51998W        W11743  13.285  37.440  14.781
51999W        W11744  21.702   6.713  13.956
52000W        W11745  16.638  19.602   0.805
52001W        W11746  41.940  19.581  14.813
52002W        W11747  32.534  17.773  10.525
52003W        W11748  42.850   7.844  11.869
52004W        W11749   0.435  26.104  10.582
52005W        W11750   1.279  34.498   2.688
52006W        W11751   2.230  33.977   4.810
52007W        W11752  32.585  15.215  10.614
52008W        W11753  31.573   1.755  14.961
52009W        W11754  18.057  28.576  14.027
52010W        W11755  11.776  39.363   1.839
52011W        W11756  36.453  31.466   2.366
52012W        W11757   7.171   4.729  11.393
52013W        W11758  34.515  21.535  11.591
52014W        W11759   9.363  24.498   2.272
52015W        W11760  42.786  39.363  10.006
52016W        W11761   4.756  36.347  11.882
52017W        W11762  11.318  42.512  12.467
52018W        W11763   5.880  18.237  14.320
52019W        W11764  15.798  23.016   1.398
52020W        W11765  35.008   8.681   9.988
52021W        W11766   0.895   7.322   4.648
52022W        W11767  11.325  36.539  10.518
52023W        W11768  41.890   0.283   4.779
52024W        W11769  27.183  27.486   0.302
52025W        W11770   7.275  18.662   1.320
52026W        W11771   3.290  41.946   1.413
52027W        W11772  13.759   5.214  12.851
52028W        W11773  16.296  31.591   4.614
52029W        W11774  32.435   1.954   4.155
52030W        W11775  36.346  20.534   4.242
52031W        W11776  11.223  20.722   2.387
52032W        W11777  23.609  15.602   1.757
52033W        W11778  25.207   8.399  11.952
52034W        W11779  12.704  33.543   9.654
52035W        W11780  31.603   8.900   4.643
52036W        W11781  30.008  24.990   0.918
52037W        W11782  42.314  40.885   2.361
52038W        W11783  17.644  32.545   3.653
52039W        W11784  31.133  20.578   0.364
52040W        W11785  13.241  43.767  13.040
52041W        W11786  10.877  16.139   2.371
52042W        W11787  28.458   4.718  10.093
52043W        W11788  17.762  39.467   4.711
52044W        W11789   4.408  42.978   5.233
52045W        W11790  12.630  12.123  10.486
52046W        W11791  26.473  43.965  10.924
52047W        W11792  43.818   8.277   4.827
52048W        W11793   9.265  25.482  13.542
52049W        W11794  24.020  39.062  11.487
52050W        W11795  37.036  36.367   3.316
52051W        W11796  15.121  27.999   4.154
52052W        W11797   3.776  30.057   1.695
52053W        W11798  17.265  18.109   2.226
52054W        W11799   8.689  25.596  14.958
52055W        W11800  21.186   3.955   2.864
52056W        W11801  44.313   6.688  11.098
52057W        W11802  44.815   3.331   0.470
52058W        W11803  29.463  19.675  10.044
52059W        W11804  10.798   4.810   1.214
52060W        W11805  25.098  43.938   0.429
52061W        W11806  17.155  37.412  12.064
52062W        W11807  41.836  43.991  14.765
52063W        W11808   2.443  15.630  11.481
52064W        W11809  13.790  42.450  11.594
52065W        W11810  18.635  18.740  14.346
52066W        W11811  26.973  12.120  13.988
52067W        W11812  38.378  18.116  10.598
52068W        W11813  32.466  22.732   3.249
52069W        W11814  37.429  14.223  11.987
52070W        W11815  23.172  26.471  14.474
52071W        W11816  25.652  40.845   3.863
52072W        W11817  43.317  44.279   2.379
52073W        W11818  35.972  27.016  13.965
52074W        W11819   4.363   5.790   0.403
52075W        W11820  17.231  13.132  12.463
52076W        W11821  32.045   2.265   4.620
52077W        W11822  28.967  27.090  13.399
52078W        W11823   3.418  13.632   0.870
52079W        W11824  34.023  35.971  14.811
52080W        W11825   4.403  17.241  11.975
52081W        W11826  17.706  12.627   3.228
52082W        W11827  35.049  17.138   9.982
52083W        W11828  28.556  39.877  11.069
52084W        W11829  26.153  41.971  10.461
52085W        W11830   3.439  44.374  13.321
52086W        W11831  42.906   4.292  14.898
52087W        W11832  14.621   5.716   0.777
52088W        W11833  31.449  43.786   1.829
52089W        W11834  18.662   3.278   2.330
52090W        W11835   2.777   8.661  12.951
52091W        W11836   8.759  12.713  10.640
52092W        W11837   4.326  33.013  10.912
52093W        W11838  19.233  30.620  12.502
52094W        W11839   8.760   4.935  13.317
52095W        W11840  22.175  21.512  11.954
52096W        W11841  37.468  43.902  11.074
52097W        W11842  44.828  16.699   3.725
52098W        W11843  40.418  10.675  12.426
52099W        W11844  18.565  16.568  13.851
52100W        W11845  34.979  24.558   0.267
52101W        W11846  14.775  23.643   2.796
52102W        W11847  17.667   6.216   4.209
52103W        W11848  13.148   7.893  13.063
52104W        W11849   1.796   0.793  14.462
52105W        W11850  38.467   5.251   2.242
52106W        W11851  14.785  43.338  12.077
52107W        W11852   9.775  30.967   1.848
52108W        W11853  14.129  30.020  10.913
52109W        W11854  42.461  25.546   2.779
52110W        W11855  34.402  21.667   2.813
52111W        W11856  13.287  10.773   2.270
52112W        W11857  14.615  25.537  11.599
52113W        W11858  23.989  16.240   1.368
52114W        W11859  30.468  31.568   1.372
52115W        W11860  34.897  35.438   4.219
52116W        W11861   9.283  14.612   1.929
52117W        W11862  10.656  28.032  12.422
52118W        W11863  17.097  13.742  13.037
52119W        W11864  41.460  11.281   0.917
52120W        W11865  37.470  40.324   5.213
52121W        W11866  26.677  41.388  13.548
52122W        W11867   8.221  17.120   2.195
52123W        W11868  38.417   1.384   1.721
52124W        W11869  30.104  17.208   2.415
52125W        W11870  19.756  44.429   1.255
52126W        W11871  32.911   1.348  14.330
52127W        W11872  25.672  35.571   4.650
52128W        W11873  14.590  33.052  10.547
52129W        W11874   4.317  11.670   1.257
52130W        W11875  32.534  37.579  14.296
52131W        W11876  18.258  14.603  14.420
52132W        W11877   6.865  33.409   9.954
52133W        W11878  37.850  27.454   0.756
52134W        W11879   6.798  28.036  13.888
52135W        W11880  27.148  40.364  11.015
52136W        W11881  33.466  40.372  13.823
52137W        W11882  28.972  34.036  11.064
52138W        W11883  30.105  22.020   4.340
52139W        W11884  14.762  27.095   0.444
52140W        W11885  28.999   7.251  13.034
52141W        W11886   1.812  17.270   4.314
52142W        W11887  30.446  33.600   1.712
52143W        W11888  42.807  20.058  12.083
52144W        W11889  33.621  14.702  13.977
52145W        W11890   2.804   5.217  14.879
52146W        W11891   3.793   1.442  11.387
52147W        W11892  28.967  23.641  12.010
52148W        W11893  24.523   5.697  14.810
52149W        W11894  14.118  33.878  14.416
52150W        W11895  38.417  14.599  12.993
52151W        W11896  13.329   4.934  14.996
52152W        W11897  31.594  18.234   2.411
52153W        W11898  42.857  32.976   1.431
52154W        W11899  32.035   7.791   0.945
52155W        W11900  25.684  31.435  14.283
52156W        W11901  38.557  30.473   4.645
52157W        W11902   8.312  15.621  11.935
52158W        W11903   5.773   4.789  10.460
52159W        W11904  23.645  38.480  11.431
52160W        W11905  42.988   4.319   2.688
52161W        W11906  10.635  38.522  12.468
52162W        W11907  24.609   0.477   0.879
52163W        W11908  27.018  26.130  12.547
52164W        W11909  22.202  29.155  12.579
52165W        W11910  28.663   0.930   0.292
52166W        W11911  39.928   2.966   1.698
52167W        W11912  28.537  40.420  12.376
52168W        W11913  32.048   7.845   0.443
52169W        W11914  10.246  32.052  11.542
52170W        W11915  40.526  24.643  13.346
52171W        W11916  23.174  21.088  11.036
52172W        W11917   9.353  24.515   3.778
52173W        W11918  29.027   6.325   1.698
52174W        W11919  19.255  21.236  14.492
52175W        W11920   4.344  14.320  10.904
52176W        W11921  20.137  21.146  11.425
52177W        W11922  16.077  24.480  13.985
52178W        W11923   9.825  15.721  10.564
52179W        W11924  27.609  24.094   2.288
52180W        W11925  12.334  32.588  14.911
52181W        W11926  17.655  12.299   0.343
52182W        W11927   6.765  33.994   1.882
52183W        W11928   9.760  35.442   5.646
52184W        W11929  22.211   6.710   3.207
52185W        W11930  15.253  27.104   1.284
52186W        W11931   3.799  23.008   3.384
52187W        W11932  24.156  12.768  11.113
52188W        W11933   8.334  10.243  14.964
52189W        W11934  39.044   2.847   0.458
52190W        W11935  38.461  37.566   1.881
52191W        W11936  34.531  16.148   1.411
52192W        W11937   2.727  44.796   2.192
52193W        W11938  34.446  34.895   2.767
52194W        W11939  43.882   3.288  11.995
52195W        W11940  14.163  17.121   4.230
52196W        W11941  27.142  19.702   4.148
52197W        W11942   5.871  39.502  14.958
52198W        W11943  20.153  31.469   0.815
52199W        W11944  11.825   1.397  12.011
52200W        W11945  36.543  39.525  14.987
52201W        W11946  17.089   3.733  12.960
52202W        W11947   5.694   9.253  10.890
52203W        W11948  13.165  39.336  14.370
52204W        W11949  27.194  30.930  14.427
52205W        W11950  11.346  16.593   4.604
52206W        W11951  41.807  10.305   0.904
52207W        W11952  43.439  28.975  10.147
52208W        W11953  33.492   9.305  12.881
52209W        W11954  20.248  11.211  13.815
52210W        W11955  14.275   5.747  12.347
52211W        W11956  41.003   4.444   2.835
52212W        W11957   4.206  44.394   0.447
52213W        W11958  17.278   6.757  14.360
52214W        W11959   9.340   8.218   2.670
52215W        W11960  33.972  30.157   3.302
52216W        W11961   2.793  28.450  13.816
52217W        W11962  37.924  12.838   4.149
52218W        W11963  14.311  14.259   2.354
52219W        W11964  25.088  28.499  13.837
52220W        W11965  21.670  42.979   4.778
52221W        W11966   3.244   1.767   4.187
52222W        W11967  40.055  20.745   1.225
52223W        W11968  11.308   7.393  12.939
52224W        W11969  15.619  33.908  14.921
52225W        W11970  28.156   5.371  10.515
52226W        W11971   8.849  23.565   3.296
52227W        W11972   2.956   4.377   0.864
52228W        W11973   2.956  14.656  14.302
52229W        W11974   1.352  24.981   3.215
52230W        W11975  28.477  27.649   1.874
52231W        W11976  32.018  12.131   1.891
52232W        W11977  11.738  25.608  12.026
52233W        W11978  24.699  26.051   4.127
52234W        W11979  41.890  27.531  12.461
52235W        W11980  12.172  29.922  11.965
52236W        W11981  12.648  37.550   0.472
52237W        W11982  40.036  13.344   1.367
52238W        W11983  34.090  14.096   0.370
52239W        W11984  30.616  12.302   4.348
52240W        W11985  39.503  28.158   4.321
52241W        W11986  20.267   6.858  13.850
52242W        W11987   0.360  15.653   1.865
52243W        W11988  36.030  26.053  13.855
52244W        W11989  16.607  29.425  14.425
52245W        W11990   4.887  21.117  12.828
52246W        W11991   5.377  26.099   0.856
52247W        W11992   6.224   1.259   3.674
52248W        W11993  14.257  16.236  11.870
52249W        W11994  39.321  32.957  14.460
52250W        W11995  28.612  37.364  10.064
52251W        W11996   4.445   8.780   3.716
52252W        W11997  16.125  38.072   3.750
52253W        W11998   3.367   2.723  12.554
52254W        W11999  17.134   2.757  13.379
52255W        W12000  26.616   3.435   0.263
52256W        W12001  16.801  26.096  14.456
52257W        W12002  43.485  20.142   2.335
52258W        W12003  30.053  14.681  14.364
52259W        W12004  40.980   7.377   3.844
52260W        W12005  26.541   0.354  14.407
52261W        W12006  41.493  16.737   3.686
52262W        W12007  24.562   4.346   4.718
52263W        W12008   8.363  43.809   3.771
52264W        W12009  14.734  15.119  13.825
52265W        W12010  35.495  21.511  13.039
52266W        W12011  10.353  32.888  12.025
52267W        W12012  28.584  19.101   3.339
52268W        W12013  34.111  30.636  14.501
52269W        W12014  19.757  30.992   2.372
52270W        W12015  16.770   3.718   0.960
52271W        W12016  36.029  38.407  12.513
52272W        W12017  33.989  17.234  12.838
52273W        W12018   6.679  21.536   2.321
52274W        W12019  27.458  27.110  14.840
52275W        W12020  44.299   2.789  13.528
52276W        W12021  21.198   7.294  13.987
52277W        W12022   6.781  15.090   3.189
52278W        W12023  13.647  21.754   3.679
52279W        W12024  20.132  31.040  13.048
52280W        W12025  38.411  38.916   4.661
52281W        W12026  41.008  10.771   1.852
52282W        W12027  31.516  20.728   4.251
52283W        W12028   8.181  30.475  13.334
52284W        W12029   1.478  30.063  12.439
52285W        W12030   3.856  31.053   3.854
52286W        W12031  14.179  28.641  10.613
52287W        W12032  15.292   1.269  14.503
52288W        W12033  41.819  43.474   0.815
52289W        W12034   6.380  30.503  12.833
52290W        W12035   3.741  18.079  11.941
52291W        W12036  20.537  26.614  12.997
52292W        W12037   2.396  20.703   2.818
52293W        W12038  19.122  27.529  14.841
52294W        W12039  10.764  32.400  13.889
52295W        W12040  14.325  29.941   3.749
52296W        W12041  21.211  18.212  10.491
52297W        W12042  37.372  10.848   1.241
52298W        W12043  44.366  19.618  14.472
52299W        W12044   1.364   4.919  14.889
52300W        W12045  23.032  29.537   5.693
52301W        W12046  41.996  20.059   3.307
52302W        W12047  26.636  43.975   1.433
52303W        W12048  40.856  12.765  12.545
52304W        W12049  22.551  28.572  10.515
52305W        W12050  11.728  18.549   5.180
52306W        W12051   9.815  44.837   3.192
52307W        W12052  36.913  22.529  11.041
52308W        W12053  41.350   2.891   3.797
52309W        W12054  15.276   9.883   3.805
52310W        W12055  25.036  19.077  13.831
52311W        W12056  16.695  23.143   1.390
52312W        W12057  16.598   4.233   0.854
52313W        W12058  25.153   3.768   2.357
52314W        W12059   1.361  33.506   1.240
52315W        W12060  14.097   8.725  12.907
52316W        W12061  26.000   8.862  10.974
52317W        W12062  15.642  26.552   3.642
52318W        W12063  43.359  30.566  14.950
52319W        W12064  31.644  22.052  13.879
52320W        W12065  30.649  41.515  14.425
52321W        W12066   4.828  27.509  12.963
52322W        W12067  29.941  20.167  12.577
52323W        W12068  13.809  42.872   4.117
52324W        W12069   2.355  37.071   2.357
52325W        W12070  32.599  16.221   4.281
52326W        W12071  38.560  19.664   2.669
52327W        W12072  44.827  20.138  11.571
52328W        W12073  38.039  29.447  12.909
52329W        W12074  43.391   6.735   4.753
52330W        W12075  41.314  44.303  11.870
52331W        W12076  22.718  30.659  12.540
52332W        W12077   6.194  29.054  14.029
52333W        W12078  40.826  39.496   3.204
52334W        W12079  21.563  16.208  14.944
52335W        W12080   4.736  14.164   5.143
52336W        W12081  36.570  36.854   0.935
52337W        W12082  15.675  21.142   3.308
52338W        W12083   0.486  11.174   1.844
52339W        W12084   0.967  27.644  12.449
52340W        W12085  19.164  39.481  12.419
52341W        W12086  28.451  31.010   3.353
52342W        W12087  17.201   8.370  11.926
52343W        W12088  14.728  30.036  10.577
52344W        W12089  14.229  41.955   4.836
52345W        W12090   9.336  34.383  12.961
52346W        W12091   4.776  31.428   4.325
52347W        W12092  29.654  35.903   4.137
52348W        W12093  38.474  30.022   0.824
52349W        W12094   5.369   3.291  12.499
52350W        W12095   1.380  38.996   4.803
52351W        W12096  41.388   3.450   0.768
52352W        W12097  11.195  15.628  10.476
52353W        W12098  11.815  41.984  10.435
52354W        W12099  18.681  37.421  10.473
52355W        W12100  22.125  18.145   0.256
52356W        W12101   0.988  44.855  13.520
52357W        W12102  21.259  32.124   3.183
52358W        W12103   3.906   9.334   0.460
52359W        W12104  23.082  24.058   4.349
52360W        W12105  17.190  19.753  13.429
52361W        W12106  31.102  37.439   2.696
52362W        W12107   8.220  33.921   3.666
52363W        W12108  26.112  21.049  11.063
52364W        W12109  21.039   8.163  14.982
52365W        W12110  14.774  31.031   4.270
52366W        W12111   4.819   2.901  14.995
52367W        W12112  32.535   0.797   3.229
52368W        W12113  39.405   0.790   3.675
52369W        W12114  34.033  24.561  14.823
52370W        W12115  30.049  11.152   1.229
52371W        W12116  38.529  32.418  13.042
52372W        W12117  41.976  10.825   1.380
52373W        W12118  23.118  32.987   1.433
52374W        W12119  11.772  40.041  12.503
52375W        W12120  11.279  30.059  12.044
52376W        W12121  18.703   0.338  14.394
52377W        W12122   9.848  39.464  11.126
52378W        W12123  29.445  21.613  13.381
52379W        W12124   1.427  10.252   1.321
52380W        W12125  13.284  18.114  12.435
52381W        W12126  38.010  14.755   4.188
52382W        W12127  18.105   9.778   4.336
52383W        W12128  33.583  28.983  11.465
52384W        W12129  28.059  22.250  14.449
52385W        W12130  13.179  26.568   0.351
52386W        W12131  11.212  16.568   1.225
52387W        W12132   2.453  28.168  14.302
52388W        W12133  42.491  10.862   1.349
52389W        W12134  11.132   1.914   0.861
52390W        W12135  27.953   4.883  13.490
52391W        W12136  15.793  19.571  10.921
52392W        W12137  21.240  19.060  14.933
52393W        W12138  26.620   2.794  12.863
52394W        W12139  26.078  11.364  14.506
52395W        W12140  15.778  20.097   4.194
52396W        W12141  39.539  19.135  12.952
52397W        W12142  15.264  19.234   0.368
52398W        W12143   0.839  39.491   1.310
52399W        W12144  10.679  30.012  12.936
52400W        W12145  26.684   4.757   2.770
52401W        W12146  15.099   7.729   0.329
52402W        W12147   2.834  10.808   0.265
52403W        W12148   2.797   5.755  12.873
52404W        W12149  36.084  28.180   4.146
52405W        W12150   1.374  14.306   2.251
52406W        W12151  17.265  10.845  14.316
52407W        W12152  40.026  14.229   4.679
52408W        W12153   6.909  28.617  10.596
52409W        W12154  44.452   7.216   4.613
52410W        W12155  12.740   7.288  13.410
52411W        W12156  16.788  29.999   3.831
52412W        W12157  37.482  26.073   4.814
52413W        W12158  24.181  30.064  12.923
52414W        W12159  34.394  34.888   0.908
52415W        W12160  23.061  43.466  12.058
52416W        W12161  11.239  13.300   1.879
52417W        W12162   7.394   8.225   3.705
52418W        W12163  44.926  44.927   2.713
52419W        W12164  21.650  41.407   3.160
52420W        W12165  16.135   3.831   3.196
52421W        W12166   3.227  32.910  13.352
52422W        W12167  24.048  27.482   2.265
52423W        W12168  31.006  27.185   4.734
52424W        W12169  22.187  42.808  13.515
52425W        W12170  33.590  22.043  12.861
52426W        W12171  22.169  38.466   0.307
52427W        W12172  17.580  38.570   1.315
52428W        W12173  33.989  23.529  14.764
52429W        W12174  38.392   5.921  10.982
52430W        W12175  19.061  41.794  13.812
52431W        W12176   8.706   0.358  10.948
52432W        W12177  33.115   7.740  14.471
52433W        W12178  32.891  16.621  10.012
52434W        W12179  20.622  20.048   4.189
52435W        W12180  38.543  41.326  14.467
52436W        W12181   3.808  40.511  13.964
52437W        W12182  10.644  14.651   2.757
52438W        W12183  13.692  13.748   0.329
52439W        W12184  32.953  17.122  10.991
52440W        W12185   4.934  38.441  12.853
52441W        W12186  34.503  17.701  14.890
52442W        W12187  37.987  38.451   2.886
52443W        W12188  28.582  11.700  14.498
52444W        W12189  33.567   6.294  14.949
52445W        W12190  36.916  17.169  14.307
52446W        W12191  32.552  22.648   3.671
52447W        W12192  36.568   9.201   4.199
52448W        W12193  25.501  25.214   2.714
52449W        W12194   7.841  30.143  11.895
52450W        W12195   5.257  20.585   9.608
52451W        W12196   9.346  33.489   4.662
52452W        W12197  17.209  35.998   9.999
52453W        W12198  11.191  15.718  12.394
52454W        W12199  34.926  40.868   0.431
52455W        W12200  43.866  14.123   3.849
52456W        W12201  10.751  22.039   4.206
52457W        W12202  26.693  25.505  14.913
52458W        W12203  26.521  11.231   3.175
52459W        W12204   0.268   8.235  14.963
52460W        W12205  22.539  20.229  12.031
52461W        W12206  16.682  42.451   1.835
52462W        W12207   0.454  26.544  12.373
52463W        W12208  23.554  29.939  11.497
52464W        W12209  20.222  15.786  14.840
52465W        W12210   4.381  44.504   3.774
52466W        W12211  32.626  16.227  14.812
52467W        W12212   2.231  43.369  13.855
52468W        W12213  43.805  31.616  14.500
52469W        W12214  29.519   6.700  12.856
52470W        W12215  34.385  34.537   0.880
52471W        W12216  32.001  40.902   1.360
52472W        W12217  19.236  30.587  11.986
52473W        W12218   6.865  14.095   1.932
52474W        W12219  24.051  38.895   4.775
52475W        W12220  27.493  12.299   4.775
52476W        W12221   8.893   0.937  12.095
52477W        W12222  14.241  41.464   1.340
52478W        W12223   8.310  25.193   1.389
52479W        W12224  21.739  37.553  10.630
52480W        W12225  36.373  11.837   1.364
52481W        W12226   8.698  30.569   4.802
52482W        W12227   4.935  34.003  13.829
52483W        W12228  28.652   8.850  12.559
52484W        W12229  24.610  36.393   9.928
52485W        W12230  21.020  36.998  13.975
52486W        W12231  25.518  25.041  13.935
52487W        W12232  26.202  33.948   2.745
52488W        W12233   3.936   6.326   2.365
52489W        W12234   6.427   5.768  10.468
52490W        W12235   8.718  17.265   1.288
52491W        W12236  35.952  42.003  13.374
52492W        W12237  35.106  22.653  11.544
52493W        W12238  18.775  11.258   0.901
52494W        W12239  32.618  29.616   3.683
52495W        W12240  20.627  29.047  13.430
52496W        W12241  28.571  34.925   0.424
52497W        W12242  22.185  11.709   2.244
52498W        W12243  44.302  21.679   2.683
52499W        W12244   6.257  23.714   2.682
52500W        W12245  28.128  15.278   0.448
52501W        W12246  26.643  34.384  13.940
52502W        W12247  23.578  44.998  14.788
52503W        W12248   3.883  44.955   0.313
52504W        W12249  38.025  23.584  13.845
52505W        W12250  10.652  12.778  11.969
52506W        W12251  41.472  20.050  13.063
52507W        W12252  25.511   8.834   4.778
52508W        W12253  37.442   5.804  10.613
52509W        W12254  37.384  30.597  12.367
52510W        W12255  40.808   8.238  12.531
52511W        W12256  43.997  12.186  11.891
52512W        W12257  27.519  12.719   0.875
52513W        W12258  20.766  22.191  12.965
52514W        W12259  43.353  18.160  10.551
52515W        W12260   3.818  24.118  13.440
52516W        W12261  18.581  10.726  13.899
52517W        W12262  13.189  14.604   1.242
52518W        W12263  39.014  19.048  10.029
52519W        W12264  25.493  20.098   4.604
52520W        W12265  34.045  12.644   0.396
52521W        W12266  30.919   2.359  11.467
52522W        W12267  13.295  24.229   2.825
52523W        W12268  22.627  10.273   4.209
52524W        W12269   4.443  16.083  11.424
52525W        W12270  28.998   8.279   0.822
52526W        W12271  35.908  29.586  11.548
52527W        W12272  14.162  19.657   2.411
52528W        W12273  17.093  41.917  10.897
52529W        W12274  32.065  44.894   2.727
52530W        W12275  41.376   6.311   0.863
52531W        W12276  38.563  42.810  11.950
52532W        W12277   0.452  19.737  11.073
52533W        W12278  38.385  37.031   3.241
52534W        W12279  17.679  34.504   1.744
52535W        W12280  44.797   7.880  10.561
52536W        W12281  32.453  34.569   0.872
52537W        W12282   4.234  25.042  14.385
52538W        W12283  43.478  34.411   0.243
52539W        W12284   7.802  30.965  14.414
52540W        W12285  34.899  18.640  14.880
52541W        W12286   8.873  41.332   3.337
52542W        W12287  34.975  33.597  13.538
52543W        W12288   5.423  30.074  14.842
52544W        W12289  29.036  23.125  11.065
52545W        W12290  27.045  13.665  11.474
52546W        W12291  10.768  15.285  13.888
52547W        W12292  35.511  11.225  10.953
52548W        W12293  16.673  44.953   2.694
52549W        W12294  44.260  23.988  13.440
52550W        W12295   7.706  35.371   1.364
52551W        W12296   1.823   3.453  14.974
52552W        W12297   9.769  21.224   2.744
52553W        W12298  39.536  14.213  14.954
52554W        W12299  35.044  10.787   1.728
52555W        W12300  38.361  10.264  11.429
52556W        W12301  36.019  42.944   0.249
52557W        W12302  33.130  31.009  12.079
52558W        W12303  33.991  34.085   2.355
52559W        W12304  28.141   2.406  10.432
52560W        W12305  39.525  35.953   4.724
52561W        W12306  31.958  24.532   0.384
52562W        W12307  31.061  23.504   1.230
52563W        W12308  29.954   2.881  11.433
52564W        W12309  35.431  33.110   4.786
52565W        W12310  14.247  10.749   4.128
52566W        W12311  22.170  31.107   0.299
52567W        W12312  42.419  23.702   4.156
52568W        W12313  21.250  17.087  10.115
52569W        W12314   2.933  35.541  13.813
52570W        W12315  17.254  12.773  13.922
52571W        W12316  39.385   9.873   2.268
52572W        W12317   1.389  35.537   1.312
52573W        W12318  40.874  13.315   3.246
52574W        W12319  42.968  10.352  11.038
52575W        W12320  20.173  14.330  12.403
52576W        W12321  30.616  18.102  14.790
52577W        W12322  43.317  44.760  13.991
52578W        W12323  27.172  33.119   0.844
52579W        W12324  19.217  14.286   3.846
52580W        W12325  18.217  32.607  11.953
52581W        W12326  15.114  37.546  14.398
52582W        W12327  42.500   6.738   4.807
52583W        W12328  26.627   8.764  13.026
52584W        W12329   6.403  12.220   4.664
52585W        W12330   6.923  28.518  13.374
52586W        W12331  40.937  38.551   0.276
52587W        W12332  16.161  40.371  11.077
52588W        W12333  20.584   6.749   3.202
52589W        W12334  28.103  29.085   3.305
52590W        W12335   9.679  16.134   0.801
52591W        W12336  39.555  30.633   0.381
52592W        W12337  17.668  35.885  10.611
52593W        W12338  10.866  44.920  10.432
52594W        W12339  22.601  17.637  14.472
52595W        W12340  24.654  41.912   4.341
52596W        W12341  32.518  40.548  11.588
52597W        W12342  17.273  12.228  11.562
52598W        W12343  25.962  36.348   0.432
52599W        W12344  13.163  25.172   1.426
52600W        W12345  41.855   3.446  12.370
52601W        W12346  20.591  33.513  12.527
52602W        W12347  16.073   4.827  10.984
52603W        W12348  40.967  21.704  13.447
52604W        W12349  22.559  41.519   1.698
52605W        W12350  37.058  19.596  13.918
52606W        W12351  43.451   1.461   1.720
52607W        W12352  25.610  10.349  14.846
52608W        W12353  29.985   6.410  13.045
52609W        W12354  40.024  42.998   2.863
52610W        W12355   4.295  12.627   0.888
52611W        W12356   8.743  42.336  10.641
52612W        W12357  20.554  16.717  13.399
52613W        W12358  38.064   9.219  12.569
52614W        W12359  40.875   6.914  10.966
52615W        W12360  14.232  43.860   4.141
52616W        W12361  32.508  38.528   2.754
52617W        W12362  23.146  29.052  14.435
52618W        W12363   0.783  17.796  11.988
52619W        W12364  12.333  44.498   2.866
52620W        W12365   5.224  43.963  11.984
52621W        W12366  32.563  21.095  10.562
52622W        W12367  43.977  39.918  10.953
52623W        W12368  22.205  44.342   4.265
52624W        W12369  13.720  39.403   2.206
52625W        W12370  19.125  26.606   0.358
52626W        W12371  44.912  24.721   0.273
52627W        W12372  17.253  24.499   0.252
52628W        W12373  10.149  18.162   4.672
52629W        W12374  12.260  33.441  14.929
52630W        W12375  41.325  40.821  11.376
52631W        W12376  17.780  32.109  14.795
52632W        W12377  31.454   0.754   0.413
52633W        W12378  30.619  12.207  12.873
52634W        W12379  18.117  44.349  13.320
52635W        W12380  29.047  11.842  11.069
52636W        W12381  44.266  32.466   3.257
52637W        W12382  41.327  39.433   4.675
52638W        W12383  27.964   0.838   0.742
52639W        W12384  28.057   9.387  13.846
52640W        W12385  29.550  37.478   4.773
52641W        W12386   4.758  24.099   1.766
52642W        W12387  23.493  20.573   0.484
52643W        W12388   1.339  33.911   4.694
52644W        W12389   0.493   9.701   0.304
52645W        W12390  43.950  25.641  14.291
52646W        W12391  16.094  27.999  12.406
52647W        W12392  32.593  38.941  10.909
52648W        W12393   7.233  38.991   4.169
52649W        W12394  33.446  26.524  11.942
52650W        W12395   5.932  14.186  13.040
52651W        W12396  15.270  41.959  12.035
52652W        W12397  36.002  32.475  10.529
52653W        W12398  40.903  18.148   2.884
52654W        W12399  44.342  14.302   0.362
52655W        W12400  37.957   9.763   3.801
52656W        W12401  16.745  34.922   1.851
52657W        W12402  10.862  39.469  13.341
52658W        W12403   2.858   5.739   3.738
52659W        W12404  20.214   7.298   1.743
52660W        W12405  24.706   1.467  10.555
52661W        W12406  33.466   1.376  13.515
52662W        W12407  28.126  13.600   4.214
52663W        W12408  41.015  12.296   2.250
52664W        W12409  24.061  24.595   1.761
52665W        W12410  26.484  23.653  13.405
52666W        W12411  28.032  29.485   3.651
52667W        W12412  28.469   6.408  14.345
52668W        W12413  14.738  28.079   4.258
52669W        W12414  44.868   1.280  11.880
52670W        W12415   0.924  10.685  11.538
52671W        W12416  22.595  12.232   1.928
52672W        W12417  38.415  11.744   1.712
52673W        W12418  14.772  36.068  11.027
52674W        W12419  42.504  38.882  13.451
52675W        W12420   3.927  25.521  14.006
52676W        W12421  26.582  10.335   2.814
52677W        W12422  41.936  31.129  13.855
52678W        W12423  24.584  33.958   0.312
52679W        W12424  24.511   7.677   1.886
52680W        W12425  32.573  22.560  13.327
52681W        W12426  41.472   5.833  10.492
52682W        W12427   7.406  39.925  14.357
52683W        W12428  24.225  26.116   4.766
52684W        W12429  29.075  18.285  14.944
52685W        W12430  29.478  15.102   2.379
52686W        W12431  20.664  10.203   1.292
52687W        W12432  18.069  18.071  13.380
52688W        W12433  29.556  40.883  11.571
52689W        W12434  29.991  42.784   1.292
52690W        W12435  24.130  17.577  10.423
52691W        W12436  43.504  35.501   0.909
52692W        W12437   5.438  29.581   3.354
52693W        W12438  17.792   2.788   3.182
52694W        W12439  15.794  40.919   1.700
52695W        W12440  12.183  39.364  13.356
52696W        W12441  20.749  23.660   1.216
52697W        W12442  26.168  19.621  11.576
52698W        W12443  25.690   1.246   2.710
52699W        W12444  32.559  16.753  12.050
52700W        W12445   8.380  15.168   4.214
52701W        W12446  29.456  26.479  14.957
52702W        W12447  12.172  13.239   0.346
52703W        W12448   1.864  26.208   2.260
52704W        W12449  29.464  13.177   2.781
52705W        W12450   5.888  42.375  13.525
52706W        W12451  32.120  41.945   1.835
52707W        W12452  24.686  38.564  12.869
52708W        W12453  37.907  24.694   1.741
52709W        W12454   1.906  22.997  11.095
52710W        W12455  38.902  30.063  13.498
52711W        W12456   1.767  40.432   1.880
52712W        W12457  31.463  22.111   1.863
52713W        W12458  30.496   8.306  12.537
52714W        W12459  10.870   0.905  10.982
52715W        W12460  13.171  17.583   4.818
52716W        W12461  18.087  43.294   3.151
52717W        W12462  21.092  15.181  12.991
52718W        W12463  31.087  12.781  11.881
52719W        W12464  17.079  18.228  10.901
52720W        W12465  19.596  34.466   2.837
52721W        W12466  29.107  18.765   2.281
52722W        W12467  30.952  33.081  13.993
52723W        W12468   2.893   9.394  14.889
52724W        W12469  34.092  34.503   2.408
52725W        W12470  19.197  43.362   4.182
52726W        W12471   9.337   1.868  11.919
52727W        W12472  12.748  14.790  10.981
52728W        W12473  38.411  26.612  14.902
52729W        W12474   4.785  21.066   4.233
52730W        W12475  17.107   3.459   1.833
52731W        W12476   9.824  10.655  14.807
52732W        W12477  20.624  22.584   1.380
52733W        W12478  17.684  37.508  11.967
52734W        W12479  10.694   4.764  13.307
52735W        W12480  37.010  18.613  12.915
52736W        W12481  20.565   3.298  10.429
52737W        W12482  21.703  30.017  12.846
52738W        W12483  19.698  13.722   0.275
52739W        W12484   0.780  14.194  12.062
52740W        W12485   8.738  32.576  12.022
52741W        W12486   9.301   8.868  12.506
52742W        W12487   0.840  12.153   1.931
52743W        W12488  26.584  26.579   3.669
52744W        W12489  18.242   8.210  14.389
52745W        W12490  23.177   9.278  10.889
52746W        W12491  33.035  12.119   1.356
52747W        W12492  44.947  30.629   0.332
52748W        W12493  17.778  34.484  10.979
52749W        W12494  13.220  30.553  11.422
52750W        W12495  14.115  29.644  10.444
52751W        W12496  41.479  26.070   0.757
52752W        W12497  39.039  27.996  14.325
52753W        W12498  30.000   4.247   0.256
52754W        W12499  32.035  16.805  14.813
52755W        W12500   2.902  34.397   3.212
52756W        W12501  44.323  22.069  13.868
52757W        W12502   5.740  20.609  12.828
52758W        W12503  14.145  28.123  13.050
52759W        W12504   3.363  40.340  12.525
52760W        W12505  31.488   9.776   0.280
52761W        W12506  14.619  40.829   1.770
52762W        W12507  18.062  27.505   2.887
52763W        W12508  35.882   4.894  12.827
52764W        W12509  22.161  42.401   4.292
52765W        W12510  32.132  16.141  13.040
52766W        W12511  27.030  31.083  13.967
52767W        W12512   7.356  13.643  13.392
52768W        W12513   8.888  16.579   1.442
52769W        W12514  36.424  27.015  13.542
52770W        W12515  23.187  29.968   1.253
52771W        W12516   7.707  11.679  12.005
52772W        W12517  15.261  11.746  12.420
52773W        W12518  24.099   4.879   1.884
52774W        W12519  37.453  33.471  11.387
52775W        W12520  32.979  21.557  14.935
52776W        W12521  34.440  37.855   2.815
52777W        W12522  34.013  17.650  12.523
52778W        W12523  13.812  31.922   1.374
52779W        W12524  19.249  10.308  12.911
52780W        W12525  23.680  44.451   0.247
52781W        W12526   4.829  35.932  14.868
52782W        W12527  31.064  42.295   3.790
52783W        W12528  20.199   6.410  10.971
52784W        W12529   4.727  33.984   4.762
52785W        W12530  21.515   3.313   1.811
52786W        W12531  31.436  37.559   3.754
52787W        W12532  36.880  35.913   4.255
52788W        W12533  33.429   5.242  12.356
52789W        W12534   4.430  14.179  14.434
52790W        W12535  19.144   4.440   1.725
52791W        W12536  28.552  31.619   3.186
52792W        W12537  26.112  22.617   0.390
52793W        W12538  30.644  38.861  14.988
52794W        W12539  26.667  23.629  12.496
52795W        W12540  37.060  26.160  10.634
52796W        W12541  11.633   1.473  13.326
52797W        W12542  39.978  25.128  12.842
52798W        W12543  37.526  38.074  14.439
52799W        W12544  22.202  28.600  11.530
52800W        W12545  11.224  25.583   3.350
52801W        W12546  22.202  18.759   1.869
52802W        W12547  24.015  39.020  12.345
52803W        W12548  39.955  29.659  14.766
52804W        W12549   0.377  35.092   4.202
52805W        W12550  12.699  22.244  10.609
52806W        W12551   7.838  27.625   3.223
52807W        W12552  16.113  10.383   1.820
52808W        W12553  18.084  44.838  10.977
52809W        W12554  12.285  16.789  14.353
52810W        W12555  37.064  33.029   3.809
52811W        W12556  44.334  42.964   1.710
52812W        W12557  16.681  31.440  12.927
52813W        W12558   7.675  30.631  11.582
52814W        W12559   5.389  15.668   1.260
52815W        W12560  33.555  40.414  11.473
52816W        W12561  41.477  17.262   0.351
52817W        W12562   4.406   3.413   1.933
52818W        W12563  33.100  36.078   2.739
52819W        W12564  25.598  37.021   0.922
52820W        W12565   1.392   7.378   2.298
52821W        W12566  19.154   9.161  12.392
52822W        W12567  20.029  31.414   2.391
52823W        W12568  26.497   1.929  14.348
52824W        W12569  40.407   2.466   1.905
52825W        W12570  41.858  43.772   4.607
52826W        W12571   3.455  20.608  10.620
52827W        W12572   7.333  36.045  12.982
52828W        W12573  22.137  32.493   4.148
52829W        W12574   3.374  27.151   1.896
52830W        W12575  23.042  25.537  13.946
52831W        W12576   0.347  11.649   4.795
52832W        W12577  24.705  30.109  13.954
52833W        W12578   2.229   7.787   0.968
52834W        W12579   2.234  31.613   2.839
52835W        W12580  29.102  25.962   3.665
52836W        W12581  12.207   7.690  11.570
52837W        W12582  26.010   2.363  14.440
52838W        W12583  24.018  15.626   2.749
52839W        W12584  19.139   9.152  11.000
52840W        W12585  14.731  10.276  10.902
52841W        W12586  21.689   8.897  10.965
52842W        W12587  29.507  20.566  14.831
52843W        W12588  37.977   6.246   1.761
52844W        W12589  10.647  13.126   4.823
52845W        W12590  13.688  38.330  11.097
52846W        W12591   4.894  25.688   0.469
52847W        W12592  30.625  11.717   3.268
52848W        W12593  16.074  13.728   0.378
52849W        W12594  30.933  35.952   3.710
52850W        W12595  29.445  34.472   2.743
52851W        W12596  41.515  30.518   4.331
52852W        W12597  15.591  32.464  14.817
52853W        W12598  25.619   1.859  12.506
52854W        W12599   3.726   7.365   2.817
52855W        W12600  26.575   5.231  13.514
52856W        W12601  12.838   3.759   4.801
52857W        W12602   2.951   4.937  13.406
52858W        W12603  16.133  36.872  10.544
52859W        W12604  29.953  29.568  13.881
52860W        W12605  25.671  24.076  10.594
52861W        W12606   7.180  30.468   0.959
52862W        W12607  43.929  36.405  12.966
52863W        W12608  15.311  22.191  13.796
52864W        W12609  23.090   6.358  11.943
52865W        W12610  17.241   8.865  11.414
52866W        W12611  37.387   4.416  10.941
52867W        W12612  12.261   7.689  11.120
52868W        W12613  33.396  43.440   2.272
52869W        W12614  27.654  39.468  11.044
52870W        W12615  36.500  14.589   2.792
52871W        W12616  36.889   0.368  11.502
52872W        W12617  35.555  17.790   4.304
52873W        W12618  19.283  26.490  13.395
52874W        W12619  42.362  17.701  14.842
52875W        W12620  18.168  16.117  12.007
52876W        W12621  18.732  11.640  12.078
52877W        W12622  18.654  11.261  12.966
52878W        W12623   8.272  13.690   4.127
52879W        W12624   1.323  43.366  13.961
52880W        W12625  36.065   4.282   1.322
52881W        W12626   7.871  33.448  12.955
52882W        W12627  23.142  20.756  13.367
52883W        W12628  11.175  23.627  14.284
52884W        W12629  34.526  25.691   1.225
52885W        W12630   1.440   9.387  11.975
52886W        W12631  34.400  13.828   0.273
52887W        W12632  36.446  37.341  12.545
52888W        W12633  36.943  18.680   3.361
52889W        W12634   2.875  23.103   3.698
52890W        W12635  24.173  11.133   1.282
52891W        W12636  20.265  13.276   2.302
52892W        W12637  36.039   9.773  13.391
52893W        W12638  40.800  27.969  11.433
52894W        W12639  43.870  35.535  12.938
52895W        W12640   7.880  42.018   0.349
52896W        W12641   8.171  23.160  13.997
52897W        W12642   3.269   6.874  13.453
52898W        W12643   6.694  35.954  13.436
52899W        W12644   1.800  19.121   0.941
52900W        W12645  11.132   1.926   4.291
52901W        W12646  29.092  23.052   0.919
52902W        W12647  13.130  34.007   1.897
52903W        W12648  13.171  26.067   2.263
52904W        W12649  15.764  14.248  12.969
52905W        W12650  20.729   7.237   0.931
52906W        W12651   3.361  20.226   1.263
52907W        W12652  24.526   8.160  14.776
52908W        W12653  41.445  30.608  11.600
52909W        W12654  43.017  32.061  13.515
52910W        W12655  23.185  19.161  10.903
52911W        W12656  40.831  27.497  10.618
52912W        W12657   4.713   4.310  12.454
52913W        W12658  17.717  14.665   4.135
52914W        W12659  25.199   0.317   0.343
52915W        W12660   9.664  22.995   4.294
52916W        W12661  33.960  10.769   0.804
52917W        W12662  37.008  43.276   4.817
52918W        W12663   4.872  11.748   1.856
52919W        W12664   1.405   9.307  13.855
52920W        W12665  44.471  15.740   1.367
52921W        W12666  15.174  13.301  14.292
52922W        W12667  16.191   3.867   4.202
52923W        W12668   5.758  42.006  14.837
52924W        W12669   2.236   4.884  11.611
52925W        W12670  29.444   2.953  14.900
52926W        W12671   2.789  21.682   4.352
52927W        W12672  32.422   3.333   2.222
52928W        W12673  21.068  35.021   1.431
52929W        W12674   0.972  22.197  14.985
52930W        W12675  11.193  42.887   4.188
52931W        W12676   7.266  33.927   0.376
52932W        W12677  15.594  28.600   1.398
52933W        W12678  44.898   4.283  11.879
52934W        W12679   8.898   6.218   2.848
52935W        W12680   1.786  43.959  13.867
52936W        W12681  26.600  35.413  11.087
52937W        W12682  21.052   5.767  10.458
52938W        W12683  31.436  42.002   1.229
52939W        W12684  34.545  38.019   1.791
52940W        W12685  15.262  27.017  14.761
52941W        W12686  33.073  25.713   2.670
52942W        W12687  41.908  28.959  12.997
52943W        W12688   6.413  28.999  14.763
52944W        W12689  23.700  30.455   3.274
52945W        W12690  39.838   0.927  10.632
52946W        W12691  42.479  24.991   4.622
52947W        W12692  15.618  14.617   1.733
52948W        W12693  36.028  12.231   1.825
52949W        W12694   1.284  13.658  12.906
52950W        W12695  38.459  15.674  13.367
52951W        W12696   0.256  21.524   2.216
52952W        W12697   8.305  22.232   3.292
52953W        W12698  42.858  29.942   2.782
52954W        W12699  39.422   4.443  13.430
52955W        W12700  29.051  22.548  10.498
52956W        W12701  32.611  38.832  14.441
52957W        W12702  14.799  13.193   0.440
52958W        W12703  14.793   4.908   1.699
52959W        W12704  22.067  27.619  14.516
52960W        W12705  25.002  30.500  14.416
52961W        W12706  17.118   8.848  10.441
52962W        W12707  14.744  24.979   5.153
52963W        W12708   5.841  30.444   3.173
52964W        W12709  40.472  41.916   1.798
52965W        W12710  18.192  30.612  13.520
52966W        W12711  11.213  16.130   4.308
52967W        W12712  23.999   8.825  11.015
52968W        W12713  24.518   1.824  14.950
52969W        W12714  29.665   9.202   3.164
52970W        W12715  11.340  20.763   1.437
52971W        W12716   1.819  29.006   2.887
52972W        W12717  28.472  25.120   0.921
52973W        W12718  20.703  21.528   3.301
52974W        W12719  12.321  17.587  12.472
52975W        W12720   5.807  29.432  12.489
52976W        W12721  10.316  11.866  14.788
52977W        W12722  34.451   5.320  11.389
52978W        W12723  38.397  35.524  12.973
52979W        W12724  20.056  35.391   4.640
52980W        W12725  34.495  17.767   3.771
52981W        W12726  33.478  24.616  13.914
52982W        W12727  31.009  19.614  11.950
52983W        W12728  38.415  28.146  14.829
52984W        W12729  40.426  26.564   4.708
52985W        W12730  11.830  42.440  13.341
52986W        W12731  40.462  15.785   2.841
52987W        W12732  34.881  17.171   5.274
52988W        W12733  11.283  39.491  11.399
52989W        W12734   7.727  21.054  14.504
52990W        W12735  31.549   9.733  11.109
52991W        W12736  17.571  32.111  11.519
52992W        W12737  22.008   5.254  12.092
52993W        W12738  16.659  31.129   0.880
52994W        W12739   5.240  44.479   0.288
52995W        W12740  32.423  34.953   1.285
52996W        W12741  29.663  31.483   1.883
52997W        W12742   2.906  16.201   2.692
52998W        W12743  15.172   9.669   1.734
52999W        W12744  17.690   4.833   3.631
53000W        W12745  13.770   6.247  13.508
53001W        W12746  32.603  20.625  12.900
53002W        W12747   3.790  29.437   3.747
53003W        W12748  27.160  20.753   0.777
53004W        W12749  43.846  14.194  13.376
53005W        W12750  41.809   6.873  14.011
53006W        W12751  33.606  42.793   2.416
53007W        W12752  27.076  33.895  10.962
53008W        W12753  33.938  41.911   0.893
53009W        W12754  41.397  28.047  14.447
53010W        W12755  18.772  37.562   4.716
53011W        W12756   8.266  17.775   2.677
53012W        W12757  33.980  29.154  14.412
53013W        W12758  29.174  12.321   1.442
53014W        W12759  24.722  36.544  14.354
53015W        W12760  14.654  11.709   3.336
53016W        W12761   1.452  11.867   2.885
53017W        W12762   5.278   9.790   4.136
53018W        W12763   9.837  19.722   1.245
53019W        W12764   8.821  18.219  13.058
53020W        W12765   5.401   1.327   0.293
53021W        W12766  17.301  42.862   1.285
53022W        W12767  41.425   0.791  12.026
53023W        W12768  32.498  13.176   4.601
53024W        W12769  12.780  16.202   1.243
53025W        W12770  32.905  35.941   1.823
53026W        W12771  20.742   1.928  12.356
53027W        W12772  23.733  12.681   9.952
53028W        W12773  30.934   1.777   0.445
53029W        W12774  13.304  34.534   2.830
53030W        W12775   4.405  38.502   5.151
53031W        W12776  44.874  40.431  12.855
53032W        W12777  41.460   6.881   1.376
53033W        W12778  15.730   1.479  10.991
53034W        W12779   4.406  25.106   3.219
53035W        W12780  13.599   6.330  10.496
53036W        W12781  36.865  32.614  12.434
53037W        W12782  15.088  42.504  12.405
53038W        W12783  21.680   1.413  14.888
53039W        W12784   0.902  44.834  13.955
53040W        W12785   8.656  14.751   0.397
53041W        W12786  34.957  18.273   1.816
53042W        W12787  22.236  10.153  12.091
53043W        W12788   0.980  39.520   2.774
53044W        W12789   0.944  36.423  12.487
53045W        W12790   4.427  31.592  12.519
53046W        W12791   9.297  40.023  10.631
53047W        W12792  36.911  43.929  14.003
53048W        W12793   5.807  39.415  14.287
53049W        W12794  15.311   8.719   2.730
53050W        W12795  16.236  10.852  12.839
53051W        W12796  24.008  28.173   4.137
53052W        W12797  34.100   0.954  11.423
53053W        W12798  25.567  26.977   1.739
53054W        W12799  33.471  25.631   3.656
53055W        W12800   0.314   9.171  10.419
53056W        W12801   1.458  41.002   2.866
53057W        W12802  29.464  29.093   2.383
53058W        W12803  24.147  16.303  12.052
53059W        W12804  25.206  14.101   2.860
53060W        W12805  17.724   9.193   1.723
53061W        W12806  27.141  37.003  12.038
53062W        W12807  19.732  34.942  10.493
53063W        W12808  44.331  13.701  11.891
53064W        W12809  40.014  14.740   1.438
53065W        W12810  36.410  31.043  12.344
53066W        W12811   1.894  20.693  12.844
53067W        W12812  37.962  31.071   4.782
53068W        W12813  20.573  17.218   0.900
53069W        W12814  16.221   2.233   1.741
53070W        W12815   0.464  33.429  14.934
53071W        W12816   3.808  34.876  13.366
53072W        W12817  29.562  10.373  14.460
53073W        W12818  42.296  26.506   3.338
53074W        W12819  38.411  37.472  10.529
53075W        W12820  21.087   4.369   2.826
53076W        W12821  25.995  15.122  10.951
53077W        W12822   7.703   0.425   2.388
53078W        W12823  37.928  15.250   4.634
53079W        W12824  42.460  33.089   1.260
53080W        W12825   8.836  35.872  13.916
53081W        W12826  14.727  34.025   2.814
53082W        W12827  44.263   5.247  14.374
53083W        W12828  38.458  36.950   2.312
53084W        W12829  40.842  41.411   4.748
53085W        W12830  38.919   7.385   1.734
53086W        W12831  13.274  44.883   1.283
53087W        W12832  29.559  14.811  13.065
53088W        W12833  44.500  33.078   1.211
53089W        W12834   8.743   9.321   1.757
53090W        W12835   6.280  38.917   3.356
53091W        W12836  32.594  24.093   3.309
53092W        W12837   1.892  38.892  14.394
53093W        W12838  25.639  19.537   2.301
53094W        W12839  40.504  24.479  14.946
53095W        W12840  37.086  16.299   1.376
53096W        W12841  23.190  18.642   3.834
53097W        W12842  29.114  20.555   9.945
53098W        W12843  10.357  15.137  10.988
53099W        W12844  18.735   7.291   2.236
53100W        W12845  28.484  39.523   0.400
53101W        W12846  10.799  39.430  12.342
53102W        W12847  39.522  43.398   3.867
53103W        W12848   1.300  11.144  12.976
53104W        W12849  41.850  25.206  13.012
53105W        W12850  26.656  37.490   5.125
53106W        W12851  23.655   3.876   2.365
53107W        W12852  31.136  11.198   3.161
53108W        W12853  43.858   8.379  11.100
53109W        W12854  36.439  36.495  14.924
53110W        W12855  42.952  20.612  10.511
53111W        W12856  22.241  17.780   3.233
53112W        W12857  43.394  36.393  11.579
53113W        W12858  32.561  26.185   1.803
53114W        W12859  40.479  21.593  13.050
53115W        W12860  36.353  12.799  13.844
53116W        W12861  15.634  41.476   1.880
53117W        W12862  43.310  18.759   4.183
53118W        W12863  18.179  42.312   3.158
53119W        W12864  29.942   3.378  11.539
53120W        W12865  28.026   5.334   3.335
53121W        W12866  28.081  39.814  14.905
53122W        W12867  41.469  14.138   4.121
53123W        W12868  17.275  11.212   0.729
53124W        W12869   1.851  35.040   3.209
53125W        W12870   0.781  43.901   1.292
53126W        W12871  14.139  28.940  14.955
53127W        W12872   1.851   7.795   1.311
53128W        W12873  32.999  33.402   2.347
53129W        W12874  18.574   0.295  11.449
53130W        W12875  32.107  41.030   0.280
53131W        W12876  39.445  10.748   0.853
53132W        W12877  10.783  15.732   9.999
53133W        W12878   8.190  22.576   1.801
53134W        W12879   4.707  31.035   3.770
53135W        W12880  34.102  19.567  12.453
53136W        W12881   3.453   6.871  10.408
53137W        W12882  20.739  33.048  12.394
53138W        W12883  33.624  31.528  11.050
53139W        W12884   3.851  42.503   1.823
53140W        W12885  30.003  42.871   2.267
53141W        W12886   9.371  34.974   1.917
53142W        W12887  28.077  10.647   5.313
53143W        W12888  40.823  40.942   3.633
53144W        W12889   5.365  34.420   4.193
53145W        W12890  35.425  13.133  12.084
53146W        W12891  22.166  26.042  11.530
53147W        W12892  31.114  17.073   0.857
53148W        W12893  21.070  29.646  13.990
53149W        W12894  28.002  33.557   2.227
53150W        W12895  35.596   5.827   3.266
53151W        W12896  27.992  40.937  14.989
53152W        W12897   2.936  33.050  11.423
53153W        W12898  35.047  41.906   4.184
53154W        W12899   2.254  38.977   1.827
53155W        W12900   8.223   6.910  14.320
53156W        W12901  40.821  24.675  11.457
53157W        W12902  16.804  28.646  11.518
53158W        W12903  41.504  20.040   4.250
53159W        W12904  10.138  20.180  12.342
53160W        W12905   3.314  14.677  14.453
53161W        W12906   3.946  10.147  10.101
53162W        W12907  19.605  19.120  14.991
53163W        W12908  16.620  13.159   0.924
53164W        W12909  25.632   4.372   3.218
53165W        W12910   5.803  20.267   4.722
53166W        W12911  38.389  42.446   0.311
53167W        W12912  26.071  32.401   3.332
53168W        W12913  29.963  16.679   3.758
53169W        W12914  22.612   4.398   0.845
53170W        W12915  23.592  14.283  12.528
53171W        W12916  21.614  27.568  12.955
53172W        W12917  12.753  33.379   3.203
53173W        W12918  37.368  37.039  14.906
53174W        W12919   0.266  18.271  13.938
53175W        W12920  20.735  33.572   2.863
53176W        W12921  35.911  23.151  11.972
53177W        W12922  36.390  39.954   4.183
53178W        W12923   1.362  27.097  10.510
53179W        W12924  15.201  22.201  11.426
53180W        W12925  10.249  25.602   4.656
53181W        W12926  25.190  11.723   4.619
53182W        W12927  12.747  10.871   3.253
53183W        W12928  30.958  28.581  13.456
53184W        W12929   5.722  15.135  13.927
53185W        W12930   9.656  31.475   2.295
53186W        W12931  36.098  39.314   4.624
53187W        W12932  13.163   3.349  10.896
53188W        W12933  35.864   9.286   2.402
53189W        W12934  40.516  16.690   4.638
53190W        W12935  20.667  41.959  13.960
53191W        W12936  28.074  22.217  13.537
53192W        W12937  32.078  31.918   0.936
53193W        W12938  24.058  32.908   2.712
53194W        W12939  40.309  19.614   0.941
53195W        W12940   4.753   6.197  13.864
53196W        W12941  19.768   2.895   0.794
53197W        W12942  23.227  12.736   3.771
53198W        W12943  11.336  11.696  14.428
53199W        W12944  25.485  17.656  10.434
53200W        W12945   2.860  38.881   1.399
53201W        W12946  16.690   7.402  13.437
53202W        W12947  33.060  30.920   2.402
53203W        W12948  22.188  36.889  12.552
53204W        W12949  24.138   0.309  12.496
53205W        W12950  21.050  20.581  13.365
53206W        W12951  34.368  41.427   2.898
53207W        W12952   9.378   3.756   1.351
53208W        W12953  18.608  28.172  14.962
53209W        W12954  10.187   1.296   1.752
53210W        W12955  29.093  40.522  11.412
53211W        W12956  32.618  18.257   1.449
53212W        W12957  26.476  27.463   2.874
53213W        W12958  16.628   1.389  13.487
53214W        W12959   3.295  30.113   2.842
53215W        W12960  34.010  16.154   4.759
53216W        W12961  15.661  27.146   2.879
53217W        W12962  30.922  19.779   3.196
53218W        W12963  23.128  30.423  12.096
53219W        W12964  44.380  16.124   3.762
53220W        W12965  44.371   7.316   3.819
53221W        W12966  18.776  27.604   0.299
53222W        W12967  12.130   6.809  13.351
53223W        W12968   1.366  15.284   0.730
53224W        W12969   0.744  27.627  10.045
53225W        W12970   3.875   0.900  13.053
53226W        W12971  18.681  26.485  11.871
53227W        W12972  24.184  43.510  14.893
53228W        W12973  20.167  17.791   2.747
53229W        W12974   8.309   5.219  13.506
53230W        W12975   2.421  23.210   1.865
53231W        W12976  41.417   2.456  14.476
53232W        W12977   6.221  29.437   1.313
53233W        W12978  11.718  30.019  11.992
53234W        W12979  29.991  10.834  13.975
53235W        W12980  10.670  26.685   2.413
53236W        W12981  24.151  42.914  14.790
53237W        W12982  41.351   4.791   2.724
53238W        W12983  26.138  24.180   1.338
53239W        W12984  33.887  44.495  12.832
53240W        W12985  26.077  44.771  10.491
53241W        W12986   7.235  24.501   0.855
53242W        W12987  20.590  37.948  13.455
53243W        W12988  37.556   7.792   1.933
53244W        W12989  27.661  19.739  11.567
53245W        W12990  12.178  31.583  14.295
53246W        W12991   9.222  12.140   0.377
53247W        W12992  33.603   6.705  12.914
53248W        W12993  25.210  38.554   1.374
53249W        W12994  23.542  15.630   3.796
53250W        W12995  27.182  16.803  10.438
53251W        W12996  31.614  24.043  10.619
53252W        W12997  15.612  30.431   2.723
53253W        W12998   5.362   0.270  12.830
53254W        W12999  12.264   7.866   0.433
53255W        W13000  15.662   4.379  14.401
53256W        W13001   6.762   0.301   4.253
53257W        W13002   0.867  21.139   1.819
53258W        W13003  42.926   2.280  10.951
53259W        W13004  44.801  12.759  13.934
53260W        W13005  22.241  37.367  11.930
53261W        W13006  20.207  38.422  13.955
53262W        W13007   7.763   2.844   3.787
53263W        W13008  39.845   4.397  13.926
53264W        W13009  34.964  23.007   2.770
53265W        W13010  38.839  10.719   4.756
53266W        W13011   6.738  35.949   0.475
53267W        W13012  11.679  22.712   5.316
53268W        W13013   8.744  19.661  10.565
53269W        W13014   6.679  12.185  13.444
53270W        W13015  41.946  34.971  10.610
53271W        W13016   6.227  17.228  13.017
53272W        W13017  24.702  14.750   2.725
53273W        W13018  28.113  22.597   3.740
53274W        W13019  39.546  23.984   1.910
53275W        W13020   7.882  23.643   3.179
53276W        W13021  27.521   3.399   1.830
53277W        W13022  36.883  40.306   4.247
53278W        W13023  39.437  26.488   1.844
53279W        W13024  36.576  25.094   3.159
53280W        W13025  29.066  11.342  10.422
53281W        W13026   6.186  31.950   4.313
53282W        W13027  10.674  25.111  13.520
53283W        W13028  16.144  32.545   4.797
53284W        W13029  36.404  38.850  11.002
53285W        W13030  26.996  34.578  13.850
53286W        W13031  25.063  14.134  12.568
53287W        W13032  19.741  19.284   1.451
53288W        W13033   5.421  28.178  13.007
53289W        W13034   3.357  13.143   2.841
53290W        W13035   3.765   8.879  10.432
53291W        W13036  36.519  11.801  12.453
53292W        W13037  12.134  14.209   3.825
53293W        W13038  21.533   5.343   2.846
53294W        W13039  30.990  40.368   0.814
53295W        W13040  11.149  26.047   3.736
53296W        W13041   1.747   9.880   1.242
53297W        W13042  23.031   0.380  13.376
53298W        W13043  14.613  35.071   0.852
53299W        W13044  14.109  18.710   1.847
53300W        W13045  22.523  12.357  14.023
53301W        W13046  42.330  34.566   0.845
53302W        W13047  19.762  38.376   2.285
53303W        W13048  25.673  33.002   1.338
53304W        W13049   0.348   6.376   0.836
53305W        W13050  11.336  36.864  12.541
53306W        W13051  40.547   7.290  10.923
53307W        W13052  44.011  14.720  13.797
53308W        W13053  30.011   9.318   0.360
53309W        W13054  15.697  32.442   4.155
53310W        W13055  37.059  19.582  13.470
53311W        W13056  18.197   3.899   3.739
53312W        W13057  34.559   0.816   3.345
53313W        W13058   9.188   7.343  13.898
53314W        W13059  13.238  14.332  12.354
53315W        W13060  13.147  26.625  12.522
53316W        W13061  18.576  10.187   0.913
53317W        W13062  36.020  44.951  14.004
53318W        W13063   6.224  41.998   3.697
53319W        W13064   4.294  10.683   1.444
53320W        W13065  24.481  25.523  10.449
53321W        W13066  44.267   2.400   2.746
53322W        W13067   9.150  41.002  11.549
53323W        W13068  27.599   1.424  12.840
53324W        W13069  33.590  11.625   5.183
53325W        W13070  41.004  14.317   0.861
53326W        W13071  16.782  22.209  10.452
53327W        W13072  10.872   0.437  11.516
53328W        W13073  31.151  23.164   2.840
53329W        W13074  42.914  43.950  14.823
53330W        W13075  24.710  42.819   4.165
53331W        W13076  31.607  20.154  13.885
53332W        W13077  37.339  36.483  12.391
53333W        W13078  19.768  18.566   2.221
53334W        W13079   0.942  28.035   4.765
53335W        W13080  33.453   4.394   1.744
53336W        W13081  36.534  22.659  14.424
53337W        W13082   0.487  39.547  11.862
53338W        W13083   9.297  11.347   1.238
53339W        W13084   0.312  43.970   1.426
53340W        W13085  23.087  16.307   4.698
53341W        W13086  44.758  21.071  10.500
53342W        W13087  29.510  22.595   2.766
53343W        W13088   0.850   0.827  11.451
53344W        W13089  37.478  27.690   2.820
53345W        W13090  38.529  17.800  12.444
53346W        W13091  38.523  43.010  14.443
53347W        W13092  40.941  32.563   1.301
53348W        W13093   9.252  12.353   1.891
53349W        W13094  27.189  43.372  10.490
53350W        W13095  36.898   0.417  12.947
53351W        W13096  17.777   4.788   4.662
53352W        W13097  38.528   3.873  11.924
53353W        W13098  20.647  37.574   0.855
53354W        W13099  30.026  30.963   2.224
53355W        W13100  20.641  42.435  13.009
53356W        W13101   2.930   2.253  14.369
53357W        W13102  13.233   0.893   4.650
53358W        W13103  24.568  42.497   0.815
53359W        W13104  16.261  32.605  10.562
53360W        W13105  38.403  21.652  14.996
53361W        W13106  36.948   5.811  11.062
53362W        W13107  39.480  15.605   0.317
53363W        W13108  23.156  19.678  10.404
53364W        W13109  42.318  14.777  13.997
53365W        W13110   8.391  38.828   4.632
53366W        W13111  11.837  22.711  14.870
53367W        W13112  32.591   3.279  12.477
53368W        W13113  40.346  42.387  12.421
53369W        W13114  10.209  11.792  14.503
53370W        W13115  13.604   5.717  12.019
53371W        W13116  33.967   6.759  11.438
53372W        W13117  16.178   8.824   4.646
53373W        W13118  36.919  29.159  10.546
53374W        W13119  18.684  36.973  14.941
53375W        W13120  35.880  38.404  11.431
53376W        W13121  32.481   9.850   3.267
53377W        W13122  35.539  44.441  10.486
53378W        W13123  12.292  31.542   2.285
53379W        W13124  27.012  43.487  13.429
53380W        W13125  23.993  27.014   3.670
53381W        W13126  31.635  23.735   1.423
53382W        W13127  36.538  43.812   2.833
53383W        W13128  23.126   5.257  13.357
53384W        W13129  10.714  35.396   9.492
53385W        W13130  22.705  19.235  11.112
53386W        W13131   7.347   0.494   4.743
53387W        W13132   5.240  32.034   2.698
53388W        W13133  43.960  17.694   2.717
53389W        W13134  18.786  39.493   3.657
53390W        W13135  11.842   1.456   3.215
53391W        W13136   3.818   0.353  13.492
53392W        W13137   1.432  35.431   3.371
53393W        W13138   1.271  33.065   0.395
53394W        W13139  16.806   2.447   3.230
53395W        W13140  37.831  15.704   2.815
53396W        W13141  37.832   3.281  14.286
53397W        W13142  29.048   4.388  14.445
53398W        W13143   0.276   5.822   0.333
53399W        W13144  44.310  41.336  10.984
53400W        W13145  28.113  19.230   0.401
53401W        W13146  22.501   6.923   2.271
53402W        W13147  10.259   9.315   0.467
53403W        W13148  37.086  28.942  13.834
53404W        W13149  31.148  22.186   3.784
53405W        W13150  15.140   1.246   2.286
53406W        W13151  18.093   5.215  11.096
53407W        W13152  33.879  34.921   4.292
53408W        W13153  42.831  35.042  10.418
53409W        W13154  24.182   4.299   4.151
53410W        W13155  11.626  15.755  12.491
53411W        W13156  28.464  13.350   3.746
53412W        W13157  30.981  22.188  11.992
53413W        W13158  37.002  27.959  10.926
53414W        W13159   9.674   5.724   1.741
53415W        W13160  20.085  10.293   2.352
53416W        W13161   7.336  12.750  14.357
53417W        W13162   3.343  41.449  10.586
53418W        W13163  42.320  36.427  11.877
53419W        W13164  32.621  30.131  10.096
53420W        W13165  12.323   0.273   3.362
53421W        W13166  14.166  21.075   3.344
53422W        W13167   9.857  29.017  10.901
53423W        W13168  30.529  15.578   2.395
53424W        W13169  39.897  12.254   3.667
53425W        W13170  21.633   4.928   4.198
53426W        W13171   4.398  22.723  11.502
53427W        W13172  40.418   5.407  10.941
53428W        W13173  38.552  13.156  11.420
53429W        W13174  39.322  27.542   3.730
53430W        W13175  30.592  13.338   3.361
53431W        W13176  31.131  14.806   2.784
53432W        W13177   5.376  33.041  12.539
53433W        W13178  25.579  31.648   0.456
53434W        W13179  14.206  31.914   3.378
53435W        W13180  11.372  23.557   1.747
53436W        W13181  33.487  10.750  12.343
53437W        W13182   5.828  35.879  14.810
53438W        W13183  15.604  42.852   3.381
53439W        W13184  32.392  17.081  13.968
53440W        W13185  10.829   4.385   1.798
53441W        W13186  39.912  15.657  11.874
53442W        W13187  22.228  22.510   3.246
53443W        W13188  39.937  42.315   1.269
53444W        W13189  14.261  38.497  10.963
53445W        W13190  35.404  20.046  12.509
53446W        W13191  36.488  39.386   2.884
53447W        W13192  36.992  23.531   3.218
53448W        W13193  10.819   3.393  14.903
53449W        W13194  38.868  14.779  12.036
53450W        W13195   1.956  17.187  11.609
53451W        W13196  15.310  23.079   1.425
53452W        W13197  13.844  40.846  10.476
53453W        W13198  25.631  34.586   2.281
53454W        W13199  17.151  14.727  11.384
53455W        W13200  21.095   5.929   1.302
53456W        W13201  28.515  31.059  12.410
53457W        W13202  19.096  35.526   0.441
53458W        W13203  24.135   8.373   4.759
53459W        W13204  36.906   0.911   3.247
53460W        W13205  28.952   5.801   5.573
53461W        W13206   7.765  40.830   1.424
53462W        W13207  18.712  30.986   4.787
53463W        W13208  15.223  31.433   2.213
53464W        W13209  39.935  29.015  11.886
53465W        W13210  19.161  27.495   0.818
53466W        W13211  37.979   8.827   3.385
53467W        W13212  24.678  35.879  10.095
53468W        W13213  36.952   6.364  14.282
53469W        W13214  38.946  36.406   1.913
53470W        W13215  39.039  37.467  12.526
53471W        W13216  44.811  19.693  13.949
53472W        W13217   2.263  20.631   4.817
53473W        W13218  23.610   8.199   0.784
53474W        W13219  10.677  11.821   0.453
53475W        W13220  12.814  10.365  10.497
53476W        W13221   9.644  40.546  13.408
53477W        W13222  23.679  44.306  13.023
53478W        W13223  15.731  24.518   1.812
53479W        W13224   7.216  41.932   1.409
53480W        W13225   8.182  18.612   0.790
53481W        W13226   8.175  44.421  11.548
53482W        W13227   3.348  10.249   1.813
53483W        W13228   8.847  10.233   2.280
53484W        W13229  40.447   5.299  14.784
53485W        W13230  22.170  43.891   3.260
53486W        W13231  13.249   4.824  10.011
53487W        W13232   0.819  26.688   3.687
53488W        W13233  42.437   7.855  13.823
53489W        W13234  27.506   9.810   2.379
53490W        W13235  19.610  30.980  11.925
53491W        W13236  17.716  33.035   2.234
53492W        W13237  42.855  24.533   0.422
53493W        W13238  18.668  40.997  10.983
53494W        W13239  22.727   7.809   4.314
53495W        W13240  27.031  25.657  14.804
53496W        W13241  13.726  38.519  11.398
53497W        W13242  10.233  31.477   0.403
53498W        W13243  11.243  32.133   3.309
53499W        W13244  25.648   8.181   1.295
53500W        W13245  21.542  20.178  10.487
53501W        W13246  10.331  39.442  12.423
53502W        W13247  34.020  28.120   2.236
53503W        W13248  29.976   7.781   2.242
53504W        W13249  43.492  10.323   2.193
53505W        W13250  12.284  40.027   1.795
53506W        W13251  19.277  37.350   2.733
53507W        W13252  42.923  30.000   1.302
53508W        W13253  15.677  28.086   1.360
53509W        W13254  34.054   4.318   3.162
53510W        W13255   4.792   8.894   3.160
53511W        W13256  40.365  10.283  13.927
53512W        W13257  16.793   6.330   4.728
53513W        W13258  11.234  34.870   0.905
53514W        W13259   8.162  18.249  10.404
53515W        W13260  26.550   0.797  12.073
53516W        W13261  15.662  39.995  11.091
53517W        W13262  23.097   0.812  12.890
53518W        W13263  44.760  25.583   0.458
53519W        W13264   4.389  20.554   3.233
53520W        W13265  21.098  26.599   5.154
53521W        W13266  43.394  33.965  11.058
53522W        W13267   5.788  37.000   3.785
53523W        W13268  41.889  42.483   3.169
53524W        W13269   1.856  10.823  11.613
53525W        W13270  35.504   1.252  12.409
53526W        W13271  15.128  18.168   3.844
53527W        W13272  18.240   3.878  10.588
53528W        W13273  24.987  12.785   3.362
53529W        W13274   4.421  35.537   1.905
53530W        W13275   2.864  17.576  14.871
53531W        W13276   2.770  25.477   1.285
53532W        W13277   5.250  21.150  13.849
53533W        W13278   2.239  32.427  10.926
53534W        W13279   6.749  34.047  11.584
53535W        W13280   0.817   8.301   1.412
53536W        W13281  36.583   6.383   3.298
53537W        W13282  18.200  25.025   0.478
53538W        W13283  22.197  22.067   0.256
53539W        W13284  17.576  24.545  13.995
53540W        W13285  11.681  29.541   2.765
53541W        W13286  16.715  19.668  11.601
53542W        W13287  16.223  11.839  14.911
53543W        W13288  16.762   6.749  14.981
53544W        W13289  35.421  10.225   3.659
53545W        W13290  38.356  15.194  12.429
53546W        W13291   9.685  14.704  13.440
53547W        W13292  20.632   7.383  14.765
53548W        W13293   1.436  22.675  11.060
53549W        W13294  29.454  22.088   1.891
53550W        W13295  41.506  29.012  14.903
53551W        W13296  21.185   0.267  12.906
53552W        W13297  32.467   7.745   5.254
53553W        W13298  44.761  11.846  13.404
53554W        W13299  15.328  11.132   1.292
53555W        W13300  24.062  31.930   1.704
53556W        W13301  38.342  15.633   1.740
53557W        W13302   5.338  38.354   5.272
53558W        W13303   4.308  30.990   1.824
53559W        W13304  19.753  41.809  14.965
53560W        W13305  34.496   6.708   1.717
53561W        W13306  38.505  28.511  12.511
53562W        W13307  11.346   6.332  12.912
53563W        W13308   0.296  25.990   2.235
53564W        W13309   2.819  11.143  13.004
53565W        W13310  24.556  37.470   2.734
53566W        W13311  36.864  37.032   0.455
53567W        W13312   4.431  10.821  14.491
53568W        W13313  27.610  28.157   2.675
53569W        W13314  12.769  17.626   2.865
53570W        W13315  42.001   9.804   3.779
53571W        W13316  40.007  40.425  14.955
53572W        W13317  15.320  13.710   2.864
53573W        W13318  23.693   6.251   0.843
53574W        W13319  21.619  36.938  14.380
53575W        W13320  29.932  19.649  13.898
53576W        W13321  12.730  30.551  10.415
53577W        W13322  15.678  22.597   1.230
53578W        W13323   5.883  44.385   4.600
53579W        W13324   4.828  21.626   0.880
53580W        W13325   0.833  23.109  12.851
53581W        W13326  42.306  10.360  14.994
53582W        W13327  10.269   8.845  13.903
53583W        W13328   9.209  12.141   2.902
53584W        W13329  15.249  40.936   3.219
53585W        W13330  44.925  19.088  12.075
53586W        W13331  14.282  30.426  14.379
53587W        W13332  40.006  30.968  10.496
53588W        W13333  17.161  34.988  13.898
53589W        W13334  37.523  15.733   2.838
53590W        W13335  40.320  38.843   5.099
53591W        W13336  34.111   3.264  14.920
53592W        W13337  14.173  40.385   0.266
53593W        W13338   6.786  17.100  14.027
53594W        W13339   7.238  25.502  12.891
53595W        W13340  25.527  33.541  13.506
53596W        W13341  11.157  26.540   1.308
53597W        W13342  14.688  39.362  11.488
53598W        W13343  11.660  15.248  12.388
53599W        W13344  15.090  33.032  10.426
53600W        W13345  15.289  19.619   2.209
53601W        W13346  20.724  31.139   3.747
53602W        W13347  30.101  13.230  14.316
53603W        W13348  33.021   4.924  12.903
53604W        W13349  37.542  32.921   4.823
53605W        W13350  17.201   4.906  10.488
53606W        W13351  15.086  38.046   2.275
53607W        W13352  10.820  38.527   2.366
53608W        W13353  15.193  20.159  10.510
53609W        W13354  25.967  10.853  12.340
53610W        W13355  19.063   3.742  11.896
53611W        W13356  32.595  38.856   4.793
53612W        W13357  34.937  14.127   0.349
53613W        W13358  29.148  13.237   1.735
53614W        W13359  30.582  32.571  10.941
53615W        W13360   6.396  11.170   3.741
53616W        W13361  40.927  24.522   4.168
53617W        W13362  28.637   5.915  14.378
53618W        W13363  15.084  27.101   0.425
53619W        W13364  43.335  43.345  14.790
53620W        W13365  39.842  11.232   3.668
53621W        W13366  38.515  27.644  13.451
53622W        W13367   8.297  35.550  14.279
53623W        W13368  19.208  34.510  10.969
53624W        W13369  16.317  17.778  11.882
53625W        W13370   9.271   8.751   1.773
53626W        W13371  33.458   1.299   2.826
53627W        W13372   1.264   8.871  12.078
53628W        W13373  41.341   3.930  10.620
53629W        W13374  36.064  35.378   4.600
53630W        W13375  15.160  11.760  13.830
53631W        W13376  19.092  16.081  14.777
53632W        W13377  23.626  22.664   4.218
53633W        W13378  41.321  38.525  11.860
53634W        W13379  39.371  23.996  11.935
53635W        W13380  34.425  25.592   1.846
53636W        W13381  22.998   5.857   1.302
53637W        W13382   7.701   4.392   2.352
53638W        W13383  39.520  21.132   0.353
53639W        W13384  34.011  41.905  11.922
53640W        W13385  11.268  33.018  11.556
53641W        W13386  32.046   7.235   2.243
53642W        W13387  38.992  31.904  14.917
53643W        W13388  34.561   1.974   4.153
53644W        W13389  37.950  28.154  11.933
53645W        W13390   3.901  14.786  12.516
53646W        W13391  43.879  21.627   3.314
53647W        W13392  16.201  36.541  14.930
53648W        W13393   9.643  35.977   2.307
53649W        W13394  15.735  24.654  14.950
53650W        W13395  26.059   8.795  13.358
53651W        W13396  41.862  11.309   9.977
53652W        W13397   3.883   2.832   1.230
53653W        W13398  39.465  10.177   2.409
53654W        W13399  20.124  23.623  11.981
53655W        W13400  44.359  38.352  11.936
53656W        W13401  25.655  39.975  11.463
53657W        W13402  18.709  21.057  13.981
53658W        W13403  24.034  15.770  14.342
53659W        W13404  36.979  41.348  11.119
53660W        W13405  40.845  10.680   1.357
53661W        W13406   5.436   3.940   2.743
53662W        W13407  38.439  19.158   4.214
53663W        W13408  38.825   1.767   4.335
53664W        W13409  37.887   8.342  13.876
53665W        W13410   8.228  10.303   2.193
53666W        W13411   3.768   5.753   0.397
53667W        W13412   5.852  11.333   2.868
53668W        W13413   3.798  29.596   2.242
53669W        W13414   0.826  43.433   3.339
53670W        W13415  41.511  26.170   2.381
53671W        W13416  44.897  42.485  11.922
53672W        W13417  30.548  33.965   2.863
53673W        W13418  43.865   0.969   4.323
53674W        W13419  30.549   6.238   2.192
53675W        W13420  26.559  17.099  12.417
53676W        W13421   3.828  22.508   3.781
53677W        W13422   8.386  19.124   2.324
53678W        W13423  29.083  11.776  13.823
53679W        W13424   8.674   8.886  14.903
53680W        W13425  34.464  12.341  11.022
53681W        W13426   8.809  39.866   0.403
53682W        W13427  13.119   1.481   1.729
53683W        W13428  33.574  16.805   2.285
53684W        W13429   8.691  25.039   2.367
53685W        W13430  40.982  14.833   0.938
53686W        W13431  16.631  10.862   2.351
53687W        W13432  38.971  20.180  11.590
53688W        W13433  10.659  10.793   3.344
53689W        W13434   0.743  41.988  13.543
53690W        W13435  19.100   4.437  11.083
53691W        W13436  21.172   8.736  12.905
53692W        W13437  14.334   2.301   3.850
53693W        W13438   4.701  37.026  13.500
53694W        W13439  28.639   6.812  13.396
53695W        W13440  35.033  27.944  12.828
53696W        W13441  23.615  16.715   3.707
53697W        W13442  33.520  22.585  11.451
53698W        W13443   9.683   9.705   2.285
53699W        W13444   3.320  40.484   4.252
53700W        W13445  36.027   0.758   1.442
53701W        W13446  42.460  43.870  12.012
53702W        W13447  11.163   2.433   1.735
53703W        W13448  34.403  33.412  13.524
53704W        W13449  37.571  25.560  11.868
53705W        W13450  31.089   3.906  11.046
53706W        W13451  26.658  39.497   3.847
53707W        W13452  16.128   8.778  13.400
53708W        W13453  12.825  29.467   4.225
53709W        W13454  13.826  27.653  11.443
53710W        W13455   8.275   4.935  10.640
53711W        W13456  41.040  11.350   1.352
53712W        W13457  30.997  26.496  14.442
53713W        W13458  29.084  29.522   0.247
53714W        W13459  28.972  26.463  12.900
53715W        W13460  12.739  11.242  14.761
53716W        W13461  11.243  24.097  14.800
53717W        W13462  41.299   1.812  13.058
53718W        W13463   6.188  42.468  14.918
53719W        W13464  18.694  36.454   1.816
53720W        W13465  28.647  25.135   2.880
53721W        W13466  42.337  39.536   1.416
53722W        W13467  11.781  13.625  10.534
53723W        W13468  11.191  43.943   0.360
53724W        W13469   1.317  43.860   2.789
53725W        W13470  13.142  32.567  14.814
53726W        W13471  44.790  39.329  10.901
53727W        W13472  44.860  25.214  12.411
53728W        W13473  21.156  18.104  11.906
53729W        W13474  43.900  18.263   9.517
53730W        W13475  10.160  30.565   4.669
53731W        W13476  38.047  35.952  13.941
53732W        W13477  16.794  32.524  10.923
53733W        W13478  13.339  38.839  14.480
53734W        W13479   7.389  26.514  14.511
53735W        W13480  10.315   2.798   1.363
53736W        W13481  26.492  16.795  11.570
53737W        W13482  33.437  27.958  12.049
53738W        W13483  17.268  43.859  13.828
53739W        W13484  39.002  43.368  12.031
53740W        W13485  21.579  41.041  12.447
53741W        W13486  26.690  22.092  11.082
53742W        W13487   3.751   5.923   3.788
53743W        W13488  16.615  13.229  11.971
53744W        W13489  26.580   1.849   4.785
53745W        W13490  44.990  16.788  14.939
53746W        W13491  38.001   1.291   2.272
53747W        W13492  31.607  15.778  10.975
53748W        W13493   6.895  22.514   0.402
53749W        W13494  39.468  10.299   4.296
53750W        W13495   2.332  12.747   4.341
53751W        W13496   3.799   3.404  12.084
53752W        W13497  44.357  16.667  10.966
53753W        W13498  20.523  34.962   2.178
53754W        W13499  13.777  26.476   3.653
53755W        W13500  42.502   2.953   2.743
53756W        W13501   2.785   8.756  13.486
53757W        W13502  12.345  10.340  13.320
53758W        W13503  28.104  38.507   2.778
53759W        W13504  11.336   2.764   4.693
53760W        W13505  36.557  28.574   4.768
53761W        W13506  26.043  18.627   2.694
53762W        W13507  18.286  26.682  14.332
53763W        W13508  21.656  16.646   1.731
53764W        W13509  29.119  15.760   0.351
53765W        W13510  43.816  32.409   2.353
53766W        W13511  33.566  19.278   0.454
53767W        W13512  14.636  12.791  11.961
53768W        W13513  36.902  10.165  11.909
53769W        W13514  17.176  23.573   5.199
53770W        W13515  22.202  39.969   0.837
53771W        W13516  11.822   5.363  11.525
53772W        W13517  10.720  25.545   4.350
53773W        W13518   0.788   0.898  12.424
53774W        W13519  41.808  11.858  14.410
53775W        W13520  27.583   0.898  14.807
53776W        W13521  32.579  15.132   2.741
53777W        W13522  28.555  37.831  10.487
53778W        W13523  26.969  10.234   3.340
53779W        W13524  37.483  35.030   0.280
53780W        W13525  30.644  20.261   4.119
53781W        W13526  14.814  31.910  12.455
53782W        W13527  41.396  12.133   2.399
53783W        W13528   9.734  24.678   0.301
53784W        W13529  10.138  23.520  10.944
53785W        W13530  13.797  21.257   3.184
53786W        W13531   8.311  23.056  12.976
53787W        W13532  37.941  33.490   2.717
53788W        W13533  37.938  15.203   1.436
53789W        W13534  42.509  31.135   0.332
53790W        W13535  19.131  22.617  12.541
53791W        W13536  29.022  37.949   0.781
53792W        W13537  23.002  33.454   4.706
53793W        W13538  10.274  31.097   2.819
53794W        W13539  31.050  43.299  14.804
53795W        W13540  36.535  12.119   3.869
53796W        W13541  37.443  29.925  11.007
53797W        W13542  42.913  20.613   2.236
53798W        W13543   6.786  35.472   4.289
53799W        W13544  41.335  44.348   1.401
53800W        W13545   1.928  14.728  12.381
53801W        W13546  41.381  36.428   4.680
53802W        W13547  12.193  14.134  10.607
53803W        W13548  10.187  13.295   3.723
53804W        W13549   0.407  43.825  13.794
53805W        W13550   8.387  30.023   1.273
53806W        W13551  32.462  41.391   1.825
53807W        W13552  14.155  42.889  10.610
53808W        W13553  17.770   1.268  14.475
53809W        W13554   8.196   6.788   4.194
53810W        W13555  36.062  20.086  12.091
53811W        W13556  32.934  28.156  11.914
53812W        W13557  39.865  14.607   4.199
53813W        W13558  32.085  19.165   0.391
53814W        W13559  37.536   1.768  12.405
53815W        W13560  24.601  28.521  13.494
53816W        W13561  25.629  10.343  12.075
53817W        W13562   4.336   3.758   0.792
53818W        W13563   6.284  26.644  10.961
53819W        W13564  26.078  23.094   0.424
53820W        W13565  43.794  28.590   1.932
53821W        W13566   3.765   4.321  11.065
53822W        W13567  30.108  20.595   3.644
53823W        W13568  36.376  30.434   5.224
53824W        W13569   7.409   2.903  11.874
53825W        W13570  13.155  27.548  12.482
53826W        W13571   0.870  23.509   4.800
53827W        W13572  29.474  41.340  14.010
53828W        W13573  17.617  38.349   1.786
53829W        W13574  29.148  39.355   0.909
53830W        W13575  16.784  43.775   2.409
53831W        W13576   2.273  18.754  11.094
53832W        W13577  20.229  24.080   2.885
53833W        W13578  16.586  40.925   4.119
53834W        W13579  33.940   0.446  13.416
53835W        W13580  44.341  34.371   2.336
53836W        W13581  25.078  35.965   2.901
53837W        W13582  14.631  42.371   2.689
53838W        W13583  35.924  37.490   2.761
53839W        W13584  23.144   4.710  12.892
53840W        W13585   9.303  13.824  13.833
53841W        W13586  24.542  26.630   3.823
53842W        W13587  24.033  30.477   2.817
53843W        W13588  10.846  19.242   0.375
53844W        W13589   8.304  33.522  11.541
53845W        W13590  32.046   8.808  10.956
53846W        W13591   9.196  22.667   5.094
53847W        W13592  40.518  25.178  14.504
53848W        W13593  23.236  36.436   0.875
53849W        W13594  40.459  41.352  10.077
53850W        W13595  32.939  43.912   2.699
53851W        W13596  22.169  43.334   3.367
53852W        W13597  36.502  41.956   1.739
53853W        W13598  41.535   2.867   0.741
53854W        W13599   3.290  36.924  14.904
53855W        W13600   0.796  31.529   4.643
53856W        W13601  41.993   4.754  10.992
53857W        W13602  14.245  36.090   4.122
53858W        W13603  12.291  44.890   3.670
53859W        W13604   4.850   4.728   0.966
53860W        W13605  15.799  39.388  14.906
53861W        W13606  16.655  23.167  10.498
53862W        W13607  26.170  13.780   4.647
53863W        W13608   6.748  13.349  11.456
53864W        W13609  33.005  24.029   2.800
53865W        W13610  37.850   4.796  14.970
53866W        W13611  16.270  19.070  11.503
53867W        W13612  12.740  34.459   4.837
53868W        W13613  21.056  26.201   4.132
53869W        W13614   4.875  17.781   2.349
53870W        W13615  30.540  22.139  12.027
53871W        W13616   9.278  38.942   0.809
53872W        W13617  32.111  25.578  11.447
53873W        W13618  26.981  26.492  10.043
53874W        W13619  32.139  40.409  10.499
53875W        W13620  28.482  40.428  11.556
53876W        W13621  13.766   0.855   3.266
53877W        W13622   5.439  23.660  12.957
53878W        W13623  13.159  23.653  11.595
53879W        W13624  26.046  42.822  10.617
53880W        W13625  26.077  26.643  12.080
53881W        W13626   5.430  27.005  11.068
53882W        W13627  12.309  19.232   0.415
53883W        W13628  40.476  44.890   1.444
53884W        W13629   8.745  13.747   0.279
53885W        W13630  41.468  35.410  11.421
53886W        W13631   5.713   0.492   1.229
53887W        W13632  20.170  29.642  12.831
53888W        W13633   0.453  37.948  12.966
53889W        W13634  34.460  25.113   1.705
53890W        W13635   5.236  14.835  10.530
53891W        W13636   7.714  27.536  12.521
53892W        W13637  21.660  34.507   1.273
53893W        W13638   6.913  39.315  10.537
53894W        W13639   0.275  38.479  12.980
53895W        W13640  32.997  16.680  11.442
53896W        W13641   3.310  30.009  10.909
53897W        W13642  36.082  14.117  11.475
53898W        W13643  10.370  28.044  14.893
53899W        W13644  20.533  38.008  11.436
53900W        W13645   6.921  41.384  14.020
53901W        W13646  43.275   8.165  11.510
53902W        W13647  20.143  42.313  10.468
53903W        W13648  19.095   8.717  10.495
53904W        W13649  12.278  21.584  14.331
53905W        W13650   7.276   6.271  12.980
53906W        W13651  40.887  12.760  14.799
53907W        W13652  28.052  44.879  14.491
53908W        W13653  39.396  40.420   0.396
53909W        W13654  28.115  41.975   0.263
53910W        W13655  24.154  36.021   1.296
53911W        W13656   6.239  11.747  14.810
53912W        W13657  38.014  25.680  11.878
53913W        W13658  15.798  30.154   2.695
53914W        W13659   7.216  40.371  11.037
53915W        W13660  18.178  34.501   2.776
53916W        W13661  44.753  30.472  12.345
53917W        W13662   0.340  32.552  11.476
53918W        W13663  12.679  33.514  13.497
53919W        W13664  35.418  44.935   4.776
53920W        W13665   7.279  39.864   1.406
53921W        W13666  18.683  12.302  12.032
53922W        W13667  12.840  23.592   1.271
53923W        W13668  16.088  29.131   0.314
53924W        W13669  29.048  28.141  12.560
53925W        W13670   6.831  12.182   4.839
53926W        W13671   1.816  32.999   2.232
53927W        W13672   2.730   4.430  12.019
53928W        W13673   5.228  43.887  14.394
53929W        W13674  35.914  11.707   0.253
53930W        W13675  23.208  11.767   1.418
53931W        W13676  28.513  27.081  11.538
53932W        W13677   9.342  20.159  11.554
53933W        W13678  37.380  30.550  12.944
53934W        W13679  26.553  42.836  13.332
53935W        W13680   1.811  25.653   2.353
53936W        W13681  39.352  28.142   4.759
53937W        W13682   3.222  33.112  14.290
53938W        W13683  35.403  39.343  13.989
53939W        W13684  14.293  16.219  14.935
53940W        W13685  20.072  18.074  13.428
53941W        W13686  15.325  32.477   1.885
53942W        W13687  33.525  36.363   3.258
53943W        W13688  11.162  39.997  11.909
53944W        W13689  22.164  38.048   2.229
53945W        W13690  21.091  20.721   2.378
53946W        W13691  22.239   7.854   3.814
53947W        W13692  11.197  38.561  12.350
53948W        W13693  33.006  37.906  10.619
53949W        W13694  31.985   1.431  14.419
53950W        W13695  42.411  21.608  11.871
53951W        W13696  20.042  15.154  13.434
53952W        W13697  44.932  17.168  12.052
53953W        W13698  24.060  29.124   5.237
53954W        W13699  31.550  32.923  12.481
53955W        W13700  42.790   1.327   1.335
53956W        W13701  21.719   3.899   1.342
53957W        W13702  42.785  36.011   1.360
53958W        W13703  34.931  13.673  14.400
53959W        W13704  17.642  38.460  13.366
53960W        W13705  44.309  35.026  13.486
53961W        W13706  11.838  34.905   4.824
53962W        W13707  26.496   7.412  13.005
53963W        W13708  35.481  32.046  11.018
53964W        W13709  37.864   1.483  13.523
53965W        W13710  32.630  25.515  13.038
53966W        W13711   2.741   2.325  14.952
53967W        W13712  23.578   1.733   0.903
53968W        W13713  35.936   6.294  14.425
53969W        W13714  18.706  16.643  11.870
53970W        W13715   0.445  34.404  12.540
53971W        W13716  16.272   4.739  11.550
53972W        W13717  18.079  42.293   3.854
53973W        W13718  34.054  18.691   2.231
53974W        W13719  22.240   4.801   0.445
53975W        W13720  40.014  30.473  13.330
53976W        W13721  24.098   8.787   3.663
53977W        W13722  16.297  39.497   1.846
53978W        W13723  40.396  38.466  13.846
53979W        W13724   5.227  19.259   9.525
53980W        W13725   2.745  26.635  13.989
53981W        W13726  26.103   9.710  12.973
53982W        W13727  12.308  30.654   1.912
53983W        W13728   6.786  12.835   2.371
53984W        W13729  40.877   1.768   0.734
53985W        W13730  11.204  39.481  12.868
53986W        W13731   3.741  17.765  10.960
53987W        W13732  28.145  16.613  10.043
53988W        W13733  38.458   7.886   4.249
53989W        W13734  16.807  35.908   3.703
53990W        W13735   6.797  29.665   2.217
53991W        W13736  19.055  27.116  12.496
53992W        W13737  22.075   9.865   1.726
53993W        W13738  21.745  36.373  13.453
53994W        W13739  29.621   8.239  11.502
53995W        W13740   2.230  40.521  13.407
53996W        W13741  41.343  38.419   1.339
53997W        W13742  27.578   4.384   2.781
53998W        W13743  23.137  19.754   2.301
53999W        W13744  27.689  21.566   0.933
54000W        W13745  16.800   8.816  12.976
54001W        W13746  26.201  20.199  14.945
54002W        W13747   6.716  38.451   1.696
54003W        W13748  27.626  30.116  14.293
54004W        W13749  19.167   6.240   3.722
54005W        W13750  24.634   0.270  11.087
54006W        W13751  13.347  24.710   3.234
54007W        W13752  17.203  32.032  10.951
54008W        W13753  31.016  35.104  13.062
54009W        W13754  11.698  10.210   2.674
54010W        W13755   8.659   1.479   4.638
54011W        W13756  44.005  24.170  13.321
54012W        W13757  30.638  25.201   2.208
54013W        W13758  36.928  10.776  13.384
54014W        W13759  39.972   1.338   2.810
54015W        W13760  13.128  20.750  12.426
54016W        W13761  33.532   0.466   0.274
54017W        W13762  23.108  11.712  14.909
54018W        W13763  36.522   0.380  14.027
54019W        W13764  36.403  23.987  13.026
54020W        W13765   1.363  41.008  10.946
54021W        W13766   1.850   0.252  11.071
54022W        W13767  20.196  18.107   1.275
54023W        W13768   3.768  16.134   4.309
54024W        W13769  36.859  38.847  12.910
54025W        W13770  13.798  15.321   1.288
54026W        W13771  27.637  30.445   0.384
54027W        W13772  32.421  24.030   4.303
54028W        W13773   6.712  42.995  13.323
54029W        W13774  24.568   8.207   1.449
54030W        W13775  34.567  31.009   3.278
54031W        W13776   1.412  26.639   2.198
54032W        W13777  17.627   5.403  14.412
54033W        W13778  11.819   7.237  13.404
54034W        W13779  22.508  20.645  10.628
54035W        W13780   3.726  40.983  13.990
54036W        W13781  44.767   2.294   3.207
54037W        W13782  15.716  30.922  14.433
54038W        W13783  44.411  19.769   3.729
54039W        W13784   8.207   7.362  11.996
54040W        W13785  44.491  43.801   1.805
54041W        W13786  41.374  32.094  10.605
54042W        W13787  24.220   2.872   2.200
54043W        W13788  29.007  21.021  13.507
54044W        W13789   7.807  11.848   2.353
54045W        W13790  44.950  30.001  12.400
54046W        W13791  35.434  41.520   3.309
54047W        W13792  10.653  10.254  11.879
54048W        W13793   9.697  14.156   3.344
54049W        W13794   9.159  34.458  13.384
54050W        W13795   0.254  35.929  13.982
54051W        W13796   2.868  31.418   1.227
54052W        W13797  31.982   3.863   4.217
54053W        W13798  14.674  43.366  13.984
54054W        W13799   0.476  37.922  12.567
54055W        W13800  24.191  42.830   4.760
54056W        W13801  32.984  20.240   5.161
54057W        W13802  34.430  14.646  10.915
54058W        W13803  41.979  27.566   2.279
54059W        W13804  33.470  27.548   1.316
54060W        W13805  29.115  42.493   1.336
54061W        W13806  13.709  21.256  11.096
54062W        W13807  16.250  16.671   2.881
54063W        W13808  15.099  26.584  14.306
54064W        W13809  35.590  16.153   3.678
54065W        W13810  20.160   3.920   3.649
54066W        W13811  35.427  39.535   0.833
54067W        W13812  33.592   1.390   3.781
54068W        W13813   8.769   5.926  14.816
54069W        W13814  21.036  23.665  10.941
54070W        W13815  15.624  19.219   3.179
54071W        W13816  31.056  35.469  13.995
54072W        W13817  43.931   1.911   3.774
54073W        W13818  31.087  12.686  13.471
54074W        W13819  24.677  38.858  13.920
54075W        W13820   2.776   7.248   2.235
54076W        W13821  37.947  30.012   1.212
54077W        W13822   2.910  41.902   1.222
54078W        W13823  37.450  44.847  14.276
54079W        W13824  43.361  13.248  12.506
54080W        W13825   5.255  19.660   1.765
54081W        W13826  10.215   4.889   2.296
54082W        W13827   0.845  29.571   1.753
54083W        W13828  12.646   2.934  14.510
54084W        W13829  25.683  28.672  13.907
54085W        W13830   1.764  32.564  12.938
54086W        W13831  41.838  21.027  13.812
54087W        W13832  10.215   6.317   0.913
54088W        W13833  18.617   0.294   3.161
54089W        W13834  43.288  30.091  12.851
54090W        W13835  25.088  26.199   1.434
54091W        W13836  28.063  11.627   2.858
54092W        W13837  27.106  28.457   4.196
54093W        W13838  36.464  23.733  12.047
54094W        W13839   4.428  40.526   1.439
54095W        W13840  30.526  17.631   2.739
54096W        W13841  12.681  42.334  12.399
54097W        W13842   1.251  29.018  14.771
54098W        W13843  11.857  18.259   3.268
54099W        W13844   1.306   9.823   0.786
54100W        W13845  17.130  39.816  10.920
54101W        W13846  18.223   2.349  14.430
54102W        W13847  12.170  10.786   4.782
54103W        W13848  10.776   8.736  13.804
54104W        W13849  35.517  22.204   1.756
54105W        W13850  23.662  13.739   2.203
54106W        W13851  42.376  25.596   4.291
54107W        W13852  21.053  33.574   3.825
54108W        W13853   3.748  33.984  12.020
54109W        W13854  27.518  24.504   4.336
54110W        W13855  10.150  42.488  12.347
54111W        W13856  30.965  33.382  12.954
54112W        W13857  39.812  32.079  10.964
54113W        W13858  10.847   8.161  13.363
54114W        W13859  22.639  13.237   1.873
54115W        W13860  20.154  39.822   3.279
54116W        W13861  25.701  29.102   3.796
54117W        W13862  19.729  44.976   3.675
54118W        W13863  18.563  33.065  13.902
54119W        W13864  34.117  22.192   4.264
54120W        W13865   7.178  34.031   1.332
54121W        W13866  25.992   4.229  10.583
54122W        W13867  33.908   3.753   3.679
54123W        W13868  21.220  39.855  11.008
54124W        W13869  26.626  31.582   2.808
54125W        W13870  21.087  25.138   3.274
54126W        W13871  22.068  44.900  14.935
54127W        W13872  19.227  12.712   2.850
54128W        W13873  37.962   1.379  10.643
54129W        W13874  35.091  21.231   3.364
54130W        W13875  29.658  20.127  12.437
54131W        W13876   6.733  24.635   2.306
54132W        W13877   9.845  25.987   4.341
54133W        W13878  39.966  44.960   1.407
54134W        W13879  43.454  24.695   3.796
54135W        W13880  24.034  39.828   1.342
54136W        W13881   4.915  25.711  11.944
54137W        W13882  42.949  35.428   3.284
54138W        W13883  33.472  18.660  14.897
54139W        W13884  29.073  24.089  11.060
54140W        W13885  34.592  37.920   3.329
54141W        W13886  18.655  17.128   0.895
54142W        W13887   3.266   4.270  13.462
54143W        W13888   6.346  37.044   9.985
54144W        W13889  38.469  11.734  11.886
54145W        W13890  16.176  27.043   3.298
54146W        W13891   1.375   3.731   4.299
54147W        W13892  21.224  30.497  13.313
54148W        W13893  42.816   1.396  12.543
54149W        W13894   1.353  22.075   0.955
54150W        W13895  21.638   0.871   0.876
54151W        W13896  16.739  26.981   4.695
54152W        W13897  12.150  35.041   1.795
54153W        W13898  18.785   1.247  10.617
54154W        W13899   3.372  30.633   0.323
54155W        W13900  13.800  27.003   4.688
54156W        W13901  36.390  27.197   3.261
54157W        W13902   4.850  37.894   2.226
54158W        W13903  22.213  21.753   2.856
54159W        W13904  15.273  25.117  12.976
54160W        W13905  35.935   8.401   3.740
54161W        W13906   4.440   4.446  11.925
54162W        W13907  10.215  15.682   1.341
54163W        W13908  22.550  34.389  14.283
54164W        W13909  19.563   8.279  11.938
54165W        W13910  20.748  25.185  11.378
54166W        W13911  13.706  27.585   4.771
54167W        W13912  24.568  36.410  13.935
54168W        W13913   3.933  16.638   1.772
54169W        W13914  10.184  43.298   4.173
54170W        W13915  23.514   4.912  12.918
54171W        W13916  33.454  13.178   5.149
54172W        W13917  33.015  43.288   1.694
54173W        W13918  33.456  44.335  12.897
54174W        W13919  10.818   8.168   0.412
54175W        W13920  29.117  37.362  14.894
54176W        W13921  20.271  18.155  10.894
54177W        W13922   1.837  44.757   0.814
54178W        W13923  14.189  38.333  11.877
54179W        W13924  41.474  21.105   4.126
54180W        W13925  40.960   6.337   0.324
54181W        W13926  41.000  31.460  10.910
54182W        W13927  24.667   8.810  13.818
54183W        W13928  36.423  19.581   0.467
54184W        W13929  30.647  23.137  12.360
54185W        W13930   2.786  21.093   5.231
54186W        W13931  27.584  36.934  13.995
54187W        W13932   3.723  42.808  13.930
54188W        W13933  43.291  35.915   4.651
54189W        W13934  28.518  44.438   1.230
54190W        W13935  28.038  35.954  11.498
54191W        W13936  25.696  18.267   3.639
54192W        W13937   1.381  22.521  13.885
54193W        W13938  38.381  13.250   4.310
54194W        W13939   9.362  21.628  13.437
54195W        W13940  33.020  10.170  12.426
54196W        W13941  16.617  27.989   1.841
54197W        W13942  25.051  35.091  13.011
54198W        W13943  25.646   5.336  12.004
54199W        W13944  11.205  20.738  13.931
54200W        W13945  24.137  40.470   4.219
54201W        W13946   4.404   7.373  10.481
54202W        W13947  25.163  25.610   3.297
54203W        W13948  14.763  34.416  10.106
54204W        W13949  41.527   9.302   0.738
54205W        W13950   4.361  38.923   5.304
54206W        W13951  43.835   0.269   0.765
54207W        W13952  39.813  31.420  14.782
54208W        W13953  24.586  14.591  12.080
54209W        W13954   0.788  13.843  14.340
54210W        W13955  20.188  21.021  14.446
54211W        W13956  20.631  15.148  11.971
54212W        W13957  11.791  12.188   0.772
54213W        W13958   6.848  28.658   0.838
54214W        W13959  36.494  30.082   2.271
54215W        W13960  30.114  43.412  14.366
54216W        W13961   2.919  30.414  11.463
54217W        W13962  38.504  14.663   4.676
54218W        W13963  42.292  21.209  14.330
54219W        W13964   2.342  15.172   1.859
54220W        W13965  18.197  29.062  14.445
54221W        W13966  22.729   0.417  12.055
54222W        W13967  12.667  27.652  13.314
54223W        W13968   4.415  17.564   4.775
54224W        W13969   7.294  20.208   3.320
54225W        W13970  41.947  18.693   3.769
54226W        W13971  15.154  29.007   2.773
54227W        W13972  38.347  29.463  12.997
54228W        W13973  13.742  38.076  11.486
54229W        W13974  44.802  41.033   1.855
54230W        W13975   0.257  13.266   0.245
54231W        W13976  34.566  41.515  14.825
54232W        W13977   8.901  20.605  14.987
54233W        W13978  15.153   8.366   2.364
54234W        W13979  20.591  29.489  11.973
54235W        W13980   3.272  40.369   3.181
54236W        W13981  25.542   0.254  14.937
54237W        W13982   7.274   8.821  11.069
54238W        W13983  18.280  17.116   1.355
54239W        W13984  28.541  16.692  12.397
54240W        W13985  16.812  10.648   0.271
54241W        W13986  42.937  16.173  11.111
54242W        W13987  15.167  15.177   3.750
54243W        W13988   6.233   8.835   0.441
54244W        W13989  30.656  14.209  11.122
54245W        W13990   1.968  23.987  12.033
54246W        W13991  29.619   6.856  13.977
54247W        W13992  24.536  30.418   4.763
54248W        W13993  29.486   8.385   1.379
54249W        W13994  38.047  13.189  14.294
54250W        W13995  24.501  31.061  12.885
54251W        W13996  14.825  42.940   3.294
54252W        W13997  18.666  33.054   3.361
54253W        W13998   2.819  42.030   0.359
54254W        W13999  43.397  29.986  11.440
54255W        W14000   1.327  21.577   0.743
54256W        W14001   9.669  18.190   4.298
54257W        W14002  44.420  43.482  11.431
54258W        W14003  22.560  17.570   1.433
54259W        W14004  13.210   8.885  13.498
54260W        W14005  37.085   2.459   0.795
54261W        W14006  20.622  25.502  12.544
54262W        W14007  39.399  36.892  12.411
54263W        W14008  24.189   1.819  13.917
54264W        W14009   0.258  23.047  13.320
54265W        W14010  28.964  19.618  13.466
54266W        W14011  11.342   9.362  12.887
54267W        W14012  24.537   6.244   2.223
54268W        W14013  32.517   4.242  14.025
54269W        W14014  25.093  31.944   3.187
54270W        W14015  25.112  32.117   0.962
54271W        W14016  44.475  41.482   3.637
54272W        W14017   5.262   0.314   2.350
54273W        W14018  28.075  33.019  10.424
54274W        W14019  40.464  26.682   2.357
54275W        W14020  35.462  31.428   0.440
54276W        W14021  41.987  31.474   4.324
54277W        W14022  31.048  24.489   3.365
54278W        W14023  37.519  19.070  12.864
54279W        W14024   8.318  23.545  10.508
54280W        W14025  20.713  40.430   4.696
54281W        W14026  43.304   7.691   1.324
54282W        W14027  42.503   8.696   1.864
54283W        W14028  34.378  24.088  11.883
54284W        W14029  16.132  41.441  12.430
54285W        W14030   3.874  23.156   3.672
54286W        W14031   5.713   1.454  13.458
54287W        W14032   8.657   7.691   2.293
54288W        W14033  38.062  13.841  13.890
54289W        W14034  20.183   7.312  12.358
54290W        W14035  33.921  42.310   1.929
54291W        W14036  36.844  22.648   4.650
54292W        W14037  35.376  35.493  12.847
54293W        W14038  40.327   9.176   1.802
54294W        W14039  36.425  31.435  12.923
54295W        W14040  26.995   0.413  12.394
54296W        W14041  27.662  43.382  11.546
54297W        W14042  15.659  25.968   0.754
54298W        W14043  22.078   0.968   3.713
54299W        W14044  39.836  19.589  12.362
54300W        W14045  29.584  19.772   2.258
54301W        W14046   4.705  18.573   1.372
54302W        W14047   6.682  19.096  12.551
54303W        W14048  28.657  14.748  10.919
54304W        W14049  43.008  31.139   5.316
54305W        W14050  39.334   4.401   0.406
54306W        W14051   0.362  35.536   3.802
54307W        W14052  14.113  26.547  10.593
54308W        W14053   3.400  15.213   1.858
54309W        W14054   7.372  23.076  14.001
54310W        W14055  24.520  44.391   1.724
54311W        W14056  26.044   9.669  12.386
54312W        W14057  14.226   4.369   1.249
54313W        W14058  16.580  12.825   2.829
54314W        W14059   2.352  14.145   5.213
54315W        W14060  19.544   4.373  14.285
54316W        W14061  15.108  19.676   1.729
54317W        W14062  25.211   2.809   1.292
54318W        W14063  17.266  37.545  14.031
54319W        W14064  34.054  38.359   2.328
54320W        W14065  20.134   0.885   3.787
54321W        W14066   1.777  41.368   0.447
54322W        W14067  39.493   8.390  14.932
54323W        W14068  35.946  28.013  12.972
54324W        W14069   3.218  41.039  13.331
54325W        W14070  35.101  13.670   4.825
54326W        W14071  28.530  33.915   0.244
54327W        W14072  30.641  20.064  11.581
54328W        W14073   7.770  32.985  11.468
54329W        W14074   1.323  21.624   0.434
54330W        W14075  19.581  13.293  10.093
54331W        W14076  36.892  31.571   2.746
54332W        W14077   7.329   8.173  11.604
54333W        W14078   7.379  39.835   2.802
54334W        W14079  33.091   3.457   0.903
54335W        W14080  12.732  29.095  11.055
54336W        W14081   1.468  43.770   4.288
54337W        W14082   4.222   0.824  10.964
54338W        W14083  30.161  19.690   2.333
54339W        W14084   2.280  13.777   0.259
54340W        W14085  19.189  35.935   0.881
54341W        W14086  31.913  40.461  12.966
54342W        W14087  32.096  13.336  11.971
54343W        W14088  34.470  25.643  10.926
54344W        W14089   9.796  29.440  10.945
54345W        W14090   3.871  24.618  10.974
54346W        W14091  37.465  15.186   0.464
54347W        W14092   9.367  20.637  13.321
54348W        W14093   6.773  44.891   2.326
54349W        W14094  16.732  10.210  12.862
54350W        W14095  19.278   2.449   3.754
54351W        W14096  15.628  16.573   4.237
54352W        W14097   7.887  21.261   2.769
54353W        W14098  25.184  23.087  11.490
54354W        W14099  18.680   4.254   0.903
54355W        W14100  22.141  36.991  11.067
54356W        W14101  11.770  38.045   4.783
54357W        W14102  21.221  40.888  13.421
54358W        W14103  33.985  13.605  14.325
54359W        W14104   1.949  10.313  14.355
54360W        W14105  13.806  44.859   4.828
54361W        W14106  34.919   2.738   3.277
54362W        W14107  23.205  19.196  11.910
54363W        W14108  40.969  17.205   2.891
54364W        W14109   1.395  11.305   0.742
54365W        W14110  21.581  31.549  12.048
54366W        W14111   6.236  15.271  12.916
54367W        W14112   8.175   8.752   3.285
54368W        W14113  24.178   4.911  10.479
54369W        W14114  16.682  43.860   0.346
54370W        W14115  39.480  38.987   4.294
54371W        W14116  34.906  37.434  13.850
54372W        W14117  19.256   4.717  13.499
54373W        W14118  23.239  29.147   5.194
54374W        W14119   2.405  28.078  13.439
54375W        W14120  29.424  16.608  11.095
54376W        W14121  24.597   5.817   4.728
54377W        W14122  20.676  10.251   0.732
54378W        W14123  16.708  32.046  11.449
54379W        W14124  21.607  37.425  14.904
54380W        W14125  13.672  42.807  11.609
54381W        W14126   9.187  31.509   1.375
54382W        W14127  22.703   8.203   4.266
54383W        W14128  31.112  33.460   4.631
54384W        W14129  36.518   1.379  13.450
54385W        W14130  34.399  12.849  11.126
54386W        W14131  13.284  28.636   2.204
54387W        W14132  43.344   0.985   0.928
54388W        W14133  40.977  38.035  13.474
54389W        W14134   2.922  27.490  12.383
54390W        W14135  18.148  42.473   2.238
54391W        W14136  39.032  40.987   2.370
54392W        W14137   7.202   0.906  12.029
54393W        W14138  20.543   8.244  11.565
54394W        W14139   7.825  29.937  12.436
54395W        W14140  43.436   8.165   0.827
54396W        W14141   3.411  40.467   1.315
54397W        W14142  30.495  37.838   4.172
54398W        W14143  19.584  27.685  11.069
54399W        W14144   9.286  22.074  14.311
54400W        W14145  28.948  38.344  12.032
54401W        W14146  24.489  12.284   4.125
54402W        W14147   0.419  35.431   0.307
54403W        W14148   8.213  24.524  10.580
54404W        W14149  17.179  24.149   2.663
54405W        W14150   9.678   3.887  14.376
54406W        W14151  24.011  20.253   2.686
54407W        W14152  36.479  29.923   1.219
54408W        W14153  21.043  40.340   1.306
54409W        W14154  40.807  31.550  13.366
54410W        W14155   2.919  10.287  11.937
54411W        W14156  28.087  44.930   2.807
54412W        W14157  16.580  36.409  11.041
54413W        W14158   7.246  20.106   2.761
54414W        W14159   7.413  28.974  11.426
54415W        W14160   5.422   4.282   0.904
54416W        W14161  16.099  34.107  14.767
54417W        W14162   8.797  34.455  10.485
54418W        W14163  28.475  39.906   2.701
54419W        W14164  29.146  42.005   4.264
54420W        W14165  10.718   6.818  12.018
54421W        W14166  26.590  31.083  11.082
54422W        W14167  29.113   0.972  13.459
54423W        W14168  35.551  30.496   0.429
54424W        W14169   5.737   5.244   3.788
54425W        W14170   6.316  44.375   4.711
54426W        W14171  16.628  14.177   0.426
54427W        W14172   0.309   2.798   1.705
54428W        W14173  29.511  38.980   4.789
54429W        W14174  31.639  34.995   1.318
54430W        W14175  19.130   2.247  13.422
54431W        W14176  32.029  42.396  12.961
54432W        W14177  18.548  30.443   0.335
54433W        W14178  10.190  27.477  13.900
54434W        W14179   8.727  44.387   1.367
54435W        W14180   5.338  29.025   2.308
54436W        W14181  24.583  11.251   2.852
54437W        W14182  28.600  10.748  13.064
54438W        W14183  12.790  32.103   1.711
54439W        W14184  32.429  17.152   5.281
54440W        W14185   4.433  28.625   4.693
54441W        W14186   8.313  29.604  12.380
54442W        W14187  29.552  24.046  12.874
54443W        W14188  39.417   9.833   1.879
54444W        W14189  31.140  40.866   0.927
54445W        W14190  34.462  10.338   1.248
54446W        W14191  28.449  28.050  13.799
54447W        W14192  15.658  12.323   2.266
54448W        W14193  23.046  33.922   5.749
54449W        W14194  22.633  35.899  11.003
54450W        W14195  41.322   1.448  14.851
54451W        W14196  16.142  32.966  13.408
54452W        W14197  36.519  34.052   2.751
54453W        W14198   0.749  36.585   1.804
54454W        W14199  28.047  25.963  12.058
54455W        W14200  18.056  28.989  12.979
54456W        W14201  26.631   4.840  12.380
54457W        W14202  24.137  21.519   3.215
54458W        W14203   8.219  35.549   1.852
54459W        W14204  14.123  29.430  10.927
54460W        W14205  37.509   4.811   3.757
54461W        W14206   9.232  35.933   2.307
54462W        W14207  23.500  18.602   1.378
54463W        W14208   6.729   2.301   3.832
54464W        W14209  21.734  36.543   2.685
54465W        W14210  31.620  32.062   0.888
54466W        W14211  41.859  35.588   1.381
54467W        W14212  39.363  38.007   4.142
54468W        W14213  29.012   3.387   0.432
54469W        W14214  30.624  42.338  12.932
54470W        W14215   4.775  13.610   2.209
54471W        W14216  36.569  13.239   2.814
54472W        W14217  35.538  11.704   2.665
54473W        W14218  44.759  34.579   0.405
54474W        W14219  21.213  33.380  13.003
54475W        W14220  29.499  36.958   3.195
54476W        W14221  44.292   3.286  13.350
54477W        W14222  40.922  34.419   2.309
54478W        W14223   1.840  40.023  12.561
54479W        W14224  36.890  22.205  13.866
54480W        W14225  16.591  29.976   1.866
54481W        W14226   1.766  39.520  11.857
54482W        W14227  30.430   4.884  14.478
54483W        W14228  30.123  40.990   0.255
54484W        W14229  14.823  26.163   2.224
54485W        W14230  44.833  28.518  13.534
54486W        W14231  23.626  17.698  11.557
54487W        W14232  33.563  30.047   0.471
54488W        W14233  21.243   8.855   0.451
54489W        W14234   8.893  17.130   4.696
54490W        W14235  14.293  29.566  12.520
54491W        W14236  13.146  24.509   4.806
54492W        W14237   8.851  30.414  13.948
54493W        W14238  22.597  23.507  13.379
54494W        W14239  43.975  37.043  11.460
54495W        W14240  23.991  35.889  13.442
54496W        W14241   5.812   4.854  13.399
54497W        W14242   7.814  31.015  10.966
54498W        W14243   4.722  38.996  10.445
54499W        W14244   5.333  19.558   9.543
54500W        W14245  21.074  43.942   3.808
54501W        W14246  41.332  31.501  14.285
54502W        W14247  33.012  13.303  10.601
54503W        W14248  42.958  38.047   2.415
54504W        W14249  24.130  34.405  14.999
54505W        W14250  42.790  20.574   0.931
54506W        W14251   2.850   3.458   1.903
54507W        W14252  16.283  20.532  11.964
54508W        W14253  15.165   0.430  13.530
54509W        W14254  43.448   6.834  13.851
54510W        W14255  39.373  36.472   4.138
54511W        W14256   6.724  31.508  10.927
54512W        W14257  38.852   5.834   0.461
54513W        W14258   8.717  29.629  13.990
54514W        W14259  30.633  35.880  12.021
54515W        W14260  39.502  32.020   4.288
54516W        W14261  28.072  15.112  14.320
54517W        W14262   0.328   0.854   4.140
54518W        W14263   4.927  30.551  11.883
54519W        W14264   9.870   5.892   3.316
54520W        W14265  36.385  32.044  11.021
54521W        W14266   9.663  21.095   3.779
54522W        W14267  14.219   5.245   2.690
54523W        W14268   4.732  38.461   2.814
54524W        W14269  27.061  34.426  12.972
54525W        W14270  32.414   3.912  10.525
54526W        W14271   8.810  21.626  11.934
54527W        W14272  20.098  29.920  11.446
54528W        W14273   3.354   4.698  14.277
54529W        W14274  18.765   3.896  14.986
54530W        W14275  14.177  26.695   4.179
54531W        W14276  35.440  15.737  14.020
54532W        W14277  33.576  36.473   3.697
54533W        W14278  18.635  33.439  11.963
54534W        W14279   0.285   3.910   2.732
54535W        W14280  18.208  34.042   2.226
54536W        W14281   4.414   2.738   0.789
54537W        W14282   2.724  41.355  12.528
54538W        W14283  25.639  19.125  14.357
54539W        W14284  36.050  14.098   3.779
54540W        W14285  40.041  21.734  11.097
54541W        W14286  23.677  30.032   0.869
54542W        W14287  30.161   0.804  13.835
54543W        W14288  18.685  13.350  12.422
54544W        W14289  37.016  26.564   4.703
54545W        W14290  36.490  15.790   2.178
54546W        W14291  31.419   1.273  14.896
54547W        W14292  21.659  13.696   1.851
54548W        W14293   4.921  37.921  10.434
54549W        W14294  34.989   4.324  10.122
54550W        W14295  43.820   1.916  14.474
54551W        W14296   8.211  19.275  13.437
54552W        W14297  34.121  16.113   0.766
54553W        W14298  15.096  20.125   0.376
54554W        W14299  26.095  32.970  12.008
54555W        W14300  32.581  24.163  13.982
54556W        W14301  25.705  40.400   0.417
54557W        W14302  14.682  28.534   1.931
54558W        W14303  13.301   8.353   4.337
54559W        W14304  25.476  41.034  12.000
54560W        W14305  24.049   9.789  12.510
54561W        W14306  41.856  14.102   0.846
54562W        W14307  26.649  34.078   3.150
54563W        W14308   9.171  28.135  10.154
54564W        W14309   3.920  31.529   4.267
54565W        W14310   4.407  24.696   0.932
54566W        W14311  18.195  26.151  12.344
54567W        W14312   6.917  16.289  12.467
54568W        W14313  24.708   7.898   1.212
54569W        W14314   6.738  14.793   4.686
54570W        W14315   4.757  30.134   0.377
54571W        W14316  19.637  22.215   0.791
54572W        W14317  37.849  26.630   1.318
54573W        W14318  10.235  25.637  12.855
54574W        W14319  26.008  34.589  11.509
54575W        W14320  41.364  43.433   2.182
54576W        W14321   6.854  33.450  13.922
54577W        W14322  38.039  44.413   2.888
54578W        W14323  34.086  10.634   2.287
54579W        W14324   7.175   8.185   3.205
54580W        W14325  44.286  41.463  12.863
54581W        W14326  23.580  24.206  13.026
54582W        W14327  31.896  31.039  14.460
54583W        W14328  33.502   8.817  11.024
54584W        W14329  19.235  12.240   2.302
54585W        W14330  39.314  23.210   2.822
54586W        W14331   8.825  18.761   2.758
54587W        W14332   4.745  37.338   0.732
54588W        W14333   3.830  22.575   2.882
54589W        W14334  25.708  37.477   0.778
54590W        W14335  32.578   9.645   4.287
54591W        W14336  41.506  32.064  12.519
54592W        W14337  24.102  37.475  10.614
54593W        W14338   0.764  22.706   4.285
54594W        W14339   7.745   5.833  10.946
54595W        W14340   6.315  38.061   1.310
54596W        W14341  43.297  15.782  11.429
54597W        W14342  22.007   4.750   4.263
54598W        W14343  13.116  23.007  11.586
54599W        W14344  38.849  13.615  14.928
54600W        W14345  12.702   8.861   3.286
54601W        W14346   6.682  11.840  11.551
54602W        W14347  39.332  38.338  14.832
54603W        W14348   8.690  11.725   4.661
54604W        W14349  38.504  30.604   0.932
54605W        W14350  16.099  11.256   0.423
54606W        W14351   4.759  18.241  12.916
54607W        W14352  26.626  44.009   0.758
54608W        W14353   4.808  13.162   5.307
54609W        W14354  16.588   6.725  11.102
54610W        W14355  43.905  33.909  11.469
54611W        W14356  16.301  30.066   0.389
54612W        W14357  43.960  40.345   1.698
54613W        W14358  36.948  32.602  14.793
54614W        W14359  20.566  34.075   3.763
54615W        W14360  43.376  27.945  10.626
54616W        W14361   5.705   0.348   1.714
54617W        W14362  36.086   1.386  12.015
54618W        W14363  42.785  32.939   3.658
54619W        W14364  17.141  14.801   3.788
54620W        W14365  23.711  15.669   5.103
54621W        W14366  11.685  12.627   5.293
54622W        W14367  11.752  14.689   1.275
54623W        W14368  16.187   1.270   0.914
54624W        W14369  11.250  17.741   0.866
54625W        W14370  29.135  37.511  12.930
54626W        W14371  35.985  25.206   4.675
54627W        W14372  42.435  20.240   3.166
54628W        W14373  31.078  37.465  12.389
54629W        W14374   9.868  15.276   4.789
54630W        W14375   0.335   5.856  11.460
54631W        W14376  24.996  43.495   3.722
54632W        W14377  36.477  30.114   0.956
54633W        W14378  15.278  20.759   2.729
54634W        W14379   7.837  29.092   2.781
54635W        W14380  14.326  26.987   2.331
54636W        W14381  39.557  27.650  12.053
54637W        W14382  39.345  16.650  12.375
54638W        W14383  30.618  30.478   3.807
54639W        W14384  26.566  35.010   0.290
54640W        W14385  24.659  39.352   0.381
54641W        W14386   6.390   2.284  14.467
54642W        W14387  39.899  28.129  10.958
54643W        W14388  39.347  34.981  12.482
54644W        W14389  20.708  15.692   3.216
54645W        W14390   0.876  24.018   3.745
54646W        W14391  28.471  23.215  11.535
54647W        W14392  16.150  19.777  11.121
54648W        W14393  30.480  23.077  11.592
54649W        W14394   5.287  17.148  11.579
54650W        W14395   2.378  38.532   1.721
54651W        W14396  10.257   4.703   0.760
54652W        W14397  23.143  40.888   2.347
54653W        W14398  42.964   2.761  10.921
54654W        W14399  32.963  20.256   0.333
54655W        W14400  19.072  40.984   1.280
54656W        W14401  34.476  20.718  14.930
54657W        W14402   8.223  29.602   1.885
54658W        W14403  29.942  24.494  13.899
54659W        W14404   3.332  11.298   4.745
54660W        W14405  30.520  26.048  10.939
54661W        W14406  24.572   3.746  14.987
54662W        W14407   7.242   3.370   4.352
54663W        W14408   4.719  42.914  14.276
54664W        W14409   5.804  31.934  13.362
54665W        W14410  20.095  10.173   3.374
54666W        W14411   4.802  10.827   0.289
54667W        W14412  15.660  30.626  13.464
54668W        W14413  39.946  32.089   4.240
54669W        W14414  40.806   7.313  10.439
54670W        W14415  39.034  16.622   4.829
54671W        W14416  23.632  30.131   3.378
54672W        W14417  29.961  35.987  12.511
54673W        W14418  31.952  24.216  12.014
54674W        W14419  10.823  18.183   4.329
54675W        W14420  35.995  26.474   2.178
54676W        W14421  35.992  16.784  14.864
54677W        W14422  30.547  23.732   0.363
54678W        W14423  18.143  17.754  12.405
54679W        W14424  22.128   8.845   0.327
54680W        W14425   5.719  43.296   1.435
54681W        W14426  19.276   4.743   1.842
54682W        W14427  37.412  29.919  11.389
54683W        W14428  23.043   5.809   2.890
54684W        W14429  38.890  20.183  14.805
54685W        W14430  13.735  10.179  12.837
54686W        W14431   5.314  24.579  10.506
54687W        W14432  17.226  25.144  12.853
54688W        W14433  38.045  39.924  12.520
54689W        W14434  33.613   9.686   1.321
54690W        W14435  23.534  22.569  13.501
54691W        W14436  27.457  15.206  14.912
54692W        W14437  43.987   1.280  14.383
54693W        W14438  42.024  38.971  12.025
54694W        W14439  11.191  12.791  13.371
54695W        W14440   7.789  16.694  12.881
54696W        W14441  25.498   4.944  10.931
54697W        W14442  43.422  44.927   4.169
54698W        W14443  12.328  28.125   0.914
54699W        W14444  36.891   1.771   4.182
54700W        W14445   4.365  28.538   1.298
54701W        W14446  38.409  41.979   4.624
54702W        W14447   4.359  32.597   3.148
54703W        W14448   5.363   5.252  10.600
54704W        W14449  34.109  28.578  13.838
54705W        W14450   8.361  13.148   4.351
54706W        W14451   4.329  40.852  10.504
54707W        W14452  21.090  25.181  13.394
54708W        W14453  16.250   2.313  13.384
54709W        W14454  23.630  40.369   2.191
54710W        W14455  19.590  17.738  12.553
54711W        W14456   9.181  40.335   1.226
54712W        W14457  32.582   8.808   9.475
54713W        W14458  19.688  16.620  10.483
54714W        W14459  23.564  43.866  12.501
54715W        W14460  21.235  29.533  11.540
54716W        W14461   9.694  39.454   2.250
54717W        W14462   1.906  29.440   1.835
54718W        W14463  14.641  22.649  11.513
54719W        W14464  16.714  24.190   2.224
54720W        W14465  40.942  26.103   3.675
54721W        W14466  42.326  43.445  10.931
54722W        W14467  44.958  21.059  11.977
54723W        W14468  30.928  26.481  10.900
54724W        W14469   8.233  20.563  11.909
54725W        W14470   0.955  23.692   1.902
54726W        W14471  12.122  28.629  11.460
54727W        W14472   5.358  36.939   0.284
54728W        W14473  33.089  13.787   3.330
54729W        W14474  42.419  16.719   1.404
54730W        W14475  35.058  39.469   1.787
54731W        W14476  34.958  44.480  12.921
54732W        W14477  26.499  29.520   1.253
54733W        W14478  35.902  18.184   1.300
54734W        W14479   3.379  12.628  11.491
54735W        W14480  44.781  23.705   0.770
54736W        W14481  26.498  20.695  12.428
54737W        W14482   4.303  17.183   2.245
54738W        W14483  38.538  18.590  13.003
54739W        W14484   5.713  31.896   2.226
54740W        W14485  39.515  27.094  14.941
54741W        W14486   9.717  30.064  10.951
54742W        W14487  27.107  22.121  14.859
54743W        W14488  27.588  30.119  10.472
54744W        W14489   0.303  17.175  12.361
54745W        W14490  12.214  14.109   4.201
54746W        W14491  39.530  18.275   0.323
54747W        W14492  33.426  40.802  12.509
54748W        W14493  28.452  28.133  11.433
54749W        W14494  36.023   0.808   1.892
54750W        W14495  12.804  26.028   2.814
54751W        W14496  20.219  44.925  12.003
54752W        W14497  22.125  24.584   3.803
54753W        W14498   6.373  22.058   3.376
54754W        W14499   8.369  37.496  14.989
54755W        W14500  20.073  37.932  11.975
54756W        W14501  12.790  19.551   2.184
54757W        W14502  15.647  23.158  11.584
54758W        W14503  15.594   0.840  14.367
54759W        W14504  12.348   5.728   3.259
54760W        W14505  18.789   3.436  12.066
54761W        W14506  27.625  25.047  14.962
54762W        W14507  30.151  21.716  13.526
54763W        W14508  18.551  38.439  14.323
54764W        W14509  39.993  19.215  11.582
54765W        W14510  10.384  39.903   4.787
54766W        W14511  29.573  26.652   2.238
54767W        W14512  35.491  36.373   3.751
54768W        W14513  28.652  28.969   2.292
54769W        W14514  33.586  33.923  11.608
54770W        W14515  32.450  16.761   1.878
54771W        W14516  11.649  34.933  13.949
54772W        W14517  13.755  27.685  13.016
54773W        W14518   6.334   0.852   3.221
54774W        W14519   7.900   9.718   1.874
54775W        W14520  25.129  37.866   0.893
54776W        W14521  39.361  42.877   2.767
54777W        W14522  28.632  41.872   0.835
54778W        W14523  12.163  18.765   1.720
54779W        W14524  16.247  16.660  14.388
54780W        W14525  14.328  23.041   2.778
54781W        W14526  30.468   7.818  14.999
54782W        W14527  36.438  35.463  13.340
54783W        W14528  24.581  34.508   9.925
54784W        W14529  33.926  32.589  13.823
54785W        W14530  32.522  36.010   4.787
54786W        W14531  23.731   5.271   0.358
54787W        W14532  16.780  24.537  12.339
54788W        W14533  25.556  28.970  10.558
54789W        W14534   4.284  30.069  13.378
54790W        W14535  20.560  30.086   1.758
54791W        W14536  41.447  17.701   3.252
54792W        W14537  38.480   2.859  14.440
54793W        W14538   0.433  34.443   5.629
54794W        W14539   3.265  24.698  14.892
54795W        W14540   5.793  12.151  11.400
54796W        W14541  44.282  37.055   2.788
54797W        W14542  26.167  33.971   3.804
54798W        W14543   4.844   1.938  11.983
54799W        W14544  10.764   2.847  11.991
54800W        W14545  33.895  16.788   1.377
54801W        W14546  43.891   6.874  11.858
54802W        W14547   3.787   3.788   1.735
54803W        W14548  32.526  32.532  10.539
54804W        W14549  41.985  24.699   0.820
54805W        W14550  42.018  21.255   0.309
54806W        W14551  19.544  42.965   0.765
54807W        W14552  43.388  14.831  11.984
54808W        W14553  22.519  21.521   4.671
54809W        W14554  12.817  11.695   2.275
54810W        W14555   1.752  21.676   2.251
54811W        W14556   8.672  40.899   3.695
54812W        W14557  30.934  33.457   3.328
54813W        W14558  14.772  23.592   2.413
54814W        W14559  14.835  42.319  12.395
54815W        W14560  34.502   5.353  10.989
54816W        W14561  41.313   4.221   0.770
54817W        W14562   3.750  12.337   2.397
54818W        W14563   5.257  19.162   2.275
54819W        W14564  44.374  37.906   1.271
54820W        W14565  25.508  24.085   2.693
54821W        W14566   1.293  19.676   0.465
54822W        W14567  21.061  31.458  11.041
54823W        W14568   1.466  15.678  12.889
54824W        W14569  14.775  39.502   4.637
54825W        W14570  12.288  30.963  12.019
54826W        W14571  15.302   0.296  14.824
54827W        W14572  23.007  12.186  12.930
54828W        W14573  40.820   4.765   4.169
54829W        W14574   5.213  17.211  12.462
54830W        W14575  27.131  32.610  14.391
54831W        W14576   0.479  37.964   1.409
54832W        W14577  32.979  14.184   2.724
54833W        W14578  18.702   5.788  11.955
54834W        W14579  19.665  13.114   1.754
54835W        W14580  19.196  17.149   4.272
54836W        W14581   8.881  14.766   2.732
54837W        W14582   3.945  25.648   0.280
54838W        W14583  17.117   8.199  13.038
54839W        W14584   4.374  36.387  11.376
54840W        W14585  16.173  10.365   3.748
54841W        W14586  34.042  28.001   0.352
54842W        W14587  20.635  20.711   1.350
54843W        W14588  26.617  28.643   4.664
54844W        W14589  25.604  40.994   3.232
54845W        W14590   7.299  20.686  11.972
54846W        W14591  37.363  34.511  11.886
54847W        W14592  32.982  29.558   1.260
54848W        W14593  33.013   2.844   4.279
54849W        W14594   8.756  33.427   3.160
54850W        W14595   1.469  16.646  14.484
54851W        W14596   6.291   1.860   1.314
54852W        W14597  25.109  31.041  12.388
54853W        W14598  10.866  44.824   3.216
54854W        W14599  15.583   1.785   0.358
54855W        W14600   0.449  28.110  11.478
54856W        W14601  32.636  34.048   2.264
54857W        W14602  20.032  10.646   3.863
54858W        W14603  26.187  30.600  13.840
54859W        W14604  39.444  15.270  14.863
54860W        W14605  44.851  18.785   0.868
54861W        W14606  29.574   3.914  14.279
54862W        W14607  25.022   6.884  10.625
54863W        W14608   5.701  20.755   1.859
54864W        W14609   1.389  19.573   0.956
54865W        W14610   4.735   5.772   4.280
54866W        W14611  12.253  39.980   0.403
54867W        W14612  14.157   7.416   3.244
54868W        W14613  33.450  29.646   5.115
54869W        W14614  37.917  41.391  14.464
54870W        W14615  23.139  38.496  13.818
54871W        W14616  14.812   7.836  12.055
54872W        W14617   1.265  40.413   4.692
54873W        W14618  12.193   0.745   0.381
54874W        W14619  38.002  30.922   0.266
54875W        W14620  29.929   6.371   0.848
54876W        W14621  17.781   3.748  13.012
54877W        W14622   8.767  43.361  10.615
54878W        W14623  42.814  31.554   2.287
54879W        W14624  35.959  42.319  10.910
54880W        W14625  34.399  37.834   1.381
54881W        W14626  28.566   2.836   2.719
54882W        W14627  14.778  17.775   4.198
54883W        W14628  24.541  36.001   5.180
54884W        W14629  26.481   9.207   2.389
54885W        W14630   4.799  41.293  11.987
54886W        W14631  25.028   5.295   4.169
54887W        W14632  29.965   7.841   1.339
54888W        W14633  16.764  33.020   2.820
54889W        W14634  41.416  29.662  11.404
54890W        W14635   9.695  36.521   2.750
54891W        W14636  18.604  28.466   2.763
54892W        W14637   1.801  10.375  13.363
54893W        W14638  24.712  17.589   0.447
54894W        W14639  36.013   3.291   0.402
54895W        W14640  11.315  21.217  14.821
54896W        W14641   7.676  25.093   0.879
54897W        W14642   3.863   4.871   0.729
54898W        W14643   3.264  35.908  13.438
54899W        W14644  11.765  10.325   1.233
54900W        W14645  26.184  21.092  10.466
54901W        W14646   1.948  22.169   3.224
54902W        W14647  38.935   1.269   0.467
54903W        W14648  38.467  15.287   2.889
54904W        W14649  25.613  25.061  13.330
54905W        W14650  40.978   5.300  12.075
54906W        W14651   2.240  36.398   5.169
54907W        W14652  12.696   5.849   2.361
54908W        W14653   2.413  38.928   3.633
54909W        W14654  24.097   4.315   3.780
54910W        W14655  33.915  16.280  14.851
54911W        W14656  39.824  38.463  14.771
54912W        W14657  22.526  21.071  13.356
54913W        W14658  12.795  21.134   4.175
54914W        W14659  14.252  39.475   2.855
54915W        W14660  40.342  14.202   4.190
54916W        W14661   2.777  29.113  12.484
54917W        W14662  43.881  35.407   3.285
54918W        W14663  28.520  18.759  11.560
54919W        W14664  16.650  33.127   1.312
54920W        W14665  43.021  18.062  12.422
54921W        W14666  27.983  32.493   3.839
54922W        W14667  36.969  16.749   0.877
54923W        W14668  14.109  42.310   1.271
54924W        W14669  22.514  11.794  14.923
54925W        W14670   3.918  40.967  12.458
54926W        W14671  40.002   7.202  12.482
54927W        W14672  42.307   4.735   0.265
54928W        W14673  13.625  16.262   1.410
54929W        W14674  37.076   5.725   1.907
54930W        W14675  32.048  24.062  10.039
54931W        W14676  36.562  22.039   1.922
54932W        W14677  22.134   1.266   2.760
54933W        W14678  27.108   3.738  12.415
54934W        W14679  16.227   7.713  11.570
54935W        W14680  44.785  10.664  10.554
54936W        W14681  32.885  33.387  12.545
54937W        W14682  19.762  15.687   4.814
54938W        W14683  30.453  14.324   3.273
54939W        W14684   6.418  40.501   2.683
54940W        W14685  19.649  41.882  11.378
54941W        W14686  23.078  41.476  11.044
54942W        W14687  37.042  22.550   2.692
54943W        W14688  15.229  21.237   3.284
54944W        W14689  19.121  41.477  11.010
54945W        W14690   6.264   9.690  13.020
54946W        W14691  14.777  17.799  12.431
54947W        W14692  17.777   7.342   2.307
54948W        W14693   1.943  29.540   0.369
54949W        W14694  43.493  43.815  14.389
54950W        W14695  34.962  31.640   3.779
54951W        W14696  41.820  33.460   4.771
54952W        W14697  11.769  27.541   2.853
54953W        W14698   4.436   5.763   4.310
54954W        W14699  10.140   0.399   1.715
54955W        W14700   8.825  37.031  13.914
54956W        W14701  15.656  28.584  13.959
54957W        W14702  28.960  31.910   0.275
54958W        W14703  23.583   6.427  10.541
54959W        W14704  43.487  33.081   4.293
54960W        W14705  33.517  41.938  14.791
54961W        W14706  23.726  33.034   4.312
54962W        W14707   4.779  39.524   1.841
54963W        W14708  30.119   3.266   1.275
54964W        W14709   7.669  29.957  13.923
54965W        W14710  18.150  38.396   1.887
54966W        W14711  44.823   5.812  11.376
54967W        W14712   1.342  33.459   5.592
54968W        W14713  19.254  20.608   2.249
54969W        W14714  39.947  12.358  10.461
54970W        W14715  16.589  13.782  14.450
54971W        W14716  33.076  24.582  14.385
54972W        W14717  15.581  17.781   4.219
54973W        W14718  13.833  14.249   4.752
54974W        W14719  28.010  17.146  14.508
54975W        W14720  19.545  35.375  14.007
54976W        W14721   2.416  30.108  13.341
54977W        W14722  21.625   7.345  10.021
54978W        W14723  14.606  31.594  11.125
54979W        W14724   8.337  11.241   1.871
54980W        W14725  31.044  43.281   4.727
54981W        W14726  28.997  19.047   5.083
54982W        W14727  13.622  12.125   4.140
54983W        W14728  30.485  34.377  12.533
54984W        W14729  10.328  25.625   0.823
54985W        W14730  44.482   6.285   3.210
54986W        W14731   5.333  29.637  11.888
54987W        W14732  11.712   8.353  12.907
54988W        W14733   8.696  38.423   1.287
54989W        W14734  15.757   4.846   2.323
54990W        W14735   2.352  17.274  12.014
54991W        W14736  27.193  19.097  13.884
54992W        W14737  16.290  30.489  10.965
54993W        W14738  25.115  22.737  13.343
54994W        W14739  41.889  41.374  13.048
54995W        W14740  17.703   3.933   5.736
54996W        W14741  12.178  39.978   1.223
54997W        W14742  11.699  42.325   0.864
54998W        W14743  41.297  41.335  11.914
54999W        W14744  15.793  43.487   2.732
55000W        W14745  26.635  29.138  13.452
55001W        W14746   5.785  20.065   2.179
55002W        W14747  12.261  19.276   4.726
55003W        W14748  23.605  23.092   0.803
55004W        W14749  20.766  10.797  12.897
55005W        W14750  32.585  15.764   0.787
55006W        W14751   3.335   6.378  13.002
55007W        W14752  37.502   1.298  13.973
55008W        W14753  20.557  11.708   1.230
55009W        W14754  11.689   5.900   2.272
55010W        W14755  20.107  27.043   3.791
55011W        W14756  29.014  30.078  12.359
55012W        W14757  35.895  20.068   4.263
55013W        W14758   3.709   2.406  12.460
55014W        W14759  43.005  42.878   0.749
55015W        W14760  31.410  31.908  14.846
55016W        W14761  12.129  21.077   4.122
55017W        W14762  32.128  35.413   4.647
55018W        W14763  31.898  41.800  13.383
55019W        W14764  32.059   3.298   5.086
55020W        W14765  13.231  10.338  11.546
55021W        W14766   0.422  20.729  11.002
55022W        W14767  12.806   6.370  11.533
55023W        W14768  15.787  15.619   3.225
55024W        W14769  39.006  33.504   2.219
55025W        W14770  10.260  27.060   3.328
55026W        W14771   1.260  16.727   2.216
55027W        W14772  38.504   9.222  11.966
55028W        W14773  11.792  28.939   0.958
55029W        W14774  39.030   7.364  10.640
55030W        W14775  43.901   5.888   1.254
55031W        W14776  27.608  38.062   1.276
55032W        W14777   4.751  37.471  11.498
55033W        W14778  11.311   4.742   3.831
55034W        W14779  29.924   8.396  14.447
55035W        W14780   1.939   8.312  14.935
55036W        W14781  13.106  25.035  11.098
55037W        W14782  40.843   9.793  10.491
55038W        W14783  35.056  38.380  14.428
55039W        W14784   8.245  31.417   2.401
55040W        W14785  37.992  21.538  10.556
55041W        W14786  43.450   2.866   0.402
55042W        W14787  19.716  41.037   1.823
55043W        W14788  24.609  20.654  10.570
55044W        W14789  35.066  29.626  14.902
55045W        W14790  19.746   0.937  13.847
55046W        W14791  33.576  25.174   0.920
55047W        W14792  15.663   4.814   0.910
55048W        W14793  17.128  34.524  13.820
55049W        W14794  33.067  39.964  13.501
55050W        W14795  31.912  32.052  12.956
55051W        W14796  27.981   1.938  13.438
55052W        W14797   2.744  38.969  13.415
55053W        W14798  20.554  24.566  13.394
55054W        W14799   3.271  30.959  12.980
55055W        W14800  44.808  42.300  14.813
55056W        W14801  37.063  37.430   1.433
55057W        W14802  35.105  26.125  11.423
55058W        W14803  18.618   5.306  14.795
55059W        W14804  27.487  18.221   3.193
55060W        W14805  33.474  27.037  14.962
55061W        W14806  13.230  26.526   2.415
55062W        W14807  16.137  21.089  14.870
55063W        W14808  44.366  40.543   1.335
55064W        W14809  41.399  13.706   0.479
55065W        W14810  36.070  19.623  13.445
55066W        W14811  24.985  28.527   1.753
55067W        W14812  38.990  37.084  13.018
55068W        W14813  21.603  44.400   3.337
55069W        W14814  33.980   3.906  11.501
55070W        W14815  27.503  11.262  12.092
55071W        W14816   6.353  28.573   2.693
55072W        W14817  28.646  12.754  11.474
55073W        W14818  33.090   5.378   2.337
55074W        W14819  40.999  27.591   1.908
55075W        W14820  17.724   6.800  11.550
55076W        W14821  25.519  29.567  14.350
55077W        W14822   1.408  17.725  11.583
55078W        W14823   9.283  22.156   1.398
55079W        W14824   2.409   7.377  10.013
55080W        W14825  16.213  38.376  10.595
55081W        W14826   8.185  40.840   2.312
55082W        W14827  27.998   3.900   3.220
55083W        W14828  42.007  13.820  10.552
55084W        W14829  14.753  42.870  13.796
55085W        W14830  41.912  26.663  11.002
55086W        W14831  31.020  20.555  13.923
55087W        W14832  25.540   1.829   1.400
55088W        W14833  25.177  32.479   5.295
55089W        W14834  17.259  11.650   4.690
55090W        W14835  29.137  31.987  13.384
55091W        W14836  28.003  30.064  13.534
55092W        W14837  26.114  10.694   2.356
55093W        W14838  32.982  23.222   0.957
55094W        W14839  35.876  38.355  14.777
55095W        W14840  26.971   6.780  12.858
55096W        W14841   3.239  22.173   2.358
55097W        W14842  25.575  10.642  10.640
55098W        W14843  43.819  36.865   0.855
55099W        W14844   5.408  15.643   2.771
55100W        W14845   8.837  36.878   0.276
55101W        W14846  44.499  43.316  11.048
55102W        W14847  31.636   0.383   2.378
55103W        W14848  15.149  17.705  10.967
55104W        W14849  26.195  17.074   2.327
55105W        W14850  26.646   0.368  11.031
55106W        W14851  34.388   5.893   1.351
55107W        W14852  10.832  28.133   0.946
55108W        W14853  30.050  34.469   3.323
55109W        W14854   7.667   6.222   0.858
55110W        W14855  35.074  21.723  11.494
55111W        W14856  44.959  22.204  14.512
55112W        W14857   4.930  30.529   0.736
55113W        W14858  35.369  23.992   4.281
55114W        W14859   6.790  26.981   1.847
55115W        W14860  23.631  38.348  14.402
55116W        W14861  10.779  40.384   0.449
55117W        W14862  12.843   4.356  10.942
55118W        W14863   0.849  18.736  12.055
55119W        W14864   7.180  27.480  11.456
55120W        W14865  22.197  41.492   0.326
55121W        W14866  11.372  28.560   4.127
55122W        W14867  30.544  24.481   2.888
55123W        W14868  22.690  15.190  12.515
55124W        W14869  43.872  13.114   0.374
55125W        W14870   2.307  21.556  10.411
55126W        W14871   3.263   8.819   4.612
55127W        W14872   2.797  34.510  14.843
55128W        W14873  28.955  15.168   3.355
55129W        W14874  20.182  33.000   1.908
55130W        W14875  27.030  33.449  11.058
55131W        W14876  12.255  31.037   1.836
55132W        W14877  18.558  30.493  10.605
55133W        W14878  24.036  39.854   4.132
55134W        W14879  39.383  10.154  13.002
55135W        W14880   5.742   1.972   3.236
55136W        W14881  34.454   4.751  12.974
55137W        W14882  33.038   0.387  11.107
55138W        W14883  29.479  10.348  12.471
55139W        W14884   8.229  39.972   3.844
55140W        W14885   6.732   1.790   2.816
55141W        W14886  16.635   8.776  14.453
55142W        W14887  42.328  44.960   3.725
55143W        W14888  20.227  20.634   0.892
55144W        W14889   3.727  33.076   4.820
55145W        W14890  27.510   5.326   4.214
55146W        W14891  40.876   2.744   1.774
55147W        W14892  20.047   6.773   4.177
55148W        W14893   6.676  31.418  12.838
55149W        W14894   9.237  32.428   4.309
55150W        W14895  19.580   3.758  13.006
55151W        W14896  14.658  10.245   4.640
55152W        W14897  34.971  30.567   5.241
55153W        W14898  44.971  19.073   2.214
55154W        W14899   5.731  30.996  13.828
55155W        W14900  10.170  38.961  10.025
55156W        W14901  20.196   6.387   2.784
55157W        W14902  39.037  18.735  14.307
55158W        W14903   3.914  42.880  11.922
55159W        W14904  14.244  41.375  11.587
55160W        W14905  16.624  33.890  10.935
55161W        W14906  43.783   9.287   0.776
55162W        W14907  14.835   8.856   0.962
55163W        W14908  41.981  22.638   2.870
55164W        W14909  44.764  23.994  10.430
55165W        W14910   8.744  23.140  12.460
55166W        W14911  43.013  19.160  13.519
55167W        W14912   3.857  37.480   1.913
55168W        W14913  43.462  26.026   2.860
55169W        W14914  11.295  19.694   1.862
55170W        W14915  19.662   0.859   0.814
55171W        W14916  39.411  34.074  11.476
55172W        W14917   1.262   4.866  10.505
55173W        W14918  35.919   2.765  11.519
55174W        W14919   8.660   1.769   4.147
55175W        W14920  34.385  34.558  14.808
55176W        W14921  28.094   7.316  10.909
55177W        W14922  33.625   8.689  11.503
55178W        W14923  28.602  22.096   2.868
55179W        W14924  14.174   2.351   1.908
55180W        W14925  19.248   4.752  14.330
55181W        W14926  12.854   2.340   3.278
55182W        W14927  36.413  21.211  11.575
55183W        W14928  14.162  37.978  12.362
55184W        W14929  17.112  44.415   4.615
55185W        W14930   3.726  14.279   0.364
55186W        W14931  28.477  34.448   4.727
55187W        W14932  38.961  29.042   0.796
55188W        W14933  15.614  23.651  11.953
55189W        W14934  19.173  41.004  13.316
55190W        W14935  24.490  22.148   4.714
55191W        W14936  35.487  37.939   0.923
55192W        W14937  27.160  24.559  14.900
55193W        W14938   1.279  32.949  13.818
55194W        W14939  18.150  41.495  11.870
55195W        W14940   3.738  36.490  12.531
55196W        W14941  14.285  24.655  14.764
55197W        W14942  44.830  40.470   2.311
55198W        W14943  31.071  12.193  14.916
55199W        W14944  13.630   1.417   2.895
55200W        W14945  38.849  35.541  14.955
55201W        W14946  17.160  41.474   3.349
55202W        W14947  26.054   7.360  11.552
55203W        W14948  43.860  39.385  13.548
55204W        W14949  36.847  29.948  11.507
55205W        W14950   3.741  42.008  11.026
55206W        W14951  42.520   3.288  14.858
55207W        W14952  20.091  42.459  13.389
55208W        W14953   6.367  10.722  13.456
55209W        W14954  16.288  10.691   3.357
55210W        W14955  21.031  33.074   5.102
55211W        W14956  31.536  25.648   0.298
55212W        W14957  43.372  13.718  13.014
55213W        W14958  33.568  15.329   4.808
55214W        W14959  14.791  27.576  12.832
55215W        W14960  43.998  29.064   0.472
55216W        W14961  19.194   5.432  10.507
55217W        W14962   3.440  43.465  13.419
55218W        W14963  42.819  25.493   2.852
55219W        W14964  41.410  24.590   4.686
55220W        W14965  14.795   5.703   2.875
55221W        W14966   3.286  38.360   1.353
55222W        W14967  35.087  17.228  13.896
55223W        W14968  33.884   6.422   2.818
55224W        W14969  17.704   8.849   0.935
55225W        W14970   0.431   3.784  13.439
55226W        W14971  40.910  18.771   0.347
55227W        W14972   0.956  44.454   4.215
55228W        W14973   6.871   3.218  10.494
55229W        W14974  33.479   6.238   4.287
55230W        W14975  42.866   9.311   1.831
55231W        W14976  25.012  38.436   2.254
55232W        W14977  30.454  26.570  14.489
55233W        W14978  20.721  39.532  14.779
55234W        W14979  36.534  18.785   3.836
55235W        W14980  26.593  39.353   0.782
55236W        W14981   8.818  15.762   1.324
55237W        W14982  27.570  16.182   2.183
55238W        W14983  35.566   6.217   1.310
55239W        W14984  28.066   9.670   1.448
55240W        W14985   8.819  27.657  10.577
55241W        W14986  22.214  29.935  14.775
55242W        W14987  24.206   5.223   3.192
55243W        W14988  42.957  29.654   4.168
55244W        W14989  24.045  42.883   2.734
55245W        W14990  38.946   4.871  12.551
55246W        W14991  29.005  17.690   2.768
55247W        W14992  24.120  23.060  12.492
55248W        W14993  34.541  43.501   0.888
55249W        W14994  44.914  31.426   2.700
55250W        W14995  19.548  40.001  11.025
55251W        W14996  12.670  39.359  12.438
55252W        W14997   8.885  30.484  12.889
55253W        W14998  11.767  43.276  12.404
55254W        W14999  28.097   4.715   5.164
55255W        W15000  20.194  27.960  11.096
55256W        W15001  27.532  14.270   0.748
55257W        W15002  44.422  14.796  12.878
55258W        W15003  28.632  16.131  12.505
55259W        W15004  28.532  42.950   3.854
55260W        W15005  30.960  24.212  11.002
55261W        W15006   5.720  12.848   4.153
55262W        W15007  39.932  19.145  14.284
55263W        W15008  34.494   8.796   2.696
55264W        W15009  22.570  35.936  14.874
55265W        W15010  39.858  18.087   2.189
55266W        W15011  32.890  23.639  13.543
55267W        W15012  30.924  42.514   4.138
55268W        W15013  27.532   6.893  12.019
55269W        W15014   5.748  28.009   1.797
55270W        W15015  41.332  39.960  13.364
55271W        W15016   0.315  16.638  11.590
55272W        W15017  40.870  16.143  11.529
55273W        W15018  43.918  11.723  12.028
55274W        W15019   1.329  42.330   0.316
55275W        W15020  11.679   4.905  10.982
55276W        W15021  35.554  28.027   3.718
55277W        W15022  43.838  38.867   1.910
55278W        W15023  22.652  28.611   1.370
55279W        W15024  38.051  36.852   0.934
55280W        W15025  41.312  38.052   4.198
55281W        W15026  22.011  30.538   2.774
55282W        W15027   2.868   6.922  13.470
55283W        W15028   0.821  42.351   2.704
55284W        W15029   3.311  10.231  14.829
55285W        W15030  25.627  20.054  14.468
55286W        W15031  38.338  10.764   3.387
55287W        W15032  34.371  34.453   3.149
55288W        W15033  27.966  10.694  12.056
55289W        W15034   2.247  11.730   4.276
55290W        W15035  39.997  33.891   4.797
55291W        W15036  12.668   6.214   3.285
55292W        W15037  31.151  27.470   3.336
55293W        W15038  24.048  29.174  13.966
55294W        W15039   0.885  30.103  10.124
55295W        W15040  42.870  17.232   0.803
55296W        W15041  31.146  32.455   3.367
55297W        W15042  35.048  24.647   3.358
55298W        W15043  11.657  17.562   0.260
55299W        W15044  22.613   1.379   2.696
55300W        W15045  31.574  34.102  10.594
55301W        W15046  16.111   0.794  11.568
55302W        W15047   2.281  39.826   2.235
55303W        W15048  30.080  19.178   9.929
55304W        W15049  33.513  41.342   1.222
55305W        W15050  35.395  11.784   1.326
55306W        W15051  23.179  39.886  12.456
55307W        W15052   1.376  11.206  11.042
55308W        W15053  10.654  40.927  13.318
55309W        W15054   1.749  33.398  12.031
55310W        W15055  13.817  12.302  10.578
55311W        W15056  16.730  33.914  13.527
55312W        W15057  32.623  15.642  11.102
55313W        W15058  33.096  43.356   2.267
55314W        W15059  38.034  31.924  14.311
55315W        W15060  40.417   8.773  12.432
55316W        W15061  19.070   0.889   0.735
55317W        W15062  32.894  21.715  14.008
55318W        W15063  43.905  26.098   0.940
55319W        W15064  34.927  37.404  10.575
55320W        W15065  33.475  39.860   3.258
55321W        W15066   0.474  43.987   2.328
55322W        W15067   4.325  34.864  10.434
55323W        W15068   9.842  34.602  12.902
55324W        W15069   8.875  26.683  12.406
55325W        W15070  24.705   4.449  14.824
55326W        W15071  39.384  43.471   1.449
55327W        W15072  16.256  19.718  10.499
55328W        W15073  15.601  37.881  11.471
55329W        W15074   0.975  36.908  13.457
55330W        W15075  27.671   6.198  11.461
55331W        W15076  12.186  34.101  12.891
55332W        W15077  26.464  41.939  11.977
55333W        W15078   6.793  24.085   2.678
55334W        W15079  15.190  28.482  14.944
55335W        W15080   6.389  31.036  10.642
55336W        W15081  36.498   2.898   4.676
55337W        W15082  24.586  31.478  14.470
55338W        W15083   5.849  29.124  10.625
55339W        W15084  28.953  18.664  13.528
55340W        W15085  29.078  30.560   2.364
55341W        W15086  30.125  39.061  14.514
55342W        W15087   5.284  32.094   4.142
55343W        W15088  25.481  20.593  12.906
55344W        W15089  13.109  12.647   1.267
55345W        W15090  38.371   8.260  13.911
55346W        W15091   4.221   6.832  12.457
55347W        W15092  42.320   5.797   4.248
55348W        W15093  42.445  32.959   2.206
55349W        W15094  30.141   2.280   2.838
55350W        W15095  22.194  36.015  11.067
55351W        W15096  38.962  14.285  11.957
55352W        W15097  13.731   7.363   3.723
55353W        W15098   3.743   1.960   3.282
55354W        W15099  40.440  15.090   0.312
55355W        W15100  33.938  17.783  14.364
55356W        W15101  37.522   2.465   3.296
55357W        W15102  20.107   6.365   3.153
55358W        W15103  15.711   0.828  10.924
55359W        W15104   4.448   8.756   3.187
55360W        W15105   0.460   7.871   1.451
55361W        W15106  29.112  43.004  14.506
55362W        W15107  17.257   5.773   0.369
55363W        W15108  19.536  16.131   1.804
55364W        W15109  35.560   9.378   2.828
55365W        W15110  36.064  35.531  14.495
55366W        W15111  26.475   6.716   2.864
55367W        W15112  23.545  23.526   4.706
55368W        W15113   8.840   7.346  12.470
55369W        W15114   4.888  30.558  12.492
55370W        W15115  19.066   7.808   1.338
55371W        W15116  35.041  34.400   2.297
55372W        W15117   8.809   0.413   0.286
55373W        W15118  14.705  17.100   1.268
55374W        W15119  16.679  44.283  14.347
55375W        W15120  29.942  10.183   4.269
55376W        W15121  26.634  30.973  13.409
55377W        W15122   6.362  39.418   3.642
55378W        W15123  24.143  15.091   2.396
55379W        W15124   0.429  29.636   1.327
55380W        W15125  43.813  41.443  11.084
55381W        W15126   7.409  18.141   0.443
55382W        W15127  34.488   8.257   1.380
55383W        W15128  24.657   2.397   0.947
55384W        W15129  10.198  32.418  13.936
55385W        W15130   3.385  27.940  12.084
55386W        W15131  44.460   0.847  12.975
55387W        W15132  25.163  14.294   3.241
55388W        W15133  35.900  43.385   3.704
55389W        W15134  15.202  24.097   1.257
55390W        W15135   0.786  39.026  13.941
55391W        W15136  14.786  14.285  12.903
55392W        W15137  25.205  18.152   2.753
55393W        W15138  15.194  35.074  12.439
55394W        W15139  20.145  18.284   9.995
55395W        W15140  39.513  26.207  13.895
55396W        W15141   3.905  19.562   5.200
55397W        W15142   8.234   1.897   3.295
55398W        W15143  33.417  38.029  12.531
55399W        W15144   4.788  38.033  13.057
55400W        W15145  18.731  23.509  10.088
55401W        W15146  39.392  31.125  11.905
55402W        W15147  13.116  19.059  14.416
55403W        W15148  28.056  31.921  11.490
55404W        W15149  21.145  34.540   4.294
55405W        W15150   0.894  23.177   3.655
55406W        W15151  32.601  28.626   1.229
55407W        W15152   4.795  19.685   3.224
55408W        W15153  27.969  32.514   2.697
55409W        W15154   6.776  27.658   2.747
55410W        W15155  39.871  34.558   3.857
55411W        W15156  29.124  10.831  14.425
55412W        W15157  42.915   0.954   5.161
55413W        W15158  42.805  41.538   0.789
55414W        W15159  37.968  33.448   9.933
55415W        W15160  26.609  35.944   4.244
55416W        W15161   0.322  33.473   1.386
55417W        W15162  18.185   9.255  12.572
55418W        W15163  27.677  21.062  12.484
55419W        W15164  31.586  29.508  12.912
55420W        W15165  19.148   3.893   0.387
55421W        W15166  34.090   7.752   1.264
55422W        W15167  36.435  27.534   4.332
55423W        W15168  16.195  33.015   5.089
55424W        W15169   3.835  25.154  14.464
55425W        W15170  26.005  33.573  11.522
55426W        W15171   1.965   1.895   4.344
55427W        W15172  32.566  33.418  13.879
55428W        W15173   6.419  43.920   0.822
55429W        W15174  20.548  28.042  11.055
55430W        W15175  41.500  22.738   4.187
55431W        W15176  31.916  39.840  10.619
55432W        W15177  27.569  24.976   3.755
55433W        W15178   9.153   8.400  10.493
55434W        W15179  26.464  40.974  11.093
55435W        W15180  15.089   8.180  11.066
55436W        W15181  27.583  34.911   4.348
55437W        W15182  16.649  33.589  14.927
55438W        W15183  31.979  22.114   4.125
55439W        W15184  28.483  26.472   4.830
55440W        W15185  29.099  17.685  14.349
55441W        W15186   1.956  27.614  11.499
55442W        W15187  18.738   6.710   0.738
55443W        W15188  42.440  24.161  13.347
55444W        W15189   6.821   7.309  14.897
55445W        W15190  39.826  19.736  11.612
55446W        W15191  23.564  38.013   1.741
55447W        W15192   0.401  11.335  14.318
55448W        W15193  28.019   9.170  10.415
55449W        W15194  31.115  23.502   4.297
55450W        W15195  10.274  39.496   4.655
55451W        W15196   2.344   6.741  11.941
55452W        W15197   1.409  12.857  12.934
55453W        W15198  36.561  24.624   0.765
55454W        W15199   8.777  17.096  14.315
55455W        W15200   1.291  44.843  12.512
55456W        W15201  34.506  43.323  11.496
55457W        W15202  41.866  30.156   3.658
55458W        W15203   1.908  27.019  13.993
55459W        W15204  37.510  34.465   2.833
55460W        W15205  31.568  32.039  13.431
55461W        W15206   9.295  44.441  14.463
55462W        W15207   7.883   0.787   3.847
55463W        W15208  19.706  41.476  11.950
55464W        W15209  26.539  25.664  13.940
55465W        W15210  42.989   5.755   4.245
55466W        W15211  36.466  21.079   1.381
55467W        W15212   7.723   9.731  14.818
55468W        W15213  41.894  27.676   4.124
55469W        W15214  43.427  22.565   0.317
55470W        W15215  17.160  40.344   0.765
55471W        W15216  35.981  22.527  10.931
55472W        W15217   2.823  27.482   0.867
55473W        W15218   9.740  10.839   2.242
55474W        W15219  34.494  37.031   2.684
55475W        W15220  10.260   0.372  14.447
55476W        W15221  20.655   6.822   4.662
55477W        W15222  14.647   2.350   4.696
55478W        W15223  31.116   5.930  10.482
55479W        W15224  16.099  26.118   1.328
55480W        W15225  30.971  20.526   2.730
55481W        W15226  27.106  34.563   5.228
55482W        W15227  39.344  12.315  13.483
55483W        W15228  19.078  41.461   4.204
55484W        W15229  19.139   6.731  12.016
55485W        W15230  41.451  38.423  14.950
55486W        W15231  26.173  10.765  13.817
55487W        W15232   9.372  41.044  11.956
55488W        W15233  15.236   6.891   0.858
55489W        W15234  24.174  33.009  14.946
55490W        W15235  14.610   9.325   1.806
55491W        W15236  21.233  19.585   2.760
55492W        W15237  39.047  29.611  13.922
55493W        W15238  25.162  27.471   0.808
55494W        W15239  38.968  31.980   5.152
55495W        W15240  13.131  23.534   5.204
55496W        W15241  25.692   9.227   4.759
55497W        W15242   7.188   7.817  13.809
55498W        W15243  28.159  15.154  10.896
55499W        W15244  36.364  10.311   3.842
55500W        W15245  27.988  33.524   4.262
55501W        W15246  19.110  18.149  12.348
55502W        W15247  27.568  21.069  14.313
55503W        W15248  17.717  14.654  12.568
55504W        W15249  35.049  15.254  13.405
55505W        W15250  28.465  11.679  10.428
55506W        W15251  28.473  15.304  10.571
55507W        W15252  22.598  12.651  10.968
55508W        W15253   0.407  41.846   1.713
55509W        W15254  35.948   4.871  13.828
55510W        W15255   8.187  33.880   1.912
55511W        W15256  35.528  44.871  11.376
55512W        W15257   4.771  10.632   1.293
55513W        W15258   7.344  43.012   3.657
55514W        W15259  22.104  29.599  14.982
55515W        W15260  18.197  25.159   0.787
55516W        W15261   5.911  37.352   4.219
55517W        W15262  14.339  28.930   2.869
55518W        W15263  26.465  24.723  11.099
55519W        W15264  19.104  34.537   0.382
55520W        W15265  11.698   6.324   0.419
55521W        W15266   5.821  38.416   3.152
55522W        W15267  20.191  43.345  12.891
55523W        W15268   1.244   2.876  12.528
55524W        W15269  35.985  33.610  11.910
55525W        W15270   5.357  26.645  10.599
55526W        W15271  19.594  16.798   0.727
55527W        W15272  10.301  42.310  11.530
55528W        W15273  34.102  16.697  13.409
55529W        W15274  19.728  14.822   3.834
55530W        W15275  26.492  38.949  13.925
55531W        W15276   9.325  32.576   1.263
55532W        W15277  17.642  24.510  10.998
55533W        W15278   8.676  20.537  11.536
55534W        W15279   6.751  37.849  11.856
55535W        W15280  31.492  44.820  11.537
55536W        W15281  41.880  34.446   4.273
55537W        W15282  38.349   2.865  10.612
55538W        W15283  44.999  17.801   4.744
55539W        W15284  18.235  20.253   2.695
55540W        W15285  17.248  28.117  10.034
55541W        W15286  33.034  23.509   1.812
55542W        W15287  12.677   9.669  14.338
55543W        W15288  11.850  16.081  14.352
55544W        W15289  13.339   6.365   2.350
55545W        W15290  16.300   1.942  14.852
55546W        W15291  31.624  13.310   0.293
55547W        W15292  26.629   7.707   3.694
55548W        W15293  26.993  15.823   1.328
55549W        W15294  16.623  44.826  11.452
55550W        W15295   3.745  21.613  13.828
55551W        W15296   5.363  13.281  13.307
55552W        W15297  21.708   3.248  14.873
55553W        W15298  36.928  25.540  13.902
55554W        W15299  12.140  41.866  10.453
55555W        W15300   6.192  19.174  13.017
55556W        W15301  44.753  34.056  10.589
55557W        W15302  18.727  33.551  11.020
55558W        W15303  17.155  31.601  13.416
55559W        W15304  21.534  33.117   4.821
55560W        W15305  19.653  34.912   0.245
55561W        W15306  15.279  41.017  10.905
55562W        W15307  39.339  39.834   3.312
55563W        W15308  39.358  44.355   1.697
55564W        W15309  43.793   7.209  12.075
55565W        W15310  26.203  12.168   1.313
55566W        W15311  26.695   7.379   1.886
55567W        W15312  36.919  20.713   9.566
55568W        W15313   4.268   2.900  12.568
55569W        W15314  24.033  26.144   4.279
55570W        W15315  39.444  11.651   4.346
55571W        W15316  36.952   1.293  12.436
55572W        W15317   9.771  26.540  13.437
55573W        W15318  30.568  44.839  10.433
55574W        W15319  35.404   0.392  14.355
55575W        W15320  43.300  12.745  10.471
55576W        W15321  14.758  25.094   0.925
55577W        W15322  29.105   8.816   1.798
55578W        W15323  10.652  32.524  11.969
55579W        W15324  36.485   0.324   3.355
55580W        W15325  30.979   1.281  14.467
55581W        W15326  21.138  40.835   0.928
55582W        W15327  44.405  26.038  14.474
55583W        W15328  44.897  40.549  13.404
55584W        W15329   8.287  38.557   3.699
55585W        W15330  27.507  12.180   1.272
55586W        W15331  44.873   8.709  13.836
55587W        W15332  31.134  37.543  11.097
55588W        W15333  16.761  33.416   2.401
55589W        W15334  40.833   9.282   2.341
55590W        W15335  27.945  41.417  12.980
55591W        W15336  26.488  25.646   2.729
55592W        W15337   1.384  30.995   5.157
55593W        W15338   3.413  42.832  12.421
55594W        W15339  25.564   4.210  13.457
55595W        W15340  29.532  23.521   4.118
55596W        W15341  24.503  31.053   3.355
55597W        W15342  12.272  20.758   4.222
55598W        W15343  36.431   8.840  11.122
55599W        W15344   0.301  27.104  14.932
55600W        W15345  23.078  10.723   4.256
55601W        W15346  41.401  14.227   1.339
55602W        W15347  33.578  30.094  12.827
55603W        W15348  28.490  17.695  13.316
55604W        W15349  17.658  13.160  11.386
55605W        W15350  44.828   1.272   4.193
55606W        W15351  17.148  43.967   2.409
55607W        W15352  20.632  16.645  11.088
55608W        W15353  26.170  14.735  11.042
55609W        W15354  43.954  36.547   3.359
55610W        W15355  13.803   9.316   1.723
55611W        W15356  11.766   7.723   1.389
55612W        W15357  22.020  20.524   2.396
55613W        W15358  18.595  25.163   5.181
55614W        W15359  11.338  10.821   2.335
55615W        W15360  37.952  38.856  11.590
55616W        W15361  23.083   8.218   4.777
55617W        W15362  43.019  25.552  12.085
55618W        W15363  31.904  27.462   1.729
55619W        W15364  30.526  32.065   0.893
55620W        W15365  36.901  38.326  12.962
55621W        W15366  25.032   8.207   0.917
55622W        W15367  24.213  34.917   4.176
55623W        W15368  15.163  38.883  10.482
55624W        W15369  36.896  24.680  14.275
55625W        W15370  41.829  31.994   3.180
55626W        W15371  40.411  40.529   3.211
55627W        W15372   4.268  37.469  10.469
55628W        W15373  24.527  24.524  14.912
55629W        W15374  25.153  30.631   1.396
55630W        W15375  11.229  17.186  12.839
55631W        W15376  42.420  19.600  13.348
55632W        W15377  20.740   2.452   3.798
55633W        W15378  22.566   7.285  12.458
55634W        W15379  41.926   5.888   0.478
55635W        W15380  32.420   5.708   2.352
55636W        W15381  44.496  44.345  14.339
55637W        W15382   0.965  25.218   5.255
55638W        W15383  25.480  43.823   3.247
55639W        W15384  31.489  14.626   3.768
55640W        W15385  15.711  19.194   3.841
55641W        W15386  10.763  10.808   2.754
55642W        W15387  20.172  27.571  13.983
55643W        W15388  17.093  17.784   3.201
55644W        W15389  29.569  26.525  10.921
55645W        W15390  27.649   7.666   4.332
55646W        W15391   7.414  13.109   0.394
55647W        W15392  20.632  12.309   1.806
55648W        W15393  21.753  18.232   2.230
55649W        W15394   4.210   4.291  12.982
55650W        W15395  24.597  42.898   2.333
55651W        W15396   8.302  41.359  14.281
55652W        W15397   3.740  26.613  13.526
55653W        W15398  18.152  34.448   0.403
55654W        W15399  34.558  30.431   2.668
55655W        W15400   0.876  27.021   1.227
55656W        W15401  32.969   2.353   1.866
55657W        W15402   1.327  38.915   5.795
55658W        W15403  31.124  30.036   0.344
55659W        W15404  22.114  20.626   4.690
55660W        W15405   3.356  24.507   1.873
55661W        W15406   4.740  38.905   2.721
55662W        W15407  18.714  21.157   3.338
55663W        W15408  14.323  10.663  14.505
55664W        W15409  37.044  10.219   3.829
55665W        W15410  32.530  30.083   1.817
55666W        W15411  23.163  32.481   1.217
55667W        W15412  37.467  40.977  11.972
55668W        W15413  34.879   6.853  14.431
55669W        W15414  19.775  15.631  14.979
55670W        W15415  26.084  21.656  12.340
55671W        W15416  29.645  17.611   0.745
55672W        W15417   1.272  31.506   0.755
55673W        W15418  28.528   2.435  13.970
55674W        W15419   4.742  41.036  13.509
55675W        W15420  39.457   2.804   0.365
55676W        W15421  31.011  17.593   0.434
55677W        W15422   6.328   8.364  12.980
55678W        W15423   0.276   2.318   4.279
55679W        W15424  15.298  40.423  10.581
55680W        W15425  18.547  23.170   2.325
55681W        W15426   9.672  13.241   3.171
55682W        W15427  24.163   1.885   0.360
55683W        W15428  27.993   9.762   2.718
55684W        W15429  27.568  35.907  10.612
55685W        W15430  44.474  26.662   3.228
55686W        W15431  27.118  14.616  11.474
55687W        W15432  36.493   4.827   1.763
55688W        W15433  10.253  26.696  12.439
55689W        W15434  40.907  33.094  14.348
55690W        W15435  41.312  19.712   4.183
55691W        W15436   7.676  19.611  14.758
55692W        W15437  35.475  21.668   1.296
55693W        W15438  17.273   1.934  12.060
55694W        W15439  37.506   4.335  13.999
55695W        W15440   3.277   3.855   0.934
55696W        W15441  39.338   7.220   3.322
55697W        W15442  39.839   2.319   4.214
55698W        W15443  10.157  33.460   1.770
55699W        W15444  40.441  33.003   3.221
55700W        W15445  43.871  33.404   2.682
55701W        W15446  26.179  27.069  10.947
55702W        W15447  15.132  23.101   2.673
55703W        W15448   9.782   9.663  12.502
55704W        W15449  36.919  42.400   2.832
55705W        W15450  33.001  31.500   0.242
55706W        W15451  30.595   8.377  10.962
55707W        W15452  28.179  31.949  12.911
55708W        W15453  37.912  21.588  11.569
55709W        W15454  41.470  14.600   1.216
55710W        W15455  42.478   6.386   4.766
55711W        W15456  15.196  16.283   2.311
55712W        W15457  33.525  15.285  10.417
55713W        W15458  23.683  10.837  11.541
55714W        W15459  37.468   8.170  10.451
55715W        W15460   5.341   1.825  12.852
55716W        W15461  34.877  17.718   3.301
55717W        W15462  13.325  16.749  11.993
55718W        W15463   0.813  24.122   2.413
55719W        W15464   5.250  17.222   3.234
55720W        W15465   6.278   4.872   3.772
55721W        W15466  15.227  29.936   1.708
55722W        W15467  15.596   7.781  12.035
55723W        W15468  36.971  20.659  10.408
55724W        W15469   4.771  23.987  14.411
55725W        W15470  41.518  32.014   1.268
55726W        W15471  15.285  39.890  12.941
55727W        W15472  44.941  43.974  14.985
55728W        W15473  44.278  29.480  13.367
55729W        W15474  21.719   9.368   3.284
55730W        W15475  35.468  22.586   2.882
55731W        W15476  15.327  41.515  14.907
55732W        W15477  13.729   9.363  11.386
55733W        W15478  22.692  40.899   4.813
55734W        W15479  25.697   9.195  14.004
55735W        W15480  24.184  29.941   0.453
55736W        W15481   8.864   4.317   2.785
55737W        W15482  14.601   0.417   2.191
55738W        W15483  32.138  10.344  13.934
55739W        W15484  42.863   2.401   1.439
55740W        W15485  29.028  20.633  14.874
55741W        W15486  16.617   5.266   4.819
55742W        W15487  11.311  15.614   0.321
55743W        W15488  25.712   1.292   9.531
55744W        W15489  39.920  39.936  10.574
55745W        W15490   9.805  15.126  14.962
55746W        W15491   7.752  29.948  13.015
55747W        W15492   6.301  31.027  14.464
55748W        W15493  17.676  26.669   4.697
55749W        W15494  34.929  14.600  11.045
55750W        W15495  10.759   5.281   0.758
55751W        W15496  26.208  26.478  12.431
55752W        W15497  28.537  34.957  12.840
55753W        W15498  15.323  26.699  10.518
55754W        W15499  38.018  27.661   4.260
55755W        W15500  34.103  14.592   1.332
55756W        W15501  18.684  44.856   0.785
55757W        W15502  18.224  44.451   2.843
55758W        W15503  15.685  43.482   0.330
55759W        W15504  23.199   8.684   3.181
55760W        W15505   0.429  43.016  12.006
55761W        W15506  34.373  15.223   1.715
55762W        W15507   4.792  18.222  11.865
55763W        W15508   9.255  38.568  14.362
55764W        W15509  30.120  30.066   3.224
55765W        W15510  28.002  16.620   0.325
55766W        W15511  41.912   1.338  10.505
55767W        W15512  27.193  40.874   0.759
55768W        W15513  42.309  24.534  12.082
55769W        W15514  43.918  12.856  14.959
55770W        W15515  36.950  14.733  12.346
55771W        W15516   5.379  37.402  14.806
55772W        W15517  30.987  19.565  13.002
55773W        W15518  38.929  43.817  14.925
55774W        W15519  14.811  17.067  13.479
55775W        W15520  31.569  26.178   2.356
55776W        W15521  12.181  18.548  12.494
55777W        W15522   6.764  23.515   0.416
55778W        W15523   1.327  29.524   3.199
55779W        W15524  40.867  44.420   1.878
55780W        W15525  10.148   1.330  13.469
55781W        W15526  17.204   6.764  13.391
55782W        W15527  24.657   5.723   4.179
55783W        W15528  31.517  44.764  11.945
55784W        W15529  24.134   1.397   9.508
55785W        W15530  14.245  34.038  10.471
55786W        W15531  17.064  10.806  11.049
55787W        W15532  38.470  30.416  13.013
55788W        W15533   6.403  29.140  13.447
55789W        W15534  12.168  25.682   1.765
55790W        W15535  26.022   5.294  14.027
55791W        W15536  10.844  33.545   3.188
55792W        W15537   7.219  32.637  12.388
55793W        W15538   0.805  36.019   4.837
55794W        W15539  41.875   1.424  14.018
55795W        W15540  33.570  18.116  11.392
55796W        W15541  38.982  26.660  14.494
55797W        W15542  23.196  27.519   0.904
55798W        W15543   5.828  10.824  10.407
55799W        W15544  41.793  23.553  12.350
55800W        W15545  20.738  20.148   4.638
55801W        W15546  44.499  13.314  13.372
55802W        W15547  27.036   0.875   0.954
55803W        W15548  22.519  22.514   3.683
55804W        W15549  14.630  13.191   0.799
55805W        W15550  44.274  44.302   4.117
55806W        W15551  15.245   9.349  14.880
55807W        W15552   1.376  22.216  12.486
55808W        W15553  15.291  38.942   1.721
55809W        W15554  43.856  10.196   9.983
55810W        W15555  32.014  41.425   4.808
55811W        W15556  14.759  25.216   2.859
55812W        W15557  39.983  34.425  12.447
55813W        W15558  14.763  29.099  14.876
55814W        W15559  32.441  34.057   3.767
55815W        W15560  35.443  10.300   0.313
55816W        W15561  13.602  19.119  10.572
55817W        W15562   3.729  38.962   2.393
55818W        W15563  27.601  14.770  13.308
55819W        W15564  13.630  37.959   9.936
55820W        W15565  20.244  15.814  12.028
55821W        W15566   3.336  20.631   0.914
55822W        W15567   3.802  19.670   4.253
55823W        W15568  26.143  13.635  12.468
55824W        W15569   6.400  29.967  13.843
55825W        W15570  10.804  41.876  13.831
55826W        W15571  42.879  42.482   0.796
55827W        W15572   2.793  43.815  12.555
55828W        W15573  20.572  33.876  12.823
55829W        W15574  44.400   7.867   0.275
55830W        W15575  15.760  23.992   4.135
55831W        W15576  26.556  44.370   0.305
55832W        W15577  22.671  12.663   2.370
55833W        W15578  27.486   3.911  13.840
55834W        W15579  42.991   6.891   1.242
55835W        W15580  31.588   5.353  11.538
55836W        W15581  32.121  40.896   4.809
55837W        W15582  23.692  29.653  12.048
55838W        W15583  21.134  11.317  11.115
55839W        W15584   2.951  22.561   0.385
55840W        W15585  17.678  37.913  10.573
55841W        W15586  44.429  42.316   1.826
55842W        W15587  12.722  19.551  11.055
55843W        W15588  44.011  35.859  12.541
55844W        W15589  27.993  36.973  12.980
55845W        W15590  23.553   0.419  12.864
55846W        W15591   6.342  14.679   0.861
55847W        W15592  38.946   2.956  14.825
55848W        W15593  33.099  14.778  13.001
55849W        W15594  22.145   3.364   1.435
55850W        W15595  28.558  19.645   2.887
55851W        W15596  17.724   0.860   4.281
55852W        W15597  42.442  25.158   2.264
55853W        W15598   7.325   0.865   0.944
55854W        W15599  44.947  32.456   5.644
55855W        W15600   8.827  21.115  12.384
55856W        W15601   4.724   4.943   4.308
55857W        W15602   0.964  12.126   2.245
55858W        W15603  34.553  41.908   0.365
55859W        W15604  34.988  42.484   4.813
55860W        W15605  44.838  36.028  11.434
55861W        W15606   5.361  36.354  13.903
55862W        W15607  19.074  23.050   2.842
55863W        W15608   7.778  20.123   2.682
55864W        W15609  27.054  29.595   3.855
55865W        W15610   0.973  37.390  12.953
55866W        W15611  42.879  19.677   5.090
55867W        W15612  10.302  18.282   2.201
55868W        W15613  22.046  19.703   1.438
55869W        W15614  32.620  11.157   3.750
55870W        W15615  22.709   8.796  12.561
55871W        W15616   5.216  36.017   1.315
55872W        W15617  42.292   9.884  13.488
55873W        W15618  41.987   5.878  12.855
55874W        W15619  40.797  13.730   3.276
55875W        W15620  38.330   3.256   2.787
55876W        W15621  15.641   3.952   1.355
55877W        W15622   9.701  10.349   0.434
55878W        W15623  31.898  22.678   0.317
55879W        W15624  40.346   8.175  10.591
55880W        W15625   5.397   1.903   0.831
55881W        W15626  15.625  44.391  11.864
55882W        W15627  28.012   7.676  10.888
55883W        W15628   1.962  30.155   1.407
55884W        W15629  27.954   1.893   5.312
55885W        W15630  16.789  42.935   2.731
55886W        W15631  13.107  15.303   3.318
55887W        W15632   4.330  14.340   4.622
55888W        W15633  13.222   9.325  11.016
55889W        W15634  19.588  44.916  14.802
55890W        W15635  25.115  26.599  11.476
55891W        W15636  23.174  41.510   3.820
55892W        W15637   1.353  32.036   1.751
55893W        W15638  25.538  22.516  11.012
55894W        W15639  42.510   0.797   0.356
55895W        W15640  12.218  37.486   0.898
55896W        W15641   3.362  22.548  11.058
55897W        W15642  12.266  28.488  10.587
55898W        W15643  41.431  33.129   2.384
55899W        W15644  30.640   0.931  14.471
55900W        W15645   4.812  34.447   4.298
55901W        W15646   9.309  16.187   2.829
55902W        W15647  18.280  12.790  12.945
55903W        W15648   4.448  28.151  13.878
55904W        W15649  22.167  12.121  10.470
55905W        W15650  23.715  41.892  11.976
55906W        W15651  22.040  27.981   3.183
55907W        W15652  20.614  13.311  10.498
55908W        W15653  15.085   5.202  13.919
55909W        W15654  17.256  27.074   1.382
55910W        W15655  37.912  33.558  14.451
55911W        W15656  17.083  18.755  14.793
55912W        W15657  25.131   0.373   1.393
55913W        W15658  38.451  19.642   4.226
55914W        W15659  30.528  42.406  13.511
55915W        W15660  20.638  40.330   4.316
55916W        W15661  26.185   3.903  14.479
55917W        W15662   4.261  41.788  11.114
55918W        W15663   2.368  10.288   5.120
55919W        W15664   9.248  15.168  14.469
55920W        W15665  36.461  17.748   2.229
55921W        W15666   5.353  41.484   4.262
55922W        W15667  23.493  25.983   3.208
55923W        W15668   6.273  33.587   0.822
55924W        W15669  41.880   2.949  14.009
55925W        W15670   4.357  35.932  10.410
55926W        W15671  13.700  12.145  14.442
55927W        W15672  36.863  39.929   3.681
55928W        W15673  14.589   6.754  12.088
55929W        W15674  28.621  32.488   3.376
55930W        W15675  31.911  12.330  11.932
55931W        W15676  11.738  23.602   0.481
55932W        W15677  29.549  12.257  12.440
55933W        W15678   0.836  33.479  11.025
55934W        W15679   2.423  27.998  12.012
55935W        W15680  38.479  27.166  14.511
55936W        W15681  16.177  15.223  12.861
55937W        W15682  39.424  19.220   0.732
55938W        W15683  43.795  20.716  13.519
55939W        W15684  38.931  14.592  11.549
55940W        W15685   6.787  27.117   2.207
55941W        W15686  11.758  41.534  11.071
55942W        W15687  26.992  27.006  12.472
55943W        W15688  36.491  41.401  12.054
55944W        W15689   9.361  18.745   1.370
55945W        W15690  20.204  32.535  11.424
55946W        W15691  12.766  20.073   1.795
55947W        W15692  42.509  35.598  10.444
55948W        W15693  39.996  26.461  13.511
55949W        W15694  10.698  14.294   4.762
55950W        W15695   4.364  27.599   4.642
55951W        W15696  37.847   7.411   2.839
55952W        W15697   0.873  20.219   3.333
55953W        W15698  30.543  27.523   9.445
55954W        W15699  36.542  29.645   0.250
55955W        W15700   9.213  44.307  14.972
55956W        W15701   8.322  36.589  12.482
55957W        W15702  39.039  13.254   0.926
55958W        W15703  18.243  30.521  10.966
55959W        W15704   1.279  36.482   0.406
55960W        W15705  38.930  12.829  12.020
55961W        W15706  17.766  43.984   4.607
55962W        W15707  19.677  35.558  14.884
55963W        W15708  36.938  27.686   0.825
55964W        W15709   7.257  29.513   3.238
55965W        W15710  33.022  41.303   1.221
55966W        W15711  41.860  40.330  12.868
55967W        W15712   8.861  12.820   0.367
55968W        W15713  31.099  20.107  11.603
55969W        W15714   6.282  14.173   5.123
55970W        W15715  14.616  15.120  11.048
55971W        W15716  38.512   4.897  11.023
55972W        W15717  19.549  24.138  11.055
55973W        W15718  36.409  16.319  10.996
55974W        W15719   3.410  39.501   2.304
55975W        W15720  40.327   3.789   4.665
55976W        W15721  17.782  19.278   4.284
55977W        W15722   4.901  10.227   2.343
55978W        W15723   4.875  24.519   4.182
55979W        W15724  20.755  38.363  14.807
55980W        W15725   4.904   0.357   3.647
55981W        W15726  17.679   8.849   0.286
55982W        W15727  13.326   1.747   4.687
55983W        W15728  29.641   3.828   4.287
55984W        W15729   9.752  13.122   0.805
55985W        W15730  39.947   4.875  12.342
55986W        W15731  18.660  18.164  12.909
55987W        W15732  10.724   5.255   1.790
55988W        W15733  30.423  28.562  12.903
55989W        W15734   7.176  29.488   4.244
55990W        W15735  39.320  36.377   0.945
55991W        W15736  38.020  35.577  13.392
55992W        W15737  32.022  44.464   4.739
55993W        W15738  34.477  12.175  14.434
55994W        W15739   3.900  28.605  11.372
55995W        W15740  18.589  28.505  14.416
55996W        W15741   3.764  44.350   1.895
55997W        W15742  42.377  36.525   0.910
55998W        W15743  37.999  39.332  11.606
55999W        W15744   6.314  25.093  12.088
56000W        W15745   2.936  37.050   0.364
56001W        W15746   2.845  15.264  11.569
56002W        W15747   4.791   8.287   1.231
56003W        W15748  19.258   9.376   4.177
56004W        W15749  12.735  22.717   0.922
56005W        W15750  43.911  19.747   1.339
56006W        W15751  30.593  41.362   0.319
56007W        W15752  12.346  10.660  13.382
56008W        W15753  17.285  25.645   1.436
56009W        W15754  35.853  10.166  13.938
56010W        W15755   8.341  27.089   2.799
56011W        W15756  43.914  10.829  10.456
56012W        W15757  32.536  20.731   1.393
56013W        W15758   9.887  43.961  13.030
56014W        W15759  19.579  16.293  13.893
56015W        W15760   5.929  27.473   0.373
56016W        W15761  24.717  39.370  11.894
56017W        W15762  27.969  36.553   3.653
56018W        W15763  38.065  13.243   3.365
56019W        W15764  36.358  36.562   3.785
56020W        W15765  34.863   7.848   4.115
56021W        W15766  34.580  10.709  13.911
56022W        W15767   6.898   0.351  12.037
56023W        W15768   8.230  10.763   3.691
56024W        W15769  29.443  38.542  13.381
56025W        W15770  42.801  34.113  11.043
56026W        W15771  44.944  11.673   0.328
56027W        W15772  16.210   5.340  14.449
56028W        W15773  35.864  31.406  11.458
56029W        W15774  14.827  42.361  14.369
56030W        W15775   0.829   6.691  11.868
56031W        W15776   1.889  23.064  12.918
56032W        W15777  31.546  39.065  10.429
56033W        W15778  43.771  42.791  14.826
56034W        W15779  41.518  19.712  12.991
56035W        W15780  42.919   2.767   4.238
56036W        W15781  21.196  26.039   1.774
56037W        W15782   4.829  24.601  12.469
56038W        W15783  38.976   9.885  11.429
56039W        W15784  25.589  30.945   4.673
56040W        W15785  41.828   9.643   1.874
56041W        W15786  19.090  39.538  11.528
56042W        W15787  12.284  20.539  11.476
56043W        W15788   3.233  38.552   3.147
56044W        W15789  11.277  24.603   0.773
56045W        W15790  16.751  28.947  10.981
56046W        W15791  34.487  14.811  13.888
56047W        W15792  38.900   5.289   0.957
56048W        W15793  26.050  12.732  13.834
56049W        W15794  26.611   0.846   1.768
56050W        W15795  36.848  26.153   0.802
56051W        W15796  38.428   9.699  11.535
56052W        W15797  37.051  20.093   2.208
56053W        W15798  13.686  43.276  10.642
56054W        W15799  36.953   9.736  11.560
56055W        W15800  32.124  42.944   4.170
56056W        W15801   8.261  17.786  10.590
56057W        W15802   1.255  41.424  12.935
56058W        W15803  22.162  26.970   3.757
56059W        W15804   7.401  44.760   3.149
56060W        W15805  40.349  18.073  13.032
56061W        W15806   1.365  28.571   3.826
56062W        W15807  38.835  33.113  13.990
56063W        W15808  30.464  21.158  11.945
56064W        W15809  32.559  44.319  14.972
56065W        W15810  38.469  38.945   1.801
56066W        W15811   4.765  43.292   2.237
56067W        W15812  15.720   9.652   0.261
56068W        W15813  31.146  14.203  12.094
56069W        W15814  43.952  20.124   3.723
56070W        W15815  12.304  37.885  11.105
56071W        W15816  39.835  17.672  11.895
56072W        W15817  29.440  12.833   2.372
56073W        W15818  36.081  17.586  13.531
56074W        W15819  11.373  41.469  12.566
56075W        W15820   4.878  19.271   0.937
56076W        W15821   6.341  30.423   1.886
56077W        W15822   1.326  25.048  14.827
56078W        W15823  14.253  36.020  12.897
56079W        W15824   0.768  28.622  14.901
56080W        W15825  15.745  32.975   5.273
56081W        W15826  11.822  23.578   2.397
56082W        W15827   7.375  11.837  14.434
56083W        W15828  23.019  41.940  13.935
56084W        W15829  36.550   3.895  10.442
56085W        W15830  18.292  11.227   3.772
56086W        W15831  35.517  43.279  14.455
56087W        W15832  34.079  11.719  10.922
56088W        W15833  35.888  22.018  12.508
56089W        W15834  40.045  26.591   3.731
56090W        W15835  42.998  12.266  10.493
56091W        W15836  32.434   5.886   0.954
56092W        W15837  29.553   1.432  14.996
56093W        W15838  16.722  28.485   2.256
56094W        W15839  29.110   0.744  12.835
56095W        W15840  13.807  41.893  10.964
56096W        W15841  17.743  21.176   2.687
56097W        W15842  28.659  31.561  13.021
56098W        W15843  11.344  24.188   1.320
56099W        W15844  20.176  37.508  13.536
56100W        W15845  14.323  10.237  13.050
56101W        W15846  21.245  41.009   3.217
56102W        W15847  44.480  20.032   0.467
56103W        W15848  25.196  22.201   4.263
56104W        W15849  37.022   8.251   2.713
56105W        W15850  19.284  27.014  11.413
56106W        W15851  41.363  16.704  12.428
56107W        W15852   5.414  19.215   5.765
56108W        W15853  41.850   7.253   0.961
56109W        W15854   4.872  32.042  11.476
56110W        W15855   2.947  30.946  12.913
56111W        W15856   0.773  44.313  11.060
56112W        W15857  12.149   4.828  12.383
56113W        W15858  34.058  16.775  11.897
56114W        W15859  31.116  40.816  13.470
56115W        W15860   6.798  21.065  12.854
56116W        W15861  33.883  16.641  10.984
56117W        W15862  23.660   5.382   3.650
56118W        W15863   8.801  23.220   1.925
56119W        W15864  37.030  35.475  13.408
56120W        W15865   1.970  21.679  14.831
56121W        W15866   8.239   3.382  11.513
56122W        W15867  32.126  28.462   5.720
56123W        W15868  39.028  28.563  13.330
56124W        W15869  10.341  38.532   2.671
56125W        W15870   0.363  39.944   3.275
56126W        W15871   0.475  44.422   2.884
56127W        W15872  14.120  23.563   0.946
56128W        W15873  41.506  12.807  10.537
56129W        W15874  33.466  39.006   0.393
56130W        W15875  36.957  29.973  12.483
56131W        W15876  27.458  16.634   4.166
56132W        W15877  16.131  41.336  13.803
56133W        W15878   7.294  28.473   1.279
56134W        W15879   3.426  43.401   1.402
56135W        W15880   5.311   9.309   2.856
56136W        W15881  23.732  33.952  13.843
56137W        W15882   3.346  20.635  11.372
56138W        W15883  24.559  18.601  11.897
56139W        W15884  13.732  16.233  13.975
56140W        W15885  11.783  21.192   1.732
56141W        W15886  27.686   2.468   3.158
56142W        W15887  23.707   2.257  13.903
56143W        W15888  29.576  18.784   3.242
56144W        W15889   0.943  43.955  11.947
56145W        W15890  35.922  28.178   0.267
56146W        W15891   4.444  14.697  12.511
56147W        W15892  41.316   0.878   4.292
56148W        W15893  24.675  42.837  12.507
56149W        W15894  44.316  35.874   4.203
56150W        W15895  22.739  42.919   3.717
56151W        W15896  22.615  35.407   4.355
56152W        W15897  31.989  30.606   0.267
56153W        W15898   9.732  28.600   0.256
56154W        W15899  12.225  19.585   1.325
56155W        W15900   0.446  24.180  14.396
56156W        W15901  44.478  21.240   3.747
56157W        W15902  39.423   4.252   2.291
56158W        W15903  34.072   9.277  12.070
56159W        W15904  22.018   4.734  14.344
56160W        W15905  12.359  28.964  12.937
56161W        W15906  12.227  44.320  13.432
56162W        W15907  17.188   0.362  14.354
56163W        W15908   0.463  42.860   0.303
56164W        W15909   6.882  33.968   4.151
56165W        W15910   2.845  21.711   2.772
56166W        W15911  11.856  18.107   4.193
56167W        W15912   4.788  44.978  11.000
56168W        W15913  42.805  15.772  11.539
56169W        W15914  30.945  35.903   1.866
56170W        W15915  36.076  13.148  10.417
56171W        W15916   1.963  36.921  14.015
56172W        W15917   6.912  36.033   4.765
56173W        W15918  37.571   5.424   4.819
56174W        W15919  32.398  40.910  10.986
56175W        W15920  22.526  25.145  11.925
56176W        W15921  16.592  43.359   0.471
56177W        W15922   3.712   4.207   0.463
56178W        W15923  30.980   5.822   1.241
56179W        W15924   1.283  35.453   0.817
56180W        W15925   9.242   0.415   0.920
56181W        W15926  15.604  26.141   1.906
56182W        W15927  38.963  21.689   2.291
56183W        W15928  25.522   0.924  13.929
56184W        W15929  31.905  15.289  12.867
56185W        W15930  44.827  44.390   3.180
56186W        W15931  23.083  23.072   1.270
56187W        W15932  28.588  42.807   1.312
56188W        W15933  23.617  31.140   1.729
56189W        W15934  18.067  15.157   2.779
56190W        W15935  15.815   1.417   2.383
56191W        W15936  41.532  16.673   2.212
56192W        W15937  29.112  25.491  11.502
56193W        W15938  42.298  22.212  12.923
56194W        W15939  30.550  38.999  12.828
56195W        W15940  39.366  33.573   4.752
56196W        W15941  16.138  34.951   0.326
56197W        W15942  35.941  31.996   0.919
56198W        W15943  33.997  35.449  11.873
56199W        W15944  37.512  25.498   2.677
56200W        W15945  18.157  11.829  12.425
56201W        W15946  12.833  39.845  12.522
56202W        W15947  23.503   3.856   4.273
56203W        W15948   3.458  18.292   2.210
56204W        W15949  16.131  40.523   4.162
56205W        W15950  11.827  43.453   4.816
56206W        W15951  35.436  39.491   0.291
56207W        W15952  20.528   3.722  11.461
56208W        W15953  12.623  22.536  11.423
56209W        W15954  22.030  14.776   3.742
56210W        W15955   8.175  20.170  12.963
56211W        W15956  28.956   4.439  10.567
56212W        W15957  40.493  36.553  10.938
56213W        W15958  10.313  38.955   3.647
56214W        W15959   7.295   0.789   1.250
56215W        W15960  24.009  39.945   2.728
56216W        W15961  44.797  21.117   0.358
56217W        W15962  37.899  42.293  12.935
56218W        W15963  12.275  10.708   0.258
56219W        W15964  43.849  32.468  11.406
56220W        W15965  15.233  13.138  13.975
56221W        W15966   2.276   4.268   2.791
56222W        W15967  33.457   3.791   0.343
56223W        W15968  13.123  37.533   0.729
56224W        W15969  12.826  44.484   4.271
56225W        W15970  40.343  39.404  12.919
56226W        W15971  35.589  27.465  14.353
56227W        W15972  34.534  27.170  13.457
56228W        W15973  12.644  38.354   2.418
56229W        W15974  21.705  31.494   2.717
56230W        W15975  39.930  36.899  10.965
56231W        W15976  16.628  15.707   3.691
56232W        W15977  24.205  34.392  10.481
56233W        W15978  14.687  14.832   3.290
56234W        W15979  11.357  28.999  14.318
56235W        W15980  42.793  33.389  11.904
56236W        W15981   0.936   9.279  14.334
56237W        W15982  13.128   8.377  11.914
56238W        W15983  16.083  11.639   1.292
56239W        W15984  11.353  12.262  13.927
56240W        W15985  44.859  28.046  14.842
56241W        W15986  44.464  18.699   5.281
56242W        W15987  36.589   0.748  12.837
56243W        W15988   4.254   7.228   1.428
56244W        W15989  44.326  28.948  14.838
56245W        W15990  38.031  43.514   1.365
56246W        W15991  38.527  19.565  12.824
56247W        W15992  42.929  10.659   3.651
56248W        W15993  21.720  10.270  10.529
56249W        W15994  26.089   3.839  10.553
56250W        W15995  33.938   2.774   4.354
56251W        W15996  36.928  29.150  12.084
56252W        W15997  40.415  16.206  13.909
56253W        W15998  35.568  28.161  11.866
56254W        W15999   8.328  26.526  12.042
56255W        W16000   1.258  24.227   3.699
56256W        W16001  43.806  43.821   3.726
56257W        W16002   4.915   1.950   2.205
56258W        W16003  39.029  12.360   4.247
56259W        W16004   3.285  35.092   3.310
56260W        W16005   4.360  27.062  14.867
56261W        W16006  44.976  39.554   1.347
56262W        W16007  24.993   3.294   0.837
56263W        W16008  14.726   6.289  12.367
56264W        W16009  37.013   6.320   3.214
56265W        W16010  12.199  11.795  14.312
56266W        W16011  20.690  31.432  13.449
56267W        W16012  11.147  26.633   2.394
56268W        W16013  37.463   1.869   2.791
56269W        W16014  19.232   5.256  13.369
56270W        W16015   7.410   6.686   1.337
56271W        W16016  38.889   2.825   1.299
56272W        W16017  27.975  19.112  13.468
56273W        W16018  27.651   2.769   1.264
56274W        W16019  39.368  19.701   2.690
56275W        W16020   1.315  33.025  14.305
56276W        W16021  27.069   7.755   3.179
56277W        W16022  31.551  32.515  13.319
56278W        W16023  33.598   7.382   0.353
56279W        W16024   5.723   1.843   0.448
56280W        W16025  30.012  15.643   4.284
56281W        W16026  35.076  15.660  11.867
56282W        W16027  17.305   9.715   2.797
56283W        W16028   2.739  34.883  14.402
56284W        W16029   3.837  18.221   4.315
56285W        W16030  26.479  28.123  14.769
56286W        W16031  35.995  17.230  12.368
56287W        W16032  33.542  36.890   2.220
56288W        W16033  28.932  40.504  12.949
56289W        W16034  33.500   8.819   3.665
56290W        W16035  36.956  24.509   4.735
56291W        W16036  10.175  23.675   9.994
56292W        W16037   9.719  20.742   2.672
56293W        W16038  18.211  42.526   2.843
56294W        W16039   9.243   5.724  13.973
56295W        W16040  27.653  40.357   0.934
56296W        W16041  30.414  40.042  14.310
56297W        W16042  12.615  20.252  13.434
56298W        W16043  32.630  24.037  12.037
56299W        W16044  18.143  12.175   3.763
56300W        W16045  38.467  40.858   0.935
56301W        W16046  16.589  35.499   4.174
56302W        W16047  21.597   3.297   4.321
56303W        W16048  19.742  37.922   3.744
56304W        W16049   2.723   5.930   2.227
56305W        W16050   1.292  20.156  10.967
56306W        W16051   7.197  44.314   3.264
56307W        W16052   4.330   4.371  13.815
56308W        W16053  29.061  33.914   1.813
56309W        W16054  27.481  32.636   4.615
56310W        W16055  35.081  39.320  12.450
56311W        W16056  29.960  22.504  11.535
56312W        W16057  34.595  17.677  11.106
56313W        W16058  16.289   3.319  10.448
56314W        W16059  43.846  16.665   9.537
56315W        W16060  25.155  38.549  14.384
56316W        W16061  32.536  26.177  14.328
56317W        W16062  35.409  33.886  10.581
56318W        W16063  14.258   2.904   0.361
56319W        W16064  34.893  44.862  10.573
56320W        W16065  11.235  43.995  11.067
56321W        W16066  21.193  21.131  14.934
56322W        W16067  16.162  10.278   0.271
56323W        W16068   7.357  44.271   2.234
56324W        W16069   5.694  21.599  11.043
56325W        W16070  24.709  36.863  14.956
56326W        W16071  39.518  44.962  13.545
56327W        W16072   6.700  19.111  12.059
56328W        W16073  22.159  39.827   1.414
56329W        W16074  34.960  32.968  11.942
56330W        W16075   3.292  29.926  13.813
56331W        W16076   5.914   4.307   2.675
56332W        W16077   1.952  21.640   2.687
56333W        W16078  20.756  33.922   1.779
56334W        W16079  15.122  22.208  14.827
56335W        W16080  30.428  11.318   1.393
56336W        W16081  28.594  15.279   2.778
56337W        W16082  31.923  27.681   2.700
56338W        W16083  42.323  41.380   3.745
56339W        W16084  30.098  44.992   2.240
56340W        W16085  15.625  16.141   4.215
56341W        W16086  28.488   4.827  10.967
56342W        W16087  34.538  21.164  13.965
56343W        W16088  20.598   0.470   0.253
56344W        W16089  10.714  16.078   4.663
56345W        W16090  15.763  29.028  12.433
56346W        W16091  12.776  33.899  14.434
56347W        W16092  36.047  37.383  13.843
56348W        W16093  10.745   6.376  10.493
56349W        W16094  33.503  29.528  10.085
56350W        W16095  23.502  38.869   4.231
56351W        W16096  38.396  24.647  14.977
56352W        W16097  37.511  39.508   1.408
56353W        W16098   2.875   2.290  13.849
56354W        W16099  23.207  28.008  14.510
56355W        W16100   5.704  42.423  11.056
56356W        W16101  26.558   1.238  12.383
56357W        W16102  41.432  38.365   2.332
56358W        W16103  30.608  38.003  14.381
56359W        W16104  32.076  37.947   3.327
56360W        W16105  27.618   4.760  14.907
56361W        W16106  19.077  30.657  13.491
56362W        W16107  26.616  31.431   1.324
56363W        W16108   1.263  27.500  13.355
56364W        W16109  37.977   5.894   2.308
56365W        W16110   7.239  44.947   4.795
56366W        W16111  33.047  37.969   1.888
56367W        W16112  19.206   9.758  11.442
56368W        W16113   4.324  42.874  11.571
56369W        W16114   6.403   1.311  12.514
56370W        W16115  43.007  41.802   0.943
56371W        W16116   5.864  43.881  14.331
56372W        W16117  11.768   2.361  13.839
56373W        W16118   1.349  39.465  12.409
56374W        W16119  32.474  38.509   4.328
56375W        W16120  19.145  14.193   1.212
56376W        W16121  44.858  44.484  13.963
56377W        W16122  17.258  30.031   0.923
56378W        W16123  38.888  18.644   3.864
56379W        W16124  22.036  32.562  12.506
56380W        W16125  30.024  33.454   3.821
56381W        W16126  14.154  35.866  12.503
56382W        W16127  24.536  11.764  11.003
56383W        W16128  34.006  15.287  12.442
56384W        W16129  22.739  24.191   2.370
56385W        W16130  12.319   6.254   4.758
56386W        W16131  14.774   4.225   0.939
56387W        W16132   9.216  23.682   4.682
56388W        W16133  38.930  19.641  12.554
56389W        W16134  43.291  28.636   1.732
56390W        W16135  27.037   8.403   0.265
56391W        W16136  23.147  39.506   0.364
56392W        W16137  20.176  42.907  13.796
56393W        W16138   4.858  14.109   4.176
56394W        W16139   2.264   8.844  12.873
56395W        W16140  21.518  30.041   3.146
56396W        W16141   2.865  27.195   4.313
56397W        W16142  41.803  36.906  11.389
56398W        W16143  16.596  38.060   4.726
56399W        W16144  12.232  11.329   4.208
56400W        W16145  21.614  44.356  10.475
56401W        W16146  28.047  29.088   3.744
56402W        W16147  33.955  32.111   0.948
56403W        W16148  15.676  41.807  11.895
56404W        W16149   3.267  30.569  12.051
56405W        W16150  39.823   5.289   0.841
56406W        W16151  24.575   9.667   1.780
56407W        W16152   0.779  23.985  14.429
56408W        W16153  44.780  22.666   0.877
56409W        W16154  36.061  18.163  14.326
56410W        W16155  22.507   2.428  12.987
56411W        W16156  18.216   2.429  10.130
56412W        W16157  38.379  30.013  10.416
56413W        W16158   1.931   3.324  12.408
56414W        W16159   5.698  14.753   2.252
56415W        W16160  39.025   4.444   4.608
56416W        W16161  22.149  26.179  13.485
56417W        W16162  13.129  21.246   1.799
56418W        W16163  14.197  14.748  13.989
56419W        W16164   5.221  27.954   2.837
56420W        W16165   3.953  31.108  13.887
56421W        W16166  31.064  11.177   4.783
56422W        W16167  11.306   8.195   1.426
56423W        W16168  32.113   9.647   4.688
56424W        W16169  38.432  12.704   3.286
56425W        W16170  19.682  12.757   4.187
56426W        W16171  23.192   3.348  10.954
56427W        W16172  12.666  41.840   0.730
56428W        W16173   7.833   3.906  12.569
56429W        W16174  40.486  43.293   3.237
56430W        W16175   0.411  40.506  11.003
56431W        W16176  20.044  44.309   4.122
56432W        W16177  28.439   4.444  10.983
56433W        W16178   2.364  27.484  12.422
56434W        W16179  13.772  26.539  13.823
56435W        W16180  38.069  30.541   3.806
56436W        W16181  43.345  24.027   0.252
56437W        W16182   0.465  17.072   1.714
56438W        W16183  22.689  33.518  13.829
56439W        W16184  30.508  32.046  13.037
56440W        W16185  10.286  25.163   2.317
56441W        W16186  35.377   2.802  14.427
56442W        W16187  39.467  42.914  10.493
56443W        W16188  38.988  22.711  12.370
56444W        W16189  27.581   1.246  12.408
56445W        W16190   5.225  27.610   3.290
56446W        W16191  10.243   6.846   3.815
56447W        W16192  12.153  39.493   4.192
56448W        W16193  15.204  27.019  10.412
56449W        W16194  34.898  39.477  10.468
56450W        W16195  13.300  37.841  12.926
56451W        W16196  43.348  39.354   2.315
56452W        W16197   7.271  15.791   3.660
56453W        W16198  24.109  43.867  10.906
56454W        W16199  41.794  21.632   0.465
56455W        W16200  35.566  40.453  11.096
56456W        W16201  14.100  43.454  14.386
56457W        W16202  19.771  23.198   0.877
56458W        W16203  42.297  14.122   2.238
56459W        W16204  34.116  32.904   0.746
56460W        W16205  22.177   1.816   1.925
56461W        W16206  32.636  17.266  12.083
56462W        W16207  13.603   1.934  11.408
56463W        W16208  12.345  14.128  12.981
56464W        W16209  35.544   2.966  13.824
56465W        W16210   0.456  36.888   3.240
56466W        W16211  18.053  37.067   2.727
56467W        W16212  26.608  29.664   3.838
56468W        W16213  22.235   1.278   1.434
56469W        W16214  22.212  36.429  13.045
56470W        W16215  16.771  19.246   0.453
56471W        W16216  44.483  40.420   2.340
56472W        W16217  17.691  14.267  14.351
56473W        W16218   3.932  37.354   0.746
56474W        W16219   6.222  34.409  11.409
56475W        W16220  30.634  31.408  12.050
56476W        W16221  23.702   6.713   4.605
56477W        W16222  12.810  29.011   1.813
56478W        W16223  20.033  37.521  11.045
56479W        W16224  36.996  20.548  10.970
56480W        W16225  11.731  17.671   0.923
56481W        W16226  23.213  23.118  11.905
56482W        W16227  19.237   2.385  10.090
56483W        W16228  24.174   5.876   3.702
56484W        W16229   1.763   9.871  11.557
56485W        W16230  44.801  10.792  14.858
56486W        W16231  19.591  25.132  14.415
56487W        W16232  31.589  22.632  12.891
56488W        W16233   2.363  10.744  13.019
56489W        W16234  37.063   0.775   2.676
56490W        W16235  11.339  20.036   0.328
56491W        W16236  10.702  30.495  12.463
56492W        W16237  10.810  40.976   2.288
56493W        W16238  40.528  40.929  11.951
56494W        W16239   0.842  17.273   5.253
56495W        W16240  32.539  35.045   2.193
56496W        W16241   9.698  25.709  13.524
56497W        W16242  29.507  15.700  12.866
56498W        W16243   1.890  41.921   5.252
56499W        W16244   8.346   7.824  14.463
56500W        W16245  25.006  11.735   3.239
56501W        W16246  17.107  28.549   4.128
56502W        W16247  10.779  22.016  11.982
56503W        W16248   8.328  30.090  10.600
56504W        W16249   9.738  12.648   1.755
56505W        W16250  38.551  30.506  12.067
56506W        W16251  12.776  37.933   2.676
56507W        W16252  20.611  26.161   3.346
56508W        W16253  27.643  28.521   0.921
56509W        W16254  14.637  36.989  13.382
56510W        W16255  20.648   8.293  12.344
56511W        W16256   1.311  36.438   5.784
56512W        W16257   0.472   3.954   0.841
56513W        W16258  34.054   1.880   2.741
56514W        W16259  43.897  35.920   0.764
56515W        W16260  12.188  13.716   4.216
56516W        W16261  24.096  39.510  11.037
56517W        W16262  10.225  36.071  12.445
56518W        W16263  17.755   3.724   4.272
56519W        W16264  20.600  36.417   4.694
56520W        W16265  10.863   9.149  10.413
56521W        W16266  28.079  27.469  14.324
56522W        W16267  41.499  15.145   1.835
56523W        W16268   1.275  11.791   1.862
56524W        W16269  17.781  27.152  11.438
56525W        W16270  42.960  36.906   0.325
56526W        W16271   7.239   8.873   1.441
56527W        W16272   9.197  30.640   3.781
56528W        W16273   2.854  38.497  13.871
56529W        W16274  24.087  39.039   0.896
56530W        W16275  17.076  30.488  11.558
56531W        W16276  11.805  23.091   4.708
56532W        W16277  40.488  29.557   1.267
56533W        W16278  16.762  42.921   0.454
56534W        W16279   2.416  20.043   5.202
56535W        W16280  36.391   5.768  12.378
56536W        W16281  11.715   9.307   2.185
56537W        W16282  13.304   6.278   4.606
56538W        W16283  14.222  36.017  11.444
56539W        W16284  17.587  12.817  14.336
56540W        W16285  26.556   5.384   0.948
56541W        W16286  32.581  33.011   3.366
56542W        W16287  25.497  18.789  14.376
56543W        W16288  21.129  27.997  11.498
56544W        W16289  31.106   4.225   3.311
56545W        W16290  30.094  37.417   3.227
56546W        W16291  38.401  12.329   3.838
56547W        W16292   4.277  31.005   2.282
56548W        W16293   4.720  34.580  11.064
56549W        W16294  17.065  42.874  13.360
56550W        W16295  12.172  42.417  14.509
56551W        W16296  15.614  18.643  12.488
56552W        W16297   6.917  11.289  12.832
56553W        W16298  33.054  19.168   3.320
56554W        W16299  39.340   3.744  12.403
56555W        W16300  26.551  37.036  13.397
56556W        W16301  18.083   5.390   4.247
56557W        W16302  23.011  14.122   2.316
56558W        W16303   2.765   8.358   2.250
56559W        W16304  29.052   0.926   3.738
56560W        W16305   9.168   8.321   0.442
56561W        W16306  14.699   4.334  12.574
56562W        W16307  12.828  15.610   3.820
56563W        W16308  12.240  18.269  13.356
56564W        W16309  35.388  42.836   2.320
56565W        W16310   9.167   8.892  12.044
56566W        W16311  42.988  32.591  10.579
56567W        W16312  15.193   9.791  11.464
56568W        W16313  23.189  15.779   2.724
56569W        W16314   2.342  29.995   1.787
56570W        W16315  41.508   5.391   3.657
56571W        W16316  25.219  37.409   1.220
56572W        W16317   1.279   5.846   1.900
56573W        W16318   7.323   8.692   2.774
56574W        W16319   1.390  43.301  10.406
56575W        W16320  35.108   4.944  12.982
56576W        W16321   5.274   7.825   3.637
56577W        W16322   6.360   4.808   5.150
56578W        W16323  39.557  44.856   0.907
56579W        W16324  24.527  17.668  12.030
56580W        W16325  31.042  16.180  12.480
56581W        W16326  39.318  26.624  10.909
56582W        W16327  13.787  31.103   2.868
56583W        W16328  13.198   5.760   1.347
56584W        W16329  37.067   7.860   2.210
56585W        W16330  29.987  43.363  11.116
56586W        W16331  41.851  17.221   3.827
56587W        W16332  17.761  40.924  14.855
56588W        W16333  20.194  41.963  11.046
56589W        W16334  34.490   9.729   0.937
56590W        W16335  40.840  18.677   4.252
56591W        W16336  35.397  34.373   4.139
56592W        W16337  12.775  17.200  14.903
56593W        W16338  26.669   0.871   2.901
56594W        W16339  28.121  28.547  12.511
56595W        W16340   1.324  13.278   1.841
56596W        W16341  21.738  31.999  13.403
56597W        W16342   2.789   2.759  13.005
56598W        W16343  25.592  36.431   2.214
56599W        W16344  20.093  25.152   2.838
56600W        W16345  11.251   6.200  10.500
56601W        W16346  35.568  21.529  13.968
56602W        W16347  20.035  35.023  13.928
56603W        W16348  26.979   4.911   1.856
56604W        W16349  31.901  14.763   0.340
56605W        W16350   7.318  32.555  11.446
56606W        W16351  41.821   1.756  14.812
56607W        W16352  19.746  26.039   4.801
56608W        W16353   1.845  35.859  10.463
56609W        W16354   9.299  11.334   4.159
56610W        W16355  24.175   5.342  11.379
56611W        W16356  12.279  22.668  13.799
56612W        W16357  41.499   3.930   3.250
56613W        W16358   3.293  20.638  14.342
56614W        W16359  38.383  39.031  13.377
56615W        W16360  17.575   6.693  12.555
56616W        W16361   3.904   1.951   0.807
56617W        W16362  31.947  30.559  12.890
56618W        W16363   9.822   2.440   4.701
56619W        W16364  35.002   9.761   3.169
56620W        W16365  11.284  36.910   1.312
56621W        W16366  33.496  27.505   2.798
56622W        W16367  24.066  42.291  14.511
56623W        W16368  26.668  21.597  14.422
56624W        W16369  35.058  29.174   2.790
56625W        W16370  41.837  10.336   1.368
56626W        W16371  13.138  15.739   4.739
56627W        W16372  43.893  38.493   9.498
56628W        W16373  35.055   0.300  14.406
56629W        W16374  25.659  43.805   2.228
56630W        W16375  40.851  28.028  13.476
56631W        W16376  42.913  34.929   0.263
56632W        W16377  18.545  19.112  14.336
56633W        W16378  32.527  27.691  14.506
56634W        W16379  22.691  37.062   4.238
56635W        W16380   8.833  28.116  11.448
56636W        W16381   0.959  24.975   9.976
56637W        W16382  18.253  44.444   3.239
56638W        W16383  43.420  27.464   0.289
56639W        W16384  39.497  32.105   3.793
56640W        W16385  36.029  37.065  14.759
56641W        W16386   5.197  19.720  11.889
56642W        W16387  28.672  22.015  13.479
56643W        W16388  34.078  40.349   4.295
56644W        W16389   9.866  11.847   2.388
56645W        W16390  41.483  11.773  13.478
56646W        W16391  22.214  32.460   2.688
56647W        W16392   0.327  19.686  13.323
56648W        W16393   4.426  41.991   4.253
56649W        W16394  28.946   9.847   2.690
56650W        W16395  16.808   8.251  14.327
56651W        W16396  26.144  43.503  10.415
56652W        W16397   4.718   5.806   0.919
56653W        W16398  29.034  42.325   3.632
56654W        W16399  21.699  33.549  12.056
56655W        W16400  27.177  39.935   1.301
56656W        W16401  37.457  27.456  12.962
56657W        W16402  27.056  12.808  13.336
56658W        W16403  24.132   9.198   1.225
56659W        W16404  33.423  40.409  14.493
56660W        W16405   3.404  21.189  11.052
56661W        W16406   3.740  29.553   4.353
56662W        W16407   4.827  12.136  12.515
56663W        W16408   9.818  11.251   0.399
56664W        W16409  16.614  12.323  10.969
56665W        W16410  31.617  43.421  13.320
56666W        W16411  27.113  13.343   0.929
56667W        W16412  29.138  34.552  13.878
56668W        W16413  11.694  23.009  14.940
56669W        W16414   1.822  32.102  11.388
56670W        W16415  19.561   6.885   0.334
56671W        W16416  19.678  34.055   3.228
56672W        W16417  39.435   9.245  11.861
56673W        W16418   6.908  19.105   1.862
56674W        W16419  11.856  34.890   5.780
56675W        W16420  31.988  27.985   1.344
56676W        W16421  43.450   4.790  12.347
56677W        W16422   1.479  35.972   4.807
56678W        W16423  30.124   9.735   0.805
56679W        W16424  40.498  21.062   1.780
56680W        W16425  37.931  31.048  12.965
56681W        W16426  33.430  33.084   3.319
56682W        W16427  20.736  33.129  14.882
56683W        W16428  11.221  11.860   3.843
56684W        W16429  17.205   0.746  14.361
56685W        W16430  25.112  35.485   1.918
56686W        W16431  27.522  43.282  11.983
56687W        W16432  10.846  26.598  10.894
56688W        W16433  40.925  20.127  13.350
56689W        W16434  21.017  17.114  11.128
56690W        W16435   9.874  22.152  12.400
56691W        W16436  35.997  21.131  12.498
56692W        W16437  41.790   0.452  14.826
56693W        W16438   1.418   7.303   4.127
56694W        W16439  34.871  26.008  12.907
56695W        W16440  37.068  41.790   0.439
56696W        W16441  21.170  36.087  13.055
56697W        W16442  24.225  18.724  14.826
56698W        W16443  31.596  16.618  12.904
56699W        W16444   5.359   1.448  12.456
56700W        W16445  31.118  27.447  12.836
56701W        W16446  40.328  22.737   4.732
56702W        W16447  24.131  14.157   0.828
56703W        W16448  42.843  44.822  11.976
56704W        W16449  18.612  10.781   3.355
56705W        W16450  17.737   9.377   1.408
56706W        W16451  22.021  40.864   0.749
56707W        W16452  38.500  42.863   0.295
56708W        W16453  43.385  16.795   3.774
56709W        W16454  31.510  39.015   0.250
56710W        W16455  20.138  33.489   0.443
56711W        W16456  36.846  29.940  14.515
56712W        W16457  33.981   1.243  12.988
56713W        W16458  14.827  32.615   2.291
56714W        W16459  40.040   9.678  13.969
56715W        W16460   4.230  14.166   2.690
56716W        W16461  15.785  31.109   1.301
56717W        W16462  39.552  27.507  10.405
56718W        W16463  29.614  41.469  14.414
56719W        W16464  19.188  27.519   0.400
56720W        W16465  30.450  41.325   4.814
56721W        W16466   7.763  19.706   0.843
56722W        W16467   7.348  15.192  14.979
56723W        W16468  16.723   4.899   2.900
56724W        W16469   7.786  17.262  10.472
56725W        W16470  23.556  39.934   1.819
56726W        W16471  24.077  10.746  10.414
56727W        W16472  39.498  16.139  13.966
56728W        W16473  25.186  32.958   0.950
56729W        W16474  24.993   2.232  14.461
56730W        W16475  41.938  29.428  10.976
56731W        W16476  16.802  27.979   2.377
56732W        W16477  36.509  12.664  10.003
56733W        W16478  31.439  19.043  12.070
56734W        W16479   4.361  10.239  10.508
56735W        W16480  19.161  44.928   4.161
56736W        W16481  15.187   7.336  11.016
56737W        W16482  37.038   2.363  11.411
56738W        W16483  24.599  29.951   0.443
56739W        W16484  28.593  11.743  13.337
56740W        W16485  21.687  22.634  11.541
56741W        W16486  32.423  38.927   3.736
56742W        W16487  23.714  33.425  12.011
56743W        W16488   9.317   8.367  11.489
56744W        W16489  10.365  39.972  13.425
56745W        W16490  41.871   4.755   1.270
56746W        W16491  32.536  31.625   3.326
56747W        W16492  18.642  21.245  10.892
56748W        W16493  24.129   1.475   1.281
56749W        W16494  13.826  22.006   4.229
56750W        W16495   6.253  21.124   3.850
56751W        W16496  40.054  30.638  14.433
56752W        W16497  31.606  22.067  12.434
56753W        W16498  10.674  42.880   0.862
56754W        W16499  39.549   8.390   0.467
56755W        W16500  31.121   4.935   4.130
56756W        W16501  20.612  25.097  12.993
56757W        W16502  31.905  28.485   0.408
56758W        W16503   4.773  28.962  12.576
56759W        W16504   9.651  19.593  13.895
56760W        W16505  30.653   4.258  14.826
56761W        W16506  16.108  31.561   4.206
56762W        W16507  20.712  31.471  14.781
56763W        W16508  27.987  31.582   4.299
56764W        W16509  41.342  30.066  13.499
56765W        W16510  15.250  40.483   2.865
56766W        W16511  35.875   7.294   0.948
56767W        W16512  36.912  14.758  11.057
56768W        W16513  39.437  21.232   2.801
56769W        W16514  27.067  25.543  13.367
56770W        W16515  41.811  11.738   0.780
56771W        W16516  22.719  26.570   0.878
56772W        W16517   4.227  22.714  13.511
56773W        W16518  34.038  23.087  10.639
56774W        W16519  27.472  33.441  14.386
56775W        W16520  26.110   3.833   1.753
56776W        W16521  24.563   8.392  11.451
56777W        W16522  38.537  32.471  11.485
56778W        W16523  21.604   9.646   3.253
56779W        W16524   4.782  24.041   0.838
56780W        W16525  39.004  27.604  11.120
56781W        W16526   5.376   2.955  14.791
56782W        W16527  36.520   7.804   1.444
56783W        W16528  30.046  14.307   3.246
56784W        W16529   0.988  12.203  11.459
56785W        W16530  36.842  36.377  10.509
56786W        W16531   1.238  41.016  12.434
56787W        W16532  11.211   7.767   0.734
56788W        W16533  21.668  17.742   9.978
56789W        W16534  23.077  11.369  13.828
56790W        W16535  38.871   6.281   3.276
56791W        W16536   3.787  26.132   3.650
56792W        W16537  24.577  18.198  10.122
56793W        W16538  10.833  36.365   2.717
56794W        W16539  18.776   1.809   9.950
56795W        W16540  39.555  15.085  13.473
56796W        W16541   8.848   0.364   2.283
56797W        W16542  44.977  30.925  11.979
56798W        W16543  42.409  11.168  12.419
56799W        W16544  42.865  24.685   1.749
56800W        W16545  23.226  28.510   1.216
56801W        W16546  39.470  36.566  11.504
56802W        W16547  18.172  40.456  14.505
56803W        W16548   6.818  35.959  12.891
56804W        W16549   7.887  38.336   0.474
56805W        W16550  43.294  19.695   5.181
56806W        W16551  17.112  16.281   2.719
56807W        W16552   2.438  32.391  11.975
56808W        W16553   4.269  17.669  11.537
56809W        W16554  19.747  16.280   4.799
56810W        W16555  17.220  22.094   0.260
56811W        W16556   1.319  37.849   4.223
56812W        W16557  19.535  36.401   4.660
56813W        W16558  32.134  19.093  12.550
56814W        W16559  25.001  41.481  14.307
56815W        W16560  17.062  25.577   1.921
56816W        W16561  17.119  19.636  11.373
56817W        W16562  32.121  25.988  13.806
56818W        W16563  38.542  29.515   2.865
56819W        W16564  17.235   9.854   2.220
56820W        W16565  19.710  16.600   9.985
56821W        W16566   3.252  35.379  13.317
56822W        W16567  25.580  11.198   2.774
56823W        W16568   1.900  38.061  12.928
56824W        W16569  33.931  24.570   3.655
56825W        W16570  30.458  18.620   1.783
56826W        W16571  25.173  12.300  11.455
56827W        W16572  37.078  13.676  14.282
56828W        W16573  40.413  30.487   5.279
56829W        W16574  10.297  37.079   3.270
56830W        W16575  16.702  32.068   2.242
56831W        W16576  28.643   5.373  12.380
56832W        W16577  15.796  10.269   2.259
56833W        W16578  33.409   8.366   4.704
56834W        W16579  34.499  20.744   0.866
56835W        W16580  30.547  24.981  14.447
56836W        W16581  24.143  12.164   2.232
56837W        W16582  31.061  36.025   4.658
56838W        W16583  18.117  22.117  10.643
56839W        W16584  29.963  35.587  12.008
56840W        W16585  17.674  25.637   3.374
56841W        W16586  11.671  12.173   4.646
56842W        W16587  26.614   1.928   0.846
56843W        W16588  10.350  43.921  11.537
56844W        W16589  43.770   1.322   2.347
56845W        W16590  10.697  16.728  13.009
56846W        W16591   9.656  30.014   0.349
56847W        W16592   0.469  20.107   1.323
56848W        W16593  31.416  39.375   4.777
56849W        W16594   9.340   5.807   3.814
56850W        W16595  41.893  32.496   2.713
56851W        W16596  21.698  10.709  12.553
56852W        W16597  27.618   3.372  14.861
56853W        W16598  42.838  33.608  14.412
56854W        W16599  11.140   2.270   4.685
56855W        W16600  18.649   7.175  14.343
56856W        W16601   4.396   2.783   3.765
56857W        W16602   4.787  27.672  10.138
56858W        W16603  24.099   6.333  10.924
56859W        W16604  39.066  19.128  13.996
56860W        W16605  27.661  10.226  11.497
56861W        W16606   4.427  29.013  10.904
56862W        W16607  25.590  32.395  13.938
56863W        W16608  10.301   4.364  11.389
56864W        W16609  39.504  18.566  10.936
56865W        W16610  22.670  32.418  13.852
56866W        W16611   4.360  20.229   4.729
56867W        W16612  27.501  25.585   2.681
56868W        W16613  31.041  20.140  12.433
56869W        W16614   4.357  38.420   1.778
56870W        W16615  22.057  28.147  11.978
56871W        W16616  10.201  21.231   0.247
56872W        W16617  38.981   6.217   3.835
56873W        W16618  13.673  23.713   2.182
56874W        W16619  24.105  43.410  12.925
56875W        W16620  37.883  40.053  13.475
56876W        W16621  18.053  38.834   4.610
56877W        W16622   3.799  40.441  11.989
56878W        W16623  41.962  29.030   0.390
56879W        W16624  14.335  30.994   0.305
56880W        W16625  13.756  23.092  10.583
56881W        W16626   9.178  12.159   4.189
56882W        W16627   5.849  33.548  14.426
56883W        W16628  38.391   4.332   1.400
56884W        W16629   4.403  41.848  12.861
56885W        W16630  30.150  39.371  13.835
56886W        W16631   8.663  29.626   0.864
56887W        W16632  43.347  23.706   3.740
56888W        W16633  20.680  34.868  13.351
56889W        W16634  25.082  36.493  11.067
56890W        W16635  16.773  32.941  12.034
56891W        W16636  29.110  27.002  14.015
56892W        W16637   0.352  25.137   0.955
56893W        W16638  41.347  36.908  13.030
56894W        W16639  37.842   6.733   1.849
56895W        W16640  12.336  32.427   2.399
56896W        W16641  20.077   7.394  13.819
56897W        W16642  33.029   9.313   4.253
56898W        W16643  42.927  33.528   4.600
56899W        W16644  37.884  40.003   0.305
56900W        W16645  36.496  31.610  11.491
56901W        W16646  26.057  11.142   1.801
56902W        W16647  39.822   0.385   1.447
56903W        W16648  44.262  15.111  10.441
56904W        W16649  14.315  10.171  12.530
56905W        W16650  32.544  23.145  14.283
56906W        W16651  28.184  22.646   2.235
56907W        W16652   9.203  36.390  13.492
56908W        W16653  40.008  12.243   4.796
56909W        W16654  42.834  25.707  10.624
56910W        W16655  22.611  38.895   3.697
56911W        W16656  26.083   6.679   3.376
56912W        W16657   8.163   3.338  10.500
56913W        W16658   3.310  40.492   1.705
56914W        W16659  37.384   7.348   0.301
56915W        W16660  27.139  41.804  13.396
56916W        W16661   3.844  38.970   4.626
56917W        W16662  22.618  40.499   0.243
56918W        W16663   7.886  25.708   4.618
56919W        W16664   0.455  35.468  11.481
56920W        W16665  34.579   9.686   4.217
56921W        W16666  36.892  41.292   3.243
56922W        W16667  35.403  18.169  12.826
56923W        W16668  41.830  43.303  12.431
56924W        W16669  19.540  41.915   3.218
56925W        W16670   4.294  22.047  14.802
56926W        W16671   1.247  41.463   1.718
56927W        W16672  29.998  13.175   3.330
56928W        W16673  22.206  33.498   3.195
56929W        W16674  21.198  33.603   2.718
56930W        W16675  19.195  17.662  13.005
56931W        W16676  16.794  27.116   3.310
56932W        W16677  34.918   1.904  13.962
56933W        W16678  31.591  31.418   3.307
56934W        W16679  42.005  33.090  14.878
56935W        W16680  42.288  31.153  12.530
56936W        W16681  23.011  39.927  14.417
56937W        W16682  40.539  34.437  13.467
56938W        W16683  31.542   8.275  14.342
56939W        W16684  42.391  15.125  12.500
56940W        W16685  26.537  14.147  11.955
56941W        W16686  41.421  28.118   4.654
56942W        W16687   0.858   2.279  10.546
56943W        W16688  21.039  10.223   4.834
56944W        W16689   3.883  15.155   0.749
56945W        W16690  30.586  43.877  10.625
56946W        W16691  19.123   8.789  13.938
56947W        W16692  40.899  42.802  11.898
56948W        W16693  24.655  29.447   3.341
56949W        W16694   0.920  35.054  12.900
56950W        W16695   7.287  14.286  11.052
56951W        W16696  31.003  17.605   2.801
56952W        W16697  15.747  26.470  12.482
56953W        W16698  33.985  23.992   0.392
56954W        W16699  42.389  12.140   1.914
56955W        W16700  37.511   7.252   2.680
56956W        W16701   3.757  30.089   2.793
56957W        W16702   2.862  34.093  12.508
56958W        W16703  41.412  23.995  11.960
56959W        W16704  32.981  36.884   3.806
56960W        W16705  28.966  34.376   2.739
56961W        W16706  31.949  26.624  12.534
56962W        W16707  37.377   8.773  12.990
56963W        W16708  37.439   8.200   1.258
56964W        W16709  30.632  11.707  11.503
56965W        W16710   4.324  26.613  14.502
56966W        W16711  14.625  43.274   0.343
56967W        W16712  31.456  40.880   0.472
56968W        W16713  40.051  20.605  13.865
56969W        W16714  31.420   7.686  13.407
56970W        W16715   6.904  44.758  11.596
56971W        W16716  21.241  31.474   3.317
56972W        W16717  21.242  28.993   2.282
56973W        W16718  39.910  30.927  11.983
56974W        W16719  42.842  11.767   1.241
56975W        W16720  17.778  43.334   3.240
56976W        W16721   5.212  40.995   2.773
56977W        W16722  23.045   2.857   0.784
56978W        W16723  42.936  40.811  13.986
56979W        W16724  23.237  15.204  14.014
56980W        W16725  32.636  18.104  11.543
56981W        W16726  20.030  39.404   1.339
56982W        W16727  29.081  14.117   0.387
56983W        W16728  13.726  13.171   3.297
56984W        W16729  14.608   5.238  12.824
56985W        W16730  40.483  30.954  14.013
56986W        W16731  29.477  25.126   1.909
56987W        W16732  39.841  16.127  10.457
56988W        W16733  27.192  18.771   0.434
56989W        W16734   4.749  40.511  13.509
56990W        W16735  35.920   1.467  14.482
56991W        W16736  13.214  12.831  14.828
56992W        W16737  33.041  23.102   1.231
56993W        W16738  31.417   6.742  12.385
56994W        W16739   7.826  31.937  11.444
56995W        W16740  37.059  22.542   0.751
56996W        W16741  29.636  14.174   1.280
56997W        W16742  16.617  30.935   4.630
56998W        W16743  28.990  23.049  10.583
56999W        W16744  33.950  42.306   3.268
57000W        W16745  39.545  38.859  11.983
57001W        W16746   5.305   1.293  14.470
57002W        W16747  16.579   0.432  12.985
57003W        W16748  15.261   7.189   3.696
57004W        W16749   4.426   7.197  14.942
57005W        W16750  40.445  11.713  10.616
57006W        W16751  29.170   1.788   4.280
57007W        W16752  44.804  27.630  13.309
57008W        W16753  35.562   6.393   4.728
57009W        W16754  22.049   4.806   2.894
57010W        W16755  22.723   4.869   3.157
57011W        W16756  30.632   4.900  14.998
57012W        W16757  37.967  15.611  11.925
57013W        W16758  13.671  21.567  13.507
57014W        W16759  31.431  37.510  13.402
57015W        W16760  36.577  37.431   1.365
57016W        W16761  12.759  26.070  10.499
57017W        W16762  31.149  33.096   3.802
57018W        W16763   6.364  13.674   2.808
57019W        W16764  14.242   2.927   2.791
57020W        W16765  18.784  16.594   3.327
57021W        W16766   6.426  17.603   3.813
57022W        W16767  35.005  35.984  12.417
57023W        W16768  30.638  37.481   4.317
57024W        W16769   9.290  13.635   4.341
57025W        W16770  28.649  37.445  12.840
57026W        W16771  10.699  36.042  13.941
57027W        W16772   2.279  31.598  11.377
57028W        W16773  29.993   9.289  11.603
57029W        W16774  12.233  26.106   2.210
57030W        W16775  17.179  14.659   4.317
57031W        W16776  33.626  14.134  11.404
57032W        W16777  39.015  12.794   2.691
57033W        W16778   8.200  16.158   1.918
57034W        W16779   6.276  30.438   1.404
57035W        W16780  14.306  26.184   4.687
57036W        W16781   1.348  40.881  13.048
57037W        W16782  36.966  17.286  13.464
57038W        W16783  32.521   5.886   3.329
57039W        W16784  12.191  40.907  14.854
57040W        W16785  42.788  36.098   0.354
57041W        W16786  29.040  24.086  11.399
57042W        W16787  32.995  28.626  14.392
57043W        W16788   8.225   8.851  11.549
57044W        W16789  26.092  44.881   3.865
57045W        W16790  40.817  32.964   0.913
57046W        W16791  18.655  35.914   0.930
57047W        W16792   9.392  16.759  10.491
57048W        W16793   6.880  44.441   1.259
57049W        W16794  40.020  17.062  14.280
57050W        W16795  34.515  22.149   4.321
57051W        W16796   1.237   3.428  13.374
57052W        W16797  12.184  23.646   4.748
57053W        W16798  18.184  27.630   1.861
57054W        W16799  29.593   8.186  13.505
57055W        W16800   6.703   9.270  10.643
57056W        W16801  42.395  40.892  10.920
57057W        W16802  25.553  30.455   2.377
57058W        W16803  40.913  19.770   2.663
57059W        W16804  28.178   7.720   1.365
57060W        W16805   9.287  38.350   1.793
57061W        W16806  29.435  26.018   1.740
57062W        W16807  12.268  36.355  13.880
57063W        W16808  30.648  26.040  12.423
57064W        W16809  10.372  15.156   1.345
57065W        W16810   2.838  28.478   1.380
57066W        W16811   8.283  13.268  13.368
57067W        W16812  19.752   4.337   4.345
57068W        W16813  18.649  31.118   3.180
57069W        W16814  20.695  40.048   1.268
57070W        W16815  18.769  11.662  13.428
57071W        W16816   0.973  33.123  14.498
57072W        W16817  35.033  17.571   2.869
57073W        W16818  42.975  16.630   4.810
57074W        W16819  44.409  20.645  11.947
57075W        W16820  41.421  28.065   5.221
57076W        W16821   8.165  13.169   3.180
57077W        W16822  33.494  19.583  12.341
57078W        W16823  13.795  36.017   3.847
57079W        W16824  18.231   0.821  13.454
57080W        W16825  37.502  27.949  13.418
57081W        W16826  27.578  13.150  11.077
57082W        W16827  20.769  34.446  11.412
57083W        W16828  17.095  32.087   1.916
57084W        W16829   6.801  39.366   4.232
57085W        W16830   9.224  16.725   4.635
57086W        W16831  33.451  27.616   0.372
57087W        W16832  18.130  33.457  14.294
57088W        W16833  11.275   9.783  12.571
57089W        W16834   1.352  16.169   0.337
57090W        W16835  12.761  10.357   0.243
57091W        W16836  27.652   0.797   0.349
57092W        W16837  15.586  37.469   1.794
57093W        W16838  34.605  11.750  10.624
57094W        W16839  42.960   1.894  10.457
57095W        W16840  27.594  43.455   0.378
57096W        W16841   7.675  24.516  11.893
57097W        W16842   3.424  35.109  12.843
57098W        W16843  26.003  41.536   0.308
57099W        W16844  12.702  32.908   3.771
57100W        W16845  10.326  43.274   1.713
57101W        W16846  17.295   9.338  10.099
57102W        W16847   7.787  17.222   1.227
57103W        W16848  16.235  26.116  11.972
57104W        W16849  36.892  14.801   0.771
57105W        W16850   9.660   2.907   1.360
57106W        W16851  34.972  36.962   1.321
57107W        W16852  43.972  33.011   1.239
57108W        W16853   4.700  43.001  13.007
57109W        W16854  32.534  41.840  14.358
57110W        W16855  30.025  31.136   4.224
57111W        W16856  34.028  30.062   1.933
57112W        W16857  39.435   8.853  14.474
57113W        W16858   0.848   8.891  14.770
57114W        W16859  36.028  16.697   0.336
57115W        W16860  23.232  14.233   0.467
57116W        W16861  25.649  38.363  13.458
57117W        W16862  30.021  44.348   4.767
57118W        W16863  14.255   3.323   1.222
57119W        W16864  20.148  16.288   0.309
57120W        W16865   3.791  40.409   5.159
57121W        W16866  44.268  10.307   1.770
57122W        W16867   0.868  22.068  13.547
57123W        W16868  27.164  27.168  10.904
57124W        W16869  39.993  23.554   1.752
57125W        W16870  24.202  37.581  10.113
57126W        W16871  31.906  35.002  13.876
57127W        W16872  16.256  37.371  11.910
57128W        W16873  19.758   6.360  11.608
57129W        W16874   5.723   3.818   0.840
57130W        W16875  23.159  40.406   2.877
57131W        W16876  10.309   7.174   1.216
57132W        W16877  32.942  19.100  14.486
57133W        W16878  14.176  24.019   0.418
57134W        W16879  33.942  14.144  13.832
57135W        W16880   1.901  24.633   4.626
57136W        W16881  28.083  22.194   2.226
57137W        W16882  35.604  37.421  13.363
57138W        W16883  22.512  13.143   3.779
57139W        W16884  37.918   3.739  13.928
57140W        W16885  44.990  22.009   4.292
57141W        W16886   3.928   8.743   0.944
57142W        W16887   6.880   4.928   4.717
57143W        W16888  32.921  21.154  13.983
57144W        W16889  21.073  19.188  12.917
57145W        W16890  22.230  12.151   5.178
57146W        W16891  41.323  11.703  12.841
57147W        W16892  26.991   3.767  14.297
57148W        W16893   2.243  36.409   0.279
57149W        W16894  25.679  27.559  10.921
57150W        W16895  32.043   3.337  12.487
57151W        W16896  26.204  19.109  13.885
57152W        W16897   5.388  20.542  14.370
57153W        W16898  19.757   4.237   9.510
57154W        W16899   3.248  35.940   3.235
57155W        W16900  37.478  38.531   2.182
57156W        W16901  32.627   8.678  14.321
57157W        W16902  32.417  21.714  12.017
57158W        W16903  12.150  27.164   3.839
57159W        W16904  35.383  18.561   0.253
57160W        W16905  16.663  44.806  10.428
57161W        W16906   7.230  21.060  14.927
57162W        W16907  29.477  13.329   3.655
57163W        W16908   8.689   5.753  13.019
57164W        W16909  15.647   7.324  14.490
57165W        W16910   3.410  32.636  10.505
57166W        W16911   8.172  44.905   1.212
57167W        W16912  16.182  36.935   4.320
57168W        W16913  28.520  40.420  14.311
57169W        W16914  23.545  22.028  14.952
57170W        W16915  41.941  19.217  11.599
57171W        W16916  18.278  17.207  14.328
57172W        W16917  38.901  17.275   2.663
57173W        W16918  10.860   0.392   4.343
57174W        W16919   7.692  16.289   1.337
57175W        W16920  19.652  10.696   0.366
57176W        W16921   3.866  22.639   0.870
57177W        W16922  37.878  32.473   1.409
57178W        W16923  33.061  44.381  12.495
57179W        W16924  13.754  27.517  14.931
57180W        W16925  23.533  11.219   2.210
57181W        W16926  40.541  32.130   5.092
57182W        W16927  26.701   3.715  14.477
57183W        W16928   1.738  11.168   1.234
57184W        W16929   8.672   7.338   1.322
57185W        W16930   6.921  34.528   1.935
57186W        W16931  23.991  24.649  10.592
57187W        W16932  37.930  38.031  10.519
57188W        W16933  12.175  26.101  14.976
57189W        W16934   4.878  44.832   2.378
57190W        W16935  29.148  35.544  10.459
57191W        W16936  27.543  35.934   0.302
57192W        W16937   9.247  23.984   1.252
57193W        W16938   7.821  22.736  14.387
57194W        W16939  43.347  19.125  12.827
57195W        W16940  34.506  11.172   4.762
57196W        W16941  33.384  13.825  11.998
57197W        W16942  16.707  34.479   1.792
57198W        W16943  29.670  22.714  14.884
57199W        W16944  42.006  18.783   2.840
57200W        W16945  34.904   8.888  10.407
57201W        W16946   9.864   2.230  11.898
57202W        W16947   8.669  13.304   0.395
57203W        W16948  42.945  26.565   1.276
57204W        W16949  31.550  11.673  14.412
57205W        W16950  16.777   4.388   0.339
57206W        W16951  40.916  18.221   2.211
57207W        W16952  32.973  38.071   2.220
57208W        W16953  29.528  17.182  10.157
57209W        W16954  17.585  19.734   3.209
57210W        W16955  36.350   3.454   2.692
57211W        W16956   0.420  27.057  13.507
57212W        W16957  41.501   9.171  13.870
57213W        W16958  11.823  12.150   4.214
57214W        W16959  18.063  37.349   0.916
57215W        W16960   3.405   3.241   1.424
57216W        W16961  40.335  43.009  13.925
57217W        W16962  29.653  28.970  11.934
57218W        W16963  24.123  19.283   3.303
57219W        W16964  19.567   1.757   2.380
57220W        W16965   9.694  30.620   1.839
57221W        W16966  30.654  16.782   1.876
57222W        W16967  42.891  38.432  14.355
57223W        W16968   4.878   8.351   0.314
57224W        W16969  39.828  22.116  14.405
57225W        W16970  32.430  17.577   0.312
57226W        W16971   0.790  19.575   0.413
57227W        W16972  29.539   3.817  12.497
57228W        W16973   8.379   9.300  10.979
57229W        W16974  27.119  23.234  14.839
57230W        W16975  25.136  18.292   2.205
57231W        W16976  10.243  12.830   1.697
57232W        W16977  22.539  24.500  11.019
57233W        W16978  21.035  21.630  11.380
57234W        W16979   0.379  23.646   1.239
57235W        W16980  29.445  22.596  13.012
57236W        W16981   1.319  15.258  11.120
57237W        W16982  44.490  34.436   0.386
57238W        W16983  34.988  18.655   1.927
57239W        W16984  38.504   1.462   0.345
57240W        W16985  14.197   2.875  10.407
57241W        W16986   7.177  43.921   4.737
57242W        W16987  34.041  11.839   2.404
57243W        W16988  36.493   1.799  12.016
57244W        W16989  31.571   2.449   2.798
57245W        W16990  41.319   9.720  11.918
57246W        W16991  38.426  10.815  10.634
57247W        W16992  30.527  29.445   2.848
57248W        W16993   5.763  29.146   3.734
57249W        W16994  19.055  29.139   1.731
57250W        W16995  28.169  22.250   1.306
57251W        W16996  37.916  12.789  11.065
57252W        W16997   3.411  33.924   2.732
57253W        W16998   1.902  35.499   4.308
57254W        W16999  15.589   7.224   3.855
57255W        W17000  33.122  31.979   4.228
57256W        W17001  16.142   5.426  10.974
57257W        W17002   5.868  26.991   1.920
57258W        W17003  38.875  43.472  12.517
57259W        W17004  28.948  41.011  10.470
57260W        W17005  18.737  27.518  12.891
57261W        W17006  32.477  23.662  13.807
57262W        W17007   6.279  32.034  10.010
57263W        W17008  31.491  10.733  14.353
57264W        W17009   2.403  15.776   3.810
57265W        W17010  19.114  25.598  12.849
57266W        W17011   4.436  22.658   4.342
57267W        W17012   3.766  36.910  10.036
57268W        W17013  27.069  41.938   0.881
57269W        W17014  23.593  41.316   3.692
57270W        W17015  33.987  11.131   1.434
57271W        W17016   4.408  28.051  14.951
57272W        W17017  22.534  24.062  12.567
57273W        W17018  27.689  11.248  11.531
57274W        W17019  32.930  36.954   1.793
57275W        W17020  40.424  29.424  14.767
57276W        W17021   1.241  30.593  12.029
57277W        W17022   4.256  26.019   3.284
57278W        W17023  37.973  15.755   1.760
57279W        W17024  12.658  32.415   0.306
57280W        W17025   8.780  44.924  12.036
57281W        W17026  33.038  16.668   3.300
57282W        W17027  30.601  17.635  10.954
57283W        W17028  28.126  21.055   1.261
57284W        W17029  31.070  40.945  10.495
57285W        W17030  33.079  38.486  14.780
57286W        W17031  22.506  27.478  10.907
57287W        W17032  33.924  32.480  10.625
57288W        W17033   7.811  34.880   3.276
57289W        W17034  15.303   1.826   3.215
57290W        W17035  29.110  25.666   0.777
57291W        W17036  44.775  27.964   1.777
57292W        W17037  23.205   1.785   0.964
57293W        W17038  42.028  12.280  13.023
57294W        W17039   1.332  39.063  12.579
57295W        W17040   6.336  10.746  14.759
57296W        W17041   3.323   3.429   3.383
57297W        W17042   5.889  10.688   4.170
57298W        W17043  14.800   6.811   0.905
57299W        W17044   6.836  29.000  12.935
57300W        W17045  38.326   8.399  12.355
57301W        W17046  43.923  11.190  11.005
57302W        W17047  13.830   8.724  12.419
57303W        W17048  11.684   6.406   3.205
57304W        W17049  13.770  31.552  13.452
57305W        W17050  42.431  30.126  14.845
57306W        W17051   5.299  17.213  14.275
57307W        W17052  25.023  15.598  10.104
57308W        W17053  19.134  17.734  14.817
57309W        W17054   0.350  29.117   0.902
57310W        W17055  31.456  31.999   2.283
57311W        W17056  24.482  21.531   0.350
57312W        W17057   3.781  42.476  14.514
57313W        W17058  26.999  24.995  12.985
57314W        W17059  15.148  43.329  13.330
57315W        W17060   1.458  20.634   4.323
57316W        W17061   1.448  18.264  12.023
57317W        W17062  42.423  36.591  12.554
57318W        W17063  27.943  30.647  14.989
57319W        W17064  42.850  19.238  11.056
57320W        W17065  23.685   2.834   0.330
57321W        W17066  43.995   2.303   3.778
57322W        W17067   3.379  25.131  12.357
57323W        W17068  33.538  19.132   1.409
57324W        W17069  10.174  38.076   2.182
57325W        W17070  26.532  14.816   1.749
57326W        W17071  16.289  35.069   9.989
57327W        W17072  25.614  11.732  12.503
57328W        W17073  37.924   2.928  10.490
57329W        W17074  30.423  25.074   3.720
57330W        W17075   2.861  22.629   1.378
57331W        W17076  24.144  24.153   3.760
57332W        W17077  13.626   5.869   0.951
57333W        W17078  29.638  38.513  14.313
57334W        W17079  34.065  27.678   0.416
57335W        W17080  41.791  10.154   4.321
57336W        W17081  13.120  17.706   1.381
57337W        W17082   6.309  25.558   0.962
57338W        W17083  13.271  41.438   0.841
57339W        W17084  29.585  22.067  11.599
57340W        W17085  20.046  28.048   3.805
57341W        W17086  16.293  40.391   4.660
57342W        W17087   0.877  12.203  10.942
57343W        W17088   6.896  27.661   2.406
57344W        W17089  23.241   1.789   1.885
57345W        W17090  13.333  19.717  13.054
57346W        W17091  35.910  39.362  14.838
57347W        W17092   1.381  31.605  14.795
57348W        W17093   4.924   8.813  13.799
57349W        W17094  28.954  26.994   0.776
57350W        W17095   2.936  41.293  11.068
57351W        W17096  24.084  21.094  10.940
57352W        W17097   6.787   9.247  13.980
57353W        W17098  21.665  31.906  12.519
57354W        W17099   5.305   6.188  13.318
57355W        W17100   7.801  23.068   2.795
57356W        W17101  19.049   2.397   2.822
57357W        W17102  41.447  42.006   2.673
57358W        W17103  43.995   3.766  11.917
57359W        W17104  40.894  41.829   4.729
57360W        W17105  19.686  12.770   2.304
57361W        W17106  36.875  28.022  11.507
57362W        W17107   4.930   8.263   0.901
57363W        W17108  40.505   5.837   1.787
57364W        W17109  42.832  39.535   1.430
57365W        W17110  20.612  41.927  13.367
57366W        W17111  32.605  14.242  10.589
57367W        W17112  26.051   2.922   0.366
57368W        W17113  23.071  36.095  10.137
57369W        W17114  42.308  13.762  13.876
57370W        W17115   8.811  24.600  11.511
57371W        W17116  24.505  20.711  11.945
57372W        W17117  33.015  12.664  12.880
57373W        W17118  27.997   6.196   4.676
57374W        W17119  13.765   4.732   1.826
57375W        W17120  19.216  28.147   2.691
57376W        W17121  40.488  36.879   1.301
57377W        W17122  23.496   1.348  11.912
57378W        W17123  28.660  34.910   3.372
57379W        W17124   4.746  38.409   5.628
57380W        W17125  28.139  29.425   4.789
57381W        W17126  26.194  14.798   2.397
57382W        W17127  16.670  42.987  12.342
57383W        W17128  19.227  44.451  10.404
57384W        W17129  35.561  10.175  11.912
57385W        W17130  31.455  19.144   1.733
57386W        W17131  42.856  44.950   2.867
57387W        W17132  20.052  33.128   5.174
57388W        W17133   2.390  17.744   3.734
57389W        W17134  12.732  15.198   3.707
57390W        W17135  18.602   1.381   1.251
57391W        W17136  41.413  19.233  13.017
57392W        W17137  37.030   1.352  13.486
57393W        W17138  24.005   9.704   1.257
57394W        W17139  22.602  18.586   4.330
57395W        W17140   5.693  11.296  12.472
57396W        W17141  18.169   7.828   4.702
57397W        W17142  25.495   0.821  12.359
57398W        W17143  27.034  35.560  10.470
57399W        W17144  26.154  12.193  12.922
57400W        W17145  17.699  14.174   1.899
57401W        W17146  41.346  35.538  10.429
57402W        W17147   9.192  16.719   3.152
57403W        W17148   5.273  31.938   3.228
57404W        W17149  22.165  15.635  12.500
57405W        W17150  18.138  41.790  14.318
57406W        W17151  43.902  40.869  13.913
57407W        W17152  33.115  12.251  10.617
57408W        W17153  13.677  29.640   0.792
57409W        W17154  24.054  41.789   4.227
57410W        W17155  24.686  33.066  14.870
57411W        W17156   5.782   7.691   2.818
57412W        W17157  15.195  24.499   1.843
57413W        W17158  26.573  35.380   0.407
57414W        W17159   6.912  14.188   0.847
57415W        W17160  27.105  17.672  10.504
57416W        W17161  25.521  25.176   4.353
57417W        W17162  12.767  10.308  14.891
57418W        W17163  39.464  36.079   1.410
57419W        W17164  32.944  44.775   2.218
57420W        W17165   2.735  23.011  13.480
57421W        W17166  33.893  24.989   3.278
57422W        W17167  19.092  32.941  10.936
57423W        W17168  18.630  36.046   5.085
57424W        W17169  43.460  43.282  13.034
57425W        W17170  34.907  23.048  14.909
57426W        W17171  38.333  31.931  10.958
57427W        W17172   9.722  12.649   4.764
57428W        W17173  21.706   0.849   1.761
57429W        W17174  36.370  42.782  14.996
57430W        W17175   1.398  34.605  10.613
57431W        W17176  13.179  12.167   0.738
57432W        W17177  33.595  38.488  13.021
57433W        W17178   8.862  33.625   1.875
57434W        W17179  27.031  19.180  11.884
57435W        W17180  33.399  24.139  11.962
57436W        W17181  17.096  23.118  13.458
57437W        W17182  38.048  17.586  11.460
57438W        W17183  32.569   3.717  13.436
57439W        W17184  40.477  41.810  13.844
57440W        W17185  11.133  19.078   0.752
57441W        W17186  12.279  43.452  14.807
57442W        W17187  36.933  24.067   1.394
57443W        W17188  15.151  44.929  12.509
57444W        W17189   8.241  21.563  11.412
57445W        W17190   1.394  13.125   0.783
57446W        W17191  10.289   0.257  11.909
57447W        W17192  36.458  18.221  11.463
57448W        W17193  26.590   3.841   1.875
57449W        W17194  25.189  27.083  14.806
57450W        W17195  19.231   1.895  13.926
57451W        W17196  12.191  42.503   3.754
57452W        W17197  40.005  28.059   2.821
57453W        W17198  36.086   5.311  13.832
57454W        W17199  22.648  10.706   1.359
57455W        W17200  32.533  13.104  13.472
57456W        W17201  22.227  16.181  12.439
57457W        W17202  29.142  19.285   1.262
57458W        W17203   2.250  17.645   1.384
57459W        W17204   5.934  17.709  11.409
57460W        W17205  21.134  14.101  13.879
57461W        W17206   0.404   3.774  14.448
57462W        W17207  42.962  39.023  13.448
57463W        W17208  15.327  26.997   0.765
57464W        W17209  30.154  31.152   3.666
57465W        W17210  17.207  21.060   1.402
57466W        W17211  18.593  27.993  11.002
57467W        W17212  16.697  30.977  13.533
57468W        W17213  10.187  22.709   1.708
57469W        W17214  44.777   2.382  13.907
57470W        W17215   2.782  15.586   3.677
57471W        W17216  21.665   1.393   1.211
57472W        W17217   4.846  27.992   4.710
57473W        W17218  13.160  31.489  11.440
57474W        W17219  38.916  17.792   2.853
57475W        W17220  41.938   5.802   3.306
57476W        W17221  26.655  29.501  13.485
57477W        W17222  34.889   5.856  13.814
57478W        W17223  37.429  13.351  14.854
57479W        W17224  28.129   2.805   2.821
57480W        W17225  40.482  41.527  11.485
57481W        W17226  34.589  28.060   1.215
57482W        W17227  20.571  44.777   0.323
57483W        W17228  26.702   5.844  14.437
57484W        W17229   1.380  26.559  14.950
57485W        W17230  23.102   6.814   1.797
57486W        W17231  36.882  38.488   4.138
57487W        W17232  21.712   8.345  14.445
57488W        W17233   9.204  19.067  14.767
57489W        W17234  26.186  16.125  10.921
57490W        W17235  39.885  29.535  10.544
57491W        W17236  30.508  22.081  10.076
57492W        W17237  12.308  42.976   0.949
57493W        W17238  40.512  26.180   2.313
57494W        W17239  40.858  23.689  12.863
57495W        W17240  35.540   7.412  10.527
57496W        W17241  44.819   3.789  14.321
57497W        W17242  42.473   2.412  11.127
57498W        W17243  40.515  17.255  12.564
57499W        W17244  38.404  23.717  13.980
57500W        W17245   2.373  30.971   2.246
57501W        W17246  39.914  11.737  14.811
57502W        W17247  42.368  40.393  11.411
57503W        W17248  37.842   5.366   1.236
57504W        W17249   0.761  25.201  12.973
57505W        W17250  30.123  18.739   9.470
57506W        W17251  28.012  10.376  13.502
57507W        W17252  34.378   3.440  13.511
57508W        W17253  40.401  28.957  11.106
57509W        W17254  22.089  28.486   3.355
57510W        W17255  37.081  31.470   1.301
57511W        W17256  26.486   0.288  12.943
57512W        W17257   7.847  25.680  10.460
57513W        W17258  24.691  11.130   3.803
57514W        W17259  29.994  35.367   3.349
57515W        W17260  42.513  42.392   4.821
57516W        W17261   9.742  27.103  11.940
57517W        W17262  23.556  21.118   1.721
57518W        W17263  34.955  24.189   1.803
57519W        W17264  17.662  41.471  10.489
57520W        W17265  22.247   4.374   4.202
57521W        W17266   9.810  10.359  11.556
57522W        W17267  18.645  25.585   0.254
57523W        W17268  30.580  12.789   1.774
57524W        W17269  26.199   5.332  10.441
57525W        W17270  10.332  31.530   3.797
57526W        W17271   1.774  39.357   5.654
57527W        W17272  27.608  28.949   2.819
57528W        W17273  38.547  25.967   1.335
57529W        W17274  20.041  43.327   4.659
57530W        W17275  27.518  22.519   3.340
57531W        W17276   2.425  13.248   4.244
57532W        W17277  44.888   1.857  12.887
57533W        W17278  31.545  13.327  13.906
57534W        W17279   6.399   0.884   1.728
57535W        W17280   2.276   7.844  11.921
57536W        W17281   1.751  10.176  12.887
57537W        W17282   1.262   8.863   1.294
57538W        W17283  30.636  10.335  13.403
57539W        W17284  15.577   5.312   3.383
57540W        W17285  30.918  32.012   0.809
57541W        W17286  13.804  42.028   0.453
57542W        W17287   6.274  14.117   1.426
57543W        W17288  35.052   8.762  12.459
57544W        W17289  36.921  33.532   2.819
57545W        W17290  42.982  21.586  12.507
57546W        W17291  21.723  29.076  12.485
57547W        W17292  12.849   5.378  14.346
57548W        W17293  41.455  30.934   5.187
57549W        W17294  12.337   2.853  12.452
57550W        W17295  42.823  12.651   3.235
57551W        W17296  39.523  31.949  14.433
57552W        W17297  15.220  18.668  11.609
57553W        W17298  42.826  20.585   1.447
57554W        W17299   9.709   1.928  12.077
57555W        W17300  16.580  28.094  13.988
57556W        W17301  24.617   2.288  14.462
57557W        W17302   0.786   9.670  12.506
57558W        W17303  31.517  28.173   3.206
57559W        W17304  41.039  19.091   2.720
57560W        W17305  10.277  25.640  13.548
57561W        W17306  38.059   3.926   2.843
57562W        W17307  39.408  36.081  11.063
57563W        W17308  17.214  39.061  14.819
57564W        W17309   4.916  38.991  10.908
57565W        W17310  34.088  34.082   0.737
57566W        W17311   0.383  19.560   1.877
57567W        W17312  35.440  14.599   0.342
57568W        W17313  43.500  44.850   1.447
57569W        W17314  18.108   5.762  12.980
57570W        W17315   1.734   3.881  14.772
57571W        W17316  10.163  44.324   1.397
57572W        W17317  17.634   5.384   0.947
57573W        W17318  14.133  21.570   2.716
57574W        W17319  13.796  15.202   2.716
57575W        W17320   1.937  10.704   2.305
57576W        W17321  41.834  24.063  11.047
57577W        W17322  15.086   4.433   0.297
57578W        W17323  35.534  42.494  12.516
57579W        W17324   8.659  21.702  11.520
57580W        W17325  18.179  42.850  10.934
57581W        W17326  44.336  37.517   1.800
57582W        W17327  21.566   5.310   3.224
57583W        W17328  27.954  28.090  11.038
57584W        W17329   0.902  29.172   3.376
57585W        W17330   3.312   3.756  12.936
57586W        W17331   3.720  44.804  12.565
57587W        W17332  28.674  29.089   0.752
57588W        W17333  40.482  44.806  13.913
57589W        W17334  11.746   0.957  10.522
57590W        W17335  36.440  43.808   4.751
57591W        W17336  43.399  26.579  11.943
57592W        W17337  34.378   9.876  13.917
57593W        W17338   1.973   3.296   3.243
57594W        W17339  37.427  13.325   5.213
57595W        W17340  32.583  35.036   1.748
57596W        W17341   9.378  25.114   1.766
57597W        W17342   8.681  29.979  12.955
57598W        W17343  14.612  36.400   1.787
57599W        W17344  42.326  11.218  11.476
57600W        W17345  14.747  14.775  14.384
57601W        W17346  29.544   4.411  14.361
57602W        W17347  36.363  18.252   1.815
57603W        W17348  10.305  31.126  14.327
57604W        W17349   9.314  22.018  13.981
57605W        W17350  21.077  41.828   5.168
57606W        W17351  33.130  25.544   3.774
57607W        W17352  39.957  39.941   3.842
57608W        W17353  29.558  12.218  10.560
57609W        W17354  14.123  26.157   3.651
57610W        W17355  44.387  34.553  12.396
57611W        W17356  38.969  24.188   2.341
57612W        W17357  10.179  34.919  13.405
57613W        W17358  31.945  40.904  12.363
57614W        W17359  36.484  29.940   0.373
57615W        W17360  36.413  42.901  13.904
57616W        W17361  27.182  44.810   4.180
57617W        W17362   7.860  33.915   0.966
57618W        W17363  15.687   1.849   4.633
57619W        W17364  35.913  12.682   4.213
57620W        W17365   1.340   6.708   1.429
57621W        W17366  29.143  32.464  12.026
57622W        W17367  44.330   0.808   2.898
57623W        W17368  14.766  29.603  12.862
57624W        W17369   5.350  28.001   1.285
57625W        W17370  15.242   7.666   1.396
57626W        W17371  18.591  41.428   2.719
57627W        W17372  26.153   4.731  12.512
57628W        W17373   6.327   5.200   3.797
57629W        W17374  40.006  41.296   3.666
57630W        W17375  15.642   0.907   3.736
57631W        W17376  16.703   9.203   4.121
57632W        W17377  11.700  30.907  12.372
57633W        W17378   4.301  13.718  12.015
57634W        W17379   0.749   5.417   3.193
57635W        W17380  11.723  11.655   3.762
57636W        W17381   4.344  18.164   3.364
57637W        W17382  29.485  37.057   4.329
57638W        W17383   3.756   0.928  14.451
57639W        W17384  40.458  42.381   0.323
57640W        W17385  30.529  30.949  10.055
57641W        W17386  11.685  21.689   1.419
57642W        W17387   2.834  12.763   1.337
57643W        W17388  43.989  38.507   4.236
57644W        W17389  25.689  25.619   1.326
57645W        W17390  18.170  14.185   0.836
57646W        W17391  12.176   8.284   1.214
57647W        W17392  23.127  28.156  12.532
57648W        W17393  10.374   8.831   3.698
57649W        W17394  44.476  16.119  11.922
57650W        W17395  36.044  31.559   1.879
57651W        W17396  31.602  18.701  14.000
57652W        W17397  20.121  17.239  12.980
57653W        W17398  11.246   6.367  14.379
57654W        W17399  14.117   6.705  10.956
57655W        W17400  27.945   0.465  13.429
57656W        W17401  25.577   9.235   2.341
57657W        W17402  13.759   8.737  11.600
57658W        W17403  31.529  12.246   4.149
57659W        W17404   6.739  35.382  14.784
57660W        W17405   9.325   5.309   4.644
57661W        W17406   6.906  40.813   3.745
57662W        W17407  28.582  12.321   2.676
57663W        W17408  42.497  25.692  11.856
57664W        W17409  31.135  20.570   3.290
57665W        W17410  44.262  30.514  10.590
57666W        W17411   7.677  12.642  11.009
57667W        W17412  11.331   3.441  10.435
57668W        W17413  33.429   4.909  12.966
57669W        W17414  33.612   9.192   1.919
57670W        W17415  18.566  25.586  12.906
57671W        W17416  33.050  13.315  14.468
57672W        W17417  26.953  24.064   4.782
57673W        W17418  34.962  14.767  11.590
57674W        W17419  28.619  43.806  14.307
57675W        W17420  15.719  33.996  14.460
57676W        W17421  39.832   7.252   3.797
57677W        W17422   0.910  11.699  14.915
57678W        W17423  42.334  18.288  14.999
57679W        W17424   4.863  41.537   3.767
57680W        W17425  14.165   4.768   3.379
57681W        W17426  24.006   3.852  12.084
57682W        W17427   4.784   6.189   2.401
57683W        W17428  34.875  10.192   1.931
57684W        W17429  27.119   2.840  13.833
57685W        W17430  28.994   3.756  10.930
57686W        W17431  20.527  33.444  14.413
57687W        W17432  20.717  37.405   4.187
57688W        W17433   5.271  17.671   2.262
57689W        W17434   5.929  25.515  14.881
57690W        W17435   5.728  30.511   4.772
57691W        W17436  34.014  11.644   3.846
57692W        W17437  19.172  41.364   2.799
57693W        W17438  14.183  41.901   0.771
57694W        W17439  34.549  32.032   0.482
57695W        W17440  43.290  21.162   0.805
57696W        W17441  11.754  39.959   1.752
57697W        W17442  38.966  40.001   2.682
57698W        W17443   8.173  24.596   1.226
57699W        W17444  24.078  24.068  13.060
57700W        W17445  43.901  35.064   1.907
57701W        W17446  22.227  21.026   2.194
57702W        W17447  16.724  33.119   3.363
57703W        W17448  44.762   3.435   2.676
57704W        W17449  12.170  23.592   1.268
57705W        W17450  26.634  27.580  12.396
57706W        W17451  41.810  17.212   2.242
57707W        W17452  25.084  19.610   2.789
57708W        W17453  12.684  34.459   1.237
57709W        W17454   1.458  27.120   4.706
57710W        W17455   3.438   3.381   0.775
57711W        W17456  42.961  43.451   1.784
57712W        W17457  20.755  28.979  13.833
57713W        W17458   3.233  32.069   2.251
57714W        W17459   4.837  36.503  12.339
57715W        W17460  27.182  23.618  10.928
57716W        W17461  18.592  34.918  10.955
57717W        W17462  38.017  25.029   4.726
57718W        W17463  14.661  28.024  11.500
57719W        W17464  33.060   2.283  12.913
57720W        W17465  34.426  29.984   2.212
57721W        W17466  23.545   9.245   0.813
57722W        W17467  33.981  42.858  10.455
57723W        W17468  39.493  44.447   1.366
57724W        W17469   1.839  12.147   1.246
57725W        W17470  36.888  25.034  12.499
57726W        W17471  26.548  18.754   0.891
57727W        W17472   7.689  20.157  14.969
57728W        W17473  21.201  30.072  12.444
57729W        W17474  22.705   2.318   0.430
57730W        W17475  31.635  34.891  13.545
57731W        W17476  36.930  32.594   2.838
57732W        W17477  18.628   2.379  10.512
57733W        W17478  12.817  38.503   2.840
57734W        W17479  30.975  30.028  14.860
57735W        W17480  19.778   6.775  14.904
57736W        W17481  27.007  20.108   4.614
57737W        W17482  42.864  13.267  13.990
57738W        W17483  38.520  12.244   3.230
57739W        W17484  43.919  33.403   3.672
57740W        W17485  40.414   4.913  10.957
57741W        W17486  11.327  11.622   3.298
57742W        W17487  42.313  14.214   3.161
57743W        W17488  13.716  38.366   3.238
57744W        W17489  15.139  18.232  12.934
57745W        W17490  35.095   6.776  11.085
57746W        W17491  13.260  39.522   2.783
57747W        W17492  20.131  20.589  10.644
57748W        W17493   8.314  28.444  13.999
57749W        W17494   8.735  26.118   2.212
57750W        W17495  32.605  41.339  14.479
57751W        W17496  36.941   6.193   0.322
57752W        W17497   4.297  16.157  13.491
57753W        W17498  16.113  34.586   1.736
57754W        W17499  24.614   1.369   0.316
57755W        W17500  35.020  44.770  11.559
57756W        W17501   6.380  20.110   3.844
57757W        W17502   0.800  39.918   9.499
57758W        W17503  44.922  29.127  13.011
57759W        W17504   2.367  40.543   5.648
57760W        W17505   2.959  41.484  14.334
57761W        W17506  20.646   4.377  13.880
57762W        W17507  31.033  22.514  14.461
57763W        W17508  24.104   6.383   2.862
57764W        W17509  30.657  30.940   3.323
57765W        W17510  10.835  39.889  14.421
57766W        W17511   0.286   3.412   3.707
57767W        W17512  29.111   5.718   2.226
57768W        W17513  22.539  13.729  12.088
57769W        W17514  35.410   6.690  12.968
57770W        W17515  39.030  23.675   1.908
57771W        W17516   0.953   3.400  13.311
57772W        W17517  37.392  15.641  10.584
57773W        W17518  32.430  39.391  12.525
57774W        W17519  19.614   1.937  11.558
57775W        W17520  11.168  32.072   4.766
57776W        W17521  14.243  23.021  13.838
57777W        W17522   9.174   8.372   1.768
57778W        W17523  28.984  41.016   2.886
57779W        W17524  28.606   2.271   3.651
57780W        W17525  32.037  31.607   4.118
57781W        W17526  15.211  15.224   0.944
57782W        W17527  12.345  22.025  13.463
57783W        W17528   8.360  21.737   2.839
57784W        W17529   7.175  26.515   2.223
57785W        W17530   5.914   6.681   0.389
57786W        W17531  23.204  18.573  12.960
57787W        W17532  29.097  18.684  11.909
57788W        W17533  15.764   8.755  13.532
57789W        W17534  25.035  24.573   4.673
57790W        W17535  18.552  19.730   3.363
57791W        W17536   1.419   1.859  13.545
57792W        W17537  25.181  23.606   2.893
57793W        W17538  35.075  21.024   3.843
57794W        W17539   4.845   9.845  14.391
57795W        W17540  37.537  11.814   4.615
57796W        W17541   0.392   9.215   1.428
57797W        W17542  39.324   4.714   9.961
57798W        W17543  23.083  27.073  11.111
57799W        W17544  23.044  37.379  12.877
57800W        W17545   6.255  36.973  13.323
57801W        W17546  24.624  35.376   4.806
57802W        W17547  24.166  26.698   2.237
57803W        W17548  33.041   6.398  14.454
57804W        W17549   7.897   6.898   4.231
57805W        W17550  26.695   1.888  13.465
57806W        W17551  25.660  14.257   1.210
57807W        W17552  13.183  30.639   3.270
57808W        W17553  41.474  39.533   0.471
57809W        W17554  37.555  40.989  13.390
57810W        W17555  39.901  17.754   3.154
57811W        W17556  29.111   2.840  14.332
57812W        W17557  23.995  34.551  14.463
57813W        W17558  34.915  29.106   3.843
57814W        W17559  29.503  10.328  13.537
57815W        W17560  21.048  36.447  10.584
57816W        W17561  42.451  43.432   3.750
57817W        W17562  18.137   4.898  11.928
57818W        W17563  20.604  11.359  13.541
57819W        W17564  31.034  41.881  11.019
57820W        W17565  35.888  42.965  14.344
57821W        W17566  26.014  30.139   0.374
57822W        W17567  13.141  42.408   4.159
57823W        W17568  32.460  14.656  13.015
57824W        W17569  18.645   8.340   4.636
57825W        W17570  33.998  24.577   4.282
57826W        W17571   9.851   4.818   1.880
57827W        W17572  35.483   7.388  14.814
57828W        W17573  38.054   1.274  13.957
57829W        W17574   7.767  43.005  13.409
57830W        W17575  11.676   3.301  13.008
57831W        W17576  39.973  23.632  11.864
57832W        W17577  37.991  10.687   1.236
57833W        W17578  15.707  40.341   4.216
57834W        W17579  35.443  43.444   2.878
57835W        W17580  41.873  16.687  13.409
57836W        W17581  18.777  11.754   3.769
57837W        W17582  28.975   1.298  13.342
57838W        W17583  27.532   4.728   1.742
57839W        W17584  21.018   9.377  14.962
57840W        W17585  31.460   2.915  13.869
57841W        W17586  44.800  18.674   2.725
57842W        W17587  27.602  27.597  10.081
57843W        W17588  29.124  33.021   1.422
57844W        W17589  19.071   0.915  11.606
57845W        W17590  28.138  11.185  11.427
57846W        W17591  25.474  21.229   0.306
57847W        W17592   8.799   2.902  14.024
57848W        W17593  30.628  16.291  12.521
57849W        W17594  36.472  35.024   3.793
57850W        W17595   4.822  25.697  13.483
57851W        W17596  20.098  36.863  13.422
57852W        W17597  20.079   3.380   3.353
57853W        W17598   4.710  20.231  11.962
57854W        W17599  14.135  17.158   4.813
57855W        W17600  17.096  10.167  13.064
57856W        W17601   2.392  10.714   2.187
57857W        W17602  22.563  19.623   1.414
57858W        W17603  41.319  27.682  14.468
57859W        W17604  23.162   6.707   3.846
57860W        W17605   1.884  24.130  13.373
57861W        W17606  21.240  26.952  13.435
57862W        W17607  19.705   8.312  11.449
57863W        W17608  22.164  19.089  12.826
57864W        W17609   8.198  19.694  13.010
57865W        W17610  13.674  16.776  11.395
57866W        W17611  29.109  25.193   0.752
57867W        W17612   8.805   7.310   3.738
57868W        W17613  13.756   3.248   2.239
57869W        W17614  11.827   3.272   5.129
57870W        W17615  36.578   6.422   0.934
57871W        W17616   9.773  39.349  13.354
57872W        W17617  11.779  40.504   3.284
57873W        W17618  26.006   1.339   2.364
57874W        W17619  15.697  32.415  12.373
57875W        W17620   6.830  20.718  11.004
57876W        W17621  17.702  40.527   4.756
57877W        W17622   3.797   0.849   4.821
57878W        W17623  32.131  10.708  12.081
57879W        W17624   6.415  32.462  11.039
57880W        W17625  28.180  23.001  14.339
57881W        W17626  39.469   4.255  14.405
57882W        W17627  14.283  34.539  13.956
57883W        W17628  43.451   5.847  12.535
57884W        W17629  31.569  22.105   4.212
57885W        W17630  38.995   5.419  11.500
57886W        W17631  11.214  18.732   4.135
57887W        W17632  37.909   7.826  12.020
57888W        W17633  24.072  41.965   4.634
57889W        W17634  38.505   4.868  14.768
57890W        W17635  30.992  27.527   0.958
57891W        W17636  33.894  21.689   4.758
57892W        W17637  10.664  31.608   1.737
57893W        W17638   0.801   3.297   2.413
57894W        W17639  33.021  42.921  13.471
57895W        W17640  22.539  16.774  14.483
57896W        W17641   6.360  44.429  14.355
57897W        W17642   9.817  38.373  12.058
57898W        W17643  37.980   1.270   1.832
57899W        W17644  16.751  15.719   2.825
57900W        W17645  20.609  24.092  11.122
57901W        W17646  38.408  27.146   0.841
57902W        W17647  14.103  39.986   0.377
57903W        W17648  24.051  44.294   4.787
57904W        W17649   3.743   8.778   3.334
57905W        W17650  10.642  18.072  11.001
57906W        W17651  24.228  21.528   1.280
57907W        W17652   1.853  35.424   4.748
57908W        W17653  35.413   4.327  12.040
57909W        W17654   1.832  20.267   1.228
57910W        W17655   3.459  39.555   3.226
57911W        W17656  24.086  25.109   2.347
57912W        W17657  21.757  31.455   9.469
57913W        W17658  24.624  39.971  14.768
57914W        W17659  32.076  37.481   0.386
57915W        W17660  39.859  30.015  11.070
57916W        W17661  32.528   6.700  11.456
57917W        W17662  43.893  19.689   0.434
57918W        W17663  37.001  19.284   4.731
57919W        W17664  32.552  25.545   1.694
57920W        W17665  14.109  43.377   3.283
57921W        W17666   9.672  14.677   0.741
57922W        W17667  14.618  26.183  11.124
57923W        W17668  33.409   0.789   2.817
57924W        W17669  19.054  23.075  12.355
57925W        W17670   1.429   7.819   4.118
57926W        W17671  32.022  14.143  12.341
57927W        W17672  32.021  26.462   0.738
57928W        W17673  40.548  26.648   2.699
57929W        W17674  44.442  35.954  14.369
57930W        W17675  27.470  16.730   3.683
57931W        W17676  10.723  15.269  14.775
57932W        W17677  20.192  40.029   2.761
57933W        W17678  44.954  42.935  10.630
57934W        W17679  11.179  38.520   0.425
57935W        W17680  14.655   9.880  14.847
57936W        W17681  19.258  13.234   1.228
57937W        W17682  11.632  40.375   0.777
57938W        W17683  30.960  16.250   0.825
57939W        W17684  37.953  33.091  10.472
57940W        W17685   6.335  28.475   4.218
57941W        W17686  22.129  34.610   0.423
57942W        W17687  10.691  33.450   4.773
57943W        W17688   4.843  17.797  12.850
57944W        W17689  12.302  39.917  14.456
57945W        W17690  41.814   3.763   3.327
57946W        W17691  40.844  12.742   4.646
57947W        W17692  44.958   6.402   4.606
57948W        W17693  12.317  14.813   4.752
57949W        W17694   7.741  26.150   4.303
57950W        W17695   7.876  26.025   0.826
57951W        W17696   5.737  43.337  14.488
57952W        W17697  27.955   2.420  13.494
57953W        W17698  13.180  24.709   3.699
57954W        W17699   9.774  24.123  11.376
57955W        W17700   3.380  17.294   1.783
57956W        W17701  14.175  36.945   0.780
57957W        W17702  31.460   2.799   0.312
57958W        W17703  43.961  44.289  11.920
57959W        W17704  15.729  29.170  12.032
57960W        W17705  10.727   1.374  13.516
57961W        W17706  28.439  24.578  14.449
57962W        W17707  39.441  27.645  13.014
57963W        W17708   0.493  14.827  14.420
57964W        W17709  33.403  11.216  13.058
57965W        W17710  18.081  44.006  14.884
57966W        W17711  11.310   4.871   0.327
57967W        W17712  29.106  34.026  11.479
57968W        W17713  25.066   2.791   4.255
57969W        W17714  28.680  18.083   4.195
57970W        W17715  23.682  38.511   1.422
57971W        W17716  23.706   4.377  11.409
57972W        W17717  11.282  35.529   1.447
57973W        W17718   8.792   4.876  10.639
57974W        W17719  38.567  13.270  14.357
57975W        W17720  13.256  21.150  10.611
57976W        W17721  22.094  10.369  14.396
57977W        W17722   4.769  12.133   3.728
57978W        W17723  21.711   1.903   0.337
57979W        W17724  39.881   3.411  10.538
57980W        W17725  35.906  14.635   0.375
57981W        W17726  11.742  33.512   3.844
57982W        W17727  38.892  21.661   3.171
57983W        W17728  27.497  16.766   0.745
57984W        W17729  39.419  15.086   1.823
57985W        W17730  42.023   5.701   2.762
57986W        W17731  29.953  16.195   2.821
57987W        W17732  33.468   3.812  13.371
57988W        W17733   7.221  10.766   2.395
57989W        W17734   4.213  25.972  10.994
57990W        W17735  17.590  31.958   2.826
57991W        W17736  36.403  11.817   5.233
57992W        W17737  33.884  33.444  10.419
57993W        W17738  23.014  39.534   1.780
57994W        W17739   8.784  10.810   1.400
57995W        W17740  40.500   5.311   1.316
57996W        W17741  44.313  10.309  10.579
57997W        W17742  41.801  33.028  12.080
57998W        W17743  42.847  22.677  12.017
57999W        W17744  43.352  21.029  11.969
58000W        W17745  11.129  36.522   4.174
58001W        W17746  43.006  40.904  10.956
58002W        W17747   3.429  11.780  13.363
58003W        W17748   4.732   1.962   3.670
58004W        W17749  34.039  13.836   1.874
58005W        W17750  13.640   8.783   3.380
58006W        W17751  41.312  37.370   0.863
58007W        W17752   4.290  10.369   4.283
58008W        W17753  25.159  40.048  10.461
58009W        W17754  30.596   3.916  12.840
58010W        W17755  15.669  42.890  11.579
58011W        W17756  27.147  27.096  13.039
58012W        W17757  20.729  39.513   1.929
58013W        W17758  11.709  42.492  14.876
58014W        W17759  15.166  25.131   4.308
58015W        W17760  38.551  36.529   3.693
58016W        W17761  10.204  34.992   5.281
58017W        W17762  34.974  38.029   4.298
58018W        W17763  21.596  31.920   2.711
58019W        W17764  32.108  23.009  13.930
58020W        W17765  34.484  12.225  11.576
58021W        W17766   0.252  22.177  11.447
58022W        W17767  14.321  14.820  14.363
58023W        W17768  20.132  31.011  12.456
58024W        W17769  32.573  25.543  11.096
58025W        W17770  12.657  30.939  11.902
58026W        W17771  14.267  37.006   1.871
58027W        W17772   9.751  20.636   1.258
58028W        W17773   4.928  13.291  14.955
58029W        W17774  43.973  22.663  10.592
58030W        W17775  22.687  35.406   3.653
58031W        W17776  13.135   1.245   3.302
58032W        W17777  23.236  20.105   4.298
58033W        W17778  12.714  27.669   0.390
58034W        W17779   6.890  36.539   3.723
58035W        W17780  14.322  10.279  10.607
58036W        W17781  13.253  33.497   0.922
58037W        W17782  25.625  34.947   0.904
58038W        W17783  18.633  12.276  11.610
58039W        W17784   3.889  14.701   4.740
58040W        W17785  28.974  25.009   1.414
58041W        W17786   2.809   9.757   1.304
58042W        W17787  17.068  34.604   2.325
58043W        W17788  18.590  17.677   2.843
58044W        W17789  24.620  42.814  14.858
58045W        W17790   2.937  42.004   0.875
58046W        W17791   4.399   4.879   4.164
58047W        W17792   9.780  29.072  10.614
58048W        W17793   2.443  32.534   1.935
58049W        W17794  35.005  25.014  10.566
58050W        W17795   6.220   3.850   2.251
58051W        W17796  35.041   1.248  10.441
58052W        W17797  34.409   8.757   3.207
58053W        W17798  18.161  27.160  10.512
58054W        W17799  23.707   9.186  11.563
58055W        W17800  39.323  10.814  11.864
58056W        W17801   3.456  17.128   2.668
58057W        W17802  11.650  43.921  12.455
58058W        W17803  20.606  19.611  14.932
58059W        W17804   9.332  44.497  11.465
58060W        W17805  11.855   8.346  11.509
58061W        W17806   9.330  42.784  11.126
58062W        W17807   0.806  12.283  12.358
58063W        W17808   8.815   7.848  14.407
58064W        W17809  18.682  25.049  10.427
58065W        W17810   3.353  21.743   1.807
58066W        W17811   1.934   0.800   5.261
58067W        W17812   4.814  28.441  13.977
58068W        W17813   6.364  38.075   3.761
58069W        W17814  11.700  40.905  12.096
58070W        W17815  20.116   8.755   5.100
58071W        W17816  37.855  26.013  14.989
58072W        W17817  10.692  29.108   2.860
58073W        W17818   4.390   6.241   4.254
58074W        W17819  18.173  27.052  13.881
58075W        W17820  12.765  18.258   2.860
58076W        W17821   9.704  41.833   1.797
58077W        W17822  37.410  23.170   4.776
58078W        W17823  25.014  36.552  11.409
58079W        W17824  39.994  39.543   3.749
58080W        W17825  42.834   0.401  12.472
58081W        W17826  26.951  38.548   3.295
58082W        W17827  23.669   1.890   2.794
58083W        W17828  23.985  42.935   1.415
58084W        W17829  44.864  42.362   4.651
58085W        W17830  43.458  18.569  12.851
58086W        W17831  22.667  17.175   4.811
58087W        W17832   4.734  24.107   2.280
58088W        W17833  26.639  14.668  11.428
58089W        W17834  12.773  12.222  12.975
58090W        W17835   5.248  40.304  11.913
58091W        W17836   4.339  30.979   0.471
58092W        W17837  14.826   4.339  13.823
58093W        W17838  25.547  32.579  10.959
58094W        W17839  41.533  35.921   1.302
58095W        W17840  33.457  33.906   0.442
58096W        W17841  44.874  14.219   5.131
58097W        W17842  21.117  36.537  11.122
58098W        W17843  18.770  14.824  12.893
58099W        W17844   5.762  26.979  14.808
58100W        W17845   2.783  37.375   3.716
58101W        W17846  43.304   7.889  14.281
58102W        W17847  43.813  26.999  13.064
58103W        W17848   3.720   6.279  13.518
58104W        W17849  35.044  41.348  11.973
58105W        W17850  23.729   2.911   1.360
58106W        W17851   7.910  26.131   4.649
58107W        W17852  25.050  39.053   4.306
58108W        W17853  28.658  38.343  11.997
58109W        W17854   2.754  34.531  11.120
58110W        W17855  24.523   7.848   0.257
58111W        W17856   9.763  44.827  12.044
58112W        W17857  28.629   4.205   4.332
58113W        W17858  27.460  24.635  13.836
58114W        W17859  29.123  22.702  11.043
58115W        W17860  15.797  26.563  13.960
58116W        W17861  11.259  33.090   1.401
58117W        W17862  40.426   2.297   3.630
58118W        W17863  35.940   7.380  14.954
58119W        W17864  13.121   9.281   0.793
58120W        W17865  26.653  36.088   1.850
58121W        W17866   2.929  30.021   0.812
58122W        W17867  28.139   6.256  10.100
58123W        W17868  28.084   2.345   0.828
58124W        W17869  40.870  24.031   2.412
58125W        W17870  41.499   2.372   3.209
58126W        W17871   8.744  30.439   1.719
58127W        W17872  25.635  17.200   3.378
58128W        W17873  17.076  33.093  10.473
58129W        W17874  17.642  25.187  14.466
58130W        W17875  13.721   3.816   4.266
58131W        W17876  10.838  20.156   0.344
58132W        W17877  41.997  20.574  13.833
58133W        W17878   8.759  34.946   1.301
58134W        W17879   7.383   0.468  14.389
58135W        W17880  10.307  23.137  13.462
58136W        W17881  30.917  31.416   3.681
58137W        W17882  42.783  13.700  10.525
58138W        W17883  26.461  44.006   4.194
58139W        W17884  33.050  41.534  14.968
58140W        W17885   0.946   9.782   4.317
58141W        W17886  24.081  10.383  11.531
58142W        W17887  40.979   0.409   2.801
58143W        W17888  40.502   0.351   1.774
58144W        W17889   1.859   6.340  11.413
58145W        W17890   9.394   5.214  13.819
58146W        W17891   3.924  43.396  11.556
58147W        W17892  43.908   8.236  11.938
58148W        W17893  26.681   8.660  12.354
58149W        W17894   3.363  26.560   4.698
58150W        W17895  18.188  11.732  13.364
58151W        W17896  26.105  35.957  10.422
58152W        W17897  21.243  30.955   2.853
58153W        W17898  37.007  18.180   0.856
58154W        W17899  30.553  13.178  10.636
58155W        W17900  30.916  34.490  14.999
58156W        W17901   9.776  20.116   2.850
58157W        W17902  10.312  39.927   2.794
58158W        W17903  33.624  40.430  12.838
58159W        W17904   4.374  42.444   0.417
58160W        W17905   0.312  41.372  10.942
58161W        W17906  27.033  24.069   4.190
58162W        W17907  34.965  44.855  12.490
58163W        W17908  31.036  26.094  11.533
58164W        W17909  17.765   3.802  12.033
58165W        W17910  36.897  27.478   4.334
58166W        W17911  37.474  24.182   3.245
58167W        W17912  30.071  16.150  11.524
58168W        W17913  30.471   3.329   9.562
58169W        W17914  44.491  32.570  14.944
58170W        W17915  17.161  15.697   5.310
58171W        W17916  22.659  39.503  14.030
58172W        W17917  40.392  26.989  12.857
58173W        W17918  21.020   9.336   4.646
58174W        W17919  37.945  15.322  11.930
58175W        W17920   8.661  34.474  13.383
58176W        W17921  27.459  18.559   1.889
58177W        W17922  24.617  11.184   0.790
58178W        W17923  20.209   0.982  14.007
58179W        W17924  22.133  36.527  13.887
58180W        W17925  21.705  43.473   4.132
58181W        W17926   9.388   2.352   2.705
58182W        W17927   8.342   6.409  12.388
58183W        W17928  17.282  20.740  13.940
58184W        W17929  38.514  40.824  13.903
58185W        W17930  36.003  44.797  14.777
58186W        W17931  18.567  40.889  14.893
58187W        W17932  27.641  39.829  11.468
58188W        W17933  27.485  39.979  14.326
58189W        W17934  13.346   5.845   4.801
58190W        W17935  38.843  21.222   4.713
58191W        W17936  10.779   2.804  13.470
58192W        W17937   4.917   6.909   0.908
58193W        W17938  27.597  40.386   3.715
58194W        W17939   1.839   2.344  10.405
58195W        W17940  28.459  31.108   2.852
58196W        W17941  32.011  12.238   4.229
58197W        W17942  36.925  38.996  12.435
58198W        W17943   9.849  22.684   4.752
58199W        W17944  37.381   7.901  10.460
58200W        W17945  24.630  41.335  12.527
58201W        W17946   7.779  37.870   2.251
58202W        W17947  24.588  30.627   0.264
58203W        W17948  42.924  43.779   2.875
58204W        W17949  43.828  16.093  14.378
58205W        W17950  27.137   8.756  13.450
58206W        W17951   1.938  33.550   3.186
58207W        W17952   3.811  35.474   2.292
58208W        W17953  27.590   8.188   3.303
58209W        W17954  21.157   4.739   1.224
58210W        W17955  17.134  40.917   4.222
58211W        W17956   2.305  38.827  13.451
58212W        W17957  11.852  25.118   1.399
58213W        W17958  31.497  27.538  13.977
58214W        W17959  15.243   3.366   2.355
58215W        W17960  10.173   6.378   5.166
58216W        W17961   5.785  44.848   2.713
58217W        W17962  22.159   3.420  13.998
58218W        W17963  17.612  44.899   4.774
58219W        W17964   5.432  30.149   3.812
58220W        W17965  27.017   3.807   2.378
58221W        W17966  43.366  38.533  10.575
58222W        W17967  21.198   6.776   3.241
58223W        W17968   5.917  43.940  11.981
58224W        W17969  40.306  14.163  14.963
58225W        W17970  35.095  33.524   3.742
58226W        W17971  18.651  10.639   4.666
58227W        W17972  32.075   2.392  10.640
58228W        W17973   8.165  36.553   3.386
58229W        W17974  32.616  14.319  14.318
58230W        W17975  33.126  25.173  13.356
58231W        W17976  41.832  12.718  14.940
58232W        W17977  28.455  28.485  11.479
58233W        W17978  10.223  33.024  10.471
58234W        W17979  30.020   5.195   1.348
58235W        W17980   3.880   4.884  13.842
58236W        W17981  39.466  22.229   3.675
58237W        W17982  16.567  42.804  11.546
58238W        W17983  18.708  20.035   4.278
58239W        W17984   9.742  35.957   1.283
58240W        W17985  20.647  40.321  12.383
58241W        W17986  36.085  10.857  13.056
58242W        W17987  28.586  16.808   2.291
58243W        W17988   5.915  38.500  12.500
58244W        W17989  15.762   5.381   1.265
58245W        W17990  11.255  10.724   2.761
58246W        W17991  34.470  18.699   1.377
58247W        W17992  17.643   0.316  12.568
58248W        W17993  15.821  36.565   3.645
58249W        W17994  33.605   0.456   3.672
58250W        W17995  25.090   5.392  12.982
58251W        W17996   6.186  28.064   2.316
58252W        W17997   7.909   5.288   1.288
58253W        W17998   6.789  32.933   2.250
58254W        W17999  27.996  29.160   1.789
58255W        W18000   1.951  26.588  14.783
58256W        W18001  10.342  14.298  14.914
58257W        W18002   7.370   7.873   1.227
58258W        W18003  17.095  35.868  10.918
58259W        W18004   3.364   6.358   3.351
58260W        W18005  19.100   6.743  10.408
58261W        W18006  14.288  15.110  11.004
58262W        W18007  25.592  30.486   4.222
58263W        W18008  24.977   3.828  11.112
58264W        W18009  16.711   5.687  13.402
58265W        W18010  11.182  31.423   0.922
58266W        W18011   3.785   6.896  13.446
58267W        W18012  17.688   5.772   3.641
58268W        W18013  22.700  32.510  10.070
58269W        W18014  41.953   6.707  12.982
58270W        W18015  44.365  28.978   2.221
58271W        W18016  24.013  25.989  11.060
58272W        W18017   9.693  18.185  12.869
58273W        W18018  33.105  15.308   3.766
58274W        W18019  27.679  38.337   3.256
58275W        W18020  23.014  30.936  12.845
58276W        W18021  36.539  24.179  14.451
58277W        W18022   4.772   8.231  13.031
58278W        W18023  43.422  16.738   2.318
58279W        W18024  19.124  28.104  12.949
58280W        W18025  19.540  34.973  14.382
58281W        W18026  21.081  15.224  11.859
58282W        W18027  28.523  13.178  12.952
58283W        W18028  38.371  14.825   3.772
58284W        W18029   5.913  41.414  13.483
58285W        W18030  41.522   1.734  13.813
58286W        W18031  21.252   4.886  14.330
58287W        W18032   2.946  19.070   2.800
58288W        W18033  43.434  39.346   0.246
58289W        W18034  16.714  10.680  14.444
58290W        W18035  27.983   9.766  11.879
58291W        W18036  16.270   6.201   4.780
58292W        W18037  23.684   2.929  12.429
58293W        W18038  42.813  43.371   2.209
58294W        W18039  11.705   5.353   0.354
58295W        W18040  43.868   6.245  14.842
58296W        W18041  25.038  19.629  10.994
58297W        W18042  23.998  39.392   0.924
58298W        W18043  29.140  32.120  12.377
58299W        W18044   7.376  40.538  12.534
58300W        W18045   8.679   7.860   4.771
58301W        W18046  42.912  31.910   4.289
58302W        W18047  13.706  18.259  12.417
58303W        W18048   6.274   6.340  12.984
58304W        W18049  11.757  33.023  13.019
58305W        W18050  37.922  12.119   3.787
58306W        W18051  19.765   3.885   0.844
58307W        W18052  14.711   2.425  13.062
58308W        W18053  38.467  37.079   1.841
58309W        W18054  34.563  33.918  13.312
58310W        W18055  39.510  19.626   3.793
58311W        W18056  25.635  13.200  12.498
58312W        W18057  41.936   4.357   3.263
58313W        W18058  27.068  24.155   3.813
58314W        W18059  10.843   7.788  13.837
58315W        W18060  39.917   9.818  10.479
58316W        W18061  13.278  24.499  14.451
58317W        W18062  43.451  17.270   0.254
58318W        W18063  16.575  28.096  14.346
58319W        W18064  28.935   0.302   4.683
58320W        W18065  44.850   6.372  13.529
58321W        W18066   7.411  28.542   2.282
58322W        W18067  44.292  21.132  11.467
58323W        W18068  34.108  20.039   5.747
58324W        W18069  44.480  21.739  10.582
58325W        W18070  19.746  22.137  14.783
58326W        W18071  40.478  34.869   0.402
58327W        W18072  44.948  32.071  14.442
58328W        W18073  44.818  41.787   3.663
58329W        W18074   1.768   9.226   3.346
58330W        W18075   5.265  23.071   2.254
58331W        W18076  42.349  18.774  14.853
58332W        W18077  17.175  36.091   3.220
58333W        W18078  43.492   9.757   0.449
58334W        W18079  42.386  26.987  12.509
58335W        W18080  22.508   3.853   1.371
58336W        W18081   7.406  26.113  13.388
58337W        W18082  11.356   5.368  11.116
58338W        W18083  26.640  21.639  12.510
58339W        W18084  28.018  20.723   4.152
58340W        W18085  35.502  31.411  10.969
58341W        W18086  19.151   1.782  13.439
58342W        W18087   6.422   5.719   0.944
58343W        W18088  39.470  41.933   4.215
58344W        W18089  38.424  27.088   3.367
58345W        W18090   5.821  19.140  11.483
58346W        W18091   7.878  43.338   2.358
58347W        W18092   0.836   2.896   0.273
58348W        W18093  28.082  34.109  11.031
58349W        W18094   3.715  26.590   1.696
58350W        W18095  43.352   4.428   1.902
58351W        W18096  44.991   8.790  11.097
58352W        W18097  13.725  39.052  11.061
58353W        W18098  37.918  44.321   2.355
58354W        W18099   6.869  41.036  10.485
58355W        W18100   3.737  10.183   3.372
58356W        W18101  25.220  38.387   2.874
58357W        W18102  29.547   3.363   3.159
58358W        W18103   6.368   6.243  10.428
58359W        W18104  30.955   0.845  10.561
58360W        W18105  31.028  26.533  14.854
58361W        W18106  18.623  26.164   0.483
58362W        W18107  44.267   3.258   0.896
58363W        W18108   7.317  33.414  10.430
58364W        W18109  11.832  36.519  13.427
58365W        W18110  39.379  40.526  12.973
58366W        W18111   3.924  41.872  12.845
58367W        W18112   8.752  12.837   0.865
58368W        W18113  38.538  36.407  11.932
58369W        W18114  24.123  38.046   2.706
58370W        W18115   6.192  12.181   0.372
58371W        W18116  23.617  16.277   3.184
58372W        W18117  39.040  38.985  10.507
58373W        W18118  27.190   3.900  11.447
58374W        W18119  40.475  10.767  14.973
58375W        W18120  26.009  16.615  10.619
58376W        W18121  38.058  30.494  13.491
58377W        W18122   1.906  18.258   4.708
58378W        W18123   3.737  41.456   2.404
58379W        W18124  37.000  42.850   2.797
58380W        W18125  25.984  18.170  12.559
58381W        W18126  23.241   8.828   2.224
58382W        W18127  24.215  30.589  14.437
58383W        W18128  36.047  27.024  11.978
58384W        W18129  30.080  19.544  11.862
58385W        W18130   1.786  25.078  12.005
58386W        W18131  29.155   1.481  12.445
58387W        W18132  35.070  32.440  10.919
58388W        W18133  34.433  41.909  10.636
58389W        W18134  11.806   4.238   2.255
58390W        W18135  30.562  19.540   0.275
58391W        W18136  33.573  33.902   3.205
58392W        W18137  35.854   4.762   2.314
58393W        W18138   9.729  19.764  13.023
58394W        W18139  40.860  40.826  12.945
58395W        W18140  32.497  22.076   1.876
58396W        W18141   1.898  16.800   2.787
58397W        W18142  38.047  12.153  14.458
58398W        W18143  35.384   0.945  12.083
58399W        W18144  15.656   3.338  11.403
58400W        W18145   4.938  30.047   3.726
58401W        W18146  28.110  19.557   5.082
58402W        W18147  37.476  33.506  14.328
58403W        W18148   7.685   9.781   3.363
58404W        W18149  23.058   6.725   1.305
58405W        W18150  14.634  26.189   0.785
58406W        W18151  31.485  13.348  12.977
58407W        W18152  11.746   7.692  13.446
58408W        W18153   6.835  24.198   3.157
58409W        W18154   6.201  18.754  14.873
58410W        W18155  15.587  44.774  12.410
58411W        W18156  26.048  16.765  12.508
58412W        W18157  27.659   8.249  14.497
58413W        W18158  16.600  40.020  12.373
58414W        W18159  19.614  33.416  10.084
58415W        W18160   0.487  35.965  11.070
58416W        W18161  30.559  23.123  13.060
58417W        W18162  32.615  10.176   4.668
58418W        W18163  11.262   6.859   2.718
58419W        W18164  30.043  33.582   3.382
58420W        W18165  40.915  13.251   1.923
58421W        W18166  16.073  40.461  13.851
58422W        W18167  35.080   0.483   4.292
58423W        W18168  32.390   7.343  13.859
58424W        W18169   7.830  37.338   5.235
58425W        W18170  15.143  27.446  10.461
58426W        W18171  16.224  42.351  12.089
58427W        W18172  41.967  15.293  10.972
58428W        W18173  15.699   2.403   2.711
58429W        W18174   1.907  11.352   1.873
58430W        W18175  28.575  23.490   1.704
58431W        W18176  40.002   5.333  13.953
58432W        W18177   3.765  38.008   1.407
58433W        W18178   3.411  31.449  12.017
58434W        W18179  29.965  27.990  11.055
58435W        W18180  41.461  19.694   0.413
58436W        W18181  10.259  38.379  13.318
58437W        W18182  44.380  44.504  13.340
58438W        W18183   6.227   8.699   2.350
58439W        W18184  14.181  25.699  12.344
58440W        W18185  10.161  40.980  13.312
58441W        W18186  33.471   6.215   0.278
58442W        W18187  21.232   8.835   0.741
58443W        W18188  42.900  19.139  13.936
58444W        W18189  33.023  36.072  11.529
58445W        W18190  32.980  13.182   3.854
58446W        W18191  41.921  34.980   2.819
58447W        W18192   4.849   1.371   1.241
58448W        W18193  36.023  44.304  10.588
58449W        W18194  40.380  30.910  11.887
58450W        W18195   2.770  29.102   0.394
58451W        W18196  29.621  10.778  13.320
58452W        W18197  13.626  12.342   3.354
58453W        W18198  38.492  36.064  14.326
58454W        W18199  24.199  17.680  12.546
58455W        W18200   2.268  10.197  12.077
58456W        W18201  10.238  22.640  12.023
58457W        W18202  43.825  18.095  11.470
58458W        W18203  39.512  34.067  12.456
58459W        W18204  28.160  25.078   1.768
58460W        W18205  22.223  11.654   3.753
58461W        W18206  18.580   9.655  11.373
58462W        W18207   4.893  12.264  11.006
58463W        W18208  42.375   3.216   5.207
58464W        W18209  26.572  43.510  11.861
58465W        W18210  12.123  44.303   1.811
58466W        W18211  24.602  28.070   1.766
58467W        W18212  15.143  33.479   2.728
58468W        W18213   9.384  23.990  10.419
58469W        W18214  32.629  40.440   2.776
58470W        W18215  24.197  25.533  12.386
58471W        W18216  14.779  40.035  10.532
58472W        W18217  35.949  27.453   4.190
58473W        W18218  41.347  24.679   3.833
58474W        W18219  28.041   3.711   2.779
58475W        W18220  31.923   1.869   4.828
58476W        W18221   1.861  41.912  13.400
58477W        W18222  29.035  15.646   3.816
58478W        W18223  36.458   8.811  13.846
58479W        W18224  42.864  23.534  12.023
58480W        W18225  24.489  40.370   3.657
58481W        W18226  44.838  16.693   1.928
58482W        W18227  10.748  29.136   4.231
58483W        W18228  28.999  21.740  12.407
58484W        W18229  12.694  37.453  14.320
58485W        W18230   6.334   0.888   0.834
58486W        W18231  24.170  42.846   2.320
58487W        W18232   8.178  42.878  13.316
58488W        W18233  18.755  44.366   1.778
58489W        W18234  37.502  17.559  13.879
58490W        W18235  43.965  32.426   4.309
58491W        W18236  31.016  30.951   5.674
58492W        W18237   1.840   3.384   3.840
58493W        W18238   2.726   3.301  14.937
58494W        W18239  43.793  24.017   0.400
58495W        W18240  27.505  33.113  13.378
58496W        W18241  26.061   4.817  14.300
58497W        W18242  18.782  34.922  10.638
58498W        W18243   6.874  40.384   2.845
58499W        W18244  17.134  30.511  14.315
58500W        W18245  17.602  32.977  13.846
58501W        W18246  17.080  32.620  10.541
58502W        W18247  42.931  39.837   0.261
58503W        W18248  22.636  37.962   4.114
58504W        W18249  43.477  44.922   2.349
58505W        W18250  33.006   5.291   1.295
58506W        W18251  22.082  26.582   2.720
58507W        W18252  37.870  36.477   4.675
58508W        W18253  13.169  19.273   2.404
58509W        W18254  44.415  12.172  12.388
58510W        W18255  18.098  44.833   4.219
58511W        W18256  17.269  13.827  13.854
58512W        W18257   4.730  16.130   4.616
58513W        W18258   3.721   2.813   4.316
58514W        W18259  24.720  40.957  12.003
58515W        W18260  26.543   0.852   2.397
58516W        W18261  24.049  42.464   4.134
58517W        W18262  25.694  19.605  13.904
58518W        W18263  34.528  25.997   4.616
58519W        W18264  17.761  31.028   0.386
58520W        W18265  44.872  14.144   3.821
58521W        W18266  43.977  19.162   0.326
58522W        W18267  25.514  23.508  13.021
58523W        W18268  40.962  13.179  11.532
58524W        W18269  34.458   3.775  10.603
58525W        W18270  41.798  15.325   2.208
58526W        W18271  23.119  13.147  11.395
58527W        W18272  18.103  35.900   2.843
58528W        W18273   2.295   7.384  13.343
58529W        W18274  22.196  33.922  10.946
58530W        W18275  14.170   9.360   1.724
58531W        W18276   3.457   7.361  10.511
58532W        W18277  22.538   1.822   3.306
58533W        W18278  33.949  12.127   4.692
58534W        W18279  34.435  12.226   0.753
58535W        W18280  37.999  25.125   0.926
58536W        W18281  43.383  30.531  10.558
58537W        W18282  42.353  31.557  12.950
58538W        W18283  21.056   8.685   5.215
58539W        W18284  16.654  16.752  13.010
58540W        W18285  35.896  10.799  13.525
58541W        W18286  27.661  20.176  14.448
58542W        W18287  14.753  23.217   2.719
58543W        W18288  33.999  35.879  10.498
58544W        W18289   0.430   9.709   0.929
58545W        W18290  29.430  33.045   2.254
58546W        W18291   6.278  29.466   4.645
58547W        W18292   4.321  35.541   9.601
58548W        W18293  10.714  40.871   0.947
58549W        W18294  22.017  16.159  14.488
58550W        W18295  29.992  36.949   1.804
58551W        W18296  32.054  12.702  12.023
58552W        W18297  36.945  20.679   3.719
58553W        W18298  35.601  40.344   4.597
58554W        W18299  20.087   4.318   2.183
58555W        W18300  43.274   8.236  11.895
58556W        W18301  38.399  39.315   4.152
58557W        W18302  23.635  23.210   3.219
58558W        W18303  29.472   5.805  13.004
58559W        W18304  20.248   8.755  11.094
58560W        W18305  34.576  32.010  10.032
58561W        W18306   6.273  42.516   3.741
58562W        W18307  36.403   3.252   4.326
58563W        W18308  43.430  25.197   4.159
58564W        W18309   2.965  43.799  14.827
58565W        W18310   0.280  13.766  12.049
58566W        W18311  38.329  25.068  14.836
58567W        W18312   5.195  23.097  12.947
58568W        W18313  35.076  12.732   3.171
58569W        W18314  20.634   5.792   0.260
58570W        W18315  15.794  20.759   1.410
58571W        W18316   2.354  20.652   0.887
58572W        W18317  34.072  15.240  13.341
58573W        W18318  29.467  28.009  11.001
58574W        W18319  35.583  44.795  11.108
58575W        W18320   9.651  33.924   4.133
58576W        W18321  44.851  27.668   0.782
58577W        W18322  44.262   5.883  13.476
58578W        W18323  11.264  14.150  14.950
58579W        W18324   3.281  43.483   0.295
58580W        W18325  31.544  38.504  10.960
58581W        W18326  44.858   1.858   3.226
58582W        W18327  43.901  24.992   4.838
58583W        W18328  43.302   6.397  11.120
58584W        W18329  44.788   5.888   4.728
58585W        W18330   2.291  42.019  13.525
58586W        W18331  38.861  12.824  13.471
58587W        W18332  29.631  44.322   2.274
58588W        W18333  32.504   1.797   0.343
58589W        W18334  14.156  38.868  11.989
58590W        W18335  38.514  10.801   1.224
58591W        W18336  14.296  31.056   1.443
58592W        W18337  26.126  40.841  14.381
58593W        W18338  18.052  23.089  13.917
58594W        W18339  43.828  12.821   4.610
58595W        W18340   4.907  32.125   2.211
58596W        W18341   6.858  37.376  14.018
58597W        W18342  35.899   1.416  11.010
58598W        W18343  38.825  35.407   2.360
58599W        W18344  24.613  24.584  12.952
58600W        W18345  39.410   0.351  13.949
58601W        W18346   9.237  30.629  12.469
58602W        W18347  44.872   1.890  14.777
58603W        W18348  31.983  16.614   5.281
58604W        W18349   9.367  27.485   0.279
58605W        W18350  40.931  21.135  14.910
58606W        W18351  22.583  11.244   3.147
58607W        W18352  13.341   5.369  12.024
58608W        W18353  10.360  11.714   5.112
58609W        W18354   7.190   2.787   1.393
58610W        W18355   7.859  12.647  14.476
58611W        W18356  30.075  36.948  10.527
58612W        W18357  18.252  33.971   1.923
58613W        W18358  25.619   6.367  11.472
58614W        W18359  39.338  34.027   4.311
58615W        W18360   6.357  10.218  12.507
58616W        W18361  40.863  13.831   4.331
58617W        W18362  22.551  35.899   5.248
58618W        W18363  23.019  30.489  10.124
58619W        W18364  37.884  14.602  12.534
58620W        W18365   3.288   8.228  13.886
58621W        W18366  39.559  14.815  13.891
58622W        W18367  29.659  41.846   4.784
58623W        W18368  29.980  33.380   0.466
58624W        W18369   6.837  28.587   0.424
58625W        W18370   1.438  15.256   9.438
58626W        W18371  17.121   1.276   0.804
58627W        W18372  12.678  35.539  13.862
58628W        W18373  18.093  37.436  11.001
58629W        W18374  37.373   4.922   3.375
58630W        W18375  29.466  36.417   4.823
58631W        W18376  36.460  22.196  14.495
58632W        W18377  13.839  14.100  11.904
58633W        W18378   0.978   6.820  13.880
58634W        W18379  34.106  33.582  13.814
58635W        W18380   2.723  43.797   3.290
58636W        W18381  37.980   5.387  11.061
58637W        W18382  27.588  39.927   3.316
58638W        W18383  34.039   2.764   4.778
58639W        W18384  28.069  26.059   3.200
58640W        W18385  20.167  39.971  11.931
58641W        W18386  17.062  13.623  12.536
58642W        W18387   5.929  35.437  11.023
58643W        W18388  22.073  29.929   0.788
58644W        W18389   0.303  17.102  14.834
58645W        W18390  25.159  25.147  12.073
58646W        W18391  23.201  35.977   2.261
58647W        W18392  16.680  17.780   0.951
58648W        W18393  28.941  15.800   1.892
58649W        W18394   3.378  16.590  11.875
58650W        W18395   9.832  35.971  13.453
58651W        W18396  12.191   6.377  10.511
58652W        W18397  13.343  23.141  11.922
58653W        W18398  14.111  20.733  14.881
58654W        W18399  36.356  11.171  14.009
58655W        W18400  29.962   2.870   0.745
58656W        W18401  37.472  44.482   1.902
58657W        W18402  44.794  10.325  12.498
58658W        W18403  27.499  13.762  14.849
58659W        W18404  36.481  37.335  14.998
58660W        W18405  25.988  18.783  11.126
58661W        W18406  21.257  40.840  11.013
58662W        W18407  21.191  18.756   5.244
58663W        W18408  24.043  44.299   0.444
58664W        W18409  42.482  42.290   3.353
58665W        W18410  30.997  30.494  14.996
58666W        W18411  38.330   7.176  12.953
58667W        W18412  25.646  27.590   0.785
58668W        W18413  12.206  17.201  13.939
58669W        W18414  13.254  38.344   1.245
58670W        W18415  34.882   7.186   2.695
58671W        W18416   7.783  21.124   1.437
58672W        W18417  17.303  36.507   1.346
58673W        W18418  39.332   1.919  11.468
58674W        W18419  42.505  20.747  10.906
58675W        W18420  37.445  18.566   1.756
58676W        W18421  23.612   4.354   2.700
58677W        W18422   6.711   7.862   4.735
58678W        W18423   9.261  41.875  10.561
58679W        W18424  23.647   6.864  11.068
58680W        W18425  15.689  16.097   2.318
58681W        W18426  23.155  21.092  14.907
58682W        W18427  24.585  34.968  13.050
58683W        W18428  25.700  22.251  11.084
58684W        W18429  18.178  37.437  11.573
58685W        W18430  36.967   6.878   2.315
58686W        W18431   7.829  33.524  11.931
58687W        W18432  23.085  10.238   0.252
58688W        W18433  17.644  18.664   1.807
58689W        W18434  23.120  16.224  14.503
58690W        W18435   8.733   5.888   3.365
58691W        W18436   7.290   6.714   0.758
58692W        W18437  44.825  16.216  11.539
58693W        W18438  17.776  10.178  11.949
58694W        W18439   5.830  21.068   4.607
58695W        W18440   6.405  27.624   3.251
58696W        W18441  20.043  17.559   1.286
58697W        W18442  13.824  11.664  11.608
58698W        W18443  20.123   8.676   3.280
58699W        W18444   9.222  35.098  13.798
58700W        W18445  10.807  24.651   4.347
58701W        W18446  20.687  20.540  11.097
58702W        W18447  35.598   3.241  12.425
58703W        W18448  25.046  27.468   0.386
58704W        W18449  10.763  40.366  13.882
58705W        W18450  13.808  29.543  14.933
58706W        W18451   8.836  17.656   3.165
58707W        W18452  23.653   2.742  10.095
58708W        W18453   7.279  43.911  12.929
58709W        W18454  40.841  28.945  12.885
58710W        W18455  40.480  44.894   3.754
58711W        W18456  40.308  17.184   1.269
58712W        W18457   2.423  15.205   1.400
58713W        W18458  24.190  17.157  10.124
58714W        W18459  15.705  30.141   4.347
58715W        W18460  19.175  42.372   3.323
58716W        W18461   4.932  26.674  12.095
58717W        W18462   0.494  17.675  11.885
58718W        W18463   7.726  34.519  14.454
58719W        W18464  11.661  12.236  10.973
58720W        W18465  15.711   4.250   0.927
58721W        W18466  20.148  35.499  12.982
58722W        W18467  32.618  40.840  14.858
58723W        W18468   8.364  44.764  13.903
58724W        W18469  28.474  35.512  13.013
58725W        W18470  40.003  38.495  10.469
58726W        W18471  11.308  22.681  11.922
58727W        W18472  41.344  16.606   1.391
58728W        W18473   0.936   9.815  11.092
58729W        W18474   4.299  22.509   3.258
58730W        W18475  10.140   5.690   3.769
58731W        W18476  32.538   7.404   5.759
58732W        W18477  23.546   2.416   0.316
58733W        W18478  14.718  24.503   0.316
58734W        W18479   5.327  20.137   0.833
58735W        W18480  30.606  44.362   1.447
58736W        W18481  10.322  41.405  10.945
58737W        W18482  10.225   9.394  13.518
58738W        W18483  44.005  37.914   0.892
58739W        W18484  42.818  11.684   2.276
58740W        W18485   4.748  41.022  11.077
58741W        W18486  24.158  32.072   9.467
58742W        W18487  44.763  29.581   3.267
58743W        W18488  33.112  26.009  14.866
58744W        W18489  16.691  26.093   4.644
58745W        W18490  34.557  31.925   3.806
58746W        W18491  10.757   5.835   3.364
58747W        W18492  37.401  21.614  12.454
58748W        W18493  22.142  21.548   0.871
58749W        W18494  35.939  36.505  12.516
58750W        W18495   9.806  12.212   0.417
58751W        W18496  24.563  32.969   4.786
58752W        W18497  14.217  36.546  10.901
58753W        W18498  20.203  25.020  14.029
58754W        W18499  44.372  42.893  14.831
58755W        W18500  14.337  42.358  14.419
58756W        W18501  37.468  42.428   2.807
58757W        W18502  42.476  35.376  12.889
58758W        W18503  24.500  29.124  11.928
58759W        W18504  28.130  19.055   1.339
58760W        W18505  30.443  21.553   1.394
58761W        W18506  10.154  43.390  11.408
58762W        W18507  33.464   5.799  12.462
58763W        W18508  33.479  38.959  14.408
58764W        W18509  16.572  37.379   2.239
58765W        W18510  41.471  35.877  13.946
58766W        W18511  31.477   0.794   2.846
58767W        W18512   4.260   8.888  12.966
58768W        W18513  21.143  43.017  12.001
58769W        W18514  11.625  33.512  14.314
58770W        W18515  32.101   6.798   9.958
58771W        W18516  25.707  19.213  13.950
58772W        W18517  38.839   2.239  12.351
58773W        W18518   2.748  28.123  13.345
58774W        W18519   2.274   7.789  12.369
58775W        W18520   6.912  10.219  11.437
58776W        W18521  20.235  23.014  12.478
58777W        W18522  44.343  43.972   5.221
58778W        W18523  33.494  25.108  14.349
58779W        W18524  19.748  22.713  14.978
58780W        W18525   7.871   5.927   4.302
58781W        W18526  14.646  14.182   0.753
58782W        W18527  34.025   6.424   4.208
58783W        W18528  19.538  33.938   1.447
58784W        W18529  36.082   0.271   2.784
58785W        W18530  34.458  12.230   4.652
58786W        W18531  34.410   0.279   3.668
58787W        W18532  43.014  18.567  14.779
58788W        W18533  22.057  44.992   2.305
58789W        W18534   2.357  14.687  14.979
58790W        W18535  42.890  21.639  11.607
58791W        W18536  23.709   7.212  12.349
58792W        W18537   7.697  34.084  14.418
58793W        W18538  15.099  42.853   2.885
58794W        W18539  40.450  12.234  11.081
58795W        W18540  24.081  24.509  14.890
58796W        W18541  10.754  30.494   3.349
58797W        W18542  40.921  24.643   1.898
58798W        W18543  22.218  33.414   1.426
58799W        W18544   7.276  13.275   1.828
58800W        W18545  39.469   0.471   1.423
58801W        W18546  24.652  37.925   2.883
58802W        W18547  16.213   6.697  11.568
58803W        W18548   2.958  44.444   2.247
58804W        W18549  10.781   5.365   4.295
58805W        W18550   7.898   1.271   4.647
58806W        W18551   0.830  33.964   3.631
58807W        W18552   2.891  15.600   2.373
58808W        W18553  23.182   6.190  10.468
58809W        W18554  15.712  15.802   2.674
58810W        W18555  38.073  36.982   3.701
58811W        W18556  28.098   3.745   0.872
58812W        W18557  37.000  20.553  12.862
58813W        W18558   5.266   9.684   0.737
58814W        W18559   2.328  30.506  14.886
58815W        W18560  37.046   9.247   1.386
58816W        W18561  10.241  10.680   3.154
58817W        W18562  30.158  19.648  12.951
58818W        W18563  18.255  29.978  13.340
58819W        W18564  44.757  31.472  12.009
58820W        W18565  17.095  32.573  13.037
58821W        W18566  40.943  24.486   2.241
58822W        W18567  13.615   4.826   0.293
58823W        W18568   0.927  42.837  10.530
58824W        W18569  18.591  11.239  14.411
58825W        W18570  20.746  22.161   4.298
58826W        W18571  22.715  35.369  11.966
58827W        W18572   6.829  25.619  11.569
58828W        W18573  27.990  43.384  11.411
58829W        W18574  22.207  23.636  11.125
58830W        W18575  39.027  21.139   0.275
58831W        W18576  41.309  11.705   0.317
58832W        W18577  13.271  10.227   3.744
58833W        W18578  22.562  12.213  12.025
58834W        W18579  25.710  39.394  14.513
58835W        W18580  23.713   8.761   3.840
58836W        W18581  29.519  17.683   3.802
58837W        W18582  20.736  24.687   2.399
58838W        W18583  36.346  18.183   4.174
58839W        W18584   0.804  29.521  12.507
58840W        W18585   7.396   9.374  12.368
58841W        W18586  41.379  33.900  12.975
58842W        W18587   9.286   3.789   2.340
58843W        W18588   5.237  30.616  12.521
58844W        W18589  40.039   5.786   4.297
58845W        W18590  30.598  36.021   4.695
58846W        W18591  13.149  22.016  14.981
58847W        W18592  44.412  24.174  10.099
58848W        W18593  10.162  10.299   3.663
58849W        W18594  28.618  33.038   2.827
58850W        W18595  33.607  26.030   4.279
58851W        W18596  16.264  42.914   0.736
58852W        W18597  44.931  13.663  12.867
58853W        W18598  35.568  38.377   0.771
58854W        W18599   0.964  34.058  14.802
58855W        W18600   6.369  32.561  14.942
58856W        W18601  24.604  28.617  12.874
58857W        W18602  27.958  39.398   0.270
58858W        W18603  19.708  12.270   2.668
58859W        W18604  14.765  43.844  10.464
58860W        W18605  19.168  40.022  13.927
58861W        W18606   4.319  32.986  14.913
58862W        W18607  13.715  31.074   0.424
58863W        W18608   4.920  15.326   4.245
58864W        W18609  27.044  24.209   3.196
58865W        W18610   9.389  10.253  10.077
58866W        W18611  32.613  41.372  10.990
58867W        W18612  25.104  30.029  11.109
58868W        W18613  34.006  43.460   2.418
58869W        W18614  29.952  41.440  13.325
58870W        W18615  28.063  34.001  14.957
58871W        W18616  22.043  11.336   4.679
58872W        W18617  12.854  23.088  14.435
58873W        W18618  39.016   2.384  12.071
58874W        W18619  15.326  20.234  13.990
58875W        W18620  29.174  36.888   4.244
58876W        W18621   8.792  15.673   2.826
58877W        W18622  30.414  44.922  14.968
58878W        W18623  39.527  19.750  13.323
58879W        W18624  16.285  16.735  11.932
58880W        W18625  14.242  25.055  11.948
58881W        W18626  28.957  36.088   2.334
58882W        W18627  41.964  23.146  12.532
58883W        W18628  40.365  12.615  11.431
58884W        W18629  18.554  20.028  14.489
58885W        W18630  32.604  11.230   0.349
58886W        W18631  43.427  20.063   9.492
58887W        W18632  24.503  43.493  10.977
58888W        W18633  44.293  29.613   0.749
58889W        W18634   6.808  21.068   2.332
58890W        W18635   6.219   2.443  11.946
58891W        W18636  13.827   9.307  12.375
58892W        W18637  17.750  38.403  14.786
58893W        W18638  41.339  32.035   4.805
58894W        W18639  40.512  26.961  13.968
58895W        W18640  30.548  13.275  11.489
58896W        W18641   3.410  21.735  12.458
58897W        W18642  10.331  36.087  12.932
58898W        W18643  29.665   3.386  12.489
58899W        W18644  40.959   7.327   2.874
58900W        W18645  34.572   2.836  12.024
58901W        W18646  29.958  13.221  12.383
58902W        W18647  32.932   3.815  14.956
58903W        W18648  29.940  32.434   4.317
58904W        W18649  12.743  14.144  14.003
58905W        W18650   4.734   5.743  10.465
58906W        W18651  24.150  21.548  11.515
58907W        W18652  12.790  20.590   1.799
58908W        W18653   3.858  11.723  13.053
58909W        W18654  37.345  35.100  10.496
58910W        W18655  16.309  25.139   0.813
58911W        W18656   0.797  41.446  11.392
58912W        W18657  29.578  35.893  14.996
58913W        W18658  20.616  44.318   0.253
58914W        W18659  41.412  27.144  11.067
58915W        W18660  30.101  40.823  10.578
58916W        W18661  35.915   1.912   4.321
58917W        W18662  25.614  19.139  12.014
58918W        W18663  44.009  43.824   1.294
58919W        W18664  24.982  22.119  10.489
58920W        W18665  11.138  29.427  14.850
58921W        W18666  29.081  12.178   0.779
58922W        W18667  33.056  16.265   2.805
58923W        W18668  35.011  22.034   0.395
58924W        W18669  14.653   4.271  11.548
58925W        W18670  38.350  21.119   2.368
58926W        W18671   7.260  39.377   4.321
58927W        W18672  41.293  12.138   3.781
58928W        W18673  14.669  27.126  12.534
58929W        W18674  43.782  14.206  14.461
58930W        W18675  42.831   4.887  14.988
58931W        W18676  14.260  32.020   0.292
58932W        W18677  37.958  43.364  11.414
58933W        W18678  27.665  38.529   1.246
58934W        W18679  23.134  28.114   4.295
58935W        W18680  43.827   6.771   2.232
58936W        W18681  28.134  32.424  10.593
58937W        W18682  31.512  32.394   4.668
58938W        W18683  32.465   8.387  10.495
58939W        W18684   5.229  29.174  14.902
58940W        W18685   6.782  41.532  10.481
58941W        W18686  33.025   0.882   3.231
58942W        W18687  21.744   0.754   1.377
58943W        W18688  28.986  44.970  13.032
58944W        W18689  43.276  24.497   0.823
58945W        W18690   8.341  33.125   0.376
58946W        W18691   2.749  37.974  14.998
58947W        W18692  35.475  10.178  10.489
58948W        W18693  43.920  19.632  13.416
58949W        W18694   8.747  31.452   4.605
58950W        W18695   6.845   7.700  14.786
58951W        W18696  19.126  39.043   3.330
58952W        W18697  25.511  38.480  14.294
58953W        W18698  16.147  15.822   3.817
58954W        W18699  22.531   2.812   0.389
58955W        W18700  29.555  19.642   4.671
58956W        W18701  11.832  14.794  12.016
58957W        W18702  19.250  25.160   0.772
58958W        W18703   2.828  24.058  12.483
58959W        W18704   3.863  10.313   2.402
58960W        W18705   4.433  20.746  13.467
58961W        W18706   3.230  10.191   4.772
58962W        W18707  28.975  17.168   0.797
58963W        W18708   8.287  44.498   4.769
58964W        W18709  26.996  10.654  12.085
58965W        W18710   9.272  24.691  12.519
58966W        W18711  42.973  33.983  12.087
58967W        W18712  42.925   4.887  14.437
58968W        W18713  29.955  37.403  14.408
58969W        W18714  28.180  35.530  11.049
58970W        W18715  37.836  29.567   1.745
58971W        W18716  33.606  26.695   4.651
58972W        W18717  28.171  15.657   5.259
58973W        W18718  39.439  29.597  14.298
58974W        W18719  21.135   3.794   0.866
58975W        W18720  12.628   2.920  10.895
58976W        W18721  30.615  18.609   1.426
58977W        W18722   5.825  41.859   0.826
58978W        W18723   9.846  38.049  11.492
58979W        W18724   4.248  32.931  12.439
58980W        W18725  11.859   8.889   4.127
58981W        W18726  29.038   9.260   3.827
58982W        W18727   3.457  17.559   0.840
58983W        W18728  33.020  42.398   1.220
58984W        W18729  35.416  14.636  11.390
58985W        W18730  17.094   3.383  11.438
58986W        W18731  32.128  37.075  14.959
58987W        W18732  14.592  10.692  11.873
58988W        W18733  37.581  23.193   3.204
58989W        W18734  16.124   0.391  14.819
58990W        W18735  26.628   4.291  13.383
58991W        W18736  42.916  33.472  11.068
58992W        W18737  18.657  33.034  11.448
58993W        W18738  14.792  44.494  14.490
58994W        W18739  15.598   6.912   3.178
58995W        W18740  17.637   4.355  13.440
58996W        W18741  18.232  33.498   1.344
58997W        W18742   5.740  38.444  13.533
58998W        W18743   7.772  24.536   0.775
58999W        W18744  32.913  11.209   0.386
59000W        W18745  33.545   6.253   2.283
59001W        W18746  21.716  34.066  12.563
59002W        W18747  32.008  40.382   2.713
59003W        W18748   2.393   6.920   1.760
59004W        W18749  24.978  43.871   3.769
59005W        W18750  27.078  21.721  12.851
59006W        W18751  28.959   9.799  13.838
59007W        W18752  26.169  42.869   1.894
59008W        W18753   0.952   9.314  13.950
59009W        W18754  11.729  44.298  11.466
59010W        W18755  15.782  23.610  14.855
59011W        W18756  12.345  15.306  11.488
59012W        W18757  29.069  18.762  11.392
59013W        W18758   3.458  31.622   0.425
59014W        W18759  34.429  15.145  12.033
59015W        W18760  25.190  25.970  11.085
59016W        W18761  24.209   4.363   0.292
59017W        W18762  39.006   8.371  13.824
59018W        W18763   8.178  15.646  14.501
59019W        W18764  33.457  14.259   0.306
59020W        W18765  19.722  17.604   3.657
59021W        W18766   1.913  16.303   4.133
59022W        W18767  36.402  32.564  13.420
59023W        W18768  38.941  44.892   3.637
59024W        W18769  15.292  18.636   3.658
59025W        W18770   4.760  38.898  14.863
59026W        W18771  13.140   3.409   1.879
59027W        W18772  41.437  10.159   4.244
59028W        W18773   0.816   6.235   0.909
59029W        W18774  34.978  30.117  12.410
59030W        W18775   2.929  44.371   4.653
59031W        W18776   6.752  42.324   3.231
59032W        W18777  34.430  33.968  11.114
59033W        W18778   8.338  17.073   0.410
59034W        W18779  41.805  37.849   4.235
59035W        W18780   7.217  35.467   3.734
59036W        W18781  30.487  18.705   3.317
59037W        W18782  10.701  14.148  14.785
59038W        W18783  41.815  38.931  10.101
59039W        W18784   7.314  15.119  13.000
59040W        W18785  30.604   5.752  11.954
59041W        W18786  13.333  27.516  11.868
59042W        W18787   1.769  21.248  11.474
59043W        W18788  23.149  37.987  12.049
59044W        W18789  37.866  35.100  10.920
59045W        W18790  43.460  13.687   1.304
59046W        W18791  36.350  32.104  12.518
59047W        W18792   1.833  31.417   0.320
59048W        W18793  44.327  40.011  14.800
59049W        W18794  10.657   3.908  11.537
59050W        W18795  23.007  42.813   4.124
59051W        W18796  14.799  36.989   5.149
59052W        W18797  42.030   8.182  11.445
59053W        W18798  39.811  31.583   0.341
59054W        W18799  27.120   2.943  14.347
59055W        W18800  34.035   6.374  13.003
59056W        W18801  38.976  19.547  11.564
59057W        W18802  26.525  31.096  12.847
59058W        W18803  42.429   6.882   0.836
59059W        W18804  13.607  21.555   2.383
59060W        W18805  19.573  31.900   4.152
59061W        W18806  33.895  15.307  10.985
59062W        W18807   6.352  37.341   1.395
59063W        W18808  33.125  20.712   0.843
59064W        W18809  21.575  16.666   3.670
59065W        W18810  29.943  35.020  14.855
59066W        W18811  16.245  35.939   3.262
59067W        W18812  39.421   3.814   2.363
59068W        W18813  16.748  36.865   3.289
59069W        W18814  17.112  37.466   3.710
59070W        W18815  29.938  24.527   3.372
59071W        W18816  27.602  11.644  12.448
59072W        W18817  38.069   7.862   2.385
59073W        W18818  35.473   6.716  10.549
59074W        W18819  40.854  32.461   2.286
59075W        W18820  19.595  14.835   4.348
59076W        W18821   0.359  23.193   0.460
59077W        W18822   3.876   3.299  14.412
59078W        W18823  21.563  29.479   4.598
59079W        W18824  36.954  38.891   3.654
59080W        W18825  10.791  39.941   0.916
59081W        W18826  33.011  41.853  14.385
59082W        W18827  41.952  11.165   3.240
59083W        W18828  20.180  12.270  12.457
59084W        W18829  25.531  12.253   3.830
59085W        W18830  32.511  43.306   2.395
59086W        W18831  18.171   8.166   0.834
59087W        W18832  21.138  21.258   0.898
59088W        W18833   3.253  37.857  12.078
59089W        W18834  16.182   1.915   3.842
59090W        W18835  27.965  10.214  14.375
59091W        W18836  27.686  39.379  11.583
59092W        W18837  22.109  44.983   1.855
59093W        W18838  20.530  33.914  13.364
59094W        W18839  39.357  16.795  10.958
59095W        W18840   1.846  41.008  11.491
59096W        W18841  44.407  41.848   4.665
59097W        W18842  22.209   5.343   4.132
59098W        W18843  20.078   3.825   2.700
59099W        W18844  12.235  43.454  10.414
59100W        W18845  17.124  14.785   0.329
59101W        W18846   6.304  14.720  12.535
59102W        W18847  22.501  32.442  12.874
59103W        W18848  14.805  18.552   2.892
59104W        W18849  30.612  33.063  13.796
59105W        W18850  40.049  34.887   1.738
59106W        W18851   6.408  20.679  14.478
59107W        W18852  33.931  11.172   4.652
59108W        W18853   5.439  11.238   1.244
59109W        W18854  17.599  24.722  12.451
59110W        W18855  28.006   3.740  11.449
59111W        W18856   9.709  36.077   2.845
59112W        W18857  30.985  14.190  10.534
59113W        W18858  28.662  34.983  12.457
59114W        W18859  43.941  24.101  10.446
59115W        W18860  24.697  19.703  10.419
59116W        W18861  31.931  13.289   0.325
59117W        W18862  29.601  39.025   1.787
59118W        W18863   2.930  28.650   4.716
59119W        W18864  24.517  33.508   4.218
59120W        W18865  34.117  12.190  13.998
59121W        W18866   7.339  33.526  11.543
59122W        W18867  23.730   4.741  11.406
59123W        W18868   5.726  36.901   1.398
59124W        W18869  14.177   4.910  14.797
59125W        W18870   8.161   9.368   2.385
59126W        W18871  18.207  35.108   2.886
59127W        W18872  41.293   7.730   4.268
59128W        W18873   0.432   6.856   3.711
59129W        W18874  21.632  21.512   1.746
59130W        W18875  10.259   5.384  12.927
59131W        W18876   7.381   2.231   4.734
59132W        W18877   5.690  13.266   0.258
59133W        W18878  10.762   2.886  11.607
59134W        W18879  32.982  37.398   3.764
59135W        W18880  24.629  41.306  11.873
59136W        W18881  32.955  37.528  14.822
59137W        W18882  25.532  39.535  11.938
59138W        W18883  23.516  11.170  14.794
59139W        W18884   8.179  18.651   1.413
59140W        W18885   8.299  14.790   3.368
59141W        W18886  13.281  19.210  12.898
59142W        W18887  29.535  42.844   4.707
59143W        W18888  36.428  32.020  11.932
59144W        W18889  10.282  32.445  13.317
59145W        W18890   1.359  17.107   2.400
59146W        W18891  40.452  35.962  13.381
59147W        W18892  10.254  21.680  14.277
59148W        W18893   4.781  35.361  14.838
59149W        W18894  43.356  40.405  14.329
59150W        W18895  37.504   1.965  13.477
59151W        W18896  30.128  10.676  13.397
59152W        W18897  39.874  22.026  13.419
59153W        W18898  19.204  22.740   4.214
59154W        W18899  39.328  33.885  12.024
59155W        W18900  42.395  35.477  13.926
59156W        W18901   7.378  27.565   0.444
59157W        W18902  38.924  41.475  14.324
59158W        W18903  13.269  11.814  12.517
59159W        W18904   0.905  40.045  13.314
59160W        W18905  40.048   1.354  13.473
59161W        W18906  29.172  27.660  12.892
59162W        W18907  43.778   1.929  11.097
59163W        W18908   3.939  30.054  14.385
59164W        W18909  13.175  17.203   2.283
59165W        W18910  15.231  21.522  14.321
59166W        W18911   6.868   1.384  11.917
59167W        W18912  33.569  39.427   3.286
59168W        W18913  21.643   3.385   5.320
59169W        W18914   2.421   5.709   4.636
59170W        W18915   9.746   0.880  13.058
59171W        W18916  19.160  39.326  14.436
59172W        W18917  35.051  41.931   0.964
59173W        W18918  26.674  38.935   9.944
59174W        W18919  34.441   5.895   2.703
59175W        W18920  23.217  27.062   3.242
59176W        W18921  43.792   6.722  13.813
59177W        W18922  32.428   0.418  10.927
59178W        W18923  29.017  19.071  10.475
59179W        W18924  28.137   1.862   2.781
59180W        W18925  30.085  27.623  11.411
59181W        W18926  22.059  38.421  11.066
59182W        W18927  28.056  33.021   5.202
59183W        W18928   1.846  15.813   3.720
59184W        W18929   7.210  42.915  14.337
59185W        W18930   2.786  32.547   1.702
59186W        W18931  42.347  30.056   1.793
59187W        W18932  16.712  41.030   3.849
59188W        W18933   5.211  16.767  14.899
59189W        W18934  10.355  20.253   1.412
59190W        W18935  39.884  24.051   1.312
59191W        W18936  44.333  21.162  10.944
59192W        W18937  18.552  16.709  11.479
59193W        W18938  42.319  15.684   2.778
59194W        W18939  18.567  26.542   9.972
59195W        W18940  10.826  25.556  12.572
59196W        W18941   0.975  36.943  12.446
59197W        W18942  28.168  20.715   4.622
59198W        W18943   4.772  40.358  13.943
59199W        W18944  22.737  26.628  13.540
59200W        W18945  40.355  22.527   3.194
59201W        W18946  15.094  36.458   2.200
59202W        W18947  28.170  43.902   3.227
59203W        W18948  18.250  42.838  11.604
59204W        W18949  42.863  28.971   0.949
59205W        W18950   5.305  10.221  13.332
59206W        W18951  26.140   6.682  10.546
59207W        W18952  36.394  25.684   0.320
59208W        W18953  43.407   3.295   2.231
59209W        W18954  13.127   9.178   1.805
59210W        W18955  44.912  29.019   1.763
59211W        W18956   6.414  27.980   3.343
59212W        W18957  29.163   5.697   0.307
59213W        W18958  29.068  43.893  14.799
59214W        W18959  25.139  15.231  10.953
59215W        W18960  32.454  19.127  14.972
59216W        W18961  32.626   5.222   3.301
59217W        W18962  24.694  16.714  12.967
59218W        W18963  12.701  19.130   3.284
59219W        W18964  40.445  22.166   3.236
59220W        W18965  29.993  32.032   4.734
59221W        W18966   2.457  27.990   2.293
59222W        W18967   0.843   6.255  11.978
59223W        W18968  40.417  14.617  12.390
59224W        W18969  43.300   1.410   3.631
59225W        W18970  36.057   9.764  11.586
59226W        W18971   2.399  39.407  13.034
59227W        W18972   7.668  41.949   2.688
59228W        W18973  24.010  20.195   1.751
59229W        W18974  11.713  25.976  14.910
59230W        W18975  16.201   4.310  14.948
59231W        W18976   4.376  19.569  11.996
59232W        W18977   0.931  38.043   1.284
59233W        W18978  32.401  28.133   2.190
59234W        W18979   8.350  31.488   3.753
59235W        W18980  34.459  36.488   4.219
59236W        W18981  33.078   8.253   4.169
59237W        W18982  18.708   4.780  12.936
59238W        W18983   6.786  19.062   3.334
59239W        W18984  42.492  25.128  13.375
59240W        W18985   7.308  33.883   1.853
59241W        W18986  21.110  21.097   9.962
59242W        W18987  40.929   2.725  11.594
59243W        W18988  33.102   6.766  12.927
59244W        W18989  31.972   7.719  12.941
59245W        W18990  34.973   8.755   5.315
59246W        W18991  29.476  19.269  10.998
59247W        W18992  11.241  25.490   2.795
59248W        W18993  25.681  24.160  12.401
59249W        W18994  22.616   5.799   0.917
59250W        W18995  43.492  42.408  14.761
59251W        W18996   2.764  43.323   3.838
59252W        W18997  37.349  13.191   4.763
59253W        W18998  14.663  31.984   9.951
59254W        W18999  11.829  36.453   1.915
59255W        W19000  42.482  28.605  11.378
59256W        W19001  10.750  24.202   4.729
59257W        W19002  24.582   9.155  10.946
59258W        W19003   2.806   2.352  13.529
59259W        W19004  44.993   8.869  13.441
59260W        W19005  10.858  27.107  12.426
59261W        W19006  42.002  30.422   0.263
59262W        W19007  36.539  39.359   0.730
59263W        W19008  23.228  20.041   0.966
59264W        W19009  13.251  44.872  11.936
59265W        W19010  41.885  22.650   1.877
59266W        W19011  27.654  14.652  13.968
59267W        W19012  31.897  29.041   0.728
59268W        W19013  31.970  40.043  11.469
59269W        W19014  18.625  26.482  10.482
59270W        W19015  23.539  14.318   1.303
59271W        W19016  24.694   7.369  14.896
59272W        W19017  12.214  39.043  11.451
59273W        W19018  43.447  11.162  12.342
59274W        W19019  32.951  22.719  12.391
59275W        W19020  13.662   0.433  10.568
59276W        W19021  10.340  12.202   3.725
59277W        W19022  34.397  44.473   1.850
59278W        W19023  12.132  15.665   0.267
59279W        W19024  20.099  24.644   2.377
59280W        W19025  34.415  20.668  12.506
59281W        W19026  40.889   0.465  12.018
59282W        W19027  13.704  33.481  14.303
59283W        W19028  12.793  31.138   1.878
59284W        W19029  33.030  23.090  13.318
59285W        W19030  24.662  14.753   2.212
59286W        W19031  20.623  30.474   3.686
59287W        W19032  29.666  22.742   3.686
59288W        W19033   4.786   1.396   0.786
59289W        W19034  24.528  33.599   2.776
59290W        W19035  14.112  24.095  10.936
59291W        W19036  13.342  37.537   2.716
59292W        W19037  29.634  32.541  11.070
59293W        W19038  41.346   4.418  10.938
59294W        W19039  31.583  15.787   4.628
59295W        W19040  18.775   3.240  12.545
59296W        W19041  14.199  35.576  14.434
59297W        W19042  10.351   8.888  10.955
59298W        W19043  30.960  25.661  12.882
59299W        W19044  20.038  26.996  11.464
59300W        W19045  36.922   5.343  11.050
59301W        W19046   3.335  14.261  10.594
59302W        W19047  10.287   1.960   0.317
59303W        W19048   8.262   3.322   3.791
59304W        W19049  44.890  24.500  11.945
59305W        W19050  20.068   9.386   4.306
59306W        W19051  19.164  12.276   4.289
59307W        W19052  32.955  40.319  14.850
59308W        W19053  41.853   4.255  12.473
59309W        W19054   3.813   0.363  12.427
59310W        W19055  40.447   2.861   1.904
59311W        W19056  31.536  11.653  13.014
59312W        W19057  29.435  42.822  10.013
59313W        W19058  28.045   4.926   4.731
59314W        W19059   8.847  28.122  10.620
59315W        W19060  39.888  29.467   3.290
59316W        W19061  19.658  27.961  14.952
59317W        W19062   5.721   8.264  10.527
59318W        W19063  21.593  15.729   0.415
59319W        W19064  44.380  13.799  13.054
59320W        W19065  35.995  34.562  12.990
59321W        W19066   7.891   2.370  11.914
59322W        W19067  28.062  43.373  12.031
59323W        W19068  38.383  19.566  14.980
59324W        W19069   4.294  29.552   3.356
59325W        W19070   3.292   0.467   3.759
59326W        W19071  41.959  28.530  14.814
59327W        W19072   1.799   4.910   2.840
59328W        W19073   0.917  29.590  10.505
59329W        W19074  32.980  17.729   1.728
59330W        W19075  14.625  37.975   2.764
59331W        W19076  14.777  37.847  14.958
59332W        W19077  15.113   8.404  13.876
59333W        W19078  32.936   2.376  11.542
59334W        W19079   3.778  33.056   1.834
59335W        W19080  20.239  14.680   3.236
59336W        W19081   5.258  19.231  10.426
59337W        W19082  33.874  24.075   3.827
59338W        W19083  15.685  22.629   1.876
59339W        W19084  37.555  25.134   3.728
59340W        W19085   0.480   1.799  14.408
59341W        W19086   2.465  23.728   3.316
59342W        W19087   1.360  19.261   2.889
59343W        W19088  11.839   9.886   3.272
59344W        W19089   1.901   2.229  14.943
59345W        W19090  17.263   7.254   9.977
59346W        W19091  43.860  44.925  12.033
59347W        W19092  24.617   6.712  13.856
59348W        W19093  30.643  28.458   3.672
59349W        W19094   8.682  40.048  13.316
59350W        W19095  23.110  14.190  14.324
59351W        W19096  35.086   2.873   2.824
59352W        W19097  33.452  11.856  12.572
59353W        W19098  44.502  41.312  13.963
59354W        W19099  31.563   7.216  11.889
59355W        W19100   8.274  32.468   2.778
59356W        W19101  44.459  35.484  14.384
59357W        W19102  15.675  31.487   3.326
59358W        W19103   7.854  34.562   0.842
59359W        W19104  27.077  24.085  10.424
59360W        W19105  41.408  17.638   4.275
59361W        W19106  19.154   5.849   1.922
59362W        W19107  32.060  20.162   1.221
59363W        W19108  31.422  43.789   2.822
59364W        W19109  34.106  35.419   0.780
59365W        W19110  42.343  13.281  10.912
59366W        W19111   0.418  30.616  11.606
59367W        W19112  28.670   1.760   3.320
59368W        W19113  34.890  15.110   0.962
59369W        W19114  39.016   2.802  12.873
59370W        W19115  25.050  12.849   4.260
59371W        W19116   0.946  34.574   2.770
59372W        W19117  11.248  34.605  11.973
59373W        W19118  27.117  25.651   1.805
59374W        W19119  41.501   2.398  11.000
59375W        W19120  27.148   7.199   4.290
59376W        W19121  34.057  43.859  11.606
59377W        W19122   4.240  38.067  11.498
59378W        W19123   3.322   0.815   0.436
59379W        W19124  36.905  30.003   4.340
59380W        W19125  25.673   0.775  14.881
59381W        W19126   2.788  15.191  12.849
59382W        W19127  31.944  18.255   2.300
59383W        W19128   0.917  41.851   3.660
59384W        W19129  31.425  23.715   4.678
59385W        W19130  36.097  35.595   0.387
59386W        W19131  36.513  12.290   4.782
59387W        W19132  27.587   1.247  11.985
59388W        W19133  10.382  32.508  12.551
59389W        W19134   6.191  22.040   2.696
59390W        W19135  23.702  29.987   1.714
59391W        W19136  13.300  40.016  13.829
59392W        W19137  15.646  15.196   0.473
59393W        W19138   0.965  16.748  13.354
59394W        W19139  23.211   6.859   2.382
59395W        W19140   2.811  15.657  10.917
59396W        W19141  40.409  22.167  11.101
59397W        W19142  26.599  34.920  14.516
59398W        W19143  30.062   3.723   3.657
59399W        W19144  28.458  20.102  12.977
59400W        W19145  16.620   4.414  13.382
59401W        W19146  32.501  22.086  14.804
59402W        W19147  43.766  18.161   0.760
59403W        W19148  18.725  15.093   1.762
59404W        W19149  36.985  10.742   2.224
59405W        W19150  14.811  39.404  14.333
59406W        W19151  34.400  25.644   2.853
59407W        W19152  28.939  35.032  12.095
59408W        W19153  32.084  14.232   1.354
59409W        W19154  37.551  11.832  12.897
59410W        W19155  26.953  28.148  12.408
59411W        W19156   5.771  30.913   3.667
59412W        W19157  19.134  13.777   2.281
59413W        W19158  38.015  34.989   1.771
59414W        W19159  33.415  11.729   1.248
59415W        W19160  13.234  34.964   3.252
59416W        W19161  19.152  22.580   0.286
59417W        W19162  23.595  29.618  14.404
59418W        W19163   2.226  20.236   4.150
59419W        W19164  16.792  23.623  14.960
59420W        W19165  38.946  24.057  12.085
59421W        W19166   1.260  28.056   3.161
59422W        W19167  29.000  32.911   3.673
59423W        W19168  31.581   3.333   0.862
59424W        W19169  23.732  34.036   4.171
59425W        W19170  22.999  15.218   2.195
59426W        W19171  37.888  17.783  11.898
59427W        W19172   5.733  32.428   4.761
59428W        W19173  29.654  11.213   1.813
59429W        W19174  42.976  37.927   4.315
59430W        W19175   7.716  22.553   2.312
59431W        W19176  37.999   4.875   3.356
59432W        W19177  34.955  13.120  12.951
59433W        W19178  33.073   5.759   0.375
59434W        W19179  20.118   1.346   5.321
59435W        W19180  25.476  31.080  13.883
59436W        W19181  16.241  25.500   4.245
59437W        W19182  17.598  41.303  12.360
59438W        W19183  41.811   2.823   1.330
59439W        W19184  23.038  38.390  13.021
59440W        W19185  26.149  16.154  10.588
59441W        W19186  33.422   5.348   3.196
59442W        W19187  13.315   8.379  11.510
59443W        W19188  13.199  32.612   1.217
59444W        W19189  10.749  29.052  10.559
59445W        W19190  29.112   7.721   3.327
59446W        W19191   3.409   7.673   2.829
59447W        W19192  33.557  16.783  11.452
59448W        W19193  12.726  35.407   0.907
59449W        W19194  16.206   8.862  11.093
59450W        W19195  10.638  43.408  10.562
59451W        W19196   7.399  24.981  12.923
59452W        W19197  21.245  18.552   1.359
59453W        W19198   8.343  40.432   3.841
59454W        W19199  23.569  24.557  11.002
59455W        W19200  15.152   6.797  14.986
59456W        W19201   1.738  26.019   4.636
59457W        W19202   9.335  13.659   0.761
59458W        W19203  20.262  38.049   3.226
59459W        W19204   4.927  20.535   1.214
59460W        W19205  30.429  35.977  12.932
59461W        W19206  19.261  44.363   2.788
59462W        W19207   2.379  18.185   2.324
59463W        W19208  23.188  10.655  13.427
59464W        W19209   2.735  39.919   2.673
59465W        W19210  39.045  10.716  13.955
59466W        W19211  30.453  10.308  13.012
59467W        W19212  37.360  30.948   1.423
59468W        W19213  18.089  42.821   3.283
59469W        W19214  29.607  15.612  11.977
59470W        W19215  12.744  10.226   0.938
59471W        W19216   0.451  17.679   1.214
59472W        W19217  24.133  19.709   1.224
59473W        W19218  36.578   2.932   3.152
59474W        W19219  25.607  10.359   3.167
59475W        W19220  44.269  32.558   9.978
59476W        W19221   6.852  13.607  14.936
59477W        W19222  19.074   7.302   4.734
59478W        W19223  35.891  17.098  13.836
59479W        W19224  18.762  10.173   4.246
59480W        W19225  38.013  42.394  13.376
59481W        W19226  24.110  43.310  10.908
59482W        W19227  25.569   3.217   5.177
59483W        W19228  25.142   1.940  13.389
59484W        W19229  10.351  14.192   4.226
59485W        W19230  28.654  12.664   0.476
59486W        W19231  40.922  13.107   1.265
59487W        W19232  12.663  40.927   4.675
59488W        W19233  33.389  36.410  10.626
59489W        W19234  44.282   7.721   3.200
59490W        W19235   2.275   8.680  12.502
59491W        W19236  35.868  30.987  11.999
59492W        W19237  32.109   5.753   3.286
59493W        W19238  13.328  40.908  13.043
59494W        W19239  38.990  23.582   1.270
59495W        W19240  16.248   5.205   1.250
59496W        W19241  15.160  19.048  13.966
59497W        W19242  42.968  27.114   4.141
59498W        W19243  23.139  11.798  13.508
59499W        W19244  36.418  42.932  14.388
59500W        W19245  13.124  41.822  10.535
59501W        W19246   8.321  15.138   3.842
59502W        W19247  11.179   9.232   2.412
59503W        W19248  27.082   6.771   1.843
59504W        W19249  13.154  36.480   3.158
59505W        W19250  27.628   1.254   0.271
59506W        W19251  20.121  37.867  12.472
59507W        W19252  41.382  28.168  13.996
59508W        W19253  31.084  36.355  13.000
59509W        W19254  40.492   2.864   4.128
59510W        W19255  34.578   0.806  13.938
59511W        W19256   3.372  16.638  13.985
59512W        W19257  34.496  41.499   4.621
59513W        W19258  40.949  36.572   4.807
59514W        W19259   6.294  35.514   4.737
59515W        W19260  30.488  19.048  14.285
59516W        W19261  26.552  34.410  14.811
59517W        W19262  43.282  24.141   0.807
59518W        W19263  26.971  34.007  13.006
59519W        W19264  42.365   8.224  14.277
59520W        W19265  29.622  21.706   2.222
59521W        W19266  37.834   8.405  14.276
59522W        W19267  31.014  34.602   3.771
59523W        W19268  21.548  31.917   1.765
59524W        W19269  13.790  22.566  11.950
59525W        W19270  31.597   4.942  14.973
59526W        W19271   5.920  16.604   0.780
59527W        W19272  35.859  18.281   0.947
59528W        W19273  20.769  21.744  14.499
59529W        W19274   9.292  31.920   1.830
59530W        W19275   0.464   8.843   2.262
59531W        W19276  10.145  42.299  11.941
59532W        W19277   8.661  41.019  11.030
59533W        W19278  30.541  33.388  10.115
59534W        W19279   4.766  27.995  12.903
59535W        W19280  15.216  33.436   0.372
59536W        W19281   8.824  43.006  10.991
59537W        W19282  23.620  22.209   2.262
59538W        W19283  42.801  43.885   0.773
59539W        W19284  30.148  21.686   1.364
59540W        W19285   8.252   4.361  13.333
59541W        W19286  10.752  14.150   0.427
59542W        W19287  29.431  19.185  14.408
59543W        W19288  36.942   6.247  12.427
59544W        W19289   3.846   8.196  10.514
59545W        W19290  26.648   1.352   4.823
59546W        W19291   5.791  11.314   0.820
59547W        W19292   8.770  23.135   0.450
59548W        W19293   0.315  40.450  12.574
59549W        W19294  42.879  40.375   0.454
59550W        W19295   5.868  19.165   3.290
59551W        W19296   0.480  19.084  11.870
59552W        W19297  19.592   3.838  11.049
59553W        W19298   5.377  38.486   9.490
59554W        W19299  39.452  27.498   0.405
59555W        W19300   0.816  30.050   4.608
59556W        W19301  20.665  24.568  12.095
59557W        W19302   9.315  33.436   0.840
59558W        W19303  31.580  19.101   2.683
59559W        W19304  21.196  19.255   3.859
59560W        W19305   7.703  38.976  13.825
59561W        W19306   3.729  26.475  14.782
59562W        W19307  38.948  15.656   2.733
59563W        W19308  25.210   3.390   2.277
59564W        W19309  41.456   6.736  14.848
59565W        W19310  38.443  14.134   4.211
59566W        W19311  40.363  18.179   0.813
59567W        W19312   6.888   2.966  12.400
59568W        W19313   9.663   3.256  13.319
59569W        W19314   8.894  25.964  12.957
59570W        W19315  15.744  12.361  13.931
59571W        W19316  25.491   0.492  12.843
59572W        W19317  29.009   9.300  13.429
59573W        W19318  17.626  44.475   1.742
59574W        W19319  21.084  26.672  10.491
59575W        W19320   4.783  25.540   2.857
59576W        W19321  11.817  38.872   2.782
59577W        W19322   1.937  28.447   1.899
59578W        W19323  41.969   2.375   0.730
59579W        W19324  38.526  16.765  12.862
59580W        W19325   9.807  18.710   0.378
59581W        W19326  10.205  10.865  13.503
59582W        W19327  21.055  22.601  11.886
59583W        W19328  16.576   1.953  11.473
59584W        W19329  18.722  39.316   0.323
59585W        W19330  25.509  40.344  13.954
59586W        W19331   9.730  41.913  10.973
59587W        W19332  21.250  11.355   1.442
59588W        W19333  26.158  14.660   3.259
59589W        W19334  40.493  22.552   1.287
59590W        W19335  17.140   6.774   0.760
59591W        W19336  30.457  12.274  12.420
59592W        W19337  21.735   7.799   1.419
59593W        W19338   0.762  30.530   0.880
59594W        W19339   4.395  38.501  14.858
59595W        W19340  35.541  41.537   0.887
59596W        W19341  24.116  23.175  11.575
59597W        W19342   6.756  12.669  14.993
59598W        W19343  37.494  12.216  11.866
59599W        W19344  35.428  22.141   0.265
59600W        W19345   6.343  21.731   3.364
59601W        W19346  13.788  40.447  14.461
59602W        W19347   4.237  19.162   3.237
59603W        W19348  13.690  24.230   1.412
59604W        W19349  15.790  33.994  10.949
59605W        W19350  23.136  32.513   2.206
59606W        W19351  40.036   1.814   1.410
59607W        W19352  27.117  35.370  12.361
59608W        W19353  24.632   6.383   0.893
59609W        W19354  25.154  44.888  14.468
59610W        W19355  13.709  36.423  12.881
59611W        W19356   9.759  34.488  14.031
59612W        W19357  34.993  16.737   2.185
59613W        W19358  39.903  23.715   4.653
59614W        W19359   4.318  29.972   3.746
59615W        W19360  40.548  11.737   3.701
59616W        W19361   3.764  40.373   4.765
59617W        W19362  10.181   0.980   4.172
59618W        W19363  14.183  31.002   4.257
59619W        W19364  11.221  43.834   1.854
59620W        W19365  25.156  44.968  10.582
59621W        W19366   3.290  40.981  12.380
59622W        W19367  21.241  15.167  13.962
59623W        W19368  43.782  24.700   4.680
59624W        W19369  38.972  32.537   2.190
59625W        W19370  11.725  14.597   3.149
59626W        W19371  12.657  44.457   1.226
59627W        W19372   7.328  11.733  13.533
59628W        W19373   0.940  32.514   3.798
59629W        W19374   2.445   2.928  11.016
59630W        W19375  13.148  23.172   3.668
59631W        W19376  43.294   1.867   0.866
59632W        W19377   4.914   3.253  10.940
59633W        W19378  21.688  16.277   1.719
59634W        W19379  38.936  31.584  12.829
59635W        W19380  17.163  12.156   1.922
59636W        W19381  37.560  28.509   4.683
59637W        W19382  20.118  35.408  11.598
59638W        W19383   3.734  15.757   2.181
59639W        W19384   8.252   6.845  10.614
59640W        W19385  19.610  11.190  12.850
59641W        W19386  40.928  11.176   0.803
59642W        W19387  35.452  24.027   0.422
59643W        W19388  19.587  38.964  11.958
59644W        W19389   8.769  43.769  10.601
59645W        W19390  32.038  17.272  11.046
59646W        W19391   3.445  27.982   4.281
59647W        W19392  31.484  11.665   3.689
59648W        W19393  21.037  33.611   1.761
59649W        W19394  43.869  22.693  14.761
59650W        W19395   0.974  42.933   2.383
59651W        W19396  21.036  24.582  10.410
59652W        W19397  27.076  25.660   0.401
59653W        W19398  14.715   8.301   3.812
59654W        W19399  34.579  38.055  14.945
59655W        W19400   6.884  12.686   0.353
59656W        W19401  13.731  13.194  14.978
59657W        W19402   6.378   1.768   4.269
59658W        W19403   2.349  37.376  13.444
59659W        W19404  23.082   8.668   0.738
59660W        W19405  10.784  18.093  14.008
59661W        W19406  17.609  20.613   2.366
59662W        W19407   6.857  12.158   1.893
59663W        W19408  16.597  29.647  13.997
59664W        W19409  40.002  25.690  12.427
59665W        W19410  31.965  38.551   1.821
59666W        W19411  16.673  12.717  14.470
59667W        W19412  30.430  25.145  10.537
59668W        W19413  34.936   3.245   4.610
59669W        W19414  26.962  40.484   3.852
59670W        W19415  23.576  37.382   1.421
59671W        W19416  18.274  12.776   1.822
59672W        W19417  37.015  38.376   3.722
59673W        W19418  12.734  33.015  10.151
59674W        W19419  20.620  31.007  12.568
59675W        W19420   3.787  40.845   3.216
59676W        W19421  26.562  24.210  13.452
59677W        W19422  34.110  39.840  11.020
59678W        W19423  24.087  36.878  11.390
59679W        W19424  40.013  18.275   1.836
59680W        W19425  37.472  13.208  13.975
59681W        W19426  17.619   5.842  12.453
59682W        W19427  26.100  42.832  11.943
59683W        W19428  41.436  18.641  12.577
59684W        W19429   7.835   6.344  13.315
59685W        W19430   0.420  35.544   1.768
59686W        W19431   9.315  14.213   0.428
59687W        W19432  33.971  44.987  12.865
59688W        W19433  32.886   5.216  13.346
59689W        W19434  36.904  32.400  13.485
59690W        W19435  34.376   4.281  14.291
59691W        W19436  41.495  34.931   4.256
59692W        W19437   7.405  17.610   1.893
59693W        W19438   4.829  35.466   2.891
59694W        W19439  18.674   3.356  12.841
59695W        W19440  42.285  34.571   0.327
59696W        W19441  25.649   4.333   1.887
59697W        W19442  31.100  24.986   0.733
59698W        W19443  21.107   5.277   0.463
59699W        W19444  34.103  16.656  13.948
59700W        W19445   7.382  24.030  13.954
59701W        W19446   7.805  27.110  12.970
59702W        W19447  31.044  36.906   1.731
59703W        W19448  41.538   7.304   2.870
59704W        W19449   1.397  11.818  12.529
59705W        W19450   8.769  14.157  13.897
59706W        W19451  12.350   5.393  13.488
59707W        W19452  10.866  33.030   3.791
59708W        W19453  33.490   5.238  11.983
59709W        W19454  15.740  38.859  10.403
59710W        W19455  15.692  12.245   2.749
59711W        W19456  26.959  35.412   1.913
59712W        W19457  22.160  26.671  12.574
59713W        W19458  17.765  34.909  10.078
59714W        W19459  16.754   6.254  12.904
59715W        W19460   2.907  27.019  14.015
59716W        W19461   5.718  29.561  11.483
59717W        W19462  11.743   8.816  12.438
59718W        W19463  42.492  29.146  12.468
59719W        W19464   3.303  14.824  13.333
59720W        W19465  43.457  41.516   1.388
59721W        W19466  18.780  21.022   4.344
59722W        W19467  44.826  16.297   2.315
59723W        W19468   5.382  10.837  13.905
59724W        W19469  27.692  37.503   3.641
59725W        W19470  21.212   0.892  14.377
59726W        W19471  40.490  16.098   1.223
59727W        W19472  41.469  22.690   4.779
59728W        W19473  26.511  39.907   0.958
59729W        W19474  34.923  29.607   1.429
59730W        W19475  12.819  40.929   0.452
59731W        W19476  21.021  44.998   1.818
59732W        W19477  18.548  16.589   3.811
59733W        W19478  10.253   3.429  11.035
59734W        W19479  24.164  14.793   0.470
59735W        W19480  37.073  36.931  13.861
59736W        W19481  26.087   2.441  11.902
59737W        W19482  41.937  31.041  12.042
59738W        W19483  20.664  32.399   2.774
59739W        W19484  18.667  26.201  14.835
59740W        W19485   6.686   0.841  11.455
59741W        W19486  36.560  37.531   4.599
59742W        W19487  42.292  40.503   3.706
59743W        W19488  31.125  29.541  10.036
59744W        W19489  31.609  14.230   1.882
59745W        W19490  28.445  24.681  10.515
59746W        W19491  44.383   9.274  11.993
59747W        W19492  25.160  25.056   4.273
59748W        W19493  32.886  13.224   3.379
59749W        W19494  11.306  39.973   4.272
59750W        W19495   3.844  40.519   1.420
59751W        W19496  34.504  20.272   4.650
59752W        W19497  30.147  27.482  12.463
59753W        W19498  42.888  42.975   4.766
59754W        W19499  11.160  14.221  11.545
59755W        W19500  40.867  16.751  14.820
59756W        W19501  21.156  31.422   4.664
59757W        W19502  15.311  11.334   3.759
59758W        W19503  22.058  33.479  13.828
59759W        W19504  29.974   4.884   1.905
59760W        W19505  44.898   8.829  12.014
59761W        W19506  31.934  19.096  12.852
59762W        W19507   5.865   0.894  11.872
59763W        W19508   2.356  28.630   2.681
59764W        W19509  11.158   0.426   1.913
59765W        W19510  22.528   2.949   2.238
59766W        W19511  31.405  25.116  11.493
59767W        W19512  39.516  16.651  10.414
59768W        W19513  12.694  31.952   2.866
59769W        W19514  31.615   6.205  11.550
59770W        W19515   6.743  20.523   0.930
59771W        W19516   7.256  39.880   2.191
59772W        W19517  24.064   5.697  12.393
59773W        W19518  12.213  24.580   1.795
59774W        W19519  38.351  15.210  11.043
59775W        W19520  15.129  14.614  10.526
59776W        W19521  36.007  43.851  12.907
59777W        W19522  23.586   4.331  14.976
59778W        W19523  12.705  20.551   4.633
59779W        W19524  33.918  40.467  14.447
59780W        W19525  29.976  13.808   0.382
59781W        W19526  42.796   4.839  12.075
59782W        W19527  34.936  44.998   3.721
59783W        W19528  14.310  15.620   2.366
59784W        W19529  37.543  22.508  12.519
59785W        W19530  36.082  15.233   1.307
59786W        W19531   0.906  30.475   1.305
59787W        W19532   7.225  10.716  11.981
59788W        W19533   7.394   4.206  12.430
59789W        W19534  16.610  26.494  13.395
59790W        W19535  21.690  13.263   3.693
59791W        W19536  32.994  19.735  13.383
59792W        W19537  14.811  32.550   4.612
59793W        W19538  18.157   5.899  11.065
59794W        W19539  11.812  17.207  12.452
59795W        W19540  42.985   9.778   0.840
59796W        W19541   8.880  13.250  14.897
59797W        W19542  10.249  18.781   0.952
59798W        W19543  32.885  13.839   2.891
59799W        W19544  15.222  17.152  13.431
59800W        W19545  27.586  27.558   3.678
59801W        W19546  22.006  15.625  12.927
59802W        W19547  12.743  14.754   4.732
59803W        W19548  23.529  21.637   1.916
59804W        W19549  22.625  34.510   2.361
59805W        W19550   4.328  38.451   3.791
59806W        W19551  19.088  18.206  10.910
59807W        W19552  34.466  17.233  12.004
59808W        W19553  23.685   0.881  11.506
59809W        W19554   5.929  40.891   2.298
59810W        W19555  31.966  38.877   1.289
59811W        W19556  37.380  33.030  13.446
59812W        W19557  38.393  14.285   1.443
59813W        W19558   8.745  34.525  10.984
59814W        W19559  15.219   2.465  14.895
59815W        W19560  37.877   8.779   5.258
59816W        W19561  17.225  23.585  14.515
59817W        W19562  21.028  36.427   2.760
59818W        W19563   6.204  25.153  14.905
59819W        W19564   2.263  33.012   1.365
59820W        W19565   8.801  21.157   2.881
59821W        W19566  27.685  33.011   4.207
59822W        W19567  24.527  16.175  12.093
59823W        W19568  26.067  10.782  14.869
59824W        W19569   7.868   1.404  13.885
59825W        W19570  17.611  14.819   2.768
59826W        W19571  15.225  43.983   2.692
59827W        W19572  10.673  38.047  13.495
59828W        W19573   6.848  29.666  14.831
59829W        W19574   1.258  19.212   1.427
59830W        W19575  10.258  41.898  12.020
59831W        W19576  41.800  22.995  13.918
59832W        W19577  19.672   9.869   1.778
59833W        W19578  42.934  44.950  13.448
59834W        W19579  11.646  22.559   2.252
59835W        W19580  31.947  26.027  14.863
59836W        W19581  29.588  30.020   1.809
59837W        W19582   5.236  20.584   1.229
59838W        W19583   2.841   5.859   1.786
59839W        W19584  31.407   8.203   1.282
59840W        W19585   0.812  10.186  10.958
59841W        W19586  16.199  32.888  13.056
59842W        W19587   0.281  35.108  12.492
59843W        W19588  37.532   0.459   4.115
59844W        W19589  33.091   1.442  11.465
59845W        W19590  40.886  28.963  14.335
59846W        W19591  35.396  30.916   3.197
59847W        W19592  18.202  23.577  12.842
59848W        W19593  23.003  44.485   9.982
59849W        W19594   4.371  34.578  11.452
59850W        W19595  26.480  19.573   1.724
59851W        W19596  39.977   5.334   3.649
59852W        W19597  34.519  39.535  14.452
59853W        W19598  40.327   7.376   9.955
59854W        W19599   4.926  14.644   3.291
59855W        W19600   0.267  35.562   5.625
59856W        W19601  26.151  39.821   2.784
59857W        W19602  28.618  28.137  14.289
59858W        W19603  26.970  23.655   0.900
59859W        W19604   8.808   3.384  13.834
59860W        W19605  27.024   6.787  11.002
59861W        W19606  38.547  35.603  12.435
59862W        W19607  26.095  29.096   2.719
59863W        W19608   8.167  23.660  12.942
59864W        W19609  21.168  44.413  10.633
59865W        W19610  25.063  26.114  13.877
59866W        W19611  22.098   9.797   4.646
59867W        W19612   1.355   7.188   2.888
59868W        W19613  36.940  14.260  12.408
59869W        W19614  41.424  27.124  12.966
59870W        W19615  39.457  39.977   0.263
59871W        W19616  33.945  37.035  13.306
59872W        W19617  36.951  25.474   0.915
59873W        W19618  44.427  10.176   4.665
59874W        W19619   8.193  26.149   0.731
59875W        W19620   9.224  32.467  10.508
59876W        W19621  21.511   8.398   3.757
59877W        W19622  43.805  29.614  13.889
59878W        W19623  30.565  14.680  13.347
59879W        W19624   2.832  21.712  12.062
59880W        W19625  19.157  43.293  14.406
59881W        W19626  23.076  28.483  11.501
59882W        W19627  35.086  11.690  13.060
59883W        W19628  17.246  29.637  14.943
59884W        W19629  41.015   3.730  13.452
59885W        W19630  42.446  42.426   2.778
59886W        W19631  16.141  18.137  13.935
59887W        W19632  28.966  28.568   2.714
59888W        W19633  40.852   9.737   1.375
59889W        W19634  27.662   1.424  13.496
59890W        W19635  26.153  21.096   2.282
59891W        W19636  21.048  10.791   4.234
59892W        W19637  12.329  36.943   3.698
59893W        W19638  27.186   4.325  12.977
59894W        W19639  11.164  15.696   2.848
59895W        W19640  19.671  18.747  10.407
59896W        W19641  37.079   2.436  14.452
59897W        W19642  36.489   1.476  12.899
59898W        W19643  13.836  40.498   5.172
59899W        W19644  35.012  10.277  14.955
59900W        W19645  40.423  12.835  14.290
59901W        W19646   6.282  33.904  10.555
59902W        W19647   6.202  19.696   2.697
59903W        W19648   3.407  29.440  12.387
59904W        W19649  41.457  21.052  11.858
59905W        W19650  30.457   6.199   2.765
59906W        W19651  19.557  38.520  12.452
59907W        W19652  38.514  18.166   3.858
59908W        W19653  31.431  29.966   1.884
59909W        W19654   4.760  34.419  12.521
59910W        W19655  28.058  17.598   9.943
59911W        W19656   9.856  42.988  12.429
59912W        W19657  23.683  25.110   3.243
59913W        W19658  11.751   7.272  14.401
59914W        W19659   6.892  43.323   0.372
59915W        W19660  23.036   6.283   0.796
59916W        W19661  40.021  31.550   3.189
59917W        W19662  10.241  26.616  11.001
59918W        W19663  12.632  23.582   4.836
59919W        W19664  30.488   1.872   3.306
59920W        W19665  30.553  10.233  11.972
59921W        W19666   3.397   5.767   3.356
59922W        W19667   2.962  12.320   1.858
59923W        W19668  24.548  36.943  10.407
59924W        W19669   4.403   2.802  13.341
59925W        W19670  10.314  14.749   5.243
59926W        W19671  41.297  16.129  10.630
59927W        W19672  14.246   5.894   2.809
59928W        W19673  27.683   8.222  12.938
59929W        W19674  22.230   0.838  11.005
59930W        W19675  38.491  27.468  11.028
59931W        W19676  25.511  31.146  12.842
59932W        W19677  23.194   2.238  12.501
59933W        W19678  42.836  42.474  13.929
59934W        W19679  16.088  43.897  12.954
59935W        W19680   6.261  25.667  14.329
59936W        W19681  37.397  17.114  10.500
59937W        W19682  38.476  33.042   1.421
59938W        W19683  37.486  36.985  14.368
59939W        W19684  35.980  30.920   0.789
59940W        W19685  19.548   3.900  14.786
59941W        W19686   6.880  42.939  14.319
59942W        W19687  36.592  25.515  10.456
59943W        W19688   0.493  34.436   2.319
59944W        W19689  27.484  30.470   4.292
59945W        W19690   4.287  43.397   2.776
59946W        W19691  23.990  27.605  10.594
59947W        W19692  18.272   3.436   4.243
59948W        W19693  26.001  42.861  11.032
59949W        W19694  18.095  39.840  14.381
59950W        W19695  24.040  31.639  11.011
59951W        W19696   6.726  31.595   4.216
59952W        W19697  21.021   7.228   2.319
59953W        W19698  31.966   2.940   3.793
59954W        W19699   3.431  15.305  14.005
59955W        W19700  34.412   2.303  10.465
59956W        W19701  36.388   7.256   5.086
59957W        W19702  32.051  43.769   1.259
59958W        W19703   2.762  28.995  14.329
59959W        W19704  28.665  14.240  11.113
59960W        W19705  26.675  19.543   4.258
59961W        W19706  22.123  14.773  11.884
59962W        W19707   5.809  43.506  10.451
59963W        W19708  16.572  20.214  11.961
59964W        W19709   2.242   7.226  14.890
59965W        W19710   4.397  19.650  14.972
59966W        W19711  44.309  22.075  14.765
59967W        W19712  20.678  17.642  13.403
59968W        W19713  10.760  12.784   2.774
59969W        W19714  33.617  42.460  10.424
59970W        W19715  19.546  32.489   1.843
59971W        W19716  24.110   3.221   3.821
59972W        W19717  18.144  32.090  13.974
59973W        W19718  11.666  36.983  12.463
59974W        W19719  31.899  33.553   2.228
59975W        W19720  25.980  21.749  14.018
59976W        W19721  10.733   1.803  13.823
59977W        W19722  13.743   8.788   4.812
59978W        W19723  13.334  25.647  11.457
59979W        W19724  14.769   7.318  12.478
59980W        W19725  36.976  38.934   1.435
59981W        W19726  37.440  18.201  11.392
59982W        W19727  42.375  28.961   4.269
59983W        W19728  14.699  11.661   2.342
59984W        W19729   5.702  24.515  11.030
59985W        W19730  30.648  33.507   4.131
59986W        W19731   9.886  23.232  12.426
59987W        W19732  17.682  16.273  12.024
59988W        W19733  38.334  42.994   2.388
59989W        W19734  24.200  28.613   1.417
59990W        W19735  43.840  26.138   0.366
59991W        W19736  37.977  28.995   2.822
59992W        W19737   4.297  25.133   3.783
59993W        W19738   0.347  23.023   1.443
59994W        W19739  23.202   7.305  12.512
59995W        W19740   6.777  20.543  12.448
59996W        W19741  33.895  41.330   2.693
59997W        W19742  13.185  29.472  13.030
59998W        W19743  29.505  33.915   3.723
59999W        W19744  39.869   4.283   4.680
60000W        W19745   2.748  36.920  12.501
60001W        W19746  17.630  10.332   1.735
60002W        W19747   6.752  22.712  12.418
60003W        W19748  44.796  39.867   4.268
60004W        W19749  29.462  39.457   0.941
60005W        W19750  21.587  19.050   0.394
60006W        W19751  39.044  10.170   5.290
60007W        W19752   9.244  39.517  14.398
60008W        W19753  10.821  28.957  14.484
60009W        W19754  28.964   8.899  12.026
60010W        W19755  13.630   5.255   0.888
60011W        W19756  15.822  42.382   2.806
60012W        W19757  36.356  19.259   4.707
60013W        W19758  30.090  42.020   0.928
60014W        W19759   0.916   7.233   5.082
60015W        W19760  26.602   8.833   1.721
60016W        W19761   7.379   8.215   0.338
60017W        W19762   1.889  14.788  14.463
60018W        W19763   9.269   9.262  13.383
60019W        W19764   0.810  42.028   2.298
60020W        W19765  20.086  40.443  11.476
60021W        W19766  15.731  26.701   1.800
60022W        W19767  26.186  18.154   1.351
60023W        W19768   7.257  44.756  14.823
60024W        W19769  31.933  22.558   5.123
60025W        W19770   6.344  24.717   0.897
60026W        W19771   6.752  31.021  13.345
60027W        W19772  25.198   2.469  13.955
60028W        W19773  44.783  12.755  13.422
60029W        W19774   1.401  15.155  13.995
60030W        W19775  39.975  29.950  13.865
60031W        W19776  33.006  19.581   4.174
60032W        W19777  22.135   1.354  13.528
60033W        W19778  39.058  38.410   1.372
60034W        W19779  38.450  31.985  10.432
60035W        W19780   0.305  26.637   0.820
60036W        W19781  40.470   1.829   0.898
60037W        W19782  30.138   0.776   0.863
60038W        W19783  14.192  43.449  12.881
60039W        W19784  21.156  41.315  11.034
60040W        W19785  29.958   8.756   2.329
60041W        W19786  30.079  36.859  12.920
60042W        W19787  23.988   6.852   2.299
60043W        W19788  11.697   6.836  13.354
60044W        W19789   9.165  25.974  10.416
60045W        W19790  28.615  15.189   0.924
60046W        W19791  37.502  31.427  12.068
60047W        W19792  28.625  41.532  11.600
60048W        W19793  39.055  28.091   5.156
60049W        W19794  30.983  18.232   9.990
60050W        W19795  35.978  16.720  12.569
60051W        W19796   6.852  16.605   4.256
60052W        W19797  42.982  37.482   1.795
60053W        W19798  17.737  11.648   0.299
60054W        W19799  32.596  27.091  12.392
60055W        W19800  41.465  12.294   1.925
60056W        W19801   3.397   8.203   3.832
60057W        W19802  35.527   0.742   2.369
60058W        W19803  39.375  20.078   0.964
60059W        W19804  28.001  36.352  13.985
60060W        W19805   1.478  25.202   1.814
60061W        W19806  20.077  27.949  13.838
60062W        W19807   8.797  31.422   0.401
60063W        W19808  44.842  15.170  12.850
60064W        W19809  33.967  36.950  13.884
60065W        W19810  34.499  20.080  13.055
60066W        W19811  37.029   6.316  12.051
60067W        W19812  33.047  16.207  10.610
60068W        W19813  14.824  21.148  12.385
60069W        W19814  35.363  40.417  13.040
60070W        W19815   2.857   1.789  11.070
60071W        W19816  29.542  25.472  11.064
60072W        W19817   0.347  10.864   3.180
60073W        W19818  36.010  25.056   2.856
60074W        W19819  27.994  21.660   2.734
60075W        W19820   8.314  43.453   3.755
60076W        W19821   1.318   4.750   2.815
60077W        W19822  19.568   2.785   1.736
60078W        W19823  31.599  15.801   1.340
60079W        W19824  41.892  11.833   3.760
60080W        W19825  27.956  20.645  10.938
60081W        W19826  24.155  38.843  13.951
60082W        W19827  21.118   1.251  11.390
60083W        W19828  10.796  23.612  12.025
60084W        W19829  28.538  20.721  14.337
60085W        W19830  37.901  28.109   2.212
60086W        W19831   2.932  44.775   4.828
60087W        W19832  35.902  12.174   1.410
60088W        W19833   4.316   1.257  10.626
60089W        W19834  11.754  13.329  11.876
60090W        W19835   3.340  18.244  13.037
60091W        W19836  36.045  25.107  12.428
60092W        W19837  39.911   5.316   2.781
60093W        W19838  35.581  11.842  14.885
60094W        W19839  40.376   8.230  10.918
60095W        W19840  26.653  15.167  10.146
60096W        W19841   6.829  42.371  13.468
60097W        W19842  33.023  33.409  11.005
60098W        W19843   9.186  18.585   4.627
60099W        W19844  33.886  22.615  11.114
60100W        W19845  35.030  34.932   0.384
60101W        W19846  28.619   3.251  12.853
60102W        W19847  43.782   7.239   4.213
60103W        W19848   8.708  40.992  12.532
60104W        W19849  34.912  42.876   4.802
60105W        W19850   4.860  39.989  12.532
60106W        W19851  44.857  19.639   1.230
60107W        W19852  10.860  29.513   2.887
60108W        W19853  42.874   1.882  11.995
60109W        W19854  33.956  37.985  13.548
60110W        W19855   9.246  38.897   2.380
60111W        W19856  40.411  17.705  12.467
60112W        W19857  16.770   6.186   0.828
60113W        W19858  31.912  13.741   4.184
60114W        W19859  30.501  41.032   2.716
60115W        W19860  42.515  27.165   2.665
60116W        W19861  13.828  34.392   9.573
60117W        W19862  28.001  31.621  11.861
60118W        W19863  44.307   7.682  12.551
60119W        W19864   3.818  39.958   4.743
60120W        W19865   9.332  33.016  14.883
60121W        W19866  19.119  38.925   1.696
60122W        W19867  21.513  11.723   9.963
60123W        W19868  31.069  34.971   2.265
60124W        W19869  44.867  17.297  13.824
60125W        W19870  24.684  11.357   1.877
60126W        W19871  28.586  29.997  13.836
60127W        W19872  15.802  34.960  11.978
60128W        W19873  15.695  36.348   0.832
60129W        W19874  28.042  12.218  14.403
60130W        W19875  34.069  32.902   2.259
60131W        W19876  16.582  38.430  13.367
60132W        W19877  35.046   9.729  12.542
60133W        W19878   0.481   3.856   1.836
60134W        W19879  43.510  38.002   4.265
60135W        W19880  10.170  44.926  14.787
60136W        W19881  30.554  34.950   2.249
60137W        W19882  38.878  34.044  11.991
60138W        W19883  18.713   8.704  14.760
60139W        W19884  41.493  20.226  12.417
60140W        W19885  25.042  22.178  14.438
60141W        W19886  19.776  44.894   3.193
60142W        W19887  36.362   6.701   2.394
60143W        W19888  33.558  40.526  14.812
60144W        W19889  39.477  11.162   1.754
60145W        W19890   7.709   8.893   1.437
60146W        W19891  22.650  16.284   1.380
60147W        W19892  32.453  35.038  13.517
60148W        W19893  15.691  25.528  10.440
60149W        W19894  34.375  29.951   3.238
60150W        W19895  37.889  29.629  13.920
60151W        W19896  12.117  36.074   0.356
60152W        W19897   9.303  35.479  11.531
60153W        W19898  39.409   2.252  14.841
60154W        W19899  26.666  36.440   2.769
60155W        W19900   1.916  40.512   5.308
60156W        W19901   9.687  21.635   2.236
60157W        W19902  12.183  41.850  13.897
60158W        W19903  41.020   0.253   4.760
60159W        W19904   8.284  26.022   1.245
60160W        W19905  20.565  38.460   1.748
60161W        W19906  19.650   9.170   1.728
60162W        W19907  25.039   3.247  12.026
60163W        W19908   4.421  15.198   0.883
60164W        W19909  27.151  15.780   3.149
60165W        W19910  17.650  11.300   4.275
60166W        W19911  36.091   6.803   1.695
60167W        W19912  23.707   4.310   1.856
60168W        W19913  43.316  13.192   2.257
60169W        W19914  40.441   8.200  14.462
60170W        W19915   7.279  21.672   1.898
60171W        W19916   9.191  16.616  12.563
60172W        W19917  11.791  31.608  12.474
60173W        W19918   2.859   2.741  14.975
60174W        W19919   2.920  42.925  11.461
60175W        W19920  30.018  26.019  13.318
60176W        W19921   6.837  25.488   1.419
60177W        W19922   4.280  22.219  13.318
60178W        W19923  19.175  27.100   3.865
60179W        W19924   4.396  20.059  11.111
60180W        W19925  39.861   5.297  10.624
60181W        W19926  44.331   4.326  12.565
60182W        W19927  25.700  32.498  12.439
60183W        W19928   8.197  38.035   4.783
60184W        W19929  19.638  15.213  13.927
60185W        W19930  31.131   5.348   1.370
60186W        W19931  28.462  32.589   4.826
60187W        W19932  19.548  10.324   2.372
60188W        W19933  12.272   7.373   4.180
60189W        W19934  34.056  39.955   0.246
60190W        W19935   8.312  19.222   0.269
60191W        W19936  37.992  37.071  13.507
60192W        W19937  44.925  22.646  14.836
60193W        W19938  19.245  22.561  14.939
60194W        W19939   9.679  28.671  13.960
60195W        W19940  23.721   7.813  14.978
60196W        W19941  23.192  42.890  10.516
60197W        W19942  17.087  23.547  10.988
60198W        W19943  27.082  24.670  12.462
60199W        W19944   9.351  37.377  10.133
60200W        W19945  37.040  40.024   4.265
60201W        W19946  38.966  26.184   4.210
60202W        W19947  11.739  19.123   3.852
60203W        W19948  10.834  35.108   1.450
60204W        W19949  31.944   1.480  12.419
60205W        W19950  25.030  33.126   4.835
60206W        W19951   7.299   4.424   0.946
60207W        W19952   0.325  42.505  11.986
60208W        W19953   9.192  18.786   1.924
60209W        W19954  33.125  42.901   1.391
60210W        W19955  28.606   2.472   4.209
60211W        W19956  12.812  34.022  11.004
60212W        W19957  28.438  28.637   0.909
60213W        W19958  24.602  37.964   3.833
60214W        W19959  17.668  35.000   2.746
60215W        W19960  17.704  17.629   4.619
60216W        W19961  21.621  17.240   0.372
60217W        W19962  17.767  37.961  10.013
60218W        W19963  31.985   1.438   1.778
60219W        W19964  41.885  26.500   4.267
60220W        W19965  17.070  44.323  12.011
60221W        W19966  24.510  29.119   0.429
60222W        W19967  40.318  41.312  14.280
60223W        W19968  14.192   0.947  12.947
60224W        W19969  24.662   4.755   5.109
60225W        W19970  34.986   6.678   3.217
60226W        W19971  35.498   4.905  14.776
60227W        W19972  25.517  14.750  14.808
60228W        W19973  23.505  43.013  12.097
60229W        W19974   0.422  16.690   3.308
60230W        W19975  34.934  34.049  14.472
60231W        W19976  14.141  37.948   5.114
60232W        W19977  16.115   2.891  14.278
60233W        W19978  28.959  39.380  12.966
60234W        W19979   0.489   4.763  13.049
60235W        W19980   9.754  22.126  13.889
60236W        W19981  37.493  19.118   1.796
60237W        W19982   2.466  43.881   0.825
60238W        W19983  10.879  35.433  10.887
60239W        W19984  14.209  37.060  13.908
60240W        W19985   7.677  14.817   2.341
60241W        W19986  20.534  40.972   2.866
60242W        W19987  39.362  13.225   0.750
60243W        W19988  18.705  19.778   2.881
60244W        W19989   0.904  39.444  10.958
60245W        W19990  19.641  13.307  10.480
60246W        W19991  40.812  31.050  14.859
60247W        W19992  42.525  10.146   1.347
60248W        W19993  29.517  30.997  11.557
60249W        W19994  35.361  43.492  12.852
60250W        W19995  24.627  39.914   2.417
60251W        W19996  25.610  31.911   2.276
60252W        W19997  14.108  24.149   4.706
60253W        W19998  17.707  11.843  13.026
60254W        W19999  39.331   7.265   0.371
60255W        W20000  27.948  35.001   1.764
60256W        W20001   2.740   2.769   0.384
60257W        W20002  28.061  22.250   0.382
60258W        W20003  42.941  20.649   3.758
60259W        W20004  13.716   9.217  14.959
60260W        W20005   9.670  16.795   2.899
60261W        W20006  28.657   0.885   1.833
60262W        W20007  30.527   9.787   2.288
60263W        W20008  39.907   3.895   1.721
60264W        W20009  41.994   0.491  10.473
60265W        W20010  38.950  12.744   3.665
60266W        W20011  30.479  23.100   1.912
60267W        W20012  44.899   1.414   3.147
60268W        W20013  10.167  28.938  13.375
60269W        W20014  19.686  35.971  13.874
60270W        W20015  13.658  20.129   4.750
60271W        W20016  29.538  40.321   1.404
60272W        W20017  20.124  22.693  13.993
60273W        W20018  35.876  26.096   4.680
60274W        W20019   0.919  16.262  13.836
60275W        W20020  26.537  43.316   4.715
60276W        W20021   1.818  14.832   2.217
60277W        W20022  34.053  26.698   1.734
60278W        W20023  41.038  13.301  14.320
60279W        W20024   7.191  43.847   3.272
60280W        W20025  25.984  19.257  10.439
60281W        W20026  21.660  10.305   0.878
60282W        W20027  13.259   4.367  14.006
60283W        W20028  37.428  33.529  11.964
60284W        W20029  17.578  20.629  12.872
60285W        W20030  26.102   7.686  11.006
60286W        W20031  35.586  39.870  14.515
60287W        W20032   6.906  30.908   0.346
60288W        W20033  16.287  34.433   3.241
60289W        W20034  29.431  22.101  10.106
60290W        W20035   2.931  36.590   2.273
60291W        W20036  12.288  12.152   3.721
60292W        W20037  36.853  28.159  13.467
60293W        W20038   8.402  10.816  14.442
60294W        W20039  15.163  32.892   9.562
60295W        W20040  23.614  22.599  10.644
60296W        W20041  27.455  30.495  11.937
60297W        W20042  17.798  15.274  11.460
60298W        W20043  26.532  39.433   1.759
60299W        W20044  36.865   3.402  13.792
60300W        W20045  15.228   0.275  11.910
60301W        W20046  13.804   1.802  11.106
60302W        W20047  23.147   6.900  11.024
60303W        W20048  43.836  25.133  14.304
60304W        W20049   0.750  37.457  11.026
60305W        W20050  33.919  43.885  11.948
60306W        W20051  28.028  24.152  12.960
60307W        W20052   9.712  24.570   4.759
60308W        W20053  39.904  26.574  11.898
60309W        W20054  42.375  17.064   4.807
60310W        W20055  16.725  27.668   0.359
60311W        W20056  26.552   7.859  11.025
60312W        W20057  26.959  13.737   9.981
60313W        W20058  43.320  26.020   0.364
60314W        W20059  11.809  11.152  10.509
60315W        W20060   8.720   9.367   5.268
60316W        W20061  16.573   4.939  11.981
60317W        W20062  14.183  39.348  11.862
60318W        W20063  14.140  16.673   4.738
60319W        W20064  20.075  27.658  13.031
60320W        W20065  41.396  41.955   3.306
60321W        W20066  39.813  25.663   3.685
60322W        W20067  41.467  43.779   4.248
60323W        W20068  39.519  30.129  11.098
60324W        W20069  18.118  15.641  13.913
60325W        W20070  20.201  11.271  14.797
60326W        W20071   1.290  21.522  12.436
60327W        W20072  24.686  37.514  10.513
60328W        W20073   8.342  18.152   3.813
60329W        W20074  35.411  20.121   0.286
60330W        W20075  40.843  37.019   1.858
60331W        W20076   8.199  33.088   1.830
60332W        W20077  15.696   5.263  10.144
60333W        W20078  24.577  26.967   0.454
60334W        W20079  21.644  35.393   0.334
60335W        W20080  26.548   0.869   5.127
60336W        W20081  22.674  36.943  12.979
60337W        W20082   4.739  22.121   3.641
60338W        W20083  29.572  43.824   0.814
60339W        W20084   4.799  17.651   0.966
60340W        W20085  23.638  14.815   1.843
60341W        W20086  24.109  32.021  12.855
60342W        W20087   4.902  43.911   3.632
60343W        W20088  21.186  44.443  11.602
60344W        W20089  41.360  24.055   3.631
60345W        W20090   3.860  38.353  13.529
60346W        W20091  38.996  40.834   3.689
60347W        W20092   2.749  40.424   3.734
60348W        W20093   7.689  20.658   2.268
60349W        W20094  23.720  33.964  14.419
60350W        W20095  15.594  43.443   0.905
60351W        W20096  25.176  38.388   0.402
60352W        W20097  39.902   5.382   3.342
60353W        W20098  15.613   6.384  12.907
60354W        W20099  34.870  19.548  13.911
60355W        W20100  11.325  23.618   3.243
60356W        W20101  27.117  14.336  13.378
60357W        W20102  30.925  32.007   4.810
60358W        W20103  10.647  38.837  14.770
60359W        W20104  32.945   8.373   2.726
60360W        W20105   0.328  23.561  10.639
60361W        W20106  28.084  20.038   2.822
60362W        W20107   4.839  41.825   0.462
60363W        W20108  38.958   8.745  12.440
60364W        W20109  18.235  25.691  12.441
60365W        W20110  32.999  36.070   0.464
60366W        W20111  41.501  28.542  13.475
60367W        W20112  23.996  13.613   2.320
60368W        W20113  26.629  36.900  13.030
60369W        W20114  28.050  41.483   2.832
60370W        W20115  21.614  39.536   2.744
60371W        W20116  41.946  12.214   1.793
60372W        W20117  15.181   6.689   3.258
60373W        W20118  10.158  21.024  10.124
60374W        W20119  36.475  15.289   4.311
60375W        W20120   2.393  41.937  14.338
60376W        W20121   9.294  30.527  10.020
60377W        W20122  30.572  42.013  13.873
60378W        W20123   1.239  16.178  12.981
60379W        W20124   6.422  33.068   4.151
60380W        W20125  34.084  34.414  14.285
60381W        W20126  39.454   2.762  12.909
60382W        W20127  14.216  32.465  14.502
60383W        W20128  11.643  33.102  11.127
60384W        W20129  41.993  10.368  10.017
60385W        W20130   9.816  29.633  14.789
60386W        W20131  20.220  11.853  14.361
60387W        W20132  21.739  20.714  10.984
60388W        W20133  26.566  15.272   1.318
60389W        W20134  24.588   1.820   3.359
60390W        W20135   7.737  25.597  12.829
60391W        W20136   8.837   1.916  13.962
60392W        W20137  34.383   8.257   0.461
60393W        W20138   6.252  35.964  13.064
60394W        W20139  15.207  12.279   2.282
60395W        W20140  42.508  37.838  10.522
60396W        W20141  39.324  17.127  10.462
60397W        W20142  25.704  23.735  10.450
60398W        W20143  27.641  13.225   0.931
60399W        W20144  13.264  33.002  13.401
60400W        W20145  18.067   1.325  13.514
60401W        W20146  36.972  14.735   0.326
60402W        W20147   7.375  40.900   1.233
60403W        W20148  26.598  43.909   3.648
60404W        W20149  28.470  11.195   1.926
60405W        W20150  25.587  17.275   0.438
60406W        W20151   6.749  42.426  11.482
60407W        W20152  28.519  28.935   0.328
60408W        W20153  27.971  16.297  11.571
60409W        W20154  23.643  31.574   4.644
60410W        W20155   0.815  16.602  10.456
60411W        W20156  32.518   8.275  12.359
60412W        W20157  20.099  36.889   1.704
60413W        W20158  14.305   0.878   2.381
60414W        W20159  38.918   9.183   3.731
60415W        W20160  34.606  29.429  10.499
60416W        W20161  26.629  38.023  14.992
60417W        W20162  44.431  20.630   3.853
60418W        W20163  38.396  40.935   4.162
60419W        W20164  15.644  38.368   4.130
60420W        W20165  24.217   9.205  10.555
60421W        W20166   2.464  15.087  13.980
60422W        W20167  26.513  23.033  11.558
60423W        W20168   6.215  38.470   2.843
60424W        W20169  29.634  19.556  10.443
60425W        W20170  19.769  41.844   2.672
60426W        W20171  15.159  29.119  12.391
60427W        W20172   8.267  27.125  12.416
60428W        W20173  40.512  18.675  14.832
60429W        W20174  31.937  10.365   0.895
60430W        W20175  24.517  33.100  13.044
60431W        W20176  28.151  37.027  11.414
60432W        W20177  41.355  40.825  13.062
60433W        W20178  33.459  30.512  12.528
60434W        W20179  44.779  34.072  12.361
60435W        W20180  30.606  18.656   0.311
60436W        W20181  34.590   7.295  13.849
60437W        W20182  22.632  28.627   4.782
60438W        W20183  15.155  10.348   1.785
60439W        W20184  16.795  30.436  11.935
60440W        W20185  16.579  39.533  14.974
60441W        W20186  37.026  32.932  12.490
60442W        W20187  10.754   5.282  14.462
60443W        W20188  13.745  25.070  14.374
60444W        W20189  10.879  22.563   0.290
60445W        W20190  17.281  23.569  12.523
60446W        W20191  21.103  36.051  13.991
60447W        W20192  41.959  13.344  10.940
60448W        W20193  18.733   7.306  13.913
60449W        W20194  13.304  39.847   4.702
60450W        W20195  37.502  38.038   2.354
60451W        W20196  28.635  19.625   1.902
60452W        W20197  14.218  14.157  12.006
60453W        W20198   0.429  19.204   0.259
60454W        W20199  41.430  30.054   2.819
60455W        W20200  16.314  31.578   1.695
60456W        W20201  35.962   5.302   4.321
60457W        W20202  13.251  35.391   0.939
60458W        W20203  38.386  26.694  11.388
60459W        W20204  17.742  39.523   3.188
60460W        W20205  31.942  39.472  12.384
60461W        W20206  11.289   8.183  13.929
60462W        W20207  34.112  36.952   3.342
60463W        W20208  22.139  35.926  13.415
60464W        W20209  39.849  36.578   1.895
60465W        W20210  17.255  19.596  12.380
60466W        W20211   0.423  22.167  10.433
60467W        W20212  39.517   8.676   3.253
60468W        W20213  37.571  34.940   4.768
60469W        W20214  15.725  38.563  13.979
60470W        W20215  11.799  43.366  11.034
60471W        W20216  36.950  20.137  14.304
60472W        W20217   1.393  12.144  11.999
60473W        W20218  27.535   7.284   4.221
60474W        W20219  18.605  21.644   3.862
60475W        W20220  44.881  17.239  13.436
60476W        W20221  20.741  10.180   4.272
60477W        W20222  16.210  21.155  13.501
60478W        W20223  23.222  26.601  13.952
60479W        W20224  33.988  41.016   1.871
60480W        W20225  43.449  27.483   2.850
60481W        W20226  22.231  43.793  10.474
60482W        W20227   3.245  33.609   0.793
60483W        W20228   3.283  44.817  14.810
60484W        W20229  29.129  18.263   3.805
60485W        W20230   1.760  30.559   2.244
60486W        W20231   6.827  26.528   4.208
60487W        W20232  36.864  13.349   4.195
60488W        W20233  25.609  37.004   3.336
60489W        W20234   6.840  37.845   3.660
60490W        W20235  34.440  16.720   0.325
60491W        W20236  26.700  23.112   1.790
60492W        W20237  20.168  27.192   0.858
60493W        W20238  30.552  27.481  12.496
60494W        W20239  32.088  29.097  12.360
60495W        W20240  39.558   8.396  13.339
60496W        W20241  19.093  19.724   2.685
60497W        W20242  42.500  19.217  13.514
60498W        W20243  33.942   4.714  10.030
60499W        W20244  26.020  14.205  13.493
60500W        W20245  40.435   7.794   4.323
60501W        W20246  41.816  15.582  13.451
60502W        W20247  33.962  39.519   0.342
60503W        W20248  18.778  18.663  10.516
60504W        W20249  29.629   8.309  11.071
60505W        W20250   3.329  20.537  11.882
60506W        W20251  22.099  27.521   1.866
60507W        W20252  41.918   2.950  10.945
60508W        W20253  35.419   7.822  11.572
60509W        W20254   2.871   9.219   2.366
60510W        W20255   5.809  21.680  14.866
60511W        W20256  12.646   8.889   3.816
60512W        W20257  16.203  43.954   2.721
60513W        W20258  13.260  32.587   3.275
60514W        W20259  35.063  35.505  14.023
60515W        W20260  38.851  30.119   2.746
60516W        W20261  16.216  26.020  12.534
60517W        W20262  33.073  31.595  11.458
60518W        W20263   4.850  31.121   5.254
60519W        W20264  18.615  30.434  12.097
60520W        W20265  28.980  17.206  11.443
60521W        W20266  30.052  21.645   4.198
60522W        W20267   6.196  23.061  14.336
60523W        W20268  41.792  21.019   3.327
60524W        W20269  28.484  12.729   2.787
60525W        W20270  37.376  33.463  14.903
60526W        W20271  12.233  34.034  10.927
60527W        W20272  27.469  11.323   3.168
60528W        W20273  24.540  11.860   2.304
60529W        W20274  39.887  16.766  13.360
60530W        W20275  22.236  42.891   2.700
60531W        W20276  38.032  24.679   0.859
60532W        W20277  42.362  18.195  12.063
60533W        W20278  42.782  42.779  10.622
60534W        W20279  22.623  26.589  11.046
60535W        W20280  36.488  26.615   4.279
60536W        W20281  16.086  31.967   3.272
60537W        W20282  14.227  31.533  13.810
60538W        W20283  24.226  20.568   3.718
60539W        W20284  40.334  41.012   0.875
60540W        W20285   4.896  43.806  14.318
60541W        W20286   5.292  29.087  10.527
60542W        W20287  15.141  32.989  11.374
60543W        W20288  40.006   7.750   4.164
60544W        W20289  29.575  12.724  12.841
60545W        W20290  39.915  25.591  11.611
60546W        W20291   0.253   9.821  13.512
60547W        W20292   2.767   9.815   3.375
60548W        W20293  41.939  31.148   2.677
60549W        W20294  22.610  43.446  13.445
60550W        W20295  29.946  37.084  13.909
60551W        W20296   3.296   2.744  11.979
60552W        W20297  33.527  36.417  11.610
60553W        W20298  44.294  24.496  11.569
60554W        W20299  17.574  19.163  13.339
60555W        W20300  13.308  32.024   5.319
60556W        W20301  23.658  14.221   4.295
60557W        W20302  44.000  35.937  14.284
60558W        W20303  21.565  30.961   5.106
60559W        W20304  24.532  10.359  14.378
60560W        W20305  23.035  35.413  12.420
60561W        W20306  24.720  42.023   1.724
60562W        W20307  26.533   8.872  10.520
60563W        W20308  23.131   2.818  12.915
60564W        W20309  29.667  38.001  11.410
60565W        W20310  14.143  40.972   1.724
60566W        W20311  12.254   1.779   3.183
60567W        W20312  27.007  28.011  12.054
60568W        W20313   8.222  32.070   0.251
60569W        W20314   2.886  42.350   3.276
60570W        W20315  15.119  16.785   3.818
60571W        W20316  26.102   9.228  14.407
60572W        W20317  31.080   8.213   2.666
60573W        W20318  43.297  32.531  14.360
60574W        W20319  32.479   8.680  11.449
60575W        W20320  41.450  17.280   3.217
60576W        W20321   7.854   0.472  10.472
60577W        W20322  40.038  25.555  13.425
60578W        W20323   6.802  33.897   3.760
60579W        W20324   3.953  14.743  13.817
60580W        W20325  22.099  28.180   1.847
60581W        W20326  39.458  43.822  12.057
60582W        W20327   1.352  44.924   0.336
60583W        W20328  25.521  33.525  11.419
60584W        W20329   9.885   8.829  11.122
60585W        W20330   6.427  18.178   1.699
60586W        W20331  11.339  41.819   3.196
60587W        W20332  36.452   0.935  10.530
60588W        W20333  20.688  32.002  14.966
60589W        W20334   3.891  34.457   0.278
60590W        W20335  31.453  32.913  10.562
60591W        W20336   2.784  14.739   3.264
60592W        W20337  12.184  19.136  12.931
60593W        W20338  25.202  25.670  11.581
60594W        W20339  36.057   1.243   0.925
60595W        W20340  39.893  43.958   0.369
60596W        W20341  36.348   3.778   1.746
60597W        W20342  27.965  37.085  11.102
60598W        W20343  39.373   6.282  14.442
60599W        W20344  37.562  21.144   4.745
60600W        W20345  38.995  27.554   4.303
60601W        W20346  31.930  14.184  13.520
60602W        W20347   5.779  41.439  13.801
60603W        W20348  32.628  44.768   1.894
60604W        W20349   2.448   2.455  14.501
60605W        W20350  30.030   7.384   2.781
60606W        W20351   4.393  33.895   2.816
60607W        W20352  19.145  19.717  14.790
60608W        W20353   3.265  10.220  12.079
60609W        W20354  22.127  34.528  14.967
60610W        W20355  14.231  12.185  12.579
60611W        W20356  18.214  14.625   1.700
60612W        W20357  35.465   4.937  11.093
60613W        W20358   2.369   1.967   0.314
60614W        W20359  20.117  15.660   4.704
60615W        W20360  27.179  16.216  10.453
60616W        W20361  37.401  11.166  13.340
60617W        W20362  43.286  25.189  13.834
60618W        W20363  40.889  10.785   4.324
60619W        W20364  36.964   8.337  10.467
60620W        W20365  44.330  32.932  10.894
60621W        W20366  22.661  23.128  10.457
60622W        W20367  20.543  24.529   3.241
60623W        W20368  11.290  12.634   2.738
60624W        W20369   8.710  41.344  14.445
60625W        W20370  21.583   9.830  12.858
60626W        W20371  13.118   6.866   2.339
60627W        W20372  28.083  35.422  12.884
60628W        W20373  25.677   5.388   2.374
60629W        W20374   4.354  10.295   1.228
60630W        W20375  22.634  40.878   4.201
60631W        W20376  30.445  25.659  12.489
60632W        W20377   7.334  14.165   1.873
60633W        W20378  19.626   9.729   0.947
60634W        W20379  13.711   1.364  10.515
60635W        W20380  29.475   1.306   2.345
60636W        W20381  23.649  17.762  14.437
60637W        W20382  10.196  28.075   3.735
60638W        W20383  24.079  37.374   5.126
60639W        W20384  29.099  23.676   0.444
60640W        W20385   2.956  18.138   1.367
60641W        W20386  16.702  22.046   4.599
60642W        W20387   1.344  29.167   0.446
60643W        W20388  42.894  22.590   2.185
60644W        W20389  37.048  13.199   1.782
60645W        W20390  41.528   2.819  10.988
60646W        W20391  11.722  22.677   2.735
60647W        W20392  25.477  13.708   3.199
60648W        W20393   4.891  36.586   3.636
60649W        W20394  10.691  41.356   5.251
60650W        W20395  19.058  19.065   4.658
60651W        W20396  31.997   8.866  14.784
60652W        W20397   1.746  11.258   0.439
60653W        W20398  12.308  31.587   1.261
60654W        W20399  26.976  31.597   1.898
60655W        W20400   0.973  24.720  11.987
60656W        W20401  22.127  31.055  13.533
60657W        W20402  40.944  25.636  13.002
60658W        W20403  12.305  26.081  10.502
60659W        W20404  29.924  21.174   1.699
60660W        W20405  13.302   4.752   1.725
60661W        W20406  25.118  29.574   0.308
60662W        W20407  37.874   4.764   4.135
60663W        W20408   6.401   0.932  12.433
60664W        W20409  10.357  15.679  14.284
60665W        W20410  37.454   3.285   2.343
60666W        W20411   1.885  44.335   4.194
60667W        W20412  23.186  17.684   5.617
60668W        W20413  26.165  44.920   0.412
60669W        W20414  37.581  14.707   0.471
60670W        W20415  34.568  30.080   2.682
60671W        W20416  14.220   7.275  14.864
60672W        W20417  25.615   3.890   5.686
60673W        W20418   4.794  35.880  11.602
60674W        W20419   7.718   0.287   4.828
60675W        W20420  21.708   6.363   3.194
60676W        W20421  24.200   4.908  14.429
60677W        W20422  17.617   1.943   1.227
60678W        W20423   4.254  15.130  14.795
60679W        W20424  19.055   4.259   2.885
60680W        W20425  29.669  14.767  13.316
60681W        W20426  23.627   1.407  13.462
60682W        W20427  19.196  14.689   4.254
60683W        W20428  31.064  12.793   2.763
60684W        W20429  23.228  17.153   3.317
60685W        W20430  18.587  14.339   1.704
60686W        W20431  31.434  14.191   3.335
60687W        W20432  40.890  17.794  14.951
60688W        W20433   0.317  40.536  11.955
60689W        W20434  31.081  27.194  13.971
60690W        W20435  17.282  28.171  11.532
60691W        W20436  25.496  26.192  14.029
60692W        W20437  11.851  19.577   4.815
60693W        W20438   0.874  19.263  14.283
60694W        W20439  15.165  33.024   2.348
60695W        W20440   9.798  16.165   1.260
60696W        W20441  10.287  12.320  14.770
60697W        W20442  23.004  31.627  13.424
60698W        W20443  43.829  14.186  13.797
60699W        W20444  44.480  38.866   1.227
60700W        W20445  23.143  12.849   1.699
60701W        W20446   1.770  19.282   3.817
60702W        W20447  37.548  27.648  11.891
60703W        W20448  39.485  36.390  11.994
60704W        W20449  32.129  38.496  11.026
60705W        W20450  18.218  19.605  14.429
60706W        W20451   8.707  41.904   0.477
60707W        W20452  22.526   9.154  11.863
60708W        W20453   4.288  34.604   2.825
60709W        W20454  30.483  40.412  12.998
60710W        W20455  12.674  41.493  12.537
60711W        W20456  40.375  42.801  14.515
60712W        W20457   5.926  16.583   3.819
60713W        W20458  29.104  16.802   3.854
60714W        W20459  10.351  17.078   0.479
60715W        W20460  22.115  31.497   3.176
60716W        W20461  15.744  22.051   0.300
60717W        W20462  29.556   7.353   0.344
60718W        W20463  21.659  32.092   3.317
60719W        W20464   8.873  37.962  11.872
60720W        W20465  36.481  27.539   2.311
60721W        W20466   2.908  20.622  12.066
60722W        W20467  37.048  35.090   1.729
60723W        W20468   9.815  18.551  13.975
60724W        W20469  37.400  43.369   4.225
60725W        W20470  22.183  25.506  10.471
60726W        W20471   6.879  35.966  10.446
60727W        W20472  14.659  25.568   1.358
60728W        W20473  17.668   3.926   4.759
60729W        W20474  43.339  43.893  11.000
60730W        W20475  43.277  44.830  11.613
60731W        W20476  14.729  10.379   0.813
60732W        W20477  35.521   5.755  12.067
60733W        W20478  38.955  37.049  11.400
60734W        W20479   4.404  23.094   3.241
60735W        W20480  24.691  35.908  11.513
60736W        W20481  37.970  25.666   2.359
60737W        W20482  28.658  31.149  11.007
60738W        W20483  16.600  39.976  10.481
60739W        W20484  24.607  24.075   1.913
60740W        W20485  22.623  14.225  14.392
60741W        W20486  18.141  22.142   1.261
60742W        W20487  21.591   0.385   9.672
60743W        W20488  43.317  19.246   3.743
60744W        W20489  20.759  43.344   4.735
60745W        W20490  36.926   6.903   2.862
60746W        W20491  21.218   6.357   3.821
60747W        W20492  24.069  28.039  10.497
60748W        W20493   1.812  38.929   3.726
60749W        W20494  42.961  23.181  13.473
60750W        W20495  15.110   9.384   2.717
60751W        W20496   4.324  11.864   3.689
60752W        W20497  12.202  18.224  14.394
60753W        W20498  37.842  39.516  10.419
60754W        W20499  41.396   6.816   4.257
60755W        W20500   1.365  28.181  12.385
60756W        W20501   3.227  15.123   3.870
60757W        W20502  14.198  31.595  11.063
60758W        W20503  35.603  16.578  14.991
60759W        W20504  12.823  10.824   4.619
60760W        W20505   2.935  23.241   1.923
60761W        W20506  10.258   6.269   4.781
60762W        W20507  25.115   8.222   2.288
60763W        W20508  24.999  29.161   4.186
60764W        W20509  35.073  25.530  14.313
60765W        W20510   2.284   2.752   4.607
60766W        W20511  34.007  40.914   2.808
60767W        W20512  29.140   8.300   4.712
60768W        W20513   7.711  41.371   3.870
60769W        W20514  23.549  43.830  14.953
60770W        W20515  31.994  27.581   0.925
60771W        W20516  18.097  28.439   1.409
60772W        W20517  10.351  44.317  12.397
60773W        W20518  17.596  18.702  12.071
60774W        W20519  19.669  28.044  14.509
60775W        W20520  31.612  37.457  11.898
60776W        W20521  32.035  10.704   1.777
60777W        W20522   3.355   0.959  14.383
60778W        W20523  35.094   7.303  12.524
60779W        W20524  18.164  16.289  11.045
60780W        W20525  33.423   9.805  12.492
60781W        W20526  26.056  28.064  11.436
60782W        W20527  29.107  32.128   4.286
60783W        W20528   9.681   5.219  12.088
60784W        W20529  36.551  18.635  10.894
60785W        W20530  16.291   4.701  10.515
60786W        W20531  35.463  15.598  12.041
60787W        W20532  39.359   8.892  13.349
60788W        W20533  27.614  10.634   3.718
60789W        W20534  16.675  10.178   2.829
60790W        W20535   7.815  10.384  10.609
60791W        W20536  27.528  15.294   2.201
60792W        W20537  36.427  17.572  14.337
60793W        W20538   0.942  33.026  11.072
60794W        W20539  37.995  40.424   3.387
60795W        W20540  29.548  11.660   3.850
60796W        W20541  20.643  27.662  13.980
60797W        W20542  31.482  36.372  14.914
60798W        W20543   3.908  25.709   2.744
60799W        W20544   4.277  28.549   2.211
60800W        W20545   1.372  13.768   1.819
60801W        W20546   5.886  24.638   1.422
60802W        W20547  36.464  43.332  11.556
60803W        W20548  15.216   1.929  14.344
60804W        W20549  44.879   1.432   4.700
60805W        W20550   4.845   0.970  13.379
60806W        W20551  21.042   1.745   1.802
60807W        W20552  28.958  27.987   0.892
60808W        W20553  44.355  27.557  12.464
60809W        W20554  16.173  28.165  13.997
60810W        W20555  20.534  20.270   2.843
60811W        W20556  18.590  37.415   3.335
60812W        W20557  16.135   1.450  14.007
60813W        W20558  37.913  40.016  14.802
60814W        W20559  35.358   0.923  12.952
60815W        W20560  41.884   7.370   4.730
60816W        W20561  13.322  32.571  13.062
60817W        W20562  33.123  41.950  13.953
60818W        W20563  12.617  22.136   1.371
60819W        W20564  35.919  20.143  11.126
60820W        W20565  38.022  29.115   3.783
60821W        W20566   3.722   9.698   2.712
60822W        W20567   4.862   4.714   0.270
60823W        W20568  20.119  21.645   4.713
60824W        W20569   8.192  10.199  10.469
60825W        W20570  23.686   9.360  13.900
60826W        W20571  42.825  31.491  13.971
60827W        W20572   3.794  43.898  11.445
60828W        W20573  31.936   3.852   0.874
60829W        W20574  12.277  39.322  12.406
60830W        W20575  36.503  28.034   3.368
60831W        W20576  44.433   2.245  11.049
60832W        W20577   8.803  40.910   2.709
60833W        W20578   1.247   4.240  13.836
60834W        W20579   9.275  16.808  14.291
60835W        W20580  21.549  38.834  12.448
60836W        W20581  10.872  37.502  14.366
60837W        W20582  19.555  37.974  13.022
60838W        W20583   8.347  11.820   3.360
60839W        W20584  16.268  29.589   4.837
60840W        W20585  16.797  42.472   2.256
60841W        W20586  33.949   0.250   1.839
60842W        W20587   4.944  44.763   4.734
60843W        W20588   9.788  11.708  11.493
60844W        W20589   9.252  11.707   4.140
60845W        W20590  15.660  43.007   4.347
60846W        W20591  39.954  44.849   4.341
60847W        W20592  23.725  30.944   0.295
60848W        W20593   2.342  34.959   3.792
60849W        W20594   9.831  32.435  12.480
60850W        W20595  39.513  42.362  13.971
60851W        W20596   1.884  29.979   2.795
60852W        W20597  33.876  26.501  11.002
60853W        W20598  22.085  32.037   3.310
60854W        W20599  22.658   4.210  13.895
60855W        W20600  24.010   6.741  11.435
60856W        W20601   2.881  14.109  12.887
60857W        W20602  35.408  33.036   2.238
60858W        W20603   0.929  27.122  14.487
60859W        W20604  44.328  28.447  12.093
60860W        W20605  37.489  31.125  13.532
60861W        W20606  11.145   0.841   4.726
60862W        W20607  36.470  36.991   4.131
60863W        W20608   4.300  40.030  10.514
60864W        W20609  42.972  24.012  13.020
60865W        W20610  11.251  10.295  12.527
60866W        W20611  37.519  40.523  11.128
60867W        W20612  42.891   3.220   3.185
60868W        W20613  28.158  28.499   2.267
60869W        W20614   1.267  31.973  10.567
60870W        W20615   2.319  20.193   4.704
60871W        W20616   4.209   2.755   4.672
60872W        W20617  35.387   6.224   1.806
60873W        W20618  41.910   6.288   2.367
60874W        W20619   2.761  40.957  12.862
60875W        W20620   7.173  13.681   2.832
60876W        W20621   4.711  38.950   3.159
60877W        W20622  34.960  17.187  12.085
60878W        W20623   1.847  10.379   2.330
60879W        W20624   9.815  44.304  14.868
60880W        W20625  30.505  27.115   1.737
60881W        W20626  22.693  41.859  12.555
60882W        W20627  17.671  21.691  13.540
60883W        W20628  14.137  17.622  12.060
60884W        W20629  27.636  24.017  14.423
60885W        W20630  13.789   5.437  10.454
60886W        W20631  13.634  19.136  14.471
60887W        W20632  43.367  24.013  13.427
60888W        W20633  17.136  43.003   3.634
60889W        W20634   9.724  28.585  12.839
60890W        W20635  41.294  34.927  11.901
60891W        W20636  38.473  11.347  14.436
60892W        W20637   7.826  40.977  10.951
60893W        W20638  39.407  11.211  13.421
60894W        W20639  30.436  14.198   2.818
60895W        W20640  27.061  42.952   2.895
60896W        W20641  13.757   3.762  13.855
60897W        W20642   9.232   5.746  10.626
60898W        W20643  17.282  19.606   2.760
60899W        W20644  31.003  23.229   3.756
60900W        W20645  37.392  37.486   3.283
60901W        W20646  38.968  39.924   4.735
60902W        W20647  40.472  42.966   2.696
60903W        W20648  31.076   1.393   3.343
60904W        W20649  42.940   6.741   4.776
60905W        W20650  25.475  34.042   3.283
60906W        W20651  15.327  27.672   3.640
60907W        W20652  43.912  32.953  12.368
60908W        W20653  43.776  41.500  14.019
60909W        W20654  44.775  11.157   3.151
60910W        W20655  35.412  18.734   5.109
60911W        W20656  15.755   6.214  13.932
60912W        W20657   4.887   5.294  10.409
60913W        W20658  30.437  42.466   4.296
60914W        W20659  42.418  34.977   0.736
60915W        W20660  23.044  18.764  13.808
60916W        W20661  21.164  30.995   4.819
60917W        W20662  20.123   7.399   0.275
60918W        W20663  32.121   1.461   2.861
60919W        W20664  43.369  31.121   1.365
60920W        W20665  26.612  10.863   2.842
60921W        W20666  14.258  11.168   0.937
60922W        W20667   9.687  38.472   0.934
60923W        W20668  22.148  40.312   3.256
60924W        W20669  26.009  44.495  12.501
60925W        W20670  29.538   4.711  14.435
60926W        W20671  16.621  11.679   0.349
60927W        W20672  32.139  32.926  11.885
60928W        W20673  18.144  22.696   3.328
60929W        W20674  38.560  17.595  14.328
60930W        W20675   3.270  42.345  13.495
60931W        W20676  24.170  37.388   3.324
60932W        W20677  25.506  34.568  13.414
60933W        W20678   4.218  38.027   4.772
60934W        W20679  30.039   6.419  11.479
60935W        W20680  27.976   7.252  13.894
60936W        W20681   3.369  16.728   3.242
60937W        W20682   8.346  11.630  12.999
60938W        W20683  28.133  22.050   4.795
60939W        W20684  16.126  16.774  14.829
60940W        W20685   1.957  31.544   1.888
60941W        W20686  38.941  34.899   1.385
60942W        W20687  11.729  17.238   3.236
60943W        W20688  37.899  31.147  14.434
60944W        W20689  23.210  22.509  13.325
60945W        W20690   3.443  16.290  13.438
60946W        W20691  12.780  13.172  14.817
60947W        W20692  38.405  14.709  10.415
60948W        W20693  24.630  39.020  12.845
60949W        W20694  32.579   5.416  11.486
60950W        W20695  33.074  42.451  14.414
60951W        W20696  10.145   1.886  12.014
60952W        W20697  17.736  32.078   1.861
60953W        W20698  35.941   8.723  12.025
60954W        W20699  23.647  43.281  10.631
60955W        W20700  39.455  42.450  13.332
60956W        W20701  12.196  28.632   1.295
60957W        W20702   5.923   4.863  13.049
60958W        W20703   8.743  13.718  13.919
60959W        W20704   1.268  26.067   3.834
60960W        W20705  31.047  35.558   2.335
60961W        W20706  38.904  23.579  11.005
60962W        W20707   8.220   6.701   3.322
60963W        W20708   1.422  17.064   9.932
60964W        W20709  22.723  30.563   5.207
60965W        W20710  36.395  26.038   4.297
60966W        W20711  21.037  36.355  12.489
60967W        W20712  14.221  28.127   4.659
60968W        W20713  39.431   6.798  11.126
60969W        W20714   1.845  14.700  12.059
60970W        W20715  37.047  43.858  14.977
60971W        W20716  29.147   2.436   3.702
60972W        W20717  16.569  38.435  11.556
60973W        W20718  27.508  23.133   1.765
60974W        W20719  43.379   3.214  11.928
60975W        W20720  29.509  20.680   3.655
60976W        W20721   9.859  11.372   4.134
60977W        W20722  22.046  26.132   4.200
60978W        W20723  27.955  42.023  13.040
60979W        W20724   0.966  32.963   2.186
60980W        W20725  10.168   7.416  12.417
60981W        W20726  39.978  31.577   2.330
60982W        W20727  25.117  15.647   0.910
60983W        W20728  23.059   0.889   2.738
60984W        W20729  20.184  17.150   1.351
60985W        W20730   2.358   5.234   4.119
60986W        W20731  17.084  41.528   0.773
60987W        W20732  34.019  40.345   0.905
60988W        W20733  21.531  40.800   1.749
60989W        W20734  26.001  28.576  11.876
60990W        W20735  14.682  39.975   5.294
60991W        W20736  18.256   6.414  12.872
60992W        W20737  44.402  33.945   3.635
60993W        W20738   9.211  23.627  10.476
60994W        W20739   8.179   8.271  11.533
60995W        W20740   1.334  20.051   3.680
60996W        W20741  42.292   4.393  12.852
60997W        W20742   3.908  26.592  12.953
60998W        W20743  29.121  36.947  13.440
60999W        W20744  17.118  22.221  11.047
61000W        W20745   5.842  10.256  13.810
61001W        W20746  42.407  13.606  10.633
61002W        W20747   7.387  19.224   2.335
61003W        W20748  24.621  33.939   2.764
61004W        W20749   9.829  31.049   4.354
61005W        W20750  27.583  18.190  11.948
61006W        W20751  44.773   6.682  14.943
61007W        W20752  37.521  11.692   4.205
61008W        W20753  26.174  26.584   2.216
61009W        W20754  18.723  31.554  12.572
61010W        W20755   5.923  31.044  11.393
61011W        W20756   8.818  18.635  10.531
61012W        W20757  35.386  19.764  13.953
61013W        W20758  19.628  30.586   2.396
61014W        W20759  25.139  29.603  11.116
61015W        W20760  35.446  32.481   0.454
61016W        W20761  17.765  12.849   2.213
61017W        W20762  14.820  22.159   2.690
61018W        W20763   0.859  29.039   2.219
61019W        W20764  35.390  43.395   4.763
61020W        W20765  11.226   3.372   4.629
61021W        W20766  22.168  38.534  14.287
61022W        W20767  44.786  18.218   5.659
61023W        W20768  20.639  40.474   2.182
61024W        W20769  35.090  42.419  14.481
61025W        W20770   9.207  22.637   3.795
61026W        W20771   9.310  44.362   3.247
61027W        W20772   6.787  15.105  13.396
61028W        W20773  10.693  12.167  11.959
61029W        W20774  42.336  43.935   2.671
61030W        W20775  40.544   3.359  11.916
61031W        W20776  10.762  33.073  11.912
61032W        W20777   7.875  13.201  13.393
61033W        W20778  10.815  29.638  13.537
61034W        W20779  29.452  16.209   1.344
61035W        W20780  18.770  44.760  13.006
61036W        W20781  34.584  32.592   1.933
61037W        W20782  15.225  44.435   2.883
61038W        W20783   8.864  24.612   1.847
61039W        W20784  31.497  26.030  11.116
61040W        W20785  42.882  26.075  14.977
61041W        W20786   1.953  20.082  11.908
61042W        W20787  29.639   2.868   4.190
61043W        W20788  25.552   9.732  12.030
61044W        W20789  12.616   0.825  12.509
61045W        W20790  13.742  17.164   4.285
61046W        W20791  41.001  18.630  13.481
61047W        W20792   7.873  21.118   3.234
61048W        W20793  34.118  31.493  12.845
61049W        W20794  28.469  29.575  12.563
61050W        W20795   3.221   3.241   4.123
61051W        W20796  31.404  31.555   0.297
61052W        W20797  16.776  31.000   2.238
61053W        W20798  24.493  20.208   2.201
61054W        W20799   0.866  35.039   2.756
61055W        W20800   2.409  40.916   2.712
61056W        W20801  28.141   8.273  10.460
61057W        W20802  16.633   9.791  11.067
61058W        W20803   8.357   0.772   1.904
61059W        W20804  43.417  14.212  13.814
61060W        W20805  28.537  26.990  11.035
61061W        W20806   8.654  18.566  11.033
61062W        W20807  42.435  43.402   3.230
61063W        W20808   8.401   9.795   2.249
61064W        W20809  25.580  39.500  10.437
61065W        W20810   1.365  40.840   1.300
61066W        W20811   8.225   1.410  11.867
61067W        W20812   2.236   3.781   1.348
61068W        W20813  29.112  25.085  12.412
61069W        W20814  28.608   6.272  14.787
61070W        W20815  18.221  43.842   0.889
61071W        W20816  30.145   4.762  13.811
61072W        W20817  38.502  34.111   0.473
61073W        W20818  13.156  40.915   4.272
61074W        W20819  34.544  24.599   3.767
61075W        W20820  22.200  30.621   1.230
61076W        W20821  30.121  44.789   4.755
61077W        W20822  34.569  22.669  11.415
61078W        W20823  39.946  17.189   4.333
61079W        W20824  16.736  34.604   0.376
61080W        W20825   3.720  33.509  10.586
61081W        W20826  23.024  34.984   4.681
61082W        W20827  26.010  38.414  11.571
61083W        W20828  25.038   6.212  12.368
61084W        W20829  22.592  37.844  13.506
61085W        W20830  32.132   2.917  10.956
61086W        W20831  34.072  39.061   0.902
61087W        W20832  27.649  15.648  13.912
61088W        W20833  41.443   0.311   1.218
61089W        W20834  42.315  36.858   2.859
61090W        W20835  28.977   5.721   4.282
61091W        W20836  13.241   2.261  10.556
61092W        W20837  16.792  37.386   0.333
61093W        W20838  36.459  27.094  11.469
61094W        W20839   6.730  37.478  11.428
61095W        W20840  17.579   2.371  14.927
61096W        W20841   7.900  43.389  11.859
61097W        W20842   7.873  18.109  10.584
61098W        W20843  14.755  11.332   4.187
61099W        W20844  38.357  40.932  11.091
61100W        W20845  37.426   0.465   3.282
61101W        W20846  12.798  18.586   2.260
61102W        W20847  17.089  13.332   1.766
61103W        W20848  21.036  39.429  14.946
61104W        W20849   7.685  29.168  14.515
61105W        W20850  16.772  21.606   3.249
61106W        W20851   0.973  41.455  11.888
61107W        W20852  43.844  11.856   1.393
61108W        W20853  44.302  19.585  12.871
61109W        W20854  34.443  37.946   2.194
61110W        W20855  33.453  23.601  14.858
61111W        W20856  40.476  11.717   0.932
61112W        W20857  27.623   5.408   0.474
61113W        W20858  13.813  19.533  12.453
61114W        W20859  21.549  33.519  11.584
61115W        W20860  24.068  40.377   3.716
61116W        W20861  26.505   6.763   3.810
61117W        W20862   3.299  39.516   1.390
61118W        W20863  37.075  19.109  12.358
61119W        W20864  38.535  32.998   3.304
61120W        W20865   7.270  18.188  11.939
61121W        W20866  24.107  41.296  13.432
61122W        W20867  42.860  27.024  12.874
61123W        W20868  14.707  20.080   2.857
61124W        W20869  13.657  21.099  11.470
61125W        W20870   7.252  16.274  14.884
61126W        W20871  32.534  21.173   4.742
61127W        W20872  10.379  26.001   3.865
61128W        W20873  44.888  11.663  12.506
61129W        W20874  29.628  20.180  14.293
61130W        W20875  18.710  17.091  12.395
61131W        W20876   0.482  10.854   1.879
61132W        W20877  37.950  43.791  10.552
61133W        W20878  23.180  14.327   2.690
61134W        W20879  23.589  37.339  12.509
61135W        W20880  29.059  25.027   4.699
61136W        W20881  36.400  17.682  13.474
61137W        W20882  31.617  34.057   0.255
61138W        W20883  20.191  35.017   0.736
61139W        W20884  22.706  39.001  10.113
61140W        W20885  17.223  37.884   3.191
61141W        W20886  32.406  35.051   3.735
61142W        W20887  15.671  18.714  10.474
61143W        W20888  18.573  13.695   0.453
61144W        W20889  16.147  34.438   2.347
61145W        W20890  29.920  32.425  12.086
61146W        W20891   7.398  15.821   0.931
61147W        W20892   4.918  35.527  12.966
61148W        W20893  42.449  42.446   0.750
61149W        W20894   1.246  32.629   5.297
61150W        W20895  44.968  11.338   1.887
61151W        W20896  33.548   2.832   5.202
61152W        W20897  11.213   1.969  10.639
61153W        W20898  21.549  11.707  12.575
61154W        W20899  30.423  35.938   3.175
61155W        W20900  33.492  41.967  12.850
61156W        W20901   3.740  32.959  13.803
61157W        W20902  15.096  14.198  10.919
61158W        W20903  20.153  24.609   0.905
61159W        W20904  39.512  23.219  14.015
61160W        W20905  44.397  40.397   0.924
61161W        W20906  16.203  26.599   3.738
61162W        W20907   7.683  26.599  11.609
61163W        W20908  42.819   0.934   4.349
61164W        W20909   4.208  13.807   0.962
61165W        W20910  29.520   3.733   1.399
61166W        W20911   1.456  20.599  13.422
61167W        W20912  15.699  32.092  12.555
61168W        W20913  22.507  23.573   1.298
61169W        W20914  18.102  41.032  12.890
61170W        W20915  28.968   6.883   3.723
61171W        W20916  33.110  19.112  11.521
61172W        W20917   1.874  44.501   1.799
61173W        W20918   1.458  32.581   2.831
61174W        W20919  19.284  21.242   0.742
61175W        W20920  40.930  30.442   1.917
61176W        W20921  40.518  19.252   1.702
61177W        W20922  11.657  29.511   4.332
61178W        W20923  32.524   5.237   1.851
61179W        W20924  18.784  38.496   1.402
61180W        W20925  23.222  20.588   4.230
61181W        W20926  17.627  11.804   4.796
61182W        W20927  19.152  10.266   1.899
61183W        W20928  30.583  22.694   2.328
61184W        W20929  42.963  23.730  13.354
61185W        W20930  38.884   2.471   0.736
61186W        W20931  14.185  15.642  10.072
61187W        W20932  43.284  35.913  12.023
61188W        W20933  19.537  18.734   0.861
61189W        W20934  12.177  29.551  10.951
61190W        W20935  34.523  36.945   1.364
61191W        W20936  28.168   5.335   1.395
61192W        W20937  34.597  41.437   2.180
61193W        W20938  13.180   4.740   2.220
61194W        W20939  14.329  32.568  14.030
61195W        W20940  37.514  26.981   4.267
61196W        W20941   9.343  32.593   2.285
61197W        W20942  41.327  21.253  10.519
61198W        W20943  20.584  27.993   3.250
61199W        W20944  12.667  37.895  11.421
61200W        W20945  14.178  22.723   1.809
61201W        W20946   1.900  42.343  13.948
61202W        W20947  38.965  41.866   1.892
61203W        W20948  13.834  22.608  13.889
61204W        W20949  16.782   3.771   3.317
61205W        W20950  13.639   9.295   1.247
61206W        W20951  33.518   1.858   3.664
61207W        W20952   7.761   7.264   4.181
61208W        W20953  25.478   3.218   0.825
61209W        W20954  17.680   3.347  12.399
61210W        W20955   5.808  37.010  14.442
61211W        W20956  24.536  13.816   9.944
61212W        W20957  27.107  37.489   0.450
61213W        W20958  42.388   9.786   4.755
61214W        W20959  39.350  34.404  14.779
61215W        W20960  12.694   1.912  10.960
61216W        W20961  13.344  40.365   0.433
61217W        W20962  25.704  22.211  13.947
61218W        W20963  32.485  17.111   2.704
61219W        W20964   9.323  17.214   1.289
61220W        W20965  27.127   7.357   2.257
61221W        W20966   7.393  28.621  13.815
61222W        W20967  44.999   4.402   4.742
61223W        W20968   5.245  12.340  14.931
61224W        W20969  32.465  43.985  12.858
61225W        W20970  18.586  40.837   4.767
61226W        W20971  29.937   9.374  12.346
61227W        W20972  20.583  15.227  14.788
61228W        W20973  40.964  11.789   2.272
61229W        W20974  29.572   5.815  14.319
61230W        W20975  23.139  38.065  14.479
61231W        W20976  41.412  30.636   0.446
61232W        W20977  15.693  12.141  10.580
61233W        W20978  40.494  19.187  13.807
61234W        W20979   2.927  16.147   2.370
61235W        W20980   0.939   5.805   3.699
61236W        W20981  36.911  42.948   3.281
61237W        W20982  38.024   0.924   3.806
61238W        W20983   4.303  38.505  13.538
61239W        W20984  44.800  35.561   0.828
61240W        W20985   5.837  35.422  11.607
61241W        W20986  36.904  25.165   2.753
61242W        W20987  35.587  22.643   0.753
61243W        W20988  32.427   1.766   2.187
61244W        W20989  43.411  40.933   1.891
61245W        W20990   7.175  10.730   1.266
61246W        W20991  37.868   6.262   0.847
61247W        W20992  25.211  42.987  10.144
61248W        W20993  20.621   0.291   1.361
61249W        W20994  15.769  22.250   2.746
61250W        W20995  27.514  10.771  12.572
61251W        W20996  30.004  13.164   2.860
61252W        W20997   9.742  43.428  11.120
61253W        W20998  15.821  15.635   0.355
61254W        W20999  29.930  32.984   1.436
61255W        W21000  18.743   5.748  11.084
61256W        W21001  11.271  25.214  14.929
61257W        W21002  35.433  35.385   2.367
61258W        W21003  16.691  21.057   3.717
61259W        W21004  33.979  18.151  14.287
61260W        W21005  34.433  40.887  14.768
61261W        W21006  33.481  26.997  14.028
61262W        W21007  20.227  32.597  10.625
61263W        W21008   8.885  30.619  11.873
61264W        W21009   1.288  40.549   3.714
61265W        W21010  15.802  24.550   2.270
61266W        W21011   4.217  10.690  13.900
61267W        W21012   2.958  19.768   0.349
61268W        W21013  14.593  39.839  13.001
61269W        W21014  28.003  34.865   1.340
61270W        W21015  38.549  22.662   1.418
61271W        W21016  33.585  43.855  14.844
61272W        W21017  43.829  17.724  12.987
61273W        W21018  32.466   8.784   2.745
61274W        W21019  21.754   2.787  13.821
61275W        W21020  13.788  24.682   1.901
61276W        W21021  28.646  27.956  12.563
61277W        W21022  43.322  37.842  13.995
61278W        W21023  21.223  13.313  10.927
61279W        W21024  37.897  12.203   1.798
61280W        W21025  32.538  32.944  10.934
61281W        W21026  10.715  40.021  11.607
61282W        W21027  29.630  41.369   2.201
61283W        W21028  27.100  26.959   1.699
61284W        W21029  18.756  29.646  14.997
61285W        W21030   4.817   6.777   2.853
61286W        W21031   4.733  35.056   4.753
61287W        W21032  33.616  25.568   1.368
61288W        W21033  11.800  40.463  10.075
61289W        W21034  34.971  20.705  14.806
61290W        W21035  14.597  22.681  13.506
61291W        W21036  34.430  19.222  11.966
61292W        W21037  42.934   7.831  10.523
61293W        W21038  24.086  28.934   9.960
61294W        W21039  39.949  24.976  10.981
61295W        W21040   5.242  23.132  11.900
61296W        W21041  19.261  12.255  14.402
61297W        W21042  19.615   8.676  13.018
61298W        W21043  32.442  17.563   4.122
61299W        W21044  29.985  43.516   4.731
61300W        W21045  38.351  27.479  14.900
61301W        W21046   1.465  35.363  11.953
61302W        W21047  16.794  16.314  14.414
61303W        W21048   9.173  11.176  13.350
61304W        W21049  27.471  31.525  12.553
61305W        W21050  41.385  23.685  12.873
61306W        W21051   7.873   2.422   0.798
61307W        W21052  27.044  29.656   2.227
61308W        W21053  37.083  17.800  14.901
61309W        W21054  21.018  12.648  14.402
61310W        W21055  19.223   9.823  14.509
61311W        W21056  33.040   9.791  14.957
61312W        W21057   0.892  20.205  11.905
61313W        W21058  42.906  43.342  13.014
61314W        W21059  11.218  41.329   2.300
61315W        W21060  31.452  35.984  13.795
61316W        W21061  41.025   5.745  14.329
61317W        W21062  28.162  21.685  14.508
61318W        W21063  32.460  37.357   1.787
61319W        W21064  32.045   0.882   5.217
61320W        W21065   7.689  29.458   3.305
61321W        W21066   2.747  39.365   4.204
61322W        W21067  42.445  34.103  14.804
61323W        W21068  20.741   7.706  12.085
61324W        W21069  28.180  42.012   1.304
61325W        W21070  19.070  34.019   2.262
61326W        W21071  36.972   6.810   1.793
61327W        W21072  14.624  25.056  12.348
61328W        W21073  29.104  34.018  12.840
61329W        W21074  13.153  31.907   2.341
61330W        W21075  15.154  44.276  11.875
61331W        W21076  37.895  16.644  11.033
61332W        W21077  27.455  41.923  13.544
61333W        W21078  39.884  40.416   0.380
61334W        W21079  15.753  23.225  14.907
61335W        W21080  16.586  38.025   2.370
61336W        W21081   9.784  34.563   3.755
61337W        W21082  39.813  16.190  14.001
61338W        W21083  16.223   5.923   2.805
61339W        W21084  20.763  25.511   4.779
61340W        W21085   5.765  28.648   1.808
61341W        W21086  16.296  32.993  10.980
61342W        W21087  33.544  26.549  12.435
61343W        W21088   2.371  22.602  12.083
61344W        W21089  34.382  16.098   1.807
61345W        W21090  44.402  41.899  12.476
61346W        W21091  35.548  14.322   1.898
61347W        W21092  34.452  10.357  14.954
61348W        W21093  18.055   7.355   4.244
61349W        W21094  38.526  17.144   2.805
61350W        W21095   0.818  12.740  13.500
61351W        W21096  34.553  43.955   1.366
61352W        W21097  35.047  38.533  13.898
61353W        W21098  43.454   4.352  12.940
61354W        W21099  20.075  13.265  13.446
61355W        W21100  15.108  10.291  10.994
61356W        W21101   3.872  17.120   2.322
61357W        W21102   4.911  17.206  12.843
61358W        W21103  14.759  40.409  10.605
61359W        W21104   4.925  36.533  13.009
61360W        W21105  19.040  26.106   0.280
61361W        W21106  18.706  25.132  11.061
61362W        W21107  14.728   6.847   1.421
61363W        W21108  17.798  28.142   3.245
61364W        W21109  12.682  30.111   2.216
61365W        W21110  10.854  38.948  12.382
61366W        W21111   8.306  43.338  11.501
61367W        W21112  36.002  28.508  13.427
61368W        W21113  41.323   3.349   5.251
61369W        W21114  29.486  18.686  14.853
61370W        W21115  16.716   9.274   0.850
61371W        W21116  11.699  44.432  11.946
61372W        W21117  27.064  37.525  10.579
61373W        W21118  27.065  24.697  12.063
61374W        W21119  21.663  19.608   2.398
61375W        W21120  13.179  23.026   0.254
61376W        W21121  33.042  41.530  12.512
61377W        W21122  27.147  24.076   0.840
61378W        W21123  21.214  23.503   4.228
61379W        W21124  34.095  14.682   0.937
61380W        W21125  21.238  20.185   0.811
61381W        W21126  39.499   3.299  14.015
61382W        W21127  16.159  38.408   0.350
61383W        W21128   1.397  19.252  12.517
61384W        W21129  17.246   1.895  13.500
61385W        W21130  39.419  29.427  10.620
61386W        W21131  42.311  29.979  13.976
61387W        W21132  16.685  34.573   0.872
61388W        W21133   5.218  14.289   4.824
61389W        W21134   5.275  42.473  12.341
61390W        W21135  10.865   5.356  11.051
61391W        W21136  21.140  39.354  13.386
61392W        W21137  10.652  13.232  13.055
61393W        W21138  31.606  39.882   0.809
61394W        W21139  39.874  10.278   3.731
61395W        W21140  15.623  20.060  11.920
61396W        W21141  32.591  26.196   0.424
61397W        W21142  11.291  37.004  13.000
61398W        W21143  11.185   7.263  10.495
61399W        W21144  11.181  18.260   1.855
61400W        W21145   2.277  43.290  14.358
61401W        W21146  14.700  38.542  14.937
61402W        W21147  33.039  31.561  14.381
61403W        W21148   7.257   1.862  12.853
61404W        W21149  40.982   4.333  14.019
61405W        W21150  14.176  33.500   1.756
61406W        W21151  23.736  36.087  11.948
61407W        W21152  28.014  30.612   4.296
61408W        W21153  18.786  29.598   0.780
61409W        W21154   5.778  24.981   4.663
61410W        W21155  38.451  41.535   2.248
61411W        W21156  32.960  36.900  11.068
61412W        W21157  40.970  42.917   1.721
61413W        W21158  13.623  10.667   0.440
61414W        W21159   8.265  44.492  13.344
61415W        W21160  39.475  23.516   3.732
61416W        W21161   8.678  27.146  14.421
61417W        W21162   7.787   5.926   1.320
61418W        W21163  35.444   6.731  12.436
61419W        W21164  44.440  42.817  12.561
61420W        W21165  16.698   7.197   0.831
61421W        W21166  37.410  21.192  12.052
61422W        W21167  14.807  11.206  11.965
61423W        W21168  44.495  35.084  12.400
61424W        W21169  18.609  34.085  14.764
61425W        W21170  10.753  38.497   1.269
61426W        W21171  36.547  36.349  13.886
61427W        W21172  13.721  40.805   4.648
61428W        W21173  26.691  39.032   3.362
61429W        W21174   2.754  26.686  14.383
61430W        W21175  11.261  21.539   1.887
61431W        W21176  35.977  39.843   1.705
61432W        W21177   3.765  26.488   2.260
61433W        W21178   2.797  24.027   4.667
61434W        W21179  36.920  44.264   2.201
61435W        W21180  17.789  43.463  14.957
61436W        W21181  17.209  16.610   4.323
61437W        W21182   3.312   4.875  12.964
61438W        W21183  25.175  26.534  12.069
61439W        W21184  11.624  11.658   5.089
61440W        W21185  36.392   5.922  13.358
61441W        W21186  41.015   0.894  13.832
61442W        W21187   6.711  30.137   3.684
61443W        W21188   8.367   1.481  11.479
61444W        W21189  39.385   6.699   3.190
61445W        W21190   7.768  27.663  12.076
61446W        W21191   7.214   3.854   2.844
61447W        W21192   2.866  44.842   0.476
61448W        W21193  26.130  15.824  14.985
61449W        W21194  38.543  33.908   2.830
61450W        W21195  43.969  40.860   3.241
61451W        W21196  14.096  44.947   1.761
61452W        W21197   0.459   2.418  11.072
61453W        W21198   2.789   1.314  11.997
61454W        W21199  27.692  28.585   9.601
61455W        W21200  32.532  23.179   2.712
61456W        W21201  43.293  16.698   1.890
61457W        W21202   2.294   1.964   3.281
61458W        W21203  33.971  31.511  14.349
61459W        W21204   0.788  13.610   1.221
61460W        W21205  34.603  13.800  13.873
61461W        W21206  41.821   7.195  10.074
61462W        W21207  10.257  28.961   1.296
61463W        W21208  32.956  28.931   3.659
61464W        W21209   4.829  36.949  10.997
61465W        W21210  33.120  12.345  13.059
61466W        W21211  17.216  34.600  12.836
61467W        W21212   3.443  26.479  10.431
61468W        W21213  29.516  38.058  13.439
61469W        W21214  35.413  18.773   2.714
61470W        W21215  10.312  42.847   5.109
61471W        W21216  44.001  31.007   1.772
61472W        W21217  26.520   4.254  12.394
61473W        W21218  43.925   3.924   2.793
61474W        W21219  30.535  16.255   3.673
61475W        W21220  20.088  12.729   3.783
61476W        W21221  15.193  33.890  11.422
61477W        W21222  36.962  31.479   0.863
61478W        W21223  13.775  24.032  11.970
61479W        W21224  39.443  40.967  12.905
61480W        W21225  10.721  32.455  13.004
61481W        W21226  13.286  11.237   4.153
61482W        W21227  24.205  14.725  13.500
61483W        W21228   0.971  30.121  12.355
61484W        W21229  22.723   2.901   1.226
61485W        W21230  28.032  17.586   0.279
61486W        W21231  27.643  33.883   1.775
61487W        W21232  29.579  17.741   2.414
61488W        W21233  24.556  31.625  11.942
61489W        W21234  16.294  21.085  11.489
61490W        W21235   1.951   7.214  12.471
61491W        W21236  33.568  13.333  12.975
61492W        W21237  10.823  24.212   0.478
61493W        W21238  39.387   3.420  12.440
61494W        W21239  24.099  27.173  10.424
61495W        W21240   6.285  30.040  11.109
61496W        W21241   7.745   0.431   1.794
61497W        W21242  11.821  32.918   2.232
61498W        W21243  19.121  28.538   4.623
61499W        W21244  37.389  26.649   4.175
61500W        W21245   0.290  33.459  11.944
61501W        W21246  23.619  15.751  14.425
61502W        W21247  11.183  27.501  12.565
61503W        W21248  33.404  36.080   1.799
61504W        W21249  44.794  23.184  11.954
61505W        W21250  21.244   3.316   2.888
61506W        W21251  33.490  25.185   3.637
61507W        W21252  15.197  13.813   4.219
61508W        W21253  42.390  12.749  12.968
61509W        W21254  39.401  11.824  11.125
61510W        W21255   4.429  14.095  11.411
61511W        W21256  36.852  12.132   1.313
61512W        W21257  18.779  31.585  11.014
61513W        W21258  36.414   4.928   1.274
61514W        W21259   2.266   0.293   0.262
61515W        W21260  13.787  27.519   1.843
61516W        W21261   4.292  43.303  14.475
61517W        W21262  31.432  20.622  10.982
61518W        W21263  23.127  39.006  13.468
61519W        W21264  42.350   3.351   3.330
61520W        W21265  43.445   2.255   1.360
61521W        W21266   3.741  35.409   2.881
61522W        W21267  36.550   6.238   4.259
61523W        W21268  42.976   0.482   3.370
61524W        W21269   9.387   1.861  10.571
61525W        W21270  40.358   8.340  14.874
61526W        W21271  30.518  36.022   4.233
61527W        W21272   3.801  33.430  14.428
61528W        W21273  30.063  24.508   2.234
61529W        W21274   5.765  30.534   3.814
61530W        W21275  26.640  33.384  10.517
61531W        W21276  11.239   5.227  14.912
61532W        W21277  30.439  12.706  11.557
61533W        W21278   6.914   3.414   2.388
61534W        W21279  43.812  11.170  14.010
61535W        W21280  31.906  38.873  10.406
61536W        W21281  25.203  40.042  13.527
61537W        W21282   5.706   8.261   1.239
61538W        W21283   4.279  26.066   2.779
61539W        W21284  28.130  28.621   3.385
61540W        W21285   8.368  26.472   5.188
61541W        W21286  14.641  25.669   0.288
61542W        W21287  10.288  24.984  12.078
61543W        W21288  10.182  26.154  14.791
61544W        W21289  39.482  44.389  11.381
61545W        W21290   9.332  27.189   3.199
61546W        W21291  10.290  11.674   1.264
61547W        W21292  25.064  32.583   1.388
61548W        W21293  40.354  25.472  10.482
61549W        W21294  29.477   1.459  11.045
61550W        W21295  27.455  31.407   1.255
61551W        W21296   0.912  18.601   3.180
61552W        W21297  20.188  25.182  13.521
61553W        W21298  12.685   8.796  12.000
61554W        W21299  19.544  44.959   1.899
61555W        W21300  16.165  31.554  13.862
61556W        W21301  28.548  27.942  11.043
61557W        W21302  25.497  41.439  14.935
61558W        W21303  25.475  37.001  14.765
61559W        W21304  11.804  27.521   3.194
61560W        W21305  22.150  30.982   4.828
61561W        W21306   2.430   6.775   0.367
61562W        W21307  16.638  18.209  13.027
61563W        W21308  25.650  10.367  11.504
61564W        W21309  18.180  40.904  13.409
61565W        W21310  26.203  31.124  10.048
61566W        W21311  39.058  27.073   3.160
61567W        W21312  23.210  43.870  13.340
61568W        W21313  17.161  25.711  10.908
61569W        W21314  34.395  15.269   4.769
61570W        W21315  30.976  34.599  13.944
61571W        W21316  12.641   8.836  14.353
61572W        W21317  14.767  20.687  13.889
61573W        W21318  23.228  22.123   2.804
61574W        W21319  39.862  39.954   1.714
61575W        W21320  15.266  43.931  13.325
61576W        W21321   1.300  24.156   1.767
61577W        W21322  17.776   7.332  12.476
61578W        W21323   2.262  23.238   4.133
61579W        W21324  33.985  36.995  12.029
61580W        W21325  14.214   5.341   3.829
61581W        W21326   8.231  10.299  11.414
61582W        W21327   7.329  14.305  13.974
61583W        W21328   4.820  15.327   0.754
61584W        W21329   9.802  41.321   0.861
61585W        W21330   1.762  38.342   0.483
61586W        W21331  34.945  20.592  11.988
61587W        W21332  32.024  40.423  12.051
61588W        W21333  14.818  31.627   0.769
61589W        W21334  32.606   2.839  11.980
61590W        W21335   9.212  22.500   2.335
61591W        W21336   8.174  31.119   3.829
61592W        W21337  36.351  26.583   4.685
61593W        W21338  25.518  20.138  12.402
61594W        W21339  18.623  41.808  12.477
61595W        W21340  41.320  15.199   0.429
61596W        W21341  22.603  23.507  14.340
61597W        W21342  13.792   8.736  14.936
61598W        W21343  28.051  25.150  14.771
61599W        W21344   8.696  15.578  11.575
61600W        W21345  23.709  36.079  10.987
61601W        W21346  28.509  14.177   4.185
61602W        W21347   1.436  35.553  11.431
61603W        W21348  26.490  23.003   0.390
61604W        W21349  14.632  23.493   3.737
61605W        W21350   7.877  44.911   1.784
61606W        W21351  41.398  22.248   4.320
61607W        W21352   2.337  22.693  10.567
61608W        W21353  10.335  42.384  13.975
61609W        W21354  12.782  16.255  12.858
61610W        W21355  10.863  18.577  12.089
61611W        W21356  31.963  39.924  10.996
61612W        W21357  41.866  31.462   1.888
61613W        W21358   8.320  33.051   4.149
61614W        W21359  13.145  23.582   2.356
61615W        W21360  41.815  36.972  13.318
61616W        W21361  27.605  27.163   0.808
61617W        W21362   3.891  21.157  14.790
61618W        W21363  18.085  13.297   4.274
61619W        W21364   8.780   2.318   1.223
61620W        W21365  15.722   8.777   4.690
61621W        W21366  23.533  27.161   0.438
61622W        W21367   7.736  27.966  10.044
61623W        W21368  22.242   1.888   2.870
61624W        W21369  24.538  39.009   1.832
61625W        W21370  38.570  23.625   0.763
61626W        W21371   4.439  26.611  14.762
61627W        W21372   7.827  25.061   0.412
61628W        W21373  29.023  17.619   4.724
61629W        W21374  25.662   5.874   2.257
61630W        W21375  43.911  36.551  11.126
61631W        W21376   3.846  33.048  11.572
61632W        W21377  31.043  15.585   5.282
61633W        W21378   4.773  25.070   3.772
61634W        W21379  18.158  19.559  12.974
61635W        W21380  24.662  43.987  11.602
61636W        W21381  44.354   9.189  14.475
61637W        W21382  40.445  13.189  14.933
61638W        W21383   2.963  10.335   2.775
61639W        W21384  31.446  24.674  13.023
61640W        W21385  11.695   9.881   1.222
61641W        W21386  44.886  22.573  12.503
61642W        W21387   9.716  32.994  12.458
61643W        W21388  24.488   6.846   3.743
61644W        W21389  41.508  32.555  14.321
61645W        W21390   6.209   3.724   2.746
61646W        W21391  17.768  21.233   4.214
61647W        W21392   6.842  15.654  11.127
61648W        W21393   7.892  10.296  10.927
61649W        W21394   5.383  23.676   4.217
61650W        W21395  40.474  23.007  13.377
61651W        W21396   2.914  12.677  11.506
61652W        W21397   0.364  23.686   3.343
61653W        W21398  32.899  34.106   1.399
61654W        W21399  23.679  36.097  14.816
61655W        W21400  29.492  36.027   4.713
61656W        W21401   1.731  14.657   4.245
61657W        W21402  19.729  30.557  11.566
61658W        W21403  27.126  17.089   3.803
61659W        W21404  36.853  18.694  11.048
61660W        W21405   5.258   6.782  11.435
61661W        W21406   6.192   5.304   1.355
61662W        W21407   6.214   8.164  10.917
61663W        W21408  37.418   4.807  12.894
61664W        W21409  14.746   2.940   4.290
61665W        W21410  43.402  20.687   0.793
61666W        W21411  27.117  28.052   3.261
61667W        W21412   7.346  20.609  10.480
61668W        W21413   3.883  38.436   1.289
61669W        W21414   5.817   4.431  12.940
61670W        W21415  26.494  42.946   4.755
61671W        W21416   4.942  12.312   4.227
61672W        W21417  13.792  24.693   3.705
61673W        W21418   7.839   3.396   3.202
61674W        W21419  13.791  21.562  10.983
61675W        W21420  36.484  31.955  13.059
61676W        W21421   8.692  39.864   3.216
61677W        W21422  10.695  17.558   1.761
61678W        W21423   8.265  12.341   4.822
61679W        W21424  31.422  13.235  14.885
61680W        W21425  27.042  35.058  12.867
61681W        W21426   3.713  43.987  13.331
61682W        W21427   6.681  17.163   3.150
61683W        W21428  33.581  32.137  14.295
61684W        W21429  13.335  29.539   1.925
61685W        W21430  17.763   6.329  10.992
61686W        W21431   9.344  19.045   4.732
61687W        W21432  24.557  20.032   2.689
61688W        W21433  35.460  16.641  10.498
61689W        W21434  16.592   6.377   2.732
61690W        W21435  26.194  20.190  13.475
61691W        W21436  18.600   8.362  13.006
61692W        W21437  24.973  19.053   1.248
61693W        W21438  15.626  31.004   0.327
61694W        W21439  36.576  19.187  12.865
61695W        W21440  39.912  36.043  14.362
61696W        W21441  22.132  27.499   0.373
61697W        W21442  38.061  32.071  14.016
61698W        W21443  12.290  14.168   2.663
61699W        W21444   0.917   2.963   1.905
61700W        W21445   9.644  25.626  14.872
61701W        W21446  15.191  30.922   4.674
61702W        W21447   1.260  34.977   0.747
61703W        W21448  37.349  37.983  14.829
61704W        W21449  29.960  20.747  12.425
61705W        W21450  10.834  44.272   3.734
61706W        W21451  42.859  12.683   4.123
61707W        W21452  37.927  28.483  10.456
61708W        W21453  37.855   1.928  12.550
61709W        W21454  19.239  26.692  11.014
61710W        W21455  12.855   3.387  14.894
61711W        W21456   4.759  33.511   3.256
61712W        W21457  22.094  27.090  13.498
61713W        W21458  22.122  13.230   9.998
61714W        W21459  41.844   9.388  12.563
61715W        W21460  31.458   0.946  11.455
61716W        W21461   3.446  19.678  11.972
61717W        W21462  27.956  44.458   1.226
61718W        W21463  15.808   2.925   1.223
61719W        W21464  38.523   3.340  14.297
61720W        W21465   2.264   6.757  12.879
61721W        W21466  31.595  10.632  14.900
61722W        W21467  20.226  17.771  14.874
61723W        W21468  40.425  39.388   1.920
61724W        W21469  18.215   7.754  13.898
61725W        W21470  37.456  41.470   0.752
61726W        W21471  29.472  34.533   1.934
61727W        W21472  14.310   6.888  13.004
61728W        W21473  40.524   1.904   3.276
61729W        W21474  42.330  36.518   2.836
61730W        W21475  16.241  24.577   0.397
61731W        W21476  44.341  20.538   0.906
61732W        W21477  25.171   6.192  12.961
61733W        W21478  21.048  27.473  14.978
61734W        W21479  16.238  32.605   2.337
61735W        W21480  25.079  25.652  13.959
61736W        W21481  16.309  17.657   2.407
61737W        W21482  22.076  28.040  12.460
61738W        W21483  24.548   7.271  12.064
61739W        W21484  13.706  33.014   4.174
61740W        W21485  10.650  27.535  11.474
61741W        W21486  42.284  29.568  10.493
61742W        W21487   4.739   7.810   3.838
61743W        W21488   2.313   8.726   1.311
61744W        W21489   7.329  40.933  14.026
61745W        W21490  33.033   7.209   3.789
61746W        W21491  18.758  15.772   1.429
61747W        W21492  15.155  21.544   3.304
61748W        W21493  26.702  23.556  11.592
61749W        W21494  10.142  28.979  10.517
61750W        W21495  38.062   6.280   0.270
61751W        W21496  32.128  14.628  13.978
61752W        W21497  22.663  10.375  11.029
61753W        W21498  35.983  24.526   0.247
61754W        W21499  43.400   5.717  12.894
61755W        W21500   8.715   5.393  10.423
61756W        W21501  31.401  16.742  10.087
61757W        W21502  40.926  18.123   0.478
61758W        W21503  23.041  43.934  10.485
61759W        W21504  15.297  37.045  13.432
61760W        W21505  25.622   3.859  14.900
61761W        W21506  36.360   5.824  11.536
61762W        W21507  38.427  22.060  11.580
61763W        W21508  35.553  39.514  10.458
61764W        W21509   9.200  23.060  12.438
61765W        W21510   8.714  38.013   4.328
61766W        W21511  17.082  27.037   3.695
61767W        W21512  11.366   9.290  10.409
61768W        W21513  43.018  21.122   0.765
61769W        W21514   8.318  30.601   2.888
61770W        W21515  24.483  44.472  12.363
61771W        W21516  21.100  26.094  14.998
61772W        W21517  27.464   4.269   2.291
61773W        W21518  35.449   4.712   2.749
61774W        W21519  11.203  23.676  12.572
61775W        W21520  10.785   5.276  14.858
61776W        W21521  41.487   3.304  12.928
61777W        W21522  14.830   7.879   1.346
61778W        W21523   1.260   6.317  14.964
61779W        W21524  24.993  15.687  11.002
61780W        W21525  27.138  39.364   0.831
61781W        W21526  41.424  33.380  13.317
61782W        W21527  44.295  23.030  10.639
61783W        W21528  15.283  30.055   4.656
61784W        W21529  26.082  41.017   1.731
61785W        W21530  26.952   9.211  12.492
61786W        W21531  13.836  35.555   4.785
61787W        W21532  32.616  42.422   0.339
61788W        W21533   8.384  32.121  10.950
61789W        W21534  24.693   5.388   4.608
61790W        W21535  41.802  14.274  12.858
61791W        W21536  10.828  22.251  14.337
61792W        W21537  13.773  17.768   3.669
61793W        W21538  12.357   0.939  14.312
61794W        W21539  27.569  11.283  13.809
61795W        W21540  38.953  36.086  10.150
61796W        W21541  30.500  38.398  14.762
61797W        W21542  16.115   0.297  11.913
61798W        W21543  40.303   1.959  13.538
61799W        W21544  31.585  13.696  11.963
61800W        W21545  44.807  33.481  14.778
61801W        W21546  43.415  18.609   3.153
61802W        W21547  39.965  25.967   1.911
61803W        W21548  35.546  17.689  11.948
61804W        W21549  16.764  17.196   3.248
61805W        W21550  27.621  25.524   3.185
61806W        W21551  41.360  18.770  13.795
61807W        W21552  37.930   1.423   4.125
61808W        W21553  23.722  24.027   0.335
61809W        W21554  15.166  15.217  12.557
61810W        W21555   6.385  34.960  13.969
61811W        W21556  38.922  15.160   1.832
61812W        W21557  21.194  15.627   3.777
61813W        W21558  30.031  25.483   3.220
61814W        W21559   7.867   6.365  10.627
61815W        W21560   4.241  32.951   1.408
61816W        W21561   5.399  29.649  10.987
61817W        W21562  42.846  41.973  13.041
61818W        W21563  22.568  10.793  13.391
61819W        W21564  28.090   4.237   3.357
61820W        W21565  10.375   0.291  12.489
61821W        W21566  37.076  31.405   1.721
61822W        W21567  25.125  25.686  11.929
61823W        W21568  30.478  39.918   3.655
61824W        W21569  34.071  35.473   0.431
61825W        W21570  40.825  35.094   4.627
61826W        W21571  33.549   1.888  11.010
61827W        W21572  10.252  40.380  14.365
61828W        W21573   4.301  11.630  13.863
61829W        W21574  40.014  28.182   3.369
61830W        W21575  11.241  28.464  10.965
61831W        W21576  40.534  31.607  11.550
61832W        W21577  12.752  42.026  12.352
61833W        W21578  29.160   6.682   2.314
61834W        W21579  14.596  32.414   0.316
61835W        W21580  44.763  13.773   2.872
61836W        W21581   9.192  24.155  11.460
61837W        W21582  21.040   7.755  13.476
61838W        W21583  31.423  40.519   0.420
61839W        W21584  30.117   5.383   2.376
61840W        W21585  16.307  33.578   4.311
61841W        W21586  12.207  41.041  11.591
61842W        W21587   4.429  11.371   4.349
61843W        W21588  20.686  19.186   4.667
61844W        W21589   3.268  35.010   3.800
61845W        W21590  33.530   9.307  14.776
61846W        W21591  36.009  37.396   2.349
61847W        W21592   7.808  40.476  12.840
61848W        W21593  36.412  14.280  10.110
61849W        W21594  30.037  44.281   0.892
61850W        W21595  40.413  20.180  12.404
61851W        W21596  35.917  20.231  12.394
61852W        W21597  39.895   6.898  11.119
61853W        W21598  13.812   7.768  14.826
61854W        W21599  32.637  40.451  13.934
61855W        W21600  40.469  13.622   1.419
61856W        W21601  41.518  28.035   3.639
61857W        W21602  40.861   3.867  10.998
61858W        W21603  29.136  14.788   2.275
61859W        W21604  20.564  20.702   4.739
61860W        W21605  31.118  28.097   9.635
61861W        W21606  38.326  23.222  11.007
61862W        W21607   9.779  18.740  14.988
61863W        W21608  13.137  17.766  12.933
61864W        W21609  43.778  32.115   3.731
61865W        W21610   6.276  38.513  12.503
61866W        W21611  37.038   8.185  14.311
61867W        W21612  35.551  12.335  11.389
61868W        W21613  27.666  24.222  14.966
61869W        W21614  19.148  12.214  11.404
61870W        W21615  14.674  18.098  10.612
61871W        W21616  31.006   7.827  13.011
61872W        W21617  39.990  43.344   1.343
61873W        W21618  36.987   6.391   2.858
61874W        W21619   9.752  42.485  10.455
61875W        W21620  31.025  36.879  14.502
61876W        W21621   3.856  40.326   2.411
61877W        W21622  14.594  29.430   2.823
61878W        W21623  11.254  33.517  13.438
61879W        W21624  23.542  13.335  11.043
61880W        W21625  17.064  36.527  13.999
61881W        W21626  32.453   3.874  12.964
61882W        W21627  34.979   9.190   4.190
61883W        W21628  10.293  38.890  12.024
61884W        W21629  16.087  30.101   4.217
61885W        W21630  22.739  18.589   0.933
61886W        W21631  27.031   0.874   4.226
61887W        W21632  32.575  33.512   4.679
61888W        W21633  39.829  37.373   5.318
61889W        W21634   2.836  33.047   4.202
61890W        W21635   9.365  14.651   3.249
61891W        W21636   4.214  44.263   4.285
61892W        W21637  41.452  42.461   1.840
61893W        W21638  26.649  12.650   0.443
61894W        W21639   7.907  21.183  11.925
61895W        W21640   3.405  35.358   2.831
61896W        W21641  28.956  23.722   3.237
61897W        W21642  24.526  44.391   4.722
61898W        W21643  42.995  15.252   0.300
61899W        W21644  20.645  12.117   2.285
61900W        W21645  41.939  42.838  11.049
61901W        W21646  39.391  11.750  13.047
61902W        W21647   1.248  14.819   4.302
61903W        W21648  12.253  15.271   1.719
61904W        W21649  20.138  40.362  10.429
61905W        W21650  43.779  15.723  13.411
61906W        W21651   9.867   9.301  13.372
61907W        W21652   3.399  22.159  10.043
61908W        W21653  35.940  23.034  14.775
61909W        W21654  40.809  27.627  10.980
61910W        W21655  36.916   1.857  11.041
61911W        W21656  34.468  41.319  14.426
61912W        W21657  14.740  16.165   2.272
61913W        W21658  35.002  44.784   1.785
61914W        W21659  40.493   7.831  11.888
61915W        W21660   2.933  15.120   9.544
61916W        W21661  14.777   8.362   0.320
61917W        W21662   6.379  27.664   1.431
61918W        W21663   2.358  32.931  12.566
61919W        W21664   8.212  12.695   4.212
61920W        W21665   6.710  30.519   2.690
61921W        W21666   5.425  13.658  11.426
61922W        W21667  15.605  15.714  12.848
61923W        W21668  26.642  32.100  10.041
61924W        W21669  19.729   4.886   0.906
61925W        W21670  29.576   2.329   3.293
61926W        W21671  26.589   1.870  13.841
61927W        W21672  28.156  42.926   4.114
61928W        W21673  21.514  17.599  12.090
61929W        W21674  28.467   5.776  12.004
61930W        W21675  26.977   3.354  10.607
61931W        W21676  39.323   5.382  14.927
61932W        W21677   2.321   7.334   3.685
61933W        W21678   2.418  21.715  11.118
61934W        W21679  26.694  18.184  11.610
61935W        W21680  39.361  32.960   0.336
61936W        W21681  34.068   8.215   4.615
61937W        W21682   7.720  28.574   1.419
61938W        W21683  23.698  32.617   4.351
61939W        W21684   2.250   5.753   2.756
61940W        W21685   1.239  36.935  12.537
61941W        W21686  20.650  41.324   0.911
61942W        W21687  39.926   0.385   2.304
61943W        W21688  10.261   8.224   4.200
61944W        W21689  33.534  20.611  12.976
61945W        W21690  35.481  34.468   1.272
61946W        W21691  34.512  13.761  14.490
61947W        W21692  13.844  44.337  11.028
61948W        W21693  39.488  28.449  13.870
61949W        W21694  24.670  36.015   4.819
61950W        W21695  42.949  43.500  13.823
61951W        W21696  28.106  21.143   0.910
61952W        W21697  23.114  37.497   1.212
61953W        W21698  17.267  12.189  13.932
61954W        W21699  27.539  19.209  12.888
61955W        W21700  30.992  23.127  11.061
61956W        W21701  38.951  27.600   2.852
61957W        W21702  15.699   5.788  12.384
61958W        W21703   7.384  38.386  13.824
61959W        W21704  29.475   4.217   0.479
61960W        W21705  41.947  26.695  12.497
61961W        W21706  12.682  44.005  14.449
61962W        W21707  27.964  29.429  12.449
61963W        W21708  29.437  23.510   1.859
61964W        W21709  29.135  21.191   3.826
61965W        W21710  32.936   9.319   1.430
61966W        W21711   6.689  21.083   4.176
61967W        W21712  29.486  15.083   1.322
61968W        W21713  17.722  18.674   2.336
61969W        W21714   7.861  13.792  11.100
61970W        W21715  30.435  37.548  14.461
61971W        W21716   4.338  39.831   4.318
61972W        W21717  21.513   3.786  14.861
61973W        W21718  22.154  29.084   1.421
61974W        W21719  21.600  34.379   5.250
61975W        W21720  16.718   4.411   1.346
61976W        W21721   5.866  25.979   4.607
61977W        W21722   4.830  16.169  10.550
61978W        W21723  21.732  44.881   5.100
61979W        W21724  34.497  13.684  12.547
61980W        W21725  42.315   7.717  11.076
61981W        W21726  20.733  41.457  14.780
61982W        W21727  30.429   4.369   0.341
61983W        W21728   6.901  30.967   4.617
61984W        W21729  44.965  34.915  10.028
61985W        W21730   6.839   5.913   1.766
61986W        W21731  26.517  14.221   3.221
61987W        W21732  20.552  41.372   1.402
61988W        W21733  41.794  31.979   2.807
61989W        W21734   1.417   8.314  12.378
61990W        W21735  13.800  16.696  12.996
61991W        W21736  33.054  20.525   4.308
61992W        W21737  43.800  33.527  11.573
61993W        W21738   6.283  27.505  13.458
61994W        W21739  35.397  18.713   2.214
61995W        W21740  35.559  35.549  14.487
61996W        W21741   3.457  16.318  14.512
61997W        W21742   4.398  30.557   4.266
61998W        W21743  30.919  28.634  14.325
61999W        W21744  31.993  27.074   1.287
62000W        W21745  32.968  43.908  10.634
62001W        W21746  13.233  43.305  13.519
62002W        W21747  20.741  14.629  13.964
62003W        W21748  16.223  29.152   2.707
62004W        W21749  21.242  28.621  10.416
62005W        W21750   6.712   6.182   0.948
62006W        W21751  33.105  43.305  11.415
62007W        W21752  42.930  10.294   1.825
62008W        W21753   4.430  10.751   0.738
62009W        W21754  19.163   6.347  13.021
62010W        W21755  31.443  42.405   2.393
62011W        W21756  14.277  21.182  10.499
62012W        W21757  10.339  18.576   4.166
62013W        W21758  12.786  21.019   1.440
62014W        W21759  27.641  23.189   1.426
62015W        W21760   3.251  40.402   5.090
62016W        W21761  22.097  23.521   3.377
62017W        W21762  13.671   3.797   3.849
62018W        W21763   9.332  26.585   1.238
62019W        W21764  33.984  32.556   4.686
62020W        W21765  25.000  41.828   4.604
62021W        W21766  11.277  23.190   3.154
62022W        W21767  30.973  10.219  14.924
62023W        W21768  42.449   4.376  14.395
62024W        W21769  26.683  17.229  11.588
62025W        W21770  31.981  20.704   1.713
62026W        W21771   2.248  13.253   2.786
62027W        W21772  35.502  31.919   5.159
62028W        W21773  16.797  14.258  14.998
62029W        W21774   4.853  24.581  13.920
62030W        W21775  22.728  34.922   1.698
62031W        W21776  21.075   7.335   2.872
62032W        W21777  14.101  22.125   4.119
62033W        W21778  40.966  40.405  11.929
62034W        W21779  21.656  18.734  14.958
62035W        W21780  44.377   4.249  11.922
62036W        W21781  33.902  14.702   4.350
62037W        W21782  10.735  14.806  14.840
62038W        W21783  33.999  25.521  13.354
62039W        W21784  15.178  27.553  11.030
62040W        W21785   3.767  40.845   9.968
62041W        W21786   2.277  13.845  11.055
62042W        W21787  37.038  44.475  14.876
62043W        W21788  43.476  38.004   0.931
62044W        W21789  15.285  31.633   2.858
62045W        W21790  37.403   2.440   4.683
62046W        W21791  19.702  43.406  13.366
62047W        W21792  41.965   6.382   4.282
62048W        W21793  18.654  24.656  11.559
62049W        W21794  34.067   8.789   4.783
62050W        W21795  18.125  32.006  12.993
62051W        W21796  42.961  16.117  13.838
62052W        W21797  32.130  42.337  12.444
62053W        W21798  41.895   4.247   2.347
62054W        W21799  12.614   1.259  11.550
62055W        W21800  37.874  20.748   1.866
62056W        W21801  10.293   6.743  10.547
62057W        W21802   6.226  30.636  13.491
62058W        W21803  16.680  37.845  13.889
62059W        W21804   1.741  42.016  14.476
62060W        W21805   7.692  24.986  10.641
62061W        W21806   4.939  36.588  11.431
62062W        W21807  35.998  30.581   4.254
62063W        W21808   8.257  23.023   4.274
62064W        W21809   1.906  36.575  11.964
62065W        W21810  21.601  35.013   4.790
62066W        W21811  22.647   6.899   3.801
62067W        W21812  22.569  29.476   0.812
62068W        W21813  21.244  43.800   4.141
62069W        W21814   5.338  36.586   0.875
62070W        W21815  21.578   0.775  10.507
62071W        W21816  15.327   6.758   0.469
62072W        W21817  16.582  27.974   4.794
62073W        W21818  28.978  21.660   1.797
62074W        W21819   4.860   5.849   2.868
62075W        W21820  20.192  13.683  14.484
62076W        W21821  21.234   8.314   0.304
62077W        W21822   3.395  25.611  11.882
62078W        W21823   1.853  37.847  13.962
62079W        W21824  14.142   5.333  14.016
62080W        W21825   1.401   5.858  14.905
62081W        W21826  28.490  32.020   3.355
62082W        W21827  39.967  42.907   4.702
62083W        W21828  34.890  25.119   5.167
62084W        W21829  22.544  17.118  14.890
62085W        W21830  41.377  13.676   1.445
62086W        W21831  33.572  42.317  10.927
62087W        W21832  29.647  20.036   4.163
62088W        W21833  44.915  43.362  14.475
62089W        W21834  21.721  24.021   4.654
62090W        W21835  19.561  39.475   4.132
62091W        W21836   6.787  24.115  11.377
62092W        W21837   7.314  41.791  13.999
62093W        W21838  40.477  38.461  10.433
62094W        W21839  37.915  10.279   3.312
62095W        W21840  15.258  13.270   0.379
62096W        W21841  14.832  12.683   0.733
62097W        W21842  17.192   9.693   1.718
62098W        W21843  41.822  44.955   2.854
62099W        W21844   3.834  34.929  11.465
62100W        W21845   5.917  23.184  12.092
62101W        W21846  19.076  27.551  11.566
62102W        W21847  21.514  44.306   4.150
62103W        W21848  40.810  30.136   3.808
62104W        W21849  23.732  31.553   1.796
62105W        W21850   5.265  10.839   0.291
62106W        W21851  21.094  15.252  12.572
62107W        W21852   2.320   8.160   2.871
62108W        W21853   2.336   8.668  13.407
62109W        W21854  38.363  12.829   0.735
62110W        W21855   9.730  25.092  10.578
62111W        W21856  12.645   8.321  13.919
62112W        W21857  25.068  38.404  11.434
62113W        W21858   3.234   6.752  11.501
62114W        W21859  31.534   4.296  11.573
62115W        W21860  10.180  31.118   5.320
62116W        W21861  39.027  34.599  11.608
62117W        W21862  20.523  40.509   3.630
62118W        W21863   6.870   5.212   1.835
62119W        W21864  32.509  18.296  11.077
62120W        W21865  10.244  19.703   2.224
62121W        W21866  36.973   7.847  12.958
62122W        W21867  42.785  40.022   1.701
62123W        W21868  31.497  24.051   1.408
62124W        W21869  25.696  28.048  10.136
62125W        W21870  24.095  12.810  14.940
62126W        W21871   1.751  16.188   9.938
62127W        W21872   1.322   0.488  14.507
62128W        W21873  32.121   0.932   2.389
62129W        W21874   7.718  11.780   0.764
62130W        W21875  22.201   3.407  14.360
62131W        W21876  12.354  44.450  13.020
62132W        W21877  39.925  16.693  14.982
62133W        W21878  10.703   7.218  14.333
62134W        W21879  16.211  43.478  13.494
62135W        W21880  32.942   7.833   4.339
62136W        W21881  34.012   5.336   2.861
62137W        W21882  35.526  32.621  11.013
62138W        W21883   0.774  29.493   2.811
62139W        W21884   7.379  27.526  10.522
62140W        W21885  21.072  31.430  14.425
62141W        W21886   2.267  23.570   3.696
62142W        W21887  32.454  28.568  12.932
62143W        W21888  44.405  13.620  10.929
62144W        W21889  21.127  12.843   1.426
62145W        W21890  25.693   0.417  14.012
62146W        W21891  10.267  13.246  10.577
62147W        W21892  27.530  12.258   3.821
62148W        W21893  36.483  14.610   1.905
62149W        W21894  39.397  15.679   3.220
62150W        W21895   4.746  29.106  10.438
62151W        W21896  26.025   5.304  11.521
62152W        W21897   7.236  10.643   4.612
62153W        W21898   7.258  42.496   4.815
62154W        W21899  21.023  15.171  10.066
62155W        W21900  14.718  15.281  12.396
62156W        W21901  38.498  34.505  10.944
62157W        W21902  21.075   6.385  13.441
62158W        W21903  13.716  28.963  10.555
62159W        W21904   5.894  43.859   2.695
62160W        W21905  18.267  39.468   3.279
62161W        W21906  34.898  10.384  13.359
62162W        W21907  25.108   5.204  11.485
62163W        W21908  35.856  15.220   4.272
62164W        W21909  40.805  44.931   4.780
62165W        W21910  41.308  10.687  12.035
62166W        W21911   3.347  39.017   4.303
62167W        W21912  19.063  10.654  12.989
62168W        W21913  14.593  34.914  11.995
62169W        W21914  43.823  36.464   0.398
62170W        W21915  32.483   3.892  12.486
62171W        W21916  12.283  34.544  14.010
62172W        W21917  13.764  40.310   3.196
62173W        W21918  28.679  28.672   2.791
62174W        W21919  22.194   8.660  11.085
62175W        W21920  13.213  31.523   0.381
62176W        W21921  21.597  42.845   2.721
62177W        W21922  25.152   8.239  10.463
62178W        W21923  17.616  10.858  11.989
62179W        W21924  20.567  43.350   1.868
62180W        W21925  42.909   8.781  14.876
62181W        W21926  22.725  34.472   3.320
62182W        W21927   3.902  12.234   4.830
62183W        W21928  26.629  41.921   4.666
62184W        W21929  24.023  26.508   3.630
62185W        W21930  18.562  26.471   1.726
62186W        W21931  43.276  32.478   1.810
62187W        W21932  31.056  38.912   2.273
62188W        W21933   6.796  41.362   1.290
62189W        W21934   5.706  16.134  14.943
62190W        W21935  30.127  23.212  11.030
62191W        W21936  15.813  16.604  11.402
62192W        W21937  44.283  43.384   3.311
62193W        W21938  42.936  12.170  13.808
62194W        W21939  17.209   7.677   0.312
62195W        W21940  36.362  44.789   0.350
62196W        W21941  32.031  39.402  14.374
62197W        W21942  15.629  22.529   0.324
62198W        W21943  20.259   5.360   2.699
62199W        W21944  32.475   4.815  11.907
62200W        W21945  28.111  13.163   1.220
62201W        W21946   4.813   0.389  13.323
62202W        W21947  21.085   4.793  12.938
62203W        W21948   3.437  14.625   3.839
62204W        W21949  44.899  18.688   1.869
62205W        W21950   2.331  17.216   4.284
62206W        W21951  35.865  37.994  10.990
62207W        W21952  44.776  38.509   1.359
62208W        W21953  28.980  43.338   2.222
62209W        W21954  11.227  44.850  14.878
62210W        W21955   8.844  35.999   0.476
62211W        W21956   6.854   9.161   3.324
62212W        W21957   4.428  37.951   0.365
62213W        W21958   3.809  26.100   1.449
62214W        W21959  24.101  30.006   4.271
62215W        W21960   0.873  44.495  11.581
62216W        W21961  34.930  18.727  13.351
62217W        W21962  12.629  20.693  11.044
62218W        W21963  32.961  37.407  13.425
62219W        W21964   1.364  15.284   1.217
62220W        W21965   5.407  32.937  14.988
62221W        W21966  15.328  22.078  12.422
62222W        W21967  10.700  14.705   3.203
62223W        W21968   7.753  37.912  11.896
62224W        W21969  44.380  20.243   9.576
62225W        W21970  44.312  11.194   0.807
62226W        W21971  33.033  20.632  11.491
62227W        W21972   1.364  30.979   1.324
62228W        W21973  22.158  32.474  13.357
62229W        W21974  28.582  33.996  13.504
62230W        W21975  40.448   2.310  14.977
62231W        W21976  43.480  38.071   0.377
62232W        W21977  16.253  35.454   2.676
62233W        W21978  43.445  35.397   2.877
62234W        W21979  10.702  29.971  12.360
62235W        W21980   4.832  41.987  13.061
62236W        W21981  43.406  43.805   1.242
62237W        W21982  12.853  21.625  13.392
62238W        W21983  32.448  20.212  11.988
62239W        W21984  36.492  15.303   2.885
62240W        W21985  38.976  16.150  14.462
62241W        W21986  26.632   3.882   0.938
62242W        W21987  20.131  27.586  14.791
62243W        W21988  23.069  30.430   1.814
62244W        W21989  42.329  40.465  13.332
62245W        W21990  26.131  17.658  13.403
62246W        W21991  42.898   5.236   1.364
62247W        W21992  44.951  23.184  13.847
62248W        W21993   3.454   0.420   2.209
62249W        W21994  17.285  33.606  14.299
62250W        W21995  32.107  11.185  10.092
62251W        W21996  23.616  42.353  12.355
62252W        W21997  35.953  35.549  10.507
62253W        W21998   5.893  36.368  11.482
62254W        W21999  21.519   9.232  11.448
62255W        W22000   4.756  37.407   3.203
62256W        W22001  26.188   8.834   0.761
62257W        W22002  39.825  33.114   0.905
62258W        W22003  44.491   3.881   2.670
62259W        W22004  19.630   8.188  12.353
62260W        W22005  22.066  22.592   0.450
62261W        W22006  38.994  34.615  14.970
62262W        W22007   3.869  17.283  12.837
62263W        W22008  10.746  24.087  11.906
62264W        W22009  16.287   8.219   1.860
62265W        W22010  13.217  44.795   3.204
62266W        W22011  34.419  23.193   4.135
62267W        W22012   5.838  10.166  13.537
62268W        W22013  29.161  21.206   4.801
62269W        W22014  41.806  28.463   4.249
62270W        W22015  27.652  19.739   1.814
62271W        W22016   6.270  39.356   1.393
62272W        W22017  12.190  30.040   1.263
62273W        W22018   9.286  15.095   4.186
62274W        W22019  43.479   6.803   4.279
62275W        W22020   6.375  22.573   3.290
62276W        W22021  36.578  37.054   0.462
62277W        W22022   8.365   9.764  14.973
62278W        W22023  10.736  43.881  11.539
62279W        W22024   8.845  43.480   4.292
62280W        W22025  32.563   2.790   4.131
62281W        W22026  24.219  23.622  13.797
62282W        W22027  30.635  28.514  13.542
62283W        W22028  28.978   7.832   0.922
62284W        W22029   9.254  36.093   4.729
62285W        W22030  17.685  19.633   4.667
62286W        W22031  40.020  36.534  13.032
62287W        W22032  39.972  13.159   0.427
62288W        W22033  19.181  41.308  12.340
62289W        W22034   6.893   0.900   4.307
62290W        W22035  38.900  11.329  13.319
62291W        W22036   0.455  25.990   9.964
62292W        W22037  14.755  11.633   0.355
62293W        W22038  35.969   8.893  12.340
62294W        W22039   0.899   4.726  13.793
62295W        W22040  36.448  10.798   0.834
62296W        W22041   1.937  18.612  13.987
62297W        W22042   4.250  10.811  11.857
62298W        W22043  33.442  28.470  13.455
62299W        W22044  17.598  20.224  13.006
62300W        W22045  42.349  25.630   1.852
62301W        W22046  22.670  12.216   2.828
62302W        W22047   3.280  42.512   2.290
62303W        W22048   2.356  44.968  14.502
62304W        W22049  40.857  18.740  11.073
62305W        W22050  22.192  29.449  11.913
62306W        W22051  12.610  43.811  10.418
62307W        W22052  31.082  39.390   3.795
62308W        W22053  16.754   1.828   3.295
62309W        W22054  35.376   9.238   3.264
62310W        W22055  29.003  25.064  13.849
62311W        W22056  41.922  44.947  12.400
62312W        W22057  23.169   2.962   0.384
62313W        W22058   0.365  22.646   2.867
62314W        W22059  27.514  32.133  11.492
62315W        W22060  34.470  18.788   4.179
62316W        W22061  22.742  26.467  10.504
62317W        W22062  33.000  13.171  14.980
62318W        W22063  43.892  27.548  11.458
62319W        W22064  13.304  19.086  10.467
62320W        W22065  42.796  23.526   0.877
62321W        W22066  25.538  19.108   2.796
62322W        W22067  20.200  22.133   2.282
62323W        W22068  22.508  33.468   4.205
62324W        W22069   3.352  41.366  11.498
62325W        W22070  21.589  19.243  13.466
62326W        W22071   2.924  43.411  13.335
62327W        W22072  40.320  33.448   9.948
62328W        W22073  38.505  38.909  11.036
62329W        W22074  15.292  19.045   2.324
62330W        W22075  15.209   8.368   3.181
62331W        W22076  22.646   5.814   3.163
62332W        W22077   2.361  42.327  13.346
62333W        W22078  14.798  40.807  12.831
62334W        W22079  39.486   3.280   2.370
62335W        W22080  25.122  33.504  12.414
62336W        W22081  23.021  36.567  11.966
62337W        W22082   8.845  37.449   4.302
62338W        W22083  25.591   7.868   1.920
62339W        W22084  27.948  10.160   0.766
62340W        W22085   6.357  11.713  12.492
62341W        W22086  43.275   6.785  12.998
62342W        W22087  40.391   9.330  14.968
62343W        W22088  16.286  38.526   2.893
62344W        W22089  16.717  19.774  12.568
62345W        W22090  33.030  34.106   4.792
62346W        W22091  24.198  38.401  11.099
62347W        W22092  20.651   8.818   1.861
62348W        W22093  22.531  15.782  14.005
62349W        W22094  27.670  41.526   4.245
62350W        W22095  39.964  39.399   0.815
62351W        W22096   4.888  26.013   4.794
62352W        W22097  12.661   3.729  14.499
62353W        W22098  34.081  10.739  11.406
62354W        W22099  38.473  16.721  13.929
62355W        W22100  30.083   2.799   1.217
62356W        W22101   5.240  21.053  11.551
62357W        W22102  16.602  20.605  14.423
62358W        W22103  35.440  27.188  14.985
62359W        W22104  43.410  15.679  10.161
62360W        W22105  18.718   9.392   3.361
62361W        W22106  18.228  39.486  10.916
62362W        W22107  27.453  40.819   1.933
62363W        W22108  14.296  42.342  13.546
62364W        W22109  43.930  27.191   3.344
62365W        W22110  29.569  17.727   4.335
62366W        W22111  29.096  33.936   4.353
62367W        W22112  44.851  18.211   0.870
62368W        W22113  29.968  13.290   4.134
62369W        W22114  16.299  33.458  11.516
62370W        W22115  33.463   1.927  12.441
62371W        W22116  42.526  11.671  14.334
62372W        W22117  22.680   7.200   2.901
62373W        W22118   0.290   8.388  10.958
62374W        W22119  29.607  25.080  10.101
62375W        W22120  18.710  23.643  12.907
62376W        W22121  25.512  20.651   1.296
62377W        W22122   9.263  19.233  11.510
62378W        W22123  10.643  28.577  14.502
62379W        W22124  22.229  22.627  13.521
62380W        W22125   0.348  27.463   0.797
62381W        W22126  39.970  18.136   4.653
62382W        W22127  14.703   7.383  13.951
62383W        W22128  39.913  44.419   2.402
62384W        W22129   9.872  32.541   2.335
62385W        W22130  31.531  12.802   1.737
62386W        W22131   1.833   7.353   1.817
62387W        W22132  33.039   1.389  10.568
62388W        W22133   7.172   5.258  14.430
62389W        W22134  34.992   6.234   5.147
62390W        W22135  36.496  44.995   3.784
62391W        W22136  41.909  42.397   2.361
62392W        W22137  37.542  24.634  10.512
62393W        W22138  11.243  17.711   4.756
62394W        W22139  32.059  34.384   3.701
62395W        W22140  44.877   8.184   0.806
62396W        W22141  38.395  13.715   1.740
62397W        W22142  34.926  17.680  14.982
62398W        W22143  10.319  40.417  13.447
62399W        W22144  43.971  27.657   3.845
62400W        W22145  26.017  14.813   4.833
62401W        W22146   3.933  18.590   3.724
62402W        W22147  32.502  36.388   4.144
62403W        W22148  21.021  32.908  14.822
62404W        W22149  19.598  32.476  11.862
62405W        W22150  20.196  16.747   3.701
62406W        W22151  22.740  10.263   0.396
62407W        W22152  10.809  38.433   4.688
62408W        W22153   4.887  21.744   4.803
62409W        W22154  28.468   4.294  12.869
62410W        W22155  20.078   0.327  12.833
62411W        W22156  44.384  32.938   4.324
62412W        W22157   0.423  23.208   0.941
62413W        W22158  44.414  27.006   3.379
62414W        W22159  16.227   4.261  11.542
62415W        W22160   5.389   7.699  13.308
62416W        W22161   5.882  10.309   0.361
62417W        W22162  24.172   5.413   5.254
62418W        W22163  32.071  26.057  12.059
62419W        W22164  33.003  44.964   0.810
62420W        W22165  27.105   8.243   1.861
62421W        W22166  36.897  28.565  13.890
62422W        W22167  29.604  17.759  11.451
62423W        W22168   6.304   7.183   1.432
62424W        W22169  40.360   4.713   4.647
62425W        W22170   3.845  17.743   2.270
62426W        W22171  39.836  41.302   4.220
62427W        W22172  27.596  36.364   4.806
62428W        W22173  32.962  19.734  13.933
62429W        W22174  18.141  20.182  11.878
62430W        W22175  19.152   6.864  12.833
62431W        W22176   7.814   8.784   3.378
62432W        W22177  30.529  32.001  13.892
62433W        W22178  20.667  34.562  10.890
62434W        W22179   6.305   5.933  13.046
62435W        W22180  29.447  24.626  12.915
62436W        W22181  28.171  31.970  10.029
62437W        W22182   4.322  27.144   1.800
62438W        W22183   7.813  28.549   3.832
62439W        W22184  12.167  10.161   0.935
62440W        W22185  36.372   6.237  11.940
62441W        W22186  12.236   0.338   1.722
62442W        W22187   7.234  32.964  13.848
62443W        W22188   7.795   9.336  14.851
62444W        W22189  21.117  23.182  14.861
62445W        W22190   4.392  19.607   3.175
62446W        W22191  29.105  21.716  14.383
62447W        W22192  39.871  31.069  13.484
62448W        W22193  37.910   4.721  12.877
62449W        W22194  24.498  20.548   3.776
62450W        W22195  17.073   6.838   0.401
62451W        W22196  39.560  32.118   0.931
62452W        W22197   5.240   9.674   4.821
62453W        W22198  43.916  12.618   3.739
62454W        W22199  18.285   7.786   0.907
62455W        W22200  16.784  19.083  14.448
62456W        W22201  29.437  40.402  13.523
62457W        W22202  40.843  42.471   1.816
62458W        W22203   0.299  28.151   4.196
62459W        W22204  33.493  40.389   3.687
62460W        W22205  21.063  30.445  11.598
62461W        W22206   2.876  22.505  14.784
62462W        W22207   4.375  30.453   5.113
62463W        W22208  10.288  19.119  12.563
62464W        W22209   1.384  27.124  14.484
62465W        W22210   1.242  13.647  10.935
62466W        W22211  41.538  10.796  11.395
62467W        W22212  40.043  33.052  11.120
62468W        W22213   3.855  33.894   4.598
62469W        W22214   9.806  31.480  13.521
62470W        W22215  12.693  11.351   4.276
62471W        W22216  10.370  32.016  10.476
62472W        W22217  38.452  27.536   4.707
62473W        W22218   6.884  15.750   2.372
62474W        W22219  33.046  40.863   2.808
62475W        W22220  30.449  33.587   4.630
62476W        W22221  25.600  16.221   2.826
62477W        W22222  24.177  34.407  12.464
62478W        W22223  39.331   7.314  12.067
62479W        W22224  16.092  24.670   1.358
62480W        W22225  38.059  16.760   2.836
62481W        W22226  43.937  31.051  14.863
62482W        W22227   4.338  42.859  13.812
62483W        W22228  41.488  13.208   2.195
62484W        W22229  39.910  36.382  10.491
62485W        W22230  19.210  11.287   3.828
62486W        W22231  35.490  27.474  11.579
62487W        W22232   6.777  38.456  12.477
62488W        W22233  30.506  15.760   3.346
62489W        W22234   5.754  28.101  12.384
62490W        W22235  37.032   4.399   0.766
62491W        W22236   1.318  16.781   0.929
62492W        W22237  10.168  20.759  14.807
62493W        W22238  32.631  18.085  14.409
62494W        W22239   1.333   5.724  13.396
62495W        W22240  23.071  42.405   3.844
62496W        W22241  41.937  44.884  10.422
62497W        W22242   8.355  32.108  12.424
62498W        W22243   7.833  26.003  11.587
62499W        W22244   8.322  34.004   0.816
62500W        W22245  32.405  42.375  12.515
62501W        W22246  31.533  37.860  13.470
62502W        W22247  40.971  12.148   4.760
62503W        W22248  39.370   2.876  13.414
62504W        W22249  37.936   2.235  13.914
62505W        W22250  20.271  31.938   3.335
62506W        W22251  30.414  41.982  12.916
62507W        W22252  17.237  10.820   1.246
62508W        W22253   8.731  30.052   2.341
62509W        W22254  36.017  35.541   1.363
62510W        W22255  42.423  12.313   4.753
62511W        W22256  10.344  33.586   4.188
62512W        W22257  35.050   6.217  13.012
62513W        W22258  30.923  43.461   0.448
62514W        W22259  18.691   8.315   0.851
62515W        W22260  18.265  42.026   1.727
62516W        W22261   2.833  24.072   2.373
62517W        W22262  35.855  31.045   2.895
62518W        W22263  14.755  39.559   1.284
62519W        W22264   1.915  44.807   4.736
62520W        W22265  41.463  38.998  12.851
62521W        W22266  20.704  41.961  14.287
62522W        W22267  38.840  41.910   1.403
62523W        W22268  25.468  35.459  10.636
62524W        W22269  39.380   2.460   0.288
62525W        W22270  23.992   0.794   3.296
62526W        W22271  23.218  37.355   3.346
62527W        W22272  16.646   4.718   3.763
62528W        W22273  28.468   4.223   3.670
62529W        W22274  21.105  25.064   0.278
62530W        W22275   4.925  14.139   0.796
62531W        W22276   8.851  30.050   1.737
62532W        W22277  18.273  44.826  13.459
62533W        W22278  26.046  10.153  10.917
62534W        W22279  26.480  31.502   4.120
62535W        W22280  37.433  17.061   1.398
62536W        W22281  31.555  19.763   1.327
62537W        W22282   3.387  25.204   0.334
62538W        W22283  14.250  27.480  11.051
62539W        W22284  13.627  27.620   1.395
62540W        W22285  23.154  43.335   0.339
62541W        W22286  44.407  39.056  13.344
62542W        W22287  20.072  32.126   1.699
62543W        W22288  41.888  30.958   0.777
62544W        W22289  30.946  35.417   2.683
62545W        W22290   4.702   6.718  10.546
62546W        W22291  34.882   5.294   3.293
62547W        W22292  33.409  41.360   1.848
62548W        W22293  35.413  38.407  12.825
62549W        W22294   7.347  37.910   2.355
62550W        W22295   9.717  14.278  10.906
62551W        W22296   8.247   9.183   0.779
62552W        W22297  33.583   0.412  12.458
62553W        W22298  10.717  34.106  10.906
62554W        W22299  19.662  20.271  11.991
62555W        W22300  11.666   4.341   4.346
62556W        W22301  20.729  31.909   4.265
62557W        W22302   5.744  25.486  12.942
62558W        W22303   3.800  42.017   2.777
62559W        W22304  15.823  34.388  12.506
62560W        W22305   8.831   3.888   0.386
62561W        W22306   8.340  18.725  10.491
62562W        W22307  16.737   3.779  10.938
62563W        W22308  20.533  23.575  10.539
62564W        W22309  19.541  28.532  12.486
62565W        W22310  35.402  35.027  12.965
62566W        W22311  41.428  25.012   1.800
62567W        W22312  26.110  40.010  14.936
62568W        W22313  43.491  44.008  13.412
62569W        W22314   4.886   2.794   0.287
62570W        W22315   6.746  18.632   4.695
62571W        W22316  35.029  28.999   0.471
62572W        W22317  12.279  27.486   3.227
62573W        W22318  11.742  39.315   4.302
62574W        W22319   8.378  23.506  11.513
62575W        W22320   6.242  38.476   4.307
62576W        W22321  16.650   1.829   1.854
62577W        W22322  40.358  27.684   4.813
62578W        W22323  38.034  36.505  12.561
62579W        W22324  42.913  22.015  14.811
62580W        W22325  37.442  11.788  13.926
62581W        W22326   3.453  29.509   4.606
62582W        W22327  30.487   9.318  12.890
62583W        W22328  40.311  37.860  14.903
62584W        W22329  17.113  10.139   1.810
62585W        W22330   8.163   4.349   4.724
62586W        W22331  22.705   2.469  14.888
62587W        W22332   0.335   3.882   2.402
62588W        W22333  32.579  16.601  11.389
62589W        W22334  35.855   5.200   1.301
62590W        W22335  18.278   1.962  12.049
62591W        W22336   0.922  33.968  14.378
62592W        W22337  16.252  32.054  11.533
62593W        W22338  37.078  26.054  12.865
62594W        W22339   6.852  18.188  14.414
62595W        W22340  13.684  35.416  14.785
62596W        W22341  36.004  31.105  12.530
62597W        W22342   4.751  14.666   0.810
62598W        W22343  25.595   0.917   0.943
62599W        W22344  41.834   2.450   3.329
62600W        W22345  12.141  16.230  13.493
62601W        W22346  37.536   9.701  13.895
62602W        W22347  29.948   9.256  10.474
62603W        W22348  14.826  25.101   1.906
62604W        W22349  40.454   7.838  11.557
62605W        W22350   0.416  42.299  13.476
62606W        W22351  35.022  44.378  14.416
62607W        W22352  27.570  14.163   4.751
62608W        W22353  19.069   4.206  14.340
62609W        W22354  20.235  28.645   2.228
62610W        W22355  40.960   1.798  10.994
62611W        W22356  40.953   2.321  12.528
62612W        W22357  31.124  11.795  11.609
62613W        W22358  39.508  17.178   4.693
62614W        W22359   4.830   1.788   0.930
62615W        W22360  39.862  15.318   4.667
62616W        W22361   8.264   0.893  11.477
62617W        W22362  24.619  35.920   2.811
62618W        W22363  21.226  32.906  10.955
62619W        W22364   9.233  37.483  12.031
62620W        W22365  40.877  24.159   0.947
62621W        W22366  25.000  17.563  11.431
62622W        W22367   1.417   8.205   2.375
62623W        W22368  43.354  20.153   3.829
62624W        W22369  22.663  21.138  14.474
62625W        W22370  36.531  39.966  10.530
62626W        W22371   0.289   2.963   0.273
62627W        W22372  12.706  42.368  11.450
62628W        W22373  24.053  14.202  13.795
62629W        W22374   1.314  34.526   2.410
62630W        W22375  11.309  11.190  11.562
62631W        W22376  43.880  39.381  10.611
62632W        W22377   0.404  13.739  13.446
62633W        W22378   7.277  26.062   4.656
62634W        W22379  32.593  20.264   2.815
62635W        W22380  41.357  39.513  11.507
62636W        W22381   9.196  37.534   4.705
62637W        W22382  23.145  39.414  13.473
62638W        W22383  20.104  19.569   2.695
62639W        W22384  21.694  24.150   3.775
62640W        W22385  33.894  15.267   3.781
62641W        W22386  41.495  31.483   2.337
62642W        W22387  11.288  41.985   2.778
62643W        W22388   0.791  44.340   3.640
62644W        W22389  21.089  32.042  12.992
62645W        W22390  31.012  10.315   2.331
62646W        W22391   6.357  31.573  14.362
62647W        W22392  29.451  19.703  14.287
62648W        W22393   9.811  31.084  14.907
62649W        W22394   7.338  24.631   1.857
62650W        W22395   8.771  15.781   2.416
62651W        W22396  31.483  28.151  12.094
62652W        W22397  18.582   3.446   0.410
62653W        W22398   3.940  37.550  10.483
62654W        W22399  10.149  12.761  10.035
62655W        W22400  21.089   4.243  13.472
62656W        W22401  26.091   5.699   3.286
62657W        W22402  39.977  34.013  14.413
62658W        W22403  26.634  26.119   1.362
62659W        W22404  40.348  42.008  10.891
62660W        W22405  38.907  19.629  13.821
62661W        W22406  20.035   4.407   0.778
62662W        W22407  32.400  32.049   2.842
62663W        W22408  13.621  32.942  14.380
62664W        W22409   5.918  15.152  11.464
62665W        W22410   9.843  36.366  10.438
62666W        W22411  25.537  33.052  11.399
62667W        W22412  24.526  10.853  13.060
62668W        W22413  20.535  31.597   3.217
62669W        W22414   9.384   6.895  14.359
62670W        W22415   6.266  43.495  12.051
62671W        W22416  32.458   6.763   2.227
62672W        W22417  41.356  28.681  11.390
62673W        W22418  12.787  38.963   0.886
62674W        W22419  18.636   5.236   0.948
62675W        W22420   2.764  34.964  14.772
62676W        W22421  22.139  44.956  13.941
62677W        W22422  31.532  32.946   2.370
62678W        W22423   5.828  23.224  14.766
62679W        W22424   8.359  43.456  12.371
62680W        W22425   0.862  22.078   2.388
62681W        W22426   7.357  13.271   2.676
62682W        W22427   9.816  14.254  12.827
62683W        W22428  32.594  33.000   1.332
62684W        W22429   7.407  36.852  10.593
62685W        W22430  16.684  39.900  11.117
62686W        W22431  20.713   4.432   1.849
62687W        W22432   8.369   0.292  13.804
62688W        W22433  36.953   1.334  14.464
62689W        W22434  19.561  33.557  12.564
62690W        W22435  12.743  25.013  13.374
62691W        W22436  16.737  25.608   3.662
62692W        W22437   0.839  33.057  14.903
62693W        W22438   1.778   7.779  11.941
62694W        W22439  29.114  39.315   4.690
62695W        W22440   1.770  40.988   2.224
62696W        W22441  23.239  24.595   1.832
62697W        W22442   0.394  42.436   3.355
62698W        W22443  38.396  29.496  10.598
62699W        W22444   9.866  36.963  12.434
62700W        W22445  27.981  22.630  10.600
62701W        W22446   1.779  36.373   3.816
62702W        W22447  19.586  11.672  14.772
62703W        W22448  17.689  40.983  11.439
62704W        W22449  25.053  22.043   3.841
62705W        W22450  39.860  23.676   3.857
62706W        W22451   8.399  40.875  12.861
62707W        W22452   5.785   3.778   4.218
62708W        W22453  13.188  23.581   0.756
62709W        W22454  15.266   7.894  12.862
62710W        W22455  26.032  23.031   4.211
62711W        W22456  30.412  18.552   2.664
62712W        W22457  37.852  10.854  13.903
62713W        W22458   0.757  17.298   1.767
62714W        W22459  21.732   9.161  12.527
62715W        W22460  18.273   1.745  11.064
62716W        W22461  16.309   8.281  13.412
62717W        W22462  18.721  40.333   4.325
62718W        W22463  26.082  24.716  12.547
62719W        W22464  38.527   9.831  14.337
62720W        W22465  21.739  42.461   1.407
62721W        W22466  14.699  25.644   3.149
62722W        W22467  18.669  43.281  12.440
62723W        W22468   4.909  20.114   1.423
62724W        W22469   8.791  31.462  11.015
62725W        W22470  32.085  26.632  11.412
62726W        W22471  23.659  34.378  11.533
62727W        W22472  24.641   7.234   1.239
62728W        W22473  36.061   7.396  10.430
62729W        W22474  24.117  10.370  13.056
62730W        W22475  39.559  17.084   2.756
62731W        W22476  16.573   9.768  14.354
62732W        W22477  36.919  23.097  13.023
62733W        W22478  31.580  37.873  10.997
62734W        W22479   1.844  35.080  11.867
62735W        W22480  34.556  20.638  11.856
62736W        W22481  34.065   7.788  14.835
62737W        W22482  25.677  39.489   0.321
62738W        W22483  26.975  31.547  12.859
62739W        W22484  15.159   0.779  11.411
62740W        W22485  43.871  20.733   4.128
62741W        W22486  12.144  19.211  11.911
62742W        W22487  22.695  24.043   5.207
62743W        W22488  41.433  33.913  12.558
62744W        W22489  10.793  34.574   2.189
62745W        W22490  35.448  21.692   0.264
62746W        W22491   3.456  17.605  10.992
62747W        W22492  20.610  17.101  11.387
62748W        W22493  44.760   3.421   4.179
62749W        W22494  14.608  18.219  13.482
62750W        W22495  13.699  43.969   2.693
62751W        W22496  25.656  27.076  12.534
62752W        W22497  44.921  35.058  11.430
62753W        W22498  29.171   4.310  12.089
62754W        W22499  10.793  22.723   3.649
62755W        W22500  24.610  33.613   4.831
62756W        W22501  33.454  37.550   4.712
62757W        W22502   8.745  26.533   0.274
62758W        W22503  10.381  33.418  14.817
62759W        W22504  16.591  21.249   5.314
62760W        W22505  22.195  35.902   0.851
62761W        W22506  31.417   7.384   5.194
62762W        W22507  18.659  36.565  13.538
62763W        W22508   1.921  24.143  14.779
62764W        W22509  20.057  26.014  10.508
62765W        W22510  19.655  43.949   1.699
62766W        W22511  41.872  19.551   4.339
62767W        W22512  35.574  38.433   0.444
62768W        W22513  15.299  41.506  10.572
62769W        W22514  21.165  30.482   0.318
62770W        W22515  22.615  20.734   0.323
62771W        W22516   9.694   5.864  10.645
62772W        W22517  24.652  30.455  12.032
62773W        W22518  34.472   1.858   2.798
62774W        W22519  37.886  37.980  13.371
62775W        W22520   6.282  27.461   3.646
62776W        W22521  43.411  36.426   2.842
62777W        W22522   1.396  12.761   4.336
62778W        W22523  43.908  14.314   0.309
62779W        W22524  21.711  29.069   3.358
62780W        W22525  11.137   8.248   2.838
62781W        W22526  29.634  17.593   1.814
62782W        W22527  33.899  30.079  13.905
62783W        W22528   3.401  36.548   4.612
62784W        W22529  21.741  38.943  10.012
62785W        W22530  10.768  19.163  13.414
62786W        W22531  44.754  32.978  10.403
62787W        W22532  18.693  39.991   1.798
62788W        W22533  39.374  33.497   1.704
62789W        W22534  43.784  36.931   2.262
62790W        W22535  24.489  44.384   2.256
62791W        W22536  29.545   3.953   2.402
62792W        W22537   7.793   0.978   4.238
62793W        W22538  42.917  14.785  14.482
62794W        W22539  38.924  44.460   0.822
62795W        W22540   3.732  36.533   2.728
62796W        W22541  20.651  30.027   1.362
62797W        W22542   2.800  35.995  11.458
62798W        W22543  35.583  12.173  11.073
62799W        W22544  16.687  15.105  14.993
62800W        W22545   7.190  23.015   3.368
62801W        W22546  34.919  32.965   2.228
62802W        W22547  35.528  13.128   2.415
62803W        W22548  15.313  33.621  14.763
62804W        W22549  42.332  27.553   2.229
62805W        W22550  13.835   2.413   0.380
62806W        W22551  10.774   5.278   0.264
62807W        W22552  14.182   6.822  10.516
62808W        W22553  40.341   3.342  13.879
62809W        W22554  18.188   0.896  12.551
62810W        W22555  36.973  18.782   1.777
62811W        W22556  24.493  40.933   3.822
62812W        W22557  22.191  44.340  12.023
62813W        W22558  33.473   7.836   3.228
62814W        W22559  41.996  18.286   3.312
62815W        W22560   0.863  27.080   0.416
62816W        W22561  31.041  42.394   0.245
62817W        W22562  12.187   1.244   2.324
62818W        W22563   6.351  35.521  14.468
62819W        W22564  31.957  28.057   4.680
62820W        W22565   8.391  16.720  13.339
62821W        W22566  39.991  33.890   0.863
62822W        W22567  31.531  16.212   1.922
62823W        W22568  17.283   4.765  12.862
62824W        W22569  23.104  21.528   0.944
62825W        W22570   6.680   3.920   3.245
62826W        W22571  44.871   7.253   0.471
62827W        W22572  42.868  32.937   3.228
62828W        W22573  32.016  32.122   1.796
62829W        W22574  43.936   4.847  12.561
62830W        W22575  13.297  39.851   2.860
62831W        W22576  39.420  11.633  10.474
62832W        W22577   0.751  38.872   0.389
62833W        W22578  44.891  42.428   2.691
62834W        W22579  17.124  27.517   0.349
62835W        W22580  33.884  38.342  11.543
62836W        W22581   5.337  31.617  11.411
62837W        W22582  33.067  18.648   1.241
62838W        W22583  44.363  35.413  11.105
62839W        W22584  44.375  13.197  10.634
62840W        W22585  24.584  10.831  14.834
62841W        W22586  38.503  28.962   0.389
62842W        W22587  21.115  18.181  11.092
62843W        W22588  24.056  19.206   2.767
62844W        W22589   6.872   7.833  10.455
62845W        W22590  30.539  40.994  12.926
62846W        W22591  37.925  35.409   1.362
62847W        W22592  36.875  15.617   2.356
62848W        W22593  11.670  34.373  14.511
62849W        W22594  14.807  16.765  10.445
62850W        W22595  17.248  38.017  13.328
62851W        W22596  22.013  25.022   1.294
62852W        W22597  20.628  36.388  14.883
62853W        W22598  21.166  22.091   1.772
62854W        W22599  37.935  13.147   3.654
62855W        W22600   5.297   0.849   3.269
62856W        W22601  43.985  31.540   3.681
62857W        W22602   0.296  20.628  14.487
62858W        W22603  43.773  43.901  11.927
62859W        W22604  38.986  13.823   2.224
62860W        W22605  39.478  42.392   3.232
62861W        W22606  34.512  12.683   0.865
62862W        W22607  39.389  42.978  13.376
62863W        W22608  24.112  23.652  10.556
62864W        W22609   4.883  15.228   3.700
62865W        W22610  27.593   2.845  12.839
62866W        W22611  37.930  31.071  11.501
62867W        W22612   2.799  21.685   0.930
62868W        W22613  32.469   1.885   2.846
62869W        W22614  39.847  11.148  14.430
62870W        W22615  32.900  39.875   3.255
62871W        W22616   5.694  23.126   3.718
62872W        W22617  23.682  23.085  12.394
62873W        W22618   6.305  37.427   0.937
62874W        W22619  21.162  32.972   3.727
62875W        W22620  44.889  20.758  14.975
62876W        W22621  41.482  29.981  11.927
62877W        W22622  15.315  10.360   4.807
62878W        W22623  24.641   4.876  10.113
62879W        W22624  40.458  25.591  14.337
62880W        W22625  11.665   6.232  11.013
62881W        W22626  22.745  18.656   1.824
62882W        W22627   8.738  15.221   2.889
62883W        W22628   9.375  33.065   2.211
62884W        W22629  39.046  15.116   4.117
62885W        W22630  20.555   5.717   2.178
62886W        W22631   0.767  29.990   2.866
62887W        W22632  38.495   2.796  14.948
62888W        W22633  31.126  10.750  12.004
62889W        W22634  37.568  44.953   1.433
62890W        W22635  32.622  20.600  10.106
62891W        W22636  41.384  21.563  10.581
62892W        W22637   0.285  40.871   1.747
62893W        W22638  14.280  34.379   3.714
62894W        W22639  20.115   2.256  14.494
62895W        W22640  19.121   1.837  12.477
62896W        W22641  31.945  17.153   0.794
62897W        W22642   4.896  18.271  13.906
62898W        W22643   6.408  29.929  10.537
62899W        W22644  20.103  27.603  10.641
62900W        W22645  35.385   8.785  11.481
62901W        W22646  21.724  41.984  14.516
62902W        W22647   1.857   1.243   3.343
62903W        W22648  31.619  39.998   1.386
62904W        W22649  42.521  18.719  13.820
62905W        W22650  25.165  13.117   2.184
62906W        W22651  13.291  43.489  11.034
62907W        W22652  38.980   4.826  13.021
62908W        W22653   4.934  11.630  13.333
62909W        W22654  27.582   5.874  11.513
62910W        W22655  15.656   2.947  11.521
62911W        W22656  26.153  28.044   3.817
62912W        W22657  20.185  30.601  13.799
62913W        W22658  39.393  29.141  13.352
62914W        W22659  23.709  27.674   3.640
62915W        W22660   7.753  23.241   1.901
62916W        W22661  17.749  28.156   4.805
62917W        W22662  23.230  31.550   2.879
62918W        W22663  11.628  18.226  11.405
62919W        W22664  17.085  38.569   4.116
62920W        W22665  18.594  14.790   2.699
62921W        W22666  10.807  35.924  12.355
62922W        W22667  35.410  18.551  10.974
62923W        W22668  13.210  16.767   3.191
62924W        W22669  27.674  44.989   1.387
62925W        W22670  15.627  38.844   4.756
62926W        W22671  33.402  14.816   1.243
62927W        W22672  19.574   6.868   4.625
62928W        W22673  42.961  29.469   5.219
62929W        W22674  40.501  39.024  12.545
62930W        W22675  26.562   9.772   3.311
62931W        W22676  42.338   4.331  12.534
62932W        W22677   4.795  38.042   5.166
62933W        W22678   3.419  39.810  14.453
62934W        W22679   8.847  23.677   2.330
62935W        W22680   0.947  27.672   1.218
62936W        W22681  23.546  30.653   2.233
62937W        W22682   9.226   7.847   2.862
62938W        W22683  30.033  27.478   0.883
62939W        W22684  20.152  34.009   0.410
62940W        W22685  26.972  40.521   0.325
62941W        W22686  28.532  14.330  12.953
62942W        W22687   5.707  14.182  11.429
62943W        W22688  27.088  30.617   1.911
62944W        W22689  26.700   2.834   2.665
62945W        W22690  28.168  13.186  12.977
62946W        W22691   8.331   8.804  13.871
62947W        W22692  12.799   8.745  10.923
62948W        W22693  42.479  18.609  13.542
62949W        W22694   0.315   3.742  12.471
62950W        W22695   3.281   5.218  12.935
62951W        W22696  16.261  24.091  11.068
62952W        W22697   4.885  31.512  10.024
62953W        W22698   2.310  44.438   5.176
62954W        W22699  26.542  33.075  13.060
62955W        W22700  38.842  24.616  14.962
62956W        W22701  29.516  26.110   4.816
62957W        W22702  25.129   6.898   1.221
62958W        W22703  14.191  36.584  10.644
62959W        W22704  29.992  40.488   0.850
62960W        W22705  23.162   2.239   0.378
62961W        W22706  36.352  14.641  10.555
62962W        W22707  30.493  19.212   5.279
62963W        W22708  33.595  34.470   2.251
62964W        W22709  32.584  44.393  13.836
62965W        W22710  23.666   2.801  13.058
62966W        W22711  35.043   4.894   0.791
62967W        W22712   1.357  28.609   2.777
62968W        W22713  33.104  19.222  12.530
62969W        W22714  32.499  40.048   4.739
62970W        W22715  36.965  28.123   0.426
62971W        W22716  33.050   1.863  11.437
62972W        W22717  21.597   0.907   4.284
62973W        W22718  12.130  10.857  11.607
62974W        W22719  31.494  41.981  14.893
62975W        W22720  11.186   6.278   1.382
62976W        W22721  23.500  28.948  14.868
62977W        W22722  22.561  24.492   0.932
62978W        W22723  26.565  33.039   1.255
62979W        W22724  32.031   7.379   0.912
62980W        W22725  39.446   6.858   3.678
62981W        W22726  23.662  16.202   5.131
62982W        W22727  41.787  35.437  14.294
62983W        W22728  12.173  23.170  12.577
62984W        W22729  38.355  44.433   4.279
62985W        W22730  36.553  20.682  13.974
62986W        W22731   2.402  43.818  13.061
62987W        W22732  20.562  35.998   2.377
62988W        W22733  31.911  33.108   1.903
62989W        W22734  29.017   1.906  12.888
62990W        W22735  18.202  31.567  11.462
62991W        W22736  39.513   8.389  14.327
62992W        W22737  43.472   6.387   4.830
62993W        W22738  40.857  24.710  10.597
62994W        W22739  38.968  34.415  12.973
62995W        W22740  17.213  44.857  13.533
62996W        W22741  29.071  35.985   1.874
62997W        W22742  13.204   6.263  13.988
62998W        W22743  30.147  17.746  13.474
62999W        W22744  11.237  41.925  14.903
63000W        W22745  13.201  39.945  12.940
63001W        W22746  14.262  36.975   1.445
63002W        W22747  29.636   0.767  13.019
63003W        W22748  39.000  36.441  11.117
63004W        W22749  15.161  30.639  11.529
63005W        W22750  19.631  36.533  11.063
63006W        W22751  29.023  20.239  14.980
63007W        W22752  10.657  22.647  12.424
63008W        W22753   2.845   7.855  12.873
63009W        W22754  10.637  33.969  12.439
63010W        W22755   4.272   6.382   3.383
63011W        W22756   7.217  35.489  14.406
63012W        W22757   7.376  43.877   1.851
63013W        W22758   5.793   7.372  13.525
63014W        W22759  25.662   1.745   4.606
63015W        W22760  17.204  31.418   9.943
63016W        W22761  14.198  24.200   1.396
63017W        W22762  11.180  28.029  12.897
63018W        W22763  44.806  22.247   2.855
63019W        W22764   8.223   2.414  10.962
63020W        W22765  35.922  41.901   2.234
63021W        W22766  19.555  13.125   2.711
63022W        W22767  30.108  37.912  14.963
63023W        W22768   3.796  29.426   1.296
63024W        W22769  20.669  16.257  10.972
63025W        W22770   4.250  11.272   1.374
63026W        W22771   6.886  35.399   3.378
63027W        W22772  10.828  10.794   1.386
63028W        W22773  23.685  18.170   3.381
63029W        W22774   0.898  17.124   4.204
63030W        W22775  39.399   1.354   2.738
63031W        W22776  17.201  17.772  10.965
63032W        W22777  14.694   6.387   3.311
63033W        W22778  10.267   2.446   4.287
63034W        W22779  23.069  44.904  14.413
63035W        W22780  18.073  17.757  14.823
63036W        W22781  37.903   6.838  13.508
63037W        W22782  14.292  13.819   0.925
63038W        W22783  24.631  38.485  13.921
63039W        W22784  33.130  19.107   4.718
63040W        W22785  31.026  12.332   4.222
63041W        W22786   7.285   2.380  13.971
63042W        W22787  22.525  41.829   1.254
63043W        W22788   1.844  11.341  13.352
63044W        W22789  43.822  44.951  14.373
63045W        W22790  25.193  19.648  12.558
63046W        W22791  33.976  33.522   4.713
63047W        W22792  38.389  34.118  13.869
63048W        W22793  29.538   5.325  14.427
63049W        W22794  31.645  12.826  14.002
63050W        W22795  31.462  44.937   3.277
63051W        W22796   2.870  12.816  12.841
63052W        W22797  10.842   1.326   3.226
63053W        W22798  13.116  42.906   1.739
63054W        W22799  20.536  18.273  12.973
63055W        W22800  22.145  38.522   3.631
63056W        W22801  34.938  19.681  11.885
63057W        W22802  30.551  44.824   3.225
63058W        W22803  27.086   4.758  11.921
63059W        W22804  35.905  43.833  11.936
63060W        W22805  28.175  19.277   3.178
63061W        W22806  32.585  25.618   3.219
63062W        W22807  20.648  17.724   4.153
63063W        W22808  39.005  17.698   2.325
63064W        W22809  39.354   0.849  13.025
63065W        W22810  39.448  27.102   2.744
63066W        W22811  29.648  11.318   2.854
63067W        W22812   7.222  36.503   3.733
63068W        W22813  38.919  24.210   4.276
63069W        W22814  16.241  16.789   0.397
63070W        W22815   8.234  19.264   3.160
63071W        W22816   1.276  41.041   0.833
63072W        W22817   4.916  34.109   3.323
63073W        W22818  34.376  39.419  12.926
63074W        W22819   8.357   1.848   4.299
63075W        W22820  42.449  36.975   0.773
63076W        W22821  34.050  23.130  11.586
63077W        W22822  13.692  36.452   9.496
63078W        W22823  37.016  18.207  10.956
63079W        W22824  30.514  23.612  11.962
63080W        W22825  29.504   8.309  10.483
63081W        W22826  26.556  22.024   3.851
63082W        W22827  20.573  31.579  10.066
63083W        W22828   7.367  13.614   1.428
63084W        W22829  26.650  11.176   0.881
63085W        W22830  17.218  25.078  10.912
63086W        W22831  30.465   3.305  13.810
63087W        W22832   0.844  14.095  14.956
63088W        W22833   7.836  36.463  14.396
63089W        W22834  25.550  22.562  13.905
63090W        W22835  15.785  20.088   0.875
63091W        W22836  26.617   3.952   4.216
63092W        W22837   6.889  24.128   1.420
63093W        W22838  12.802   5.813  12.460
63094W        W22839  11.764  17.215   4.288
63095W        W22840  27.016   2.752  11.413
63096W        W22841  31.143  21.658  14.899
63097W        W22842   9.293  41.921   0.905
63098W        W22843  27.001  10.749  14.345
63099W        W22844  43.506  20.140   5.725
63100W        W22845   4.389  26.464  12.486
63101W        W22846  31.044  21.669  11.374
63102W        W22847  12.683  44.904   4.783
63103W        W22848  23.623  33.386  10.526
63104W        W22849  16.133  27.965  13.049
63105W        W22850   4.376   8.400  12.540
63106W        W22851  30.546  19.610  14.950
63107W        W22852  34.520  30.947  14.015
63108W        W22853   6.185  42.511   1.702
63109W        W22854  17.156  40.531  12.021
63110W        W22855  13.273   5.780   2.234
63111W        W22856  43.496  14.241  10.970
63112W        W22857  15.297  14.795   3.387
63113W        W22858  27.098  38.496   2.699
63114W        W22859  14.767   0.818   4.343
63115W        W22860   2.333  43.832   2.734
63116W        W22861  44.980  32.512   3.176
63117W        W22862  25.009  41.533   2.718
63118W        W22863  34.506  10.837  10.628
63119W        W22864  35.514  24.107   2.229
63120W        W22865  41.855  12.317  11.374
63121W        W22866   0.394  17.652   2.294
63122W        W22867  32.048  24.228   1.835
63123W        W22868  40.935  21.195  14.370
63124W        W22869   0.474  36.494  12.534
63125W        W22870  21.716  16.183  14.417
63126W        W22871  40.802  23.168   0.382
63127W        W22872  20.678   3.339  13.059
63128W        W22873   0.967   5.838   4.268
63129W        W22874  22.613  43.980   0.945
63130W        W22875   5.772   2.955   2.300
63131W        W22876  34.040   5.241  12.966
63132W        W22877  35.376  10.722   3.794
63133W        W22878  30.575   5.391   2.408
63134W        W22879   4.703  13.261   3.357
63135W        W22880  34.872  36.982   1.832
63136W        W22881  40.435  21.695  12.017
63137W        W22882  25.576  10.640   1.756
63138W        W22883  20.137  34.068   2.240
63139W        W22884  33.577  33.069   4.209
63140W        W22885   9.295  30.915   4.607
63141W        W22886  40.889   6.368   4.825
63142W        W22887   4.240  19.758  10.025
63143W        W22888  30.108  15.193  11.016
63144W        W22889  11.759  19.555  11.944
63145W        W22890  35.102  25.138   4.303
63146W        W22891  22.026   3.350  13.407
63147W        W22892  11.352  31.618  11.548
63148W        W22893   8.353  12.619   2.266
63149W        W22894  42.509  12.765  14.375
63150W        W22895  31.624  29.938  13.351
63151W        W22896   5.425  33.885   1.836
63152W        W22897  36.487  31.963   4.798
63153W        W22898   4.733  27.034  12.071
63154W        W22899   6.710  27.023  11.086
63155W        W22900  15.113  25.993  11.507
63156W        W22901  37.368  37.887   0.873
63157W        W22902  42.452   3.313   4.827
63158W        W22903  29.948  38.822   3.261
63159W        W22904  38.472  17.661  14.988
63160W        W22905   0.482  12.236  14.343
63161W        W22906  25.146  16.585   3.256
63162W        W22907   3.281   8.772  11.515
63163W        W22908   3.275  32.532   1.445
63164W        W22909  12.203  35.519  14.437
63165W        W22910  35.583  26.994  10.898
63166W        W22911  44.413  16.262  14.499
63167W        W22912  19.170  16.211  13.341
63168W        W22913  37.901  20.564  12.433
63169W        W22914  30.994   2.459  11.039
63170W        W22915  40.328   7.666  13.456
63171W        W22916  13.153  10.374   2.827
63172W        W22917  11.340  28.939  13.909
63173W        W22918  40.342  15.235  13.346
63174W        W22919  44.330  35.944  14.900
63175W        W22920  17.630   7.348  12.856
63176W        W22921  28.546   7.767   0.931
63177W        W22922  17.143  24.210  13.879
63178W        W22923  21.702   8.787  11.871
63179W        W22924   4.229  44.970   4.176
63180W        W22925  36.383  18.071   3.730
63181W        W22926  16.117  36.069   1.398
63182W        W22927   6.330  43.922  13.852
63183W        W22928  10.751  26.113   3.149
63184W        W22929  20.113  36.944  13.030
63185W        W22930  17.608  29.448   2.812
63186W        W22931   1.476  41.428  12.396
63187W        W22932   0.475  40.340  11.403
63188W        W22933   2.889  38.076  12.497
63189W        W22934   0.796  25.055  12.449
63190W        W22935   0.484  16.632  14.952
63191W        W22936  36.431   8.828  14.812
63192W        W22937  11.703  33.125  13.312
63193W        W22938   5.875  30.951  10.431
63194W        W22939  22.506  19.059  10.616
63195W        W22940  35.438  23.151   3.772
63196W        W22941  42.283  27.036   0.817
63197W        W22942  37.363   8.379   3.682
63198W        W22943  26.042  20.728   1.770
63199W        W22944   5.886  15.158   2.896
63200W        W22945  13.159   8.243  13.955
63201W        W22946  42.368  27.601  13.347
63202W        W22947  16.298  14.317  11.595
63203W        W22948  13.247   8.393  10.568
63204W        W22949  41.428  28.949  13.937
63205W        W22950  29.664  21.711   4.618
63206W        W22951  19.235   6.418  10.635
63207W        W22952  20.119  11.848  10.421
63208W        W22953  39.377  25.703   3.851
63209W        W22954   9.161  24.057  14.281
63210W        W22955  37.416  11.824  14.461
63211W        W22956  25.056  26.626   1.393
63212W        W22957  31.151   1.903   1.913
63213W        W22958  34.597  38.452  13.990
63214W        W22959  15.748  18.240  13.866
63215W        W22960  22.200  26.457   0.266
63216W        W22961  39.913  10.181   0.869
63217W        W22962   0.834  39.983   5.633
63218W        W22963  31.907  36.390   1.756
63219W        W22964  26.493   1.926  11.963
63220W        W22965  28.082  10.244  12.985
63221W        W22966  17.670  11.343   2.678
63222W        W22967  44.782  41.325   1.837
63223W        W22968  11.137  36.482   1.724
63224W        W22969  20.108  26.472   0.304
63225W        W22970  16.786  36.383  11.394
63226W        W22971  42.478   0.898  12.952
63227W        W22972  13.200   1.769  12.020
63228W        W22973  14.186  20.170  13.919
63229W        W22974  17.287  35.413   4.194
63230W        W22975   3.267  38.886   0.387
63231W        W22976  25.601   7.408  12.922
63232W        W22977  38.526  19.770   4.744
63233W        W22978  41.350  10.319   1.401
63234W        W22979  36.510   4.383   4.783
63235W        W22980   6.297  26.982  12.965
63236W        W22981  40.913  37.848   0.397
63237W        W22982  21.563  10.755  11.509
63238W        W22983  11.270  40.824   0.777
63239W        W22984  36.474  22.133  10.533
63240W        W22985  13.815  40.053   0.815
63241W        W22986  42.281  10.640   2.319
63242W        W22987  16.073  19.556   5.081
63243W        W22988  42.293  34.402   3.746
63244W        W22989  14.706   7.233   2.902
63245W        W22990  11.832  23.557   3.862
63246W        W22991   6.751   1.382   0.741
63247W        W22992  38.565  29.150   1.715
63248W        W22993  23.724  20.183   1.719
63249W        W22994   0.463  29.486   2.317
63250W        W22995  32.539  39.974  10.054
63251W        W22996   9.802   5.262  11.524
63252W        W22997  39.370   2.805  11.034
63253W        W22998  43.359  35.057   0.763
63254W        W22999  35.985   1.889   2.383
63255W        W23000  21.164  14.663   1.923
63256W        W23001  21.039  31.944  10.472
63257W        W23002  24.100   7.676   2.861
63258W        W23003  34.402  15.290   0.817
63259W        W23004  22.014  22.722   4.347
63260W        W23005  32.479  24.216   4.783
63261W        W23006  21.105  17.276  10.477
63262W        W23007  35.955  38.419   4.722
63263W        W23008  15.322  24.617  13.974
63264W        W23009  12.751  36.516  14.462
63265W        W23010  26.475   3.259   0.787
63266W        W23011   5.833   2.301  13.861
63267W        W23012  18.260  24.181  11.867
63268W        W23013  36.995  24.230   0.912
63269W        W23014  42.512  32.532  11.905
63270W        W23015  25.168  13.289  11.550
63271W        W23016  41.309   0.943  12.502
63272W        W23017  43.506  10.705  10.642
63273W        W23018  44.994  12.243   0.763
63274W        W23019  12.824  35.861  12.391
63275W        W23020  34.482  16.238  13.521
63276W        W23021  13.807  15.215   2.354
63277W        W23022  12.297  39.982  11.574
63278W        W23023  42.852  44.782  12.945
63279W        W23024   0.389  21.641  11.416
63280W        W23025  33.542  44.848   4.650
63281W        W23026  13.274  38.003  14.810
63282W        W23027   1.799   8.831  14.332
63283W        W23028  37.863   9.651  13.380
63284W        W23029   0.773  13.758   0.811
63285W        W23030  40.887  29.585   2.880
63286W        W23031  26.059  33.398   0.932
63287W        W23032   9.645   5.828  13.936
63288W        W23033  17.569  25.990  10.572
63289W        W23034  43.453   9.854  12.572
63290W        W23035  42.819  38.974   5.322
63291W        W23036   7.274  25.104  11.013
63292W        W23037  31.643  20.697  13.989
63293W        W23038   3.384  32.622   3.174
63294W        W23039   8.340  13.248   4.697
63295W        W23040   8.822  40.034   2.780
63296W        W23041   3.320  17.743   4.610
63297W        W23042  28.450  41.857   2.801
63298W        W23043  34.042   3.219   3.296
63299W        W23044  11.187  20.115   1.912
63300W        W23045  25.543  24.594  10.504
63301W        W23046  39.407   9.250   4.635
63302W        W23047   2.333  43.289   1.821
63303W        W23048  32.995  42.830  12.473
63304W        W23049  38.383  33.567   4.243
63305W        W23050  28.136   9.269  11.595
63306W        W23051   0.959   6.776  10.406
63307W        W23052  25.570  10.138   4.756
63308W        W23053  14.674  43.335  14.769
63309W        W23054  16.213   7.804   0.420
63310W        W23055  31.441  42.883   3.837
63311W        W23056  22.718  17.142  11.481
63312W        W23057   5.203   9.356   1.240
63313W        W23058  21.153   8.703   3.657
63314W        W23059  20.050  33.514   1.386
63315W        W23060  11.735  13.284   4.830
63316W        W23061  15.177  41.369  14.030
63317W        W23062  44.953  15.094   3.694
63318W        W23063  44.844  23.109   1.450
63319W        W23064  32.611   8.211   0.843
63320W        W23065   5.932  34.096  13.855
63321W        W23066  37.455   5.390   2.789
63322W        W23067  26.010  39.438  13.913
63323W        W23068  14.694  43.982  13.879
63324W        W23069  22.162   3.943  13.943
63325W        W23070  19.741  22.527  13.983
63326W        W23071   2.395  26.081  14.284
63327W        W23072  30.978  15.242   3.168
63328W        W23073  44.825   3.718   1.311
63329W        W23074  22.699  14.286  14.944
63330W        W23075  19.542  19.669  14.328
63331W        W23076  26.579  31.047   4.778
63332W        W23077  18.737  27.194   2.889
63333W        W23078  16.181  44.471  11.013
63334W        W23079  31.648  22.594   2.292
63335W        W23080   2.399  28.167   4.130
63336W        W23081  38.507  22.699   4.143
63337W        W23082   2.744  32.623   3.781
63338W        W23083   9.308  35.916  11.128
63339W        W23084  34.453  24.096  11.405
63340W        W23085  31.951  25.046   0.368
63341W        W23086  18.265  38.388  10.496
63342W        W23087  30.949  38.050  13.455
63343W        W23088  44.937  32.930   4.644
63344W        W23089  13.245  44.798   1.695
63345W        W23090  16.725  22.190  12.892
63346W        W23091  28.980   1.843   4.692
63347W        W23092  29.963  15.268   1.443
63348W        W23093  17.270  18.134   3.798
63349W        W23094   6.275  18.700   1.261
63350W        W23095   4.389  32.431  12.538
63351W        W23096  26.659  26.570   2.323
63352W        W23097   2.434  39.402   2.241
63353W        W23098  22.536   2.424   2.239
63354W        W23099  32.915  37.914  14.502
63355W        W23100  17.663  21.019   2.406
63356W        W23101   1.907  17.569  12.567
63357W        W23102   1.412  36.946   1.741
63358W        W23103   1.771  15.661   3.187
63359W        W23104  37.923  34.095   2.848
63360W        W23105   0.832  26.148   1.261
63361W        W23106  30.111   1.237   1.439
63362W        W23107  13.263  25.562   2.395
63363W        W23108   3.814   8.391   4.794
63364W        W23109  33.464  33.569  11.383
63365W        W23110  36.489   4.392   4.250
63366W        W23111   5.424  43.013  14.973
63367W        W23112  11.688   6.717  14.914
63368W        W23113   3.918  21.051  12.886
63369W        W23114   4.235  17.740  13.846
63370W        W23115  23.662  29.981   0.254
63371W        W23116   4.317  44.966   0.943
63372W        W23117  37.538  21.234  10.570
63373W        W23118  15.709  33.386  14.856
63374W        W23119   2.284  36.904  12.944
63375W        W23120  11.267   6.894  14.784
63376W        W23121  44.296  40.034  14.325
63377W        W23122   7.194  23.038  12.037
63378W        W23123  16.595  40.426  11.396
63379W        W23124  28.637   6.289  12.520
63380W        W23125  34.567  33.912  12.854
63381W        W23126  29.957  28.124   3.200
63382W        W23127  28.982  27.536   3.267
63383W        W23128  38.471   9.668  11.960
63384W        W23129   3.227  44.886   0.964
63385W        W23130  43.308  22.551  10.031
63386W        W23131  10.745  15.137   4.781
63387W        W23132  34.112  21.018  13.940
63388W        W23133   2.946  37.861  13.416
63389W        W23134  17.142  18.178   4.819
63390W        W23135  13.762  34.899   1.283
63391W        W23136  14.632  40.363   2.729
63392W        W23137  12.127  39.927  13.516
63393W        W23138   9.165   4.313   4.335
63394W        W23139  42.362   9.732  10.505
63395W        W23140  31.634  42.315   0.742
63396W        W23141   8.854  35.369   0.838
63397W        W23142  30.022   1.442  12.901
63398W        W23143   6.190  12.795   0.459
63399W        W23144  36.869  20.254  10.889
63400W        W23145  37.522  22.744   5.113
63401W        W23146  37.984   3.861   3.346
63402W        W23147  17.572   4.778   1.311
63403W        W23148  42.390  28.036   0.856
63404W        W23149   0.866  33.383   3.382
63405W        W23150  28.543  30.605  14.442
63406W        W23151  43.769  17.256   0.441
63407W        W23152  43.394  26.702   0.884
63408W        W23153  14.339   0.934   4.219
63409W        W23154  15.169   0.923   3.720
63410W        W23155   8.400   1.308   3.754
63411W        W23156  36.403  23.123  10.612
63412W        W23157  11.360   7.315   0.455
63413W        W23158  34.005  23.566  12.484
63414W        W23159   8.661   0.428  14.488
63415W        W23160  26.641  14.318  12.852
63416W        W23161  37.989  11.194   2.364
63417W        W23162  13.808  41.921  14.479
63418W        W23163  21.073  16.614  11.037
63419W        W23164   6.791   8.686   3.692
63420W        W23165  36.525   6.186  13.809
63421W        W23166  17.694  37.846   3.855
63422W        W23167  17.269  43.969  11.600
63423W        W23168  13.648  14.663  12.368
63424W        W23169   0.274  15.320   3.740
63425W        W23170   9.665  21.606  13.004
63426W        W23171  31.506  21.075  14.934
63427W        W23172   3.906  43.923   4.239
63428W        W23173  25.175  37.066   4.127
63429W        W23174   3.451  32.544   4.770
63430W        W23175   0.312   7.877  14.003
63431W        W23176  17.592  37.535   0.433
63432W        W23177  36.994  22.673   0.353
63433W        W23178  33.047  34.521  12.926
63434W        W23179  36.387  10.655  10.559
63435W        W23180  31.562  40.895   3.192
63436W        W23181  35.046  18.123   3.156
63437W        W23182   6.691  19.092   1.303
63438W        W23183   3.727  14.123  14.472
63439W        W23184  44.918   1.931  11.551
63440W        W23185  37.848  18.218  10.485
63441W        W23186  17.274  24.215  12.544
63442W        W23187  13.631  14.198   3.313
63443W        W23188  23.546  21.700  13.525
63444W        W23189  30.147  43.438  14.967
63445W        W23190  17.719  11.249  12.048
63446W        W23191  22.196  39.015  12.975
63447W        W23192  44.357  36.404   1.805
63448W        W23193  26.029  19.168  12.548
63449W        W23194   7.895  26.152   1.214
63450W        W23195  36.398  34.980   1.810
63451W        W23196  30.101  37.914   0.785
63452W        W23197  39.404   2.782  11.440
63453W        W23198  44.318  14.611  13.397
63454W        W23199  23.624  32.069   1.820
63455W        W23200  26.106  43.823  12.572
63456W        W23201  39.328  43.311  12.521
63457W        W23202  37.036  22.597  10.546
63458W        W23203   9.379  27.963  13.792
63459W        W23204  14.684  32.068   0.772
63460W        W23205  36.354  12.821   0.908
63461W        W23206   3.399  38.329  10.632
63462W        W23207  36.031  37.497  10.555
63463W        W23208  22.245  38.022   4.158
63464W        W23209  23.569   4.872   0.443
63465W        W23210  44.275  11.854   1.339
63466W        W23211  11.282  11.809  11.006
63467W        W23212  37.578   0.785  10.629
63468W        W23213  17.698   8.834   4.834
63469W        W23214  16.809  28.079   3.658
63470W        W23215   1.956  43.320  14.810
63471W        W23216   1.344   3.398  13.839
63472W        W23217  12.699  33.559  12.520
63473W        W23218  44.307   8.192   0.921
63474W        W23219  14.232  41.352  10.504
63475W        W23220  11.639  24.509   4.601
63476W        W23221  22.161  26.665   2.245
63477W        W23222  26.120  29.171   3.792
63478W        W23223   0.430  13.609   2.891
63479W        W23224  22.727  29.480   3.798
63480W        W23225  34.917  41.925   2.393
63481W        W23226  17.738   8.719   2.850
63482W        W23227  44.889  42.355  11.377
63483W        W23228  13.729  43.363   4.226
63484W        W23229  42.289  40.421   3.374
63485W        W23230  31.085   3.324   2.690
63486W        W23231   4.254  17.211   3.299
63487W        W23232  10.291  44.826   2.265
63488W        W23233  21.237  14.617  10.045
63489W        W23234   1.892   4.871  14.504
63490W        W23235  27.674  37.512   1.739
63491W        W23236  36.908  37.340   1.747
63492W        W23237   9.869  32.987  11.539
63493W        W23238  36.428  34.408  12.992
63494W        W23239  14.315  32.887   0.313
63495W        W23240  38.542  35.058   4.153
63496W        W23241  11.711  13.290   1.843
63497W        W23242  31.085  36.067  13.331
63498W        W23243   3.833  42.461   4.692
63499W        W23244  24.698   7.665  13.404
63500W        W23245  36.514  43.481  14.938
63501W        W23246  10.344  25.088   0.885
63502W        W23247  24.098  17.253   1.880
63503W        W23248  32.592  42.471   4.747
63504W        W23249  40.547  39.052   1.216
63505W        W23250   8.170  27.673   2.732
63506W        W23251  15.623  28.186   1.750
63507W        W23252  30.614   8.393  14.817
63508W        W23253   9.154  16.230  11.433
63509W        W23254   0.418  15.135   4.306
63510W        W23255  38.352  35.983  12.349
63511W        W23256  28.603  16.114  14.427
63512W        W23257  42.028  15.763   3.775
63513W        W23258  15.326   2.350  10.897
63514W        W23259  40.445  33.122  12.362
63515W        W23260   3.931  13.647  11.487
63516W        W23261  23.658  41.401  14.431
63517W        W23262   2.947  15.182  14.778
63518W        W23263  27.006  10.861   3.382
63519W        W23264  42.866  34.915  11.543
63520W        W23265   7.293  35.942   2.689
63521W        W23266  39.970  21.703  12.019
63522W        W23267  15.722   5.867  10.014
63523W        W23268   2.391  33.957   2.830
63524W        W23269  17.598   6.293  14.279
63525W        W23270  15.288  14.618  14.979
63526W        W23271  12.250  20.722  13.884
63527W        W23272  39.960  37.041  14.878
63528W        W23273  13.347  23.052  10.898
63529W        W23274  22.720  17.677   0.808
63530W        W23275   1.903  36.065  12.034
63531W        W23276  18.647  35.920  13.899
63532W        W23277   7.395   4.753  13.973
63533W        W23278  15.729   4.809  10.024
63534W        W23279  42.826  26.109  10.451
63535W        W23280  29.052  38.352  14.797
63536W        W23281  11.730  13.226   4.187
63537W        W23282  14.805  35.484  14.510
63538W        W23283  37.977  32.051  10.420
63539W        W23284  41.823  21.517  11.864
63540W        W23285  16.163  23.070   3.689
63541W        W23286  10.732   5.725  13.411
63542W        W23287  33.385   4.830   3.224
63543W        W23288   7.847  11.786  14.291
63544W        W23289   0.457   4.444  14.929
63545W        W23290  10.826   1.807  10.961
63546W        W23291   1.883  10.837  11.032
63547W        W23292  39.416  12.339   1.389
63548W        W23293  26.550   8.719   1.234
63549W        W23294   8.219  30.073   4.122
63550W        W23295  41.506  40.519  12.443
63551W        W23296  11.134  35.573  11.611
63552W        W23297  23.026  15.154   3.658
63553W        W23298   7.256  12.652  12.955
63554W        W23299  16.786   0.892  14.317
63555W        W23300  11.754  33.384   2.819
63556W        W23301   3.759  12.683  12.034
63557W        W23302  24.082  18.143  13.002
63558W        W23303  39.866  20.710  11.442
63559W        W23304   9.379  36.385   1.306
63560W        W23305  23.497  40.959  10.636
63561W        W23306   0.795  22.193   0.844
63562W        W23307  34.008  14.810   4.644
63563W        W23308  12.156  19.131  14.431
63564W        W23309  16.304  15.819  11.062
63565W        W23310  43.419   4.880   3.704
63566W        W23311  31.457  30.038  12.052
63567W        W23312   8.674  12.792  13.537
63568W        W23313  25.697   2.796   0.319
63569W        W23314  20.171  19.696   0.349
63570W        W23315  38.833  10.708  10.079
63571W        W23316  34.489  15.211  11.604
63572W        W23317  38.976   4.416   1.713
63573W        W23318  43.302   0.888  14.910
63574W        W23319  32.633  19.244   0.249
63575W        W23320  11.692  22.122   3.184
63576W        W23321   6.911  24.617   4.712
63577W        W23322  24.158  28.494   0.783
63578W        W23323   3.751  16.715  14.899
63579W        W23324  31.056  11.357  12.039
63580W        W23325   6.869  16.624   0.345
63581W        W23326  35.497  28.619   2.246
63582W        W23327   2.859  31.970  13.419
63583W        W23328   5.377  44.795   0.437
63584W        W23329  30.628  23.543  14.376
63585W        W23330  19.129  25.172   3.793
63586W        W23331  22.609  22.028  11.525
63587W        W23332  38.494  22.135  11.999
63588W        W23333  29.927   1.803  10.404
63589W        W23334  26.097  40.322   1.320
63590W        W23335  33.895   4.800   5.272
63591W        W23336  28.974  26.583   3.282
63592W        W23337  31.056  35.940   3.170
63593W        W23338  19.752  27.943   5.116
63594W        W23339   7.382  15.770  13.515
63595W        W23340  44.917  15.711  14.793
63596W        W23341  10.854  11.192  12.529
63597W        W23342  11.330   6.215  12.032
63598W        W23343  28.629  29.645   3.657
63599W        W23344  34.522   9.170  14.514
63600W        W23345  15.612  41.409   3.754
63601W        W23346  17.151  37.041   0.925
63602W        W23347  39.427  37.958  12.512
63603W        W23348  21.246  42.876   0.293
63604W        W23349  23.021   5.311   3.764
63605W        W23350  27.616  19.260  10.538
63606W        W23351  17.626  39.819   2.255
63607W        W23352  35.102  32.128  11.379
63608W        W23353  13.804  33.915   0.895
63609W        W23354  42.453  21.730   4.227
63610W        W23355  29.653  14.680  10.545
63611W        W23356  27.672  40.806  12.549
63612W        W23357  40.387  10.638  13.011
63613W        W23358  23.728  26.092  14.002
63614W        W23359  22.547   9.862   3.315
63615W        W23360   1.283  15.099   4.251
63616W        W23361  27.029  15.084  13.857
63617W        W23362  13.234  17.111  11.117
63618W        W23363  18.213  40.927   2.672
63619W        W23364   5.324   2.247   2.198
63620W        W23365  36.931  21.694  11.034
63621W        W23366   1.445  11.366   1.442
63622W        W23367  42.412  25.013  12.066
63623W        W23368   1.734  21.154  10.611
63624W        W23369   2.252  41.018  11.438
63625W        W23370  16.790  14.675   4.171
63626W        W23371   3.254   9.365  14.364
63627W        W23372  17.742   1.453   9.543
63628W        W23373  35.965   4.253   3.755
63629W        W23374  31.139  23.240   0.373
63630W        W23375  24.050  17.624  13.943
63631W        W23376  11.290   8.657   0.308
63632W        W23377   9.170  31.502  14.922
63633W        W23378   1.479  12.280  13.920
63634W        W23379  30.618  44.331   4.806
63635W        W23380  42.975  28.109   2.375
63636W        W23381   4.743  22.677  11.577
63637W        W23382  23.658  36.531  12.062
63638W        W23383  35.414   9.177   0.762
63639W        W23384  13.743  11.834   4.156
63640W        W23385  33.089   8.361  14.823
63641W        W23386  19.103  37.502  12.960
63642W        W23387  16.629  35.090   1.405
63643W        W23388   5.194  37.527  10.436
63644W        W23389  22.693  24.518   4.226
63645W        W23390  25.085  35.069  14.299
63646W        W23391  19.168  23.670  14.014
63647W        W23392  34.005   0.387   1.398
63648W        W23393  22.068  17.704   4.716
63649W        W23394  13.702  27.033  14.457
63650W        W23395  30.058  19.045   4.354
63651W        W23396   0.420  38.409   0.902
63652W        W23397  40.949  37.554  14.371
63653W        W23398   7.782   7.861   3.212
63654W        W23399   5.423  37.852   2.880
63655W        W23400  22.998  19.184  10.436
63656W        W23401   6.308   2.363  10.610
63657W        W23402  42.893   3.359   4.643
63658W        W23403  11.795  28.441   3.289
63659W        W23404  16.596  13.699   1.790
63660W        W23405  14.329  37.032  11.380
63661W        W23406   3.445   7.702   3.308
63662W        W23407  11.323  38.361  12.991
63663W        W23408  19.276   6.332   2.410
63664W        W23409  11.795  12.289  14.414
63665W        W23410  43.438  37.953   4.694
63666W        W23411  40.413  34.041   0.945
63667W        W23412  18.653  32.046  12.860
63668W        W23413   8.881  33.131  11.568
63669W        W23414  24.195  39.983  13.893
63670W        W23415  35.089  20.253  14.850
63671W        W23416  40.469   3.834   3.267
63672W        W23417  29.088  40.872  11.069
63673W        W23418   8.767  23.664  13.879
63674W        W23419  20.714  30.549  12.352
63675W        W23420   3.887  11.306   4.679
63676W        W23421  28.022   3.456  12.091
63677W        W23422  26.089  41.462  11.960
63678W        W23423  20.255   3.350  13.386
63679W        W23424   8.666  29.019  14.347
63680W        W23425  27.164  32.908   0.299
63681W        W23426  22.579  15.151   0.269
63682W        W23427  24.548  12.839   0.313
63683W        W23428  27.461  17.573  11.894
63684W        W23429  13.208  10.636  12.456
63685W        W23430  19.245  10.870  11.128
63686W        W23431  20.733  13.661   1.701
63687W        W23432  43.502   7.181  13.969
63688W        W23433  30.048  34.926  13.855
63689W        W23434   9.367  37.393  14.339
63690W        W23435  40.325   1.869  12.044
63691W        W23436  42.920   2.315  11.595
63692W        W23437  28.578  28.123  11.951
63693W        W23438  44.005  13.784   2.210
63694W        W23439  25.698  11.834  11.935
63695W        W23440  19.630  39.453  14.863
63696W        W23441   8.747  31.452  14.368
63697W        W23442   7.396  11.338  10.985
63698W        W23443  14.801  29.080  12.072
63699W        W23444   8.786  34.893  13.836
63700W        W23445   1.348  28.972  11.897
63701W        W23446  37.025   7.724  11.886
63702W        W23447  39.844  34.069  11.579
63703W        W23448  21.752  28.444   3.234
63704W        W23449  38.491  10.810  12.492
63705W        W23450  41.039  10.815  13.320
63706W        W23451  26.001  16.106  12.360
63707W        W23452   0.368  34.895  10.941
63708W        W23453   7.359  38.456  14.777
63709W        W23454   8.810  44.500   5.206
63710W        W23455  15.785   0.369   4.240
63711W        W23456  31.455  29.073  13.057
63712W        W23457  42.439  32.600  14.829
63713W        W23458  12.666  34.594   0.744
63714W        W23459  12.267  19.546   0.310
63715W        W23460  17.632   3.402   2.300
63716W        W23461   8.193   0.937  14.876
63717W        W23462  26.575  23.535   0.400
63718W        W23463  43.315   5.782  11.998
63719W        W23464   0.459  18.706  11.961
63720W        W23465   8.742   8.189  12.988
63721W        W23466  31.439   6.383  12.891
63722W        W23467  34.412  28.016   2.753
63723W        W23468   1.735  30.940  11.973
63724W        W23469  31.000  35.861  11.976
63725W        W23470  18.191   0.811   1.231
63726W        W23471   4.436  25.108  11.121
63727W        W23472  38.856  43.005  12.061
63728W        W23473   9.879   1.835   4.654
63729W        W23474  33.528  12.829   3.276
63730W        W23475  20.172  25.472   1.392
63731W        W23476  11.840  32.496   0.373
63732W        W23477  13.153  22.036   1.762
63733W        W23478  39.896  22.629  13.847
63734W        W23479  18.157  13.333   3.238
63735W        W23480   4.895  22.578  13.042
63736W        W23481   1.814   9.173   2.405
63737W        W23482   9.718  15.795   4.707
63738W        W23483  39.465  22.095  12.444
63739W        W23484  43.437  36.939   0.467
63740W        W23485  39.334  31.446   2.753
63741W        W23486  35.003  18.295   0.420
63742W        W23487  44.288  33.018  13.790
63743W        W23488  39.930  35.020   3.297
63744W        W23489  27.490  42.320   3.344
63745W        W23490   7.335  41.313   2.680
63746W        W23491   4.915  38.505   9.507
63747W        W23492  14.300  41.013  13.972
63748W        W23493  23.069   2.462  12.033
63749W        W23494  40.828  18.076  14.412
63750W        W23495  20.637  19.057   1.240
63751W        W23496  22.122  33.547  11.408
63752W        W23497  43.283  33.434  11.119
63753W        W23498  15.773  40.975  12.982
63754W        W23499  11.865  23.156   1.219
63755W        W23500  35.003  13.229   1.788
63756W        W23501  36.558  32.118  14.968
63757W        W23502  15.782  23.194   3.214
63758W        W23503  31.931  25.699   0.412
63759W        W23504  15.295  34.376  10.909
63760W        W23505  16.763  28.991   4.628
63761W        W23506   6.313  34.875   1.448
63762W        W23507   6.215  15.711  14.789
63763W        W23508  35.443  20.129  14.318
63764W        W23509   1.840  44.406  10.607
63765W        W23510  29.475  34.905  11.007
63766W        W23511  10.159   6.684  13.886
63767W        W23512  25.095  44.396  11.078
63768W        W23513  24.512  29.146  10.910
63769W        W23514  39.935  41.861  14.412
63770W        W23515  26.071  11.252   0.919
63771W        W23516  26.555  17.238   9.939
63772W        W23517  10.311  18.573  12.378
63773W        W23518   8.182  13.783  11.942
63774W        W23519  44.363  15.636   2.266
63775W        W23520  25.060   8.342  14.363
63776W        W23521  26.090   9.174   0.253
63777W        W23522  18.617  19.696  12.561
63778W        W23523  31.931  24.595   4.724
63779W        W23524  37.935  39.330  14.275
63780W        W23525  38.494  30.923   4.342
63781W        W23526  37.924  42.812   2.711
63782W        W23527  18.117  24.699  13.801
63783W        W23528  33.464  32.998   4.777
63784W        W23529   9.296  33.012   0.430
63785W        W23530  23.001  36.958  10.890
63786W        W23531  41.842  25.481   3.301
63787W        W23532  40.353  23.680  13.821
63788W        W23533  24.124  16.648   0.771
63789W        W23534   9.187  41.968   4.193
63790W        W23535   3.443   5.345  11.977
63791W        W23536   3.926  18.149  13.469
63792W        W23537  22.180  11.816   4.169
63793W        W23538  12.205  14.133   0.739
63794W        W23539  41.922  37.077  11.069
63795W        W23540  10.821   2.935  13.889
63796W        W23541  33.466  12.789  13.801
63797W        W23542  34.033   6.803  11.119
63798W        W23543   0.852  25.485   1.399
63799W        W23544  15.275  29.126   3.320
63800W        W23545  35.433   4.280   2.815
63801W        W23546  35.878  10.301   2.821
63802W        W23547  43.951   5.733   0.778
63803W        W23548   1.259   6.701   0.302
63804W        W23549  27.482  17.587   2.198
63805W        W23550  32.938   9.774   1.776
63806W        W23551   8.199  22.072   1.283
63807W        W23552  34.463  43.390  14.332
63808W        W23553   3.938   4.835  10.617
63809W        W23554  15.266  27.076   1.810
63810W        W23555  43.976  24.186   0.848
63811W        W23556   2.399  44.418   4.626
63812W        W23557  14.286  14.629   2.331
63813W        W23558  21.749   0.316   3.155
63814W        W23559  36.415  26.050  13.487
63815W        W23560  15.168  41.373   2.309
63816W        W23561  16.727  22.243  11.074
63817W        W23562  14.811  29.435  11.026
63818W        W23563  15.796  17.112  11.989
63819W        W23564   0.814  30.158   1.354
63820W        W23565  32.077  15.161  12.364
63821W        W23566  43.441  17.586   0.258
63822W        W23567  38.941   9.260   9.963
63823W        W23568  15.742  18.661   3.695
63824W        W23569   3.917  35.560  11.399
63825W        W23570  33.546   2.265   4.674
63826W        W23571  13.110  14.118  13.524
63827W        W23572   6.288  18.757  10.588
63828W        W23573  38.932  28.582  13.856
63829W        W23574  41.342  30.920  13.429
63830W        W23575   0.323   7.214   3.674
63831W        W23576  19.143  44.850  10.891
63832W        W23577  30.057  31.506  11.934
63833W        W23578  41.407  38.071  10.980
63834W        W23579  23.608  12.163  13.315
63835W        W23580  24.041  24.157  10.473
63836W        W23581  43.902  15.817  12.994
63837W        W23582   7.779  10.743  14.477
63838W        W23583  13.320  15.682  12.886
63839W        W23584  22.247   4.446  11.486
63840W        W23585  17.157  10.259   4.265
63841W        W23586  26.169  33.464  10.554
63842W        W23587  16.567  31.985   3.197
63843W        W23588   9.734   1.290   2.261
63844W        W23589  36.898   0.920  11.514
63845W        W23590  20.713  11.170  14.020
63846W        W23591   4.351  32.497  11.906
63847W        W23592  14.725  29.508   4.204
63848W        W23593   2.451   0.272  10.642
63849W        W23594  21.613  21.039   4.793
63850W        W23595   4.417  30.035  13.864
63851W        W23596  37.084  11.734  12.559
63852W        W23597  37.560  41.844   2.264
63853W        W23598  41.376  11.764   2.387
63854W        W23599   9.154  37.462   2.221
63855W        W23600  40.454   7.731  12.919
63856W        W23601  30.515  13.283   2.742
63857W        W23602  36.880   8.378  12.462
63858W        W23603  27.483   2.434   0.947
63859W        W23604  37.369  36.492  11.104
63860W        W23605   0.777  15.289   0.743
63861W        W23606  19.179  43.485  11.868
63862W        W23607  15.600  40.964  13.888
63863W        W23608  34.007  15.791   3.214
63864W        W23609  33.399  34.531   4.621
63865W        W23610  19.061  10.316   3.344
63866W        W23611  44.416  24.541   0.833
63867W        W23612  43.302  40.027  12.890
63868W        W23613  19.206  39.376   4.146
63869W        W23614  34.027  36.846  12.580
63870W        W23615  13.835  25.002   1.810
63871W        W23616  40.972  30.435   0.243
63872W        W23617  23.085  26.086   1.787
63873W        W23618   7.697  24.619  12.534
63874W        W23619   0.930  11.219  10.467
63875W        W23620   3.953  10.215   0.447
63876W        W23621  16.780  44.846  13.898
63877W        W23622  31.636  32.980  11.111
63878W        W23623   8.700  44.763  14.336
63879W        W23624   6.267  32.060   3.267
63880W        W23625   7.261  34.409   2.744
63881W        W23626   9.355   2.861   2.292
63882W        W23627  18.661  26.598   3.201
63883W        W23628  34.873  24.116  13.899
63884W        W23629  33.110  18.118  11.505
63885W        W23630  21.143   5.427   1.363
63886W        W23631  29.127  13.808   1.701
63887W        W23632  15.796  18.658   4.829
63888W        W23633  27.046  36.506   0.266
63889W        W23634   5.386  32.454  12.446
63890W        W23635  38.526  44.374  12.561
63891W        W23636  35.995  34.993   1.236
63892W        W23637  16.716  20.635  12.067
63893W        W23638  35.910  10.671  13.865
63894W        W23639   2.445  21.105   3.302
63895W        W23640  10.231   8.383   4.738
63896W        W23641  19.063  33.019   1.305
63897W        W23642  37.969  15.637   3.758
63898W        W23643  14.803  33.388   3.305
63899W        W23644  34.035  18.094   9.586
63900W        W23645  20.730   2.870  12.953
63901W        W23646  38.921  25.495  12.414
63902W        W23647  14.591  18.170   0.322
63903W        W23648  38.053  44.991   4.668
63904W        W23649  12.853  35.082   1.847
63905W        W23650  15.659  17.173  12.915
63906W        W23651   8.822  29.525  10.631
63907W        W23652  27.681  30.060   2.395
63908W        W23653  31.555  36.872  13.929
63909W        W23654  18.054  33.934  11.962
63910W        W23655   6.191   1.248  13.971
63911W        W23656  17.069  20.182   1.440
63912W        W23657  29.582  21.236  11.011
63913W        W23658   6.841   8.253  14.300
63914W        W23659  29.142  39.993   3.194
63915W        W23660  36.009   7.797   2.756
63916W        W23661  33.418  38.512   4.196
63917W        W23662  39.388  10.236   4.603
63918W        W23663  35.044  16.767  14.365
63919W        W23664  31.618  23.646   1.756
63920W        W23665  14.820  28.108  12.447
63921W        W23666  21.539   9.199  10.406
63922W        W23667   6.261  23.073   4.189
63923W        W23668   4.891  40.909  14.030
63924W        W23669  42.387  42.388  11.030
63925W        W23670  43.889  43.379   4.201
63926W        W23671  14.752   5.355   2.347
63927W        W23672   0.402  13.303   3.642
63928W        W23673   7.268  38.385  11.902
63929W        W23674   1.467  23.063   2.260
63930W        W23675   0.464  39.376   2.773
63931W        W23676  23.652  33.525   2.218
63932W        W23677  27.014  32.536   2.226
63933W        W23678  14.635  18.722  12.829
63934W        W23679  25.569  11.254  12.538
63935W        W23680  44.931  21.223   4.819
63936W        W23681  23.157   1.371  14.872
63937W        W23682  10.744  23.199  14.996
63938W        W23683  22.226   9.381  14.346
63939W        W23684  10.822  42.839   4.798
63940W        W23685   7.904  41.422   0.960
63941W        W23686  17.657  31.506   2.893
63942W        W23687  37.563  44.259   3.281
63943W        W23688  22.039  34.545   3.164
63944W        W23689  38.967  29.987  11.089
63945W        W23690   0.970   1.305   4.765
63946W        W23691  25.174  24.623  11.393
63947W        W23692  29.050  39.338  12.425
63948W        W23693   7.373  20.155  13.854
63949W        W23694  39.810  11.657   4.200
63950W        W23695   7.342  14.761  13.367
63951W        W23696  40.975  23.193  12.855
63952W        W23697  32.059  37.871  11.553
63953W        W23698  21.237   8.243   1.421
63954W        W23699  23.030  34.475   0.357
63955W        W23700  29.444  38.354   4.161
63956W        W23701  18.051  19.110  12.006
63957W        W23702  37.540  16.077   1.450
63958W        W23703  38.343  21.115  13.330
63959W        W23704  24.488  35.958  14.463
63960W        W23705  43.391  29.062  11.071
63961W        W23706   8.680  40.421  12.396
63962W        W23707  32.091   7.874  10.410
63963W        W23708  14.735  13.157  12.536
63964W        W23709  13.197  29.439   3.748
63965W        W23710  44.334  18.677   1.240
63966W        W23711  18.148  24.226  10.538
63967W        W23712  15.656  33.482   4.181
63968W        W23713  13.329  10.223  10.151
63969W        W23714  26.514  28.498  14.473
63970W        W23715   6.908  12.285   0.933
63971W        W23716  42.972   5.300  13.432
63972W        W23717  32.047  33.543   2.767
63973W        W23718   7.696   4.746   3.329
63974W        W23719  11.707  20.525  14.508
63975W        W23720  28.145   1.395   2.667
63976W        W23721  42.412  34.598   4.691
63977W        W23722   7.697  13.712   0.340
63978W        W23723   6.397   2.230   1.905
63979W        W23724   8.222  24.491  11.951
63980W        W23725  33.062  41.321   1.796
63981W        W23726  18.282   1.940   3.650
63982W        W23727  13.184  23.203   1.767
63983W        W23728  44.863  16.106  10.933
63984W        W23729  25.210   0.369   0.886
63985W        W23730  23.127  23.072  11.568
63986W        W23731   1.958  37.840  12.567
63987W        W23732  19.229  11.337   0.818
63988W        W23733  30.990  32.095  12.532
63989W        W23734  27.140   9.822  13.851
63990W        W23735  13.819  38.381  14.352
63991W        W23736  29.997   8.299   4.726
63992W        W23737  14.210  28.634   0.387
63993W        W23738  27.040  15.720   4.602
63994W        W23739   4.825   0.758  10.986
63995W        W23740  37.877   7.176  14.915
63996W        W23741  17.246  34.944   3.327
63997W        W23742   9.656  26.533   3.291
63998W        W23743   1.438  38.340  10.522
63999W        W23744  32.618  15.246   0.417
64000W        W23745   6.750  39.366  14.776
64001W        W23746   7.265  34.089  11.509
64002W        W23747   0.252  27.539   5.238
64003W        W23748  39.004  39.492  11.467
64004W        W23749   2.311  17.238   0.747
64005W        W23750   6.241  36.522  12.446
64006W        W23751  12.714  11.281   1.446
64007W        W23752  29.529  41.800  13.381
64008W        W23753  42.874  39.450  14.445
64009W        W23754  17.719  15.248  10.427
64010W        W23755  24.593  21.174  11.095
64011W        W23756  34.384  23.021  13.506
64012W        W23757   3.342  39.434  12.043
64013W        W23758   3.822  11.839  14.984
64014W        W23759   4.230  34.072   1.259
64015W        W23760  10.808  17.653  11.934
64016W        W23761   2.450  23.714   1.830
64017W        W23762  22.201   6.383   2.807
64018W        W23763   7.859   1.837   3.272
64019W        W23764  24.992  32.410  13.536
64020W        W23765  17.566  33.023   1.855
64021W        W23766  30.011  11.776   4.176
64022W        W23767  34.371  26.120   2.342
64023W        W23768  25.973   2.366  10.445
64024W        W23769  10.751   3.712   0.278
64025W        W23770  27.995  42.839   1.410
64026W        W23771  18.062  11.747   2.225
64027W        W23772  14.647  31.500  11.500
64028W        W23773  31.567  21.078  10.923
64029W        W23774  16.780  19.588  13.854
64030W        W23775  36.494  25.073  13.311
64031W        W23776  22.647  39.387   4.696
64032W        W23777  42.791  15.669  12.457
64033W        W23778  42.842  23.985   1.909
64034W        W23779  38.027  18.294  10.913
64035W        W23780  40.896  15.154   3.355
64036W        W23781   2.443  43.805  10.621
64037W        W23782  29.449  43.922  12.514
64038W        W23783  24.068  30.565  10.471
64039W        W23784  33.126  24.192   4.148
64040W        W23785  11.271  23.627   0.340
64041W        W23786  14.137   0.368   0.243
64042W        W23787  44.436   2.227  14.278
64043W        W23788  11.266  31.633   1.776
64044W        W23789  13.349  43.459  10.634
64045W        W23790  20.650  20.101   1.813
64046W        W23791   0.341   1.460   3.816
64047W        W23792  24.480   4.817   1.262
64048W        W23793   9.879   8.889   2.875
64049W        W23794  23.683  44.502   0.953
64050W        W23795   1.332   8.257  13.534
64051W        W23796   9.157  15.725  13.351
64052W        W23797   1.238  31.109  14.416
64053W        W23798  36.034  21.591  10.579
64054W        W23799   3.235  27.056  14.879
64055W        W23800  14.606  41.387  10.613
64056W        W23801  22.584  23.106  14.843
64057W        W23802  42.508   5.197  11.997
64058W        W23803  25.543   3.446   0.276
64059W        W23804  18.204  44.902   1.710
64060W        W23805   6.329  36.010  13.427
64061W        W23806  37.455  33.559   5.270
64062W        W23807  12.752  21.143  14.470
64063W        W23808   5.902  41.388  14.353
64064W        W23809  19.770  10.200  12.481
64065W        W23810  29.487   2.283   2.370
64066W        W23811  35.564   1.956  13.804
64067W        W23812  17.683  15.645   1.219
64068W        W23813  43.970   8.843   1.799
64069W        W23814  28.667  37.579  13.333
64070W        W23815  28.946  38.494   2.727
64071W        W23816  18.192  34.879   4.236
64072W        W23817  32.034  13.350   5.148
64073W        W23818  40.901  20.180   4.802
64074W        W23819   5.220   2.384   2.853
64075W        W23820  35.856   4.323  11.565
64076W        W23821  38.481  44.453   1.425
64077W        W23822  40.497  41.501   1.320
64078W        W23823   2.950  19.536  14.472
64079W        W23824  13.788  30.986  14.912
64080W        W23825  13.784  15.680  13.434
64081W        W23826  10.272   6.306   3.738
64082W        W23827  21.072  16.660  11.973
64083W        W23828  44.420  11.861  11.013
64084W        W23829   2.949  41.820  13.316
64085W        W23830  14.210   8.827  14.924
64086W        W23831  15.652  43.426   1.853
64087W        W23832  19.194  42.020   2.849
64088W        W23833  40.877  35.036   2.193
64089W        W23834  10.261   6.426  14.508
64090W        W23835  39.864  14.713   2.674
64091W        W23836  44.434  35.459   3.158
64092W        W23837  36.855  40.054  13.929
64093W        W23838  19.092   7.338   1.447
64094W        W23839   5.431  26.585  10.016
64095W        W23840   7.256   1.441   4.246
64096W        W23841   0.352  18.258  14.433
64097W        W23842  21.688   8.273   2.269
64098W        W23843   1.914  37.866   0.891
64099W        W23844  41.372  40.402   3.377
64100W        W23845  22.110   8.837   4.720
64101W        W23846  27.550  43.891  14.357
64102W        W23847  21.713   3.823   0.874
64103W        W23848  31.444  25.133  12.359
64104W        W23849  39.842  44.310  11.883
64105W        W23850  24.724  16.746   0.817
64106W        W23851  21.128  10.269  13.998
64107W        W23852  19.051  40.311  14.354
64108W        W23853   2.801   5.919  14.877
64109W        W23854   5.275  24.612   0.831
64110W        W23855  25.087  26.105   4.799
64111W        W23856  20.722  21.581  12.003
64112W        W23857   6.412  18.125  14.784
64113W        W23858  35.448  28.583  12.466
64114W        W23859  18.091  16.753  14.843
64115W        W23860  36.496  38.074   2.343
64116W        W23861   1.472  41.525   2.851
64117W        W23862  44.947  24.613   2.223
64118W        W23863   3.936  37.875  13.057
64119W        W23864  24.609  22.695   3.866
64120W        W23865  40.813  28.136   1.329
64121W        W23866  34.440   7.280  10.437
64122W        W23867  16.810  26.590  12.554
64123W        W23868  31.942   3.412   3.361
64124W        W23869  37.339  21.707  13.532
64125W        W23870  28.531  15.635  11.887
64126W        W23871  43.475  31.049  13.508
64127W        W23872  27.028  39.050  10.924
64128W        W23873   7.862  23.204  10.988
64129W        W23874   2.335  15.666   4.624
64130W        W23875  41.930  44.807   3.261
64131W        W23876  38.049  11.221  12.054
64132W        W23877  13.134  24.074   1.411
64133W        W23878  43.350   8.822  12.420
64134W        W23879  12.223  41.015  11.930
64135W        W23880  20.205  18.251   4.621
64136W        W23881  27.616   6.869   5.803
64137W        W23882  22.721   0.347  12.549
64138W        W23883  25.587  25.184  14.275
64139W        W23884  16.719  44.870   3.331
64140W        W23885  14.246   5.773  10.609
64141W        W23886  29.958  21.694   2.826
64142W        W23887   7.354  13.606  13.996
64143W        W23888  25.107  25.007   0.898
64144W        W23889   2.282  30.441   0.254
64145W        W23890  15.713  37.365   0.967
64146W        W23891  30.942  29.559  11.970
64147W        W23892  43.888   5.870  11.608
64148W        W23893   6.226  18.635   0.249
64149W        W23894  26.471  12.205  11.602
64150W        W23895  35.430   3.400   1.220
64151W        W23896  41.375  21.529  13.805
64152W        W23897  10.287  30.916   4.308
64153W        W23898   3.758   7.855   0.730
64154W        W23899  12.689   4.362   0.948
64155W        W23900  14.762  25.139  13.358
64156W        W23901  26.662  38.917   4.136
64157W        W23902  18.171   7.403   1.308
64158W        W23903   4.222  28.965   1.792
64159W        W23904  21.079   1.940  14.885
64160W        W23905   8.166  20.069   3.231
64161W        W23906  40.531  12.219  11.587
64162W        W23907  16.743  26.027   0.742
64163W        W23908  43.278   8.204  13.876
64164W        W23909  27.578  20.578   4.194
64165W        W23910   4.830  33.486   0.955
64166W        W23911  32.113  16.611  12.388
64167W        W23912  36.040  12.749  11.891
64168W        W23913  20.037   5.912  10.584
64169W        W23914   2.422  11.846   2.190
64170W        W23915  18.572  30.456   1.838
64171W        W23916  37.830  31.570  10.523
64172W        W23917  22.702  35.376   4.803
64173W        W23918  23.715  31.525   2.786
64174W        W23919  44.837  13.687  10.905
64175W        W23920  41.842   4.377   4.726
64176W        W23921  29.518  33.381   2.313
64177W        W23922  35.096   6.291   2.792
64178W        W23923  24.211  32.414  11.860
64179W        W23924  36.892  35.918  12.836
64180W        W23925  35.889  11.314   0.957
64181W        W23926  12.735  20.252  12.084
64182W        W23927  39.412  23.007  13.511
64183W        W23928   1.926  32.619  13.920
64184W        W23929  14.225  27.612  13.837
64185W        W23930   2.449   9.187  12.023
64186W        W23931   3.381  14.596   0.361
64187W        W23932  43.838  13.620   3.684
64188W        W23933  29.167  10.704  11.388
64189W        W23934  33.598   5.356   2.210
64190W        W23935  29.131  14.313  14.838
64191W        W23936  43.333  11.758  11.423
64192W        W23937  17.221  20.149  13.446
64193W        W23938   0.957  10.709  12.876
64194W        W23939   1.439  39.054   1.838
64195W        W23940  11.334  11.167  12.443
64196W        W23941   4.356  30.146  11.929
64197W        W23942  40.964  36.084   3.239
64198W        W23943  15.753  44.764  10.548
64199W        W23944  13.607   8.760   2.319
64200W        W23945  23.656  41.488  12.342
64201W        W23946  26.612  41.306  10.086
64202W        W23947  15.596   9.814   4.624
64203W        W23948   8.331   1.864  13.323
64204W        W23949  16.566  38.377   4.647
64205W        W23950  20.146  18.769  13.442
64206W        W23951  21.232  21.667  11.965
64207W        W23952   1.733  11.679   1.340
64208W        W23953  11.346  20.630  11.443
64209W        W23954  16.792   0.763   1.305
64210W        W23955   4.869  15.749  14.309
64211W        W23956  33.505  14.254   3.377
64212W        W23957  44.779  41.295  11.997
64213W        W23958  23.600  19.603  11.522
64214W        W23959  25.989   2.885  13.356
64215W        W23960  44.316   4.829  11.073
64216W        W23961  30.481   6.755   2.792
64217W        W23962  37.369  18.570  14.860
64218W        W23963  39.428   4.785   3.794
64219W        W23964  25.977  24.111  11.027
64220W        W23965  16.280  19.269   0.363
64221W        W23966  16.643  15.250  14.455
64222W        W23967   1.373   6.815   2.246
64223W        W23968  38.909  21.244   2.750
64224W        W23969  43.451   1.813   4.625
64225W        W23970  20.709  44.989   5.125
64226W        W23971  18.152   9.650   3.276
64227W        W23972   8.370  28.185   2.741
64228W        W23973   9.152   8.260   3.280
64229W        W23974   5.277  41.904   2.226
64230W        W23975  23.085  40.331   2.186
64231W        W23976  39.448  28.466   0.480
64232W        W23977  15.295   0.254  10.624
64233W        W23978  21.523  23.622   3.678
64234W        W23979  38.882  18.644  11.084
64235W        W23980  40.307  24.634  13.868
64236W        W23981  20.180  17.255   2.327
64237W        W23982  10.752  11.670   4.632
64238W        W23983  28.674  30.575  12.343
64239W        W23984  13.275  32.919  14.354
64240W        W23985  22.535  43.286   4.332
64241W        W23986  30.153  13.242  10.913
64242W        W23987  33.077  27.083   5.116
64243W        W23988  27.149  17.304  14.791
64244W        W23989  40.387  40.861   4.734
64245W        W23990  43.981  11.684   0.467
64246W        W23991  38.450   6.890   3.273
64247W        W23992  20.568  13.309  11.950
64248W        W23993  31.515  33.985   3.313
64249W        W23994  41.032  28.670   0.413
64250W        W23995  25.614  18.182   4.760
64251W        W23996  35.579  39.397  12.958
64252W        W23997  17.076  16.677  11.935
64253W        W23998  16.187  12.719   3.285
64254W        W23999  44.389   2.731  12.869
64255W        W24000  21.098  32.009   1.370
64256W        W24001  20.036  20.102  12.363
64257W        W24002  40.450  31.010  11.089
64258W        W24003  10.152  26.567   0.947
64259W        W24004   8.162  22.221  11.125
64260W        W24005   8.673   2.934  11.126
64261W        W24006  17.097  15.729   4.771
64262W        W24007   8.901  44.001   0.833
64263W        W24008  37.384   8.299  14.439
64264W        W24009  15.186  15.183  13.356
64265W        W24010  11.649  36.542   4.721
64266W        W24011   8.707   5.899  14.339
64267W        W24012  18.126  28.567  13.344
64268W        W24013  26.053  34.481  10.102
64269W        W24014  30.023   8.227   2.776
64270W        W24015  30.017  35.589  14.797
64271W        W24016  35.362  26.630  11.857
64272W        W24017   5.707  41.903   2.666
64273W        W24018  32.001  30.634   1.876
64274W        W24019  25.668  23.683   3.691
64275W        W24020  18.288  37.010  11.525
64276W        W24021  29.935  14.752  12.461
64277W        W24022   3.951  23.583  14.970
64278W        W24023  34.103  13.305   2.293
64279W        W24024  28.446  26.526  11.578
64280W        W24025   8.659  20.718  13.383
64281W        W24026  39.037  24.182   4.753
64282W        W24027  10.850  30.589   2.889
64283W        W24028  16.661   7.417   3.286
64284W        W24029  44.420  32.078  13.419
64285W        W24030  28.054  15.766   1.222
64286W        W24031  21.642  13.257  11.487
64287W        W24032  10.860  19.574  13.340
64288W        W24033  29.585  44.850  11.442
64289W        W24034  29.112   9.860  10.515
64290W        W24035  33.398  26.974  11.553
64291W        W24036  17.124  12.846  13.520
64292W        W24037   2.402  18.593  14.823
64293W        W24038  12.751   1.278   2.301
64294W        W24039  34.966  34.020  12.864
64295W        W24040  18.263  26.175   4.331
64296W        W24041  38.830  30.496   0.943
64297W        W24042   4.818  11.244  12.543
64298W        W24043  32.546  18.265   0.834
64299W        W24044  27.062  16.189   0.827
64300W        W24045  39.345  30.557  14.375
64301W        W24046  13.316  19.537   0.320
64302W        W24047  28.149  27.603   1.768
64303W        W24048   4.394  37.970   1.365
64304W        W24049  34.895  33.437  10.071
64305W        W24050  14.332  19.270  12.828
64306W        W24051   3.939  12.121  12.501
64307W        W24052  32.510  13.660  14.416
64308W        W24053  37.075  11.336  13.909
64309W        W24054  33.896  28.438   1.779
64310W        W24055  15.767   2.346  10.443
64311W        W24056  20.695  43.999  11.446
64312W        W24057  26.025   7.763   3.662
64313W        W24058  32.056   8.769  11.608
64314W        W24059   5.218  34.926  13.476
64315W        W24060  34.482  34.583  12.914
64316W        W24061  23.691  35.552  11.489
64317W        W24062  28.007  34.443  12.932
64318W        W24063  17.225  44.897  12.417
64319W        W24064  14.287   1.475  14.918
64320W        W24065  44.350  36.524   0.454
64321W        W24066  23.503  19.610  14.859
64322W        W24067   3.832  12.693   4.793
64323W        W24068  26.498  23.554   4.682
64324W        W24069   9.172   2.301  14.359
64325W        W24070  34.587  16.304  12.868
64326W        W24071  25.606   5.848  13.942
64327W        W24072  20.647  28.111  14.895
64328W        W24073  18.615   6.911  13.499
64329W        W24074  22.711  26.177   1.403
64330W        W24075  36.376  19.146  12.434
64331W        W24076  24.552  35.863   3.831
64332W        W24077  39.454  24.015  14.778
64333W        W24078  41.881  34.393   3.185
64334W        W24079  13.235  41.424   1.258
64335W        W24080  24.177  20.709  12.063
64336W        W24081  10.752   0.825  13.807
64337W        W24082  11.719  17.789   4.303
64338W        W24083  41.412  14.813   2.300
64339W        W24084  36.928  27.190  11.998
64340W        W24085  18.605  22.738  11.441
64341W        W24086  30.952  29.931  11.115
64342W        W24087   3.725  19.553  14.795
64343W        W24088  20.641  37.392  14.362
64344W        W24089  37.970  20.174  11.587
64345W        W24090  16.731  44.487  12.852
64346W        W24091  16.154  32.128   1.285
64347W        W24092  11.138   5.828  14.503
64348W        W24093  15.087   1.931   2.685
64349W        W24094  26.641  35.078  14.011
64350W        W24095  33.005  31.433   5.281
64351W        W24096  28.964  11.676   3.648
64352W        W24097  18.684  27.519  14.335
64353W        W24098  11.278  15.150   2.891
64354W        W24099  14.123  33.585  13.029
64355W        W24100   4.282  43.510   0.385
64356W        W24101  36.895   6.280   2.286
64357W        W24102  12.759  10.317  12.094
64358W        W24103   0.930  41.444   0.385
64359W        W24104   2.836   4.864  12.362
64360W        W24105   2.234   8.810   2.252
64361W        W24106  24.645   2.763   2.829
64362W        W24107   8.859  43.957  14.432
64363W        W24108  26.087  19.580  12.534
64364W        W24109  36.387   3.320   3.867
64365W        W24110  13.653  17.687  12.464
64366W        W24111  29.142   4.875  13.309
64367W        W24112  24.183  11.746   3.358
64368W        W24113   6.805   3.949   2.366
64369W        W24114  20.566  29.603   0.261
64370W        W24115  22.209  41.891   4.780
64371W        W24116  21.259  24.174  11.060
64372W        W24117  23.011  14.198   1.214
64373W        W24118  22.195  23.622  13.897
64374W        W24119  20.262  21.047   5.268
64375W        W24120  10.319   6.691   0.411
64376W        W24121  27.187  34.518   3.149
64377W        W24122  14.644  11.199   1.301
64378W        W24123  23.659   5.232  14.985
64379W        W24124  40.503   1.408  10.914
64380W        W24125  10.747  29.473   3.784
64381W        W24126  11.227  27.510   1.924
64382W        W24127  22.186  40.929   4.818
64383W        W24128  12.824  11.689   1.850
64384W        W24129  25.023  24.631  10.416
64385W        W24130  27.671  39.509  14.498
64386W        W24131  30.032  20.038   2.200
64387W        W24132   4.885  42.927  13.440
64388W        W24133   3.420  30.967   3.758
64389W        W24134  30.942  28.951   1.316
64390W        W24135   3.744  31.899   3.671
64391W        W24136  43.417  22.113   0.735
64392W        W24137  13.846   2.441  12.405
64393W        W24138  28.950  34.916  13.388
64394W        W24139  18.790  13.212   2.416
64395W        W24140  21.698  18.218   3.786
64396W        W24141  27.106  42.948   3.205
64397W        W24142  30.124   1.893   2.203
64398W        W24143  36.593   5.758   2.873
64399W        W24144  40.934  30.153   1.394
64400W        W24145  16.289  32.137   5.099
64401W        W24146  27.628  29.508  10.991
64402W        W24147  40.491  38.949   9.919
64403W        W24148  17.164  34.992  10.558
64404W        W24149  44.821  24.167  14.989
64405W        W24150  25.026   6.832  12.949
64406W        W24151  15.708  11.154  13.923
64407W        W24152  43.498  25.104   3.176
64408W        W24153  34.970  24.480  13.859
64409W        W24154  10.384   3.807   1.389
64410W        W24155  33.920  31.543   3.715
64411W        W24156  11.307  43.299   4.162
64412W        W24157  39.422  43.842   1.251
64413W        W24158  28.500  42.834  11.932
64414W        W24159  40.017  31.554  13.482
64415W        W24160  31.488   0.925   4.327
64416W        W24161   1.829  43.818   2.275
64417W        W24162  34.589   4.395   1.226
64418W        W24163  21.051  31.454   3.795
64419W        W24164  12.625  18.643   3.268
64420W        W24165  25.543  38.387   4.613
64421W        W24166  34.562  32.125   4.321
64422W        W24167  28.514  28.965  13.535
64423W        W24168  38.044  35.436  11.001
64424W        W24169  37.424   5.363  12.346
64425W        W24170   3.358   2.906   3.735
64426W        W24171  26.677  17.088   4.832
64427W        W24172  35.397  39.862   4.129
64428W        W24173  36.910  33.939  11.088
64429W        W24174  36.356   5.373   0.385
64430W        W24175  19.262  29.641  11.551
64431W        W24176  24.539  14.113   1.345
64432W        W24177  40.033  21.553   4.624
64433W        W24178  12.732  34.382   3.869
64434W        W24179  39.431  34.904   3.194
64435W        W24180  11.216   8.883   3.654
64436W        W24181  11.855   2.282  14.292
64437W        W24182  22.047  11.148   5.201
64438W        W24183  15.690  18.220   3.365
64439W        W24184  31.595  32.927   1.737
64440W        W24185  25.015  28.948  14.309
64441W        W24186  26.684  11.352  10.612
64442W        W24187  12.230  20.074   1.243
64443W        W24188  12.288  36.491   4.694
64444W        W24189  26.492  36.042   3.270
64445W        W24190  31.973  21.081  11.911
64446W        W24191  30.436   9.269  10.571
64447W        W24192  18.204  23.238  14.509
64448W        W24193  16.268  44.427  13.004
64449W        W24194   3.838   3.459   2.378
64450W        W24195  35.081  31.493   2.229
64451W        W24196  15.779  12.332   4.198
64452W        W24197   2.241  21.147  12.580
64453W        W24198  33.063  17.155  14.377
64454W        W24199  38.833   7.201  11.117
64455W        W24200  18.623  26.460   4.197
64456W        W24201   5.866  20.696  11.548
64457W        W24202   1.739  27.951   3.648
64458W        W24203  26.959  28.990   4.643
64459W        W24204   4.808  15.728  14.925
64460W        W24205  24.541  17.132  12.452
64461W        W24206  35.087   3.833  14.855
64462W        W24207  16.583  17.567   3.738
64463W        W24208  17.801  24.654  11.536
64464W        W24209  27.570  31.643   3.242
64465W        W24210  13.166  22.592   5.087
64466W        W24211  38.452  34.929  14.356
64467W        W24212  24.199  10.191   2.786
64468W        W24213  41.388  12.814   3.813
64469W        W24214  22.143   0.476   0.875
64470W        W24215  38.455   2.943   2.270
64471W        W24216   7.208  40.317   3.203
64472W        W24217   0.291  34.462  11.534
64473W        W24218  16.103   6.369   1.918
64474W        W24219  28.131   6.410   3.299
64475W        W24220  39.410  12.322  10.480
64476W        W24221  22.012  31.131   3.771
64477W        W24222  27.085  33.891   3.168
64478W        W24223  43.508  38.566  12.838
64479W        W24224  10.349   3.411  11.423
64480W        W24225  44.874  27.111  11.421
64481W        W24226  31.627  30.497   3.230
64482W        W24227  11.628  28.548  10.434
64483W        W24228  13.775  37.433   5.106
64484W        W24229  31.552  17.594   0.936
64485W        W24230  10.653  35.092   2.708
64486W        W24231  35.467   9.376  11.499
64487W        W24232  33.983  26.471  14.856
64488W        W24233  10.639  16.785  13.359
64489W        W24234  39.842   4.217   2.672
64490W        W24235  37.538  39.000   3.734
64491W        W24236   5.711  23.630  13.497
64492W        W24237  20.162  36.372   3.685
64493W        W24238   6.849  23.036   2.185
64494W        W24239  27.006  21.058   1.821
64495W        W24240  26.063  41.338   0.741
64496W        W24241   4.384  23.693  13.837
64497W        W24242  27.087  15.163   4.633
64498W        W24243  23.172  40.473   4.816
64499W        W24244   6.243  19.197   4.279
64500W        W24245   2.358   8.742   3.797
64501W        W24246  10.736  14.590  13.893
64502W        W24247  29.038  31.589  11.924
64503W        W24248  24.508  26.486  12.391
64504W        W24249  43.348  18.265  10.969
64505W        W24250  15.775  35.982  13.924
64506W        W24251  43.969   5.862   1.829
64507W        W24252  25.179  33.038   1.217
64508W        W24253   5.918  39.906  11.949
64509W        W24254  29.442   7.355  14.972
64510W        W24255   5.381  10.765  14.978
64511W        W24256  20.258  19.630   4.764
64512W        W24257  18.108   2.902  14.383
64513W        W24258   2.339  41.367  10.051
64514W        W24259  35.857  42.343  11.402
64515W        W24260   9.774   0.894  13.949
64516W        W24261  30.089  44.318   4.168
64517W        W24262   1.746   5.807   2.760
64518W        W24263  34.372  17.097   2.418
64519W        W24264  42.362  30.996  11.610
64520W        W24265  29.930  39.332   3.835
64521W        W24266   5.735   1.433  14.282
64522W        W24267  22.564  30.642   4.792
64523W        W24268   4.409  16.142   5.131
64524W        W24269  40.867  42.290   2.858
64525W        W24270  35.050  26.156  10.978
64526W        W24271  11.326  41.902  12.913
64527W        W24272  25.179   0.271   3.849
64528W        W24273  24.656   8.765  12.874
64529W        W24274  11.798  11.353  12.923
64530W        W24275   0.928  20.672   3.860
64531W        W24276   5.432  42.327   0.251
64532W        W24277  22.648  10.730   2.396
64533W        W24278  22.038  15.089  13.826
64534W        W24279  12.134   2.423   0.401
64535W        W24280  38.994  35.852   3.231
64536W        W24281  23.167  40.360   0.343
64537W        W24282  25.647   9.706  14.505
64538W        W24283  14.675  32.936  12.423
64539W        W24284   5.749  20.759  11.907
64540W        W24285  29.115   2.781   1.799
64541W        W24286  26.633  35.858   2.667
64542W        W24287  29.059  10.713   0.440
64543W        W24288  31.920  10.375   1.246
64544W        W24289  33.030  26.465  14.459
64545W        W24290  14.608   3.219   3.320
64546W        W24291  25.080  40.967   3.305
64547W        W24292  25.212  42.297   0.892
64548W        W24293  18.102  29.956   1.843
64549W        W24294   5.884  41.822  12.418
64550W        W24295  39.003  24.186  12.502
64551W        W24296  37.513  31.955  13.951
64552W        W24297   4.714  43.010  14.775
64553W        W24298  16.164  36.392   2.343
64554W        W24299  14.248  13.108   0.444
64555W        W24300  35.943  12.687   2.328
64556W        W24301  26.539  35.506   1.250
64557W        W24302  13.297  44.859   0.949
64558W        W24303   9.647  23.633  12.448
64559W        W24304  42.303  17.129  13.523
64560W        W24305  22.684  39.000  11.558
64561W        W24306  16.077   9.687  10.484
64562W        W24307  10.181  28.152   0.409
64563W        W24308  43.965  10.329   1.412
64564W        W24309   2.345  44.811  12.826
64565W        W24310  43.941   5.384  10.642
64566W        W24311  31.905  21.261   1.438
64567W        W24312  24.126  14.600  12.526
64568W        W24313  42.354  20.544   1.769
64569W        W24314  28.046  34.605  12.381
64570W        W24315  31.072  26.986  11.062
64571W        W24316  28.657  23.695   1.436
64572W        W24317  31.500   1.386  12.438
64573W        W24318  21.592   0.478   0.937
64574W        W24319  24.183  20.651   1.218
64575W        W24320  14.722   7.285   1.835
64576W        W24321  17.086  35.100  10.970
64577W        W24322  40.430   8.188  11.582
64578W        W24323  27.940  15.663  10.153
64579W        W24324  19.233   0.430  13.853
64580W        W24325  35.440  37.874  10.426
64581W        W24326  31.000  11.304  12.920
64582W        W24327  30.458   6.681  13.798
64583W        W24328  34.891  22.085  12.952
64584W        W24329  37.978  28.956  14.940
64585W        W24330  34.070  12.674  13.876
64586W        W24331  31.431  28.180  12.530
64587W        W24332  26.603  13.281   2.292
64588W        W24333  12.279  42.958  14.347
64589W        W24334  10.689   1.409  11.988
64590W        W24335   3.359  17.127  12.084
64591W        W24336  23.676  14.797   3.183
64592W        W24337  36.937  44.286  12.919
64593W        W24338  42.025   2.415   3.765
64594W        W24339  44.496  30.009   0.250
64595W        W24340   0.284  31.583   3.302
64596W        W24341  13.238  35.048  14.494
64597W        W24342   7.354  18.128   3.189
64598W        W24343  39.514  34.587   0.343
64599W        W24344  36.547  18.600   0.762
64600W        W24345  27.572  16.678   1.799
64601W        W24346  36.385   2.332  13.433
64602W        W24347  32.625   5.307   9.938
64603W        W24348  15.672  16.166  14.320
64604W        W24349   2.329   0.310  10.969
64605W        W24350  26.095   1.895  10.959
64606W        W24351   7.768  20.184   4.629
64607W        W24352   6.916  27.521  11.858
64608W        W24353  33.074  23.091  10.972
64609W        W24354  25.002  35.371   2.246
64610W        W24355  23.715  37.461   4.644
64611W        W24356  34.426  13.787   1.790
64612W        W24357  37.457  11.279   1.795
64613W        W24358  16.640   0.952   0.263
64614W        W24359  43.457  23.064   0.318
64615W        W24360  41.959  12.681  14.330
64616W        W24361  16.185   5.380   2.222
64617W        W24362  15.627  11.183   0.813
64618W        W24363  13.213   3.855  12.456
64619W        W24364  32.989  17.559  10.638
64620W        W24365  30.473  44.806   2.782
64621W        W24366  39.524  33.383  13.811
64622W        W24367  11.843  19.064  14.810
64623W        W24368  19.284  44.919   1.405
64624W        W24369  10.853  16.178  13.831
64625W        W24370  44.331  15.657   0.805
64626W        W24371   5.714   9.209   3.767
64627W        W24372  41.428  26.664  11.593
64628W        W24373   6.775  33.968  14.434
64629W        W24374  25.136  11.746  14.797
64630W        W24375  12.655  29.094  12.554
64631W        W24376   8.279   1.810   0.938
64632W        W24377  11.188   5.838   2.413
64633W        W24378  12.818  38.059   3.273
64634W        W24379  16.797   0.416   3.638
64635W        W24380   8.844   7.404  13.982
64636W        W24381  30.120  10.713   1.338
64637W        W24382  31.976  33.014  14.927
64638W        W24383  42.896   4.203  10.956
64639W        W24384  11.739  38.881  13.947
64640W        W24385  32.509  14.157   3.210
64641W        W24386  19.283   1.913   0.347
64642W        W24387   9.149   4.920  14.291
64643W        W24388  33.060  33.468  13.546
64644W        W24389  10.219   7.746  10.040
64645W        W24390  44.442  24.162   1.823
64646W        W24391  43.845  15.618  11.998
64647W        W24392   1.907   0.307   0.882
64648W        W24393   0.287  20.705  11.375
64649W        W24394  21.211  43.469   0.734
64650W        W24395  30.617  14.593  12.362
64651W        W24396   7.344   6.209   4.352
64652W        W24397  23.590  14.322   0.424
64653W        W24398  36.891  25.080   3.728
64654W        W24399  12.297  43.274   4.315
64655W        W24400  29.034  32.497  10.000
64656W        W24401  44.979   1.933   5.188
64657W        W24402  29.154  10.162   3.633
64658W        W24403  35.983  36.499   3.708
64659W        W24404  38.959  36.417  14.462
64660W        W24405  14.117  23.169   4.254
64661W        W24406  24.629   1.432   9.563
64662W        W24407  17.295  30.476   5.191
64663W        W24408   5.902  37.555  13.992
64664W        W24409   1.325   8.861   2.684
64665W        W24410  32.045  35.409  14.920
64666W        W24411  34.954  39.419   4.821
64667W        W24412  39.025  42.864   0.928
64668W        W24413  26.044   6.237  14.322
64669W        W24414  26.992  44.454  14.955
64670W        W24415  40.876  33.518  12.909
64671W        W24416  35.441   8.204   1.906
64672W        W24417  35.603  26.587  14.885
64673W        W24418  29.051  31.132  14.499
64674W        W24419  24.173  44.388   2.809
64675W        W24420  13.842  13.811   3.237
64676W        W24421   4.359  43.021   4.312
64677W        W24422  43.510  34.005   3.352
64678W        W24423  13.214  37.071  10.636
64679W        W24424  29.011  22.160  12.995
64680W        W24425  44.861  40.311   2.707
64681W        W24426  23.159  17.704   1.269
64682W        W24427   0.250  27.061   9.928
64683W        W24428  13.790   6.910  10.965
64684W        W24429   4.347  21.512   2.862
64685W        W24430  26.609   6.917   4.694
64686W        W24431  25.020  37.408   4.725
64687W        W24432  17.767  24.536   3.842
64688W        W24433   7.765  24.164  11.437
64689W        W24434   8.166  38.352  11.054
64690W        W24435   0.400  21.572   3.229
64691W        W24436  38.510  42.430   4.607
64692W        W24437  23.098   2.850  14.772
64693W        W24438   5.277  30.945  11.985
64694W        W24439  23.116  35.452  12.969
64695W        W24440   2.744  30.962  13.975
64696W        W24441  42.341   5.348   1.333
64697W        W24442  21.241  32.885  12.565
64698W        W24443  33.574  42.983  13.846
64699W        W24444  36.067  42.367   4.132
64700W        W24445  38.884  19.582  14.975
64701W        W24446  19.283  20.534   4.708
64702W        W24447  21.579  22.232  13.790
64703W        W24448   2.437  19.681  10.471
64704W        W24449   3.924  38.827   0.737
64705W        W24450  32.591   4.846   2.328
64706W        W24451  28.164  25.098   4.823
64707W        W24452  31.435  12.253   3.688
64708W        W24453  26.111   6.201  13.341
64709W        W24454  41.837  40.991  14.944
64710W        W24455  43.304  36.001   3.271
64711W        W24456  25.022  13.149   4.651
64712W        W24457  16.624  22.508   0.268
64713W        W24458  35.001  21.189  14.933
64714W        W24459  36.530  14.137  10.915
64715W        W24460  30.985  20.554   2.215
64716W        W24461   9.344  15.288   2.845
64717W        W24462  33.000  44.292  14.346
64718W        W24463  40.505   0.454   3.383
64719W        W24464   0.807   8.875   0.875
64720W        W24465   8.284  42.993   2.735
64721W        W24466  15.284  26.459   1.317
64722W        W24467  30.447  42.413  14.361
64723W        W24468  32.447  42.421   1.420
64724W        W24469  28.655  17.746  12.532
64725W        W24470  23.537   4.267   3.297
64726W        W24471  32.504  35.368  13.035
64727W        W24472  23.188   9.299   3.266
64728W        W24473  37.577  16.093  11.473
64729W        W24474  16.316  16.612  13.315
64730W        W24475  23.667  33.930  12.352
64731W        W24476  27.608   7.313  13.891
64732W        W24477  21.518   3.421   0.451
64733W        W24478   2.741  16.610   2.366
64734W        W24479  35.879  25.064  11.430
64735W        W24480  22.650  13.224   0.335
64736W        W24481   0.756  23.721  14.314
64737W        W24482  24.167  37.858   0.836
64738W        W24483   7.270   5.421   2.696
64739W        W24484  14.680  17.219   4.165
64740W        W24485  15.762   4.932  13.923
64741W        W24486  37.406  21.236  11.407
64742W        W24487  44.854   5.905  10.488
64743W        W24488  44.990  40.946  14.762
64744W        W24489   5.714  30.622   4.212
64745W        W24490  41.848  18.264   1.308
64746W        W24491  27.144   1.269   2.243
64747W        W24492  20.558   3.710   1.392
64748W        W24493  13.694  30.504  12.566
64749W        W24494  37.495  36.501   4.147
64750W        W24495  28.497  25.706   0.294
64751W        W24496  40.339  42.779  10.099
64752W        W24497  33.593  27.650  10.504
64753W        W24498  22.109  37.874  13.963
64754W        W24499   3.848  13.640  11.022
64755W        W24500  25.635  42.359   4.653
64756W        W24501  32.531   3.321   4.626
64757W        W24502  41.524  21.661   1.695
64758W        W24503   4.437   3.763   0.414
64759W        W24504  11.281  21.752   0.412
64760W        W24505  43.974   8.355  12.394
64761W        W24506  37.492   4.910  12.374
64762W        W24507  29.039  41.856  13.392
64763W        W24508  12.834  42.804   0.954
64764W        W24509   8.260  44.836  14.872
64765W        W24510  42.401  24.994  11.535
64766W        W24511  37.415   9.779  12.967
64767W        W24512  35.375  12.817  14.453
64768W        W24513  32.627  23.575   1.237
64769W        W24514  21.614  28.088  13.307
64770W        W24515  29.987  20.693  14.298
64771W        W24516  23.598  10.857  10.936
64772W        W24517  23.167  26.144   4.735
64773W        W24518  34.983  39.824   1.426
64774W        W24519   5.806  43.372  12.517
64775W        W24520  43.516  31.900   4.245
64776W        W24521   2.286  43.483  10.587
64777W        W24522  21.518  21.035  11.595
64778W        W24523  33.962   9.335  12.510
64779W        W24524  25.532  21.252  12.830
64780W        W24525  41.836  20.040  13.859
64781W        W24526   8.314  32.140  14.768
64782W        W24527  15.589  14.808   1.256
64783W        W24528  34.120  12.261  12.570
64784W        W24529  33.888  33.599  11.946
64785W        W24530  31.559  37.490   4.122
64786W        W24531  17.254   1.739   3.181
64787W        W24532  21.184   5.818   1.894
64788W        W24533   9.734  22.154   1.285
64789W        W24534  38.545   9.335   4.159
64790W        W24535   1.919  33.877  12.954
64791W        W24536  43.277  13.154  11.915
64792W        W24537  30.559  26.054  12.869
64793W        W24538  36.477  15.285  12.886
64794W        W24539  12.228  29.439  13.009
64795W        W24540  44.871  38.851  14.297
64796W        W24541  33.038  24.195  12.080
64797W        W24542  28.645  24.639  11.047
64798W        W24543  28.979  38.980   1.849
64799W        W24544  27.062  25.137   2.892
64800W        W24545   5.369   6.339   4.769
64801W        W24546  13.760   2.347   4.311
64802W        W24547  20.091  12.830   9.952
64803W        W24548  22.630  30.960   1.380
64804W        W24549  27.980  16.275   1.856
64805W        W24550  44.000  32.015   1.229
64806W        W24551   5.849  26.155   3.695
64807W        W24552  11.346  29.553  11.023
64808W        W24553  14.781   8.839   1.876
64809W        W24554  16.086  29.478   3.362
64810W        W24555  20.636  22.719  14.332
64811W        W24556   7.724  13.306  14.820
64812W        W24557  36.527   3.902  12.085
64813W        W24558   0.318  38.992  11.922
64814W        W24559   0.368  20.644  13.426
64815W        W24560  38.558  18.234   4.114
64816W        W24561   3.946  30.986   4.167
64817W        W24562  19.640  10.288  11.487
64818W        W24563  36.073  38.476   3.709
64819W        W24564  23.989  13.648   2.827
64820W        W24565   1.298  27.469   0.362
64821W        W24566   9.231  42.414  11.430
64822W        W24567  42.355  32.034   0.422
64823W        W24568   4.944   5.212   4.818
64824W        W24569  39.900  21.536  14.399
64825W        W24570  29.156   7.891  10.104
64826W        W24571  40.426  27.512  11.374
64827W        W24572  11.134  13.640  10.421
64828W        W24573  19.648  26.456  11.857
64829W        W24574   1.806  38.850  13.346
64830W        W24575  26.099  29.436   2.870
64831W        W24576  27.597  12.137  11.893
64832W        W24577  44.958  25.515   4.318
64833W        W24578  20.573  39.868   0.883
64834W        W24579  13.666  42.867  10.958
64835W        W24580  17.774  38.859   1.912
64836W        W24581  41.915  11.338  11.371
64837W        W24582  16.765  12.640  10.624
64838W        W24583  25.188   7.728  10.451
64839W        W24584  41.020  43.819   2.322
64840W        W24585  17.583   5.413  11.389
64841W        W24586   9.222  21.047  12.342
64842W        W24587  36.025  44.482  12.382
64843W        W24588  26.113  15.779  14.413
64844W        W24589  36.390  25.167   4.644
64845W        W24590  28.614  41.028   1.783
64846W        W24591  41.440  20.091   0.267
64847W        W24592  37.940  37.023  14.882
64848W        W24593  20.675  18.069   0.445
64849W        W24594  35.032   5.423  12.966
64850W        W24595  22.707  34.971   3.813
64851W        W24596  13.827  13.739  12.425
64852W        W24597  12.849  33.555  13.015
64853W        W24598  27.496  11.337  10.443
64854W        W24599   2.754  37.073  11.101
64855W        W24600  26.989  36.968   4.338
64856W        W24601  16.661  39.412  12.393
64857W        W24602  25.210  20.192  12.900
64858W        W24603  43.831   8.248   4.131
64859W        W24604  19.537  15.176   4.268
64860W        W24605  43.827  21.158  13.426
64861W        W24606  17.216   7.682  13.885
64862W        W24607  25.711  18.740  10.600
64863W        W24608  39.938  23.097  10.497
64864W        W24609  15.233  14.288   3.713
64865W        W24610  33.545  14.705   0.835
64866W        W24611  22.504  14.825   2.375
64867W        W24612   4.814  29.613   3.762
64868W        W24613  37.027  23.585   0.896
64869W        W24614  21.054  24.113   3.687
64870W        W24615  19.628  26.066   3.341
64871W        W24616   5.799  28.458   0.453
64872W        W24617  43.889  15.096   0.256
64873W        W24618  10.636  13.747   2.731
64874W        W24619  12.160  27.984  14.758
64875W        W24620  23.669  40.480  13.439
64876W        W24621   6.805   3.450  12.948
64877W        W24622  42.012  19.637   4.651
64878W        W24623  40.521  40.033  12.001
64879W        W24624  26.178   4.841   2.277
64880W        W24625  30.431  14.623   1.346
64881W        W24626  34.503   0.813   0.775
64882W        W24627  32.088  23.581   4.664
64883W        W24628  12.133  29.528   3.679
64884W        W24629  35.390  39.380   1.381
64885W        W24630  30.917  27.526  10.404
64886W        W24631  24.015  15.698  13.002
64887W        W24632  36.930  17.660   3.802
64888W        W24633   5.280  42.963  13.354
64889W        W24634  23.017  44.351   4.663
64890W        W24635  19.563  26.458   0.311
64891W        W24636   7.668   1.313  12.353
64892W        W24637   4.226  28.141   1.745
64893W        W24638  12.161   2.776  13.494
64894W        W24639  11.187  43.814   3.713
64895W        W24640  10.325   9.672   2.741
64896W        W24641  35.929  18.241  14.876
64897W        W24642  39.900  36.958   3.693
64898W        W24643  15.270  29.502   2.788
64899W        W24644  26.121  33.534   2.844
64900W        W24645  31.552  37.872  14.966
64901W        W24646  12.616  22.569   4.731
64902W        W24647  16.181  11.837   3.680
64903W        W24648   2.252  23.176  14.922
64904W        W24649  37.086   2.430   3.371
64905W        W24650   4.905  14.229  12.064
64906W        W24651  19.664  42.846   2.704
64907W        W24652  40.838  34.037   0.442
64908W        W24653  20.635  24.492   1.386
64909W        W24654  17.759  38.416  11.992
64910W        W24655  27.951  29.583  13.907
64911W        W24656   2.876  13.338   0.484
64912W        W24657   3.884  24.028   4.337
64913W        W24658  26.139  17.087   0.965
64914W        W24659   0.465  18.128  11.068
64915W        W24660  32.574  11.832   3.764
64916W        W24661  41.511  36.475  12.089
64917W        W24662  27.155  18.777  13.535
64918W        W24663  11.773   2.887   1.847
64919W        W24664   6.865  37.540   3.648
64920W        W24665  37.960  10.693   3.665
64921W        W24666  41.906  37.070  10.459
64922W        W24667  18.186  35.564   2.689
64923W        W24668  36.848  10.166   1.258
64924W        W24669  18.735  35.998  11.904
64925W        W24670  32.535  42.027  12.908
64926W        W24671  33.433   2.793   1.307
64927W        W24672  11.804  23.496   3.237
64928W        W24673  32.605  38.422  14.461
64929W        W24674  12.716  11.766   3.715
64930W        W24675  14.592   2.935   3.799
64931W        W24676  14.789  43.996   0.413
64932W        W24677   8.183  34.591   2.662
64933W        W24678  16.208   7.833  14.299
64934W        W24679  28.625   6.781  13.806
64935W        W24680  11.174  44.848  11.006
64936W        W24681  41.312  38.413  10.483
64937W        W24682  16.745  30.148  14.361
64938W        W24683  18.111   9.778   2.304
64939W        W24684  28.971   8.390   3.773
64940W        W24685   5.696  37.392   2.253
64941W        W24686   0.744   1.269   4.307
64942W        W24687  44.422  16.106   4.330
64943W        W24688   7.227   5.271   3.763
64944W        W24689   9.884  10.759   1.933
64945W        W24690  44.004  44.917   1.355
64946W        W24691  36.481  17.089  13.984
64947W        W24692  26.961  30.012   0.281
64948W        W24693  13.268  29.174  11.573
64949W        W24694  25.070  11.701  14.405
64950W        W24695  36.860  33.892  13.063
64951W        W24696  39.053  19.680  11.980
64952W        W24697  18.743  40.036   4.217
64953W        W24698  20.138  44.441   4.750
64954W        W24699   0.831   6.705   4.248
64955W        W24700  31.463  20.621   0.782
64956W        W24701  42.331   8.302   2.892
64957W        W24702  23.519   0.262  10.534
64958W        W24703  35.937  25.592   4.730
64959W        W24704  29.919   3.767   2.354
64960W        W24705   2.937   6.338   2.242
64961W        W24706  32.581  18.177   2.408
64962W        W24707  15.684   1.927  10.055
64963W        W24708  10.190  44.294  13.801
64964W        W24709   7.211  12.311   3.689
64965W        W24710  31.501  31.043   4.828
64966W        W24711  36.459  36.528   4.820
64967W        W24712   2.294  44.952  13.336
64968W        W24713  32.532  15.675   1.800
64969W        W24714  33.612   2.471   1.256
64970W        W24715  35.395  25.471   0.855
64971W        W24716  26.188  33.438   1.430
64972W        W24717   6.320  19.059  12.526
64973W        W24718   9.709  34.908  12.449
64974W        W24719  29.985   7.382  11.004
64975W        W24720  31.917  28.515  14.786
64976W        W24721  31.633  35.959  14.987
64977W        W24722  42.370  31.926  14.469
64978W        W24723  41.370  29.444  14.300
64979W        W24724  22.235  25.190   0.309
64980W        W24725  13.743  34.386   3.735
64981W        W24726  11.672  36.374   2.286
64982W        W24727  13.620  33.473  11.959
64983W        W24728   6.905   6.272   4.823
64984W        W24729  26.959  38.489   1.926
64985W        W24730  16.632  34.882   5.155
64986W        W24731  29.012  16.301   2.267
64987W        W24732  11.682  34.496   2.363
64988W        W24733  31.095  28.620  13.965
64989W        W24734  34.875  35.896  11.067
64990W        W24735  40.961   8.171  14.979
64991W        W24736  40.498  19.206   1.314
64992W        W24737  17.779  21.046   0.467
64993W        W24738  33.481  38.534  11.930
64994W        W24739  39.434  35.583   2.875
64995W        W24740  24.698  16.634  10.997
64996W        W24741   9.328   3.796  13.017
64997W        W24742  28.597  19.670  11.509
64998W        W24743   3.789  10.170  10.507
64999W        W24744  41.042   5.393  12.942
65000W        W24745   7.834  33.974  12.962
65001W        W24746   5.710   8.794   4.738
65002W        W24747  37.830  33.463   0.391
65003W        W24748   6.349  40.533   0.420
65004W        W24749  12.210   1.771  10.496
65005W        W24750   1.433   8.791   0.827
65006W        W24751   3.377   7.333   0.898
65007W        W24752  21.120  36.949   3.722
65008W        W24753  39.963  38.921   0.920
65009W        W24754  35.411  29.985  12.377
65010W        W24755  21.659   4.704   3.772
65011W        W24756   7.258  32.898   3.212
65012W        W24757  17.757   9.232  14.341
65013W        W24758  27.612  24.091  13.057
65014W        W24759  22.699  27.574   0.820
65015W        W24760  18.093  32.455   4.244
65016W        W24761  37.523  38.831   1.262
65017W        W24762  17.223  30.964  14.990
65018W        W24763  23.047  14.791  11.552
65019W        W24764   2.788  16.259   3.753
65020W        W24765   1.777  29.032   3.200
65021W        W24766  38.518  29.055   3.229
65022W        W24767  26.474   5.930  10.092
65023W        W24768  22.645  12.634  10.562
65024W        W24769  21.712   0.836   5.741
65025W        W24770  38.051  23.003   3.794
65026W        W24771  20.159  12.812   1.324
65027W        W24772   7.370  23.614   2.858
65028W        W24773  39.323  35.865  14.413
65029W        W24774  30.038   2.795  12.425
65030W        W24775  11.268  41.530  14.915
65031W        W24776  37.514  38.473   4.732
65032W        W24777  37.567  26.956  14.365
65033W        W24778   5.329  43.398  12.428
65034W        W24779  28.013  23.646   5.132
65035W        W24780  27.197  26.200  14.788
65036W        W24781  34.532  22.519  11.103
65037W        W24782  24.193  28.098   0.909
65038W        W24783  38.953  14.185   2.675
65039W        W24784  44.010   1.905  10.419
65040W        W24785  37.406  33.423   2.884
65041W        W24786  33.422  39.382   2.788
65042W        W24787   3.427  14.675   2.382
65043W        W24788  43.380  27.650  12.433
65044W        W24789  44.807   6.286  10.992
65045W        W24790  20.173   1.844   3.348
65046W        W24791  29.070  21.167  11.558
65047W        W24792  10.757  44.874  12.462
65048W        W24793  27.669   6.768   4.163
65049W        W24794  28.490   9.887  13.952
65050W        W24795  24.208  34.083  12.495
65051W        W24796  17.125  39.895  10.133
65052W        W24797  32.580  29.982  14.860
65053W        W24798  19.220  35.036  10.457
65054W        W24799  41.798  38.473  14.867
65055W        W24800   8.228  42.406   1.348
65056W        W24801  32.494  29.104   3.147
65057W        W24802   1.243  44.846   2.849
65058W        W24803  33.949  44.829   3.670
65059W        W24804   9.694  25.077  13.502
65060W        W24805  43.817   5.276  11.085
65061W        W24806  17.254   3.350   2.400
65062W        W24807  40.352  39.449   0.814
65063W        W24808  44.282  16.578   0.729
65064W        W24809  37.971  40.806  13.013
65065W        W24810  32.425  22.026   0.413
65066W        W24811   0.784  39.017   4.673
65067W        W24812  28.464  40.924   3.357
65068W        W24813   2.749  30.474   3.659
65069W        W24814  18.172   2.769   0.361
65070W        W24815   9.189  38.476  11.914
65071W        W24816   5.432  24.594  14.478
65072W        W24817  18.654  26.967  13.801
65073W        W24818  31.563  42.479   4.781
65074W        W24819   3.784  33.460   5.145
65075W        W24820  15.612  29.622   0.929
65076W        W24821  22.198  32.486   2.198
65077W        W24822   7.899  13.773   4.309
65078W        W24823   7.689   7.253  10.938
65079W        W24824  32.090  36.079  13.922
65080W        W24825  19.210   7.752   2.675
65081W        W24826  24.064  35.022  14.901
65082W        W24827  23.671  39.490   3.698
65083W        W24828  15.577  26.143  13.900
65084W        W24829  43.302  31.079   0.396
65085W        W24830  43.337  28.660   2.244
65086W        W24831  44.817  14.253  13.376
65087W        W24832  18.638  41.840   0.303
65088W        W24833  34.539  32.016  13.547
65089W        W24834  41.021  42.918   3.334
65090W        W24835  13.317  44.267   3.649
65091W        W24836   7.270  35.584  12.866
65092W        W24837  14.267  33.505  14.495
65093W        W24838  27.661  39.011  12.506
65094W        W24839  30.631  42.916  12.561
65095W        W24840  40.471  26.572   1.727
65096W        W24841  15.126  12.195   1.747
65097W        W24842  44.454   0.917   5.197
65098W        W24843  15.133  35.482   2.330
65099W        W24844  15.699  37.467   2.706
65100W        W24845  22.182   0.748   4.693
65101W        W24846   7.224  34.472  13.400
65102W        W24847  43.978  19.200   3.342
65103W        W24848  40.900  44.914   1.369
65104W        W24849   4.797  24.097   2.815
65105W        W24850  37.515  19.129  11.476
65106W        W24851   6.345  39.042  14.904
65107W        W24852  11.182  21.207   2.797
65108W        W24853  43.456  44.984   1.882
65109W        W24854  17.750  36.510  14.396
65110W        W24855  33.939  13.812   0.441
65111W        W24856  34.476  32.044   4.690
65112W        W24857  30.034   8.668  11.060
65113W        W24858   0.397  42.505   4.690
65114W        W24859  28.010   3.721   4.182
65115W        W24860  10.645  15.325  10.526
65116W        W24861   3.324  13.141   0.272
65117W        W24862   5.705  10.762   1.438
65118W        W24863  44.419  30.147   0.808
65119W        W24864  15.622  31.056  10.989
65120W        W24865  30.635  24.572   3.254
65121W        W24866  12.680  30.964  13.319
65122W        W24867  42.981   7.356  13.427
65123W        W24868  15.241  15.286   3.174
65124W        W24869  27.562  16.307   0.861
65125W        W24870   0.826  26.589  14.432
65126W        W24871  35.486  17.723  11.043
65127W        W24872  41.918   8.333   0.393
65128W        W24873  25.183  30.922   1.355
65129W        W24874  18.743  21.707  12.076
65130W        W24875  37.978  29.972  11.389
65131W        W24876  23.219  30.022  14.912
65132W        W24877  36.520  23.068   1.237
65133W        W24878  13.161  25.025   4.275
65134W        W24879  18.668  11.248   0.305
65135W        W24880   6.245   2.403  10.015
65136W        W24881  38.006  36.544   0.861
65137W        W24882  33.031  34.514   1.869
65138W        W24883  30.132  43.312  13.525
65139W        W24884  32.517   1.830   5.273
65140W        W24885  13.666  13.819  11.435
65141W        W24886  44.491  12.625   1.807
65142W        W24887  42.940   4.829   0.314
65143W        W24888  21.177  27.497   0.294
65144W        W24889  38.037  31.612  11.055
65145W        W24890  37.578  35.361  13.436
65146W        W24891  24.653   3.910   0.364
65147W        W24892  15.323  33.487  13.484
65148W        W24893  15.761  37.514  14.344
65149W        W24894  28.135  18.179   3.240
65150W        W24895  15.619  30.033  14.764
65151W        W24896   4.871  32.402  13.453
65152W        W24897  28.462  12.357  14.347
65153W        W24898  36.999   1.920   4.671
65154W        W24899  30.079   8.896  14.973
65155W        W24900   2.878  24.521  11.884
65156W        W24901  10.348  31.568  13.342
65157W        W24902  18.632   8.684   2.819
65158W        W24903  11.193  12.769  11.079
65159W        W24904  20.176  30.974   4.160
65160W        W24905  15.717  12.689  13.063
65161W        W24906   1.800  25.675   0.816
65162W        W24907   6.789  10.781  13.932
65163W        W24908   5.194  24.553  13.006
65164W        W24909  31.972  26.581   0.291
65165W        W24910  36.457  40.433  13.803
65166W        W24911  31.463   6.735   9.630
65167W        W24912  39.037  27.016   2.257
65168W        W24913  18.164  32.044   0.734
65169W        W24914  11.851  24.606   3.246
65170W        W24915  41.884  12.811  12.913
65171W        W24916  15.600  31.084  13.983
65172W        W24917  17.306  17.656   1.255
65173W        W24918  29.473  18.150   4.195
65174W        W24919  20.588  44.416  12.874
65175W        W24920  23.644   4.258   1.368
65176W        W24921  43.810  18.725   1.871
65177W        W24922   3.915  17.663   9.959
65178W        W24923  11.679  32.019  11.520
65179W        W24924  41.413  25.962  10.550
65180W        W24925  39.016  39.375   4.313
65181W        W24926  11.231  12.856   3.709
65182W        W24927   0.419  35.374  14.961
65183W        W24928   9.862  19.284  13.518
65184W        W24929  43.764  25.207   0.364
65185W        W24930  27.691  25.697  14.892
65186W        W24931  25.111  37.568   1.813
65187W        W24932  29.047  35.031  12.971
65188W        W24933  12.164  14.789  12.457
65189W        W24934  40.413  36.087   0.474
65190W        W24935  29.126   9.320  10.609
65191W        W24936  16.302   9.387   3.799
65192W        W24937  27.091   7.213   1.379
65193W        W24938   3.235  35.081   0.941
65194W        W24939  38.869  30.972  13.925
65195W        W24940  42.344  29.965  13.445
65196W        W24941  36.593  36.848   4.628
65197W        W24942   2.282  22.015   4.613
65198W        W24943  35.586  18.259  12.570
65199W        W24944  22.171   7.387   3.265
65200W        W24945  19.773  26.171   3.675
65201W        W24946  42.461  32.404   3.686
65202W        W24947  17.614  22.596  11.895
65203W        W24948  19.172  24.642  10.533
65204W        W24949  34.949  11.643   3.219
65205W        W24950  40.901  38.560   2.891
65206W        W24951  42.004  34.073  11.937
65207W        W24952  35.879  37.430  11.432
65208W        W24953   5.286  24.016   0.432
65209W        W24954  31.601  21.712   3.163
65210W        W24955  29.924  23.691  12.385
65211W        W24956  42.789  24.487   4.143
65212W        W24957  32.901  33.520   1.387
65213W        W24958  29.059  36.461  14.813
65214W        W24959  39.556  12.161   1.856
65215W        W24960  22.034  21.187  12.522
65216W        W24961  24.492   4.269   9.578
65217W        W24962   9.846  35.587   3.337
65218W        W24963   1.796  29.097   1.760
65219W        W24964   1.463   4.914  11.480
65220W        W24965  12.691  29.593  10.494
65221W        W24966  24.612  25.053  11.434
65222W        W24967  43.402  14.637  14.347
65223W        W24968   4.381  36.575   3.215
65224W        W24969  41.437  15.224   2.199
65225W        W24970  38.362  23.089  12.065
65226W        W24971  39.058   2.458  12.936
65227W        W24972  10.679  20.704  14.419
65228W        W24973   9.393  40.946   4.782
65229W        W24974  39.471  17.790   1.705
65230W        W24975   7.680  19.050   3.314
65231W        W24976  44.995  23.030   2.329
65232W        W24977   6.777  25.120   0.257
65233W        W24978  35.559   4.745  13.437
65234W        W24979  32.518   8.253  11.461
65235W        W24980  43.489  26.571  11.092
65236W        W24981  10.152   4.281  12.540
65237W        W24982   0.419  34.099   5.180
65238W        W24983   8.326   7.867  12.922
65239W        W24984  42.877   2.390   4.287
65240W        W24985  13.677  38.570  13.331
65241W        W24986  33.965  13.140  14.474
65242W        W24987  20.131  35.044  10.529
65243W        W24988   0.763  35.882   3.231
65244W        W24989  25.714  19.230   1.291
65245W        W24990  42.926  13.683   4.232
65246W        W24991  32.065  28.109  13.547
65247W        W24992  38.399   5.853  11.613
65248W        W24993   8.694  24.187   3.348
65249W        W24994  42.421  24.713  12.524
65250W        W24995  27.110  18.210  12.084
65251W        W24996  44.356   1.953  13.350
65252W        W24997   2.451  15.321  10.573
65253W        W24998  26.085  37.959   1.723
65254W        W24999  33.457  31.461  14.823
65255W        W25000  27.555   9.388  13.799
65256W        W25001  16.801   7.898   2.685
65257W        W25002  44.008   9.683  14.398
65258W        W25003  32.447   4.851  12.427
65259W        W25004  31.558   8.747   2.888
65260W        W25005  18.676  15.266  11.929
65261W        W25006  24.600  17.661   4.714
65262W        W25007  31.121  28.170  11.950
65263W        W25008  24.173  12.328   0.449
65264W        W25009  33.584   8.782   0.874
65265W        W25010   7.736  13.744  14.502
65266W        W25011  22.207   4.347   1.730
65267W        W25012  10.251  17.189   2.277
65268W        W25013  44.009  13.207   0.772
65269W        W25014  23.150   6.921  10.531
65270W        W25015   1.240  29.067  12.832
65271W        W25016   9.826  27.557   3.727
65272W        W25017  19.158   4.766   0.474
65273W        W25018   8.317  20.662  12.830
65274W        W25019  31.585  30.469   0.330
65275W        W25020  37.367  11.808   1.276
65276W        W25021  30.097   2.808  13.332
65277W        W25022  19.258  40.901  12.531
65278W        W25023   1.929  26.144  11.423
65279W        W25024  15.668  35.100   1.384
65280W        W25025  13.619   2.800  10.550
65281W        W25026  36.400   0.773  12.358
65282W        W25027  12.163  21.150  13.312
65283W        W25028  18.129  32.922   3.266
65284W        W25029  44.966   3.936   3.673
65285W        W25030  27.011  34.095  13.840
65286W        W25031  42.842  34.897  12.001
65287W        W25032  16.154  17.694   4.724
65288W        W25033  13.339  15.196  11.044
65289W        W25034  26.699  43.334  12.341
65290W        W25035  31.907   0.278   4.192
65291W        W25036   7.256  34.515   3.213
65292W        W25037  17.784  37.453  13.061
65293W        W25038  14.181  37.842   1.862
65294W        W25039  40.034  23.174  13.377
65295W        W25040  43.855  27.485   1.373
65296W        W25041  29.486   5.759   3.252
65297W        W25042  14.764   3.798   2.308
65298W        W25043  42.009  13.327  11.944
65299W        W25044  28.641  33.951   3.673
65300W        W25045  19.159  37.395  11.888
65301W        W25046  24.621  38.387   4.147
65302W        W25047  33.982   3.377   0.905
65303W        W25048  41.365   3.812   4.272
65304W        W25049  19.557  32.066  14.319
65305W        W25050   7.718   7.292   1.766
65306W        W25051  40.373  18.254   2.860
65307W        W25052  27.476   3.736   0.943
65308W        W25053  20.127   9.852   2.354
65309W        W25054  28.185  35.458  12.052
65310W        W25055  18.263   0.983  10.940
65311W        W25056  26.470   4.920  14.336
65312W        W25057  11.250  28.612  14.932
65313W        W25058  29.984  37.502  12.416
65314W        W25059   8.818  44.278  14.381
65315W        W25060  43.020  36.004  13.438
65316W        W25061  11.358   3.752  13.442
65317W        W25062  42.031  23.528  11.888
65318W        W25063  11.724  37.454  12.910
65319W        W25064  21.102  31.954  13.385
65320W        W25065  40.357  42.359  10.530
65321W        W25066  34.117  36.039  12.361
65322W        W25067  39.868  40.513  11.885
65323W        W25068  19.597  44.323  12.531
65324W        W25069   7.359   9.682  14.429
65325W        W25070  36.929  19.593   0.782
65326W        W25071  35.380   1.273   3.783
65327W        W25072  41.943  20.551   0.336
65328W        W25073  27.634  27.645  14.800
65329W        W25074  28.145  41.294  11.119
65330W        W25075  39.324  11.256  11.547
65331W        W25076  42.339  27.020  13.812
65332W        W25077  25.631  12.618   1.235
65333W        W25078  26.090   5.707  13.520
65334W        W25079  41.811  10.252   3.866
65335W        W25080  11.247  35.903  10.605
65336W        W25081  17.682  32.560   1.788
65337W        W25082  21.245  16.138   0.254
65338W        W25083  24.559  31.048   2.744
65339W        W25084  44.291  18.690  10.411
65340W        W25085   9.768  12.233   1.913
65341W        W25086   5.290  37.910   4.821
65342W        W25087  11.824  38.472  11.007
65343W        W25088   4.886  29.544   4.313
65344W        W25089  24.546   3.445   9.594
65345W        W25090  13.259  14.309  10.071
65346W        W25091  14.288  40.452   4.644
65347W        W25092   3.894  41.939  14.408
65348W        W25093  13.155   0.379   2.777
65349W        W25094  20.206  27.487   3.384
65350W        W25095  43.772  41.423  12.547
65351W        W25096  23.728  27.659  11.427
65352W        W25097  21.721  32.956   2.400
65353W        W25098   5.817  21.617   0.409
65354W        W25099   9.788   5.431  14.786
65355W        W25100  17.757  20.215  14.448
65356W        W25101  41.379  13.132   0.946
65357W        W25102   4.280  35.029   3.635
65358W        W25103  44.408   6.688  14.844
65359W        W25104  26.991   9.280   4.788
65360W        W25105  37.524  23.217  13.989
65361W        W25106  41.482  44.914  14.776
65362W        W25107  23.162   9.328  13.322
65363W        W25108  13.703  15.270   3.710
65364W        W25109  42.806  12.269   3.193
65365W        W25110  14.700  17.629  10.506
65366W        W25111  32.543  24.048   3.819
65367W        W25112   5.918  32.055   0.853
65368W        W25113  15.112  33.438  12.069
65369W        W25114   3.220  42.427   3.286
65370W        W25115  15.819   4.923   0.329
65371W        W25116  28.558  17.132  12.044
65372W        W25117  34.421  33.923   0.890
65373W        W25118   1.318   4.299   2.192
65374W        W25119  12.230  14.174  14.308
65375W        W25120   6.856   7.325   1.698
65376W        W25121  19.628  39.376  12.409
65377W        W25122  35.379  44.271  14.463
65378W        W25123  22.040  20.161   4.719
65379W        W25124  43.895  17.650  12.048
65380W        W25125  42.925  42.303  11.937
65381W        W25126  19.727  35.416   0.302
65382W        W25127  28.137  26.531  13.982
65383W        W25128  41.335   0.924   3.238
65384W        W25129   3.303  26.601   3.732
65385W        W25130  29.470  35.892   1.860
65386W        W25131   2.837  17.073   0.915
65387W        W25132  17.663   5.224   4.615
65388W        W25133  10.794  33.460  14.811
65389W        W25134  18.118   1.347   4.276
65390W        W25135  28.477  17.739  12.964
65391W        W25136  25.211  27.595  11.537
65392W        W25137  16.143  35.486  12.341
65393W        W25138  33.038   8.161   2.365
65394W        W25139  36.977  41.027  13.937
65395W        W25140  18.269  38.457   3.258
65396W        W25141   2.860   2.407   0.324
65397W        W25142   9.216  24.552   0.846
65398W        W25143  28.478  23.191   0.387
65399W        W25144  18.681   9.648  12.537
65400W        W25145  33.956  38.886  14.974
65401W        W25146  43.270  20.752  12.341
65402W        W25147  38.492   3.825   3.794
65403W        W25148  14.134   4.364   0.328
65404W        W25149  19.764   9.177   0.340
65405W        W25150  26.660  27.176   2.242
65406W        W25151   8.849  10.361  12.545
65407W        W25152  38.853  36.857  11.071
65408W        W25153  35.947  16.739  11.521
65409W        W25154  29.484  15.815   3.692
65410W        W25155  11.636  27.180   0.958
65411W        W25156   4.284  34.977   3.345
65412W        W25157   9.351  27.972  12.988
65413W        W25158  23.648  23.000  12.021
65414W        W25159  30.024  22.518  13.930
65415W        W25160  44.770  32.925   3.323
65416W        W25161   7.807   2.834   3.208
65417W        W25162   1.474   3.733   3.824
65418W        W25163  34.401  31.544   2.780
65419W        W25164  30.646  17.288  11.048
65420W        W25165   8.330  29.585  12.066
65421W        W25166  13.745  34.878   5.317
65422W        W25167  36.043  25.150  14.406
65423W        W25168  21.079  20.525  12.569
65424W        W25169  20.701  33.974  13.877
65425W        W25170  38.551   6.364   0.483
65426W        W25171   4.845  42.330  11.928
65427W        W25172  15.182  26.057  11.032
65428W        W25173  17.181  41.991   4.178
65429W        W25174  15.818  35.083   2.225
65430W        W25175  39.457  33.003   3.197
65431W        W25176   6.744  42.503  13.832
65432W        W25177   7.818  20.237   1.271
65433W        W25178  38.527  20.675   4.609
65434W        W25179  22.556  12.646   5.281
65435W        W25180  43.909  39.028  12.961
65436W        W25181  19.167   9.650   0.826
65437W        W25182  42.369  15.780  10.491
65438W        W25183  35.395  15.624  14.950
65439W        W25184   3.275  25.205  13.521
65440W        W25185  32.106   1.801  13.480
65441W        W25186  44.299  25.178   1.318
65442W        W25187   3.824   1.822   1.393
65443W        W25188  32.034  34.911  14.426
65444W        W25189   9.338  26.661   3.337
65445W        W25190  41.432  32.636   0.425
65446W        W25191  12.282  25.998   4.768
65447W        W25192  18.726  21.251   1.446
65448W        W25193  15.677  37.363   1.410
65449W        W25194  36.591   9.716  11.444
65450W        W25195  43.850  36.448   1.849
65451W        W25196  26.107  21.542  10.899
65452W        W25197  12.694  44.336  10.021
65453W        W25198  20.695  36.846   4.242
65454W        W25199  41.442  24.104  12.550
65455W        W25200  44.266  24.098   4.122
65456W        W25201  27.537  11.683   4.800
65457W        W25202  29.957  22.150   4.778
65458W        W25203   8.782  24.513   4.194
65459W        W25204   8.381  20.671  11.495
65460W        W25205  28.633   4.306   1.302
65461W        W25206  18.203  31.517   4.343
65462W        W25207   8.682  18.621   3.260
65463W        W25208  41.514  39.508   4.319
65464W        W25209  44.398  22.108  14.461
65465W        W25210  40.980  41.830   2.367
65466W        W25211   1.468   6.749   3.829
65467W        W25212  25.678  42.808   5.227
65468W        W25213  10.732   8.759   2.837
65469W        W25214  28.497  12.771  12.529
65470W        W25215  33.048  18.128   3.756
65471W        W25216  36.576  32.952   3.775
65472W        W25217  32.899  44.775   1.450
65473W        W25218  32.058  44.485   0.329
65474W        W25219  11.336  19.151  14.768
65475W        W25220  13.803  38.984   0.831
65476W        W25221  36.504  12.775  10.451
65477W        W25222  22.747  28.523  13.470
65478W        W25223   8.288  41.452  10.987
65479W        W25224  12.141  11.191   3.855
65480W        W25225   8.192  25.204  13.819
65481W        W25226  23.002  23.187  13.476
65482W        W25227  38.442  27.006  11.911
65483W        W25228  18.129  44.263   1.916
65484W        W25229  14.194  30.005   4.155
65485W        W25230  27.611  40.522  14.887
65486W        W25231  37.363  21.111  13.460
65487W        W25232  33.955  12.685  14.972
65488W        W25233  14.619  12.654  13.842
65489W        W25234  28.005  24.990  14.289
65490W        W25235  43.432  43.355  12.442
65491W        W25236   2.939  24.588  14.493
65492W        W25237  37.522  39.908  12.358
65493W        W25238   6.792  21.169  14.498
65494W        W25239  35.477  10.715  11.490
65495W        W25240  32.123  18.633  13.916
65496W        W25241  44.416  37.039  12.059
65497W        W25242  23.223   0.980  13.530
65498W        W25243  25.098  35.493  11.875
65499W        W25244   9.855  41.473   3.286
65500W        W25245   5.771  19.131   4.654
65501W        W25246   5.235  44.899  10.888
65502W        W25247  43.937  28.129  14.305
65503W        W25248  18.161  25.157   2.750
65504W        W25249   8.747  18.205  10.420
65505W        W25250  14.686  24.082   4.244
65506W        W25251  21.552  42.015  11.402
65507W        W25252  25.665  31.042   0.861
65508W        W25253  30.476  20.065  14.799
65509W        W25254  38.072   2.257   2.407
65510W        W25255   7.382  14.684  10.503
65511W        W25256  29.985  17.104  14.370
65512W        W25257  14.734  34.421   0.845
65513W        W25258  13.727   6.721   1.410
65514W        W25259  35.988  39.438   3.776
65515W        W25260  17.559  23.533  13.055
65516W        W25261  36.551   1.351   3.800
65517W        W25262  13.607  25.711   0.261
65518W        W25263  37.544  10.679  13.503
65519W        W25264  20.527  24.207  11.610
65520W        W25265  10.698  24.568   2.325
65521W        W25266  44.454   4.319  10.986
65522W        W25267  17.722  29.523  14.387
65523W        W25268  24.010  27.485   0.878
65524W        W25269  42.343  26.128   0.824
65525W        W25270  18.734   6.837  12.491
65526W        W25271  41.802  44.480   3.739
65527W        W25272  43.867  16.263  11.009
65528W        W25273  43.414  19.209  14.970
65529W        W25274  27.658  36.861  10.492
65530W        W25275  17.609  32.890  12.410
65531W        W25276  30.079  40.857   0.806
65532W        W25277  31.131  12.185   0.857
65533W        W25278  21.081   3.868   1.411
65534W        W25279  14.816   2.250  12.007
65535W        W25280  42.959  39.504   3.243
65536W        W25281  42.840  37.842   2.686
65537W        W25282  16.078   0.938  12.953
65538W        W25283   1.917  43.018  10.965
65539W        W25284   0.757  10.750   0.444
65540W        W25285  36.080   1.850  14.489
65541W        W25286  16.708   4.926  13.325
65542W        W25287  13.620  28.996  12.019
65543W        W25288  38.943  39.000  11.436
65544W        W25289  35.910  33.041  10.990
65545W        W25290  18.764  42.835  10.536
65546W        W25291  15.274  11.645   3.820
65547W        W25292   7.886   6.293   0.367
65548W        W25293  27.182  28.597   1.784
65549W        W25294  33.941  14.127   2.846
65550W        W25295  18.225  38.858   1.429
65551W        W25296  29.950  34.986   2.206
65552W        W25297  30.423  11.163   2.858
65553W        W25298  24.230  11.127  12.462
65554W        W25299  18.679  26.539  11.085
65555W        W25300  44.390  21.685  13.835
65556W        W25301   3.927  21.091  10.964
65557W        W25302  13.313   3.396  13.923
65558W        W25303  31.066   0.843  12.891
65559W        W25304  19.602  12.223  10.556
65560W        W25305   3.810   9.277  10.478
65561W        W25306   0.431  35.498  14.384
65562W        W25307  12.765  21.737  12.374
65563W        W25308  32.028   6.863   4.199
65564W        W25309  12.788   6.814  11.565
65565W        W25310   1.938   9.261   2.862
65566W        W25311  27.982  39.318  14.828
65567W        W25312  18.644   3.395  11.058
65568W        W25313  10.846  31.511  11.423
65569W        W25314  33.076   8.876   3.644
65570W        W25315   2.760  21.580  11.396
65571W        W25316   6.283   3.435   3.689
65572W        W25317  17.775  43.437   1.765
65573W        W25318   3.381   8.171  11.383
65574W        W25319   3.296   7.254   3.849
65575W        W25320  30.911  29.512   9.627
65576W        W25321  44.498  43.379   2.794
65577W        W25322  15.624  31.627  10.960
65578W        W25323  10.316   5.791  14.459
65579W        W25324  11.289  16.623  11.019
65580W        W25325  30.593  22.665  12.061
65581W        W25326  25.219  16.594   4.323
65582W        W25327  36.030  41.792   3.166
65583W        W25328  23.676  35.994   1.822
65584W        W25329  24.539   5.399   3.775
65585W        W25330  41.339  35.012  10.951
65586W        W25331  30.640   2.922  11.907
65587W        W25332  20.147  17.106  13.532
65588W        W25333  16.108  20.588  13.509
65589W        W25334  24.611  18.181  10.940
65590W        W25335   2.849  21.134  11.028
65591W        W25336  40.423  39.459  13.442
65592W        W25337  35.442  41.453   2.849
65593W        W25338   3.747  28.594   3.279
65594W        W25339  16.156  14.146   0.831
65595W        W25340  43.300  36.027   2.826
65596W        W25341  31.479  29.929   1.326
65597W        W25342  17.181  13.222  13.889
65598W        W25343  42.969  30.426   2.729
65599W        W25344  36.068  19.750   2.262
65600W        W25345   6.279  39.423   4.222
65601W        W25346   6.392  19.615   1.711
65602W        W25347   0.409  33.447  12.455
65603W        W25348  21.219   4.786  14.916
65604W        W25349  17.231  31.005   3.339
65605W        W25350  32.018  26.662   5.159
65606W        W25351  19.651  16.148   0.794
65607W        W25352  10.194  41.386   1.737
65608W        W25353  19.722  20.714  11.420
65609W        W25354  43.276  24.148  11.452
65610W        W25355  34.413  13.765  12.051
65611W        W25356   4.287  21.569   0.917
65612W        W25357  22.652  21.660  11.086
65613W        W25358  31.602  15.802   3.834
65614W        W25359  44.461  31.042   1.859
65615W        W25360  43.486  26.099  13.047
65616W        W25361   4.212  22.031   4.836
65617W        W25362  13.712  44.826   0.857
65618W        W25363  13.333  19.745   3.841
65619W        W25364  28.495  21.650  14.409
65620W        W25365  24.170   7.329   3.345
65621W        W25366  38.339  20.631   3.320
65622W        W25367  16.077  31.418  14.481
65623W        W25368  35.376  31.055  13.054
65624W        W25369  23.076  27.685   3.180
65625W        W25370  11.133  30.443   1.849
65626W        W25371   7.841   1.852   4.180
65627W        W25372  41.898  21.236  12.913
65628W        W25373  21.208  23.168  10.631
65629W        W25374   9.149   8.692   4.710
65630W        W25375   4.310  36.385  13.968
65631W        W25376  15.583   0.771  11.424
65632W        W25377  24.633  22.664   2.761
65633W        W25378  15.740  15.599   4.176
65634W        W25379   6.344   3.856   1.219
65635W        W25380   2.828  39.440   3.378
65636W        W25381   9.649  33.076  13.029
65637W        W25382  15.148  34.389  14.339
65638W        W25383  42.991  10.725  12.059
65639W        W25384  34.033  30.082   4.783
65640W        W25385   3.358  38.457  11.059
65641W        W25386  42.414  36.514   2.187
65642W        W25387   0.309  22.658  14.327
65643W        W25388  26.978  10.779  14.948
65644W        W25389   7.817   4.829  10.423
65645W        W25390   2.735  38.338   4.835
65646W        W25391  36.038   1.788   1.891
65647W        W25392   6.355   5.739  11.577
65648W        W25393   8.848  30.470  11.007
65649W        W25394  44.297  26.553   0.430
65650W        W25395  11.671  20.596   2.873
65651W        W25396  12.122  16.736   1.336
65652W        W25397   4.289  32.593  14.505
65653W        W25398  33.473   2.364   4.113
65654W        W25399  13.123  23.494   4.706
65655W        W25400   9.732   3.303   9.993
65656W        W25401  34.583  15.723  12.961
65657W        W25402   6.722  28.091  13.428
65658W        W25403  18.699  26.625   1.325
65659W        W25404  10.741   4.842  11.595
65660W        W25405  26.124   9.887   0.299
65661W        W25406  38.957  43.933   1.895
65662W        W25407   5.277  25.156   0.483
65663W        W25408   8.759  34.559  12.447
65664W        W25409  40.508  31.004   0.332
65665W        W25410   8.817   3.857  13.047
65666W        W25411   1.293   9.694  11.902
65667W        W25412  20.626  33.573   4.225
65668W        W25413  15.699  20.266   5.165
65669W        W25414  42.781   0.462  11.048
65670W        W25415   0.358  24.064   2.290
65671W        W25416  20.599  34.391  11.883
65672W        W25417  27.595  43.299   1.712
65673W        W25418   1.349   2.920   3.772
65674W        W25419  38.401   3.939  11.508
65675W        W25420  43.782  42.984  11.947
65676W        W25421   4.445  31.939   9.989
65677W        W25422  14.647  23.714  12.543
65678W        W25423  40.449  24.012   4.165
65679W        W25424  38.567  27.498   1.890
65680W        W25425  16.600  12.291   1.875
65681W        W25426  38.430  12.758  13.334
65682W        W25427  10.349  20.217   3.164
65683W        W25428  24.156  11.674  12.578
65684W        W25429  13.823  42.869   0.372
65685W        W25430  42.904  11.690  14.808
65686W        W25431  12.769  18.058   4.314
65687W        W25432  27.474   2.441  10.980
65688W        W25433  23.027  12.778   0.862
65689W        W25434  37.966  17.738  10.537
65690W        W25435  40.437  13.775   2.727
65691W        W25436  24.006   1.357  14.425
65692W        W25437  32.486  31.121  13.793
65693W        W25438  29.012  33.472  14.280
65694W        W25439  23.581  25.125   1.448
65695W        W25440   8.164  34.411   1.374
65696W        W25441  14.310  37.410   0.940
65697W        W25442  42.962  10.686  13.356
65698W        W25443  24.580  20.137  11.066
65699W        W25444  37.924   1.352   0.801
65700W        W25445  13.315  31.113  14.956
65701W        W25446   5.419  38.939  11.870
65702W        W25447  39.443  21.221   3.746
65703W        W25448  24.045  20.199  13.912
65704W        W25449  21.659  14.287   1.890
65705W        W25450  30.988   6.882  10.027
65706W        W25451  37.540   0.983   1.810
65707W        W25452  15.305  44.428  11.001
65708W        W25453  39.862  18.781   1.257
65709W        W25454   5.773  16.582   0.353
65710W        W25455   3.320  16.203   1.353
65711W        W25456   0.265  44.424  11.006
65712W        W25457  29.058   4.244  13.982
65713W        W25458   9.184  41.930   3.357
65714W        W25459   1.820   7.752  14.986
65715W        W25460  44.311   6.204  11.519
65716W        W25461  35.097  17.618   3.762
65717W        W25462  40.432  37.003  11.410
65718W        W25463  21.555  19.075   0.759
65719W        W25464  27.070  37.548  14.362
65720W        W25465  34.120   5.371   2.272
65721W        W25466  34.891  37.025  14.913
65722W        W25467  21.073  39.550   2.312
65723W        W25468   7.819  27.108  11.930
65724W        W25469  18.608  24.990   1.734
65725W        W25470  40.512  23.049  14.803
65726W        W25471   2.297   3.460   3.236
65727W        W25472  29.518  26.956   2.672
65728W        W25473  15.587  27.578   3.252
65729W        W25474   8.203  25.074   4.308
65730W        W25475  21.516  10.218   3.355
65731W        W25476  38.847  22.678  13.905
65732W        W25477  41.034  28.933  11.406
65733W        W25478  23.672   5.312   0.837
65734W        W25479  42.974  25.588   0.868
65735W        W25480  17.647  23.107   0.728
65736W        W25481   1.470  18.256   0.367
65737W        W25482   9.167  29.524  11.608
65738W        W25483   8.398   5.704  11.406
65739W        W25484  14.607  16.616   1.288
65740W        W25485  43.901  33.915  12.401
65741W        W25486  11.299  17.282  11.578
65742W        W25487  10.841  28.604  12.927
65743W        W25488  39.958   9.352   0.942
65744W        W25489  14.334  13.749   3.198
65745W        W25490  43.464   5.796   3.780
65746W        W25491  23.538  26.618  14.854
65747W        W25492  42.401  12.360  12.016
65748W        W25493   2.906  42.511   1.893
65749W        W25494  40.489  24.015   4.698
65750W        W25495  20.236  36.483   3.325
65751W        W25496  20.711  42.938  10.437
65752W        W25497  12.302  24.215  10.629
65753W        W25498  12.686  27.952  14.806
65754W        W25499  18.624  25.219   2.216
65755W        W25500  14.726  40.889   0.828
65756W        W25501  35.494   9.299  13.902
65757W        W25502   2.266   2.446  10.965
65758W        W25503  34.949  19.104   5.161
65759W        W25504  28.024  43.329  10.640
65760W        W25505  24.217  12.802  11.975
65761W        W25506  16.613  20.177  11.420
65762W        W25507  30.013  11.795  13.401
65763W        W25508  28.028  19.551   0.411
65764W        W25509  40.924  26.104   4.730
65765W        W25510  32.931  22.084  10.117
65766W        W25511   5.695  44.290   2.304
65767W        W25512   1.448   1.753   1.388
65768W        W25513  39.391  37.842  11.533
65769W        W25514  16.240   8.753  11.908
65770W        W25515  27.104  20.755  10.630
65771W        W25516   1.965  24.047   4.774
65772W        W25517  35.407  39.032   2.418
65773W        W25518  43.015   7.734   2.344
65774W        W25519  28.490  25.093  11.452
65775W        W25520  28.966  18.257   5.196
65776W        W25521  31.551   8.281  12.470
65777W        W25522  32.965  39.837   2.792
65778W        W25523  15.098  27.669  11.915
65779W        W25524   4.327  28.981   0.920
65780W        W25525  14.759  36.446  13.900
65781W        W25526   6.312   6.780   0.962
65782W        W25527  32.005  38.865   3.314
65783W        W25528  24.582  33.615  12.975
65784W        W25529  40.882  43.307  13.842
65785W        W25530  19.545  34.380  13.519
65786W        W25531  34.550  11.747  13.030
65787W        W25532  38.829  23.235   0.353
65788W        W25533  27.139   7.693  10.503
65789W        W25534  12.687   3.243  12.913
65790W        W25535  16.135  15.241  11.931
65791W        W25536  22.545  21.142  13.993
65792W        W25537  36.021  24.642   3.762
65793W        W25538  42.390  17.578   4.714
65794W        W25539   5.752  14.599  11.474
65795W        W25540  37.901  31.898   0.397
65796W        W25541   9.238   3.293   1.775
65797W        W25542  13.131  26.535  12.988
65798W        W25543   1.282  38.427   1.743
65799W        W25544   5.815  37.835  13.466
65800W        W25545   7.345  25.554  14.005
65801W        W25546  30.964  43.927  11.514
65802W        W25547   2.246   0.883  13.872
65803W        W25548  10.854   6.358  11.576
65804W        W25549   6.329   6.700  10.560
65805W        W25550  28.444  26.614  13.533
65806W        W25551  16.624  13.698   2.346
65807W        W25552  40.825  15.602  12.540
65808W        W25553  18.280  40.817   4.248
65809W        W25554  41.883  44.990   1.247
65810W        W25555  43.513  25.497   1.929
65811W        W25556  19.583  38.541  10.405
65812W        W25557  28.556   1.888   0.403
65813W        W25558  14.720  40.823  14.880
65814W        W25559  36.547  43.864   1.824
65815W        W25560  37.907  17.136   2.244
65816W        W25561  22.014  16.280  12.915
65817W        W25562  23.090  19.534   3.174
65818W        W25563  15.191   6.295  12.985
65819W        W25564  25.021  25.189  10.528
65820W        W25565  29.536   0.866  14.805
65821W        W25566  11.763   0.926  13.803
65822W        W25567  16.305   6.781  12.092
65823W        W25568   4.807  36.562   3.361
65824W        W25569  42.374  10.717  13.402
65825W        W25570  44.402  18.282  12.506
65826W        W25571   2.252  10.632   4.227
65827W        W25572   1.807   7.848  13.895
65828W        W25573   4.288  17.221  13.313
65829W        W25574  27.666  17.177   0.937
65830W        W25575  43.001   2.839  13.452
65831W        W25576  39.043  21.688  14.994
65832W        W25577   8.231  29.621   1.339
65833W        W25578  24.153  24.131  11.858
65834W        W25579  11.712  31.632  14.467
65835W        W25580  38.338  17.669  13.037
65836W        W25581  23.072  34.990  14.370
65837W        W25582  42.455  24.675  14.494
65838W        W25583  23.999  35.494  11.986
65839W        W25584  10.760   5.231   1.289
65840W        W25585  22.069  30.105  14.291
65841W        W25586  27.011  41.996   2.770
65842W        W25587  35.450  31.963  10.517
65843W        W25588  14.183   8.668   1.351
65844W        W25589   6.760  34.049   0.791
65845W        W25590  41.398  33.438  13.037
65846W        W25591  22.185  33.621  13.478
65847W        W25592  16.777  43.828  11.106
65848W        W25593  22.601  14.179  13.418
65849W        W25594  21.623  22.728   1.290
65850W        W25595  16.159   0.385   3.776
65851W        W25596  35.437  16.771  11.499
65852W        W25597   5.337  34.867   1.252
65853W        W25598  22.629  30.489   9.954
65854W        W25599   0.968  34.401   3.298
65855W        W25600  21.667   4.275  10.587
65856W        W25601  30.518   2.930   5.261
65857W        W25602  31.572  33.416  11.090
65858W        W25603  14.742   2.733  14.969
65859W        W25604   7.736  12.717   1.935
65860W        W25605  13.681  42.404   3.667
65861W        W25606  14.109  32.513  10.077
65862W        W25607  20.710   8.287  10.455
65863W        W25608  44.956  32.479   4.287
65864W        W25609  39.497  25.038  10.967
65865W        W25610   6.779  16.221  13.957
65866W        W25611  31.086   5.193  13.835
65867W        W25612  43.319  22.162   1.380
65868W        W25613  26.485  24.155   1.445
65869W        W25614  23.561  16.573  14.818
65870W        W25615  24.221  35.935   0.294
65871W        W25616   4.733  28.105   4.318
65872W        W25617  36.528  43.779  11.471
65873W        W25618   4.766  30.152   2.205
65874W        W25619   0.876  26.668  14.786
65875W        W25620   3.722  22.728   3.158
65876W        W25621  17.236   8.249  13.791
65877W        W25622  39.542  19.695   2.178
65878W        W25623  22.717  28.178  14.944
65879W        W25624   2.740  19.280  14.990
65880W        W25625  23.543  18.548  14.944
65881W        W25626  30.150  14.829   0.372
65882W        W25627  25.991  12.360   0.333
65883W        W25628   9.755  36.388   3.632
65884W        W25629  26.559  18.209  14.455
65885W        W25630  30.941  40.943   2.855
65886W        W25631  12.738  10.191   2.194
65887W        W25632   3.784  43.781  12.857
65888W        W25633  19.212  43.404   1.315
65889W        W25634  13.738  36.893  14.302
65890W        W25635  38.505  19.179   2.413
65891W        W25636  24.131   9.261  11.869
65892W        W25637  15.740  19.139  14.496
65893W        W25638   3.828   5.714  13.489
65894W        W25639   0.270  32.432  13.528
65895W        W25640   9.353   8.295  12.001
65896W        W25641  28.175   0.256   2.849
65897W        W25642  25.504  10.811  12.004
65898W        W25643  29.568   1.285   1.724
65899W        W25644  28.544  35.032  13.525
65900W        W25645  15.757   7.256   4.689
65901W        W25646  21.048  42.879   5.133
65902W        W25647  25.204  37.087   2.903
65903W        W25648  15.754  15.103  12.544
65904W        W25649  42.852  16.688  14.475
65905W        W25650  10.825   3.369   3.355
65906W        W25651   6.813  31.008  13.826
65907W        W25652  12.314   3.774   4.598
65908W        W25653  12.196  15.648  11.026
65909W        W25654  41.999  29.660  14.509
65910W        W25655   8.709  22.520   3.871
65911W        W25656  29.956   3.837  12.558
65912W        W25657  30.438  28.000  10.519
65913W        W25658  14.262  40.993   3.840
65914W        W25659   0.367  20.552  10.406
65915W        W25660  30.097   7.332  12.401
65916W        W25661  33.121  43.351  13.497
65917W        W25662   3.945  27.181   1.366
65918W        W25663  26.531  31.015   0.833
65919W        W25664   8.396  35.362   2.341
65920W        W25665  36.075  44.483   1.378
65921W        W25666  23.522   3.905  14.998
65922W        W25667  34.948   9.262  10.920
65923W        W25668  27.106   7.320  12.871
65924W        W25669  38.507   7.717  13.999
65925W        W25670  42.475  37.417   2.858
65926W        W25671  40.303   4.885  11.598
65927W        W25672  40.547   6.397  12.076
65928W        W25673  12.137  12.667  14.764
65929W        W25674   4.917  11.314   1.215
65930W        W25675  43.016   3.826  11.060
65931W        W25676  34.095   7.261   2.798
65932W        W25677  18.637  17.202  10.025
65933W        W25678   5.694  38.484  13.838
65934W        W25679  33.977  10.184  13.339
65935W        W25680  30.973   7.732   4.798
65936W        W25681  18.131   3.399   1.890
65937W        W25682  39.376   2.835   3.709
65938W        W25683   3.401  40.874  14.431
65939W        W25684  41.791  20.634   0.939
65940W        W25685  34.473  34.921  14.862
65941W        W25686   0.351  10.293  13.946
65942W        W25687  37.858   1.419  14.325
65943W        W25688  22.174   9.690  11.856
65944W        W25689  17.648  40.964   2.721
65945W        W25690  41.449  25.106  11.514
65946W        W25691  12.243  29.060   0.356
65947W        W25692  44.835   0.426  11.579
65948W        W25693  11.854  36.993   1.777
65949W        W25694  26.684  12.118  12.031
65950W        W25695  13.708  22.136  10.455
65951W        W25696  43.425  19.140   0.792
65952W        W25697  35.601  21.551  13.426
65953W        W25698  17.621  36.348   5.210
65954W        W25699  40.863  23.170  11.399
65955W        W25700  23.110  34.997   1.780
65956W        W25701  26.092  30.949  13.037
65957W        W25702  11.170  32.391   1.289
65958W        W25703  12.811  43.782  12.504
65959W        W25704  43.870   0.341  13.853
65960W        W25705  16.697  35.853  13.807
65961W        W25706  35.881  28.636   0.865
65962W        W25707   8.274  34.947   3.151
65963W        W25708  35.358  12.692   3.249
65964W        W25709  29.961  43.785   3.322
65965W        W25710  24.098  41.931  12.064
65966W        W25711  15.157  30.115  14.815
65967W        W25712  22.550   7.888   1.861
65968W        W25713  36.969   8.717  11.403
65969W        W25714  41.869  19.127  12.054
65970W        W25715  25.015  26.000  12.858
65971W        W25716  19.707  31.516   1.767
65972W        W25717  20.066  21.244   1.241
65973W        W25718  44.333  42.915  14.427
65974W        W25719  28.965  15.120   4.139
65975W        W25720  24.985  10.778   4.328
65976W        W25721  43.870  27.521  11.942
65977W        W25722  18.596  29.640   4.820
65978W        W25723  39.476  30.025  10.524
65979W        W25724  23.532   7.903   3.294
65980W        W25725  21.051   6.882  14.937
65981W        W25726  41.792  38.973   3.673
65982W        W25727  15.645  16.110  12.836
65983W        W25728  43.378   5.726   4.720
65984W        W25729  31.145  17.300  13.060
65985W        W25730  41.955  31.465   2.356
65986W        W25731  34.062  30.430   0.386
65987W        W25732  44.480  18.262  13.819
65988W        W25733  40.540  37.025  12.875
65989W        W25734   8.381  44.414  13.796
65990W        W25735  26.951  37.933   0.466
65991W        W25736  17.186  27.126   2.183
65992W        W25737  18.215  16.077   3.218
65993W        W25738  12.170  27.671  13.527
65994W        W25739   2.753  25.042  11.514
65995W        W25740  42.876  27.606   3.692
65996W        W25741  10.337  10.343   5.136
65997W        W25742   9.784  35.527   1.807
65998W        W25743  31.996  44.368   1.244
65999W        W25744  21.593  42.823  11.068
66000W        W25745  43.977   4.214  11.586
66001W        W25746   3.434  25.051  10.462
66002W        W25747  13.643  33.956  10.473
66003W        W25748  19.732  41.360   4.307
66004W        W25749  14.124  19.582   3.666
66005W        W25750  26.075  30.448   2.756
66006W        W25751  40.319  32.114   3.258
66007W        W25752  39.391   2.241  11.111
66008W        W25753  10.701  11.809   4.149
66009W        W25754  44.766   2.795  14.445
66010W        W25755  39.833  40.834  13.404
66011W        W25756  13.608   9.708  12.911
66012W        W25757  10.205  40.418   1.333
66013W        W25758   2.723  39.817   1.700
66014W        W25759  28.033  38.545  13.821
66015W        W25760  15.739   6.778  14.481
66016W        W25761   7.778  42.945   5.164
66017W        W25762  20.537  43.009  12.358
66018W        W25763  23.553  26.204  11.996
66019W        W25764  31.613  11.234   0.390
66020W        W25765  39.512  13.817  13.939
66021W        W25766  20.214  26.990   3.260
66022W        W25767  22.560  15.747   4.654
66023W        W25768  34.065  16.202   1.379
66024W        W25769  12.662  28.101   2.782
66025W        W25770  24.514  34.084  10.043
66026W        W25771  44.860  44.262  11.532
66027W        W25772  20.629   6.694   1.824
66028W        W25773  44.333  19.050  12.990
66029W        W25774  17.561  20.170  10.514
66030W        W25775  27.559  31.919  14.392
66031W        W25776   5.909  11.866  14.278
66032W        W25777  32.592  16.586   0.932
66033W        W25778  15.594  43.840   4.625
66034W        W25779   1.336  39.900   5.163
66035W        W25780  15.813  29.016  11.025
66036W        W25781   7.241  15.621  13.838
66037W        W25782  30.964  18.608   0.339
66038W        W25783  41.349  15.093   4.614
66039W        W25784  41.850  16.757   1.701
66040W        W25785  18.181  21.081   0.804
66041W        W25786  13.765  29.093  11.070
66042W        W25787  19.244  10.685   0.386
66043W        W25788   7.779  11.210  12.861
66044W        W25789  37.908  21.018   4.822
66045W        W25790  41.936   3.251   0.944
66046W        W25791  16.317   9.735   4.629
66047W        W25792  26.030  16.596   3.765
66048W        W25793  19.082  29.078   4.638
66049W        W25794   7.712  30.105  13.379
66050W        W25795   9.809  23.682  14.286
66051W        W25796  20.073  17.077   0.951
66052W        W25797   1.276  31.015   2.745
66053W        W25798   3.762  21.105  11.574
66054W        W25799  37.869   5.696  13.407
66055W        W25800  31.416  27.143  13.484
66056W        W25801  39.370  43.823  12.854
66057W        W25802   0.868  27.172   3.843
66058W        W25803   6.712  32.997   0.253
66059W        W25804  36.432  16.729   4.230
66060W        W25805  14.151  40.883   2.852
66061W        W25806   7.875  33.073  10.986
66062W        W25807  36.413  41.388  12.465
66063W        W25808  20.221  36.404   2.714
66064W        W25809  31.534   8.805   4.128
66065W        W25810   3.859  35.377  14.873
66066W        W25811   7.677  10.246   0.398
66067W        W25812  11.647  44.401   2.259
66068W        W25813   8.797  12.282   3.309
66069W        W25814  38.385  18.076  13.840
66070W        W25815  37.012  25.218   2.347
66071W        W25816  15.584  22.118   1.347
66072W        W25817  24.087  36.582  10.587
66073W        W25818   9.693  12.637  12.088
66074W        W25819  20.192  43.384  13.925
66075W        W25820  28.011  18.594  10.901
66076W        W25821  37.519  33.910   4.659
66077W        W25822  40.808   1.290  13.441
66078W        W25823  40.337  27.689   1.229
66079W        W25824  10.358  31.989  13.998
66080W        W25825  18.624  44.968  10.925
66081W        W25826  12.159  38.861   4.713
66082W        W25827  41.348   9.794   1.362
66083W        W25828  42.381  23.169   4.153
66084W        W25829  32.546  19.704   2.857
66085W        W25830  28.966  44.876   1.405
66086W        W25831  13.125  21.149   2.233
66087W        W25832  24.510   9.205   4.336
66088W        W25833  29.659   6.317  10.426
66089W        W25834  13.791  42.286   4.305
66090W        W25835  29.455  22.542   5.214
66091W        W25836  28.941  29.973   4.707
66092W        W25837   0.358  40.972  11.897
66093W        W25838   0.281  36.373  10.597
66094W        W25839  14.176  37.359   3.231
66095W        W25840   7.361   1.428   1.374
66096W        W25841  38.019  26.083  12.050
66097W        W25842  24.583  31.931  11.858
66098W        W25843   9.661  20.185   3.656
66099W        W25844  31.938   9.168  13.448
66100W        W25845   3.831  23.195   1.336
66101W        W25846  31.481  15.283  12.498
66102W        W25847  31.131  37.012  12.568
66103W        W25848  23.678   9.248   1.772
66104W        W25849  15.170  34.513   4.605
66105W        W25850  23.022   3.914   4.255
66106W        W25851  43.296   7.758   0.937
66107W        W25852  37.407  22.069  11.905
66108W        W25853   9.791  18.547   1.226
66109W        W25854  16.648  31.090  12.444
66110W        W25855   7.731  44.853   3.840
66111W        W25856  44.826  41.424  13.456
66112W        W25857  40.012  39.363   0.383
66113W        W25858  35.110  37.487  14.376
66114W        W25859   0.318  17.631   5.217
66115W        W25860  13.700   8.301  10.428
66116W        W25861  28.114  32.109   3.182
66117W        W25862   2.349  29.125  12.449
66118W        W25863  32.596   0.843  13.984
66119W        W25864  16.574  10.657   4.204
66120W        W25865  41.925   8.699  11.980
66121W        W25866  14.159  22.130   4.612
66122W        W25867  11.205   1.915   3.193
66123W        W25868  42.803  33.074  10.976
66124W        W25869  26.486  28.996  12.976
66125W        W25870   6.743  19.114   4.293
66126W        W25871   2.953   7.330  11.592
66127W        W25872  35.507   7.746  13.545
66128W        W25873  19.659  30.435   3.229
66129W        W25874  37.537  18.616   3.775
66130W        W25875  36.485  19.153   2.199
66131W        W25876  26.484  20.643  10.431
66132W        W25877  13.716   8.338   1.732
66133W        W25878  12.151   7.178   2.769
66134W        W25879  15.118  43.288   3.644
66135W        W25880  14.099  35.374  12.531
66136W        W25881  21.635  25.486  10.935
66137W        W25882  12.816   3.795  14.844
66138W        W25883  39.434  43.986   0.837
66139W        W25884  42.856  28.174  11.514
66140W        W25885  12.126   5.221  12.094
66141W        W25886   4.732  23.729   3.286
66142W        W25887  25.984  30.453  11.922
66143W        W25888  11.761  38.880  10.957
66144W        W25889  19.601  20.250   0.474
66145W        W25890  44.308  17.267  13.509
66146W        W25891  35.416   6.746   3.682
66147W        W25892  36.095  38.941  13.890
66148W        W25893  36.081  36.390  10.593
66149W        W25894  43.808  25.553   3.656
66150W        W25895  40.433  11.825  13.361
66151W        W25896  21.065  16.687  14.922
66152W        W25897  32.914  30.160   0.732
66153W        W25898  31.117  44.810   0.808
66154W        W25899  40.441   2.456   0.335
66155W        W25900  38.854   2.864  11.104
66156W        W25901  38.557   3.350   0.259
66157W        W25902  25.981   6.798   4.305
66158W        W25903  12.226  36.062  14.926
66159W        W25904  17.277   5.369  14.864
66160W        W25905  43.346  28.972  14.910
66161W        W25906  28.437  18.574   3.773
66162W        W25907   1.254  24.699   1.443
66163W        W25908  40.975  38.381  11.983
66164W        W25909  22.090   2.795   1.934
66165W        W25910  18.763  19.778   1.333
66166W        W25911   4.270  13.718   4.150
66167W        W25912  13.269  35.104  14.769
66168W        W25913  39.406  19.270   4.232
66169W        W25914  15.260  18.201   2.755
66170W        W25915  23.165  33.570   1.764
66171W        W25916  29.106  25.709   3.755
66172W        W25917  19.253  24.088   3.320
66173W        W25918  40.324  11.645   0.299
66174W        W25919  24.496   2.869   1.362
66175W        W25920   2.450   3.223   3.658
66176W        W25921  15.258  10.334  12.525
66177W        W25922   4.401  15.208  13.361
66178W        W25923  40.995  18.671   3.235
66179W        W25924  41.416  19.242   2.768
66180W        W25925   8.162  27.477  14.012
66181W        W25926  33.608  10.349  13.479
66182W        W25927  43.769  27.954   2.808
66183W        W25928  11.198  27.134  11.957
66184W        W25929   1.746   4.857   0.411
66185W        W25930   3.441   8.701  11.858
66186W        W25931  25.604  22.739   3.355
66187W        W25932  13.599  33.537   3.214
66188W        W25933   4.934  42.971   2.188
66189W        W25934  20.265   1.461  12.869
66190W        W25935  29.116   4.280   2.670
66191W        W25936  17.226  36.061  10.620
66192W        W25937  36.467  18.641  11.864
66193W        W25938  14.225  34.483  14.792
66194W        W25939   2.330  40.941   0.476
66195W        W25940  13.171  18.284   5.122
66196W        W25941   1.267  32.096   3.710
66197W        W25942  28.038  27.567   3.860
66198W        W25943  35.934  29.041   3.280
66199W        W25944  33.621  40.953   2.234
66200W        W25945  13.237  41.864  14.276
66201W        W25946  17.070  36.954   1.921
66202W        W25947  43.515  30.049   2.671
66203W        W25948  12.648   9.185  10.905
66204W        W25949  35.596  18.696  14.290
66205W        W25950  38.496  38.837  12.993
66206W        W25951  18.761  19.056  11.111
66207W        W25952  22.054  33.939  14.455
66208W        W25953  36.506   8.203   2.766
66209W        W25954  21.657   2.874   1.913
66210W        W25955  25.484   6.348   0.381
66211W        W25956   2.784   8.873   0.414
66212W        W25957  43.819   7.815  11.875
66213W        W25958  37.967   3.278  10.498
66214W        W25959  43.994  28.968   1.451
66215W        W25960  11.229  20.625  13.316
66216W        W25961   1.803  44.870  13.534
66217W        W25962  40.865  16.752  11.873
66218W        W25963  29.052  35.989  13.406
66219W        W25964  38.860  28.069   0.877
66220W        W25965  43.971  28.485   2.882
66221W        W25966  21.032  11.187  12.426
66222W        W25967  37.486   5.749   1.864
66223W        W25968  23.144  33.508  14.025
66224W        W25969   3.456  43.943   0.305
66225W        W25970  41.440  37.452  14.375
66226W        W25971  10.322  36.883  11.451
66227W        W25972  28.532   3.286  11.095
66228W        W25973   3.925  42.927   0.770
66229W        W25974   9.167   7.863  11.502
66230W        W25975  26.129  29.475   3.763
66231W        W25976  42.418  16.310  12.441
66232W        W25977  26.128   2.266   2.771
66233W        W25978  11.754   6.798   0.351
66234W        W25979  30.982   6.862   0.923
66235W        W25980  29.515  31.076  13.404
66236W        W25981   6.888  42.373   1.218
66237W        W25982   8.181  36.374   2.406
66238W        W25983  19.127  40.017   4.647
66239W        W25984  35.433  20.092  14.984
66240W        W25985  41.385  31.914  14.967
66241W        W25986  30.042   5.417  12.471
66242W        W25987   4.363  13.190  10.414
66243W        W25988  43.331   4.296   2.367
66244W        W25989  23.548  43.318   2.835
66245W        W25990   6.864  40.382  11.942
66246W        W25991   8.900  38.959  14.458
66247W        W25992  35.964  10.318   5.093
66248W        W25993  23.214   7.856   2.259
66249W        W25994  33.526  22.709   4.319
66250W        W25995   2.748  14.184   1.773
66251W        W25996  15.165  43.334   0.457
66252W        W25997   5.924  30.502   0.860
66253W        W25998  27.960   8.794   0.363
66254W        W25999  21.022  14.606  12.047
66255W        W26000  24.059   8.387  12.989
66256W        W26001  16.243  10.819   4.789
66257W        W26002  21.657  42.867  14.801
66258W        W26003  14.332  34.114  13.963
66259W        W26004  23.095  31.496   2.200
66260W        W26005  43.952  23.005  11.379
66261W        W26006   9.784  38.990  10.608
66262W        W26007  28.615  37.846   1.347
66263W        W26008  40.963  16.639   2.379
66264W        W26009  23.099  37.875  13.522
66265W        W26010   2.388   5.832   0.433
66266W        W26011  14.791  27.034   1.745
66267W        W26012   5.402  32.526   4.838
66268W        W26013   8.788  37.057  12.088
66269W        W26014  24.992  20.059   2.780
66270W        W26015  23.086  13.666   0.283
66271W        W26016  44.948  39.375   3.281
66272W        W26017  25.070   8.364  14.811
66273W        W26018  35.107  26.208  13.873
66274W        W26019  10.866  34.058   0.750
66275W        W26020  12.845  14.747   1.303
66276W        W26021  15.703  14.096   1.401
66277W        W26022   0.458  21.669  13.453
66278W        W26023  30.449  26.660  12.340
66279W        W26024  27.116   8.279   4.276
66280W        W26025   1.309   2.917  14.424
66281W        W26026  14.707  44.880   2.205
66282W        W26027  34.538  23.172   1.243
66283W        W26028  37.910   8.181   1.714
66284W        W26029  18.111  12.750  10.640
66285W        W26030  14.619  44.908  14.494
66286W        W26031  29.595  37.879   4.823
66287W        W26032  18.084  42.800   3.807
66288W        W26033   0.437  10.324   2.871
66289W        W26034  19.697  16.098   2.272
66290W        W26035   0.321  41.304   1.853
66291W        W26036  30.493  31.460   1.881
66292W        W26037   8.331  27.563  14.455
66293W        W26038  28.531  35.479   1.436
66294W        W26039  29.159  29.496  12.069
66295W        W26040  25.071  20.706   2.201
66296W        W26041  29.047  20.226  12.475
66297W        W26042  24.993  31.585   1.300
66298W        W26043  38.360   7.678   1.406
66299W        W26044  21.259  36.951  11.932
66300W        W26045  10.691  42.881  13.996
66301W        W26046  29.047  39.877  11.935
66302W        W26047  10.741  17.068  10.406
66303W        W26048  21.178   2.411   3.201
66304W        W26049  19.235  26.501   3.692
66305W        W26050  29.508  17.265  12.921
66306W        W26051   4.920  30.153  13.835
66307W        W26052  17.727  10.379   2.841
66308W        W26053  38.076   1.837   0.807
66309W        W26054  37.540  14.330  11.596
66310W        W26055  21.183  22.585   0.371
66311W        W26056   6.770  38.379   2.674
66312W        W26057  39.465  15.618   4.269
66313W        W26058  25.208  22.542  11.085
66314W        W26059  25.605  35.600  12.357
66315W        W26060   4.702  22.106  13.997
66316W        W26061  27.962  29.452   2.735
66317W        W26062  38.900  34.376   3.216
66318W        W26063  35.469  27.075   1.282
66319W        W26064  27.029  26.203  11.584
66320W        W26065  21.134  36.869   1.841
66321W        W26066   8.890  36.510   2.210
66322W        W26067  21.229  12.619  13.499
66323W        W26068  23.638  24.037  13.951
66324W        W26069  27.974  34.863  12.524
66325W        W26070  39.887  29.147  13.388
66326W        W26071   9.812  39.011   0.799
66327W        W26072   5.256  34.024   0.851
66328W        W26073  20.116   7.684  10.415
66329W        W26074  37.398  33.482  10.534
66330W        W26075  42.805  20.193   3.725
66331W        W26076   2.364  42.359  10.614
66332W        W26077  12.664   5.879   1.262
66333W        W26078  42.787   7.799  14.361
66334W        W26079  32.429  42.497   2.288
66335W        W26080   7.385   9.766   3.686
66336W        W26081  44.781  32.409   1.727
66337W        W26082  23.084  18.181  12.528
66338W        W26083  41.473  29.628   4.166
66339W        W26084  30.054   4.207  12.992
66340W        W26085   8.813   8.293   3.346
66341W        W26086   4.794  40.029  13.512
66342W        W26087  13.748  31.085  14.005
66343W        W26088  37.533   3.712  14.012
66344W        W26089  43.401  39.037   1.412
66345W        W26090   7.830  25.090  13.949
66346W        W26091   6.844  11.151  12.392
66347W        W26092  42.480  25.710  13.059
66348W        W26093  28.976  12.313  11.110
66349W        W26094  27.191  16.194   5.083
66350W        W26095  36.504  13.302  13.478
66351W        W26096  44.498  33.532   4.317
66352W        W26097   1.940   9.783  14.897
66353W        W26098  24.007  32.065   4.182
66354W        W26099   8.270  18.782  12.958
66355W        W26100  14.236   7.326  14.275
66356W        W26101  28.451  34.971   3.719
66357W        W26102  27.483  37.954  10.977
66358W        W26103  14.628  44.395  11.560
66359W        W26104  10.292  28.438  11.414
66360W        W26105  23.618  23.601   1.756
66361W        W26106  40.488   2.960  12.024
66362W        W26107  23.706  17.214   1.714
66363W        W26108  34.373  39.031   3.758
66364W        W26109   8.866  24.128   0.427
66365W        W26110  41.895  17.087   0.954
66366W        W26111  35.097   0.278   0.732
66367W        W26112  13.792  30.658   1.417
66368W        W26113   2.415   3.302   1.796
66369W        W26114   0.860  13.123  13.825
66370W        W26115  37.858  19.159   3.193
66371W        W26116  11.681   5.919   4.336
66372W        W26117  12.823  23.561  11.961
66373W        W26118   5.294  11.744  10.421
66374W        W26119  39.535  34.390  10.972
66375W        W26120  34.429  44.896   3.638
66376W        W26121  35.443  12.345  10.448
66377W        W26122   7.824  36.887   4.762
66378W        W26123   3.773  35.468   1.852
66379W        W26124  15.677  15.205  13.482
66380W        W26125  27.546   0.942   1.754
66381W        W26126   3.866  32.467   4.330
66382W        W26127  25.212  18.599  14.772
66383W        W26128  32.604  11.250   1.921
66384W        W26129  11.716   8.346   0.944
66385W        W26130  27.167  38.339  12.990
66386W        W26131  40.356   9.846  12.024
66387W        W26132  32.958  28.545   3.239
66388W        W26133  30.431  33.990  13.366
66389W        W26134  11.347  15.250  13.486
66390W        W26135   7.808   7.257  12.564
66391W        W26136  13.190  39.831   4.319
66392W        W26137  16.212  34.896  12.345
66393W        W26138   5.914   0.255   2.397
66394W        W26139  20.065   6.688   2.709
66395W        W26140  12.791  15.221   2.199
66396W        W26141  16.122  29.125   1.812
66397W        W26142  11.266  21.217  10.039
66398W        W26143   8.858   4.790   1.417
66399W        W26144  33.919  13.795  12.031
66400W        W26145  26.987  39.010  11.558
66401W        W26146  15.292  22.996  11.970
66402W        W26147  17.789  39.345  12.929
66403W        W26148  30.507   0.365  13.840
66404W        W26149  22.547   1.734  12.980
66405W        W26150   4.316  15.246   1.433
66406W        W26151  26.160  21.192  14.992
66407W        W26152  15.812   5.839   2.403
66408W        W26153  23.211   5.859  12.984
66409W        W26154  22.627  32.971   1.778
66410W        W26155  28.077  36.859  14.914
66411W        W26156  13.166   7.173   3.189
66412W        W26157   4.755  14.708   1.294
66413W        W26158  25.630  18.123   1.212
66414W        W26159  31.487  31.547  11.909
66415W        W26160  27.137  43.383   2.789
66416W        W26161  28.463  15.230   3.776
66417W        W26162  33.931  43.277   2.667
66418W        W26163  28.539  32.128   2.194
66419W        W26164  21.205  36.020   2.186
66420W        W26165  25.086  35.926   1.373
66421W        W26166  41.465   7.893  14.806
66422W        W26167  38.536  42.430  14.480
66423W        W26168  38.467   2.454   3.213
66424W        W26169  20.746   0.793   4.640
66425W        W26170  13.133   4.216  10.578
66426W        W26171  24.642   5.416   2.850
66427W        W26172   3.290   8.750   1.239
66428W        W26173  40.032  41.019  11.985
66429W        W26174   7.397  17.130   4.171
66430W        W26175  24.156  17.259  14.853
66431W        W26176  14.806  24.663  11.067
66432W        W26177  24.676  19.657  14.998
66433W        W26178  43.310  13.689  13.539
66434W        W26179  39.551  38.473  13.858
66435W        W26180  16.287  42.448   3.665
66436W        W26181  23.689  18.565  12.403
66437W        W26182  21.673  11.216  14.886
66438W        W26183   8.243  20.723   4.118
66439W        W26184  35.088  30.935  13.857
66440W        W26185   0.789  40.021  11.013
66441W        W26186  16.710   2.825  10.561
66442W        W26187   3.838  39.405   4.221
66443W        W26188  39.830   0.256  11.603
66444W        W26189  27.669  33.545  10.011
66445W        W26190  17.587  27.575  14.835
66446W        W26191  25.656  27.110   2.711
66447W        W26192  12.335  25.154   3.835
66448W        W26193  31.645   9.877  10.628
66449W        W26194  11.194  28.457   4.718
66450W        W26195  25.543  43.807   4.821
66451W        W26196  21.612  32.021  13.946
66452W        W26197   5.371  37.463  12.915
66453W        W26198  12.716   3.399   3.273
66454W        W26199   6.899   1.324   4.784
66455W        W26200  33.550  20.209  12.097
66456W        W26201  21.609  29.102  10.513
66457W        W26202  28.679   5.917   0.910
66458W        W26203  27.507   9.269   2.738
66459W        W26204  36.355  44.763  12.531
66460W        W26205  26.613  19.161   0.773
66461W        W26206  14.821   1.248   3.725
66462W        W26207  28.679  43.855   2.874
66463W        W26208  14.134   9.862  13.967
66464W        W26209  27.143   0.358  11.999
66465W        W26210  40.988  36.516  13.046
66466W        W26211  37.429  10.806   3.285
66467W        W26212  12.134  31.436   0.867
66468W        W26213  32.443  12.663  13.926
66469W        W26214  21.624  18.604  11.594
66470W        W26215  20.030   2.763  13.854
66471W        W26216  15.782   3.299   0.893
66472W        W26217  15.592   0.873   0.811
66473W        W26218   1.755  17.305   2.666
66474W        W26219  36.453  36.904  13.915
66475W        W26220  11.845  20.524  13.868
66476W        W26221  32.064  18.580  12.064
66477W        W26222  34.405  15.721   3.315
66478W        W26223   2.242  16.224   0.279
66479W        W26224   6.360  44.500  14.765
66480W        W26225  21.702  29.024   1.271
66481W        W26226   3.734   8.898   4.705
66482W        W26227  13.755  36.501  14.847
66483W        W26228  38.066  31.566  14.495
66484W        W26229  30.429  17.794  12.979
66485W        W26230  21.144  35.056  14.340
66486W        W26231  37.840  36.038  13.356
66487W        W26232   8.221   3.322   1.932
66488W        W26233   2.872  25.183  12.884
66489W        W26234  41.983  31.997  10.153
66490W        W26235  25.517  14.723   2.351
66491W        W26236  35.942   8.297  11.432
66492W        W26237  44.448  38.006  13.852
66493W        W26238  43.281  11.229   4.682
66494W        W26239  39.484  44.328  14.314
66495W        W26240  20.155  41.478  13.395
66496W        W26241  26.467  30.157   0.936
66497W        W26242  35.576   2.746   4.612
66498W        W26243   5.704  33.908   1.285
66499W        W26244   5.249  38.376  11.395
66500W        W26245  32.408  15.720  14.379
66501W        W26246  17.222  23.566   4.671
66502W        W26247  22.106  18.105   1.338
66503W        W26248  30.154  32.085  11.083
66504W        W26249  43.479  27.510  14.009
66505W        W26250  41.383  31.933   2.339
66506W        W26251   0.854  20.109  13.539
66507W        W26252  19.139   4.927   4.668
66508W        W26253  10.249  29.023  12.564
66509W        W26254   8.184   1.891  11.929
66510W        W26255  26.045  29.120   4.320
66511W        W26256  10.742  27.079  12.006
66512W        W26257  14.210  44.768  12.047
66513W        W26258   1.344  36.912  12.925
66514W        W26259   4.916  19.683  13.481
66515W        W26260   8.796  27.041   1.797
66516W        W26261   4.878  16.744  11.957
66517W        W26262  29.990   6.849  12.373
66518W        W26263  10.875  36.013   2.806
66519W        W26264  16.694  43.333  14.513
66520W        W26265  11.178   5.773  12.941
66521W        W26266  26.625   2.344  11.919
66522W        W26267   5.702  42.825  13.052
66523W        W26268  22.107  28.597   3.807
66524W        W26269  40.369  21.643  11.103
66525W        W26270  43.397  39.318  11.553
66526W        W26271   4.390  37.550   2.880
66527W        W26272   4.936  21.588   1.371
66528W        W26273  26.543  18.580   1.794
66529W        W26274   9.886  19.144   1.722
66530W        W26275   4.302  26.114   4.705
66531W        W26276  34.459  15.149  11.027
66532W        W26277  37.426  44.394   3.823
66533W        W26278  11.128  37.867  13.054
66534W        W26279  26.552  33.436   0.936
66535W        W26280  29.012  36.517  10.943
66536W        W26281  22.236  21.695  10.415
66537W        W26282  17.702  26.639  11.572
66538W        W26283  13.809  24.537   3.376
66539W        W26284  19.751   7.182   3.251
66540W        W26285  26.639  35.929   0.887
66541W        W26286  11.363  32.929  12.479
66542W        W26287  19.127  35.049   3.758
66543W        W26288  36.853  41.447  14.315
66544W        W26289   3.317  22.594  12.522
66545W        W26290  11.205  34.995   4.291
66546W        W26291   9.770  36.593   4.723
66547W        W26292  16.146  21.224   0.902
66548W        W26293   6.303  37.404   3.241
66549W        W26294  37.507  28.487   0.859
66550W        W26295  44.980  26.196   0.746
66551W        W26296  12.117  19.682  14.006
66552W        W26297  37.992   5.364  13.321
66553W        W26298   4.323  15.213   3.258
66554W        W26299  36.584  14.597   4.821
66555W        W26300  37.010  39.500   4.193
66556W        W26301   0.481  42.815  12.874
66557W        W26302  20.104  44.761   2.692
66558W        W26303  25.121  36.896  13.905
66559W        W26304  28.538  29.571   1.338
66560W        W26305  28.122  40.515   0.859
66561W        W26306  24.481  44.887   0.481
66562W        W26307  19.679  12.638  11.460
66563W        W26308  16.589  25.105  13.319
66564W        W26309   0.409  39.974   3.722
66565W        W26310  15.647   2.776   3.678
66566W        W26311  16.104  28.144   3.787
66567W        W26312  15.114   4.885   0.442
66568W        W26313   2.740  11.784   4.321
66569W        W26314  33.537  38.005  10.497
66570W        W26315   3.356  41.873  13.974
66571W        W26316  32.457   9.370   5.095
66572W        W26317   3.730  12.702  13.909
66573W        W26318  43.300   8.173   3.221
66574W        W26319  16.757   5.351   2.874
66575W        W26320  23.233  38.860  13.063
66576W        W26321  22.026  33.437   4.317
66577W        W26322  22.726  20.162  10.101
66578W        W26323  38.332  19.774   3.314
66579W        W26324  34.471  44.956  10.594
66580W        W26325  29.513   5.291  12.860
66581W        W26326  15.157   3.387   1.297
66582W        W26327   8.899  28.983   3.367
66583W        W26328  29.167   5.313  11.447
66584W        W26329   3.367  17.579   9.658
66585W        W26330  20.588  27.692   4.682
66586W        W26331  28.172   5.262   4.654
66587W        W26332  15.636  15.203   1.748
66588W        W26333  23.126  17.225  12.356
66589W        W26334  44.442  21.061   4.759
66590W        W26335  31.538   1.774   0.302
66591W        W26336  11.735  19.644   5.101
66592W        W26337  17.216  30.415  12.367
66593W        W26338  19.579  26.033  11.486
66594W        W26339  40.409   6.913  12.456
66595W        W26340   3.239  14.176   1.256
66596W        W26341  33.980  38.972   2.887
66597W        W26342  25.096   0.825   1.316
66598W        W26343  44.926  30.500  14.383
66599W        W26344   5.911  32.108   2.717
66600W        W26345   3.822  39.438  14.806
66601W        W26346  32.590  23.049   3.352
66602W        W26347  29.571  40.521   4.244
66603W        W26348  29.487   7.355  12.090
66604W        W26349   7.716  42.384  11.497
66605W        W26350   0.940  14.340  11.072
66606W        W26351  12.670  19.702   4.746
66607W        W26352  21.054   6.854  12.823
66608W        W26353  21.213   4.780   3.149
66609W        W26354  31.079  35.509   4.598
66610W        W26355  44.278  35.581   2.250
66611W        W26356  34.530  20.238  11.010
66612W        W26357  26.138  15.322  13.794
66613W        W26358  38.409  39.847  13.447
66614W        W26359  15.654   2.935   4.313
66615W        W26360  28.961  28.084   4.280
66616W        W26361  29.439  19.650  14.928
66617W        W26362  40.311   5.368   3.862
66618W        W26363  19.286   2.904   2.837
66619W        W26364   3.295  37.057  11.528
66620W        W26365  18.787   6.712  11.466
66621W        W26366   5.256  31.475   3.781
66622W        W26367  12.153  41.000  12.557
66623W        W26368  13.736  21.756   4.270
66624W        W26369   2.763   8.693  14.311
66625W        W26370  13.800  40.375  12.545
66626W        W26371  29.985  10.752   0.249
66627W        W26372  23.674   3.425  10.026
66628W        W26373  43.428  20.622   1.339
66629W        W26374  32.081  43.416  10.623
66630W        W26375   6.711  31.920  12.018
66631W        W26376  19.632  40.808  11.863
66632W        W26377  34.383  17.110  13.308
66633W        W26378  21.563  16.724  12.846
66634W        W26379  37.046  15.692  10.932
66635W        W26380  33.970  33.602  12.953
66636W        W26381  22.114  36.917  13.323
66637W        W26382  11.183  11.680  13.452
66638W        W26383  39.500  36.954   2.829
66639W        W26384  42.014  10.820  10.552
66640W        W26385  31.475  16.220  12.499
66641W        W26386   4.898  24.115  12.353
66642W        W26387  17.107  26.520   1.794
66643W        W26388  36.526  22.039  14.812
66644W        W26389  30.006  18.658   2.293
66645W        W26390  22.019  26.130   2.347
66646W        W26391  11.181   2.806   4.299
66647W        W26392  17.715  16.693  14.435
66648W        W26393  31.001  42.889  10.563
66649W        W26394  25.559  28.041  10.431
66650W        W26395  17.304  22.225   3.356
66651W        W26396  13.277  16.583   1.728
66652W        W26397  10.352  25.124   0.267
66653W        W26398   8.170  40.366   2.685
66654W        W26399   1.766   2.271  12.352
66655W        W26400  11.263  21.129  12.424
66656W        W26401  26.477  23.732   2.267
66657W        W26402   0.288  23.563  11.047
66658W        W26403  36.022  17.608   1.333
66659W        W26404  42.961  18.216  11.880
66660W        W26405  32.603  13.277  12.837
66661W        W26406  22.045  10.299  11.419
66662W        W26407   5.841  21.039  10.967
66663W        W26408  44.381  33.408  10.478
66664W        W26409  29.965  38.035   0.471
66665W        W26410  19.574  30.103   3.830
66666W        W26411  32.885  12.790   0.373
66667W        W26412   5.394  40.332  13.998
66668W        W26413  23.015   6.416   3.633
66669W        W26414  43.848  43.324  10.629
66670W        W26415  23.654  27.195   3.258
66671W        W26416  19.107   9.347  14.312
66672W        W26417  42.972  42.346  13.508
66673W        W26418  22.605  42.355  11.447
66674W        W26419  37.874  32.100   4.632
66675W        W26420  23.193  40.841  14.849
66676W        W26421   8.814   2.857   1.231
66677W        W26422  38.366  40.855  10.504
66678W        W26423  32.489  30.583   5.123
66679W        W26424  31.500  19.163   3.157
66680W        W26425  18.176  42.333  14.814
66681W        W26426  41.849   5.708  11.608
66682W        W26427  21.042  29.073   1.409
66683W        W26428  17.210  31.607   4.656
66684W        W26429  41.980  25.629  11.873
66685W        W26430  37.498  16.789   2.277
66686W        W26431  26.127   7.911  13.323
66687W        W26432  23.531  20.188  12.423
66688W        W26433   5.809   0.793   1.783
66689W        W26434   9.736   8.707  13.541
66690W        W26435   7.691  44.430   1.827
66691W        W26436   1.754   2.363   4.132
66692W        W26437   6.733  28.666   2.835
66693W        W26438  37.838  22.574   0.364
66694W        W26439  29.990  13.261   1.361
66695W        W26440  17.734  42.941   4.185
66696W        W26441  24.975  18.671   4.316
66697W        W26442   3.420  31.502  14.401
66698W        W26443  22.608  19.650  13.900
66699W        W26444   6.264   4.351  10.406
66700W        W26445   8.244  27.138   4.281
66701W        W26446  41.517   0.308  13.536
66702W        W26447  17.666  37.847  14.875
66703W        W26448  19.084  30.066   1.263
66704W        W26449  28.080   0.931  10.160
66705W        W26450  39.347  17.592   2.178
66706W        W26451  13.276  10.799  14.311
66707W        W26452   5.887   3.860   1.220
66708W        W26453  33.111   3.716   3.661
66709W        W26454  33.987  28.538  13.056
66710W        W26455  43.962   9.659   1.285
66711W        W26456  29.030  37.373  12.450
66712W        W26457  23.010  11.319  14.362
66713W        W26458  20.065  18.661  11.382
66714W        W26459   9.280  41.528  12.968
66715W        W26460  37.906  35.501   3.318
66716W        W26461   9.313  29.555   1.765
66717W        W26462  22.082  20.728   4.279
66718W        W26463   9.344  13.224  12.993
66719W        W26464  23.055   3.215   1.329
66720W        W26465  36.003  13.795   0.468
66721W        W26466   0.484  24.637   3.727
66722W        W26467  22.580  14.785   3.718
66723W        W26468  33.067  22.007  10.586
66724W        W26469  20.540  19.645  11.016
66725W        W26470  14.310  10.865   1.918
66726W        W26471  11.161  20.053   3.768
66727W        W26472  24.113   0.973   0.273
66728W        W26473  44.500  18.675   0.411
66729W        W26474   2.311  26.621   3.636
66730W        W26475   5.783  35.530  13.504
66731W        W26476  24.596  30.086  12.062
66732W        W26477   9.251  41.310   4.248
66733W        W26478   5.889  27.484  11.466
66734W        W26479  36.983  42.956   4.245
66735W        W26480  33.584   5.900  13.911
66736W        W26481  21.568  27.537  13.881
66737W        W26482   4.938  15.662   4.233
66738W        W26483  10.338  20.111  13.540
66739W        W26484  18.556   9.870  13.822
66740W        W26485  28.114  13.703  14.403
66741W        W26486  10.334  13.829  13.883
66742W        W26487  14.622  11.656  11.120
66743W        W26488   4.341  42.496  10.531
66744W        W26489  19.138  42.505  12.864
66745W        W26490  10.836  17.619  12.845
66746W        W26491   8.305   1.398   1.318
66747W        W26492  44.964  44.434  10.144
66748W        W26493  39.018  31.077  11.104
66749W        W26494  30.500  26.153   4.819
66750W        W26495  31.542   4.431   3.237
66751W        W26496   0.860   3.355   1.933
66752W        W26497   7.286  40.887   4.327
66753W        W26498  21.731  20.715  13.377
66754W        W26499  17.176  41.490  13.948
66755W        W26500  19.687  40.414   4.279
66756W        W26501  41.451   7.205   1.893
66757W        W26502  20.724  10.381  14.377
66758W        W26503  26.506  37.353   2.849
66759W        W26504   3.942  42.381   2.877
66760W        W26505  23.213  24.976   2.255
66761W        W26506  43.438  28.629   0.937
66762W        W26507  33.032  17.203   5.219
66763W        W26508  26.682  28.673  14.843
66764W        W26509  37.400  35.572   4.748
66765W        W26510  12.654  44.275   1.907
66766W        W26511   0.955  25.647   3.353
66767W        W26512   6.921   3.262   4.180
66768W        W26513   2.387  34.879  11.958
66769W        W26514  16.088  32.567   4.228
66770W        W26515  44.457   7.230  12.057
66771W        W26516  28.494   8.335   1.308
66772W        W26517  21.733   2.255  10.426
66773W        W26518  43.004  29.567   2.673
66774W        W26519  19.168  16.637   0.415
66775W        W26520   7.738  36.904   0.944
66776W        W26521  20.156  35.892   4.824
66777W        W26522  44.332  22.655   3.818
66778W        W26523  11.832  36.958   4.759
66779W        W26524  34.904  43.926  11.608
66780W        W26525  14.666  33.024   4.780
66781W        W26526  33.896  32.401   0.950
66782W        W26527  14.702  18.681   4.838
66783W        W26528  29.135  23.129  13.942
66784W        W26529  14.110  17.762  13.903
66785W        W26530  17.635  20.215  13.843
66786W        W26531  15.161  41.477  13.013
66787W        W26532  12.223  15.150  14.469
66788W        W26533  20.675  39.894  12.862
66789W        W26534  32.604  18.110   3.818
66790W        W26535  25.591  20.130   1.839
66791W        W26536   4.366  32.480   4.781
66792W        W26537  42.284  12.319   3.188
66793W        W26538  32.486  27.532   4.343
66794W        W26539   1.300  42.849   0.404
66795W        W26540  13.684  20.230  13.531
66796W        W26541  41.350  39.447  14.319
66797W        W26542  43.275  31.906  14.332
66798W        W26543   4.835  16.158  14.298
66799W        W26544  17.091  39.016   0.439
66800W        W26545  28.529  11.208  11.104
66801W        W26546  33.403   4.770  14.488
66802W        W26547  24.027  32.972   0.891
66803W        W26548  11.327  43.911   2.719
66804W        W26549  16.614  20.688   0.337
66805W        W26550  36.941  33.422  12.064
66806W        W26551  36.855  10.161  10.434
66807W        W26552  27.456  25.470   0.371
66808W        W26553  30.637  32.536  14.458
66809W        W26554  36.866  31.646   3.843
66810W        W26555  34.990  16.212   4.139
66811W        W26556  35.525  30.538   4.671
66812W        W26557  23.996   3.255   4.832
66813W        W26558  18.232  24.635  12.835
66814W        W26559  25.209   9.162   4.290
66815W        W26560  43.303  16.724  10.539
66816W        W26561   3.273  13.134  14.948
66817W        W26562   7.330   5.855  14.892
66818W        W26563  13.117  19.202   2.862
66819W        W26564  38.505  15.756  12.470
66820W        W26565  27.101  31.940   2.758
66821W        W26566  12.619  33.986   3.671
66822W        W26567  16.190  32.529   1.296
66823W        W26568  25.665   6.693  11.447
66824W        W26569  38.542   5.888   3.174
66825W        W26570   5.220  13.714   2.700
66826W        W26571  27.653  10.725   3.160
66827W        W26572  25.989  40.899   2.834
66828W        W26573   8.395  20.106   3.863
66829W        W26574  22.514   0.920  12.978
66830W        W26575  36.069  44.378  11.028
66831W        W26576   5.865  44.769   4.222
66832W        W26577  36.961  37.916  12.965
66833W        W26578  42.943  39.391   0.275
66834W        W26579  35.077  34.574  11.480
66835W        W26580  41.793  24.548  10.522
66836W        W26581   5.701  21.667  12.947
66837W        W26582   2.255  40.433   1.894
66838W        W26583  22.596  11.783   3.810
66839W        W26584  40.475  24.527  10.582
66840W        W26585  21.150   5.265  11.871
66841W        W26586   5.704   2.437  10.423
66842W        W26587  15.755  16.756  14.933
66843W        W26588   7.743  38.938  12.020
66844W        W26589  26.608  27.051  13.914
66845W        W26590  34.928  11.316  12.054
66846W        W26591  16.087  15.150  14.277
66847W        W26592   4.729  25.048  12.024
66848W        W26593   0.289   5.917   3.241
66849W        W26594  41.017  28.658   1.728
66850W        W26595  15.807  11.143   2.372
66851W        W26596  35.035   7.320  13.829
66852W        W26597   2.904  12.789   3.749
66853W        W26598  11.670  14.179  14.463
66854W        W26599  23.996  26.031  14.320
66855W        W26600  34.934  28.178   5.163
66856W        W26601  15.644  26.532  13.392
66857W        W26602  15.747  39.037   3.635
66858W        W26603  20.631  23.500   4.712
66859W        W26604  15.807  20.100   1.714
66860W        W26605   2.263  36.961  13.433
66861W        W26606   2.753   6.319  12.571
66862W        W26607  25.594   1.270  11.558
66863W        W26608  36.095  24.201   3.350
66864W        W26609  18.597  31.905  11.025
66865W        W26610  39.976  29.168   1.753
66866W        W26611  38.507  13.767  12.839
66867W        W26612  41.876  29.538  11.922
66868W        W26613   2.952  37.428  12.046
66869W        W26614   0.429  36.394  14.023
66870W        W26615  37.357  31.998   0.955
66871W        W26616  28.595   5.927   1.901
66872W        W26617  31.944  36.586   3.269
66873W        W26618  36.570  25.204   0.291
66874W        W26619  39.064   0.751   4.613
66875W        W26620   6.735  20.174  11.558
66876W        W26621   7.285  21.627   0.760
66877W        W26622   6.311  41.897   1.811
66878W        W26623   4.266  40.837   0.730
66879W        W26624  22.054   2.360   2.780
66880W        W26625  29.611  12.775  11.443
66881W        W26626   7.840   9.726  13.875
66882W        W26627   0.763   7.795   3.641
66883W        W26628  10.325  36.578   3.331
66884W        W26629  40.449  44.489   4.177
66885W        W26630  33.564   5.373   0.344
66886W        W26631   1.364   0.390  13.052
66887W        W26632   5.837  41.806   1.727
66888W        W26633  36.408  10.656   4.764
66889W        W26634  16.203  20.625  14.976
66890W        W26635  40.937  19.699   3.681
66891W        W26636  35.399  24.992  11.919
66892W        W26637  12.333  39.972  12.829
66893W        W26638  23.094  29.510   4.703
66894W        W26639   6.735  22.551   1.889
66895W        W26640  24.162  23.568   3.185
66896W        W26641   3.936  35.098   2.360
66897W        W26642   7.265   3.835  14.459
66898W        W26643  26.643  10.734   5.227
66899W        W26644  13.129  36.978   4.724
66900W        W26645  23.692  20.537   0.812
66901W        W26646  34.049  10.171   5.310
66902W        W26647  17.069   1.427   2.330
66903W        W26648  44.936  21.709   5.312
66904W        W26649  31.437   2.464   2.209
66905W        W26650  38.564  34.004   1.708
66906W        W26651  32.557  17.574  14.403
66907W        W26652  20.247  30.914  13.527
66908W        W26653   8.252   8.211   0.943
66909W        W26654  34.578   3.433  14.781
66910W        W26655  31.008  16.809   3.863
66911W        W26656  17.192   7.264  13.410
66912W        W26657  42.395  34.612   3.267
66913W        W26658  25.020  28.161   3.664
66914W        W26659  16.743  28.676  14.968
66915W        W26660   3.410   3.316   2.677
66916W        W26661  31.450   8.331  13.501
66917W        W26662  31.033  42.857  12.859
66918W        W26663   2.831  34.876  13.496
66919W        W26664  25.103  10.745  13.899
66920W        W26665  23.702  34.481  13.049
66921W        W26666   3.365  11.647   4.174
66922W        W26667  41.374  29.458  14.846
66923W        W26668   1.912  35.562  14.368
66924W        W26669   2.897  28.563  12.383
66925W        W26670  41.385  31.476  12.511
66926W        W26671  18.107  18.250   1.417
66927W        W26672   8.859   4.725   2.716
66928W        W26673  16.076  41.430  10.988
66929W        W26674  23.730   9.307  12.053
66930W        W26675  21.715   9.155  10.991
66931W        W26676  26.080  22.090  13.512
66932W        W26677  13.651  15.201   1.703
66933W        W26678  24.537  25.474  11.940
66934W        W26679  25.155  42.385  12.001
66935W        W26680  36.418   1.895  12.452
66936W        W26681  14.262  16.142   1.906
66937W        W26682  36.489  38.929   4.312
66938W        W26683  35.569  12.812   2.683
66939W        W26684  15.650   7.907   0.950
66940W        W26685  32.619  32.117  11.533
66941W        W26686  15.280   3.414   0.248
66942W        W26687   6.403   3.240  13.497
66943W        W26688  37.468  40.464  10.452
66944W        W26689   1.352  44.342  14.823
66945W        W26690  10.803   0.257   2.797
66946W        W26691   9.190  28.491   4.649
66947W        W26692  35.859  24.649   0.871
66948W        W26693  22.524  38.371   4.744
66949W        W26694  17.073  30.427  12.994
66950W        W26695  27.177  11.699   4.634
66951W        W26696  37.580  26.676  14.841
66952W        W26697  36.069  38.001   2.758
66953W        W26698  36.410   0.779   0.321
66954W        W26699  32.968  21.548   2.766
66955W        W26700  31.454  10.872  12.073
66956W        W26701   4.940  20.657   2.838
66957W        W26702  38.884  15.818  14.984
66958W        W26703  12.117  19.722   3.316
66959W        W26704  41.905  27.502   1.908
66960W        W26705   7.306   3.746  12.074
66961W        W26706   2.875   3.768  11.558
66962W        W26707   2.318  30.972  10.568
66963W        W26708  24.537  43.499   3.845
66964W        W26709  14.732  20.659   4.227
66965W        W26710  25.695  21.116  14.776
66966W        W26711  22.061  37.007  11.938
66967W        W26712  32.435   0.415   1.717
66968W        W26713  23.593  33.477   3.671
66969W        W26714  16.183  36.489   0.850
66970W        W26715   2.748  36.491   0.376
66971W        W26716  40.916  11.743  14.461
66972W        W26717  22.578  23.653   2.667
66973W        W26718   0.253   0.269   2.336
66974W        W26719  17.735   5.201  11.109
66975W        W26720  35.024  32.992  11.507
66976W        W26721  17.800  28.960   3.327
66977W        W26722  31.625  39.350   0.293
66978W        W26723  24.118   9.370   1.706
66979W        W26724  34.989  39.046   0.481
66980W        W26725  44.289   4.746  12.367
66981W        W26726   9.703  27.682  11.962
66982W        W26727   5.269  16.726   2.787
66983W        W26728  10.292  11.786  11.483
66984W        W26729  40.530  32.922   1.294
66985W        W26730  17.711  33.953  11.057
66986W        W26731  40.817  29.929  12.491
66987W        W26732  22.651  17.216  14.289
66988W        W26733   0.943  38.412  10.482
66989W        W26734   1.764  30.416   5.318
66990W        W26735  10.854  38.854  10.998
66991W        W26736   5.299  39.830  12.433
66992W        W26737  10.264   6.397  11.469
66993W        W26738  36.432  34.385   2.251
66994W        W26739   1.379  41.312   0.793
66995W        W26740  17.116  44.977   0.369
66996W        W26741  32.597  16.634  14.956
66997W        W26742  34.613  40.428  12.930
66998W        W26743   3.327   6.907   1.765
66999W        W26744  41.947   9.358  14.449
67000W        W26745  21.558  17.107  13.905
67001W        W26746  22.246  11.317  12.384
67002W        W26747  31.079  31.019   4.136
67003W        W26748  15.751  27.184  13.966
67004W        W26749   3.337  39.461  13.854
67005W        W26750   3.834  12.618   3.245
67006W        W26751  36.881  12.241   2.701
67007W        W26752  30.119  10.826  14.398
67008W        W26753   1.374  10.237  12.917
67009W        W26754   7.403  30.535  12.456
67010W        W26755  42.454  33.015   3.674
67011W        W26756  13.635  19.088  14.925
67012W        W26757  32.920   9.732  12.372
67013W        W26758  25.517  12.176   1.404
67014W        W26759  33.971  28.556  13.323
67015W        W26760  40.951  22.131   4.195
67016W        W26761  16.732  18.167  12.541
67017W        W26762  28.536  15.277  14.870
67018W        W26763  39.440   7.322  13.503
67019W        W26764  42.983   5.875   0.900
67020W        W26765  17.192  31.447   4.126
67021W        W26766  28.030  25.083  12.543
67022W        W26767  35.857  16.798   2.850
67023W        W26768  25.007  44.302   3.858
67024W        W26769  18.076  34.111   4.164
67025W        W26770   4.256   2.453   4.810
67026W        W26771   0.933  16.620  13.875
67027W        W26772  44.272  19.630  13.986
67028W        W26773   4.754  11.183  14.346
67029W        W26774  27.150   7.703   4.177
67030W        W26775  36.555  24.187   1.789
67031W        W26776  36.844   1.279   1.844
67032W        W26777  39.475  19.045  13.308
67033W        W26778  18.296   2.783   0.967
67034W        W26779  38.404  33.415  14.488
67035W        W26780   7.832  11.789  13.945
67036W        W26781   4.332  20.266   3.175
67037W        W26782  31.407  21.573   3.760
67038W        W26783  26.572   8.294  12.467
67039W        W26784  20.066  27.002   2.789
67040W        W26785  38.532  42.387  10.483
67041W        W26786   2.444  37.384  14.423
67042W        W26787  24.509  29.594  10.944
67043W        W26788  12.696  27.653   0.879
67044W        W26789  40.880  36.452   2.677
67045W        W26790  35.084  31.532  13.379
67046W        W26791  28.931  34.984   2.799
67047W        W26792  41.964   0.796   1.810
67048W        W26793  18.123   1.973  14.921
67049W        W26794   0.420  41.042   3.804
67050W        W26795  14.125   3.365   3.768
67051W        W26796  34.469  10.154  12.883
67052W        W26797   9.809  31.123  12.503
67053W        W26798   3.779   7.666  11.524
67054W        W26799  12.149  25.038   4.271
67055W        W26800  43.983   5.917   3.178
67056W        W26801   0.273   5.401   0.249
67057W        W26802  16.736  31.549   2.722
67058W        W26803  44.917  38.980  13.411
67059W        W26804  44.282  31.106   4.676
67060W        W26805  23.539  43.515   0.816
67061W        W26806  32.432  24.214  12.933
67062W        W26807  17.292  17.197  10.580
67063W        W26808  41.827  44.851  12.936
67064W        W26809  28.589  39.892   1.829
67065W        W26810  22.997  34.991   1.423
67066W        W26811  39.332   9.777  11.941
67067W        W26812  35.525   0.907   2.723
67068W        W26813  29.569  28.133  13.454
67069W        W26814  20.730  12.180  12.955
67070W        W26815  15.272  14.747  14.004
67071W        W26816   0.440  10.674   4.205
67072W        W26817  39.470  20.201  14.454
67073W        W26818  28.516  33.491   4.830
67074W        W26819  28.649  15.281   3.174
67075W        W26820  25.022  24.718   3.818
67076W        W26821  36.842   9.231  14.027
67077W        W26822  38.371  32.980   4.229
67078W        W26823  23.667  41.366  13.035
67079W        W26824  42.863  43.898  12.542
67080W        W26825  21.196   5.710   3.350
67081W        W26826  20.685   7.832   2.264
67082W        W26827  20.565   8.848   5.102
67083W        W26828   3.333  36.544  12.545
67084W        W26829  24.483  21.228   3.204
67085W        W26830  13.113  35.109  12.420
67086W        W26831   0.797  32.011   2.349
67087W        W26832  36.062  42.502  13.421
67088W        W26833  26.010  11.272  12.982
67089W        W26834  27.188  18.753   1.892
67090W        W26835  32.534  26.492   5.292
67091W        W26836  20.614   4.924   0.297
67092W        W26837  38.564  24.061   2.809
67093W        W26838  40.026   2.772  12.483
67094W        W26839  20.599  27.968  13.548
67095W        W26840   5.231  36.057   4.350
67096W        W26841  32.594  41.313  10.412
67097W        W26842  15.204   1.877   2.342
67098W        W26843  11.687   5.344   3.852
67099W        W26844  44.786   2.329  11.924
67100W        W26845  31.577  34.503   1.708
67101W        W26846  29.156  30.501  12.046
67102W        W26847  36.468   1.242   4.204
67103W        W26848  42.870  29.549   0.840
67104W        W26849  40.470  34.500   1.788
67105W        W26850  21.714  24.573  13.012
67106W        W26851  18.228  22.681   2.226
67107W        W26852  16.296   1.955   2.898
67108W        W26853  35.868  27.609  13.012
67109W        W26854  25.002   3.365  11.577
67110W        W26855  15.678  28.582   3.704
67111W        W26856  37.401  40.536   3.359
67112W        W26857  34.945   2.823   1.768
67113W        W26858  12.119   8.717   1.771
67114W        W26859  44.265  25.494  11.891
67115W        W26860  39.959  18.278   3.345
67116W        W26861  41.359  22.227   1.352
67117W        W26862   2.955  41.529   2.286
67118W        W26863  39.893  34.114  14.766
67119W        W26864  25.076  16.206   3.631
67120W        W26865   3.360  29.586   4.238
67121W        W26866   6.904   5.406   3.232
67122W        W26867   9.723  23.081  14.783
67123W        W26868   8.284   0.802   2.795
67124W        W26869  28.489   8.677   2.330
67125W        W26870  17.256  30.094   0.476
67126W        W26871   5.716  15.808   0.461
67127W        W26872  15.168  26.667  13.516
67128W        W26873  21.159  44.342   2.298
67129W        W26874  11.149  42.971  13.913
67130W        W26875   8.212  13.740  11.438
67131W        W26876  28.976  29.447   1.326
67132W        W26877   0.422  39.010   1.881
67133W        W26878   5.330  43.795  14.906
67134W        W26879  32.921  19.123   2.745
67135W        W26880  30.516   2.843   0.411
67136W        W26881  14.666   6.380  14.870
67137W        W26882  31.051  34.902   3.803
67138W        W26883  13.337  23.639  10.122
67139W        W26884  20.063  20.097   0.447
67140W        W26885  33.594  17.702   0.423
67141W        W26886  23.030   3.253  10.493
67142W        W26887  15.104   8.324  12.355
67143W        W26888  18.669  40.455   9.982
67144W        W26889  22.528  39.041  14.825
67145W        W26890  20.187  43.401   2.663
67146W        W26891  28.071  21.734  11.070
67147W        W26892  14.663  22.645   1.297
67148W        W26893  30.608  27.032   9.974
67149W        W26894  20.757  25.469   3.374
67150W        W26895  43.946  37.880   9.950
67151W        W26896  18.272  34.494  12.873
67152W        W26897  12.844   9.332  11.510
67153W        W26898   9.172   0.878  13.906
67154W        W26899  36.407   7.772   0.436
67155W        W26900  35.357  30.032   3.220
67156W        W26901  33.500  36.568  12.352
67157W        W26902  35.462   8.397  14.309
67158W        W26903  26.159  35.537   2.291
67159W        W26904   2.364  41.027  13.309
67160W        W26905  36.979  25.643   2.313
67161W        W26906  21.099  41.444  10.123
67162W        W26907  21.561  19.049  12.081
67163W        W26908  19.587  33.463  14.948
67164W        W26909   1.323  40.416   4.307
67165W        W26910  34.561  22.702   4.145
67166W        W26911  10.807  43.470  11.399
67167W        W26912  28.518  30.949   4.353
67168W        W26913   2.943  27.054   2.323
67169W        W26914   6.385  30.446   4.759
67170W        W26915  41.978   1.395   4.243
67171W        W26916  13.196  21.192   1.422
67172W        W26917  25.696  19.104  10.503
67173W        W26918  37.014  26.658   4.344
67174W        W26919  39.826   5.777   0.352
67175W        W26920   3.313  14.677   0.862
67176W        W26921  19.173   5.266   4.153
67177W        W26922  39.992  20.662   2.382
67178W        W26923  24.211   9.747   3.721
67179W        W26924  34.984  27.961   3.775
67180W        W26925  43.305  19.572  14.780
67181W        W26926  16.660  44.365  11.126
67182W        W26927  27.048   1.903  11.071
67183W        W26928   0.381  16.625  12.020
67184W        W26929  44.873  28.103   2.855
67185W        W26930  12.245   0.259   0.727
67186W        W26931  14.119  11.802   4.720
67187W        W26932  17.655   6.364  13.319
67188W        W26933  40.452  20.664   2.780
67189W        W26934  22.573   2.467  13.368
67190W        W26935  17.114  26.586   1.213
67191W        W26936  14.280  18.126  11.982
67192W        W26937   3.869  10.801   3.180
67193W        W26938   4.444  41.314   2.193
67194W        W26939  32.521  27.620   1.849
67195W        W26940  37.335  27.471   9.956
67196W        W26941  32.054   1.846  13.043
67197W        W26942  15.647   4.286   2.835
67198W        W26943  34.571   2.838  13.401
67199W        W26944  22.206  44.381  12.466
67200W        W26945  30.032  14.830   3.184
67201W        W26946  21.179  10.745  11.517
67202W        W26947  32.394  36.866  11.481
67203W        W26948   1.838  40.993  13.009
67204W        W26949  28.522   3.738  10.424
67205W        W26950  32.938   3.818   0.242
67206W        W26951  37.993  29.662  11.512
67207W        W26952  10.758  24.076  10.586
67208W        W26953  41.399   3.430  11.497
67209W        W26954   0.365  15.136  14.021
67210W        W26955  25.620  35.853   5.319
67211W        W26956  28.446  42.956   0.802
67212W        W26957   8.389  17.175  10.489
67213W        W26958  31.939  35.425   2.680
67214W        W26959   3.461  27.622   3.809
67215W        W26960  22.131  13.311  13.972
67216W        W26961   8.194   3.425  10.090
67217W        W26962  33.937   9.247  11.611
67218W        W26963  27.057   0.799   3.387
67219W        W26964  18.594  36.524   2.237
67220W        W26965   3.339  27.557   2.238
67221W        W26966  15.328  26.057  13.338
67222W        W26967  25.562  27.022  13.497
67223W        W26968  34.953  33.552  11.940
67224W        W26969  36.356  39.487   1.911
67225W        W26970  25.705  42.945  11.924
67226W        W26971  17.184  26.635   4.211
67227W        W26972  23.221  37.074   4.607
67228W        W26973  18.631  21.036  10.429
67229W        W26974  11.851  42.329  10.893
67230W        W26975  27.107  30.484   4.290
67231W        W26976   6.890  15.594  10.467
67232W        W26977  15.147  27.022   2.309
67233W        W26978   4.704  21.054  13.494
67234W        W26979  43.409  11.651  12.430
67235W        W26980  18.197   0.849   3.264
67236W        W26981  40.304   9.697   0.327
67237W        W26982  43.908  11.342   3.693
67238W        W26983  28.020  26.689  14.845
67239W        W26984  42.956  15.311  11.408
67240W        W26985   5.864   2.777   4.606
67241W        W26986  11.307  15.163   4.239
67242W        W26987  40.925  11.128   2.874
67243W        W26988   5.418  14.749  12.356
67244W        W26989  30.478  18.161   0.307
67245W        W26990  40.924  13.719   0.408
67246W        W26991   9.165  42.527  13.465
67247W        W26992   5.332  37.080  13.861
67248W        W26993  20.217  29.112   4.234
67249W        W26994  13.160  32.545  11.865
67250W        W26995  10.856  40.440  13.467
67251W        W26996  14.602  43.373   4.708
67252W        W26997  35.953  24.151   4.608
67253W        W26998  20.749  17.192   3.771
67254W        W26999  31.537  13.827   4.739
67255W        W27000  29.456  12.621   0.934
67256W        W27001  40.355  16.139  12.094
67257W        W27002  27.691  21.640   4.712
67258W        W27003   2.772  17.798   2.380
67259W        W27004  41.883   4.830  13.984
67260W        W27005   2.856  43.455  13.876
67261W        W27006  21.153   1.851  14.455
67262W        W27007   9.179  29.138   2.850
67263W        W27008  11.341  27.475   1.317
67264W        W27009  24.201  25.683   1.403
67265W        W27010  41.354  42.309   3.849
67266W        W27011  17.077   5.817   0.957
67267W        W27012  23.493  40.005  14.293
67268W        W27013  20.669  41.400  11.591
67269W        W27014   2.455  12.818   1.806
67270W        W27015  38.349  10.290   3.246
67271W        W27016   1.359   3.835  14.297
67272W        W27017  36.091  21.062   1.264
67273W        W27018  24.713  32.069   1.865
67274W        W27019   0.383  24.043   3.654
67275W        W27020  35.059  24.662   3.835
67276W        W27021  42.870  14.294  13.410
67277W        W27022  29.635  35.859   2.874
67278W        W27023  27.031  27.472  11.041
67279W        W27024  10.254  13.689  10.481
67280W        W27025  37.581  44.863   2.857
67281W        W27026  41.874   3.244  11.512
67282W        W27027  27.632  29.083  10.553
67283W        W27028  30.008  36.367  11.466
67284W        W27029   8.272  27.971  12.420
67285W        W27030  24.156  44.769  13.337
67286W        W27031  13.308  31.455  12.545
67287W        W27032  34.967  27.629   3.814
67288W        W27033  39.885  21.706   1.234
67289W        W27034  25.011   1.962  12.416
67290W        W27035   9.772  19.548   1.701
67291W        W27036  38.819  11.687   3.788
67292W        W27037  20.034  22.188  14.856
67293W        W27038  18.638  43.360   3.280
67294W        W27039  22.747  30.149   3.286
67295W        W27040  15.180  35.561  12.525
67296W        W27041  13.666  31.907  13.486
67297W        W27042   5.785  27.569   1.377
67298W        W27043  39.408   8.197   3.781
67299W        W27044  12.274  33.904   0.258
67300W        W27045  29.025  17.743   2.373
67301W        W27046   2.867  24.077  13.487
67302W        W27047  10.277  36.946  11.108
67303W        W27048   3.834  14.813  10.552
67304W        W27049  30.642  44.300  11.459
67305W        W27050  14.123  12.790   1.706
67306W        W27051  15.632  15.155  14.859
67307W        W27052  31.974  17.659   5.220
67308W        W27053  39.514  18.572   4.184
67309W        W27054  17.731  32.452   1.293
67310W        W27055  14.780  26.025  12.472
67311W        W27056  18.139  40.506  10.430
67312W        W27057  21.160   6.229   1.729
67313W        W27058  23.694   6.794  12.555
67314W        W27059   8.326  35.391   0.809
67315W        W27060  12.761  40.912  13.897
67316W        W27061  16.751  20.048   3.676
67317W        W27062  26.093  10.153   2.841
67318W        W27063   3.855  30.543   1.867
67319W        W27064  28.581  38.843   3.331
67320W        W27065  42.812  15.613   0.888
67321W        W27066  12.174  23.179   0.309
67322W        W27067   0.856  31.934   3.844
67323W        W27068  30.427  33.540   5.296
67324W        W27069  13.642  16.597  14.393
67325W        W27070   6.424  10.227  10.508
67326W        W27071  28.612  29.549  13.941
67327W        W27072  43.336  16.301   1.349
67328W        W27073  17.289  37.573   4.657
67329W        W27074  14.298   0.910   2.799
67330W        W27075  13.678  22.721  13.003
67331W        W27076  30.128  36.866   4.257
67332W        W27077  17.703  40.417   0.730
67333W        W27078  13.282  15.626  11.428
67334W        W27079   5.342  28.531  13.051
67335W        W27080  24.691   1.474  12.891
67336W        W27081  40.936  40.865   4.300
67337W        W27082  20.531   3.947   2.219
67338W        W27083  33.574  12.143   3.826
67339W        W27084  35.472  38.032   3.806
67340W        W27085  25.192  23.555   4.665
67341W        W27086  31.446  38.509   0.419
67342W        W27087  17.303  15.808   3.256
67343W        W27088  41.003  19.135   0.433
67344W        W27089  39.024  10.782   4.150
67345W        W27090   1.377   4.358  11.410
67346W        W27091  11.634   4.343   3.646
67347W        W27092  12.181  36.360  14.890
67348W        W27093   0.915  33.511   2.895
67349W        W27094  42.345  44.790   2.191
67350W        W27095  20.263  12.253   0.399
67351W        W27096  12.337  41.940   1.247
67352W        W27097  26.160  44.009   0.913
67353W        W27098  44.923   6.198   0.361
67354W        W27099  12.290  25.077  10.560
67355W        W27100  38.910  21.113  11.040
67356W        W27101  32.936   3.263  12.866
67357W        W27102   4.300  31.574   0.250
67358W        W27103  42.823  11.705   3.799
67359W        W27104   6.706  12.776   1.276
67360W        W27105  11.276  30.965   4.344
67361W        W27106   5.746  43.950  13.892
67362W        W27107  15.206   5.244   3.738
67363W        W27108   1.745  10.816   1.287
67364W        W27109  21.060  33.922   4.249
67365W        W27110  41.368  13.762   3.763
67366W        W27111  37.038  38.070  10.577
67367W        W27112  42.327  11.649   2.201
67368W        W27113  15.583  32.135   4.332
67369W        W27114  39.409  39.434  11.071
67370W        W27115  24.520   2.815   3.853
67371W        W27116  17.152  31.927  13.030
67372W        W27117  32.898  42.976   0.891
67373W        W27118  40.950  25.598  14.387
67374W        W27119  28.978  24.660   2.741
67375W        W27120  24.080  33.049   5.748
67376W        W27121  42.450  40.861   0.789
67377W        W27122  17.235  38.389   0.400
67378W        W27123  21.084  23.202  13.477
67379W        W27124  28.949  23.613   1.854
67380W        W27125   1.847  28.572   0.302
67381W        W27126  13.816  23.127  13.494
67382W        W27127  19.199   0.855  12.372
67383W        W27128  10.194   5.313   2.784
67384W        W27129  15.769   7.305  13.326
67385W        W27130  33.891  12.236   1.427
67386W        W27131   2.924  37.336   1.319
67387W        W27132   1.363  18.084  13.449
67388W        W27133  22.555   2.813  11.861
67389W        W27134  28.679  16.310   4.281
67390W        W27135   8.823   0.876   4.685
67391W        W27136  11.811  23.178  12.378
67392W        W27137  12.215  18.622   1.406
67393W        W27138   1.904  19.228  12.998
67394W        W27139  10.354   0.869   3.252
67395W        W27140  18.560  13.243  14.398
67396W        W27141  37.897  10.351   0.350
67397W        W27142  21.558  40.872  10.557
67398W        W27143   4.799   4.305   4.720
67399W        W27144   3.807  31.100  14.495
67400W        W27145  18.218  37.338  13.950
67401W        W27146  21.245  41.430   1.787
67402W        W27147  14.801  16.249  13.018
67403W        W27148   8.260  28.480   0.950
67404W        W27149   9.185  29.041  13.404
67405W        W27150  15.174  33.118  14.378
67406W        W27151  37.965  40.530  10.072
67407W        W27152  44.359   4.851   2.201
67408W        W27153  14.234  30.485   1.286
67409W        W27154  43.926  16.612   0.243
67410W        W27155   0.484  19.615   0.282
67411W        W27156   5.755  40.448  14.278
67412W        W27157   1.773   2.721   1.785
67413W        W27158  19.570  35.590  11.383
67414W        W27159  35.035  30.542   3.634
67415W        W27160  25.710  32.625  11.863
67416W        W27161  35.563   2.382   0.838
67417W        W27162  35.105  15.111  12.445
67418W        W27163   5.239  35.956   0.367
67419W        W27164  28.666  37.966   4.746
67420W        W27165  33.016  43.470   4.200
67421W        W27166   5.932   5.833  10.573
67422W        W27167  18.704  30.016   0.859
67423W        W27168  44.416  20.261   0.782
67424W        W27169  40.512  38.911  10.605
67425W        W27170  25.160   1.742  14.403
67426W        W27171  39.871  21.693  10.457
67427W        W27172   8.815   6.186  13.963
67428W        W27173   1.746  23.686  14.815
67429W        W27174  39.028  36.017  12.341
67430W        W27175   2.459   4.782  10.141
67431W        W27176  15.203  19.168   0.955
67432W        W27177   9.153   6.350   1.763
67433W        W27178  19.762   0.417   4.256
67434W        W27179  18.267  12.671   3.727
67435W        W27180  44.929  33.966  11.025
67436W        W27181   7.876  30.519   0.895
67437W        W27182  19.565  40.445  12.892
67438W        W27183  39.028  37.463  10.089
67439W        W27184  26.688   6.195  14.922
67440W        W27185   0.978  21.640  10.894
67441W        W27186  26.028   7.667  11.967
67442W        W27187  25.562  23.182   4.275
67443W        W27188   9.714  15.091   3.230
67444W        W27189  43.843   2.892  12.856
67445W        W27190  14.310  31.913   2.714
67446W        W27191  40.989  40.025  14.970
67447W        W27192  21.183  10.247   3.676
67448W        W27193   6.251  42.293  10.991
67449W        W27194   7.831  39.919   1.259
67450W        W27195  13.829  40.808   1.436
67451W        W27196  22.154  38.488  10.469
67452W        W27197  27.969  28.555   0.858
67453W        W27198  37.882  14.606  12.845
67454W        W27199  10.659  17.587   4.299
67455W        W27200  40.318  14.673   2.323
67456W        W27201  43.936  11.214   0.356
67457W        W27202   2.822  33.605   0.435
67458W        W27203   3.881   9.300   0.849
67459W        W27204  29.425  18.060   2.671
67460W        W27205  43.488  29.590  12.866
67461W        W27206  39.375  38.836  12.369
67462W        W27207   4.774  23.615  13.919
67463W        W27208  24.603  24.132  14.515
67464W        W27209   4.931  24.084   5.105
67465W        W27210  43.942  18.724   1.299
67466W        W27211  39.360  10.659   4.294
67467W        W27212  18.258  16.566  13.885
67468W        W27213  10.346  24.044  10.619
67469W        W27214  29.935  27.577  11.112
67470W        W27215   4.815  17.156  10.437
67471W        W27216  20.108  30.139  14.349
67472W        W27217   1.884  15.305  11.592
67473W        W27218  32.456  20.583  11.865
67474W        W27219  12.770  40.351   2.396
67475W        W27220  29.971  30.010  14.300
67476W        W27221  21.043   4.279  14.885
67477W        W27222  37.885  29.062  11.019
67478W        W27223  13.754   7.865  10.974
67479W        W27224   1.355   2.289   3.652
67480W        W27225  30.045   7.285   1.290
67481W        W27226   8.888  42.882   5.206
67482W        W27227  26.049   0.333   0.786
67483W        W27228   7.302  12.650  13.806
67484W        W27229  22.578   9.669   1.216
67485W        W27230  26.110  28.587  12.366
67486W        W27231  33.072  29.607  12.525
67487W        W27232  26.173  39.065  14.489
67488W        W27233  20.097  33.130  11.091
67489W        W27234  37.502   6.806   2.364
67490W        W27235  39.914   8.804  13.544
67491W        W27236  42.403   6.741   2.673
67492W        W27237  15.603  13.785  13.012
67493W        W27238  14.631  33.005   1.333
67494W        W27239  12.651   9.298  12.376
67495W        W27240  18.768   4.245  14.831
67496W        W27241   1.901  34.460  13.470
67497W        W27242   8.169  17.101  11.380
67498W        W27243   3.317  14.620  11.125
67499W        W27244  29.973  11.814  14.806
67500W        W27245  39.427   1.792   0.482
67501W        W27246  38.534  40.970   3.366
67502W        W27247   1.347   1.837   4.289
67503W        W27248  23.016  31.080  14.786
67504W        W27249  21.174  27.464  13.040
67505W        W27250   6.902  34.440   0.257
67506W        W27251  19.231  22.010   1.317
67507W        W27252  22.589   2.863   1.901
67508W        W27253  35.106  18.757  11.079
67509W        W27254  28.672   3.319  14.418
67510W        W27255  28.530  35.989   1.807
67511W        W27256  27.005  23.558  11.496
67512W        W27257  21.104  14.196   9.493
67513W        W27258  26.696  18.151   9.990
67514W        W27259  30.054  28.649   1.281
67515W        W27260  29.565  43.894   2.804
67516W        W27261  24.638  42.861  10.499
67517W        W27262   1.761  35.907   1.791
67518W        W27263  36.888  19.059   3.806
67519W        W27264   9.163  14.696   2.257
67520W        W27265  28.053  20.592  11.916
67521W        W27266  18.636   0.840  12.850
67522W        W27267  38.004  41.858  14.477
67523W        W27268  34.531   4.930  14.995
67524W        W27269   1.286  41.792   1.771
67525W        W27270  31.639  23.603   0.828
67526W        W27271  41.367  33.902  13.383
67527W        W27272  21.753  17.609  12.452
67528W        W27273  14.157  14.262   3.754
67529W        W27274  16.790  10.633  11.558
67530W        W27275  44.923  29.652   2.395
67531W        W27276  39.811  32.504   3.324
67532W        W27277   0.480  30.572  12.370
67533W        W27278  19.581  42.795  13.368
67534W        W27279  35.503  43.813  12.425
67535W        W27280   2.446   1.418   0.890
67536W        W27281   8.374   4.771   1.305
67537W        W27282   6.888   6.182   3.800
67538W        W27283  31.424  32.927   2.678
67539W        W27284   4.842  42.503  14.011
67540W        W27285  12.270  26.576  10.122
67541W        W27286  38.534  19.269  12.567
67542W        W27287  11.194  31.027   2.815
67543W        W27288   0.292   8.766   1.416
67544W        W27289  20.528   7.854  10.417
67545W        W27290  34.063  41.529   0.365
67546W        W27291  29.057  24.513  13.459
67547W        W27292  12.327   2.960  10.425
67548W        W27293   3.726  21.561  10.913
67549W        W27294   1.379  18.738  14.372
67550W        W27295  37.553  10.751  12.951
67551W        W27296   8.846  34.610   1.768
67552W        W27297  41.375  15.200  13.945
67553W        W27298  41.857  16.789   4.285
67554W        W27299  36.994   5.313  11.501
67555W        W27300  32.424  37.364  12.827
67556W        W27301  25.133  36.473   4.211
67557W        W27302  26.050  18.730  12.859
67558W        W27303  29.546  26.981  13.420
67559W        W27304  22.234  38.930   3.711
67560W        W27305  42.831  10.180   0.870
67561W        W27306  34.429  18.604   5.647
67562W        W27307   3.346  14.196   2.286
67563W        W27308  27.155  17.250  13.310
67564W        W27309  16.691  18.775  11.064
67565W        W27310  42.375  37.968  10.901
67566W        W27311  38.485  36.063   0.311
67567W        W27312  26.061  24.518  13.368
67568W        W27313  41.940  32.445   3.750
67569W        W27314  18.688   3.787   4.118
67570W        W27315   2.893  30.437  12.574
67571W        W27316   5.403  10.760   0.731
67572W        W27317  41.839  25.692   4.834
67573W        W27318   5.721  42.375  10.485
67574W        W27319  15.224  14.297  12.853
67575W        W27320  15.579  37.402   2.357
67576W        W27321  15.618  27.494  10.941
67577W        W27322   4.705   5.247   2.268
67578W        W27323  11.744  20.534   3.709
67579W        W27324  41.422  37.352   3.341
67580W        W27325  21.601  12.297  11.098
67581W        W27326  38.381   4.382   3.843
67582W        W27327  22.587  30.120   2.383
67583W        W27328  14.307  29.573   1.805
67584W        W27329   9.740   3.232  14.784
67585W        W27330  30.994  41.515  12.525
67586W        W27331  43.297  43.986  13.796
67587W        W27332  29.662  33.573  10.952
67588W        W27333   8.824  24.641  10.433
67589W        W27334   4.209  25.113  12.457
67590W        W27335  33.074  25.663   0.309
67591W        W27336  14.224   9.384   3.264
67592W        W27337  24.483  36.005  13.885
67593W        W27338  26.478  35.067   1.373
67594W        W27339  39.903  24.978  13.320
67595W        W27340   9.787  30.516  11.576
67596W        W27341   1.411  22.694   0.773
67597W        W27342  20.722  40.860  14.500
67598W        W27343  20.226  38.828   3.790
67599W        W27344   9.219  38.917  13.861
67600W        W27345  22.078   3.305   1.781
67601W        W27346  42.472  31.547   1.214
67602W        W27347  24.143  30.562   3.643
67603W        W27348  35.088  24.195  10.057
67604W        W27349  12.179   3.848   1.725
67605W        W27350  14.094  40.049   5.154
67606W        W27351  42.893   1.386   1.887
67607W        W27352  40.875  36.054   0.440
67608W        W27353  32.441  13.296  10.952
67609W        W27354   8.687  37.337   1.381
67610W        W27355  31.015  20.197   2.252
67611W        W27356  31.484  39.352  13.877
67612W        W27357  44.430  31.626  14.988
67613W        W27358  15.123  26.026  12.447
67614W        W27359  11.355  18.582   1.300
67615W        W27360  34.416  26.636   4.330
67616W        W27361  37.902  28.626   4.681
67617W        W27362  34.072  25.560  12.459
67618W        W27363  24.586  25.626   2.212
67619W        W27364  38.479  28.645   2.684
67620W        W27365  17.130  23.079  10.902
67621W        W27366  20.552   9.869  14.348
67622W        W27367   9.662  14.747   1.371
67623W        W27368  28.482  37.437   0.942
67624W        W27369   0.755  29.021  12.845
67625W        W27370   7.877   2.888  11.877
67626W        W27371  16.224  23.087   0.898
67627W        W27372   6.428  40.461   2.411
67628W        W27373  10.803  13.792   3.164
67629W        W27374  35.891   6.908   0.293
67630W        W27375  28.000  11.724   2.377
67631W        W27376  35.993  40.540   2.880
67632W        W27377  23.636  14.662  14.789
67633W        W27378  37.396   7.758  11.408
67634W        W27379  29.990  25.049   2.407
67635W        W27380  32.897   9.676   3.147
67636W        W27381   5.258  30.934  13.799
67637W        W27382  28.625  10.351   0.443
67638W        W27383   3.920   6.878   0.346
67639W        W27384  38.833  42.967   1.322
67640W        W27385  13.131  23.025  14.798
67641W        W27386  40.380   2.776  10.613
67642W        W27387   6.830  40.486  13.041
67643W        W27388  18.094  27.608  13.473
67644W        W27389  40.877  23.698  13.926
67645W        W27390  15.604  26.954  11.595
67646W        W27391   8.345  20.670  12.528
67647W        W27392  43.959   6.790   1.306
67648W        W27393  22.714  22.697  12.024
67649W        W27394  29.617   6.856   4.348
67650W        W27395  44.364  14.603   1.874
67651W        W27396   2.360  22.174   3.712
67652W        W27397  35.458  37.383   0.735
67653W        W27398  31.977   5.784   5.738
67654W        W27399  33.414  39.885   3.855
67655W        W27400  23.725  38.503  13.418
67656W        W27401  15.272  22.244   0.327
67657W        W27402   0.754  42.444  12.090
67658W        W27403  44.390   4.395   3.681
67659W        W27404  10.217  42.009   0.874
67660W        W27405   2.904  41.931   3.362
67661W        W27406  15.270  40.462  14.281
67662W        W27407   5.407   5.215   3.331
67663W        W27408  26.086  20.265  11.415
67664W        W27409   9.253   1.274   4.786
67665W        W27410   1.338  34.984   4.645
67666W        W27411  23.642   8.730  13.061
67667W        W27412  27.465  10.873  10.417
67668W        W27413  17.699  38.928  14.442
67669W        W27414  29.156   6.760  12.509
67670W        W27415  11.813  15.782   0.819
67671W        W27416  41.813  29.610   0.351
67672W        W27417  43.949   2.929   1.230
67673W        W27418  11.792   6.722   1.914
67674W        W27419  36.355  20.603   0.275
67675W        W27420   9.359  15.219  13.356
67676W        W27421  33.942  27.180   1.869
67677W        W27422  31.605   1.364  10.568
67678W        W27423  44.269  24.032   4.634
67679W        W27424  32.126  40.985   2.412
67680W        W27425  38.923  28.061  11.581
67681W        W27426  22.529  37.031   2.801
67682W        W27427  21.557  44.943   1.355
67683W        W27428   0.443  17.557   1.792
67684W        W27429  32.502  29.436   2.407
67685W        W27430   3.738  41.327  12.914
67686W        W27431  21.648  20.098  12.963
67687W        W27432  42.299   4.352   3.702
67688W        W27433  23.544   4.932   2.751
67689W        W27434  23.991  16.154   4.625
67690W        W27435  26.956   0.956  14.961
67691W        W27436  38.536  10.874   0.913
67692W        W27437   2.472  38.023   1.769
67693W        W27438  26.496   6.424   0.959
67694W        W27439  26.045  43.447   2.773
67695W        W27440  36.370  14.745  14.835
67696W        W27441  30.485  33.388   0.750
67697W        W27442  44.930  40.863   3.660
67698W        W27443  36.857   0.321  13.930
67699W        W27444   4.330  26.135  13.335
67700W        W27445  17.728   6.279   2.231
67701W        W27446  14.172  16.135  12.823
67702W        W27447  26.662   8.784  11.375
67703W        W27448   7.270   0.865   0.472
67704W        W27449   5.363  32.940   3.298
67705W        W27450  44.928  30.498   0.922
67706W        W27451  16.741  22.610   2.255
67707W        W27452  42.346  40.339   1.244
67708W        W27453  43.917  29.158   2.352
67709W        W27454  34.384  11.247  11.922
67710W        W27455  39.336  29.472  12.398
67711W        W27456  21.032   5.277   0.791
67712W        W27457  27.536  41.813  12.436
67713W        W27458  10.813  23.594  12.463
67714W        W27459  11.346  25.138   4.346
67715W        W27460  23.699  39.923  12.970
67716W        W27461  26.703  17.174   1.403
67717W        W27462  15.189  34.376  12.065
67718W        W27463  22.214  38.951   1.439
67719W        W27464  36.566  40.033   2.733
67720W        W27465  43.961  32.141   0.412
67721W        W27466  36.952  33.557  13.880
67722W        W27467  27.588  42.944   3.360
67723W        W27468  11.768  32.585   1.315
67724W        W27469   3.754  11.682   2.825
67725W        W27470  10.300   3.839  14.361
67726W        W27471  31.151  28.071  11.533
67727W        W27472   2.786  20.109   4.631
67728W        W27473  19.157  17.153  11.967
67729W        W27474  31.897   5.819   0.284
67730W        W27475  40.444  21.625  11.559
67731W        W27476  25.193  12.310  14.458
67732W        W27477   3.724  23.173  10.552
67733W        W27478  38.547  39.551   3.237
67734W        W27479  34.985  41.325  13.398
67735W        W27480   6.791   8.338   4.790
67736W        W27481  31.405  43.430  14.419
67737W        W27482  30.039  35.086  10.902
67738W        W27483  29.617  19.735   3.163
67739W        W27484  10.667  17.216  14.883
67740W        W27485  39.338  27.479   4.806
67741W        W27486  40.520   7.280   1.302
67742W        W27487  15.691   2.387   1.294
67743W        W27488   3.755  37.046  12.856
67744W        W27489  37.056  22.601   3.799
67745W        W27490  27.947  15.686   3.159
67746W        W27491  18.693   5.419  12.408
67747W        W27492  27.940   3.806   9.931
67748W        W27493  41.386  34.009   2.860
67749W        W27494   3.800   5.931  12.495
67750W        W27495  17.077  32.397   1.319
67751W        W27496  37.047  33.043  11.580
67752W        W27497  13.719  40.040   1.287
67753W        W27498   3.782  22.582  11.556
67754W        W27499  24.193  24.657   1.444
67755W        W27500   0.965  36.026  13.523
67756W        W27501  33.900   7.301  12.468
67757W        W27502  40.485  42.811  12.081
67758W        W27503   1.373  35.372  14.437
67759W        W27504  32.391  16.645   1.345
67760W        W27505  11.641  37.026  11.477
67761W        W27506   8.722  27.507  11.012
67762W        W27507  17.785  24.079  14.422
67763W        W27508  44.882   4.435  10.512
67764W        W27509  20.619  11.733  13.995
67765W        W27510  32.954  24.021  12.496
67766W        W27511  25.052  39.547  11.510
67767W        W27512   7.300   4.940   4.322
67768W        W27513  12.245  18.096  12.570
67769W        W27514  38.505   8.350  14.317
67770W        W27515  26.642  38.944   0.333
67771W        W27516  37.907  20.231   0.309
67772W        W27517  43.943  43.448  11.375
67773W        W27518  27.621   1.971  12.037
67774W        W27519  39.391  13.771  12.093
67775W        W27520  13.842   5.777  13.805
67776W        W27521  11.153  15.757   4.818
67777W        W27522  20.661  21.135   4.698
67778W        W27523  19.201   1.453   3.709
67779W        W27524  43.400  23.010  12.976
67780W        W27525  17.736  19.240   1.303
67781W        W27526  18.653  29.452  10.990
67782W        W27527  30.164   7.693  12.564
67783W        W27528  12.245  13.328  11.994
67784W        W27529  43.008  29.963  11.464
67785W        W27530  15.107  33.966  13.054
67786W        W27531  41.938   3.338   1.276
67787W        W27532   7.387  37.992   0.366
67788W        W27533  35.408  43.809  14.946
67789W        W27534  41.889  21.027   9.977
67790W        W27535  38.830  44.860   4.679
67791W        W27536  40.467  19.256  13.040
67792W        W27537  22.620  17.080  14.007
67793W        W27538  14.786  39.477   0.858
67794W        W27539  43.469   3.398  10.610
67795W        W27540  24.014  18.214   9.473
67796W        W27541  28.057  43.953   4.750
67797W        W27542  35.866  30.553   3.651
67798W        W27543   7.183  32.070  14.939
67799W        W27544  28.545  16.727  10.986
67800W        W27545   2.819  36.092  13.477
67801W        W27546   6.692  32.034  13.440
67802W        W27547   8.387  34.107  13.914
67803W        W27548  34.369  33.011   2.772
67804W        W27549  12.306  38.523   1.220
67805W        W27550  22.140   3.360   5.192
67806W        W27551  36.907  10.163   0.429
67807W        W27552  38.544   9.720   3.791
67808W        W27553   8.405   2.764   4.771
67809W        W27554  43.460  20.728   4.694
67810W        W27555  23.711  33.967   3.632
67811W        W27556   8.793   1.907   4.625
67812W        W27557   5.390  27.636  13.319
67813W        W27558  16.735  37.475  14.485
67814W        W27559  43.788  22.703   0.950
67815W        W27560  22.120  42.402  13.511
67816W        W27561  27.638  26.035   1.782
67817W        W27562   8.265   0.894  12.393
67818W        W27563   3.792  22.637   1.331
67819W        W27564  23.145   9.197   1.348
67820W        W27565  33.500  27.189  13.495
67821W        W27566  39.961   6.834  13.543
67822W        W27567  29.497   3.855   1.762
67823W        W27568   5.218   3.266  14.398
67824W        W27569  33.098   5.896  11.959
67825W        W27570  38.822  10.234   0.786
67826W        W27571  14.217  11.226   1.881
67827W        W27572  16.281  20.154  12.952
67828W        W27573   9.796  31.939  13.029
67829W        W27574   4.805  15.602   1.308
67830W        W27575  41.904  29.035   3.248
67831W        W27576  17.222   6.846   2.382
67832W        W27577  37.085   8.681   0.926
67833W        W27578  42.010   0.863  12.506
67834W        W27579  28.024  13.146   4.341
67835W        W27580   6.726   7.311  12.550
67836W        W27581   4.917   1.807  12.375
67837W        W27582  12.233   0.987   3.217
67838W        W27583  22.606  11.237  14.497
67839W        W27584  18.110  43.011   2.693
67840W        W27585  33.977  26.673  13.925
67841W        W27586  12.632  31.444   0.357
67842W        W27587  23.176  12.833   5.159
67843W        W27588  12.636  41.447   3.803
67844W        W27589  28.558  42.322  12.346
67845W        W27590  26.984  27.054   4.219
67846W        W27591  36.482  33.995  11.421
67847W        W27592  27.134  12.719   4.691
67848W        W27593  32.587  39.492   3.153
67849W        W27594  28.159  19.542   1.446
67850W        W27595  20.735  35.549   4.736
67851W        W27596  11.308   5.336  10.487
67852W        W27597   6.243  30.459  10.510
67853W        W27598  39.924   6.298   1.746
67854W        W27599  16.698  33.478  11.536
67855W        W27600  18.651  20.061  10.555
67856W        W27601  37.977  15.178  14.346
67857W        W27602   1.792  15.800   4.699
67858W        W27603   7.333  32.925  14.405
67859W        W27604   6.722  37.866  10.555
67860W        W27605  10.233  37.495  12.091
67861W        W27606  41.406  25.577   0.339
67862W        W27607  16.579   1.400   0.747
67863W        W27608  30.440  39.320  14.358
67864W        W27609  19.117  33.941  10.523
67865W        W27610  26.578  23.672   3.259
67866W        W27611   4.710   8.219  12.346
67867W        W27612  16.689  26.636   4.197
67868W        W27613   2.900  27.976  14.809
67869W        W27614  30.164  23.227  11.960
67870W        W27615  34.946  30.038  10.577
67871W        W27616  12.255  40.331   0.924
67872W        W27617  30.610  18.562  13.052
67873W        W27618  36.861  33.009  10.596
67874W        W27619  35.418   3.830   3.244
67875W        W27620  25.060  27.605  10.450
67876W        W27621  41.039  16.312   1.320
67877W        W27622  24.542  34.585   4.114
67878W        W27623  26.993   2.880   2.866
67879W        W27624  20.568  35.910  11.871
67880W        W27625   2.423   3.742  10.960
67881W        W27626  13.770  28.519   4.265
67882W        W27627  20.682  43.999  13.862
67883W        W27628  33.040  16.131  13.349
67884W        W27629  10.310  42.032  13.475
67885W        W27630  18.115   6.914  11.552
67886W        W27631  19.604  40.507  11.879
67887W        W27632  16.297  39.967  10.555
67888W        W27633   5.867  19.179   0.329
67889W        W27634  31.496  23.560  12.459
67890W        W27635   1.949  10.815   4.319
67891W        W27636  43.511  17.762  14.423
67892W        W27637  43.941   1.765   4.799
67893W        W27638  38.862  22.706   0.922
67894W        W27639  38.828  16.210   0.913
67895W        W27640  38.430  28.634  11.897
67896W        W27641  33.889  17.706  11.096
67897W        W27642  34.014  38.364  13.350
67898W        W27643  15.824  23.152   4.114
67899W        W27644  29.441   6.322   0.243
67900W        W27645  35.012  30.569  11.519
67901W        W27646  37.033  37.926  12.090
67902W        W27647  23.221  29.426   9.606
67903W        W27648  33.880  13.711  11.126
67904W        W27649  31.423  12.264  11.029
67905W        W27650  11.357  40.453  12.465
67906W        W27651   8.808   0.761   5.113
67907W        W27652  37.538  39.998   0.868
67908W        W27653   4.712   5.879  12.063
67909W        W27654  38.327  24.195  12.085
67910W        W27655  11.191  37.402   4.117
67911W        W27656   6.379  44.884  13.922
67912W        W27657  37.891  17.700  14.418
67913W        W27658  29.424  38.476  11.977
67914W        W27659  35.538  19.679   0.480
67915W        W27660  28.579  41.444  11.022
67916W        W27661  22.606  32.468   5.104
67917W        W27662  11.182  29.930   1.227
67918W        W27663  10.227   1.356  10.604
67919W        W27664  22.116  40.417  11.965
67920W        W27665  44.268   0.371   3.209
67921W        W27666  24.186  28.489  13.891
67922W        W27667  26.624  31.944  12.519
67923W        W27668  28.972  27.196   1.265
67924W        W27669  20.612  39.038   1.806
67925W        W27670   0.921  16.175  11.578
67926W        W27671  38.992  24.676  13.361
67927W        W27672   3.377  22.230  10.614
67928W        W27673  34.044  25.608  11.083
67929W        W27674   9.211  10.367   3.721
67930W        W27675  10.367   3.241   1.839
67931W        W27676  12.817  12.275  13.919
67932W        W27677   6.302  19.168   2.393
67933W        W27678  13.284  30.999  11.072
67934W        W27679  32.619  39.878   0.738
67935W        W27680  25.010  32.082   1.806
67936W        W27681   7.411   9.855   0.320
67937W        W27682   3.459  30.087   4.657
67938W        W27683  27.973  19.081  12.870
67939W        W27684  37.580  36.552   0.459
67940W        W27685  30.995  26.174  14.967
67941W        W27686  40.380   3.785  13.967
67942W        W27687  39.325  11.815  13.968
67943W        W27688  35.009  38.430   0.965
67944W        W27689  11.144  36.539  11.552
67945W        W27690  33.416  15.141  10.893
67946W        W27691   4.281  29.076  13.842
67947W        W27692  10.304   9.680   0.898
67948W        W27693  35.994  36.916  11.061
67949W        W27694   3.256   2.401   3.348
67950W        W27695  21.528  38.520  10.989
67951W        W27696  25.531   9.325   3.631
67952W        W27697  39.996  41.354  11.002
67953W        W27698  25.186  30.126   0.952
67954W        W27699  36.928   3.354  10.459
67955W        W27700  43.009  29.067   2.709
67956W        W27701  39.399  11.649   3.150
67957W        W27702  31.919  10.771   3.633
67958W        W27703  33.605  30.989  10.612
67959W        W27704  20.173  30.507   3.166
67960W        W27705  16.578  33.562   0.880
67961W        W27706  26.979  34.486   4.172
67962W        W27707  28.496   4.396   0.294
67963W        W27708   5.323   1.443   3.856
67964W        W27709   3.355  24.620  10.944
67965W        W27710  20.548  40.359  13.023
67966W        W27711  19.777  31.922  12.363
67967W        W27712  36.086  26.620   2.698
67968W        W27713  19.152  33.598   1.343
67969W        W27714  43.883  36.509   0.813
67970W        W27715  41.365  31.920   3.707
67971W        W27716  15.600  31.554   2.257
67972W        W27717  25.486  18.727  13.845
67973W        W27718  14.144  28.026   0.408
67974W        W27719  35.543  39.403  11.978
67975W        W27720  24.035   5.930   1.353
67976W        W27721  20.269  33.895  10.521
67977W        W27722   7.676  30.608   4.233
67978W        W27723  24.102  37.418   4.208
67979W        W27724  26.074  21.150  11.499
67980W        W27725  38.521  43.285   0.959
67981W        W27726   7.787  22.660   1.932
67982W        W27727   4.392  28.641   0.278
67983W        W27728  20.675   8.746  11.548
67984W        W27729  32.104  16.152  10.905
67985W        W27730  37.923  11.232  11.605
67986W        W27731   7.866  18.059   4.641
67987W        W27732   3.774  10.741   1.843
67988W        W27733  36.482   7.709  12.566
67989W        W27734   6.755  28.549  14.459
67990W        W27735   5.196   1.940   2.274
67991W        W27736  26.134  17.730   2.200
67992W        W27737   6.371  44.824  14.459
67993W        W27738  23.686  44.489   4.811
67994W        W27739   6.903  36.918   2.852
67995W        W27740  39.970  23.662  13.971
67996W        W27741  19.123   3.256   0.361
67997W        W27742  27.160  10.638   4.179
67998W        W27743  12.131  42.448   2.901
67999W        W27744  21.035  40.438  11.564
68000W        W27745  32.542   2.403  13.428
68001W        W27746  12.826  24.177  11.059
68002W        W27747  21.239  25.675   2.206
68003W        W27748  15.611  23.127   0.411
68004W        W27749  43.385  13.280   1.232
68005W        W27750   2.884  21.138   1.697
68006W        W27751  27.113  30.127  13.411
68007W        W27752   5.708  36.868  14.784
68008W        W27753   1.900  34.612   0.439
68009W        W27754  34.104  30.565   9.544
68010W        W27755   1.316  12.738   1.371
68011W        W27756  14.679  20.102  12.459
68012W        W27757  32.393  20.259  14.334
68013W        W27758  28.583  12.269  12.470
68014W        W27759   0.768  38.980   2.682
68015W        W27760  14.757  38.566   3.193
68016W        W27761  14.661  17.734   2.705
68017W        W27762  26.595  42.028   2.791
68018W        W27763   9.328  44.354   2.201
68019W        W27764  32.409  18.766   1.451
68020W        W27765  31.951  10.181  11.019
68021W        W27766  43.899  24.618   0.478
68022W        W27767  41.806  40.542  11.945
68023W        W27768  32.042  27.140   2.670
68024W        W27769   4.211  37.913   4.192
68025W        W27770  17.684  26.548   2.752
68026W        W27771  44.427   4.903  13.536
68027W        W27772  31.090  38.991   3.176
68028W        W27773  33.564  33.063  13.445
68029W        W27774   6.819   9.721  10.905
68030W        W27775  26.045  10.215  10.564
68031W        W27776  33.523  29.490   0.754
68032W        W27777   2.229  25.188   4.718
68033W        W27778  20.260  11.777   2.236
68034W        W27779  25.020  25.629   1.910
68035W        W27780  30.049  18.742  11.586
68036W        W27781  25.112  29.014  13.316
68037W        W27782  30.985   9.655  12.473
68038W        W27783  38.011  13.261  12.999
68039W        W27784  20.150   4.930   0.403
68040W        W27785  31.426  18.261  11.514
68041W        W27786  14.795  17.275  12.018
68042W        W27787  13.112   0.791  12.870
68043W        W27788   6.687  38.920   4.784
68044W        W27789   2.231  31.471   1.700
68045W        W27790  31.420  34.027   0.774
68046W        W27791  39.985   1.414   0.261
68047W        W27792  21.134  19.751   4.660
68048W        W27793   1.947   9.820   4.302
68049W        W27794  28.933  16.777   4.618
68050W        W27795  16.155  42.312  14.780
68051W        W27796  35.378  21.128   2.675
68052W        W27797  29.104   2.839  11.109
68053W        W27798  26.022  42.513   0.478
68054W        W27799  25.047  42.498   0.289
68055W        W27800  33.381  44.301   5.082
68056W        W27801  13.285  27.069  13.382
68057W        W27802  44.861  26.052   0.418
68058W        W27803  26.080  20.544  14.436
68059W        W27804  27.094  38.994  10.087
68060W        W27805   7.212  26.685   3.256
68061W        W27806  42.385   8.203  10.421
68062W        W27807   6.233   5.753   0.406
68063W        W27808  32.893  16.297  14.397
68064W        W27809   5.261  30.063   0.835
68065W        W27810  25.058  20.642   1.699
68066W        W27811  28.579  14.657   4.722
68067W        W27812  21.020  13.188   2.844
68068W        W27813  42.963  10.807   0.847
68069W        W27814  15.274  40.043   3.337
68070W        W27815   9.178  17.109  10.023
68071W        W27816  27.671  14.778   0.759
68072W        W27817  14.788  38.826   0.920
68073W        W27818  36.418  39.401  11.945
68074W        W27819  14.265  28.938   0.292
68075W        W27820   9.294  44.438  13.411
68076W        W27821  17.604  25.063   2.802
68077W        W27822   9.781  13.152  14.418
68078W        W27823  37.425   6.329  10.645
68079W        W27824   7.872  11.373  10.628
68080W        W27825   2.427  12.223   1.227
68081W        W27826  40.519   0.796   0.285
68082W        W27827  37.946  30.157  13.838
68083W        W27828  39.000  20.675   2.266
68084W        W27829   0.464  16.784  13.826
68085W        W27830   3.923  36.071   2.698
68086W        W27831  27.578  44.848   2.357
68087W        W27832  19.601   7.696   1.247
68088W        W27833   5.297  23.588   4.640
68089W        W27834  39.501  28.942  14.865
68090W        W27835  25.066  11.325   4.791
68091W        W27836  11.660  37.505   4.696
68092W        W27837  39.048  17.293   5.100
68093W        W27838  43.322  36.883  14.797
68094W        W27839  13.147  25.212   2.716
68095W        W27840  26.976  34.370   1.791
68096W        W27841  16.799  25.140  12.471
68097W        W27842  16.717  42.904   3.316
68098W        W27843   6.372   1.453  14.966
68099W        W27844  19.122  30.950   0.862
68100W        W27845  32.047  18.178  14.948
68101W        W27846   2.275  26.063   1.283
68102W        W27847   9.363  36.572   4.838
68103W        W27848  14.661  41.885   2.825
68104W        W27849  18.602   3.940  12.505
68105W        W27850   5.376  28.051  13.995
68106W        W27851  26.080  27.626   4.117
68107W        W27852  26.045  23.148   0.786
68108W        W27853   4.249  30.137   4.746
68109W        W27854  23.633   8.753  11.452
68110W        W27855  13.181  38.011  13.832
68111W        W27856   5.427   0.745  14.800
68112W        W27857  20.722   7.680   2.802
68113W        W27858   8.293   5.432   0.794
68114W        W27859  10.214  15.227   1.854
68115W        W27860   6.312  40.329   5.126
68116W        W27861  20.535  18.730  10.516
68117W        W27862   1.871   1.278   1.745
68118W        W27863   4.732  44.865  14.483
68119W        W27864  39.315  42.363   4.837
68120W        W27865   7.734  34.877   1.820
68121W        W27866  37.539  39.448   3.689
68122W        W27867  42.925   0.829  10.530
68123W        W27868  23.621  15.746   2.299
68124W        W27869  25.508  40.366   1.374
68125W        W27870  30.613  21.593   2.811
68126W        W27871   4.720  24.006  11.871
68127W        W27872  42.473   5.293  13.879
68128W        W27873   6.732   8.755  11.996
68129W        W27874  40.015  44.355   4.173
68130W        W27875   9.790   0.272  10.943
68131W        W27876  31.972  26.164  11.537
68132W        W27877  14.241  22.688   3.691
68133W        W27878  29.072   7.842   1.416
68134W        W27879  35.944  42.822  11.421
68135W        W27880   1.961  41.039  11.054
68136W        W27881  17.191  40.310  10.408
68137W        W27882  37.830  38.049  11.436
68138W        W27883  25.500  24.635   4.126
68139W        W27884  16.608  38.500   0.904
68140W        W27885  43.367  20.715   1.864
68141W        W27886   0.252  35.998   1.779
68142W        W27887   1.294  17.757   1.252
68143W        W27888  33.114  27.130   3.867
68144W        W27889   6.235   8.240  12.010
68145W        W27890  19.182  36.453   3.713
68146W        W27891   9.841  29.609   0.736
68147W        W27892  40.397  35.044   9.932
68148W        W27893  36.046  38.926  14.456
68149W        W27894  38.051  27.162  12.968
68150W        W27895  12.249  34.909   0.857
68151W        W27896  41.865  44.880   0.305
68152W        W27897   0.457  31.422   2.701
68153W        W27898  43.490   8.207  10.451
68154W        W27899   8.777  43.302   3.210
68155W        W27900   0.440  23.666  11.879
68156W        W27901   1.895  33.068  11.590
68157W        W27902  26.127  11.189  12.077
68158W        W27903  38.513   8.336  13.542
68159W        W27904   7.242   3.736   0.896
68160W        W27905  22.719  14.094  12.437
68161W        W27906   4.892  29.624  14.376
68162W        W27907  42.007  31.542  12.893
68163W        W27908  31.526  28.065   2.679
68164W        W27909  42.471  10.879  10.491
68165W        W27910  11.807  35.534   2.826
68166W        W27911  37.549  19.230   1.418
68167W        W27912  16.226  14.707   4.227
68168W        W27913  41.401  12.189  10.522
68169W        W27914  19.120  12.701  12.832
68170W        W27915  36.076   9.839  12.951
68171W        W27916  31.060   7.297  12.055
68172W        W27917  41.895  17.580  13.530
68173W        W27918   1.393   9.178   4.195
68174W        W27919  27.192  41.418  10.610
68175W        W27920  19.179  32.414   0.926
68176W        W27921  12.266  23.544  11.109
68177W        W27922   5.823  44.370  14.473
68178W        W27923  25.218   2.236   4.298
68179W        W27924  44.971  26.503  10.624
68180W        W27925  31.522   3.776   3.782
68181W        W27926   4.935  24.613  13.514
68182W        W27927   4.743  33.009   0.729
68183W        W27928  42.027  34.990  12.426
68184W        W27929  31.898  39.909   2.317
68185W        W27930  26.045  19.728  13.833
68186W        W27931  42.472  12.686   1.782
68187W        W27932   8.336   5.207   3.843
68188W        W27933  42.485  21.669  11.599
68189W        W27934   7.848  21.734   4.636
68190W        W27935  39.913  41.800  11.420
68191W        W27936   0.898   9.792  14.885
68192W        W27937   0.321  27.954   5.748
68193W        W27938   4.445  29.451  12.475
68194W        W27939  19.256   0.778  14.369
68195W        W27940   3.386  15.737   3.831
68196W        W27941   5.385   2.454   4.242
68197W        W27942  33.602  12.773   0.913
68198W        W27943  44.000  19.134   0.853
68199W        W27944   4.302  31.988   3.723
68200W        W27945  39.886  42.952  12.903
68201W        W27946   3.328  39.875   3.311
68202W        W27947  14.232  10.314  11.583
68203W        W27948  36.502  39.401   1.395
68204W        W27949  27.964  18.603  14.892
68205W        W27950  33.880   8.361   0.744
68206W        W27951   9.362  17.557   4.138
68207W        W27952  42.382  18.111   3.337
68208W        W27953  21.518  42.017  10.632
68209W        W27954  17.581  38.026   0.870
68210W        W27955  42.923   2.751  11.413
68211W        W27956  22.727   8.738   2.676
68212W        W27957   0.392  23.664   0.927
68213W        W27958  39.022  11.722   3.218
68214W        W27959   6.290   7.825  14.800
68215W        W27960  25.127  21.263   0.440
68216W        W27961  24.601  11.258  14.804
68217W        W27962  39.972  23.080   2.288
68218W        W27963  25.594  24.722  14.340
68219W        W27964   9.247  15.212   0.843
68220W        W27965   7.220   4.721  11.933
68221W        W27966  33.980  16.721   4.285
68222W        W27967   6.735  41.987   0.956
68223W        W27968  13.751   8.402   2.898
68224W        W27969  34.562  43.849  14.940
68225W        W27970   5.737  42.359  12.903
68226W        W27971  15.274   3.326  14.326
68227W        W27972  24.482   1.297  12.524
68228W        W27973  14.722  32.479   3.312
68229W        W27974  15.268  15.270  14.299
68230W        W27975  18.134   8.390  13.389
68231W        W27976  19.047  22.046   0.953
68232W        W27977  35.889  10.238  14.353
68233W        W27978  21.629   0.455   1.697
68234W        W27979  28.493  19.661  10.996
68235W        W27980  29.066  44.398   2.219
68236W        W27981  37.837  20.055   1.850
68237W        W27982  14.625   3.923   4.210
68238W        W27983   3.917  26.571   3.248
68239W        W27984  21.596  36.947   1.276
68240W        W27985  22.539  29.156   1.356
68241W        W27986  26.551   6.362  11.066
68242W        W27987   2.240   9.668   0.375
68243W        W27988  19.745  15.678   1.325
68244W        W27989  35.494  20.238  10.082
68245W        W27990   6.813  14.305   2.394
68246W        W27991  13.249  24.194   2.253
68247W        W27992  14.313   0.322   1.818
68248W        W27993  26.575  32.560  14.001
68249W        W27994   2.416  25.687  13.483
68250W        W27995  25.040  29.052  12.463
68251W        W27996  17.706  43.885   1.729
68252W        W27997  12.141   8.356  10.968
68253W        W27998  17.746  38.364  11.492
68254W        W27999  28.526  32.888   3.323
68255W        W28000   9.306  17.645  14.874
68256W        W28001  34.964   4.794  12.533
68257W        W28002  11.309  33.995  13.936
68258W        W28003   9.731  39.943  13.837
68259W        W28004   8.172  13.754   1.922
68260W        W28005  21.191   9.308  12.945
68261W        W28006  40.021   4.722  11.861
68262W        W28007  11.671  31.896  10.132
68263W        W28008  39.371   5.814  13.907
68264W        W28009  16.084   2.954   1.738
68265W        W28010   6.919  41.936  13.880
68266W        W28011  16.253  32.435  12.093
68267W        W28012  44.902   5.428   4.299
68268W        W28013   8.869  33.109  14.030
68269W        W28014   3.817  30.995  11.042
68270W        W28015  39.063  28.027   4.227
68271W        W28016  21.676  42.878  14.348
68272W        W28017  36.014  22.714   2.841
68273W        W28018  10.252  20.243  12.926
68274W        W28019   6.234  16.229  12.997
68275W        W28020  39.369  34.532  12.351
68276W        W28021  40.498  10.864   1.837
68277W        W28022  34.374  10.222  10.980
68278W        W28023   5.771  44.365  12.874
68279W        W28024  25.091  34.920  12.015
68280W        W28025  42.440  16.567  11.612
68281W        W28026  33.034  37.871  11.117
68282W        W28027  42.526  24.649   4.770
68283W        W28028  28.529   1.423   3.197
68284W        W28029  10.193  26.466  13.826
68285W        W28030  29.168  28.465  13.952
68286W        W28031   2.954  40.402  12.898
68287W        W28032  40.402  12.220   2.390
68288W        W28033  38.564  40.009  14.798
68289W        W28034  38.526   5.762  12.975
68290W        W28035  43.289  21.631  13.991
68291W        W28036  20.033  16.690   0.842
68292W        W28037  17.747  20.604   1.929
68293W        W28038  27.042  28.542   5.689
68294W        W28039  29.036   0.968  12.022
68295W        W28040  33.518  39.932   0.375
68296W        W28041  40.044  36.004   0.832
68297W        W28042  42.812  37.044   1.379
68298W        W28043  30.498  32.424   3.375
68299W        W28044  18.109  31.974  10.435
68300W        W28045   6.230  10.636  11.524
68301W        W28046  24.702   3.936   4.209
68302W        W28047   8.221  35.913  13.336
68303W        W28048   1.379  11.197   0.247
68304W        W28049   9.320   9.212  12.030
68305W        W28050  10.691  14.643   0.443
68306W        W28051   1.738  33.587   4.746
68307W        W28052  42.314  25.981  13.485
68308W        W28053  31.999   3.833  13.313
68309W        W28054  35.959  30.025   2.681
68310W        W28055   3.931  11.292   0.735
68311W        W28056   4.741  23.012   4.132
68312W        W28057  16.694  21.639  10.941
68313W        W28058   8.818  16.740  11.606
68314W        W28059  14.702  12.265   0.316
68315W        W28060   1.953   9.258   1.762
68316W        W28061  22.206  24.097   2.706
68317W        W28062  12.232  26.961  11.435
68318W        W28063   6.427  13.284   5.118
68319W        W28064  24.010  41.461   0.416
68320W        W28065  35.489  41.309   1.930
68321W        W28066  19.223  22.164   4.134
68322W        W28067  15.730  21.191   2.265
68323W        W28068  40.527  14.104  11.437
68324W        W28069  34.464   5.402   1.800
68325W        W28070  23.541  37.893  12.096
68326W        W28071   5.335  40.427   3.297
68327W        W28072  18.646   6.366  12.022
68328W        W28073  43.322  26.607   5.094
68329W        W28074  14.310  41.893  12.069
68330W        W28075  18.565  38.471   3.728
68331W        W28076  41.837   6.222   1.857
68332W        W28077  16.788  25.533  14.009
68333W        W28078   9.798  36.075   4.328
68334W        W28079  20.534  12.852  10.952
68335W        W28080  44.844  30.152  13.024
68336W        W28081   4.342  32.045   2.362
68337W        W28082  36.058  29.119   3.783
68338W        W28083  38.869  22.022  14.793
68339W        W28084   6.182  39.467  10.138
68340W        W28085  37.550  17.621  14.360
68341W        W28086   6.271  33.969  11.488
68342W        W28087  40.505   3.335   0.325
68343W        W28088   0.307  40.324   0.740
68344W        W28089  14.105  39.454   3.184
68345W        W28090  19.058  32.602   3.256
68346W        W28091  11.215  19.265  10.605
68347W        W28092   8.245  11.657  11.071
68348W        W28093  34.455  23.595  13.019
68349W        W28094  25.077  17.147  12.380
68350W        W28095  35.991  12.142  10.603
68351W        W28096  14.200  24.521  11.605
68352W        W28097  36.852  30.627   2.743
68353W        W28098  32.480  44.990   2.746
68354W        W28099  14.700   0.968   0.315
68355W        W28100  21.067  39.049   5.197
68356W        W28101  11.336  13.267   2.292
68357W        W28102   5.927  19.557   2.886
68358W        W28103   0.854  35.405  11.478
68359W        W28104  11.693   5.336   1.701
68360W        W28105  42.385  34.493  12.867
68361W        W28106   1.267  13.227   0.384
68362W        W28107   4.722   9.281   3.814
68363W        W28108  33.434   3.382  14.862
68364W        W28109  39.002   2.822  13.385
68365W        W28110   8.255  44.986  10.629
68366W        W28111  28.485   7.829   1.696
68367W        W28112  29.922  14.232  10.413
68368W        W28113  14.740  28.975   1.933
68369W        W28114  34.492  31.006   0.869
68370W        W28115   4.228   2.903  14.437
68371W        W28116  10.724  25.649  14.303
68372W        W28117  17.180  26.691   2.303
68373W        W28118  12.660   3.926  10.618
68374W        W28119  12.750   7.745  12.002
68375W        W28120   0.330  12.747  12.931
68376W        W28121  10.667  31.092  11.485
68377W        W28122  25.564  35.548   0.330
68378W        W28123  37.540   5.317   2.266
68379W        W28124  42.837  15.751   2.839
68380W        W28125  41.377  22.225   3.366
68381W        W28126  22.038  12.732   4.814
68382W        W28127  44.302  20.592  13.837
68383W        W28128  23.543   3.881   1.338
68384W        W28129  13.628  25.616   2.213
68385W        W28130  12.314  20.573   4.644
68386W        W28131  20.125  34.017  11.457
68387W        W28132   3.866  37.947   4.817
68388W        W28133  22.173  39.415  14.770
68389W        W28134  24.029  17.734   4.260
68390W        W28135  19.639   0.951  14.414
68391W        W28136  10.342   1.790   1.769
68392W        W28137   7.282  26.967  13.411
68393W        W28138  10.833  18.712  13.456
68394W        W28139  15.772  42.399   0.738
68395W        W28140  24.004   7.817   0.392
68396W        W28141  29.543  10.739   0.364
68397W        W28142  42.885  16.244  13.457
68398W        W28143  16.171  38.359   4.284
68399W        W28144  42.943  39.423   1.858
68400W        W28145  28.604  37.558  10.412
68401W        W28146  30.562  28.440  14.942
68402W        W28147  31.478   4.808   3.378
68403W        W28148  20.733  10.771   1.376
68404W        W28149   1.323  14.802  10.492
68405W        W28150  16.806  42.467   3.317
68406W        W28151  11.359   9.663  13.886
68407W        W28152  30.918  33.113  14.968
68408W        W28153   6.920  28.456  12.038
68409W        W28154   4.444  28.049   3.173
68410W        W28155  36.054  28.988  11.536
68411W        W28156  10.194  29.994   4.764
68412W        W28157  27.095  31.936  13.046
68413W        W28158   5.314  20.228  10.548
68414W        W28159  21.659   7.673  13.504
68415W        W28160  20.144  22.218   0.871
68416W        W28161  15.820  43.276   3.201
68417W        W28162   9.652  11.786  14.819
68418W        W28163   7.712  22.234   1.450
68419W        W28164  28.999  29.634   1.912
68420W        W28165  29.157  35.470   0.924
68421W        W28166  24.538  28.528  10.932
68422W        W28167  15.225  16.650   0.295
68423W        W28168  38.983  16.074   3.320
68424W        W28169  11.149  29.108  12.881
68425W        W28170  16.162  15.094  13.968
68426W        W28171  12.652  31.135  14.282
68427W        W28172  16.763   4.246   4.693
68428W        W28173  33.048  18.111  12.006
68429W        W28174  36.458  30.584  10.576
68430W        W28175   2.315  38.967   4.710
68431W        W28176  38.827   8.338   4.351
68432W        W28177  31.637   5.702   0.805
68433W        W28178  41.385  20.714   2.189
68434W        W28179  10.168  10.353  14.943
68435W        W28180   9.821  41.831   2.235
68436W        W28181  17.223  37.388  14.515
68437W        W28182  43.326  43.785   3.827
68438W        W28183   1.762  28.160  10.566
68439W        W28184  19.621  14.310   3.842
68440W        W28185   0.416  35.958   5.309
68441W        W28186  38.958   6.203   1.270
68442W        W28187  17.617  14.181  12.580
68443W        W28188  32.418  41.433  12.995
68444W        W28189  41.471  22.552  13.812
68445W        W28190   4.293  21.253  13.339
68446W        W28191  24.981  23.019   1.928
68447W        W28192  12.762  39.913   1.259
68448W        W28193  44.786  12.170  14.354
68449W        W28194  12.618  13.787   1.223
68450W        W28195  18.566  13.334  11.526
68451W        W28196  21.706  32.452  10.493
68452W        W28197  44.933  37.581   3.378
68453W        W28198   5.366  39.348  14.455
68454W        W28199  17.188  21.645  11.511
68455W        W28200  36.885   9.206   0.443
68456W        W28201   9.677  30.525  12.947
68457W        W28202   1.453  13.181  11.575
68458W        W28203  44.860  27.490   1.229
68459W        W28204   3.777   0.882   0.374
68460W        W28205  22.082  39.872  12.541
68461W        W28206  12.149   8.866   1.361
68462W        W28207   1.885   2.860  11.097
68463W        W28208   3.238  44.305   4.184
68464W        W28209  35.581   7.191  12.925
68465W        W28210   4.430  36.010  12.059
68466W        W28211  35.102  38.484   1.815
68467W        W28212   7.247  32.970   2.664
68468W        W28213  38.980  44.351  13.995
68469W        W28214  30.961  14.828  11.887
68470W        W28215  37.048  24.138   4.638
68471W        W28216  37.514  29.530  11.101
68472W        W28217  12.734   3.746  12.569
68473W        W28218   5.257  11.360  12.431
68474W        W28219   9.732  16.121  10.553
68475W        W28220  41.995   1.362  12.501
68476W        W28221  26.988  28.183   9.970
68477W        W28222  24.997  30.422   2.249
68478W        W28223   5.701  15.193  11.081
68479W        W28224   2.266  19.675   3.316
68480W        W28225  21.212  44.943  10.089
68481W        W28226  35.570   1.343   1.781
68482W        W28227  17.279  32.982   0.745
68483W        W28228  24.153   5.393  13.417
68484W        W28229  38.052   4.374   0.349
68485W        W28230   4.835  21.189   0.270
68486W        W28231  28.555  20.607   2.685
68487W        W28232   6.270   3.248  12.418
68488W        W28233  30.616  16.272   0.916
68489W        W28234  16.615  34.983  10.588
68490W        W28235  17.786   8.265   0.739
68491W        W28236  34.958   0.870   4.340
68492W        W28237  32.462  20.242   3.356
68493W        W28238  30.917  10.650   4.817
68494W        W28239  26.103   4.712   0.465
68495W        W28240  41.309   2.252   0.402
68496W        W28241  38.366  21.688  13.898
68497W        W28242  34.987   7.417  14.392
68498W        W28243  40.454  31.911  10.930
68499W        W28244   2.311  36.480   3.240
68500W        W28245  28.179  40.872  10.501
68501W        W28246  14.275  34.040   1.315
68502W        W28247  24.996  25.173   4.727
68503W        W28248  14.801   4.422  14.350
68504W        W28249  23.214  33.540  12.577
68505W        W28250  37.413  14.607  10.621
68506W        W28251  12.235  23.544   4.176
68507W        W28252  14.635  43.927   3.301
68508W        W28253  33.534  30.442  11.868
68509W        W28254  23.068  25.650   0.426
68510W        W28255   5.230   9.702  14.788
68511W        W28256   4.325  40.312   4.217
68512W        W28257  38.074  17.730   0.793
68513W        W28258   4.301   9.673  11.901
68514W        W28259  37.907  21.070   3.321
68515W        W28260  23.098  44.806  13.444
68516W        W28261   0.927   4.759   4.668
68517W        W28262   8.255   2.880  11.956
68518W        W28263  14.298  22.553  10.578
68519W        W28264   1.891  14.597   0.315
68520W        W28265   9.714   1.904  11.062
68521W        W28266   2.393   2.943  13.541
68522W        W28267  19.176  34.419  13.928
68523W        W28268  39.336  40.892   2.225
68524W        W28269  34.106  29.518  13.494
68525W        W28270  12.670  23.126   0.454
68526W        W28271  29.553  14.739   1.792
68527W        W28272  20.692  22.708   3.846
68528W        W28273  26.101  11.720   1.810
68529W        W28274   6.743  43.374   3.351
68530W        W28275  27.580   1.768   2.894
68531W        W28276  15.805  13.821  11.947
68532W        W28277   8.705  31.533   0.846
68533W        W28278  12.674   8.860   1.730
68534W        W28279  44.852  38.352  12.994
68535W        W28280   3.754  24.589   3.655
68536W        W28281   6.767  25.704  12.850
68537W        W28282  13.310   5.693  13.541
68538W        W28283   9.321  42.955   3.742
68539W        W28284   1.846  10.749   0.728
68540W        W28285  28.966  10.729   2.295
68541W        W28286  11.634  11.835  11.458
68542W        W28287  12.714  31.124  14.958
68543W        W28288   9.653  21.752   3.869
68544W        W28289  25.694   3.261   2.719
68545W        W28290  29.025  30.963   2.746
68546W        W28291  26.520  43.854  12.912
68547W        W28292   0.914  34.422  11.444
68548W        W28293   5.237  19.209  11.589
68549W        W28294  38.006  21.095   2.843
68550W        W28295   9.315  27.639  14.505
68551W        W28296   2.320  42.491   3.725
68552W        W28297  10.181  10.254  13.456
68553W        W28298   1.259  30.073   3.262
68554W        W28299   2.726  42.384   0.339
68555W        W28300  32.100  17.109  13.362
68556W        W28301  19.260  15.671   0.397
68557W        W28302  25.100  20.531  14.771
68558W        W28303  25.636  28.017  12.038
68559W        W28304  40.930  11.352  14.323
68560W        W28305  36.353  44.835  12.922
68561W        W28306  23.238  41.518  12.373
68562W        W28307   9.851  24.974   1.361
68563W        W28308   5.739  30.024  14.450
68564W        W28309  33.020   8.885  14.433
68565W        W28310  31.511  19.261  14.344
68566W        W28311  38.354  15.302   1.272
68567W        W28312  15.727  32.983   3.196
68568W        W28313  44.806  31.519  11.528
68569W        W28314  17.249   3.896   4.241
68570W        W28315  42.961  21.539  10.504
68571W        W28316  25.487  44.453  10.557
68572W        W28317  42.430  18.727  11.855
68573W        W28318  12.303  20.746   2.903
68574W        W28319  25.703  44.422   4.622
68575W        W28320  24.041   5.265   4.305
68576W        W28321  28.043  21.085  14.401
68577W        W28322   6.918  24.517  14.334
68578W        W28323  38.346  21.549  11.383
68579W        W28324  36.482  33.578  14.926
68580W        W28325  26.523  27.681   1.872
68581W        W28326   7.836   4.801   3.748
68582W        W28327   9.173  41.397   1.215
68583W        W28328   8.271  37.388   1.299
68584W        W28329  40.914  44.384  10.993
68585W        W28330  44.809  35.907  12.440
68586W        W28331  35.430  13.345  13.042
68587W        W28332  31.139  24.170   2.855
68588W        W28333   7.362  38.941   3.285
68589W        W28334  22.048  29.436   1.365
68590W        W28335  13.299  38.874   2.207
68591W        W28336   5.704  17.664  10.129
68592W        W28337  27.460  14.205   2.263
68593W        W28338   8.792  33.503  11.610
68594W        W28339   8.379  22.072   0.927
68595W        W28340  21.134   6.892   0.400
68596W        W28341   9.676   4.716  14.356
68597W        W28342  33.123  34.092   0.385
68598W        W28343  18.700  12.751   1.288
68599W        W28344  29.095  15.323  13.033
68600W        W28345   2.789  18.059   2.364
68601W        W28346  40.828  44.453  10.094
68602W        W28347  34.419  18.718   3.246
68603W        W28348  29.073  39.826   2.792
68604W        W28349  34.103   1.316  11.026
68605W        W28350  13.623  42.919  12.470
68606W        W28351   1.831  20.708   3.150
68607W        W28352  14.656   8.879  12.349
68608W        W28353  30.534  22.662  11.482
68609W        W28354  35.437  31.978   3.277
68610W        W28355  42.974  11.239  14.895
68611W        W28356  19.159  25.996   0.858
68612W        W28357  36.477  34.019  14.292
68613W        W28358   9.862  11.846  12.014
68614W        W28359  39.057  24.646   1.898
68615W        W28360  39.905   7.813  10.981
68616W        W28361   5.238  43.396  14.337
68617W        W28362  35.555  11.851   1.816
68618W        W28363   2.373   6.814  13.307
68619W        W28364  13.707  13.804   0.805
68620W        W28365  26.475  43.983   4.674
68621W        W28366  25.218   3.448   4.198
68622W        W28367   6.374  44.328   1.915
68623W        W28368  25.522   8.829   5.115
68624W        W28369  38.952   2.732  11.564
68625W        W28370  13.296   6.885   0.393
68626W        W28371  27.459  35.876  14.304
68627W        W28372   0.409   1.422   3.246
68628W        W28373  31.952   9.394  11.040
68629W        W28374  15.325  22.220   3.733
68630W        W28375  17.669   3.803   0.806
68631W        W28376  20.719  13.110   3.222
68632W        W28377  36.475  35.571   2.205
68633W        W28378   2.298   6.412   2.271
68634W        W28379  40.919  42.340   4.640
68635W        W28380  20.216   8.767   1.836
68636W        W28381  32.105  27.998  11.563
68637W        W28382  11.312  10.826   1.302
68638W        W28383  42.358  20.244   2.775
68639W        W28384   7.331  41.471  11.541
68640W        W28385  27.015  38.849   3.379
68641W        W28386  34.608  25.174  11.097
68642W        W28387   4.716  34.971   2.402
68643W        W28388  41.449  12.143   2.682
68644W        W28389  13.301   9.232   3.161
68645W        W28390  10.764  40.823   3.342
68646W        W28391  31.525  25.607  13.420
68647W        W28392  10.357  13.242  13.368
68648W        W28393  35.525  33.390  14.970
68649W        W28394  19.643  28.598  11.045
68650W        W28395  25.578  34.612   1.215
68651W        W28396  15.179  42.509  11.425
68652W        W28397   4.862  14.178  11.546
68653W        W28398  37.891  20.211   2.782
68654W        W28399   0.978   7.371  14.899
68655W        W28400  25.626   1.325   4.178
68656W        W28401  26.975  31.923   0.753
68657W        W28402  38.976  11.194  10.427
68658W        W28403  25.629  43.401   1.708
68659W        W28404   9.374   6.361   2.861
68660W        W28405  21.546   4.216   3.171
68661W        W28406  42.485  33.041   4.611
68662W        W28407   7.895  36.391   0.244
68663W        W28408   4.369  22.146  14.379
68664W        W28409  33.051  23.617  14.800
68665W        W28410   0.453  31.938  11.404
68666W        W28411   7.850  42.445  13.849
68667W        W28412   9.661  23.146  13.889
68668W        W28413  36.984  18.770   2.761
68669W        W28414  10.711   3.731  10.464
68670W        W28415   1.849  10.225   2.671
68671W        W28416  37.897   0.461  12.952
68672W        W28417  29.536  30.578   4.612
68673W        W28418  28.463  24.539   0.432
68674W        W28419  32.922  33.442  12.947
68675W        W28420   6.218   6.877   2.727
68676W        W28421  23.125  17.209  10.618
68677W        W28422  12.270  19.275   0.825
68678W        W28423   7.180  39.386  14.426
68679W        W28424  35.388  31.133   0.422
68680W        W28425  28.477  14.299   3.772
68681W        W28426   0.355  12.790   0.844
68682W        W28427  43.508  31.417   0.460
68683W        W28428  16.170  17.636  10.611
68684W        W28429  33.999   7.231   0.830
68685W        W28430  35.978   6.316   4.132
68686W        W28431  31.536  10.798  12.985
68687W        W28432  28.014  15.741  13.935
68688W        W28433  37.488  13.187   0.764
68689W        W28434   0.824   3.753   2.325
68690W        W28435  44.300  31.435  10.960
68691W        W28436  43.283   5.749   3.186
68692W        W28437  20.208  21.752  10.644
68693W        W28438  18.063  25.631  11.885
68694W        W28439  33.917  26.624   1.330
68695W        W28440  43.447   2.298   2.249
68696W        W28441   1.783  16.194  11.409
68697W        W28442  33.385  23.731   0.306
68698W        W28443  30.057   0.806   2.363
68699W        W28444  21.618   4.943   9.956
68700W        W28445  27.063  38.523   0.849
68701W        W28446  37.080  34.501  11.107
68702W        W28447  21.528  23.986  10.933
68703W        W28448  30.589  13.221   4.602
68704W        W28449   6.899   2.250  14.467
68705W        W28450  30.609  22.678   2.675
68706W        W28451  12.671  12.699   2.672
68707W        W28452  33.936  30.015   5.304
68708W        W28453  41.832  36.365  12.901
68709W        W28454  16.615  31.462  10.921
68710W        W28455  34.425  36.009   2.758
68711W        W28456   9.161  38.991   2.740
68712W        W28457  35.419  13.783   3.867
68713W        W28458   6.265  36.576  14.915
68714W        W28459  25.674  26.199   1.322
68715W        W28460  17.594  18.288   1.700
68716W        W28461  44.909   5.724  14.774
68717W        W28462  21.195   9.294   2.214
68718W        W28463   3.340  20.229   4.799
68719W        W28464  21.072  17.279   5.118
68720W        W28465   1.953  22.996   2.738
68721W        W28466  40.371  18.087  14.761
68722W        W28467  24.511  44.753  10.971
68723W        W28468   8.736  15.133   1.408
68724W        W28469   9.152   2.960   0.290
68725W        W28470  10.669  36.043   1.337
68726W        W28471  42.879   5.435  14.284
68727W        W28472  17.219  36.034   1.709
68728W        W28473  18.174  19.565  12.406
68729W        W28474  24.630  41.889   2.343
68730W        W28475  27.980  14.817  12.853
68731W        W28476  35.597  35.379   1.775
68732W        W28477   6.744  19.575   0.895
68733W        W28478  43.871  12.850  12.948
68734W        W28479  28.089  26.508   4.660
68735W        W28480  10.693  24.667  13.036
68736W        W28481  14.213  39.887   4.226
68737W        W28482  34.369  22.204  13.846
68738W        W28483   5.315  32.925  11.959
68739W        W28484  22.635  31.006   2.376
68740W        W28485   3.348  41.356   2.353
68741W        W28486   5.281  40.978   0.963
68742W        W28487  12.617   6.387  13.883
68743W        W28488  28.030  25.468   2.210
68744W        W28489  35.570  31.438   4.808
68745W        W28490   5.200   4.367  14.483
68746W        W28491   5.224  18.771  13.534
68747W        W28492  26.037  44.488   0.949
68748W        W28493  26.093  16.228  14.932
68749W        W28494   4.352   6.285   4.646
68750W        W28495   0.927  37.341   4.770
68751W        W28496  18.186  37.936   2.822
68752W        W28497  25.013   7.251  14.366
68753W        W28498  29.171  24.084   3.182
68754W        W28499  22.199  16.139   1.774
68755W        W28500  40.368  37.382  13.970
68756W        W28501  10.673  24.141  14.508
68757W        W28502  11.206  44.931  12.428
68758W        W28503  19.662  17.703   3.303
68759W        W28504   4.340  15.818   4.208
68760W        W28505  26.502   8.752  14.385
68761W        W28506   5.282   2.737  12.418
68762W        W28507  12.746   0.920  12.834
68763W        W28508  22.615  16.625   1.311
68764W        W28509  24.995  33.568   1.335
68765W        W28510  11.147  44.345  11.971
68766W        W28511  37.532  25.199  11.949
68767W        W28512  28.471  14.761  10.585
68768W        W28513  43.272  33.058   3.774
68769W        W28514  10.768  41.498   0.747
68770W        W28515  24.509  24.591  11.068
68771W        W28516  29.057  35.087   1.921
68772W        W28517  24.057  25.127   5.215
68773W        W28518  24.501  42.878  14.440
68774W        W28519   7.342  37.018  11.883
68775W        W28520  18.064  39.431   3.861
68776W        W28521  16.720  33.003  13.058
68777W        W28522  24.722   2.864  12.572
68778W        W28523  19.206  28.489   4.160
68779W        W28524  30.579  15.161  11.914
68780W        W28525   6.700  29.456   1.354
68781W        W28526   1.332   7.688   1.927
68782W        W28527  38.430  12.654   2.297
68783W        W28528  24.582  43.375   2.237
68784W        W28529  36.978   5.383   3.631
68785W        W28530  42.321   3.362  12.015
68786W        W28531  19.114  39.893  11.107
68787W        W28532  12.127  24.021   2.691
68788W        W28533  26.965  41.040   3.807
68789W        W28534  18.212  42.490  13.479
68790W        W28535  43.989  36.578  10.563
68791W        W28536   1.770  21.240  14.917
68792W        W28537  32.897  35.376  12.991
68793W        W28538  12.660  21.242  11.499
68794W        W28539  20.205  10.191  14.759
68795W        W28540  40.437  21.180   3.747
68796W        W28541   2.880  25.203   0.252
68797W        W28542  24.183  24.009  11.530
68798W        W28543  36.489  43.814   3.850
68799W        W28544  33.958  35.553   3.633
68800W        W28545   5.848  13.653  11.987
68801W        W28546  34.483  19.726   1.719
68802W        W28547   7.750  41.320  14.440
68803W        W28548  13.845  14.790   4.137
68804W        W28549  16.105  34.424  14.371
68805W        W28550  16.194  28.152   0.362
68806W        W28551  10.214  13.279  14.934
68807W        W28552  39.479  31.129  12.844
68808W        W28553  12.832  31.485   1.830
68809W        W28554  31.502  44.906  14.500
68810W        W28555   3.823  43.413  11.092
68811W        W28556  28.505  16.164  14.021
68812W        W28557  40.851  36.398  11.920
68813W        W28558  26.479  37.534   0.332
68814W        W28559  43.807   2.754   3.783
68815W        W28560  10.146  37.400  11.529
68816W        W28561  25.604   6.920  14.457
68817W        W28562  16.095  43.846  14.030
68818W        W28563  11.248  32.927   2.219
68819W        W28564  30.926  39.840  13.998
68820W        W28565   3.725  17.739  13.821
68821W        W28566  42.822  11.308  13.950
68822W        W28567  36.517  28.638   1.880
68823W        W28568  24.597  16.784   0.446
68824W        W28569  31.127  13.246  10.495
68825W        W28570   4.925   7.864   1.446
68826W        W28571  31.522  37.891   0.325
68827W        W28572  22.124  13.132   1.884
68828W        W28573  41.835  30.543  11.509
68829W        W28574  21.246  25.166   4.715
68830W        W28575  41.462  39.057  13.999
68831W        W28576  20.175  25.510  12.383
68832W        W28577  29.072  20.060   3.332
68833W        W28578  11.643   2.442   3.756
68834W        W28579  27.187  35.875   4.197
68835W        W28580  38.526  25.554  13.884
68836W        W28581  12.307  13.641  10.421
68837W        W28582  37.973  43.325  11.937
68838W        W28583   5.776  38.901  11.545
68839W        W28584   4.403  23.598   4.630
68840W        W28585  11.844   8.168   4.301
68841W        W28586  39.055  35.936   1.334
68842W        W28587   0.405  27.570   3.752
68843W        W28588  18.761  33.998  10.951
68844W        W28589  43.016  10.149   4.802
68845W        W28590  13.339  26.656  10.129
68846W        W28591   8.769  31.055  10.645
68847W        W28592   2.324  26.584   1.261
68848W        W28593   4.763  43.871  11.517
68849W        W28594   4.921  43.385   1.348
68850W        W28595  11.762   1.788   1.843
68851W        W28596  22.202  10.860   1.250
68852W        W28597  33.531   2.891   2.856
68853W        W28598  44.980  12.290  12.514
68854W        W28599  25.200   1.782   1.225
68855W        W28600   6.765  28.493   1.879
68856W        W28601   7.887  40.845  12.400
68857W        W28602  16.174  44.871  11.127
68858W        W28603  18.136   7.767  12.034
68859W        W28604  38.434  21.040  10.919
68860W        W28605  13.681  23.646  10.532
68861W        W28606  23.122  13.323   1.911
68862W        W28607  18.745  20.747   0.383
68863W        W28608  22.604  26.166   4.300
68864W        W28609   0.933   7.696   0.442
68865W        W28610  44.791  18.211   1.364
68866W        W28611  44.444  44.008  12.580
68867W        W28612  32.424  29.081  13.957
68868W        W28613  30.066  26.072  14.294
68869W        W28614  12.148  23.998   1.321
68870W        W28615  35.014  38.943  12.085
68871W        W28616  26.192  16.811  12.835
68872W        W28617  21.071  18.731   4.704
68873W        W28618  18.291  11.626  11.980
68874W        W28619  43.341  22.078   2.739
68875W        W28620  41.937  32.487  14.949
68876W        W28621  29.919  25.136   3.856
68877W        W28622  13.716  26.990   2.894
68878W        W28623  27.580  41.836   0.391
68879W        W28624  17.715  30.990   1.386
68880W        W28625  14.131  20.151   3.655
68881W        W28626  30.518  44.371  12.484
68882W        W28627  35.404   1.342   0.270
68883W        W28628  18.262  23.639  11.076
68884W        W28629  35.493  24.581  12.492
68885W        W28630   3.294  11.197   0.456
68886W        W28631   4.764   1.737  12.981
68887W        W28632   1.404  13.175   3.173
68888W        W28633  17.731  31.558  14.451
68889W        W28634  43.368  13.787  13.798
68890W        W28635  26.556  33.416  11.402
68891W        W28636  40.440  26.198  13.479
68892W        W28637  30.080  42.306   2.891
68893W        W28638  30.112  17.229   1.716
68894W        W28639  27.551  27.530   2.331
68895W        W28640  22.163  36.526  10.946
68896W        W28641  29.993  28.617   3.344
68897W        W28642  28.532  10.157   4.776
68898W        W28643   4.245   5.343  10.511
68899W        W28644  42.509  25.032  12.906
68900W        W28645  34.100  36.021   1.413
68901W        W28646   4.391  12.757  14.839
68902W        W28647  22.156  39.860   3.801
68903W        W28648  31.125  24.215   4.252
68904W        W28649  36.897   4.750  14.031
68905W        W28650  38.563  33.890   0.802
68906W        W28651  38.960  38.511  12.874
68907W        W28652   8.781  19.077   4.329
68908W        W28653  42.012  35.886   1.712
68909W        W28654   9.214  32.948  11.575
68910W        W28655  36.061  23.216   1.443
68911W        W28656  28.062  40.547   3.714
68912W        W28657   0.446  29.956   0.766
68913W        W28658  10.760  21.757  12.402
68914W        W28659   3.722  32.523   3.677
68915W        W28660  11.801  11.262  10.081
68916W        W28661  35.955   2.785   0.900
68917W        W28662  10.779  22.606  12.000
68918W        W28663  43.854  40.052  13.438
68919W        W28664   2.959  27.945  12.908
68920W        W28665  43.781  43.349  12.413
68921W        W28666   0.468  28.085  13.418
68922W        W28667  35.084  20.265  13.359
68923W        W28668  33.106  24.591   4.605
68924W        W28669  27.462  38.018  12.484
68925W        W28670  10.295  23.617  10.619
68926W        W28671  16.761  38.894   3.853
68927W        W28672  39.522   1.327   1.765
68928W        W28673  13.774   2.318  13.371
68929W        W28674  11.793  20.739  13.426
68930W        W28675  39.970  10.643  14.338
68931W        W28676  41.986  27.033   0.949
68932W        W28677  33.046   0.380   1.727
68933W        W28678  31.060  30.646  13.820
68934W        W28679  29.542  38.980   2.193
68935W        W28680   2.316  15.693  11.010
68936W        W28681   6.363  16.197   4.642
68937W        W28682  44.949  28.997  13.993
68938W        W28683  12.634   2.776   1.704
68939W        W28684  22.167   0.961   1.770
68940W        W28685  22.567  18.206   1.760
68941W        W28686  28.996   8.774  12.873
68942W        W28687  13.623   1.946   4.817
68943W        W28688  12.249   2.304  12.908
68944W        W28689  20.135  11.143   1.705
68945W        W28690  27.009  44.459  11.572
68946W        W28691  38.381  21.615  14.352
68947W        W28692  15.231  16.665   1.253
68948W        W28693  17.677  24.507  10.463
68949W        W28694  25.522   9.294  13.496
68950W        W28695  22.117  18.632   4.839
68951W        W28696  18.185  25.670   1.720
68952W        W28697  38.434   4.308  12.387
68953W        W28698   0.396  41.496   1.261
68954W        W28699  35.930  37.903   1.891
68955W        W28700  30.582  14.832  11.870
68956W        W28701   6.287  44.789   2.266
68957W        W28702  41.403  21.105  11.450
68958W        W28703  20.543   0.857   1.810
68959W        W28704  35.057  14.709   3.696
68960W        W28705   7.878  33.005   2.198
68961W        W28706   1.742  32.987   3.844
68962W        W28707  38.004  30.433  14.844
68963W        W28708  28.023  25.633   2.695
68964W        W28709  10.228  44.295  14.326
68965W        W28710  38.430  32.913  11.936
68966W        W28711  18.790  12.171   2.270
68967W        W28712  20.151  31.493   9.490
68968W        W28713  17.115  34.036   5.198
68969W        W28714  28.088   1.315   4.206
68970W        W28715  16.172  43.833  12.358
68971W        W28716  17.714   9.827   1.236
68972W        W28717  26.977  33.547   9.556
68973W        W28718  11.866  43.950   4.739
68974W        W28719  36.849  27.139   0.732
68975W        W28720  18.723  41.315  14.468
68976W        W28721   2.452  29.998   9.673
68977W        W28722  22.126  28.554   1.355
68978W        W28723  15.245  24.035   3.353
68979W        W28724  37.010  44.971  10.930
68980W        W28725   2.230  17.696  14.015
68981W        W28726   3.827  27.127  13.537
68982W        W28727  18.095  39.844  12.951
68983W        W28728   5.438  37.858   0.394
68984W        W28729  11.283   9.283   4.650
68985W        W28730  22.996  27.967   0.914
68986W        W28731  33.600  32.029   0.955
68987W        W28732  38.949  33.087   3.301
68988W        W28733  20.642  32.899  13.915
68989W        W28734   9.671  25.077   4.703
68990W        W28735   8.802  20.076  13.004
68991W        W28736  14.697  28.604  10.466
68992W        W28737  22.188  40.377  12.347
68993W        W28738  34.960  22.186   1.702
68994W        W28739  14.121  23.491   4.769
68995W        W28740  27.085  31.010   2.209
68996W        W28741  25.670  33.466   0.967
68997W        W28742  28.474  31.424  14.320
68998W        W28743  26.689   5.785  11.381
68999W        W28744  13.715   6.397   3.642
69000W        W28745  44.273   6.295  13.940
69001W        W28746  17.742  39.479  14.794
69002W        W28747  41.956  17.757   4.337
69003W        W28748   4.729  22.610  12.536
69004W        W28749  33.061  22.654   3.826
69005W        W28750   7.281  13.612  10.622
69006W        W28751   6.394  42.498   4.604
69007W        W28752  11.348  18.238   4.191
69008W        W28753  28.019   6.765   0.737
69009W        W28754  23.088   0.287  11.535
69010W        W28755  21.735  13.618  12.084
69011W        W28756  19.119  14.713   1.835
69012W        W28757   6.244  32.614   3.763
69013W        W28758   4.740  24.649   1.353
69014W        W28759  37.012  24.069   3.693
69015W        W28760  39.510   8.727  12.436
69016W        W28761  39.428  17.261  13.006
69017W        W28762  31.522  43.928   2.334
69018W        W28763  18.568  12.739   0.925
69019W        W28764  37.561  13.669   3.271
69020W        W28765  24.143  37.559   1.701
69021W        W28766   5.228  28.083   0.404
69022W        W28767   0.890  19.567  11.908
69023W        W28768  15.101  22.731   0.358
69024W        W28769   6.287   7.401   0.441
69025W        W28770  36.902  43.819  12.025
69026W        W28771   7.820  29.105   4.734
69027W        W28772   4.860  38.376   0.832
69028W        W28773  17.117  10.297   5.302
69029W        W28774  14.286  42.360   3.330
69030W        W28775  25.579  14.693   0.354
69031W        W28776  23.706  37.889   0.359
69032W        W28777  23.582  35.067   3.833
69033W        W28778  11.638  42.305   4.636
69034W        W28779  17.145  31.075  12.407
69035W        W28780  27.485  35.069  11.488
69036W        W28781  37.477  15.145   3.242
69037W        W28782   0.978  27.030  12.539
69038W        W28783  33.497  15.771   2.782
69039W        W28784  19.603  30.939   1.886
69040W        W28785   5.386  37.903   3.735
69041W        W28786  30.553   2.914   4.199
69042W        W28787   5.920  24.169  12.349
69043W        W28788  32.026  27.459  13.324
69044W        W28789   3.785  38.512  13.830
69045W        W28790  43.444  25.114   1.236
69046W        W28791   4.208  42.970  13.383
69047W        W28792  33.002  44.776   4.757
69048W        W28793  10.286  39.970   3.857
69049W        W28794  24.087  25.477  11.570
69050W        W28795   8.211  30.579  12.845
69051W        W28796  12.324  12.343  14.881
69052W        W28797  27.942  16.107   0.483
69053W        W28798   1.934  32.130  10.644
69054W        W28799  27.587  36.399   0.416
69055W        W28800  23.099   2.855  11.431
69056W        W28801  43.883  14.833  10.529
69057W        W28802   9.223   2.401   0.481
69058W        W28803  12.127  30.483  13.021
69059W        W28804  17.600  42.309  13.542
69060W        W28805  38.056   8.320   2.352
69061W        W28806  13.808  20.146   2.300
69062W        W28807   9.370  44.953   0.447
69063W        W28808   1.434   1.247   0.937
69064W        W28809  33.542   8.747   1.771
69065W        W28810   4.891  38.501   3.642
69066W        W28811  15.675   3.309   3.257
69067W        W28812  42.368   3.926  13.849
69068W        W28813  21.659  23.203   3.198
69069W        W28814  41.979   0.844   1.290
69070W        W28815  23.671  34.029   1.848
69071W        W28816  39.439  15.250  10.568
69072W        W28817  31.935  16.779  10.093
69073W        W28818   5.328  33.931   2.762
69074W        W28819  25.611  35.484  12.892
69075W        W28820  32.608  37.478   4.297
69076W        W28821   8.324  12.822   4.644
69077W        W28822  26.565  17.769   1.934
69078W        W28823  32.585  15.735   2.891
69079W        W28824  39.361  21.564   4.220
69080W        W28825   2.780  41.999  10.443
69081W        W28826  27.992   7.735   0.275
69082W        W28827  42.813  31.926  13.008
69083W        W28828  26.169   1.944   1.696
69084W        W28829  20.041  23.191   2.763
69085W        W28830  31.561  21.029   2.772
69086W        W28831  16.622  13.739  13.483
69087W        W28832  31.447  25.189  11.955
69088W        W28833   1.968  43.940   4.166
69089W        W28834  35.042  32.033   4.225
69090W        W28835  15.224  31.410   0.404
69091W        W28836  14.172  15.179  14.007
69092W        W28837   4.747  29.547   0.873
69093W        W28838  34.882  28.608  12.862
69094W        W28839   2.445  13.652   1.773
69095W        W28840   6.728  43.459   0.948
69096W        W28841  44.784  17.583   5.189
69097W        W28842   7.700  39.369   4.830
69098W        W28843   7.879  34.007  12.024
69099W        W28844  26.643  19.710  14.308
69100W        W28845  30.107   7.205  11.913
69101W        W28846  20.694   0.439   2.809
69102W        W28847   9.358   6.874   1.448
69103W        W28848   5.819  43.875  13.040
69104W        W28849  35.440   0.821   4.668
69105W        W28850  38.404  41.023  12.913
69106W        W28851  41.461   5.210   2.693
69107W        W28852  40.002  31.022   0.423
69108W        W28853  17.100   2.354   1.838
69109W        W28854  44.802   9.282   4.820
69110W        W28855  32.959  18.633   3.323
69111W        W28856  35.374  22.172   0.859
69112W        W28857   6.804  10.691  10.611
69113W        W28858   1.881  34.555   2.696
69114W        W28859  34.513  25.113   3.260
69115W        W28860  12.326  28.097   2.668
69116W        W28861  19.594  27.520   3.735
69117W        W28862   6.336   1.936  13.341
69118W        W28863  11.231  35.964   4.646
69119W        W28864  26.134  26.093  12.044
69120W        W28865  18.574   5.922   2.381
69121W        W28866   4.911   9.223   0.843
69122W        W28867   3.906  37.554  12.464
69123W        W28868  36.448   6.718  14.358
69124W        W28869  19.129  36.517   2.814
69125W        W28870  11.169  20.253  14.455
69126W        W28871  26.600   5.199  13.853
69127W        W28872   0.358  40.974  12.860
69128W        W28873  13.626   3.222  14.014
69129W        W28874  26.695  24.214   0.256
69130W        W28875  24.504   8.773   2.694
69131W        W28876  22.732   1.259  13.846
69132W        W28877  19.766   0.891  11.874
69133W        W28878   1.308  38.003   4.830
69134W        W28879  14.794  13.660   2.751
69135W        W28880   3.830   2.339  12.960
69136W        W28881  33.518  16.212  11.472
69137W        W28882  43.855  28.180   4.244
69138W        W28883  36.470  20.109  10.010
69139W        W28884  30.598  35.007  12.925
69140W        W28885  36.423  14.136   0.465
69141W        W28886  21.138  17.153  13.379
69142W        W28887  16.164   6.703   2.838
69143W        W28888   0.459  34.422  14.017
69144W        W28889  31.432  14.676  10.581
69145W        W28890  40.906  36.909   0.872
69146W        W28891  10.794  20.183   1.299
69147W        W28892   3.324  23.666  13.488
69148W        W28893  25.163  10.860  11.997
69149W        W28894   4.293  36.867   3.854
69150W        W28895  26.004  10.343   0.245
69151W        W28896  14.122  36.031   2.881
69152W        W28897   7.845   0.823  14.975
69153W        W28898  35.583   1.831   0.397
69154W        W28899  39.488   1.383   4.657
69155W        W28900  43.382  18.191   1.886
69156W        W28901  28.947   4.728   1.370
69157W        W28902  41.363  31.467  13.398
69158W        W28903  22.063   9.386   3.147
69159W        W28904  44.932   3.942  13.327
69160W        W28905  11.272  41.341   4.193
69161W        W28906   4.809   0.464   3.197
69162W        W28907   2.723  30.936  10.433
69163W        W28908  22.733  17.700  13.902
69164W        W28909  33.573   4.917   0.872
69165W        W28910  24.570  29.169  11.470
69166W        W28911   5.789   8.346   0.865
69167W        W28912   0.875  39.905   5.134
69168W        W28913   7.349  11.739   3.674
69169W        W28914  26.998  19.284  12.458
69170W        W28915   6.274  39.359  12.028
69171W        W28916  34.017   7.763   0.740
69172W        W28917   3.924  21.261  14.022
69173W        W28918  36.873  34.601  11.513
69174W        W28919  42.499   9.805   3.827
69175W        W28920  16.178  31.946  12.883
69176W        W28921   5.433  43.393   2.242
69177W        W28922  18.619  39.049  11.872
69178W        W28923  27.020  30.444   1.415
69179W        W28924  15.115  40.416  12.932
69180W        W28925  30.649   3.401   1.408
69181W        W28926  21.059  31.035   3.677
69182W        W28927  22.209  41.332   2.385
69183W        W28928  31.544  28.054  12.877
69184W        W28929   1.924   7.738   4.674
69185W        W28930  41.874   0.299  13.335
69186W        W28931  12.293  33.027   4.315
69187W        W28932  33.383  34.027   1.786
69188W        W28933  22.581  15.641  13.519
69189W        W28934  41.395  20.255   3.153
69190W        W28935  40.494  26.095  12.481
69191W        W28936  12.285  12.133  13.422
69192W        W28937  39.923   0.455  13.952
69193W        W28938  29.484   6.196   4.677
69194W        W28939  20.602  27.031  13.856
69195W        W28940  29.000  30.612   1.319
69196W        W28941  16.108   1.894   1.747
69197W        W28942  20.165  41.992  11.412
69198W        W28943   7.780  15.737  10.470
69199W        W28944  14.595   8.762  11.018
69200W        W28945  42.334  41.833   4.766
69201W        W28946  19.210  27.142  12.096
69202W        W28947  31.108   8.711  11.404
69203W        W28948  21.185  15.589  10.997
69204W        W28949  38.376   6.890   2.346
69205W        W28950  11.676  21.156  13.513
69206W        W28951  26.190   9.886   1.430
69207W        W28952  18.149  18.197  12.844
69208W        W28953   3.721  31.512   3.764
69209W        W28954  20.655   9.256  13.981
69210W        W28955  32.598  25.080  10.955
69211W        W28956   6.818   6.895  13.933
69212W        W28957  43.463   5.712  10.891
69213W        W28958  21.731  21.589   0.765
69214W        W28959   3.369  40.509  13.371
69215W        W28960   7.213   1.843  12.094
69216W        W28961  20.258  32.595  13.486
69217W        W28962   5.766  21.128  14.002
69218W        W28963   1.243   8.208   4.805
69219W        W28964  32.430  25.017  13.794
69220W        W28965  26.588   9.299  10.889
69221W        W28966  37.457  12.265   4.706
69222W        W28967   5.717  10.834   2.735
69223W        W28968   0.918  37.520   1.710
69224W        W28969  44.416   0.901  14.851
69225W        W28970  12.647   7.741   2.407
69226W        W28971  39.909  25.685  14.923
69227W        W28972  10.263   5.735   2.218
69228W        W28973   7.795  29.448   0.478
69229W        W28974  42.777   7.257   1.319
69230W        W28975  27.450  32.435  13.042
69231W        W28976   6.677  18.581  14.924
69232W        W28977  25.978   1.870  11.402
69233W        W28978  31.019  18.258  14.800
69234W        W28979  44.835  33.091  13.366
69235W        W28980   9.166   8.301   4.245
69236W        W28981  32.982  16.094   0.739
69237W        W28982   7.668   0.480  12.873
69238W        W28983   3.738  39.405  12.989
69239W        W28984  16.686   8.176   3.663
69240W        W28985  14.184  42.448   0.261
69241W        W28986  43.360   3.796   3.309
69242W        W28987   0.350  31.619  13.048
69243W        W28988   9.392  27.967   2.367
69244W        W28989  14.596  34.488  10.612
69245W        W28990  18.236   7.785  14.782
69246W        W28991  25.557  21.614  14.284
69247W        W28992  24.980  37.018   1.391
69248W        W28993  35.465  44.882  13.863
69249W        W28994  28.603  25.173   0.302
69250W        W28995  28.561   0.455   0.810
69251W        W28996  13.709   2.254   2.188
69252W        W28997  25.669   4.936   2.698
69253W        W28998  40.498   2.346  13.515
69254W        W28999  18.135   3.389  14.960
69255W        W29000  43.810  21.111   0.735
69256W        W29001  41.476  40.054   0.856
69257W        W29002  20.562  20.683  11.432
69258W        W29003  40.034  38.453  13.999
69259W        W29004  35.447  37.831   2.191
69260W        W29005  33.051   8.754  13.942
69261W        W29006  10.323   0.365   0.792
69262W        W29007  13.212  29.633  13.378
69263W        W29008  34.443  32.903  11.914
69264W        W29009   1.977  43.515   2.760
69265W        W29010  28.481  16.232   3.277
69266W        W29011  41.975  11.309   1.889
69267W        W29012  19.084  33.931  14.482
69268W        W29013   1.897  33.975  14.318
69269W        W29014  32.904  38.001   4.143
69270W        W29015  37.865  34.054  12.924
69271W        W29016  29.590   2.815  13.030
69272W        W29017  14.319  13.622   4.602
69273W        W29018  37.884   3.334   5.315
69274W        W29019  42.843  33.985  11.503
69275W        W29020  42.358  44.438  13.839
69276W        W29021   8.772  16.293  14.372
69277W        W29022  23.241  35.520   3.832
69278W        W29023  25.192  13.180   3.865
69279W        W29024  25.138   4.368   3.782
69280W        W29025  35.002  24.584  12.856
69281W        W29026  25.679  23.131   3.718
69282W        W29027  19.077  41.000   0.483
69283W        W29028  43.482  14.718  12.358
69284W        W29029  38.362  33.877  11.384
69285W        W29030  29.527  11.802  11.028
69286W        W29031  33.060  38.547   1.250
69287W        W29032  43.946   9.345   4.172
69288W        W29033  16.772  35.962   4.342
69289W        W29034  11.637  17.238  12.891
69290W        W29035  41.903  37.862  12.857
69291W        W29036  30.444  13.107  14.369
69292W        W29037  26.631  29.461   4.640
69293W        W29038  24.102  27.088   4.298
69294W        W29039  21.191  21.511   0.308
69295W        W29040  36.539  33.576   9.963
69296W        W29041   0.488   0.262  11.435
69297W        W29042  44.934  24.689  14.877
69298W        W29043  11.290  26.116   3.361
69299W        W29044  12.298  34.382  12.019
69300W        W29045  34.505  26.192   1.397
69301W        W29046   4.246  32.974   1.850
69302W        W29047  12.738  28.623  13.004
69303W        W29048   5.218  17.125  12.049
69304W        W29049   6.306  25.553  12.562
69305W        W29050   8.356  30.981   2.310
69306W        W29051  16.590  39.467  11.010
69307W        W29052  11.776  37.885   2.326
69308W        W29053  20.260  16.163  14.013
69309W        W29054   5.923  37.409  14.376
69310W        W29055   0.780  28.518   3.783
69311W        W29056  32.595  19.042  13.811
69312W        W29057  13.234   7.332   9.934
69313W        W29058  26.031  29.527   4.249
69314W        W29059   1.836  44.756   2.276
69315W        W29060  36.084  20.107  10.516
69316W        W29061   2.316   9.789  12.948
69317W        W29062  43.964   3.368  10.949
69318W        W29063  14.315  33.464  12.032
69319W        W29064  39.428  25.038  10.620
69320W        W29065  22.241  29.469   2.678
69321W        W29066   4.314  26.678   4.140
69322W        W29067  27.150  17.062  13.820
69323W        W29068  17.102  27.626  11.953
69324W        W29069   6.696   0.912   3.846
69325W        W29070  27.970  12.834  14.462
69326W        W29071  28.620   4.360  10.036
69327W        W29072   2.843  39.918  12.088
69328W        W29073  27.047  15.671  11.940
69329W        W29074  44.373  24.067   3.375
69330W        W29075  32.515  16.163   0.377
69331W        W29076  35.467  22.743   4.767
69332W        W29077  32.009   6.215   0.726
69333W        W29078  28.970  23.534  11.510
69334W        W29079  37.983  15.147  11.544
69335W        W29080  40.814  10.232  12.346
69336W        W29081   2.818   0.476  13.009
69337W        W29082  31.613  39.508  12.412
69338W        W29083  20.073  32.119   3.732
69339W        W29084  12.771  31.959  14.822
69340W        W29085   8.196  22.132  14.872
69341W        W29086  18.155  43.843  12.393
69342W        W29087   8.379  13.705   3.383
69343W        W29088  34.999  19.703   1.873
69344W        W29089   4.912  43.379   1.870
69345W        W29090  20.219  16.074   5.609
69346W        W29091  41.384  26.988   1.276
69347W        W29092   2.950  43.301  10.996
69348W        W29093  26.628  27.651  10.100
69349W        W29094  15.609  43.431  13.364
69350W        W29095  33.495  16.746   1.852
69351W        W29096  31.436   8.376   4.696
69352W        W29097  11.329   0.893  12.923
69353W        W29098  17.263   8.703   0.879
69354W        W29099  36.436  14.754  11.013
69355W        W29100  32.047  20.264  10.105
69356W        W29101  22.171  17.063  11.606
69357W        W29102  23.494  19.230  12.511
69358W        W29103  35.062   1.929   2.306
69359W        W29104  32.592  41.435   1.384
69360W        W29105  32.609  27.997   4.752
69361W        W29106  44.907  12.752   4.807
69362W        W29107  18.249  39.039  12.549
69363W        W29108  28.996   2.247   0.823
69364W        W29109  11.860  12.161   1.794
69365W        W29110  40.817  36.471   3.322
69366W        W29111  42.460  42.795  11.481
69367W        W29112  21.083  14.238   2.737
69368W        W29113  20.759  30.570  12.869
69369W        W29114  30.929  32.099   2.699
69370W        W29115  32.436  19.207   2.304
69371W        W29116  12.670  43.786   0.839
69372W        W29117   1.750  22.228  13.518
69373W        W29118   9.278  13.334   4.780
69374W        W29119  19.752  39.503   1.897
69375W        W29120  33.973  40.825   0.276
69376W        W29121  40.342  40.481  13.536
69377W        W29122  42.451  29.482   0.431
69378W        W29123  16.774   3.335  13.867
69379W        W29124  19.682  11.710   3.766
69380W        W29125  15.278  15.102  11.123
69381W        W29126  32.507  10.803   1.752
69382W        W29127  32.952   8.392  13.009
69383W        W29128  21.128  41.324   4.758
69384W        W29129  26.163  16.729  11.029
69385W        W29130  41.499  44.334   4.699
69386W        W29131  42.025  10.672   4.335
69387W        W29132  12.795  20.096   0.438
69388W        W29133   3.445  31.122  10.501
69389W        W29134  10.368  33.567   1.451
69390W        W29135  34.531   6.292  13.017
69391W        W29136  23.161  18.749   4.238
69392W        W29137  34.110  40.925   4.655
69393W        W29138  38.440  20.613  10.513
69394W        W29139  19.276  26.128  13.535
69395W        W29140  26.062  11.226  11.534
69396W        W29141  42.971  34.428   1.253
69397W        W29142  11.865   1.374   2.320
69398W        W29143  38.047   9.249  13.795
69399W        W29144   4.222  37.830   0.947
69400W        W29145  41.845  40.844  13.021
69401W        W29146  38.858   8.719  11.981
69402W        W29147   0.861  37.052   2.207
69403W        W29148  12.711  44.386  13.853
69404W        W29149  12.631   6.222  13.025
69405W        W29150  34.069  31.476   0.906
69406W        W29151   0.477  32.619   3.717
69407W        W29152  22.723   6.781  12.434
69408W        W29153  16.625  27.172   1.717
69409W        W29154  22.747  13.242   0.941
69410W        W29155  33.098   3.870   1.914
69411W        W29156  20.269  33.604  10.422
69412W        W29157   7.328   8.301   2.244
69413W        W29158  35.963  31.927  11.451
69414W        W29159  22.027  12.629  10.971
69415W        W29160   4.278  31.971  14.307
69416W        W29161  32.528   8.678   3.358
69417W        W29162  16.243  13.209   0.927
69418W        W29163  18.218  26.605   0.290
69419W        W29164  10.749  30.115  14.871
69420W        W29165   6.344  41.519  11.394
69421W        W29166  28.074  39.886  12.416
69422W        W29167  19.167  19.283   3.660
69423W        W29168   9.290  29.117   0.333
69424W        W29169   0.828  20.107   0.340
69425W        W29170  33.092  10.291  14.440
69426W        W29171  39.998   9.352  14.940
69427W        W29172  29.153   0.786   2.887
69428W        W29173  43.892  19.640  14.920
69429W        W29174  32.890  27.177   1.419
69430W        W29175  23.502  14.638  10.993
69431W        W29176  30.121  39.899   3.637
69432W        W29177   6.800  31.407  10.446
69433W        W29178  36.574   3.956   2.845
69434W        W29179  20.144   7.890   1.336
69435W        W29180  15.190  24.980   0.806
69436W        W29181  19.617   4.812   4.149
69437W        W29182  23.089  25.644   3.358
69438W        W29183  21.155   0.382   9.935
69439W        W29184  41.312  38.874   2.890
69440W        W29185  17.108   8.713   2.749
69441W        W29186   9.251   6.818  14.969
69442W        W29187  27.554  44.923  12.825
69443W        W29188  29.439  43.274  10.982
69444W        W29189  25.522   8.358  14.448
69445W        W29190   6.192   9.824  11.568
69446W        W29191  29.670  24.037   2.392
69447W        W29192  43.857   9.388   2.781
69448W        W29193  18.263  12.735   2.680
69449W        W29194  36.841  40.893  11.530
69450W        W29195  12.640  18.684  12.836
69451W        W29196  21.543  38.527  11.420
69452W        W29197  38.032  25.962   3.204
69453W        W29198  39.433  31.965  13.446
69454W        W29199  30.641  15.797   1.355
69455W        W29200  37.520  33.109   0.869
69456W        W29201  44.950  16.187  10.572
69457W        W29202  40.826   0.802   3.355
69458W        W29203  17.196   4.211  13.907
69459W        W29204  14.192  19.041   4.799
69460W        W29205   1.734   4.731  10.627
69461W        W29206   3.740  44.364   3.159
69462W        W29207  14.669   9.192   0.365
69463W        W29208  32.604  41.826   1.354
69464W        W29209  25.634  34.991   5.121
69465W        W29210  41.300  22.087   4.598
69466W        W29211  18.076  37.401  10.054
69467W        W29212  38.997  15.321   0.390
69468W        W29213  31.092  13.714  13.846
69469W        W29214  12.642   9.871  11.393
69470W        W29215  44.485  27.577  13.505
69471W        W29216  37.834  40.454   1.860
69472W        W29217  36.080  26.485  11.403
69473W        W29218   1.733  41.802  10.497
69474W        W29219   9.776  23.584   4.674
69475W        W29220  16.677  14.766   2.187
69476W        W29221  25.138  20.048   1.856
69477W        W29222  20.559  35.568   2.211
69478W        W29223  24.197  16.152   2.765
69479W        W29224  41.468  14.301  10.586
69480W        W29225   7.322  25.624   3.281
69481W        W29226  31.996  16.248   0.792
69482W        W29227   1.866  33.033  12.385
69483W        W29228   0.313   7.706   4.754
69484W        W29229  25.680  17.616   1.910
69485W        W29230  24.223   9.216  14.509
69486W        W29231   4.720  32.410   4.688
69487W        W29232  27.109  32.634   0.856
69488W        W29233   2.877  18.238  11.946
69489W        W29234   1.903  11.653  13.024
69490W        W29235   8.244   2.241  10.479
69491W        W29236  16.675  24.998  13.827
69492W        W29237  11.188  15.785  14.409
69493W        W29238  12.768   1.760   1.915
69494W        W29239  40.337  36.388  14.281
69495W        W29240   1.737  32.033  11.969
69496W        W29241  31.442  23.211  11.869
69497W        W29242   1.961   7.275   0.363
69498W        W29243  15.679   9.173  14.825
69499W        W29244  43.828   3.408   3.239
69500W        W29245  36.520   3.319  10.456
69501W        W29246  24.687  11.692  12.999
69502W        W29247  12.846  30.019  12.455
69503W        W29248  15.160  24.119  10.922
69504W        W29249  23.147   3.261  14.457
69505W        W29250  31.898  25.684  10.412
69506W        W29251   7.377  27.471  10.946
69507W        W29252  25.471   5.346   1.375
69508W        W29253  10.783  16.626  13.792
69509W        W29254  39.458  14.672   2.184
69510W        W29255  41.929   8.287   4.114
69511W        W29256   2.773  36.480   1.762
69512W        W29257  35.102  27.457   2.367
69513W        W29258  24.103   7.817   4.284
69514W        W29259   6.386  10.383   0.796
69515W        W29260  32.119  36.534  13.972
69516W        W29261  38.538  25.649   1.321
69517W        W29262  12.857   8.328   0.859
69518W        W29263  21.248  43.374  14.890
69519W        W29264   7.297   3.288  14.864
69520W        W29265  11.236   5.894   1.750
69521W        W29266   1.416  44.931   1.228
69522W        W29267  20.051  17.603  10.917
69523W        W29268  44.505   4.768   4.188
69524W        W29269  38.910  15.630   0.737
69525W        W29270   6.694  35.395   3.725
69526W        W29271  25.493   3.727  12.939
69527W        W29272  11.240  13.763   1.917
69528W        W29273   6.840   0.916   3.340
69529W        W29274   3.304  27.157   0.865
69530W        W29275  40.797  40.949   3.200
69531W        W29276  24.604  24.123  10.918
69532W        W29277  42.032  22.108   2.181
69533W        W29278  35.909  28.463  11.068
69534W        W29279   1.952   1.932  11.029
69535W        W29280  14.590   2.321  10.514
69536W        W29281   9.301   3.337   4.659
69537W        W29282   4.226  34.966   4.324
69538W        W29283  38.453  15.652  13.880
69539W        W29284  33.495  30.082   4.600
69540W        W29285  43.013  30.914   5.724
69541W        W29286  11.773  18.259   1.807
69542W        W29287  40.814  21.056   2.244
69543W        W29288   0.876  42.430   1.760
69544W        W29289   3.732  16.788   5.597
69545W        W29290  37.068   0.288   0.466
69546W        W29291  28.540  17.296  13.518
69547W        W29292   5.332  14.735   3.644
69548W        W29293  25.703  10.777   1.231
69549W        W29294  17.218  42.939   2.404
69550W        W29295  44.883  10.853  13.830
69551W        W29296  20.548  19.131   4.333
69552W        W29297  19.536  10.665   4.303
69553W        W29298  31.000  15.635   3.845
69554W        W29299   5.414  19.282  14.806
69555W        W29300   5.296  12.620  13.034
69556W        W29301  31.460  31.593   4.258
69557W        W29302  41.528  25.530  11.581
69558W        W29303  11.737  42.996   3.240
69559W        W29304  11.774  27.539   1.896
69560W        W29305  43.019  26.581   4.829
69561W        W29306  38.023  16.788   3.337
69562W        W29307   0.428  29.143  14.931
69563W        W29308  34.378  24.030   3.833
69564W        W29309  44.904  18.577   3.778
69565W        W29310  22.209  44.349  10.557
69566W        W29311  40.029  17.112   0.891
69567W        W29312  17.768   8.195  11.504
69568W        W29313  29.555  11.307  11.926
69569W        W29314  39.923  15.636  14.787
69570W        W29315  17.634  20.249   4.177
69571W        W29316  28.117  29.431   1.360
69572W        W29317   0.769  12.814   3.668
69573W        W29318   4.848  11.688  14.892
69574W        W29319  27.543   6.766   4.692
69575W        W29320   2.328  10.379   4.126
69576W        W29321  39.989   3.250  12.966
69577W        W29322  11.654   7.390   4.132
69578W        W29323  25.571  24.195   3.187
69579W        W29324  24.228  11.284  13.949
69580W        W29325  30.930  12.205  12.874
69581W        W29326  22.720  40.915  13.826
69582W        W29327   5.329  29.547  14.912
69583W        W29328  44.372  44.414   3.804
69584W        W29329  40.872  38.356  10.985
69585W        W29330  16.700   3.862  13.833
69586W        W29331   8.374  21.537  13.905
69587W        W29332  30.477  17.118  12.516
69588W        W29333  30.601  31.496   4.155
69589W        W29334  19.161  21.700   4.724
69590W        W29335  25.526  22.122   4.728
69591W        W29336  19.134  20.174  13.975
69592W        W29337  26.032  24.611  14.808
69593W        W29338  21.097  10.810   1.414
69594W        W29339   9.266  13.307  14.979
69595W        W29340   2.446  13.613  11.885
69596W        W29341  14.616  29.611   0.738
69597W        W29342   7.378  28.107  14.286
69598W        W29343  18.719   6.911  13.010
69599W        W29344  30.980   7.748   1.918
69600W        W29345  16.666  36.464   9.617
69601W        W29346  31.530  16.290  13.343
69602W        W29347  23.727  38.994   1.281
69603W        W29348  15.720  17.247   3.664
69604W        W29349  26.478  27.034   1.237
69605W        W29350  42.426  40.489  13.865
69606W        W29351  30.599  25.578   2.789
69607W        W29352   6.276   9.358  14.785
69608W        W29353  32.920  26.597  14.853
69609W        W29354  19.738  19.750   0.263
69610W        W29355  39.341  15.621  13.475
69611W        W29356   7.210  44.495  14.804
69612W        W29357  20.637  25.657   3.734
69613W        W29358  43.809   3.790  14.514
69614W        W29359  12.657  29.461   1.831
69615W        W29360  16.294  11.814  11.047
69616W        W29361  44.296  36.927   4.311
69617W        W29362  34.478  38.440   4.139
69618W        W29363   4.396   4.901   2.266
69619W        W29364  27.957  11.714   0.250
69620W        W29365  30.642   9.868  13.825
69621W        W29366  32.950  40.454  12.883
69622W        W29367   8.356  12.848  13.981
69623W        W29368   9.777  13.820   0.865
69624W        W29369  35.596   5.764   1.720
69625W        W29370  20.752  15.181  11.488
69626W        W29371  24.975  40.869   3.798
69627W        W29372  13.154  32.555  10.531
69628W        W29373  36.874   7.307   1.835
69629W        W29374  32.034  38.359  10.429
69630W        W29375   6.890  10.783   0.445
69631W        W29376   3.774   5.370  11.446
69632W        W29377  14.120  28.043   4.271
69633W        W29378   9.302   6.766  12.500
69634W        W29379  21.702  42.968   4.162
69635W        W29380  26.955  23.039   4.739
69636W        W29381  19.155  10.762   1.312
69637W        W29382  43.416  44.794   0.856
69638W        W29383  28.030  40.370  13.343
69639W        W29384  26.664  33.926   2.864
69640W        W29385  21.138  22.179   9.932
69641W        W29386  10.334  16.578   1.785
69642W        W29387  44.336   5.328  12.074
69643W        W29388  30.954  23.070   0.732
69644W        W29389   7.413   9.359  11.563
69645W        W29390  33.990  14.816  14.400
69646W        W29391  11.856  10.350  14.018
69647W        W29392  13.644  23.218   3.273
69648W        W29393  31.502  13.281  11.606
69649W        W29394  19.280  16.237  11.383
69650W        W29395  19.649  39.948   3.649
69651W        W29396  22.611   8.839  13.399
69652W        W29397  43.480  12.219  10.920
69653W        W29398  35.882  14.830   2.888
69654W        W29399  36.406  19.144   2.850
69655W        W29400  18.572  42.439   1.229
69656W        W29401  31.616  31.537   3.847
69657W        W29402  12.759  31.504   4.797
69658W        W29403  30.574   0.940   2.700
69659W        W29404  31.959   4.748   1.259
69660W        W29405  16.616  16.129  11.377
69661W        W29406  17.300  15.637  10.540
69662W        W29407  32.391  39.828  12.855
69663W        W29408  42.294  18.716   3.741
69664W        W29409  39.888  14.759   2.357
69665W        W29410  21.516  22.069   1.714
69666W        W29411  19.596  16.654   3.254
69667W        W29412   6.725  37.563   0.294
69668W        W29413  24.106  14.207   0.372
69669W        W29414  28.603  27.580  13.503
69670W        W29415  27.662  14.186  13.960
69671W        W29416   6.414  18.789   0.862
69672W        W29417  27.566  35.375  13.992
69673W        W29418  24.679  32.082   2.181
69674W        W29419   2.928   7.675   3.295
69675W        W29420  23.532   3.456   3.197
69676W        W29421  23.630  39.520  11.462
69677W        W29422  21.573  23.546  11.045
69678W        W29423  31.903   5.329   9.649
69679W        W29424  12.130   9.200   3.295
69680W        W29425  19.610   0.881   3.737
69681W        W29426  20.691   1.239  12.472
69682W        W29427  11.670  31.986   1.842
69683W        W29428  38.851  44.466   2.708
69684W        W29429   6.403  27.640   2.885
69685W        W29430  43.806   8.861  14.360
69686W        W29431  42.911  19.252   4.823
69687W        W29432  21.590  43.346  12.381
69688W        W29433  18.545  24.022  10.996
69689W        W29434  38.043  33.109  11.083
69690W        W29435   2.965  27.950   3.278
69691W        W29436  17.601  21.546  11.065
69692W        W29437  15.801  17.584  12.977
69693W        W29438  33.965  27.549  12.454
69694W        W29439  11.845   9.801  10.591
69695W        W29440   4.271  11.308   0.428
69696W        W29441  28.511  39.812   2.314
69697W        W29442  26.001   0.976   2.263
69698W        W29443  11.848  25.713  10.493
69699W        W29444  23.630  27.198  11.495
69700W        W29445  22.233  35.412   3.369
69701W        W29446   2.767  21.725  14.305
69702W        W29447  20.573   6.825  14.317
69703W        W29448  40.911  18.740  12.408
69704W        W29449  17.081  25.218  11.877
69705W        W29450   0.779  35.416   9.437
69706W        W29451  12.678  37.434   2.325
69707W        W29452  40.325  38.828  12.964
69708W        W29453  17.645  29.174  14.938
69709W        W29454  24.550  35.391   3.202
69710W        W29455  21.233  10.850  10.429
69711W        W29456   8.338  28.146  10.915
69712W        W29457  19.108  38.950   4.146
69713W        W29458   6.184  22.580  13.062
69714W        W29459  16.689   1.305  10.585
69715W        W29460  27.061  16.190   1.450
69716W        W29461   2.921  15.200   4.694
69717W        W29462  19.100  14.185   2.336
69718W        W29463   4.816  15.701  11.455
69719W        W29464  32.080  43.390  14.315
69720W        W29465  10.140  20.734   0.753
69721W        W29466  11.322  27.483  12.842
69722W        W29467  32.500  39.498   2.670
69723W        W29468  21.046   7.403  13.321
69724W        W29469  27.049  40.412   2.675
69725W        W29470  14.659  31.903   2.710
69726W        W29471  20.610  28.075   4.154
69727W        W29472   9.231   4.407   2.375
69728W        W29473  29.493  43.280  13.030
69729W        W29474  16.622  33.895   4.597
69730W        W29475  41.855  11.813   3.268
69731W        W29476   0.322   5.895  10.412
69732W        W29477   8.166   9.171  11.564
69733W        W29478  11.850  28.129   4.218
69734W        W29479  24.981  36.037  13.843
69735W        W29480   0.393   9.829  11.007
69736W        W29481   6.764  38.006   2.234
69737W        W29482  39.507   6.311  10.487
69738W        W29483  11.654  40.865   0.779
69739W        W29484  19.279  33.400  11.494
69740W        W29485   5.311  35.424  12.399
69741W        W29486  18.159  10.851  11.442
69742W        W29487  18.760  23.085  10.499
69743W        W29488  15.824  29.553   2.250
69744W        W29489  40.004  34.903  12.066
69745W        W29490  36.576   0.824   0.739
69746W        W29491  36.398   6.365   1.225
69747W        W29492  17.159  30.123  10.975
69748W        W29493   4.319  26.683  13.435
69749W        W29494  20.232  42.455   0.933
69750W        W29495  17.094  13.251  12.936
69751W        W29496   4.721  40.816   0.933
69752W        W29497  20.537  10.751  14.979
69753W        W29498  19.560  36.483  10.578
69754W        W29499  25.477  19.738  12.011
69755W        W29500  24.589   4.260   3.184
69756W        W29501  16.715  44.965  13.047
69757W        W29502  10.151  24.094   2.363
69758W        W29503  22.221   6.297   4.203
69759W        W29504  30.927  31.625   0.255
69760W        W29505  10.284  17.558  14.906
69761W        W29506  41.371   7.766  13.365
69762W        W29507  25.642  14.635  12.911
69763W        W29508  29.133  10.691   4.261
69764W        W29509  21.737  14.632  14.976
69765W        W29510  34.973   0.763  11.125
69766W        W29511  14.694  15.245   4.135
69767W        W29512  35.001  44.299   2.347
69768W        W29513   6.689   1.820  14.955
69769W        W29514  18.661   1.843  14.918
69770W        W29515  43.855   3.345  13.977
69771W        W29516   0.885  30.546   0.390
69772W        W29517  31.977  10.275  13.529
69773W        W29518  20.683  39.433   1.389
69774W        W29519  38.937   2.401  11.038
69775W        W29520  36.864  27.068   1.892
69776W        W29521  13.319  44.345  12.553
69777W        W29522  43.366  22.694  10.556
69778W        W29523  35.571  42.500   4.140
69779W        W29524   7.699  34.584   1.328
69780W        W29525  12.312   8.775  10.904
69781W        W29526  12.823  29.105  10.455
69782W        W29527  40.388  39.867  12.357
69783W        W29528  42.920  33.435   0.284
69784W        W29529   9.338  28.478  12.477
69785W        W29530  40.476  38.973  14.346
69786W        W29531  44.429  28.551   0.934
69787W        W29532  28.955   4.250   0.848
69788W        W29533   2.351  35.991  14.467
69789W        W29534  43.439   4.234   0.390
69790W        W29535   8.763   1.250   0.381
69791W        W29536  26.601  31.038  14.355
69792W        W29537   9.172  22.232   3.861
69793W        W29538  30.537  25.573  13.975
69794W        W29539   1.866  11.748  11.434
69795W        W29540  12.719  27.073  10.639
69796W        W29541   4.944  22.137  12.922
69797W        W29542  36.428   3.757  14.027
69798W        W29543  20.562  27.945   2.741
69799W        W29544   7.387  37.020   3.814
69800W        W29545  35.556  17.163   2.871
69801W        W29546  42.001  11.341  12.990
69802W        W29547  14.826   7.753  10.585
69803W        W29548   3.854  33.383  10.994
69804W        W29549  32.627  38.510  14.017
69805W        W29550  43.804  28.166  12.513
69806W        W29551  42.817  28.110   4.633
69807W        W29552   9.663  29.429   4.268
69808W        W29553  39.000  26.080  12.081
69809W        W29554  16.225  20.706  13.007
69810W        W29555  10.218  36.082   0.483
69811W        W29556  38.987  22.066   3.683
69812W        W29557  12.796  29.577   2.288
69813W        W29558  20.154   9.832  13.021
69814W        W29559  22.687   0.424  13.490
69815W        W29560   9.873  22.721   1.250
69816W        W29561  34.084  16.136  11.484
69817W        W29562   9.283  37.545  11.469
69818W        W29563  32.512  18.152   3.363
69819W        W29564  43.002  14.131   3.187
69820W        W29565  35.554  12.237   1.361
69821W        W29566  27.685  32.546  12.350
69822W        W29567  30.141  35.864  11.426
69823W        W29568  41.467  37.962  10.607
69824W        W29569  11.627  34.557  11.942
69825W        W29570  16.697  35.589   3.319
69826W        W29571  15.138  31.948  12.538
69827W        W29572  36.398  32.400   4.122
69828W        W29573  16.144  15.229   1.700
69829W        W29574  35.028  35.532   0.278
69830W        W29575  40.054  40.958   3.319
69831W        W29576   7.357  10.180  13.042
69832W        W29577   4.225  10.327   0.284
69833W        W29578  27.083  21.579  11.899
69834W        W29579  29.654  13.278  14.367
69835W        W29580  34.385  16.304   0.278
69836W        W29581  30.092  37.581   0.449
69837W        W29582   5.203  12.182   0.809
69838W        W29583  26.501  33.580  10.890
69839W        W29584  43.827  35.064  14.021
69840W        W29585   1.355  36.363  14.928
69841W        W29586  20.254  27.573   3.855
69842W        W29587  10.286  30.081   0.727
69843W        W29588  21.670  39.518   4.238
69844W        W29589  35.930  23.984  13.452
69845W        W29590  22.212  43.005   4.204
69846W        W29591   0.911  10.266   2.837
69847W        W29592   7.695  37.480   3.290
69848W        W29593  11.292   6.814  13.992
69849W        W29594  33.609  27.506  13.395
69850W        W29595   2.410  20.742  11.049
69851W        W29596  33.611   8.395   3.645
69852W        W29597  30.001  26.059   2.758
69853W        W29598  34.532  36.889  11.003
69854W        W29599  18.745  36.057  11.038
69855W        W29600   6.403  44.796  13.426
69856W        W29601  20.038   8.867  10.411
69857W        W29602   0.965  20.690   0.417
69858W        W29603  27.593  10.344  10.632
69859W        W29604  13.800  11.759   1.846
69860W        W29605   3.887   3.258  10.632
69861W        W29606  21.556  42.373   3.241
69862W        W29607  10.808  34.384  13.355
69863W        W29608  35.596  26.129   1.440
69864W        W29609   2.383   4.862   3.655
69865W        W29610  18.582   5.909  12.913
69866W        W29611  26.539  28.968   0.889
69867W        W29612  28.588  39.385   1.917
69868W        W29613  36.873  26.141   4.717
69869W        W29614  42.817  42.983   4.325
69870W        W29615  18.775  30.068  14.501
69871W        W29616  17.109  32.123  14.813
69872W        W29617  25.213  32.024  13.486
69873W        W29618  40.328  41.505   3.639
69874W        W29619  37.436  34.914   1.247
69875W        W29620  39.321  27.647  10.981
69876W        W29621  25.124  19.579   3.177
69877W        W29622  12.780  15.810   1.244
69878W        W29623  21.182  15.691   4.773
69879W        W29624  31.970  32.588   4.137
69880W        W29625  39.022  37.570   2.378
69881W        W29626  24.686  35.501  10.440
69882W        W29627  34.580  38.561  12.380
69883W        W29628  32.572  13.298   0.934
69884W        W29629  42.446   9.308  14.994
69885W        W29630   2.769  40.549   3.385
69886W        W29631  36.070  14.305   2.843
69887W        W29632   5.903  15.713   2.664
69888W        W29633   9.684  33.906  10.443
69889W        W29634  40.511  22.671  12.409
69890W        W29635  26.053   9.855   2.708
69891W        W29636  26.531  21.689   5.150
69892W        W29637   4.215  30.571  11.077
69893W        W29638   2.281  10.365   0.428
69894W        W29639  38.381  10.249   4.163
69895W        W29640  27.674   2.237  13.859
69896W        W29641   8.277  43.955  12.435
69897W        W29642  42.316  42.821  14.847
69898W        W29643  10.302  33.538  10.925
69899W        W29644  11.808   6.333   5.260
69900W        W29645  18.276  32.979  13.885
69901W        W29646  21.716  31.532   3.377
69902W        W29647  33.104   7.869   2.185
69903W        W29648   6.750  40.916   1.800
69904W        W29649  21.579  32.885   2.667
69905W        W29650   0.888  12.680   1.426
69906W        W29651  32.602  21.141   0.266
69907W        W29652  30.938  21.194   4.801
69908W        W29653   4.373  19.721  12.541
69909W        W29654  33.971   3.886   2.744
69910W        W29655   9.201  11.151   4.735
69911W        W29656  39.983  24.538   1.780
69912W        W29657  38.060  35.932  12.053
69913W        W29658  31.492  32.129  12.014
69914W        W29659  17.570   1.774   4.246
69915W        W29660  42.489  41.393  10.477
69916W        W29661   2.296   3.271  13.347
69917W        W29662  24.531   2.443  12.531
69918W        W29663  39.441  27.003  12.940
69919W        W29664  12.685  10.772   3.656
69920W        W29665  11.356   6.375  10.913
69921W        W29666   7.206  24.527   3.731
69922W        W29667  23.596  13.332   5.260
69923W        W29668   5.405  11.333  10.957
69924W        W29669  34.106   8.817  11.570
69925W        W29670  23.595   8.399  14.947
69926W        W29671  17.627  11.851  10.927
69927W        W29672   7.193  38.481  11.003
69928W        W29673   5.366  23.142  14.384
69929W        W29674   6.895  26.492   1.265
69930W        W29675   0.432  27.511  14.332
69931W        W29676  26.100  30.919  12.515
69932W        W29677  15.717  12.680   4.301
69933W        W29678  39.983  28.010   0.735
69934W        W29679   6.769  10.342   3.820
69935W        W29680  12.818  19.586  11.405
69936W        W29681  44.476  11.223   2.805
69937W        W29682   5.826  44.455   3.793
69938W        W29683  37.551  28.151   4.281
69939W        W29684  36.537  44.833  13.468
69940W        W29685  15.291   3.292  13.529
69941W        W29686  19.560  20.062   2.898
69942W        W29687   5.863  23.677  13.840
69943W        W29688  17.175  27.474  10.492
69944W        W29689  17.071   7.911   1.285
69945W        W29690  19.772  26.514   1.812
69946W        W29691  29.988   8.269  14.868
69947W        W29692  17.186  19.180   4.187
69948W        W29693   5.282   2.420  12.947
69949W        W29694  18.573  40.857   4.217
69950W        W29695  17.161  44.482  14.857
69951W        W29696  18.699  25.197   3.263
69952W        W29697  36.883  36.898  11.066
69953W        W29698  19.077  30.437   1.295
69954W        W29699  21.546  11.685   3.858
69955W        W29700  10.225  15.315  13.502
69956W        W29701  36.019  36.470  14.491
69957W        W29702  28.591   4.293  13.970
69958W        W29703   0.408  15.301   4.822
69959W        W29704  41.817  35.377   4.252
69960W        W29705   0.291  29.935   1.449
69961W        W29706  36.907  35.426   3.241
69962W        W29707  29.114  25.494  13.983
69963W        W29708  38.011  18.693   0.862
69964W        W29709   8.291  33.530  11.053
69965W        W29710   2.751  14.648  12.038
69966W        W29711  43.838  15.322  13.888
69967W        W29712  15.802   6.736  13.332
69968W        W29713  15.775  31.125  14.867
69969W        W29714  39.354   2.875   2.374
69970W        W29715   8.232  10.358   5.263
69971W        W29716  18.116  17.235   1.770
69972W        W29717  31.021  16.772   5.757
69973W        W29718  21.610  26.990   0.351
69974W        W29719   3.419   2.262  12.453
69975W        W29720  29.060  44.769   3.848
69976W        W29721  11.733  40.310   4.201
69977W        W29722  18.082  19.695   2.287
69978W        W29723  22.592  26.531   1.830
69979W        W29724  12.274  14.267  11.445
69980W        W29725  42.783  27.623   2.740
69981W        W29726  14.816  18.573   1.754
69982W        W29727  23.035  20.251  10.547
69983W        W29728  16.718  37.973   1.262
69984W        W29729  16.254   5.888  14.473
69985W        W29730  24.579   4.361  12.539
69986W        W29731  25.216  34.878   1.710
69987W        W29732  44.000  16.616   0.810
69988W        W29733  13.748  16.217   3.657
69989W        W29734  43.765  26.973  11.532
69990W        W29735  16.689   7.277   2.244
69991W        W29736  11.175  29.475   1.328
69992W        W29737  20.651  24.159   1.437
69993W        W29738  16.198  22.063  11.067
69994W        W29739  15.764  19.576   4.258
69995W        W29740  32.128  13.350   0.918
69996W        W29741  21.210  35.457   1.923
69997W        W29742  44.311  42.352  12.575
69998W        W29743  11.715  41.869   3.715
69999W        W29744  30.599  35.938   0.286
70000W        W29745  37.067   3.328  12.905
70001W        W29746   8.295   9.379  11.955
70002W        W29747   5.402  38.986  14.025
70003W        W29748  37.032  12.632   0.852
70004W        W29749  40.848  18.720  11.438
70005W        W29750  14.741   5.428  12.061
70006W        W29751  36.084   8.875  12.994
70007W        W29752  26.613   4.256   3.207
70008W        W29753  33.125  41.042   0.286
70009W        W29754  33.597   1.738   4.709
70010W        W29755  13.735   7.767  11.980
70011W        W29756  39.344   9.876  11.075
70012W        W29757  18.685  11.153   1.704
70013W        W29758  39.018  15.695   1.228
70014W        W29759   5.916   5.874  14.394
70015W        W29760   5.691  16.119   4.680
70016W        W29761  35.537  14.245  13.524
70017W        W29762  23.037  18.713   2.834
70018W        W29763   4.418  44.957  11.093
70019W        W29764  15.661  35.971  12.978
70020W        W29765  28.004  42.011  10.470
70021W        W29766  29.504  44.311   4.692
70022W        W29767  22.171   9.847  14.448
70023W        W29768  23.130   0.768   4.654
70024W        W29769  21.555  38.877  14.950
70025W        W29770  21.017  39.875   4.662
70026W        W29771  27.664  21.578   2.826
70027W        W29772  19.567  38.966  13.308
70028W        W29773   8.892  27.184   2.703
70029W        W29774  19.114  29.614  10.449
70030W        W29775  28.147   2.844  11.108
70031W        W29776  30.070   0.946  12.872
70032W        W29777  10.876  31.131   1.299
70033W        W29778  31.907  19.542   2.253
70034W        W29779   1.411  30.496  12.838
70035W        W29780  10.757   1.874   3.346
70036W        W29781  25.967  15.708  13.835
70037W        W29782  31.069   7.712   2.821
70038W        W29783   9.747  43.371   1.430
70039W        W29784   5.750  25.500   4.650
70040W        W29785  40.894  40.837  10.480
70041W        W29786  16.304  24.067  11.498
70042W        W29787  35.551  23.070   0.886
70043W        W29788  10.368  25.524  12.344
70044W        W29789  20.067   6.854  11.509
70045W        W29790  40.488  21.672  13.800
70046W        W29791   7.758  11.853  10.635
70047W        W29792  37.048   6.698  13.447
70048W        W29793  13.177  32.547   2.899
70049W        W29794  32.499   7.258   0.478
70050W        W29795  33.921  31.060   4.233
70051W        W29796  20.757  11.744   2.371
70052W        W29797  36.507  12.322  11.612
70053W        W29798  31.033  16.133   1.759
70054W        W29799  33.558  32.899  10.901
70055W        W29800  42.342  29.619   3.645
70056W        W29801  22.535  42.858  13.960
70057W        W29802  25.182  18.170   3.871
70058W        W29803   9.731  44.395  11.902
70059W        W29804  15.191   3.799  12.039
70060W        W29805   0.922   2.261  14.936
70061W        W29806  12.159  43.489  14.477
70062W        W29807  23.607   9.811  13.493
70063W        W29808   1.382  14.613   0.468
70064W        W29809  13.242   2.281  13.995
70065W        W29810  26.640  28.127  13.953
70066W        W29811  33.912  19.593   1.399
70067W        W29812  18.178  11.156   0.371
70068W        W29813  25.678  43.787  11.512
70069W        W29814  29.941  27.175   2.327
70070W        W29815  15.799  41.876   4.601
70071W        W29816  44.944  17.798  10.533
70072W        W29817  13.216  38.340  14.342
70073W        W29818  33.918  42.297  14.324
70074W        W29819  27.080  16.621   1.270
70075W        W29820  29.996  44.345   1.847
70076W        W29821  43.806  41.881  14.433
70077W        W29822  22.554  24.643   3.183
70078W        W29823  31.626  16.107   3.278
70079W        W29824   8.814  27.137  11.412
70080W        W29825  38.072  10.266  10.643
70081W        W29826  17.125  33.475   4.164
70082W        W29827  12.201  17.611  13.891
70083W        W29828  30.012   8.797  12.438
70084W        W29829  40.524  15.252   2.815
70085W        W29830  33.899  32.987  14.775
70086W        W29831  25.139   6.221  13.919
70087W        W29832  39.954   2.928   2.395
70088W        W29833  10.664   5.818   1.759
70089W        W29834   1.731  23.559  12.508
70090W        W29835  37.888   3.927  10.450
70091W        W29836  35.599  22.639   1.387
70092W        W29837  36.991  21.738   3.219
70093W        W29838  35.379   5.234  14.463
70094W        W29839  22.161  30.919  11.569
70095W        W29840  34.105  36.061  11.577
70096W        W29841  30.103  37.013   0.312
70097W        W29842  35.046  20.713   0.829
70098W        W29843   3.240  12.647   1.844
70099W        W29844   8.173   0.936  11.084
70100W        W29845  13.157  18.052  14.489
70101W        W29846   3.932  30.116   9.648
70102W        W29847  38.841  20.625  14.329
70103W        W29848   0.359   4.766   0.879
70104W        W29849   4.265  33.515   3.266
70105W        W29850  38.440  28.139   3.196
70106W        W29851  10.169  36.374   2.779
70107W        W29852  28.602  39.321  13.416
70108W        W29853   1.846  24.209   1.223
70109W        W29854   6.383  39.022   4.238
70110W        W29855  29.505  26.980   0.383
70111W        W29856  37.871  30.427   3.216
70112W        W29857  31.017  13.106   1.423
70113W        W29858   2.447  12.853   2.282
70114W        W29859  41.001  21.617   4.725
70115W        W29860   4.380   0.398  14.956
70116W        W29861   1.935  35.102   5.188
70117W        W29862  36.985  32.006  10.493
70118W        W29863   9.330   2.346  13.434
70119W        W29864  25.099  35.948   0.339
70120W        W29865  29.609  19.733  13.984
70121W        W29866  10.306   4.739  11.057
70122W        W29867  41.411  22.726   3.316
70123W        W29868  20.758  41.858  11.373
70124W        W29869  41.947  17.679  12.479
70125W        W29870  15.711  16.676   4.832
70126W        W29871  23.010  18.054  13.831
70127W        W29872  42.460  39.510  10.514
70128W        W29873  11.655  19.262   0.443
70129W        W29874  15.245  38.412  10.963
70130W        W29875  14.748  42.504  11.926
70131W        W29876  42.828  34.491   4.638
70132W        W29877  15.634  24.129   9.932
70133W        W29878  14.225  23.560  10.975
70134W        W29879  35.582  35.428   0.408
70135W        W29880  31.559  31.989   0.390
70136W        W29881  19.150  27.045  12.882
70137W        W29882  11.798  37.831  11.516
70138W        W29883  10.666  44.446  10.972
70139W        W29884  29.631  13.699  12.005
70140W        W29885  15.132  16.653  11.050
70141W        W29886  41.462  35.095  12.421
70142W        W29887  41.853  18.255   0.749
70143W        W29888  21.112  23.528   1.845
70144W        W29889  15.198  29.099  13.441
70145W        W29890  32.035  43.813  11.961
70146W        W29891  30.124  33.424   1.778
70147W        W29892   1.752  41.878  14.927
70148W        W29893  26.973  12.621   0.245
70149W        W29894  28.070   7.193   1.859
70150W        W29895  36.559  23.099  13.061
70151W        W29896  11.650  35.424   3.203
70152W        W29897  42.342  24.182   2.707
70153W        W29898  29.545   3.911   3.636
70154W        W29899  18.230   0.969   2.251
70155W        W29900  21.657  13.292   5.095
70156W        W29901  29.080  24.119   2.208
70157W        W29902  43.368  38.519   0.390
70158W        W29903  29.936  13.288   0.731
70159W        W29904  42.794  31.469   0.815
70160W        W29905  18.245  29.931  14.981
70161W        W29906   3.765   1.883   4.134
70162W        W29907  43.794  43.910  10.519
70163W        W29908  32.499  18.696  14.807
70164W        W29909  10.707  19.663  11.491
70165W        W29910  11.747  40.471  13.366
70166W        W29911  33.555  16.119   3.814
70167W        W29912  42.033  30.972   1.734
70168W        W29913  24.091  17.153  12.368
70169W        W29914  25.213  10.228  13.384
70170W        W29915  30.527  11.767   4.636
70171W        W29916   9.310  11.710  13.859
70172W        W29917  36.851   4.313   1.717
70173W        W29918  33.073  41.963  12.477
70174W        W29919  20.235  36.075  13.814
70175W        W29920  44.860   4.283   2.893
70176W        W29921   5.222  44.450   1.223
70177W        W29922   5.231  21.197   3.322
70178W        W29923  42.891  36.509  14.958
70179W        W29924  12.346  27.498  14.812
70180W        W29925  32.507  38.064  14.937
70181W        W29926  41.827  43.855  14.473
70182W        W29927  15.708  38.911   1.247
70183W        W29928   9.738  35.601   4.806
70184W        W29929  35.596  24.145  11.857
70185W        W29930  43.859  40.456   3.827
70186W        W29931   3.402  39.047  13.794
70187W        W29932   7.906  11.172   4.270
70188W        W29933  24.637  26.199  13.854
70189W        W29934  40.530   0.898  11.515
70190W        W29935   3.246  31.986   4.314
70191W        W29936  28.066  32.026  13.405
70192W        W29937   8.368  33.124   1.424
70193W        W29938  11.794  25.663  12.495
70194W        W29939   8.180  36.452  11.466
70195W        W29940  12.673  25.586  14.417
70196W        W29941  20.661  40.853   2.218
70197W        W29942  38.489   6.346  13.355
70198W        W29943  21.552  12.259  12.854
70199W        W29944  42.490  39.826   1.299
70200W        W29945  36.542   1.344  10.411
70201W        W29946   0.247  42.885  10.417
70202W        W29947  37.040   4.370  14.838
70203W        W29948  42.314  18.672   1.732
70204W        W29949   5.332   3.323  12.938
70205W        W29950   1.243  15.311   2.291
70206W        W29951  37.518   4.868   0.932
70207W        W29952   6.871  20.230   4.283
70208W        W29953  12.723   4.864   3.860
70209W        W29954  13.652   3.372  13.480
70210W        W29955  32.097   4.260  12.025
70211W        W29956  39.347  19.589  13.931
70212W        W29957  33.411  20.059   2.728
70213W        W29958  30.513  25.682  10.968
70214W        W29959  34.957   0.905  14.024
70215W        W29960   5.209  30.104  12.577
70216W        W29961  26.650   3.907  11.431
70217W        W29962   1.732   2.938   4.615
70218W        W29963  10.164  23.225   0.840
70219W        W29964   7.882   1.848  10.977
70220W        W29965  16.311  43.438   0.789
70221W        W29966   5.208   9.221  14.765
70222W        W29967  24.975   0.340  12.940
70223W        W29968  22.728  17.748  10.945
70224W        W29969  36.362  23.665   3.171
70225W        W29970  43.986  36.902  10.436
70226W        W29971  18.293   4.223  14.019
70227W        W29972  30.963   3.424   0.362
70228W        W29973   5.709  35.096   1.830
70229W        W29974   0.362  14.770   0.761
70230W        W29975  31.918  12.274  14.018
70231W        W29976   9.736  31.464   1.380
70232W        W29977  34.011  29.662   3.826
70233W        W29978   5.195  26.700   4.672
70234W        W29979  16.623  30.531   4.291
70235W        W29980   5.333  24.045   3.203
70236W        W29981  14.770   7.242  14.340
70237W        W29982  13.230  15.190  10.570
70238W        W29983  21.616   2.966   0.802
70239W        W29984  23.616  37.854   2.274
70240W        W29985  10.797   4.415   0.334
70241W        W29986  32.060  44.762   3.302
70242W        W29987  26.159  21.633  12.015
70243W        W29988   3.300  20.612  13.386
70244W        W29989  36.409   8.757   5.309
70245W        W29990  10.252  17.172  10.458
70246W        W29991   3.393  35.968  11.944
70247W        W29992   0.925   5.358   0.340
70248W        W29993  11.722   4.345   0.456
70249W        W29994  42.800  40.973   3.630
70250W        W29995   9.375  21.073  12.850
70251W        W29996  19.269  18.627  11.944
70252W        W29997   0.745  16.103   2.210
70253W        W29998  15.597  16.265  10.511
70254W        W29999  32.103  23.217  13.319
70255W        W30000  34.085  26.664  11.423
70256W        W30001  11.180  31.413  13.954
70257W        W30002  36.388  28.502  13.341
70258W        W30003  35.057  11.164  12.970
70259W        W30004  43.969  32.593  14.830
70260W        W30005  12.220  33.459  10.908
70261W        W30006  13.180  34.479   0.834
70262W        W30007   0.963   9.828   2.786
70263W        W30008  28.473  20.255  10.432
70264W        W30009   7.227  39.049   2.332
70265W        W30010  26.528  30.472   4.789
70266W        W30011   3.835   6.355  13.873
70267W        W30012  36.353   3.398   1.883
70268W        W30013  32.464  13.246   4.348
70269W        W30014  33.493  23.597  11.987
70270W        W30015  43.944  16.169  13.424
70271W        W30016  42.465  18.131  13.353
70272W        W30017  28.465  27.577   4.341
70273W        W30018  37.498  12.323   3.198
70274W        W30019  37.499  30.947  11.111
70275W        W30020  19.182  14.139  11.448
70276W        W30021   5.779   8.217   3.708
70277W        W30022  13.805  15.730   4.633
70278W        W30023  38.833   4.790   0.902
70279W        W30024  34.419  14.686  12.050
70280W        W30025  20.208  23.038  13.513
70281W        W30026  36.517  33.993   3.836
70282W        W30027   4.371  43.765   1.253
70283W        W30028  36.053  18.609   2.392
70284W        W30029  19.077  15.299  11.596
70285W        W30030   4.387  42.981   4.741
70286W        W30031  23.715  37.012   3.750
70287W        W30032  12.723  33.947  11.964
70288W        W30033  14.143  23.188   3.821
70289W        W30034   6.206  37.559   2.694
70290W        W30035  17.667  23.200   0.455
70291W        W30036   7.407  43.020   2.393
70292W        W30037  30.129  27.954   5.752
70293W        W30038  37.844  32.509  10.501
70294W        W30039  10.657  42.518  12.060
70295W        W30040  33.468   8.180  10.584
70296W        W30041   1.823  26.485   2.338
70297W        W30042  17.670  11.791   3.208
70298W        W30043  39.548  33.485  10.580
70299W        W30044  35.559  37.359   4.734
70300W        W30045  33.914  33.031   0.266
70301W        W30046  22.603   0.258   0.782
70302W        W30047   7.262  15.743   0.252
70303W        W30048   8.311  34.491   3.845
70304W        W30049   0.917  16.750   2.304
70305W        W30050  13.605  29.943   4.692
70306W        W30051  37.402  23.213   2.213
70307W        W30052  20.586   5.225  12.348
70308W        W30053   7.181  22.734   4.813
70309W        W30054  20.041  22.599   3.326
70310W        W30055  21.671  24.661   0.798
70311W        W30056   4.326  42.907   9.927
70312W        W30057  43.790   9.390  12.446
70313W        W30058  11.314  17.719   4.129
70314W        W30059  25.041  12.134   3.283
70315W        W30060   7.788  32.541  10.422
70316W        W30061  23.567  16.572   5.133
70317W        W30062  39.521  13.753  14.823
70318W        W30063  38.437  28.992  14.018
70319W        W30064  33.443  26.595   2.185
70320W        W30065  11.170  27.466   3.676
70321W        W30066  43.839  24.031   4.660
70322W        W30067  38.025  22.593  14.945
70323W        W30068  13.332  13.191   1.934
70324W        W30069  39.992  31.516  14.308
70325W        W30070  11.717   1.777   5.134
70326W        W30071  17.089  28.478  13.942
70327W        W30072  27.636  30.948   0.854
70328W        W30073  12.352  12.761   0.798
70329W        W30074   5.374  36.859  12.355
70330W        W30075   9.239   6.860  12.995
70331W        W30076  34.894  41.958   4.789
70332W        W30077  13.269  22.580   4.171
70333W        W30078  33.441   6.324   1.891
70334W        W30079  28.072  41.503  11.569
70335W        W30080   0.432  44.904   0.921
70336W        W30081  16.276  31.634   3.287
70337W        W30082  43.493  10.795  11.414
70338W        W30083  11.725  43.366  12.036
70339W        W30084  23.721  24.182  14.498
70340W        W30085  44.006  43.299   2.803
70341W        W30086  11.350  21.693   4.292
70342W        W30087  18.125   1.948   4.761
70343W        W30088  44.498  18.089  11.101
70344W        W30089  38.049  34.506  12.556
70345W        W30090   6.866  41.796  14.278
70346W        W30091  18.122  34.459   2.275
70347W        W30092  25.630  28.993   5.150
70348W        W30093  20.195  16.113  12.068
70349W        W30094  39.466  21.238  14.805
70350W        W30095  11.821  38.053   1.368
70351W        W30096  41.982  17.170   4.310
70352W        W30097  20.151  36.406  13.936
70353W        W30098  38.960  31.942   2.237
70354W        W30099  20.709  18.107   3.148
70355W        W30100  19.680  33.397   1.413
70356W        W30101   5.203  27.669  10.442
70357W        W30102  32.628  22.199  13.346
70358W        W30103  33.123  12.771   1.267
70359W        W30104  37.984   3.722  14.310
70360W        W30105   6.235   9.322  10.475
70361W        W30106  33.410  18.646   2.282
70362W        W30107   3.866  15.198  11.384
70363W        W30108  10.301   3.835   4.774
70364W        W30109  16.672   8.848  11.944
70365W        W30110  17.647  34.989  14.949
70366W        W30111   2.456  26.162   0.244
70367W        W30112  21.151  32.534  14.290
70368W        W30113   7.896  41.422  11.871
70369W        W30114  40.986  33.409   2.341
70370W        W30115   8.388  43.833   1.830
70371W        W30116  15.266  40.497  11.375
70372W        W30117  19.665  34.375   3.672
70373W        W30118  38.864  34.482  10.907
70374W        W30119  28.943  17.747   3.864
70375W        W30120   4.206  33.967   0.788
70376W        W30121  41.331  37.456  11.596
70377W        W30122  21.556  43.337  10.405
70378W        W30123   0.376   6.201  12.924
70379W        W30124   6.365  25.524   1.247
70380W        W30125  16.120  11.240  11.014
70381W        W30126  31.640  26.106   4.349
70382W        W30127  16.785  22.231  14.970
70383W        W30128   7.280  31.581  11.097
70384W        W30129  34.416  27.067   4.265
70385W        W30130  11.199  33.888  12.359
70386W        W30131  33.535  23.663   1.356
70387W        W30132  24.093  31.604   1.401
70388W        W30133  29.534  43.852   3.869
70389W        W30134  27.040  15.259   5.652
70390W        W30135  40.857   1.883  12.420
70391W        W30136  32.940  24.094  14.963
70392W        W30137  24.183  25.179   3.711
70393W        W30138  29.523  13.809   1.333
70394W        W30139   9.188  24.532  12.872
70395W        W30140  21.517   4.248  12.494
70396W        W30141  18.087  35.073   2.184
70397W        W30142  33.962  27.012  14.284
70398W        W30143  43.807  15.797   1.365
70399W        W30144  22.111  28.677   0.823
70400W        W30145  44.427  35.401   1.326
70401W        W30146  42.351  39.533  13.524
70402W        W30147  10.343  17.602  13.937
70403W        W30148  29.004  43.810  11.554
70404W        W30149  21.022   2.768   3.204
70405W        W30150  32.009  11.821   0.299
70406W        W30151  15.179   6.214  12.408
70407W        W30152  41.505  35.023  13.934
70408W        W30153  18.599   9.379  14.430
70409W        W30154   6.407  14.723   4.125
70410W        W30155  31.435  23.181  14.015
70411W        W30156  15.802  40.976  12.040
70412W        W30157  36.420  19.755  14.892
70413W        W30158  41.518   5.892  13.483
70414W        W30159   0.494   9.870  14.891
70415W        W30160  44.425  27.517   3.800
70416W        W30161  23.602  22.663   1.694
70417W        W30162  19.200  30.014   1.782
70418W        W30163  13.671   3.235   2.884
70419W        W30164   0.840   1.745   0.318
70420W        W30165  40.434   5.754  13.462
70421W        W30166  38.532   9.287  11.375
70422W        W30167  33.039   0.415   1.309
70423W        W30168   6.881  41.013  10.925
70424W        W30169  12.129  43.939  14.404
70425W        W30170  10.176  13.269  13.893
70426W        W30171  19.153  18.050   2.241
70427W        W30172  36.532  36.481   2.184
70428W        W30173   4.313   3.916   4.653
70429W        W30174  17.576  40.945   1.704
70430W        W30175  26.574  40.532   4.162
70431W        W30176   6.884   2.777   0.751
70432W        W30177   4.880   8.299  11.434
70433W        W30178  37.384   7.746  14.873
70434W        W30179  15.808  23.527  10.018
70435W        W30180  15.140  25.641   1.394
70436W        W30181  35.462  10.356   1.352
70437W        W30182  23.602  40.336  14.372
70438W        W30183  40.938  44.002   3.698
70439W        W30184  39.457  43.773   1.713
70440W        W30185  23.730  36.860  14.811
70441W        W30186  25.695  22.671   0.288
70442W        W30187  28.446  34.372  10.465
70443W        W30188  15.720  36.898  14.353
70444W        W30189  44.376  18.145  11.591
70445W        W30190  22.233   0.967  13.811
70446W        W30191  29.429  33.077  10.617
70447W        W30192  34.041  14.276   2.379
70448W        W30193  41.430  32.554   4.642
70449W        W30194  14.297   3.954   3.634
70450W        W30195  16.753  37.452  13.512
70451W        W30196  17.132  38.527  10.561
70452W        W30197   2.920  35.064   1.873
70453W        W30198  31.576  42.518   2.881
70454W        W30199  37.858  38.398   3.662
70455W        W30200  25.631  27.653  14.488
70456W        W30201  24.024   4.418   1.804
70457W        W30202  33.581   9.248   3.804
70458W        W30203  11.133  25.481   1.256
70459W        W30204  25.609  29.918   1.381
70460W        W30205  33.046   3.317  13.847
70461W        W30206  27.471   2.820   3.214
70462W        W30207  18.109  43.958   1.314
70463W        W30208  24.022  43.364   0.481
70464W        W30209   2.362  25.549   4.283
70465W        W30210  16.106  30.518  12.975
70466W        W30211  38.958  39.887   2.230
70467W        W30212  16.226  29.952  11.904
70468W        W30213  23.174  15.754  11.477
70469W        W30214  24.711  19.261  12.949
70470W        W30215  17.137  11.207   4.312
70471W        W30216  18.757  15.193   4.729
70472W        W30217  31.045   8.288  11.409
70473W        W30218  21.628  39.372   3.195
70474W        W30219  44.853   3.786  11.420
70475W        W30220  36.939  42.284  14.958
70476W        W30221  16.777  36.592   2.726
70477W        W30222   0.396  38.436  14.831
70478W        W30223  10.277  19.167   3.173
70479W        W30224  39.541  31.525   4.160
70480W        W30225  27.623  43.344  12.540
70481W        W30226   8.774  42.911   3.725
70482W        W30227  37.081  39.912  14.909
70483W        W30228   8.313  17.137  12.429
70484W        W30229  33.035  32.497  14.937
70485W        W30230  35.588  10.161  11.416
70486W        W30231  13.697   5.910  14.323
70487W        W30232  39.936  23.998  14.323
70488W        W30233   0.365  30.948  14.475
70489W        W30234  29.469  18.252  13.958
70490W        W30235  18.662   4.816   5.300
70491W        W30236  34.896  37.934  12.561
70492W        W30237  21.041  31.598  13.333
70493W        W30238   9.793   3.234   0.937
70494W        W30239   1.920  41.010   1.926
70495W        W30240   3.832  43.303   2.362
70496W        W30241   6.825  22.072  14.492
70497W        W30242   4.324  32.437  11.420
70498W        W30243   0.770  41.895  12.400
70499W        W30244   3.455   7.795   3.838
70500W        W30245  20.132  12.263   4.682
70501W        W30246   3.233  17.603   2.179
70502W        W30247  35.098   4.734  10.131
70503W        W30248  44.941  31.085  11.552
70504W        W30249  29.492  40.040   5.170
70505W        W30250   5.324  26.025  14.495
70506W        W30251  31.560  26.577   4.183
70507W        W30252  36.480  19.684   1.878
70508W        W30253  31.596   4.329  13.001
70509W        W30254   0.982  44.315   0.381
70510W        W30255   6.728  36.022  11.933
70511W        W30256   4.869  31.562  14.319
70512W        W30257  35.400  18.637   3.837
70513W        W30258  33.617  11.230   3.712
70514W        W30259  22.190   6.865  13.894
70515W        W30260  43.470  31.489   1.245
70516W        W30261  18.656  24.518   3.305
70517W        W30262  40.304  31.143   0.928
70518W        W30263  16.633  19.168  12.823
70519W        W30264   8.202   5.819   0.278
70520W        W30265   9.763  44.452  13.898
70521W        W30266  27.677  18.788  13.469
70522W        W30267  15.314   9.170   4.187
70523W        W30268  36.496   7.844   3.146
70524W        W30269   0.892  12.749   2.414
70525W        W30270  44.758  31.122   2.398
70526W        W30271  13.217   8.309   1.861
70527W        W30272  24.000  12.644  11.610
70528W        W30273  29.501  13.685   0.465
70529W        W30274  38.831   1.964   2.384
70530W        W30275  23.193  18.693  14.765
70531W        W30276   4.278   9.347  14.479
70532W        W30277  43.319   4.262   4.680
70533W        W30278   0.788  29.482  12.900
70534W        W30279   0.316  13.739   2.335
70535W        W30280  35.481  12.232   1.848
70536W        W30281  37.452  33.436   9.935
70537W        W30282  39.840  24.043  10.502
70538W        W30283   8.381  10.361  11.870
70539W        W30284  27.631  20.073   3.210
70540W        W30285   3.432  26.109  11.546
70541W        W30286  30.576  21.599   9.586
70542W        W30287  14.232  19.185  13.530
70543W        W30288   9.830  11.718  14.325
70544W        W30289  32.532  38.530  11.036
70545W        W30290  17.601  26.093  14.919
70546W        W30291   1.308   6.286   0.456
70547W        W30292  22.681  34.523  13.866
70548W        W30293  12.757  34.010   2.721
70549W        W30294  41.399   8.761   2.367
70550W        W30295  43.795  19.546  12.057
70551W        W30296  34.910  14.287  14.760
70552W        W30297  29.624  38.875  13.392
70553W        W30298  17.116  23.710   0.772
70554W        W30299  44.478  32.599  11.126
70555W        W30300  16.579  41.383  14.308
70556W        W30301  20.195   2.280   0.332
70557W        W30302  16.682   5.275  10.935
70558W        W30303   5.927  19.621  10.961
70559W        W30304  29.174  22.130  11.503
70560W        W30305  13.739  11.722  12.372
70561W        W30306  38.959  40.483   2.230
70562W        W30307  40.932  33.957  14.925
70563W        W30308  37.070  29.098   4.754
70564W        W30309  20.260  15.193   3.187
70565W        W30310  43.438  41.502  13.533
70566W        W30311  35.571   9.208  10.472
70567W        W30312   5.760  30.638  11.929
70568W        W30313   4.896  12.675  14.948
70569W        W30314   4.705  24.067  10.907
70570W        W30315  39.855  44.446   1.312
70571W        W30316  15.635   6.684  13.954
70572W        W30317  14.801  33.924   0.305
70573W        W30318  33.579   7.898   0.814
70574W        W30319  43.487  15.127   4.265
70575W        W30320  30.026  18.641   1.300
70576W        W30321  38.430  37.934   4.604
70577W        W30322   6.295  11.238  14.474
70578W        W30323   9.294  22.051   0.315
70579W        W30324  35.573  35.493  11.479
70580W        W30325  44.283   9.689  14.464
70581W        W30326  12.199  36.919  14.937
70582W        W30327   0.913   2.889  13.501
70583W        W30328  44.379   5.363   2.357
70584W        W30329  38.549  31.562   2.867
70585W        W30330   5.343  30.982  11.518
70586W        W30331  42.017  40.488   0.955
70587W        W30332  18.657  37.422   5.156
70588W        W30333  20.228  10.788  13.913
70589W        W30334   2.360  32.994  10.913
70590W        W30335  31.494  36.882   3.216
70591W        W30336  38.398  15.588  14.991
70592W        W30337  34.475  19.594   3.299
70593W        W30338  37.939   5.412   4.308
70594W        W30339  38.885  32.131  12.394
70595W        W30340   2.270  22.211  12.498
70596W        W30341  37.908  36.047  12.349
70597W        W30342  25.564  25.561  11.014
70598W        W30343  11.157  16.224  11.075
70599W        W30344   7.330  43.803   2.230
70600W        W30345  12.155   4.216   1.387
70601W        W30346  39.842  19.765   4.680
70602W        W30347  19.178  28.106   4.224
70603W        W30348  27.128  34.386   0.413
70604W        W30349  39.469  27.960   2.360
70605W        W30350   9.749  33.441   3.657
70606W        W30351  30.123  22.087   1.901
70607W        W30352  15.267  27.138   4.666
70608W        W30353  11.292   1.443   0.362
70609W        W30354  23.679  25.213  12.345
70610W        W30355  31.470  13.169   2.368
70611W        W30356  42.482   3.743  14.883
70612W        W30357   7.894  16.650   4.271
70613W        W30358  12.125  21.263   3.308
70614W        W30359  39.426  14.625  11.528
70615W        W30360   7.381  35.392  14.801
70616W        W30361  16.598   7.850  13.368
70617W        W30362  38.026  25.130   0.373
70618W        W30363  18.065  35.979  13.795
70619W        W30364  41.029  27.183  11.597
70620W        W30365   7.217  27.453   3.302
70621W        W30366  37.909  26.126   1.716
70622W        W30367   7.352  10.711  10.518
70623W        W30368  14.254  22.639   2.723
70624W        W30369  32.429  38.441  12.516
70625W        W30370   7.875   1.844  13.930
70626W        W30371  43.948  14.171  12.341
70627W        W30372  38.383  43.912  12.377
70628W        W30373  23.037  17.692  13.371
70629W        W30374  15.273   4.285   2.399
70630W        W30375   5.859  28.985   0.323
70631W        W30376  10.209   5.222   4.345
70632W        W30377   3.748  43.494  12.994
70633W        W30378  37.874  40.962   0.465
70634W        W30379  39.983  24.153   2.747
70635W        W30380   6.812  11.189   3.202
70636W        W30381  42.936   8.819  11.893
70637W        W30382   9.262  11.679   0.263
70638W        W30383  38.967   0.951   0.951
70639W        W30384   6.377  43.010  13.044
70640W        W30385  38.523  30.468   2.302
70641W        W30386  16.605  31.601   0.767
70642W        W30387  25.965  17.164   0.375
70643W        W30388  32.578  43.011   3.304
70644W        W30389   9.845   9.656   0.940
70645W        W30390  36.447  41.538   4.199
70646W        W30391  33.910   9.272  13.322
70647W        W30392   8.273  40.503  14.940
70648W        W30393  15.644  10.873   0.756
70649W        W30394  37.060  34.615   0.437
70650W        W30395  41.486   8.298   1.409
70651W        W30396  22.011   1.741  12.498
70652W        W30397  39.529  11.238  14.407
70653W        W30398  22.516  26.685   1.442
70654W        W30399  37.010  14.262   0.941
70655W        W30400  36.424   0.476  11.001
70656W        W30401  17.627   2.750   3.761
70657W        W30402  28.959   1.236  11.516
70658W        W30403  17.111  41.434  14.791
70659W        W30404  24.200  15.669  12.073
70660W        W30405   1.286  34.887  13.365
70661W        W30406  12.681  25.516  13.982
70662W        W30407  39.991   6.813   1.422
70663W        W30408  15.730  33.469  14.004
70664W        W30409   5.746  22.525  11.407
70665W        W30410  29.009  10.684  12.539
70666W        W30411  39.315  18.577  14.920
70667W        W30412  39.444  30.011  13.342
70668W        W30413   1.482  25.118   3.638
70669W        W30414  15.780   7.300   0.373
70670W        W30415   4.782  38.350   4.729
70671W        W30416  25.190  14.684   1.869
70672W        W30417  40.979  10.147  10.500
70673W        W30418  30.564   1.850  10.558
70674W        W30419  14.808  32.064   5.286
70675W        W30420  21.512  34.930   0.884
70676W        W30421  36.517  23.163   2.858
70677W        W30422  14.335  39.538  10.584
70678W        W30423  30.111  12.620  14.349
70679W        W30424  30.412  40.358   3.342
70680W        W30425  18.205  37.959   1.223
70681W        W30426  44.005  17.667  11.417
70682W        W30427  33.442  15.323  13.043
70683W        W30428  26.489  30.060  11.981
70684W        W30429  12.230  27.613  10.962
70685W        W30430  40.431  13.629   4.817
70686W        W30431  40.488  23.060   0.326
70687W        W30432   6.280   7.223   2.862
70688W        W30433  12.351  12.116   2.416
70689W        W30434  14.144  29.525   1.362
70690W        W30435  14.673  39.812   2.683
70691W        W30436  34.611  16.152   2.666
70692W        W30437  22.598  42.508   2.184
70693W        W30438   8.392   3.370   4.810
70694W        W30439  26.125   0.979   0.930
70695W        W30440  40.878  25.192  10.924
70696W        W30441  38.571  11.624  12.450
70697W        W30442  33.893  10.229  11.463
70698W        W30443  12.306  24.515  13.008
70699W        W30444  42.349  19.044  10.579
70700W        W30445  29.936  20.659  12.022
70701W        W30446   0.743  21.733  12.353
70702W        W30447  32.945  30.036   3.829
70703W        W30448   0.406  15.736  10.532
70704W        W30449   4.732  33.031  14.991
70705W        W30450  17.096  36.378   4.781
70706W        W30451  41.009   4.435   3.665
70707W        W30452  32.587  30.040   1.384
70708W        W30453  24.069   2.936   0.858
70709W        W30454   0.802  29.618   3.821
70710W        W30455  15.700  12.636  11.524
70711W        W30456  44.921  22.533  13.923
70712W        W30457  14.791  23.647  13.805
70713W        W30458   3.236   9.757  11.565
70714W        W30459  41.797  28.970  10.482
70715W        W30460   2.272  21.554   4.721
70716W        W30461   7.666   4.908  12.837
70717W        W30462   0.477   5.371   3.740
70718W        W30463  14.266  20.597   2.824
70719W        W30464   7.358  20.271  10.986
70720W        W30465  26.162  41.459  11.115
70721W        W30466  35.046  44.938  14.459
70722W        W30467  10.168  34.530   2.695
70723W        W30468   7.276  22.538  14.426
70724W        W30469   5.233  25.551  12.365
70725W        W30470  20.616  26.127  10.458
70726W        W30471  31.440   2.908   1.446
70727W        W30472  34.415  14.689   0.849
70728W        W30473  33.530  11.692  10.600
70729W        W30474   0.292  14.755   2.384
70730W        W30475  35.872  34.593   1.863
70731W        W30476  15.108  42.995  10.923
70732W        W30477  24.222   5.779   0.894
70733W        W30478  23.061  25.056  11.106
70734W        W30479  15.601  38.849  10.059
70735W        W30480  19.156  36.054   3.650
70736W        W30481  15.600  40.937   0.931
70737W        W30482  18.151  23.052  12.374
70738W        W30483  20.533  26.114  14.926
70739W        W30484   5.825  16.304   1.216
70740W        W30485  20.625  38.512   3.361
70741W        W30486   4.880   3.295  13.913
70742W        W30487  25.555  40.305  10.472
70743W        W30488  33.528  35.998  14.883
70744W        W30489  31.949  36.590  12.502
70745W        W30490   9.871  27.099   4.216
70746W        W30491  28.650  16.266   2.327
70747W        W30492  29.082  30.056  10.514
70748W        W30493  22.039   7.303  11.117
70749W        W30494  41.892  27.056   3.820
70750W        W30495  39.940  25.007   1.926
70751W        W30496  33.031   9.261   4.706
70752W        W30497  19.067  42.446  13.929
70753W        W30498  15.811  29.951   1.362
70754W        W30499  42.354  22.719  10.544
70755W        W30500  33.494  16.102  12.381
70756W        W30501  43.999  15.315   2.810
70757W        W30502  39.882  27.522  13.907
70758W        W30503  26.535  15.808  10.485
70759W        W30504  30.565  27.493  11.386
70760W        W30505   4.707   4.227   0.799
70761W        W30506   4.868  22.502   5.231
70762W        W30507  19.731  27.649   1.354
70763W        W30508  10.661  18.670  14.813
70764W        W30509   7.236  44.959   2.207
70765W        W30510   2.835   4.384   2.177
70766W        W30511  34.509  44.801  13.409
70767W        W30512  41.479  39.531  13.947
70768W        W30513  35.546  19.581  11.393
70769W        W30514   1.945  42.919   4.275
70770W        W30515  12.292  11.821   4.752
70771W        W30516  35.414  17.711  13.450
70772W        W30517  20.721  32.487  11.021
70773W        W30518  40.048  15.807   2.216
70774W        W30519  35.374  31.901   4.312
70775W        W30520  26.054  13.349  14.494
70776W        W30521  33.116   3.869  10.076
70777W        W30522  26.687  29.992  11.497
70778W        W30523   1.470   3.325  10.410
70779W        W30524   6.912  11.812   4.291
70780W        W30525  28.139  44.803  13.420
70781W        W30526  40.397  20.736  12.895
70782W        W30527  16.767  12.184  12.354
70783W        W30528  34.453  14.189   3.224
70784W        W30529  29.515  39.503  12.421
70785W        W30530   7.842  39.008   3.699
70786W        W30531   7.672  32.509   2.891
70787W        W30532  24.572  27.570   0.961
70788W        W30533  11.150  30.059  14.296
70789W        W30534  25.102  26.988   2.189
70790W        W30535  30.477   0.333  10.471
70791W        W30536  25.182  34.036   2.875
70792W        W30537  38.396  32.011  14.960
70793W        W30538  44.503  33.020  10.540
70794W        W30539  39.893  15.692   3.330
70795W        W30540  28.136   1.891   3.784
70796W        W30541  18.172  25.127   4.236
70797W        W30542   2.344  20.733  10.484
70798W        W30543  34.595  37.412   1.391
70799W        W30544  16.588  14.193   3.170
70800W        W30545  17.560  42.286   2.745
70801W        W30546  25.480  20.050   3.243
70802W        W30547  17.766   5.825  14.004
70803W        W30548  13.793  14.210  12.942
70804W        W30549  16.204  20.635  10.494
70805W        W30550  42.922  17.085  12.443
70806W        W30551  38.825  19.765   1.235
70807W        W30552  43.284  13.163  14.276
70808W        W30553   3.347  11.345  10.554
70809W        W30554  40.000  35.022   4.331
70810W        W30555  42.997  15.644  13.441
70811W        W30556  32.989  16.186  14.911
70812W        W30557  25.192  29.584  11.540
70813W        W30558  15.208   2.328  12.351
70814W        W30559  32.904  18.689   2.666
70815W        W30560  15.679  36.576   9.959
70816W        W30561  24.567  36.861  13.025
70817W        W30562  17.734  16.750  10.999
70818W        W30563  21.748  43.330   3.146
70819W        W30564  36.451  28.066   0.967
70820W        W30565  25.523   9.219   3.359
70821W        W30566  12.258   9.760  14.825
70822W        W30567  37.009   9.875   0.477
70823W        W30568  30.430  38.325   0.862
70824W        W30569  43.927  10.761  11.926
70825W        W30570   1.782   0.949   3.858
70826W        W30571  22.101  42.441  14.849
70827W        W30572   3.427  38.558   5.231
70828W        W30573  35.533   6.413  14.023
70829W        W30574  17.775  23.079  12.824
70830W        W30575  40.025  19.227   3.822
70831W        W30576  14.824  27.180  12.917
70832W        W30577  38.352  22.174   0.441
70833W        W30578  14.638  12.734   0.337
70834W        W30579  11.228  42.346   3.731
70835W        W30580   3.416   3.733  13.505
70836W        W30581  34.083  16.201  11.925
70837W        W30582  44.294  12.275   1.212
70838W        W30583   7.850   0.854   1.706
70839W        W30584  34.092  32.015   2.696
70840W        W30585   1.821  28.478  10.636
70841W        W30586  36.474   6.200  12.377
70842W        W30587  33.509  28.533   3.858
70843W        W30588  33.125  11.175   3.315
70844W        W30589  42.482  43.410  12.848
70845W        W30590  34.923   9.718   0.278
70846W        W30591  13.801  44.393   0.911
70847W        W30592   2.823   7.213   4.758
70848W        W30593  40.968   6.198   1.311
70849W        W30594  25.469  44.308  13.524
70850W        W30595  44.451  22.634  13.493
70851W        W30596  21.613  39.431  13.037
70852W        W30597  28.009  20.703  12.519
70853W        W30598   4.708  31.912  12.893
70854W        W30599  24.120  20.238  14.506
70855W        W30600  22.011  10.319   0.873
70856W        W30601  43.985  22.068  14.486
70857W        W30602  28.536  40.006  10.644
70858W        W30603  39.012  43.938  13.988
70859W        W30604  15.582  20.548  12.949
70860W        W30605  36.902  22.157   1.216
70861W        W30606  44.875   5.278  10.604
70862W        W30607  35.096  42.440  10.487
70863W        W30608  39.392  13.605  10.494
70864W        W30609  39.818  10.184  12.903
70865W        W30610  33.890  34.489  14.007
70866W        W30611  12.160   1.312  14.940
70867W        W30612  31.618  24.021   3.259
70868W        W30613  16.229  16.570   1.711
70869W        W30614  20.561  20.074   0.262
70870W        W30615  14.297   2.731   3.187
70871W        W30616   2.781  10.258   4.176
70872W        W30617  40.390  41.879  12.841
70873W        W30618  12.248  27.143   4.272
70874W        W30619  12.135  42.349  12.924
70875W        W30620   9.793  14.694  14.858
70876W        W30621   5.382  30.522  11.945
70877W        W30622  23.241  32.633   0.880
70878W        W30623  40.917  32.925   1.889
70879W        W30624  29.506   4.346   3.191
70880W        W30625  14.280  29.171  11.018
70881W        W30626  33.962  23.648   3.316
70882W        W30627  25.596   6.351   1.796
70883W        W30628  14.616  22.105  13.062
70884W        W30629  40.500  37.562  11.566
70885W        W30630   3.900  44.848   2.675
70886W        W30631   8.305  31.648  10.940
70887W        W30632  19.777  25.110  10.437
70888W        W30633   2.881   9.217   4.727
70889W        W30634  17.629  27.474   3.146
70890W        W30635  33.478  43.445   0.850
70891W        W30636  42.858  43.480   0.249
70892W        W30637  43.359  26.569  10.456
70893W        W30638  12.290  16.763  14.945
70894W        W30639  25.009  33.464   0.895
70895W        W30640  11.136  13.206  14.900
70896W        W30641  23.585   9.882  11.605
70897W        W30642  23.712  34.410  12.561
70898W        W30643  12.259   4.297  10.624
70899W        W30644  13.698   7.285   0.480
70900W        W30645  26.037   0.353  13.320
70901W        W30646  41.878  10.356  13.312
70902W        W30647  17.083  10.786   2.755
70903W        W30648   9.879  29.565  14.395
70904W        W30649  23.237  16.629  10.980
70905W        W30650  33.541  35.514  13.505
70906W        W30651   4.438   6.314  10.404
70907W        W30652  10.341  17.699  14.301
70908W        W30653  40.956  31.120  12.840
70909W        W30654   9.192  14.234   4.180
70910W        W30655  40.545   1.390   3.735
70911W        W30656  13.203   3.354  10.099
70912W        W30657  27.009  31.416   0.362
70913W        W30658   8.702  27.940   2.387
70914W        W30659  37.891   8.832  14.915
70915W        W30660  35.362  26.174   4.231
70916W        W30661  28.003  40.413   4.170
70917W        W30662  30.023  12.655   0.398
70918W        W30663  25.078  38.039   3.675
70919W        W30664  42.296  30.488   4.319
70920W        W30665   1.325  21.065  12.914
70921W        W30666   7.676  31.048   0.387
70922W        W30667  18.275   0.955  12.988
70923W        W30668  12.182  15.247  11.951
70924W        W30669  31.456  43.876  11.121
70925W        W30670  26.994  28.559   0.258
70926W        W30671  12.338   9.358  11.125
70927W        W30672   2.888   7.180   0.807
70928W        W30673  28.994   0.482   1.421
70929W        W30674  27.087  37.889   2.383
70930W        W30675   5.277  42.945  14.422
70931W        W30676  38.417  22.722   0.424
70932W        W30677  18.179  27.570   0.314
70933W        W30678  39.901  43.908   3.776
70934W        W30679  30.425  30.154  13.827
70935W        W30680   8.327   9.254   0.293
70936W        W30681  13.682  29.059   4.329
70937W        W30682  28.615  33.974  11.530
70938W        W30683  30.051  14.219  13.929
70939W        W30684  38.425  37.054  12.843
70940W        W30685  12.639  25.109  13.991
70941W        W30686  44.780  28.649  13.809
70942W        W30687  15.121  13.604  12.013
70943W        W30688   3.225  34.903  11.102
70944W        W30689  39.314  43.406   3.175
70945W        W30690  18.182  15.157   3.853
70946W        W30691  29.670  20.157   2.336
70947W        W30692  30.042   2.937   2.846
70948W        W30693   5.930  40.828  13.902
70949W        W30694  24.035  11.132   4.673
70950W        W30695   5.736   8.778  13.793
70951W        W30696  38.047  28.012   0.462
70952W        W30697  22.674  36.395   0.845
70953W        W30698  36.051  42.335   3.294
70954W        W30699  38.385  14.658   0.474
70955W        W30700  33.468   7.737   1.282
70956W        W30701   6.326   1.250  12.963
70957W        W30702  39.052  24.603  14.332
70958W        W30703   3.873  44.496   4.807
70959W        W30704   0.817  20.587  14.375
70960W        W30705  20.763  37.973   2.723
70961W        W30706  14.811  40.797  13.816
70962W        W30707  39.830  37.547   1.225
70963W        W30708   9.223  44.456   1.819
70964W        W30709  26.006  20.132   2.785
70965W        W30710   8.878  44.990  14.883
70966W        W30711  10.776  19.122  13.851
70967W        W30712   9.801   1.418   0.795
70968W        W30713  42.845  42.514   1.328
70969W        W30714  14.336  13.329   2.755
70970W        W30715  36.859  15.798   4.232
70971W        W30716  23.079  38.439   1.832
70972W        W30717  43.983  23.519  12.075
70973W        W30718  32.392  29.659   0.477
70974W        W30719  19.714  21.088   0.476
70975W        W30720  29.568  10.814   2.672
70976W        W30721  42.372  16.661   4.322
70977W        W30722   7.857  42.452  12.845
70978W        W30723  36.014   1.318   2.679
70979W        W30724   7.874  43.847   0.858
70980W        W30725  20.192  19.175   3.848
70981W        W30726   5.760  22.044   1.723
70982W        W30727   3.918   7.782   4.253
70983W        W30728  44.957   0.266   1.410
70984W        W30729  12.713   9.782   0.305
70985W        W30730   1.918  43.005   2.411
70986W        W30731  36.019   6.773   1.448
70987W        W30732  16.614  19.112   4.672
70988W        W30733  38.966  41.532  10.554
70989W        W30734  24.008  25.190  10.896
70990W        W30735  32.031  28.132  12.520
70991W        W30736  20.617  38.027   2.327
70992W        W30737   2.326  18.267  12.979
70993W        W30738  20.035  25.099   5.301
70994W        W30739  44.828  24.645  13.448
70995W        W30740  30.551  40.031  10.941
70996W        W30741  11.744  43.271  13.537
70997W        W30742   0.852  12.758  12.897
70998W        W30743  43.000  40.328   2.409
70999W        W30744   0.970  40.972  14.957
71000W        W30745  22.730  16.237  12.378
71001W        W30746  19.260  24.718   1.322
71002W        W30747  12.222   8.306  13.506
71003W        W30748   6.697  11.268   3.685
71004W        W30749   9.217   0.331  13.396
71005W        W30750  35.013  10.781  10.404
71006W        W30751  14.781  23.070   4.283
71007W        W30752  31.028   3.893  11.431
71008W        W30753  16.780   7.371  14.839
71009W        W30754  22.019  11.707   1.804
71010W        W30755   6.792  38.386  13.034
71011W        W30756  35.918  21.687   4.611
71012W        W30757   5.837  37.459   3.693
71013W        W30758  31.986  26.195  14.339
71014W        W30759  22.734  44.830  12.442
71015W        W30760  29.038   1.878  14.485
71016W        W30761  14.673  20.082  11.108
71017W        W30762   8.660  38.488  12.375
71018W        W30763  18.718  33.460  14.882
71019W        W30764   1.468  41.898  11.437
71020W        W30765  11.640  35.379   5.583
71021W        W30766  18.101  24.505   0.830
71022W        W30767   8.661  28.965  13.060
71023W        W30768  44.766  27.594  10.980
71024W        W30769  42.457  26.181  11.020
71025W        W30770  17.065   8.674  11.100
71026W        W30771  37.536  29.018  11.405
71027W        W30772  37.460  13.701  10.991
71028W        W30773  35.526   6.724   4.114
71029W        W30774  12.120  42.951  13.869
71030W        W30775  39.808   4.231   0.266
71031W        W30776  16.765   4.295  13.908
71032W        W30777  17.259  24.222   1.719
71033W        W30778  39.842   0.318   0.788
71034W        W30779  34.008  22.146   3.179
71035W        W30780   4.745  27.069   4.598
71036W        W30781  12.822  10.362   4.315
71037W        W30782  19.584  44.988  14.439
71038W        W30783  44.995   5.864   0.835
71039W        W30784  12.611  25.009   1.740
71040W        W30785  42.859  37.406   2.376
71041W        W30786  14.615   7.733   3.771
71042W        W30787  32.061  22.706  10.980
71043W        W30788   3.248  16.141  13.835
71044W        W30789  10.685   1.799  12.936
71045W        W30790   2.465  13.218   5.256
71046W        W30791  13.125  43.446  14.837
71047W        W30792  31.029  17.612  12.559
71048W        W30793  32.481  27.173   3.195
71049W        W30794  44.756   3.377   3.236
71050W        W30795  27.977  10.848  14.479
71051W        W30796  32.628  14.213  12.403
71052W        W30797  16.625  16.130  12.446
71053W        W30798   8.764  42.349  13.966
71054W        W30799  39.436  39.334  11.987
71055W        W30800   3.871  13.280   4.275
71056W        W30801  38.842  38.501   2.215
71057W        W30802   7.321  20.767   2.888
71058W        W30803  30.436  15.295  13.816
71059W        W30804  37.576  23.517   0.287
71060W        W30805  35.986  22.595   4.259
71061W        W30806  12.674  21.535  14.305
71062W        W30807  35.398  26.053   0.820
71063W        W30808   6.692  40.816  14.966
71064W        W30809  43.367  24.120   2.366
71065W        W30810   7.898  17.718  10.448
71066W        W30811  30.546  40.309  14.428
71067W        W30812  41.534  44.801   4.796
71068W        W30813  30.497  42.438   4.629
71069W        W30814  20.122  40.914   1.783
71070W        W30815   4.710  18.158  12.520
71071W        W30816  29.662  26.009  12.965
71072W        W30817  12.846  36.582   2.798
71073W        W30818  17.792   4.796   2.353
71074W        W30819  43.278  44.931  14.357
71075W        W30820   1.854  42.925  12.898
71076W        W30821  40.469  25.496   1.325
71077W        W30822  29.939  24.005   1.870
71078W        W30823   9.255  18.278   0.745
71079W        W30824   7.253  42.960  12.828
71080W        W30825   7.799  12.805  13.943
71081W        W30826   6.316  34.596   1.271
71082W        W30827  16.305  39.446   1.251
71083W        W30828  10.804  41.444  14.896
71084W        W30829  26.506   0.820  11.533
71085W        W30830  42.353  23.153   1.910
71086W        W30831  37.510  42.973   4.738
71087W        W30832   7.761   1.391  13.416
71088W        W30833   8.300   6.801  14.789
71089W        W30834  32.117  22.135   1.720
71090W        W30835  13.345   4.770   1.451
71091W        W30836  25.705   9.689   4.749
71092W        W30837  14.166  21.587   1.892
71093W        W30838  40.029  22.547  12.913
71094W        W30839  38.855  17.746  14.337
71095W        W30840  39.924   6.410   3.235
71096W        W30841   3.224   1.819  12.558
71097W        W30842   6.411   7.879  13.401
71098W        W30843  15.151  37.494  11.092
71099W        W30844  33.410   7.834   3.733
71100W        W30845   4.851   9.237  12.927
71101W        W30846  36.543  37.448  10.911
71102W        W30847  14.198  10.855   0.406
71103W        W30848  39.956  23.644  11.119
71104W        W30849  37.970  43.846  13.535
71105W        W30850  21.197   3.842  13.363
71106W        W30851  32.989  26.703   4.118
71107W        W30852  20.673  44.484   4.338
71108W        W30853  14.152  34.446  10.027
71109W        W30854  41.456   2.926  14.959
71110W        W30855  44.868   5.218  14.485
71111W        W30856   2.723  24.001  13.856
71112W        W30857  40.494  32.471   1.241
71113W        W30858  12.273  26.047  11.537
71114W        W30859   2.300  26.074   3.693
71115W        W30860  26.085  41.525   3.729
71116W        W30861   1.377  26.130  12.489
71117W        W30862  43.492  24.037   2.782
71118W        W30863  23.231  12.659  14.792
71119W        W30864  33.517   7.710  12.970
71120W        W30865  30.999   1.919  11.960
71121W        W30866   8.729  36.411   1.355
71122W        W30867  13.221  24.169   0.928
71123W        W30868  21.638  29.965  12.066
71124W        W30869  43.361  16.087  14.831
71125W        W30870  19.160  15.583  14.962
71126W        W30871  10.296   1.409   2.883
71127W        W30872   6.282  18.665   2.713
71128W        W30873  25.162  30.581  10.618
71129W        W30874  33.940  24.530  11.964
71130W        W30875  44.472  35.375  12.415
71131W        W30876   4.734  37.021  12.437
71132W        W30877   8.277  13.258   1.910
71133W        W30878  14.337   6.193  12.562
71134W        W30879  38.004  21.661  12.005
71135W        W30880   9.245  31.140   1.768
71136W        W30881  36.858  41.497  12.432
71137W        W30882  19.605  22.164  11.589
71138W        W30883  42.457  26.101   3.841
71139W        W30884  22.572  10.289  12.399
71140W        W30885   3.262  19.089   0.804
71141W        W30886   3.809   7.183   3.852
71142W        W30887   2.261  16.730  14.889
71143W        W30888  19.042  34.457  14.396
71144W        W30889  19.050  28.566   3.268
71145W        W30890  44.393  15.141   2.688
71146W        W30891  30.536  16.765   5.082
71147W        W30892  33.983  14.112   4.178
71148W        W30893  28.126   1.811   0.464
71149W        W30894  43.912  26.982   1.884
71150W        W30895  39.884  31.934   2.679
71151W        W30896   0.984  25.683   4.673
71152W        W30897  43.357  19.164  14.430
71153W        W30898   0.779   8.337  13.012
71154W        W30899  39.389  21.104  11.880
71155W        W30900   4.317  36.375  13.508
71156W        W30901  19.543  34.431  13.022
71157W        W30902  10.689   1.411   3.644
71158W        W30903  39.866  33.476   0.325
71159W        W30904  28.457  28.054   4.281
71160W        W30905   4.852   6.859   1.764
71161W        W30906  42.410   4.836  12.936
71162W        W30907  41.363   5.210   0.954
71163W        W30908  10.302   7.666  11.579
71164W        W30909  39.002  13.819  10.537
71165W        W30910  42.880  21.672   1.324
71166W        W30911  16.794   4.791  10.518
71167W        W30912  40.373  34.040   0.447
71168W        W30913  33.068  40.536  14.371
71169W        W30914  26.590  42.826  12.536
71170W        W30915  39.852  35.464   4.828
71171W        W30916  24.978  11.239   3.234
71172W        W30917   7.365  20.155  14.370
71173W        W30918  30.521   1.832   4.728
71174W        W30919  33.120   4.244   3.281
71175W        W30920  29.024  20.247  10.588
71176W        W30921  39.449  33.559  12.344
71177W        W30922  15.290   5.383   4.148
71178W        W30923   5.264  33.578  12.445
71179W        W30924  25.210  16.145   2.674
71180W        W30925  16.810  35.042  10.983
71181W        W30926  33.028  13.665  14.840
71182W        W30927  33.058  17.701   2.900
71183W        W30928   5.881   0.905   4.754
71184W        W30929  14.735  15.704   0.887
71185W        W30930  34.993   5.406  14.880
71186W        W30931  37.037  14.691  13.540
71187W        W30932   6.868  23.669   4.173
71188W        W30933  35.051  22.165   3.762
71189W        W30934  20.608  10.639  11.479
71190W        W30935  29.163   2.954   2.413
71191W        W30936   9.192  10.271   2.390
71192W        W30937  24.626  34.089   0.937
71193W        W30938   8.174  30.440   3.215
71194W        W30939  19.195  10.652   4.310
71195W        W30940   7.363  38.931  13.802
71196W        W30941  26.632  14.297  10.595
71197W        W30942  32.910   8.655  12.895
71198W        W30943  15.698   8.317   4.171
71199W        W30944   2.461  23.235  11.479
71200W        W30945  41.373  29.441   4.628
71201W        W30946  44.788  21.657   2.884
71202W        W30947   8.213  33.035  10.587
71203W        W30948  40.477  19.247   3.705
71204W        W30949  12.257  25.492  10.530
71205W        W30950  23.666   8.709  13.804
71206W        W30951  40.312  29.943   3.650
71207W        W30952  29.918  32.555   3.746
71208W        W30953  27.565  26.139  11.021
71209W        W30954  24.516  40.431   3.163
71210W        W30955  11.712  44.278   0.906
71211W        W30956  13.249   5.379  10.603
71212W        W30957   1.790  24.557  13.946
71213W        W30958  26.572  13.339   1.768
71214W        W30959   5.739  36.539  11.049
71215W        W30960  28.567  10.788   3.364
71216W        W30961  28.105  26.206   1.760
71217W        W30962  40.885   1.423  10.928
71218W        W30963   5.351  36.889   3.672
71219W        W30964  26.604  13.658   0.922
71220W        W30965  38.326  33.623   3.187
71221W        W30966  28.451  22.175  14.821
71222W        W30967  44.437   5.843  12.007
71223W        W30968  37.441  28.599  11.939
71224W        W30969  22.157  16.705  13.427
71225W        W30970   0.248  11.142   0.808
71226W        W30971  35.073   0.804   0.307
71227W        W30972  31.419  14.816  11.490
71228W        W30973   1.368   0.899   1.214
71229W        W30974   5.704   3.362  14.764
71230W        W30975  37.552  26.589  14.432
71231W        W30976  15.614  29.595   2.709
71232W        W30977  40.914  41.407  12.548
71233W        W30978   5.885  30.120  11.435
71234W        W30979  28.579  36.934   2.856
71235W        W30980  37.469  24.179  12.018
71236W        W30981  31.467  35.577  11.870
71237W        W30982   4.381  14.165  13.802
71238W        W30983   0.886   8.855   1.879
71239W        W30984  29.027   2.325   4.184
71240W        W30985  35.358  15.796  11.578
71241W        W30986   2.284  44.417   9.997
71242W        W30987   2.901  26.020  10.469
71243W        W30988  25.670  41.498   5.110
71244W        W30989   2.890  29.010   4.261
71245W        W30990  22.737  33.518  12.983
71246W        W30991  32.141  32.546  14.894
71247W        W30992  25.029  26.623   2.345
71248W        W30993  14.719  31.529  10.641
71249W        W30994  11.286  15.235  14.939
71250W        W30995  30.037  21.205   0.380
71251W        W30996   1.740  43.905  11.946
71252W        W30997  12.287   8.201   3.783
71253W        W30998  29.601  28.545   1.340
71254W        W30999  14.828  35.421   0.483
71255W        W31000  42.937  16.587   3.316
71256W        W31001  16.146  33.525   1.350
71257W        W31002   5.917  10.648   0.326
71258W        W31003  21.745  24.604  13.818
71259W        W31004  13.114  42.286   3.203
71260W        W31005   4.265   3.822   2.336
71261W        W31006  43.956  22.513  13.893
71262W        W31007  32.467   3.307   4.317
71263W        W31008   1.946  19.156  13.433
71264W        W31009  34.051  18.628  13.353
71265W        W31010  28.070   7.324  14.766
71266W        W31011   6.892  22.535  11.443
71267W        W31012   0.476  42.365   2.765
71268W        W31013   7.698   8.294  14.358
71269W        W31014   1.351  16.648   0.289
71270W        W31015  17.561  17.619  11.874
71271W        W31016  14.304  14.139  11.469
71272W        W31017   2.731  27.658  13.902
71273W        W31018  44.326  39.879  12.039
71274W        W31019  30.159  10.780   4.147
71275W        W31020   1.292  38.433   0.455
71276W        W31021  22.217  25.096  11.476
71277W        W31022  17.637   4.239  13.876
71278W        W31023   6.738  28.064  14.361
71279W        W31024  19.679  43.990  10.045
71280W        W31025  18.756  25.997   3.635
71281W        W31026  36.587  19.589   3.253
71282W        W31027   7.178  10.146  11.957
71283W        W31028  26.978  10.691   2.785
71284W        W31029  17.237   4.769  11.562
71285W        W31030  23.152  40.321  11.128
71286W        W31031  18.079   1.400  10.615
71287W        W31032  24.562  36.897  10.999
71288W        W31033  28.557  23.633   4.138
71289W        W31034   5.432   4.392  11.020
71290W        W31035  43.402   6.900  14.825
71291W        W31036   4.349   9.223  13.041
71292W        W31037   5.906  24.179  13.811
71293W        W31038   4.901  28.438   3.182
71294W        W31039  21.101  34.905  12.535
71295W        W31040  13.189  43.015   0.771
71296W        W31041   6.184  40.923   1.447
71297W        W31042  29.632  41.449  11.975
71298W        W31043  33.997  33.101   3.271
71299W        W31044   6.384  22.556  12.363
71300W        W31045  40.831   2.851  13.447
71301W        W31046  10.833  21.037  10.613
71302W        W31047  34.982  32.396  13.794
71303W        W31048  44.940  25.058  13.540
71304W        W31049  27.037  17.099   3.328
71305W        W31050  15.622   6.244  10.404
71306W        W31051  36.949  37.412  11.542
71307W        W31052  15.816  18.548  11.547
71308W        W31053  27.141   3.217   2.746
71309W        W31054  25.107  42.947  10.911
71310W        W31055  44.940  28.148  11.029
71311W        W31056  31.480  41.920   2.745
71312W        W31057  13.120  13.664   3.840
71313W        W31058  29.561  34.983   2.903
71314W        W31059   5.401  31.566   1.378
71315W        W31060  29.100   2.250  14.453
71316W        W31061  25.691  21.200   2.861
71317W        W31062  30.995   6.835   0.477
71318W        W31063  34.507  35.551   3.695
71319W        W31064  19.660  15.084  11.077
71320W        W31065  12.318  32.074   2.314
71321W        W31066  11.235  10.651   3.344
71322W        W31067   9.800  42.393  12.515
71323W        W31068  31.531  37.381  13.834
71324W        W31069   1.752   5.862   4.704
71325W        W31070  39.036  32.974  14.946
71326W        W31071  31.980  34.556  12.026
71327W        W31072   9.229  21.029  10.575
71328W        W31073   8.330   2.924   0.726
71329W        W31074   2.435   0.452   0.862
71330W        W31075  19.682   4.718  12.071
71331W        W31076  19.551  33.121   1.844
71332W        W31077  33.878  17.738  13.041
71333W        W31078  37.564  36.980  10.564
71334W        W31079  32.939  17.733  11.107
71335W        W31080  34.481  29.641   0.860
71336W        W31081  25.568  17.307   0.774
71337W        W31082  31.441  34.591  12.089
71338W        W31083  11.182  13.846   3.352
71339W        W31084  14.663   2.848   4.736
71340W        W31085  26.119   7.250   0.258
71341W        W31086  40.380  18.069   2.300
71342W        W31087   8.211  36.406   0.946
71343W        W31088  36.970  25.672   4.648
71344W        W31089  11.269  35.377  10.523
71345W        W31090  32.085  20.767  10.410
71346W        W31091   3.714  22.511  12.531
71347W        W31092   1.329   5.376  14.397
71348W        W31093  21.544   1.740   4.711
71349W        W31094  38.430  35.381   0.847
71350W        W31095   1.744  16.712  10.903
71351W        W31096  12.671  24.128   3.838
71352W        W31097  38.356  31.433  13.493
71353W        W31098  36.512  20.555  11.045
71354W        W31099  30.567   2.442   1.302
71355W        W31100  23.186  28.463   4.153
71356W        W31101  39.553  17.203   1.775
71357W        W31102   0.413  24.175   4.677
71358W        W31103  15.198  15.218  13.050
71359W        W31104  29.434  17.775  13.831
71360W        W31105   8.188   0.869   0.438
71361W        W31106  24.014  13.130  10.063
71362W        W31107  18.591  27.001   3.700
71363W        W31108  40.926  17.150   3.205
71364W        W31109   1.327  21.112  12.439
71365W        W31110  44.940  32.433   1.383
71366W        W31111   8.841   1.782   2.826
71367W        W31112  22.155  23.099   1.696
71368W        W31113  19.243  42.433  12.355
71369W        W31114  44.350   3.385  14.379
71370W        W31115  13.809  17.652  11.932
71371W        W31116  44.981  20.680   4.671
71372W        W31117  38.547  31.899  12.943
71373W        W31118  44.432   8.292   4.164
71374W        W31119  25.088   7.884   1.916
71375W        W31120  40.332   4.389   1.382
71376W        W31121  34.012  41.517   4.146
71377W        W31122  44.968  20.561  13.536
71378W        W31123  22.018   4.799  12.580
71379W        W31124   0.902  11.337   1.844
71380W        W31125  22.593   7.387  13.828
71381W        W31126  44.283   3.301  10.473
71382W        W31127  18.759  20.583   3.658
71383W        W31128   6.870  20.585  10.555
71384W        W31129  30.456  25.501   2.272
71385W        W31130  31.969  38.437   2.193
71386W        W31131  43.485  20.523   3.848
71387W        W31132  14.628   6.214   4.721
71388W        W31133  11.850   4.756  10.149
71389W        W31134  33.624  13.322   1.851
71390W        W31135  10.309  31.582   3.253
71391W        W31136  28.977  39.398   0.309
71392W        W31137  35.421  27.141  12.423
71393W        W31138   7.360  19.720  10.631
71394W        W31139  20.200   2.887   1.438
71395W        W31140   1.866  20.623   1.363
71396W        W31141  39.024  42.316  10.628
71397W        W31142  10.846  32.026   2.208
71398W        W31143  40.367   4.232   3.347
71399W        W31144  24.979  38.560   0.877
71400W        W31145  41.523  37.905  12.876
71401W        W31146   9.381  30.165  13.464
71402W        W31147  18.636  42.880   0.801
71403W        W31148  12.691  25.066  11.938
71404W        W31149  28.601  30.044   0.469
71405W        W31150  19.198  39.892   4.301
71406W        W31151   1.467   5.856  11.907
71407W        W31152  25.644  20.565  14.361
71408W        W31153  17.187  43.471  12.999
71409W        W31154   4.385  41.009   4.321
71410W        W31155  35.092  23.612  14.437
71411W        W31156   3.230  29.002   4.608
71412W        W31157   2.915  34.015   0.862
71413W        W31158  28.588  17.199   1.790
71414W        W31159  23.573  41.846  14.449
71415W        W31160  43.298  30.579   5.081
71416W        W31161   4.352  39.420   3.322
71417W        W31162  19.554   8.263  10.453
71418W        W31163  25.179  31.946   1.320
71419W        W31164  12.739  44.974  13.395
71420W        W31165  24.200   0.280   1.807
71421W        W31166   6.737  44.902  12.823
71422W        W31167  12.206  25.613   0.437
71423W        W31168   3.256  37.502  13.414
71424W        W31169   9.218   9.738   3.638
71425W        W31170  30.427  27.606  13.501
71426W        W31171  20.238  20.136  12.866
71427W        W31172  39.855  12.342   3.258
71428W        W31173  34.960  10.216   9.949
71429W        W31174  33.523  43.794   1.922
71430W        W31175  44.920   8.669   5.133
71431W        W31176  10.772   6.902   1.719
71432W        W31177   9.791  29.442   2.268
71433W        W31178  11.232  13.203   2.874
71434W        W31179  17.615  25.538  14.835
71435W        W31180  18.790   5.870   0.371
71436W        W31181  26.530  15.781  12.848
71437W        W31182  38.030  33.969  14.864
71438W        W31183   6.240  42.860  14.961
71439W        W31184  11.241  18.191  12.973
71440W        W31185  17.163  44.419   3.846
71441W        W31186  18.768   7.707   1.730
71442W        W31187   6.290   8.180  13.941
71443W        W31188   4.323  28.515  10.899
71444W        W31189   3.906   2.911  11.901
71445W        W31190  36.910  10.148   2.389
71446W        W31191  38.064  38.343  12.866
71447W        W31192  41.935  14.133   0.437
71448W        W31193  39.881  30.547  10.419
71449W        W31194  43.782  25.697  11.010
71450W        W31195  22.726  37.551   2.821
71451W        W31196  21.533  29.021   9.978
71452W        W31197   9.186  12.766  14.893
71453W        W31198  24.531  21.146   2.297
71454W        W31199  42.885  32.950   2.341
71455W        W31200  30.441  29.079   0.316
71456W        W31201   0.772  14.311   1.307
71457W        W31202   6.326  35.377   2.864
71458W        W31203  29.115  36.076   4.164
71459W        W31204   9.732  20.623  12.096
71460W        W31205  33.997  22.008  13.456
71461W        W31206  34.565  31.121  13.064
71462W        W31207  30.499  43.821  11.921
71463W        W31208  42.308  41.448   1.819
71464W        W31209  29.480   3.839  12.895
71465W        W31210  16.607  40.008   3.712
71466W        W31211  22.648  38.887  10.489
71467W        W31212   8.788  22.528   1.345
71468W        W31213  30.635  27.126   0.942
71469W        W31214  34.991  17.255   2.214
71470W        W31215  16.676  16.165   2.355
71471W        W31216  12.286  13.207   3.844
71472W        W31217  44.422   2.721  10.628
71473W        W31218  42.324   0.465   3.359
71474W        W31219  37.884  22.082  13.041
71475W        W31220  42.412   9.773  14.779
71476W        W31221  39.971   9.291  14.317
71477W        W31222  43.353   9.806   2.876
71478W        W31223  27.539  26.648  14.314
71479W        W31224  31.083  19.641  12.527
71480W        W31225  44.483  34.001  10.596
71481W        W31226  33.096   1.769  13.411
71482W        W31227  31.151  18.083  10.456
71483W        W31228  15.665  18.635   5.160
71484W        W31229  40.983  30.146   4.193
71485W        W31230  32.413  28.054   1.767
71486W        W31231  37.372  37.049   3.709
71487W        W31232  16.654  24.662  14.909
71488W        W31233  16.279  14.793  12.465
71489W        W31234  28.503   2.458  11.107
71490W        W31235  43.420  20.741   2.849
71491W        W31236  14.293  25.054   4.799
71492W        W31237  33.077  39.325  12.839
71493W        W31238  27.554   9.713   2.730
71494W        W31239  23.041  11.628  12.578
71495W        W31240  31.588  12.267  12.080
71496W        W31241  26.953  22.707  13.449
71497W        W31242  39.326   6.245   0.340
71498W        W31243  24.193  42.000  13.544
71499W        W31244  13.655  30.446   0.245
71500W        W31245  17.285   7.397   0.466
71501W        W31246  40.332  19.275  11.066
71502W        W31247  16.664  16.253  14.877
71503W        W31248   6.680  33.095  12.025
71504W        W31249  39.444  10.271   1.914
71505W        W31250  29.429  22.080  13.526
71506W        W31251  15.266   3.724   2.419
71507W        W31252  33.493  21.197  14.412
71508W        W31253  14.779  19.537  12.885
71509W        W31254   0.466   3.244   0.362
71510W        W31255  30.909   4.388   0.727
71511W        W31256   7.369  27.153  11.919
71512W        W31257  26.129  24.220   2.796
71513W        W31258   3.840  37.863   0.355
71514W        W31259  19.153  13.162   4.706
71515W        W31260  35.910  20.215   3.861
71516W        W31261  43.952  42.798   1.697
71517W        W31262  34.027  25.024   4.308
71518W        W31263  25.068  13.735  14.880
71519W        W31264  41.826  13.153   4.297
71520W        W31265  14.763  21.023  10.974
71521W        W31266  19.654  37.570   3.232
71522W        W31267   4.775   9.389   2.715
71523W        W31268  43.424  30.610   0.737
71524W        W31269  17.680  33.586  13.991
71525W        W31270  14.828   2.956  13.396
71526W        W31271  37.008  11.686   3.648
71527W        W31272  14.263   0.943  13.465
71528W        W31273  11.816  30.571  10.960
71529W        W31274  33.087  21.069  10.523
71530W        W31275  36.920   0.963   1.775
71531W        W31276  24.101  19.040   2.367
71532W        W31277   5.821   1.318  12.860
71533W        W31278   3.723  35.598   0.331
71534W        W31279  31.554   6.194  14.898
71535W        W31280  31.003  21.638  11.880
71536W        W31281   0.345   6.691   0.733
71537W        W31282  41.854  16.672  14.495
71538W        W31283   8.275  42.358  11.969
71539W        W31284  24.048   7.787  11.439
71540W        W31285  30.055  32.996  10.952
71541W        W31286  21.077  16.647   2.212
71542W        W31287  13.739   8.277   1.287
71543W        W31288  34.407  28.951   1.918
71544W        W31289  26.494   3.401  12.349
71545W        W31290   4.858   1.355  14.024
71546W        W31291  21.034  17.165   2.353
71547W        W31292   0.362   7.707   2.227
71548W        W31293  43.765  40.830   1.733
71549W        W31294  41.463  24.704  14.021
71550W        W31295  41.365  41.454   4.126
71551W        W31296   5.381  13.332   3.185
71552W        W31297  17.661  16.585  14.884
71553W        W31298  41.388  27.154   1.918
71554W        W31299  37.552   5.751   4.807
71555W        W31300   1.805  21.636   1.292
71556W        W31301  35.993  12.668  12.411
71557W        W31302  31.414  40.548  11.452
71558W        W31303  24.013   9.248  12.973
71559W        W31304  35.583  20.568  11.033
71560W        W31305  42.918  24.562   2.822
71561W        W31306  32.604  35.360  12.072
71562W        W31307  36.381   3.246   3.372
71563W        W31308  44.367  28.568   9.444
71564W        W31309  31.046  24.196   0.848
71565W        W31310  43.443  36.367   4.158
71566W        W31311   9.854  39.472  12.070
71567W        W31312   8.813   4.423   0.852
71568W        W31313  31.942  25.508   2.254
71569W        W31314  21.614  19.081   4.234
71570W        W31315  17.594  24.626   4.138
71571W        W31316  33.493  26.555   1.763
71572W        W31317  43.010  28.988  13.794
71573W        W31318  32.112  23.065   2.787
71574W        W31319  24.214  27.951   4.653
71575W        W31320  37.830  12.686  14.828
71576W        W31321  25.698  30.581   3.719
71577W        W31322  11.626  43.822  10.946
71578W        W31323  12.358   1.320  12.535
71579W        W31324  26.031  30.015   3.256
71580W        W31325  22.060  43.383   2.267
71581W        W31326  19.084  22.745  14.322
71582W        W31327  31.464  43.491  13.044
71583W        W31328   7.191   2.303  11.024
71584W        W31329  21.116  19.186  14.403
71585W        W31330   4.362  19.589   0.450
71586W        W31331   5.284   9.669  12.562
71587W        W31332   3.792  31.610   1.762
71588W        W31333  41.807  35.400  13.489
71589W        W31334  17.793  15.301  13.368
71590W        W31335  26.176  17.750   1.731
71591W        W31336  20.075  39.514   1.790
71592W        W31337  12.257   0.363   4.216
71593W        W31338  43.419   9.393   0.424
71594W        W31339  27.597  32.605   3.158
71595W        W31340  37.383  43.456  11.420
71596W        W31341  22.560  13.309   2.733
71597W        W31342  38.410  35.063  13.804
71598W        W31343  11.675  32.913   3.745
71599W        W31344  14.298  40.946  12.883
71600W        W31345  18.295   9.652  13.792
71601W        W31346  30.102  43.923  12.408
71602W        W31347  30.070  41.787  12.452
71603W        W31348  11.857   3.370   1.423
71604W        W31349  12.276  41.902   1.889
71605W        W31350  22.056   0.813   5.134
71606W        W31351   0.897  40.996  10.525
71607W        W31352  28.535  24.197  13.906
71608W        W31353   8.404  31.088   0.832
71609W        W31354  21.576  35.982   3.843
71610W        W31355  44.348  36.904  13.921
71611W        W31356  41.492   6.739  13.400
71612W        W31357  19.111  11.689  14.974
71613W        W31358  15.198  17.640  13.524
71614W        W31359  39.546   0.293  11.010
71615W        W31360  38.855  27.149  10.443
71616W        W31361  31.506  35.366   0.875
71617W        W31362  42.477   0.987   4.757
71618W        W31363  40.526  36.031  14.981
71619W        W31364  32.109  26.643   4.177
71620W        W31365  11.234  10.816  12.966
71621W        W31366  30.929   8.235   4.164
71622W        W31367  39.356  12.190   2.881
71623W        W31368  25.073  16.262   4.326
71624W        W31369   0.967  13.724   4.730
71625W        W31370  39.339  28.037   0.327
71626W        W31371  36.476  41.880   1.255
71627W        W31372  38.491  18.570   4.136
71628W        W31373  33.386  21.597  10.959
71629W        W31374   5.903  44.488   4.115
71630W        W31375  32.033  18.162  14.274
71631W        W31376  12.777  31.114  12.394
71632W        W31377  40.988  38.973   4.638
71633W        W31378   4.898  19.061   0.269
71634W        W31379  17.672  17.751  14.842
71635W        W31380  26.691  42.333  14.882
71636W        W31381  25.660   7.835  10.567
71637W        W31382  28.047   4.881   1.897
71638W        W31383  19.259  39.477   2.747
71639W        W31384  31.419  21.673   2.880
71640W        W31385   9.376   0.357  14.338
71641W        W31386  12.808  31.994   3.771
71642W        W31387  23.627  30.447  14.796
71643W        W31388  35.082  41.930   3.276
71644W        W31389  27.608  28.086   4.837
71645W        W31390   2.804  20.141  13.938
71646W        W31391  16.259   3.434   0.807
71647W        W31392  35.546   1.317  11.123
71648W        W31393  41.965   4.241  12.879
71649W        W31394  27.086  40.393  12.418
71650W        W31395  18.786   5.737  13.343
71651W        W31396  33.465  41.388  10.921
71652W        W31397  24.536   2.958   0.282
71653W        W31398  23.579  24.103   1.251
71654W        W31399  38.850  32.425  12.969
71655W        W31400   3.783   8.889   5.278
71656W        W31401  14.109   2.826   1.733
71657W        W31402   9.264  39.922  14.382
71658W        W31403  43.478  29.664   5.229
71659W        W31404  30.000   3.761   3.368
71660W        W31405  26.518  35.464  11.532
71661W        W31406  16.674   0.747  14.789
71662W        W31407  15.751  18.686   0.315
71663W        W31408  41.424   9.318  12.568
71664W        W31409  42.398  44.270   4.197
71665W        W31410  43.852  11.202  10.567
71666W        W31411  38.855   9.708  13.947
71667W        W31412  41.376  39.368   1.922
71668W        W31413  23.627   4.945   1.792
71669W        W31414  38.512  26.025  10.619
71670W        W31415  27.005  34.087   0.369
71671W        W31416  38.860  19.222  11.532
71672W        W31417  27.650  11.848  13.927
71673W        W31418   1.359   2.457   0.443
71674W        W31419   9.782  16.659  11.588
71675W        W31420   4.346  11.819  12.525
71676W        W31421  11.777  40.914  14.421
71677W        W31422  14.643  25.687  13.850
71678W        W31423  29.167  24.204  12.088
71679W        W31424  24.620   1.961  11.968
71680W        W31425  26.180  34.019  12.481
71681W        W31426  37.010  35.440  11.413
71682W        W31427   8.802  42.454   3.834
71683W        W31428  32.621  22.681  14.408
71684W        W31429  19.672  11.813   1.804
71685W        W31430  40.016  10.847  11.371
71686W        W31431  25.088  44.881  11.012
71687W        W31432   0.900  35.580   1.831
71688W        W31433  15.673  38.552   1.442
71689W        W31434  36.927  43.823   0.728
71690W        W31435  27.131   0.816  12.887
71691W        W31436  38.434   7.700  11.539
71692W        W31437   7.796  39.003   0.372
71693W        W31438  23.598  13.323  13.018
71694W        W31439  44.760  11.339   0.799
71695W        W31440  44.440  19.768   2.843
71696W        W31441  38.555  23.602  14.422
71697W        W31442   6.408  18.617   2.332
71698W        W31443  35.071   6.276  11.440
71699W        W31444  33.588   2.380   2.800
71700W        W31445   1.762   2.948   0.359
71701W        W31446  25.997   5.827   3.722
71702W        W31447  10.227  42.285   0.459
71703W        W31448  30.498  16.305   3.169
71704W        W31449  26.154  35.108   4.151
71705W        W31450  36.008  18.562  11.027
71706W        W31451  37.340   4.340  12.404
71707W        W31452  40.900  27.460  12.902
71708W        W31453  26.502  39.511   4.730
71709W        W31454  41.981  12.770  11.079
71710W        W31455  43.277   3.392  11.020
71711W        W31456  32.995   7.229  12.487
71712W        W31457   0.400  17.193  14.497
71713W        W31458  12.189  10.788   2.776
71714W        W31459  25.506   4.778  13.446
71715W        W31460  16.164  32.089  10.584
71716W        W31461  18.546  27.507  10.550
71717W        W31462  22.649  33.597  14.861
71718W        W31463  29.535   2.888   3.686
71719W        W31464  29.432  38.828  10.151
71720W        W31465   8.216  44.756   4.716
71721W        W31466  42.978  34.605   0.891
71722W        W31467  23.723  16.685  14.446
71723W        W31468   4.399  30.634  13.021
71724W        W31469  38.030   8.856   3.830
71725W        W31470  23.069  16.294  13.478
71726W        W31471  44.498   4.271   4.127
71727W        W31472   5.334   9.159   3.192
71728W        W31473  11.311   6.679   1.818
71729W        W31474  21.687  18.240  13.426
71730W        W31475  42.934  13.107   3.320
71731W        W31476  34.615  34.120   2.213
71732W        W31477  19.617  11.666  10.519
71733W        W31478  21.242  13.231   0.949
71734W        W31479  18.269  19.042  11.466
71735W        W31480   6.833  19.750   4.334
71736W        W31481   7.177  15.150  14.307
71737W        W31482  30.927   4.386   0.333
71738W        W31483  32.016  43.016   3.250
71739W        W31484  13.158  40.911  14.463
71740W        W31485   1.861  19.721  14.925
71741W        W31486  23.992  26.031   1.802
71742W        W31487  24.024   6.426  10.594
71743W        W31488  10.706  22.517  13.350
71744W        W31489  21.554   4.252   0.314
71745W        W31490  28.480  32.977   0.774
71746W        W31491  34.874   5.876   4.832
71747W        W31492  15.610  28.961   2.208
71748W        W31493   5.428  18.265   2.179
71749W        W31494  44.474  14.132  13.060
71750W        W31495  33.923  22.701   1.446
71751W        W31496  18.255   3.761   4.697
71752W        W31497  20.241  21.217   4.141
71753W        W31498  41.384   5.284  13.365
71754W        W31499  19.597  18.742   2.767
71755W        W31500   1.273  30.511   0.777
71756W        W31501   9.195  30.597  13.492
71757W        W31502  39.832   2.269   1.363
71758W        W31503   6.858  39.959   4.818
71759W        W31504  17.711  26.547   0.436
71760W        W31505   6.863  36.999  12.451
71761W        W31506   1.846  29.122  14.781
71762W        W31507  30.970  18.202   1.906
71763W        W31508   6.699  11.215  10.433
71764W        W31509  41.360   7.388  12.838
71765W        W31510   8.842  25.198  11.399
71766W        W31511  31.615  17.245  12.510
71767W        W31512  24.634   9.743   4.172
71768W        W31513  38.914  12.183   3.173
71769W        W31514  43.973  24.005  11.440
71770W        W31515  13.754  41.801  12.078
71771W        W31516  17.651  12.663   2.861
71772W        W31517  16.170  37.922   4.797
71773W        W31518  24.654  44.832  13.389
71774W        W31519  15.622  17.740  14.287
71775W        W31520   7.187  18.054  14.888
71776W        W31521  13.762  15.098  10.482
71777W        W31522  24.140  43.414  11.518
71778W        W31523  44.995  18.211   5.318
71779W        W31524  20.052   2.924   4.158
71780W        W31525  23.209   8.697  13.324
71781W        W31526  25.538  18.050   2.883
71782W        W31527  24.227  43.495   4.319
71783W        W31528  10.665  39.540   0.342
71784W        W31529  15.711   0.325   0.905
71785W        W31530  29.539  20.733  11.528
71786W        W31531  19.643   9.273   3.175
71787W        W31532  12.770  35.580   1.392
71788W        W31533  38.558  14.687  11.873
71789W        W31534  22.647  16.095  12.047
71790W        W31535  15.718  26.964   4.230
71791W        W31536  15.105  42.458   2.227
71792W        W31537   0.272  22.636   3.193
71793W        W31538  42.431  26.544  11.559
71794W        W31539  23.565   1.929   3.192
71795W        W31540  24.576  44.377   4.197
71796W        W31541  44.275  28.563  14.439
71797W        W31542  38.425  15.670  10.522
71798W        W31543   6.405  40.853   4.218
71799W        W31544  23.984  16.674   0.464
71800W        W31545   6.862  36.004  10.988
71801W        W31546  21.685  29.954   0.425
71802W        W31547   9.204   6.698  12.078
71803W        W31548  20.621  42.852   3.385
71804W        W31549  37.061  33.002   1.720
71805W        W31550   6.294   6.769   1.245
71806W        W31551  40.421  27.980  13.417
71807W        W31552  28.671  29.462   0.784
71808W        W31553  10.710  26.040  11.409
71809W        W31554  37.337  12.743   1.904
71810W        W31555  35.412  35.024   3.692
71811W        W31556  41.478  10.874   0.281
71812W        W31557   3.791  17.245  14.420
71813W        W31558  41.916  39.456  13.917
71814W        W31559  38.852  41.362   9.999
71815W        W31560  23.575   1.239   4.801
71816W        W31561  35.029  23.145   2.373
71817W        W31562  13.215  17.188   0.480
71818W        W31563   2.938   6.777   1.361
71819W        W31564  34.025   5.821   2.308
71820W        W31565  32.006  15.274  11.015
71821W        W31566  32.406  32.573  11.908
71822W        W31567  43.434  22.628   1.364
71823W        W31568  34.966  22.720   2.805
71824W        W31569  44.358  17.717   1.725
71825W        W31570  26.164  29.040  13.056
71826W        W31571  24.497  28.529   3.358
71827W        W31572  34.490  27.640   0.342
71828W        W31573   3.887   5.207  13.516
71829W        W31574  15.657  43.830  11.476
71830W        W31575  20.623  11.182  12.359
71831W        W31576  38.424  15.100  10.620
71832W        W31577  30.475   0.891   0.378
71833W        W31578  21.544  18.580   4.791
71834W        W31579  41.345  41.452   3.217
71835W        W31580  29.624  12.272   0.447
71836W        W31581  39.444   7.797  14.981
71837W        W31582   3.919   8.276   3.674
71838W        W31583  10.660   5.222  10.455
71839W        W31584  29.594  40.334   2.414
71840W        W31585  39.005  41.421   3.823
71841W        W31586  27.571  17.216  14.926
71842W        W31587  33.943  29.096   3.629
71843W        W31588  18.589   6.267  10.535
71844W        W31589  10.290  15.731   2.374
71845W        W31590  25.526  10.317  13.475
71846W        W31591  42.855  43.022  14.794
71847W        W31592   0.825  20.681   3.268
71848W        W31593  43.395  34.972   2.355
71849W        W31594  29.066   5.870  10.605
71850W        W31595  36.390  30.604  12.563
71851W        W31596  23.013  23.591   0.729
71852W        W31597  31.645  16.617   0.398
71853W        W31598  31.937  42.833  11.452
71854W        W31599  30.929  40.503  14.392
71855W        W31600  25.126  31.402   0.784
71856W        W31601   0.873  23.584  13.876
71857W        W31602  32.096  33.389  13.372
71858W        W31603   6.749  43.877  12.937
71859W        W31604  12.854   6.739   3.145
71860W        W31605  25.599  10.198   0.900
71861W        W31606  28.491  26.994   1.275
71862W        W31607  26.461   7.189   3.841
71863W        W31608   9.382  26.632  12.871
71864W        W31609  11.314  33.522   1.878
71865W        W31610  24.554  23.065   0.353
71866W        W31611  22.077  26.120   0.282
71867W        W31612  19.070  23.063   2.184
71868W        W31613   3.361   0.899   0.766
71869W        W31614   5.438   5.732   2.243
71870W        W31615  23.236  43.446   0.788
71871W        W31616  29.447  12.269   1.852
71872W        W31617  29.987  12.162  11.507
71873W        W31618  30.075  32.121   3.270
71874W        W31619  32.495  24.983   4.634
71875W        W31620  24.522  40.954  11.398
71876W        W31621  35.941  26.622  14.356
71877W        W31622  18.230  41.504   1.423
71878W        W31623  29.453  29.111  14.007
71879W        W31624  44.865   4.713   0.255
71880W        W31625   0.954  37.492   3.195
71881W        W31626   6.295  32.491  14.365
71882W        W31627   4.768  44.350  14.986
71883W        W31628  21.598  26.512   2.884
71884W        W31629  12.658  31.604   0.834
71885W        W31630   5.403   2.372  10.547
71886W        W31631  33.886  29.028   1.433
71887W        W31632   5.702  32.110  10.410
71888W        W31633   9.199   0.765   2.293
71889W        W31634  15.604  41.888  12.409
71890W        W31635  31.023  39.354   2.353
71891W        W31636  31.089  25.160  14.493
71892W        W31637   9.846  41.430  13.414
71893W        W31638  30.135  31.070   1.890
71894W        W31639  41.877   5.406  11.107
71895W        W31640   4.710  38.344   1.238
71896W        W31641  20.094  26.670  13.058
71897W        W31642  22.546  41.352  13.398
71898W        W31643  13.786  27.139   2.344
71899W        W31644  34.055  21.731  14.469
71900W        W31645   5.771  17.215   0.407
71901W        W31646  38.074  40.948  11.997
71902W        W31647  38.428  37.073  11.594
71903W        W31648  31.945  10.183   3.243
71904W        W31649  28.556  30.533  14.845
71905W        W31650  28.153   4.248   0.735
71906W        W31651   7.780  39.461  12.396
71907W        W31652  34.985  42.893   0.443
71908W        W31653   1.892  22.120   4.637
71909W        W31654  31.094   8.838   4.136
71910W        W31655   0.750  35.932   1.325
71911W        W31656  15.804  26.663   4.255
71912W        W31657  18.188  35.085  13.491
71913W        W31658  37.547  24.095   2.379
71914W        W31659  17.274  40.423   0.431
71915W        W31660  34.993   6.202   3.667
71916W        W31661   2.250  28.567  14.474
71917W        W31662   5.905  27.493   4.330
71918W        W31663  27.124  15.166  12.969
71919W        W31664  41.405  17.692  10.557
71920W        W31665  11.764  37.497   3.161
71921W        W31666  24.622  39.023   4.756
71922W        W31667   5.797   6.798  14.014
71923W        W31668   8.745  10.359  13.827
71924W        W31669  31.518  35.508   1.277
71925W        W31670  30.610  39.367   1.424
71926W        W31671  28.090  23.545  13.318
71927W        W31672  31.558  29.102   1.779
71928W        W31673  21.528  28.638   2.665
71929W        W31674  28.088  11.722  12.483
71930W        W31675  40.406  40.993  14.432
71931W        W31676  11.644   3.434  10.446
71932W        W31677   1.732  13.311   3.180
71933W        W31678   2.318  32.986   3.345
71934W        W31679  38.393  43.959  11.420
71935W        W31680  35.971  18.244   5.708
71936W        W31681  38.936  35.397  10.614
71937W        W31682   1.310  39.058   1.271
71938W        W31683  22.572   8.850  11.371
71939W        W31684   1.929  19.205  14.903
71940W        W31685  10.706  24.554   3.298
71941W        W31686  28.461  44.913   3.182
71942W        W31687  28.083  38.972  13.307
71943W        W31688  40.474  29.043  13.965
71944W        W31689  42.435   9.779   2.836
71945W        W31690   4.868   7.241   3.725
71946W        W31691  38.869  19.149   4.183
71947W        W31692  22.508  21.525  11.379
71948W        W31693  10.652  15.321   0.864
71949W        W31694  14.735  31.409   3.149
71950W        W31695  39.334  20.149  12.857
71951W        W31696   7.683  29.441   2.690
71952W        W31697  38.440  35.913   4.631
71953W        W31698  10.384  16.583  11.552
71954W        W31699  37.449  21.172  12.951
71955W        W31700  26.036   3.876  11.424
71956W        W31701  23.993   4.333  10.549
71957W        W31702  32.137   9.807  14.492
71958W        W31703  40.921   3.767   0.761
71959W        W31704  34.386   7.227   4.166
71960W        W31705  17.075   9.793   0.842
71961W        W31706  41.969  22.547  10.571
71962W        W31707  34.581  22.646   0.465
71963W        W31708  10.744  15.703   4.807
71964W        W31709   5.870  39.956   2.285
71965W        W31710  16.766  32.472   4.282
71966W        W31711  24.707  34.541   0.461
71967W        W31712   4.813  23.194   0.275
71968W        W31713  42.336   4.773  11.013
71969W        W31714  11.673  30.121   1.212
71970W        W31715  37.864  35.857   5.126
71971W        W31716  18.555   3.814   0.335
71972W        W31717  34.015  14.281   3.795
71973W        W31718  42.929  21.187   1.449
71974W        W31719  32.070  22.182   2.696
71975W        W31720  24.178   5.273   3.822
71976W        W31721  22.017  18.202  12.437
71977W        W31722  17.277   3.424   1.323
71978W        W31723  29.175  25.169  10.526
71979W        W31724   6.288  42.806  10.988
71980W        W31725  23.551  28.536  14.976
71981W        W31726  23.509  34.487   3.846
71982W        W31727  16.570   1.936  12.528
71983W        W31728  23.722  43.912   1.436
71984W        W31729  12.764  17.682  12.580
71985W        W31730  25.533  23.532   0.789
71986W        W31731  31.137  32.442  13.833
71987W        W31732   4.713  36.563  10.569
71988W        W31733  43.301  24.084   4.661
71989W        W31734  43.775  29.046  13.907
71990W        W31735  40.904  40.854   1.842
71991W        W31736  44.888   1.818   2.198
71992W        W31737  39.035  41.967  11.392
71993W        W31738   9.653   2.724  11.527
71994W        W31739  26.960   0.342   0.478
71995W        W31740  30.476   6.794   0.818
71996W        W31741  12.831   8.369  12.447
71997W        W31742  27.052  38.497  11.581
71998W        W31743  24.583  39.869   3.249
71999W        W31744   5.434  28.529  12.388
72000W        W31745  41.519  31.078  12.908
72001W        W31746  20.149  35.443  10.576
72002W        W31747  38.995  25.115   4.124
72003W        W31748  25.037  37.434   4.282
72004W        W31749  20.068  17.624   0.845
72005W        W31750  32.491  18.746   2.217
72006W        W31751  28.950   5.752   2.850
72007W        W31752   8.793   4.801   2.361
72008W        W31753  25.517  23.694   2.854
72009W        W31754  31.152  11.292  12.448
72010W        W31755  24.551  40.988  10.495
72011W        W31756  24.994  31.007   9.593
72012W        W31757  24.052  20.734   2.768
72013W        W31758   8.285  26.038  14.464
72014W        W31759  14.653  30.128   4.317
72015W        W31760   1.299  40.498  11.460
72016W        W31761  35.357   3.732   3.717
72017W        W31762  36.968  29.930  13.476
72018W        W31763   5.709  18.116   0.772
72019W        W31764  34.115   8.723   0.732
72020W        W31765  19.042  24.638  13.058
72021W        W31766  41.026  11.340   4.706
72022W        W31767  33.090   1.310  13.809
72023W        W31768   0.768  33.988   0.341
72024W        W31769  21.707  43.400   2.210
72025W        W31770  26.133  25.087  11.105
72026W        W31771  30.563  10.342   4.629
72027W        W31772   4.403  24.100  11.403
72028W        W31773  23.534  16.748   2.777
72029W        W31774  15.780   0.852   1.432
72030W        W31775  20.043  39.362  13.855
72031W        W31776  15.676  14.237  12.495
72032W        W31777  42.289   5.397   0.821
72033W        W31778  17.217  27.068  10.484
72034W        W31779  23.039  31.433   3.226
72035W        W31780  15.726  43.484   5.088
72036W        W31781  28.005  39.027  12.858
72037W        W31782  33.396  28.652  10.559
72038W        W31783  29.042  22.738   1.851
72039W        W31784  33.431  44.769  11.438
72040W        W31785   5.280  14.186   2.292
72041W        W31786  22.522   3.890  13.453
72042W        W31787  20.680  26.643   2.774
72043W        W31788  40.935  10.150   1.358
72044W        W31789  20.147  22.563   0.338
72045W        W31790  35.920  17.737   4.177
72046W        W31791  39.441  29.116   2.800
72047W        W31792  33.887  33.449  12.392
72048W        W31793   0.380   9.813  11.911
72049W        W31794  13.162  21.524  13.029
72050W        W31795  29.169  23.194  12.364
72051W        W31796  10.769  21.573  12.096
72052W        W31797  42.431   7.204   0.900
72053W        W31798  31.518  21.218   2.328
72054W        W31799  25.594   4.875  12.989
72055W        W31800  23.191   1.454   2.349
72056W        W31801   6.691  13.244   2.698
72057W        W31802  36.955  30.494   2.291
72058W        W31803  30.024   2.387   3.799
72059W        W31804  36.908  32.403  11.862
72060W        W31805   0.428  20.046   3.769
72061W        W31806   1.428   0.477   4.251
72062W        W31807   0.976  27.022  13.414
72063W        W31808  26.962  16.775  14.426
72064W        W31809  22.202  12.257   2.402
72065W        W31810  27.006  42.961  12.878
72066W        W31811  30.551  12.166   4.720
72067W        W31812  40.974   1.285  11.555
72068W        W31813  10.186  33.060  14.805
72069W        W31814  26.475  44.479  13.949
72070W        W31815  44.350  10.363   1.351
72071W        W31816  34.928  18.151   1.303
72072W        W31817  14.688  11.859  11.873
72073W        W31818  12.252  13.181  11.483
72074W        W31819  15.737  19.232   4.689
72075W        W31820  22.180  23.510   3.715
72076W        W31821  22.590  22.041   4.191
72077W        W31822   7.725   1.894   2.407
72078W        W31823  10.242   8.255   2.350
72079W        W31824  32.498  34.107  13.545
72080W        W31825  37.514  35.005  14.453
72081W        W31826  18.091  19.166  13.001
72082W        W31827  31.514  33.479   0.803
72083W        W31828   2.885  20.212  14.969
72084W        W31829  39.016  42.811  11.526
72085W        W31830  40.489  15.676  10.526
72086W        W31831  43.852  33.625   2.338
72087W        W31832   9.321   1.955  11.113
72088W        W31833  38.339  32.419   3.219
72089W        W31834  37.422   3.811   3.651
72090W        W31835   8.771  42.030  11.589
72091W        W31836   7.391  43.516   0.340
72092W        W31837  34.095   3.447   3.689
72093W        W31838  41.915  44.937  13.466
72094W        W31839  38.883  29.030   3.745
72095W        W31840  33.033  20.567  14.292
72096W        W31841  24.668   9.705   3.300
72097W        W31842  30.418  18.771   5.664
72098W        W31843  44.324  38.536   1.281
72099W        W31844   1.974   4.744  11.928
72100W        W31845  44.473   2.418  14.897
72101W        W31846  13.796   5.848  12.379
72102W        W31847  16.083   2.743   3.255
72103W        W31848   2.403  28.557  10.065
72104W        W31849   6.206  31.115  11.423
72105W        W31850   2.828   7.366  13.056
72106W        W31851  24.697  29.599   4.618
72107W        W31852  26.066   9.202   3.318
72108W        W31853  43.879  15.656  14.951
72109W        W31854  17.610  15.596   2.872
72110W        W31855   2.272  19.546   3.659
72111W        W31856   7.292  12.804  10.590
72112W        W31857  10.833  28.994  12.550
72113W        W31858  26.521   4.434  10.644
72114W        W31859  28.505  32.890  13.312
72115W        W31860  22.732  38.397  14.985
72116W        W31861  40.480  29.484  13.963
72117W        W31862  20.690  37.531  12.481
72118W        W31863  22.658  16.666  14.858
72119W        W31864  41.374   3.257  13.506
72120W        W31865  37.368   3.388   0.351
72121W        W31866  21.707  42.416  12.465
72122W        W31867   0.490  11.237   4.240
72123W        W31868  42.796  31.979   0.425
72124W        W31869  21.031   5.319   4.157
72125W        W31870  29.423  21.678   2.745
72126W        W31871  19.186   8.678  14.911
72127W        W31872  20.121  11.321  10.635
72128W        W31873  27.453  31.910  10.136
72129W        W31874  28.012   5.717  14.803
72130W        W31875  14.139  16.129  12.347
72131W        W31876   9.716   7.718  13.798
72132W        W31877  38.458  42.334   2.247
72133W        W31878  17.110   4.400  11.489
72134W        W31879  21.729  31.007  14.427
72135W        W31880  19.710   9.191   2.350
72136W        W31881   0.953  37.375  11.479
72137W        W31882  31.560  42.366  12.509
72138W        W31883   1.755  34.099   2.276
72139W        W31884  12.239   9.699   1.700
72140W        W31885  32.412  25.672   0.844
72141W        W31886  11.276  44.294   2.774
72142W        W31887  32.574   9.747   2.358
72143W        W31888  24.228   7.311  13.848
72144W        W31889  28.458   8.753   4.300
72145W        W31890  15.139  18.776  11.871
72146W        W31891  20.640   5.236  10.982
72147W        W31892   9.156   1.381  13.394
72148W        W31893  35.421   3.411  13.529
72149W        W31894  25.693  32.393   2.887
72150W        W31895  24.678  27.661  13.541
72151W        W31896  26.593  31.125   5.101
72152W        W31897  32.607  39.467   4.604
72153W        W31898  27.565  22.199  10.509
72154W        W31899  29.605  16.794   3.360
72155W        W31900  37.063  15.596  13.806
72156W        W31901  30.420   6.871   1.289
72157W        W31902  26.045  20.594   1.428
72158W        W31903  10.744  23.122   3.679
72159W        W31904  21.072  20.616  11.521
72160W        W31905  42.026   7.264   1.263
72161W        W31906  16.670  41.860  11.604
72162W        W31907   3.935  25.536   1.861
72163W        W31908   2.312  19.629  13.887
72164W        W31909  14.637   6.417   1.830
72165W        W31910  43.320  39.899  14.901
72166W        W31911  38.363  17.576  10.898
72167W        W31912  25.673  19.547   3.188
72168W        W31913  13.838  14.709   0.384
72169W        W31914  43.933  15.085   4.751
72170W        W31915   4.739  37.464   1.331
72171W        W31916   9.788  44.847   1.219
72172W        W31917   0.461  26.995   0.867
72173W        W31918  28.503  14.197  12.499
72174W        W31919  12.203  12.844  12.456
72175W        W31920   7.363   7.172   4.625
72176W        W31921   5.437   3.340   1.729
72177W        W31922   4.337  41.453   3.194
72178W        W31923  22.563  40.318   1.351
72179W        W31924  20.082  38.486  10.559
72180W        W31925  36.025   0.478   1.356
72181W        W31926   1.807   4.906   3.249
72182W        W31927  44.816   9.323  12.355
72183W        W31928  22.729  18.767   4.819
72184W        W31929  28.492   2.784  14.438
72185W        W31930   0.251   0.338   1.820
72186W        W31931  17.667  44.499   2.755
72187W        W31932  44.982   7.393   3.758
72188W        W31933  40.892  21.544   3.223
72189W        W31934  41.360   8.353   0.440
72190W        W31935  31.938   4.424  13.899
72191W        W31936  11.831  38.021  13.336
72192W        W31937  20.159  21.241   3.290
72193W        W31938  40.395  10.382  10.150
72194W        W31939  44.393  38.524   0.935
72195W        W31940  20.625  31.599  12.053
72196W        W31941  10.168  29.087   0.305
72197W        W31942  15.180  14.313   0.739
72198W        W31943  12.309   8.296  14.908
72199W        W31944  30.137   2.912  12.936
72200W        W31945  17.302  17.773   2.357
72201W        W31946  19.768   3.386  12.471
72202W        W31947  44.967  18.745   5.113
72203W        W31948   7.857  43.851   2.812
72204W        W31949   2.414  18.294  11.553
72205W        W31950  34.533   5.382   2.349
72206W        W31951   8.307  40.467  14.321
72207W        W31952  19.283  43.417   0.882
72208W        W31953  23.208  13.762   1.848
72209W        W31954   3.424  17.669  10.432
72210W        W31955  15.693   9.166   3.166
72211W        W31956  44.982  11.347   1.334
72212W        W31957  16.190  32.407  11.597
72213W        W31958  18.658  29.113   3.206
72214W        W31959   2.360  13.288  12.896
72215W        W31960  10.876  23.617  11.045
72216W        W31961   2.375  39.058   4.227
72217W        W31962   5.735   0.419  12.500
72218W        W31963  33.036  28.485   3.637
72219W        W31964  27.959  36.036  10.993
72220W        W31965  40.330  24.512  14.308
72221W        W31966  30.492   2.912   1.740
72222W        W31967  25.211  31.913  12.890
72223W        W31968  43.308  40.312   4.768
72224W        W31969   2.334  17.071  10.506
72225W        W31970  32.469  24.108  12.545
72226W        W31971  25.083  35.535  11.101
72227W        W31972  17.623  43.009   4.619
72228W        W31973  12.288   4.789  14.973
72229W        W31974  30.586  36.053   1.747
72230W        W31975   4.788  17.093  14.437
72231W        W31976  43.403   7.740   3.336
72232W        W31977   4.242  18.671   3.840
72233W        W31978  36.534  24.168   0.845
72234W        W31979   9.830  19.095   4.223
72235W        W31980  26.680  10.694  11.405
72236W        W31981  40.484  20.105   1.880
72237W        W31982  22.022  44.306   0.870
72238W        W31983  21.729  12.684  10.924
72239W        W31984  42.926  21.548  13.827
72240W        W31985  11.734  20.175   2.210
72241W        W31986  15.694  24.582   0.280
72242W        W31987  12.297  27.574   0.754
72243W        W31988  42.457  35.097  12.031
72244W        W31989  27.545   5.254  10.466
72245W        W31990  22.642  21.665  12.022
72246W        W31991  32.408  42.778   1.861
72247W        W31992  29.489  24.502  10.459
72248W        W31993  44.943  37.874   2.415
72249W        W31994  24.712  21.717  11.397
72250W        W31995  36.443  26.645  14.773
72251W        W31996   3.774  10.208  12.971
72252W        W31997  12.703   8.333  11.863
72253W        W31998  25.507  27.556   4.769
72254W        W31999  33.495  17.162   0.842
72255W        W32000   0.437   1.808   3.155
72256W        W32001  30.622  34.516   4.763
72257W        W32002  13.632  42.491  11.882
72258W        W32003  35.010  15.289   3.367
72259W        W32004   8.785  16.229  11.103
72260W        W32005  16.313   2.747   2.349
72261W        W32006  32.036  43.285   1.352
72262W        W32007   9.758   9.675  14.811
72263W        W32008  28.455   1.341   4.652
72264W        W32009  19.196  12.205  13.806
72265W        W32010  36.532  39.052  12.357
72266W        W32011  23.118  37.527  13.874
72267W        W32012  22.518  15.635   3.192
72268W        W32013   7.284  39.382  14.863
72269W        W32014   4.929  27.572  11.868
72270W        W32015  19.639  38.032   2.246
72271W        W32016  24.126  35.398   1.211
72272W        W32017  30.985  26.145   1.390
72273W        W32018  15.702  36.984  12.915
72274W        W32019  26.974   5.783   4.605
72275W        W32020   4.403  20.647  12.823
72276W        W32021  11.625   5.756  14.437
72277W        W32022  28.458  26.463  14.981
72278W        W32023  35.949  15.796  14.315
72279W        W32024  39.900  12.792  12.982
72280W        W32025  29.571  15.113   3.829
72281W        W32026  32.634  24.555  10.605
72282W        W32027  20.067  22.197   4.628
72283W        W32028  36.096  13.169   2.849
72284W        W32029  26.091  38.002   2.855
72285W        W32030   1.830  39.404   5.218
72286W        W32031  36.978   6.289  10.941
72287W        W32032  23.188  22.651   1.843
72288W        W32033  18.145  18.586   4.644
72289W        W32034  33.462  15.110  11.387
72290W        W32035  35.989  33.084  12.839
72291W        W32036  18.763  37.513   0.771
72292W        W32037  23.186  29.113   2.339
72293W        W32038  10.264   0.987  13.366
72294W        W32039  26.962  32.073   4.686
72295W        W32040   3.307  19.631   2.331
72296W        W32041   4.772   8.193   3.375
72297W        W32042  29.016  29.114   1.269
72298W        W32043  36.979  33.611  12.899
72299W        W32044  23.145  14.095   4.251
72300W        W32045  24.063  26.066  13.986
72301W        W32046  18.606  27.547  11.979
72302W        W32047   4.407   3.795   3.200
72303W        W32048  40.964  13.334  13.548
72304W        W32049   6.379  19.578   0.464
72305W        W32050  11.277  31.951   0.853
72306W        W32051  43.770  36.381   4.198
72307W        W32052  24.616  33.058  12.567
72308W        W32053  22.232  31.058   5.238
72309W        W32054   1.384   3.728  13.839
72310W        W32055  32.945  24.001  10.929
72311W        W32056  44.832  26.585   1.729
72312W        W32057  30.554  39.545  13.804
72313W        W32058  38.049   9.820   2.395
72314W        W32059  13.618  24.622  10.468
72315W        W32060  32.602  14.174   0.765
72316W        W32061  16.116  26.612   4.205
72317W        W32062   2.367  40.520   1.266
72318W        W32063   6.343  29.125  12.568
72319W        W32064  24.113   1.746   4.187
72320W        W32065  15.691  36.396  13.437
72321W        W32066  24.706  18.122   4.305
72322W        W32067  14.733  27.468   0.785
72323W        W32068   9.307  30.115  12.384
72324W        W32069  10.820  16.161   1.365
72325W        W32070   4.750  12.758  11.113
72326W        W32071  14.330  17.580   1.321
72327W        W32072  26.046  10.149   1.280
72328W        W32073  37.358  26.543   3.376
72329W        W32074  19.057  11.792   2.259
72330W        W32075  13.839   2.404  12.844
72331W        W32076   0.898  22.698  10.502
72332W        W32077   3.863  32.021   0.382
72333W        W32078  44.799  36.895   0.346
72334W        W32079  28.604  32.502  14.511
72335W        W32080  38.988   6.747   4.627
72336W        W32081  37.379  36.886   1.404
72337W        W32082  25.164   0.832  13.803
72338W        W32083  40.390  14.776  14.987
72339W        W32084  41.034  20.099  14.410
72340W        W32085  31.999  32.564  11.877
72341W        W32086  34.896  28.944   0.929
72342W        W32087   6.722  39.065   4.223
72343W        W32088   2.327  29.108  14.354
72344W        W32089  24.188  27.587  12.499
72345W        W32090  12.785  36.456  12.997
72346W        W32091   0.828  21.134   0.774
72347W        W32092   8.816  34.593   0.255
72348W        W32093  27.002  25.136  14.844
72349W        W32094   0.903  25.030   2.390
72350W        W32095   5.395   1.335   2.736
72351W        W32096  43.356  30.567   1.260
72352W        W32097  15.689  37.051   4.761
72353W        W32098  15.819  24.147   5.303
72354W        W32099  17.072  21.130  13.017
72355W        W32100   0.273   2.962  12.031
72356W        W32101  24.150   2.877   4.658
72357W        W32102  28.042  27.178   3.730
72358W        W32103   6.819  42.028   2.360
72359W        W32104  17.092  37.459   9.988
72360W        W32105  29.423  28.128   5.107
72361W        W32106  40.921   2.739  14.285
72362W        W32107  18.180  23.577  13.517
72363W        W32108  33.874  25.710   2.298
72364W        W32109  28.579  11.163  12.533
72365W        W32110  16.691  15.203  11.974
72366W        W32111  41.803  43.824  11.612
72367W        W32112  44.422   3.377   1.789
72368W        W32113  29.079  21.611  11.008
72369W        W32114   4.260  37.042   4.791
72370W        W32115  20.714  38.845  14.855
72371W        W32116  26.061  30.637   1.778
72372W        W32117  25.205  17.623  14.494
72373W        W32118  32.920  30.145  10.561
72374W        W32119   7.728  43.950  10.633
72375W        W32120   7.867   5.288  10.980
72376W        W32121  40.936   4.802  10.489
72377W        W32122  35.881  17.094  10.468
72378W        W32123  37.833  18.749  13.802
72379W        W32124  36.883  20.067  14.763
72380W        W32125  15.208   0.410   2.211
72381W        W32126   7.285  21.256  13.795
72382W        W32127   5.723   5.371   4.184
72383W        W32128   8.716  29.461   5.113
72384W        W32129  40.496  39.526   3.324
72385W        W32130  10.724   8.234   4.641
72386W        W32131  38.422  30.517  14.388
72387W        W32132   8.716  36.378   0.346
72388W        W32133   8.759  37.831   1.933
72389W        W32134   0.276  37.858   0.376
72390W        W32135   9.172   3.901   0.746
72391W        W32136  19.735  33.060  12.374
72392W        W32137  42.326  11.241  10.918
72393W        W32138  33.448  37.357   0.826
72394W        W32139  38.487  43.299  13.815
72395W        W32140  36.366   7.201  10.919
72396W        W32141   5.739  26.131   1.842
72397W        W32142  26.178  26.548  14.026
72398W        W32143  14.622  22.638   1.860
72399W        W32144  34.094  33.571  11.071
72400W        W32145  32.566   9.251  13.426
72401W        W32146  41.404   1.932  14.385
72402W        W32147  23.149  15.777   0.789
72403W        W32148  14.164  44.836   2.185
72404W        W32149  16.233   4.759  12.460
72405W        W32150   9.347  26.694  11.496
72406W        W32151  44.783  40.352   0.268
72407W        W32152  37.357  11.256  11.994
72408W        W32153   7.707  19.193  12.842
72409W        W32154   9.354   1.425   1.914
72410W        W32155  36.855  30.158   0.397
72411W        W32156  23.550  11.797  11.966
72412W        W32157  23.509  37.377   4.184
72413W        W32158   0.332   4.357   3.286
72414W        W32159  18.167  37.871   2.288
72415W        W32160  37.067  44.436  11.386
72416W        W32161  16.141  22.709   4.176
72417W        W32162  13.697   1.900   3.638
72418W        W32163  24.541  27.692   4.598
72419W        W32164   1.936  16.791   1.831
72420W        W32165  14.171  28.494   4.602
72421W        W32166   1.368  43.888  12.553
72422W        W32167  41.012  12.310   0.405
72423W        W32168  44.890  26.062  10.947
72424W        W32169  36.410  20.531   1.304
72425W        W32170   5.353  11.622  12.067
72426W        W32171  34.064   5.394  13.316
72427W        W32172  30.035  30.952  14.359
72428W        W32173  23.502  10.312   2.669
72429W        W32174  19.688   5.277  14.798
72430W        W32175  25.662   4.773   0.283
72431W        W32176  22.577  16.295  12.903
72432W        W32177   5.389  42.799  12.960
72433W        W32178  24.480  44.398   3.716
72434W        W32179  28.465  21.058  14.809
72435W        W32180   2.377  31.901  14.877
72436W        W32181  18.175  40.856  11.052
72437W        W32182  23.520  34.879   0.328
72438W        W32183  13.117  29.098   2.855
72439W        W32184   4.914  41.011   2.878
72440W        W32185  26.482  44.370  13.446
72441W        W32186  26.502   5.206   0.416
72442W        W32187  20.230   3.372   0.312
72443W        W32188   7.893  30.603   0.310
72444W        W32189  44.393   5.401   1.382
72445W        W32190  21.199   4.850  12.491
72446W        W32191  14.665  19.724   5.142
72447W        W32192  31.939  14.648  10.555
72448W        W32193   3.218   7.908  11.579
72449W        W32194  22.025  44.963   5.718
72450W        W32195   8.846  29.972   4.637
72451W        W32196  29.104   6.680   4.336
72452W        W32197  17.236  44.425  12.542
72453W        W32198  20.619   0.781   3.297
72454W        W32199  15.622  12.289   0.925
72455W        W32200   0.259  34.920  14.821
72456W        W32201  20.745   1.915  14.883
72457W        W32202  13.209  39.933   1.357
72458W        W32203  19.715  18.060  12.927
72459W        W32204  21.120   0.859   0.736
72460W        W32205  37.403  30.035   3.868
72461W        W32206  34.919   9.662   3.791
72462W        W32207   4.923  38.492   9.992
72463W        W32208   2.390  21.526  13.454
72464W        W32209  42.979  27.529  14.887
72465W        W32210  10.646  28.162   4.116
72466W        W32211  42.316  28.525   3.226
72467W        W32212  20.218  41.452   2.860
72468W        W32213  14.160  36.362  11.538
72469W        W32214  17.128  37.949   0.424
72470W        W32215   8.178   5.749   0.957
72471W        W32216  16.207  38.066  14.448
72472W        W32217  42.427  19.240  11.384
72473W        W32218  20.125  21.749  13.392
72474W        W32219  38.371  34.582   1.265
72475W        W32220   0.859  23.169  12.546
72476W        W32221  28.606  26.554  12.368
72477W        W32222   6.202  15.650  11.466
72478W        W32223  11.735   1.930  10.593
72479W        W32224  18.203   6.388  11.548
72480W        W32225  38.352  19.211   0.857
72481W        W32226  25.986  42.466  10.966
72482W        W32227  29.455  11.223   3.286
72483W        W32228  35.437  20.663   2.753
72484W        W32229  16.293  39.443  13.868
72485W        W32230  23.540  26.169   2.770
72486W        W32231  29.925   5.895   0.918
72487W        W32232  13.207  13.675   3.168
72488W        W32233   7.880  20.672  13.387
72489W        W32234   7.206  12.205   3.249
72490W        W32235  34.456  43.307   1.727
72491W        W32236  38.485  18.637  11.121
72492W        W32237  32.891   6.682   4.186
72493W        W32238   4.913  26.070   2.756
72494W        W32239  35.492   4.720  12.463
72495W        W32240  26.154  44.359   3.384
72496W        W32241  41.525  37.894  13.795
72497W        W32242   8.345  42.422   3.850
72498W        W32243  22.644  24.692   1.281
72499W        W32244  28.461  32.548  13.354
72500W        W32245  41.525  25.508   2.247
72501W        W32246  17.786  38.533   2.411
72502W        W32247  11.357  22.537   3.698
72503W        W32248  24.587   1.866   2.299
72504W        W32249  23.699  15.235   4.176
72505W        W32250   3.439   0.878  13.851
72506W        W32251  19.679  19.572  11.590
72507W        W32252  17.726  23.553  13.861
72508W        W32253  38.458  31.066   0.779
72509W        W32254  27.015   9.332  10.597
72510W        W32255  40.944  32.944   4.271
72511W        W32256  11.759  11.202   1.810
72512W        W32257  26.034  16.755   4.214
72513W        W32258  33.414  21.254  13.864
72514W        W32259  40.437  35.023   3.719
72515W        W32260  25.218  20.606  10.984
72516W        W32261  36.435   7.365   1.343
72517W        W32262   7.286  23.047  12.540
72518W        W32263  36.938  10.766   3.812
72519W        W32264  43.409  36.956  10.898
72520W        W32265  39.431  20.117  13.344
72521W        W32266  35.929  27.604   0.453
72522W        W32267   5.817   5.296  11.398
72523W        W32268  42.936  33.059  10.543
72524W        W32269  20.241  41.915   0.782
72525W        W32270  18.143  20.242  10.636
72526W        W32271  27.479  28.161   0.802
72527W        W32272  24.121  32.047   3.366
72528W        W32273  40.045  31.434  11.548
72529W        W32274  22.538  24.521  13.357
72530W        W32275   2.324   2.886   2.269
72531W        W32276  19.777   0.765  11.086
72532W        W32277  12.253   1.293   1.744
72533W        W32278   3.884  44.818   3.326
72534W        W32279   4.268   7.268   2.212
72535W        W32280   8.301  43.011   3.373
72536W        W32281   9.835  33.506  13.934
72537W        W32282  10.856  37.473  12.440
72538W        W32283  42.324  15.229  10.615
72539W        W32284  44.946  18.598  13.841
72540W        W32285   3.942   0.293   1.803
72541W        W32286  25.169   6.395   4.349
72542W        W32287  35.406  38.481  10.634
72543W        W32288  23.592   5.905   0.348
72544W        W32289  42.505  19.730  13.972
72545W        W32290  16.216  42.382   1.811
72546W        W32291   1.787  33.415  11.452
72547W        W32292  39.545  36.469   1.285
72548W        W32293  14.800   8.892   1.289
72549W        W32294  23.515  32.954   3.698
72550W        W32295  28.182   1.973  11.108
72551W        W32296   1.743  13.320  11.985
72552W        W32297   1.350   1.431   2.743
72553W        W32298  43.960  35.515   4.163
72554W        W32299   7.284  36.045  10.566
72555W        W32300  14.231  18.617  11.518
72556W        W32301  28.560   2.279  12.339
72557W        W32302  36.915  37.537   0.850
72558W        W32303  40.046   2.853  10.511
72559W        W32304   3.313  11.226   4.203
72560W        W32305   6.748  41.452  12.972
72561W        W32306  25.005  10.353  12.942
72562W        W32307  36.501  15.630  10.887
72563W        W32308   4.805   1.325  10.595
72564W        W32309  21.202  12.843   2.251
72565W        W32310  26.116  20.547   4.272
72566W        W32311   5.313  22.183   1.768
72567W        W32312  41.452  42.923   4.191
72568W        W32313  14.135  11.732   2.818
72569W        W32314   9.745  42.481  12.035
72570W        W32315  35.920  44.977   0.316
72571W        W32316  27.670   9.669  11.033
72572W        W32317  37.459  34.560   3.696
72573W        W32318  11.223  22.017  11.986
72574W        W32319  11.748  41.946  13.942
72575W        W32320  26.970  31.530  11.033
72576W        W32321   3.218  14.328  12.918
72577W        W32322   7.265   7.284  10.510
72578W        W32323  26.054  36.095   4.228
72579W        W32324  11.763  36.842   0.792
72580W        W32325  28.675  41.370  14.793
72581W        W32326  14.671  14.726  10.968
72582W        W32327  37.379  11.717   2.704
72583W        W32328  14.285  34.497   5.170
72584W        W32329  34.033  10.682   3.181
72585W        W32330  18.677  17.630   1.799
72586W        W32331   3.418  21.626  14.871
72587W        W32332  24.167   6.380  14.823
72588W        W32333  10.637  19.094  12.017
72589W        W32334   3.412  22.689   0.353
72590W        W32335   8.862  29.588   3.290
72591W        W32336  18.194  22.629  13.509
72592W        W32337  16.716  21.054  12.549
72593W        W32338  30.082  24.168  13.455
72594W        W32339   6.344   7.831   5.322
72595W        W32340   9.661  10.310  13.435
72596W        W32341  21.576  14.292   3.352
72597W        W32342  26.101  41.488   4.710
72598W        W32343  20.589  25.155   4.155
72599W        W32344  34.532  17.297   4.211
72600W        W32345  40.449   0.873   3.765
72601W        W32346  24.721  21.055  14.447
72602W        W32347   6.851  33.080  14.892
72603W        W32348   1.328  44.458   0.444
72604W        W32349   8.770  14.713   3.376
72605W        W32350  26.987  36.019  12.486
72606W        W32351   3.822  31.437  12.500
72607W        W32352   3.710  35.019  12.468
72608W        W32353   7.885   5.202  14.022
72609W        W32354  31.944  31.444  11.550
72610W        W32355   2.864   8.807  14.888
72611W        W32356  18.258  32.393   2.293
72612W        W32357  28.061  24.055  10.949
72613W        W32358  43.943   3.375  12.360
72614W        W32359  15.706  40.502  14.906
72615W        W32360   4.843  32.036  13.956
72616W        W32361  39.439  40.975   0.958
72617W        W32362  26.021  33.054   1.793
72618W        W32363  18.177  15.225   0.324
72619W        W32364  19.704  15.760  12.505
72620W        W32365  17.138  32.900   1.885
72621W        W32366   4.790   0.956   2.747
72622W        W32367   9.736  39.506  11.500
72623W        W32368  40.864  38.918  12.984
72624W        W32369  19.207   3.722  10.515
72625W        W32370  34.541   4.395  10.636
72626W        W32371  10.213  22.064  12.071
72627W        W32372  39.448  32.456  11.506
72628W        W32373  18.686   1.293  12.986
72629W        W32374  43.473  14.209   4.600
72630W        W32375  24.529  41.787  10.918
72631W        W32376  22.248   0.778  14.994
72632W        W32377  37.382  26.169  10.635
72633W        W32378  36.525   6.750   1.405
72634W        W32379   7.893   9.305   0.816
72635W        W32380  40.432  35.545  10.436
72636W        W32381  12.683  24.721  13.433
72637W        W32382  12.329  31.592  13.360
72638W        W32383  34.593  27.998  11.955
72639W        W32384  36.020  21.263   4.153
72640W        W32385  38.480  43.286   2.766
72641W        W32386  40.317   7.797  10.922
72642W        W32387  12.854  24.005  13.897
72643W        W32388   1.420   1.303   0.266
72644W        W32389   2.399  27.456   0.253
72645W        W32390   4.771   1.748  13.930
72646W        W32391  39.029  15.598  11.036
72647W        W32392   5.818  20.654  11.065
72648W        W32393  36.419  10.728   3.677
72649W        W32394  20.714   8.699  12.547
72650W        W32395  27.546  39.902  11.084
72651W        W32396  25.999   6.204   1.741
72652W        W32397  40.445  41.496   5.157
72653W        W32398   6.385  17.577  12.347
72654W        W32399  39.938  32.476  11.073
72655W        W32400   6.730  19.644   3.167
72656W        W32401  37.019  41.426   4.281
72657W        W32402  12.179  29.646   4.747
72658W        W32403  24.135   4.334  13.388
72659W        W32404  36.922  25.996   3.187
72660W        W32405  22.166  44.496  10.966
72661W        W32406  17.762  19.735  10.953
72662W        W32407  13.653  19.065  11.991
72663W        W32408   5.785  35.534   1.892
72664W        W32409  14.153  25.564   4.728
72665W        W32410  12.738  18.245   1.405
72666W        W32411   8.692  12.230   2.319
72667W        W32412  12.821  29.557  11.055
72668W        W32413   9.867   1.803  14.279
72669W        W32414   3.764  14.658  11.095
72670W        W32415   0.881  11.724  11.552
72671W        W32416  41.906  40.979   3.732
72672W        W32417   5.418  42.842   4.634
72673W        W32418   7.832  29.954   1.702
72674W        W32419  37.341  19.118   3.670
72675W        W32420  28.986  11.678  13.029
72676W        W32421   9.226  33.402   0.447
72677W        W32422  30.038   5.329   1.735
72678W        W32423   4.728  34.611  12.919
72679W        W32424  28.653  26.051  13.941
72680W        W32425  39.552  42.019  11.077
72681W        W32426  38.039   3.799   1.290
72682W        W32427  41.950  38.053   0.965
72683W        W32428  16.080  20.542   3.384
72684W        W32429  42.336  32.525  11.430
72685W        W32430   3.837  37.571   9.474
72686W        W32431  28.450  38.556  13.031
72687W        W32432   1.821  23.503   2.778
72688W        W32433  13.729  15.255  12.369
72689W        W32434  36.896  15.101   4.653
72690W        W32435  43.966  24.228   2.202
72691W        W32436  16.272   9.811   0.821
72692W        W32437   5.831   9.647  12.355
72693W        W32438  27.535  35.495   4.340
72694W        W32439  11.679  42.930   5.180
72695W        W32440  16.795  29.919  12.076
72696W        W32441  39.063  30.907   2.313
72697W        W32442  12.295  35.502  12.571
72698W        W32443  12.620  17.639   2.392
72699W        W32444  37.363  19.096  14.461
72700W        W32445  17.236  37.909   1.814
72701W        W32446  19.686  37.582   1.223
72702W        W32447   3.922  28.595  12.964
72703W        W32448   9.740  38.836  10.950
72704W        W32449  36.856  40.867   3.796
72705W        W32450   3.452  34.415  11.461
72706W        W32451  11.177   0.304  11.553
72707W        W32452   2.426  38.356   0.785
72708W        W32453  43.394  40.501   2.271
72709W        W32454  44.460   7.786   2.787
72710W        W32455   0.430   8.852   0.943
72711W        W32456  21.709  35.402  13.015
72712W        W32457  43.904  23.736  11.578
72713W        W32458  14.746  20.262  13.507
72714W        W32459  40.883  33.117  13.058
72715W        W32460  16.649  15.245   4.288
72716W        W32461  40.493  40.938  12.397
72717W        W32462  14.199   1.976   2.713
72718W        W32463  12.213  29.147   2.384
72719W        W32464   0.358  30.929   2.874
72720W        W32465   5.221   2.960  10.920
72721W        W32466  21.595  22.738  13.990
72722W        W32467  44.759   4.373  11.121
72723W        W32468   3.770   0.872  10.929
72724W        W32469  34.386   2.928  11.389
72725W        W32470  20.537  14.094  14.297
72726W        W32471   0.764   0.773   1.762
72727W        W32472  34.530   6.218   0.267
72728W        W32473  28.109   0.283   3.766
72729W        W32474  18.564  42.887   2.299
72730W        W32475  32.594  24.580  11.536
72731W        W32476  34.902  34.949   0.769
72732W        W32477  13.320  13.310   5.310
72733W        W32478  39.458  24.608   0.920
72734W        W32479   5.827   6.807   2.778
72735W        W32480  30.962  19.080  14.901
72736W        W32481  40.363  39.983   2.285
72737W        W32482   4.299  11.166   0.735
72738W        W32483  29.047  42.995  12.532
72739W        W32484  20.236  24.226  13.332
72740W        W32485  24.114  12.681   0.769
72741W        W32486  16.203  33.083   3.785
72742W        W32487  24.521  21.199   4.311
72743W        W32488   9.747  23.570   2.224
72744W        W32489   2.382  39.401   3.795
72745W        W32490  27.655  13.139   3.847
72746W        W32491  12.358  27.110  12.522
72747W        W32492  26.579   0.948  12.998
72748W        W32493  21.176  44.885   4.312
72749W        W32494  13.620  44.873   2.776
72750W        W32495  28.992  42.000  13.027
72751W        W32496  36.478  14.741  13.989
72752W        W32497  10.860  42.508  12.534
72753W        W32498  26.175   5.841  10.602
72754W        W32499   8.362  26.181  12.096
72755W        W32500  21.574  22.732   0.943
72756W        W32501  27.557  22.066  12.016
72757W        W32502  25.523  20.643   0.826
72758W        W32503  12.227  27.549   4.174
72759W        W32504  17.567  24.514   4.779
72760W        W32505  29.102  33.039  13.006
72761W        W32506   0.780  12.676   4.781
72762W        W32507  44.303  21.263  14.475
72763W        W32508  42.824  26.181  12.045
72764W        W32509  28.651  25.173  14.789
72765W        W32510  27.531   9.788  14.844
72766W        W32511  43.375  25.704  14.332
72767W        W32512  20.032  29.605  12.346
72768W        W32513  40.382   3.900  11.884
72769W        W32514  13.291  23.230   3.189
72770W        W32515   2.443  12.177   2.788
72771W        W32516   5.284   7.776  10.915
72772W        W32517  40.351   8.820   3.208
72773W        W32518  21.541   1.300  12.057
72774W        W32519  20.755  24.037   3.783
72775W        W32520   3.236  15.818   1.370
72776W        W32521  21.588   7.313  13.364
72777W        W32522  42.301  42.951   4.181
72778W        W32523  12.230  38.991  10.106
72779W        W32524  19.755  40.809   2.194
72780W        W32525  18.276  26.681  11.033
72781W        W32526  32.475   6.698  14.467
72782W        W32527  19.777  31.642   4.250
72783W        W32528   7.910  17.587   1.805
72784W        W32529  31.978  26.132   2.751
72785W        W32530  28.647  26.043  13.380
72786W        W32531  23.543  36.083  14.379
72787W        W32532  31.931  38.054  10.978
72788W        W32533   0.821  24.040   0.935
72789W        W32534   4.717  28.653   4.800
72790W        W32535  28.093   4.889   2.758
72791W        W32536  14.749  16.692  13.413
72792W        W32537  33.000  15.298   4.182
72793W        W32538   5.433  39.405  10.442
72794W        W32539  20.751  37.087   0.353
72795W        W32540  41.797  35.962  14.276
72796W        W32541  24.194   6.762  12.071
72797W        W32542  31.453  23.728  12.042
72798W        W32543  14.195   6.277   4.649
72799W        W32544  13.729  34.918  12.956
72800W        W32545   5.406  19.727   9.923
72801W        W32546  19.054  13.306  12.043
72802W        W32547   0.906  15.280  14.310
72803W        W32548  41.392   8.895   0.847
72804W        W32549   5.888  36.489  12.016
72805W        W32550  32.416  16.656   3.728
72806W        W32551  38.342  42.821  13.011
72807W        W32552  19.224  15.135  11.089
72808W        W32553  24.542  43.798  14.940
72809W        W32554  43.949  15.800   2.301
72810W        W32555  38.338   8.696   4.648
72811W        W32556   9.736  33.583   0.733
72812W        W32557  22.246  38.414   0.894
72813W        W32558  20.666  16.594   2.741
72814W        W32559  43.303  44.286  10.931
72815W        W32560   4.329  10.238  12.473
72816W        W32561  26.536  29.167   1.277
72817W        W32562  16.601  20.137  13.864
72818W        W32563  34.874  39.362  13.539
72819W        W32564  28.117  38.968  14.317
72820W        W32565   5.853  27.689   3.204
72821W        W32566  43.336  23.703  10.014
72822W        W32567   4.426  15.783   1.863
72823W        W32568  10.307  38.986   1.451
72824W        W32569  43.770  18.189   4.153
72825W        W32570   6.261  22.092  10.017
72826W        W32571   2.882  30.087  13.998
72827W        W32572   1.897   8.178   1.418
72828W        W32573   2.395   1.959  12.972
72829W        W32574  36.925   3.939   0.781
72830W        W32575  42.797  43.379  10.618
72831W        W32576  16.299  16.221   0.764
72832W        W32577  17.156   0.748  10.548
72833W        W32578  44.935  21.628   0.296
72834W        W32579   1.278  42.962   4.709
72835W        W32580  18.635  19.081   2.701
72836W        W32581  29.984  18.285   3.321
72837W        W32582  15.800  44.895   2.388
72838W        W32583   5.859  16.106  11.025
72839W        W32584  22.010  26.062  11.937
72840W        W32585  33.876  17.693  13.527
72841W        W32586   4.374   5.743  12.077
72842W        W32587  17.714  26.019  11.915
72843W        W32588  30.931  21.238  14.993
72844W        W32589  34.024  14.104   3.170
72845W        W32590   1.275  34.006   9.976
72846W        W32591  38.014  37.547  10.621
72847W        W32592  14.589  27.558  11.542
72848W        W32593  13.823  42.890  14.454
72849W        W32594  37.366  12.820  11.468
72850W        W32595  33.470  39.440  10.459
72851W        W32596  29.469  31.101  11.001
72852W        W32597   9.768  14.154  13.536
72853W        W32598  18.270  28.497  14.352
72854W        W32599  44.367   6.426  14.818
72855W        W32600  10.724  39.823   4.308
72856W        W32601  23.514  36.992  12.399
72857W        W32602  12.650   6.293  14.286
72858W        W32603  36.858  25.562   1.796
72859W        W32604  24.032  22.248  12.076
72860W        W32605  42.853   3.883  14.761
72861W        W32606  13.745  41.968  11.554
72862W        W32607  32.106  21.620  14.878
72863W        W32608  31.076  10.695  14.859
72864W        W32609  17.642   5.932   1.416
72865W        W32610   6.748   3.734  11.083
72866W        W32611  41.029  35.072  12.488
72867W        W32612   0.372  26.587   1.756
72868W        W32613  32.026  21.567   0.792
72869W        W32614  37.393  25.987   3.643
72870W        W32615  35.108  12.161  14.929
72871W        W32616   1.427  23.021  13.895
72872W        W32617  42.384  21.632  12.370
72873W        W32618  39.897   1.970   3.314
72874W        W32619  44.882  18.113  12.911
72875W        W32620  38.073  25.148  13.982
72876W        W32621  14.668   9.820   0.753
72877W        W32622  23.545  23.079  10.914
72878W        W32623   6.876   6.370   2.810
72879W        W32624  16.213  15.584  12.994
72880W        W32625  31.413   6.345  12.529
72881W        W32626  34.375  26.099  12.027
72882W        W32627  25.084  10.772   1.252
72883W        W32628  36.918  34.068  13.864
72884W        W32629   8.754   0.904   3.687
72885W        W32630   9.345  39.043   4.642
72886W        W32631  13.135  41.880   2.253
72887W        W32632  20.187  43.980   2.723
72888W        W32633  37.051  21.580  13.848
72889W        W32634  20.748  11.164  14.797
72890W        W32635  31.928  24.160   1.351
72891W        W32636  21.075  24.049   3.310
72892W        W32637  16.633   2.838  14.340
72893W        W32638  37.031  18.264   3.234
72894W        W32639  19.727  20.702  12.427
72895W        W32640  25.675  15.306   2.334
72896W        W32641   1.313  29.589  14.840
72897W        W32642  15.165  42.342  12.034
72898W        W32643   1.837  25.141   2.694
72899W        W32644  17.081  36.890   4.284
72900W        W32645  36.522  43.826  13.822
72901W        W32646   8.316   2.328   1.931
72902W        W32647  26.161  35.937  13.468
72903W        W32648   6.182  26.470  11.587
72904W        W32649  14.110  21.252  14.017
72905W        W32650  30.918  10.346  12.358
72906W        W32651  37.020   0.920   3.804
72907W        W32652   6.754  24.587  10.930
72908W        W32653  36.984  11.238   2.349
72909W        W32654  27.519  43.483  12.998
72910W        W32655  42.805  25.675   1.889
72911W        W32656  14.818  14.737   1.766
72912W        W32657   9.231  44.767   4.129
72913W        W32658  39.965  39.983   4.188
72914W        W32659   3.815  35.861   0.797
72915W        W32660  12.854  18.778  10.408
72916W        W32661  31.065  28.127  13.482
72917W        W32662  16.189  12.245   4.607
72918W        W32663  25.150  20.548  13.503
72919W        W32664   0.925  41.890  10.905
72920W        W32665  19.678  25.078   2.368
72921W        W32666  19.197  24.200  14.935
72922W        W32667  23.504  15.597  13.900
72923W        W32668  35.091   9.340  10.573
72924W        W32669  23.609  42.925  14.860
72925W        W32670   7.260   4.754  13.372
72926W        W32671  34.877  11.254   3.340
72927W        W32672  12.649  15.115   1.297
72928W        W32673   1.267   2.869   0.281
72929W        W32674  35.107  39.064   2.809
72930W        W32675  14.623   4.432   3.827
72931W        W32676  19.638  23.240   2.412
72932W        W32677  13.779  29.175   1.759
72933W        W32678   9.359  21.102   0.912
72934W        W32679  10.736  25.054  12.353
72935W        W32680  44.952  38.374  11.911
72936W        W32681  25.072  26.009  12.050
72937W        W32682  15.793  12.682  13.811
72938W        W32683  26.638  34.570  11.086
72939W        W32684  26.170   0.381  10.937
72940W        W32685  32.466  14.328  14.927
72941W        W32686   5.359  32.957   1.903
72942W        W32687  28.557  26.022  14.454
72943W        W32688   9.360   0.922   1.868
72944W        W32689   7.771  14.153   2.682
72945W        W32690   2.963  12.222   1.327
72946W        W32691  18.576  17.784  12.861
72947W        W32692  42.911   9.207   2.309
72948W        W32693  10.319  27.987   0.888
72949W        W32694  17.242  29.141   3.178
72950W        W32695  30.632  20.687  12.460
72951W        W32696  42.398  43.829  14.828
72952W        W32697   5.709  19.546  14.781
72953W        W32698  14.763  35.987  12.074
72954W        W32699  21.187  10.250   5.172
72955W        W32700   7.322  30.161   1.815
72956W        W32701  36.564   6.362  12.896
72957W        W32702  40.919  14.610   0.416
72958W        W32703   4.379  38.930   9.567
72959W        W32704  27.673   3.255   1.245
72960W        W32705  41.496  13.629  13.842
72961W        W32706  42.497  33.889  10.976
72962W        W32707  34.947   1.937  10.156
72963W        W32708  22.575  32.511   0.244
72964W        W32709  20.587   4.368  14.453
72965W        W32710  13.762  32.624  13.903
72966W        W32711  31.049  32.885  13.402
72967W        W32712   7.682  36.574   2.696
72968W        W32713  19.115  27.191   4.669
72969W        W32714  37.901  44.439   9.973
72970W        W32715   7.694  18.674   0.246
72971W        W32716  26.021  31.483  12.080
72972W        W32717  31.057  22.187  12.392
72973W        W32718  25.064  28.444  13.007
72974W        W32719  27.567  33.121   2.895
72975W        W32720   6.255  42.511   1.351
72976W        W32721  34.964  35.493   3.165
72977W        W32722  27.633  22.592  14.292
72978W        W32723  38.325  16.651  11.426
72979W        W32724  28.026  42.793   0.800
72980W        W32725  43.770  44.369  11.025
72981W        W32726   5.696  12.284  14.030
72982W        W32727  40.419  41.969   3.652
72983W        W32728   3.718  32.445   0.735
72984W        W32729   4.908   3.371  12.525
72985W        W32730  25.534   0.978  11.501
72986W        W32731  12.644  21.018   3.821
72987W        W32732  11.188  42.444  12.025
72988W        W32733  25.029  42.387  11.487
72989W        W32734  11.311  37.401   0.863
72990W        W32735  41.804  44.447  12.364
72991W        W32736  13.817  38.340  14.008
72992W        W32737   3.420  12.205   2.900
72993W        W32738  11.341  40.013   0.455
72994W        W32739   7.742  42.845  10.607
72995W        W32740   0.445   4.262   0.960
72996W        W32741  12.247   2.924   4.352
72997W        W32742  24.492  33.506   2.405
72998W        W32743  15.241  17.237   1.745
72999W        W32744   2.258  39.373  10.438
73000W        W32745  38.053  29.446   2.303
73001W        W32746  21.190  24.977   0.747
73002W        W32747  40.450   8.395  13.456
73003W        W32748  39.383  19.653   1.710
73004W        W32749  10.338   0.871  13.861
73005W        W32750  24.165  42.406  10.595
73006W        W32751  24.635  15.133   2.360
73007W        W32752  10.167   4.875   4.135
73008W        W32753  10.147  18.117   1.433
73009W        W32754  32.430  16.110   4.774
73010W        W32755  38.438   9.204  14.498
73011W        W32756  25.004  42.459  12.910
73012W        W32757   4.443  12.334   4.303
73013W        W32758   0.917  38.826  13.544
73014W        W32759   2.241   1.482   4.268
73015W        W32760  20.274  38.439   1.347
73016W        W32761  23.138   3.863  10.429
73017W        W32762  40.378  16.178   2.709
73018W        W32763  30.054   2.463  11.397
73019W        W32764  27.156  30.542   4.737
73020W        W32765  43.775   2.841  13.799
73021W        W32766  13.181   2.734  14.811
73022W        W32767   8.214  35.586  14.818
73023W        W32768  37.924  40.982  14.913
73024W        W32769  23.999  34.057   1.788
73025W        W32770   6.876  24.724  12.996
73026W        W32771   6.366  30.021   0.338
73027W        W32772  27.614  28.514  10.096
73028W        W32773  18.279  22.204  13.031
73029W        W32774  17.572   2.228  10.909
73030W        W32775  17.101  29.951   1.395
73031W        W32776  10.776  10.259  13.049
73032W        W32777   2.755  11.794  14.918
73033W        W32778  44.932   0.349   4.129
73034W        W32779  34.865  34.992   3.209
73035W        W32780  42.341   1.758   4.278
73036W        W32781  28.085  29.126   2.356
73037W        W32782   3.301   0.286  13.846
73038W        W32783  36.077  11.319   2.863
73039W        W32784  33.021  33.048  14.333
73040W        W32785   1.382  26.700   4.281
73041W        W32786   5.709  44.753  11.456
73042W        W32787  42.495  37.365  13.362
73043W        W32788  35.068   8.274  12.387
73044W        W32789  35.458  36.895  12.510
73045W        W32790  42.292  15.812   4.639
73046W        W32791  13.210   9.775   4.254
73047W        W32792  12.613  33.082   9.532
73048W        W32793  12.340  40.049   2.182
73049W        W32794   2.847  11.832  13.795
73050W        W32795   6.766  15.716   3.640
73051W        W32796   9.744  19.628   0.349
73052W        W32797  16.191  31.631  10.417
73053W        W32798  32.022  27.028  11.857
73054W        W32799  25.082  31.627  14.963
73055W        W32800  21.639  13.743   0.958
73056W        W32801  25.679   7.898   3.761
73057W        W32802  34.004  10.232   0.387
73058W        W32803  38.945  40.848   4.149
73059W        W32804  14.715   5.756   4.642
73060W        W32805  31.084  29.947  13.888
73061W        W32806  35.441  38.539  11.088
73062W        W32807  10.798   8.371  11.606
73063W        W32808  31.938  34.374  11.395
73064W        W32809  21.555   1.312   0.483
73065W        W32810  20.565  23.164   1.806
73066W        W32811  24.680   8.332   4.835
73067W        W32812  17.228  12.736   4.782
73068W        W32813  30.971  20.644  10.901
73069W        W32814   1.433  30.148   2.736
73070W        W32815  26.645   0.945   3.301
73071W        W32816   1.827  35.901   4.682
73072W        W32817   7.713  24.148   4.270
73073W        W32818   3.943   3.273   3.351
73074W        W32819   8.388  23.566  14.895
73075W        W32820  37.550  20.682  14.770
73076W        W32821  36.992   7.873   4.161
73077W        W32822   3.430  30.502  13.812
73078W        W32823   5.908  11.861   1.853
73079W        W32824  39.920  41.821   2.815
73080W        W32825   7.762  31.569  11.929
73081W        W32826  24.024  12.637  10.617
73082W        W32827  17.765  12.633  10.497
73083W        W32828   0.973  42.835  11.570
73084W        W32829  37.451  31.032  11.985
73085W        W32830  32.096   0.983   0.375
73086W        W32831   9.664  20.636  13.380
73087W        W32832  13.660  38.482   3.740
73088W        W32833   7.814  32.030  13.399
73089W        W32834  27.545  30.136   1.419
73090W        W32835   7.725  29.162  14.960
73091W        W32836  44.931  42.350  10.619
73092W        W32837  29.551  33.514   2.865
73093W        W32838  38.881  34.433  10.595
73094W        W32839  13.164  34.011  11.073
73095W        W32840  18.780  36.385   0.926
73096W        W32841  20.579  26.499  11.449
73097W        W32842  32.972   0.324  11.532
73098W        W32843   5.378  21.686  10.435
73099W        W32844  26.548  28.558  13.394
73100W        W32845   9.686   9.374  14.424
73101W        W32846   1.883  16.590   1.409
73102W        W32847  24.493   5.766   3.810
73103W        W32848  28.562   9.253   0.819
73104W        W32849  22.654   6.421  14.366
73105W        W32850  36.409   9.818  13.940
73106W        W32851  17.292  17.561   0.245
73107W        W32852  28.168  19.731   2.352
73108W        W32853  29.552  30.160   3.377
73109W        W32854  30.002  18.218   0.806
73110W        W32855  22.077  25.663   1.917
73111W        W32856  30.421  42.979   0.801
73112W        W32857   3.256  26.528  14.957
73113W        W32858  43.939   0.378  12.889
73114W        W32859  13.688   7.773  13.456
73115W        W32860  15.178  26.582   1.741
73116W        W32861  31.050  33.413   0.280
73117W        W32862  18.210  24.536   3.680
73118W        W32863   0.962  17.239  14.284
73119W        W32864  13.780  15.627   1.852
73120W        W32865  29.579  31.492  11.088
73121W        W32866  28.578   3.378   1.447
73122W        W32867  28.953  14.221   3.689
73123W        W32868   7.233   7.692   4.721
73124W        W32869  29.033  30.100   5.086
73125W        W32870  34.585  34.017  14.416
73126W        W32871  31.901  10.228  10.059
73127W        W32872  24.046  39.887  13.394
73128W        W32873   5.790   1.253   4.188
73129W        W32874  21.231  35.431   2.213
73130W        W32875  20.273  38.034  14.898
73131W        W32876  21.124   3.325  10.432
73132W        W32877  44.999  24.210   1.224
73133W        W32878  40.424   7.199  14.353
73134W        W32879   3.380  34.380   3.236
73135W        W32880  13.300  26.672  13.407
73136W        W32881  14.764  44.459   1.369
73137W        W32882  23.188  21.050  12.961
73138W        W32883  37.382  22.681  12.046
73139W        W32884  23.077  43.454  11.106
73140W        W32885  30.930  11.246   0.347
73141W        W32886   9.265  40.042  13.879
73142W        W32887  21.103  39.808   0.836
73143W        W32888   8.725  25.000  14.292
73144W        W32889   9.171   4.935  13.842
73145W        W32890  43.293  15.207   2.833
73146W        W32891  13.281  21.044  14.871
73147W        W32892  22.168  44.831  13.363
73148W        W32893  42.370  37.391   0.810
73149W        W32894  25.510   5.691  14.985
73150W        W32895  29.612  39.502  11.418
73151W        W32896   5.314  17.215  10.409
73152W        W32897  28.169  14.643  14.932
73153W        W32898   7.316  34.594   1.874
73154W        W32899   4.327  23.218  10.923
73155W        W32900   3.321  14.147   0.907
73156W        W32901   1.875  36.355  14.823
73157W        W32902  38.336  10.340  13.973
73158W        W32903  16.121  25.002   1.729
73159W        W32904  31.605  35.958   1.349
73160W        W32905   0.926  35.875  11.097
73161W        W32906  19.047   3.885   0.856
73162W        W32907  30.073  26.651   5.197
73163W        W32908  25.701  31.550  13.819
73164W        W32909  34.940  40.307  12.346
73165W        W32910   2.732  44.419  11.383
73166W        W32911  12.721  18.553   0.738
73167W        W32912   1.244  11.358   2.869
73168W        W32913  39.367   8.771   1.327
73169W        W32914   5.842  44.391  12.085
73170W        W32915   5.700   2.732   3.159
73171W        W32916  35.970   8.209   4.342
73172W        W32917  31.610  42.971  13.813
73173W        W32918  29.958   3.718   0.471
73174W        W32919  32.918  20.695  14.893
73175W        W32920   1.255   3.867   2.744
73176W        W32921   0.791   8.345  14.341
73177W        W32922  43.873   5.870   0.304
73178W        W32923  11.715  36.984   4.348
73179W        W32924  17.702  41.856   3.708
73180W        W32925  33.400  41.024  10.970
73181W        W32926  19.084  38.374  13.989
73182W        W32927  10.824   7.292  13.493
73183W        W32928  10.756  18.286  13.418
73184W        W32929  17.225  27.041  12.543
73185W        W32930  31.587  20.541  11.876
73186W        W32931  12.276  40.496  13.925
73187W        W32932  37.342   2.853  13.467
73188W        W32933   2.313   8.684   2.823
73189W        W32934  16.708  19.198  12.504
73190W        W32935  31.022  19.201  13.993
73191W        W32936  32.083   6.892   4.741
73192W        W32937  33.429  39.846  14.949
73193W        W32938  39.021  29.661  13.045
73194W        W32939   7.808  28.150   0.775
73195W        W32940  26.617  32.525  11.924
73196W        W32941  32.065  18.545   0.752
73197W        W32942  24.154   6.713   0.373
73198W        W32943  10.827  32.113  13.413
73199W        W32944  43.339  40.909  12.859
73200W        W32945  19.203   6.719  11.564
73201W        W32946   7.847  30.481   5.253
73202W        W32947  16.742   6.917  12.014
73203W        W32948   5.390  38.561  13.855
73204W        W32949  24.521   0.488   3.783
73205W        W32950  22.088  33.998  11.425
73206W        W32951  41.344  44.377   9.958
73207W        W32952  15.312  44.772   2.701
73208W        W32953  36.071  24.056  11.111
73209W        W32954  42.796  12.765  10.014
73210W        W32955  22.008  13.261   3.810
73211W        W32956  19.218   1.443   2.746
73212W        W32957  20.177   1.837  12.843
73213W        W32958  39.972  43.909  12.956
73214W        W32959  16.749  12.799  13.986
73215W        W32960   3.851  40.455   1.695
73216W        W32961  41.027  10.245   0.432
73217W        W32962  26.670  14.137   0.452
73218W        W32963  23.021  42.363  11.108
73219W        W32964  34.436   8.326   3.338
73220W        W32965  10.795   2.753   1.424
73221W        W32966  29.059   9.233  11.516
73222W        W32967  33.537  10.167   0.938
73223W        W32968   2.283  38.875   3.225
73224W        W32969  28.645   9.385   4.786
73225W        W32970   3.460  20.049   2.792
73226W        W32971   6.900  42.025   3.630
73227W        W32972  29.022  20.095  12.877
73228W        W32973  36.549   1.437  14.280
73229W        W32974  35.469  31.977   1.224
73230W        W32975  39.427  13.157   3.723
73231W        W32976  25.968  26.091   0.851
73232W        W32977  19.581  42.352  12.068
73233W        W32978  43.513  10.672  12.992
73234W        W32979  11.179   8.860  12.458
73235W        W32980  10.176  22.092   0.290
73236W        W32981  27.670  13.166   1.805
73237W        W32982  19.706  43.834  10.456
73238W        W32983  17.101   7.794  13.470
73239W        W32984   9.248   4.749  13.470
73240W        W32985  18.171  31.958  13.388
73241W        W32986  40.003  39.515  14.917
73242W        W32987   1.461  39.488   2.894
73243W        W32988   9.218   5.226   1.836
73244W        W32989   2.455  36.474  10.052
73245W        W32990  16.213  22.580  10.129
73246W        W32991  22.667  23.590  11.980
73247W        W32992  21.219  29.443  13.397
73248W        W32993  21.733  33.540   0.867
73249W        W32994  36.391  12.632   1.413
73250W        W32995  43.462  41.455  12.951
73251W        W32996  41.843  14.822  14.827
73252W        W32997  24.629  26.569   1.778
73253W        W32998  30.973   0.351  11.086
73254W        W32999  30.159  32.142  13.945
73255W        W33000  21.743  12.296  11.548
73256W        W33001  38.503  26.114  12.031
73257W        W33002  38.501  43.946  10.623
73258W        W33003   5.854  24.117   2.884
73259W        W33004  40.873  43.907   4.669
73260W        W33005  42.027  33.995   4.749
73261W        W33006  32.541   7.677  14.803
73262W        W33007   5.387  21.711  14.368
73263W        W33008  12.817  15.771  12.903
73264W        W33009  24.681  28.063   2.785
73265W        W33010  42.997   8.201   1.933
73266W        W33011  15.269  14.316  12.550
73267W        W33012  24.079  43.365   2.855
73268W        W33013  14.181  22.021   0.815
73269W        W33014  39.980  38.433  12.866
73270W        W33015  41.974  23.146  11.911
73271W        W33016   6.871  40.395  13.968
73272W        W33017  30.531  11.310  14.933
73273W        W33018  39.967  29.535  13.947
73274W        W33019  13.826   0.276   1.698
73275W        W33020  13.187  10.855   3.850
73276W        W33021  43.943  22.653   2.737
73277W        W33022  44.789  25.512  14.403
73278W        W33023  36.358  37.472  14.389
73279W        W33024  35.980  31.554  13.900
73280W        W33025  32.481   5.799   1.741
73281W        W33026  29.036  39.820   0.937
73282W        W33027  42.394  18.629  11.402
73283W        W33028  42.781  18.112  14.422
73284W        W33029  41.416   8.188  11.106
73285W        W33030  25.998  16.603   1.863
73286W        W33031   0.984  11.687  13.929
73287W        W33032  41.358  40.516  13.915
73288W        W33033  17.584  35.930   0.880
73289W        W33034  37.937   3.859   1.810
73290W        W33035   2.421   0.408  14.432
73291W        W33036   1.935   8.291   0.798
73292W        W33037  21.557   4.920   2.883
73293W        W33038  12.682  29.096   3.190
73294W        W33039  32.516   0.978  12.880
73295W        W33040   0.807  22.626   2.667
73296W        W33041  12.671  37.032  10.910
73297W        W33042  37.905  16.139  14.347
73298W        W33043  15.597  31.413  12.886
73299W        W33044  10.172  22.526   4.228
73300W        W33045   2.826   9.285  13.880
73301W        W33046  24.176  23.988   2.416
73302W        W33047  12.238  26.982   2.231
73303W        W33048  35.538  22.621  13.939
73304W        W33049  24.520  11.371  12.856
73305W        W33050   2.772  12.616   0.840
73306W        W33051  20.647  38.893   4.244
73307W        W33052  35.988   4.896  14.781
73308W        W33053  29.987   9.659  12.492
73309W        W33054  29.084   3.752   0.440
73310W        W33055  17.178  20.633  11.021
73311W        W33056  25.130  29.577   1.219
73312W        W33057   5.275  30.499   1.827
73313W        W33058  20.737  41.294   2.866
73314W        W33059  11.744  10.670  14.915
73315W        W33060  27.521  14.260   0.253
73316W        W33061  21.740  23.190  12.013
73317W        W33062   1.379  27.018   1.229
73318W        W33063  39.841  32.056  12.862
73319W        W33064  37.362  30.640   4.225
73320W        W33065  17.143  15.178   9.951
73321W        W33066  22.138  40.449   1.306
73322W        W33067  38.860  17.141  12.899
73323W        W33068   5.347  31.989  12.855
73324W        W33069  36.031  12.731  14.421
73325W        W33070  12.136  36.094   3.773
73326W        W33071  44.286  37.867  14.958
73327W        W33072  25.675  11.701   5.256
73328W        W33073  17.615  18.648   0.381
73329W        W33074  37.892  41.350   1.364
73330W        W33075  15.694  15.271   1.401
73331W        W33076   2.459  35.413   2.892
73332W        W33077  39.440   9.787  12.888
73333W        W33078  39.343  25.109   0.272
73334W        W33079   3.917  34.419  12.083
73335W        W33080   7.690  12.825  14.930
73336W        W33081  21.753  29.433   3.828
73337W        W33082  10.293  10.360   4.826
73338W        W33083  23.642  19.647  13.911
73339W        W33084   6.204  17.295  11.581
73340W        W33085  25.609  12.308  10.035
73341W        W33086   8.214  44.980  10.892
73342W        W33087   2.959  20.527   4.622
73343W        W33088  19.213  13.254  12.373
73344W        W33089  18.601  37.500   3.740
73345W        W33090  38.389  39.048  14.423
73346W        W33091  13.195  14.773  14.308
73347W        W33092  18.121  29.987  11.600
73348W        W33093  39.005  31.092   1.417
73349W        W33094  22.164   5.267   0.955
73350W        W33095  18.729  17.585   0.395
73351W        W33096   0.250  35.466  10.924
73352W        W33097  33.114  35.001  12.531
73353W        W33098  12.821  31.897  10.600
73354W        W33099  39.482  21.156  11.445
73355W        W33100   7.415  10.239   0.898
73356W        W33101  32.460  13.158   3.190
73357W        W33102  28.974  38.048   4.771
73358W        W33103  32.547  31.507   4.198
73359W        W33104   0.897  15.731   4.725
73360W        W33105  43.427  32.029  13.935
73361W        W33106  40.545   7.253  10.453
73362W        W33107   8.694  19.089   0.833
73363W        W33108  14.682   0.912   2.740
73364W        W33109   2.331  10.289  14.276
73365W        W33110   9.721  25.646  11.022
73366W        W33111   9.874   4.211   0.359
73367W        W33112  26.560   2.801   0.746
73368W        W33113   1.325   3.219   3.652
73369W        W33114  10.659  29.506  14.004
73370W        W33115   1.963   6.237   3.378
73371W        W33116  33.442  15.588   1.282
73372W        W33117  24.641  27.195   3.297
73373W        W33118   8.367  31.131  10.559
73374W        W33119  26.642  42.497   2.777
73375W        W33120  42.024  14.740   0.924
73376W        W33121  30.969  37.534   3.723
73377W        W33122  44.364  20.673   3.200
73378W        W33123  16.790  36.919  11.529
73379W        W33124  17.601  25.069  13.013
73380W        W33125  11.753   3.783  14.842
73381W        W33126  28.124  21.555   4.128
73382W        W33127  38.466  29.055  12.055
73383W        W33128  28.676  16.138  11.082
73384W        W33129   3.758  28.041  12.009
73385W        W33130   3.935  29.927   5.770
73386W        W33131  11.644  14.759   2.184
73387W        W33132  27.989  29.166  12.546
73388W        W33133   5.330  32.991  10.575
73389W        W33134  18.124  21.186   4.759
73390W        W33135  21.721   8.868   3.791
73391W        W33136  16.239  37.865   1.826
73392W        W33137  41.789  16.117  11.974
73393W        W33138   0.437   6.336   2.300
73394W        W33139   8.723  18.262  11.533
73395W        W33140   4.355   4.918   1.807
73396W        W33141  39.833  12.201  12.518
73397W        W33142   4.449   5.837   1.272
73398W        W33143  41.000  15.665   2.225
73399W        W33144   6.282  32.977  12.089
73400W        W33145  37.007  23.016  14.281
73401W        W33146  10.638  28.149  10.483
73402W        W33147  22.566  22.634   5.311
73403W        W33148   6.388  39.967  10.064
73404W        W33149  23.581   9.739  14.802
73405W        W33150  33.513  31.123   2.853
73406W        W33151   3.864   7.313   0.733
73407W        W33152  13.339   9.284  10.628
73408W        W33153  36.901  21.080   4.322
73409W        W33154  24.191   7.866  12.512
73410W        W33155  19.631  39.005   1.727
73411W        W33156   0.283  41.315  14.769
73412W        W33157  25.467  19.084   3.315
73413W        W33158  12.335  42.922  10.635
73414W        W33159  20.188  12.152  12.933
73415W        W33160   9.681  12.295  14.380
73416W        W33161  15.170  39.460  13.003
73417W        W33162   8.232   1.295  12.881
73418W        W33163  41.473  11.634   3.308
73419W        W33164   3.460  15.720  14.420
73420W        W33165  15.209  22.245  10.413
73421W        W33166  30.582  38.455   2.242
73422W        W33167   3.914  22.686  10.546
73423W        W33168  19.653  11.333  12.416
73424W        W33169  17.128  39.000   3.243
73425W        W33170  11.707   4.708  13.019
73426W        W33171  25.621  21.545   1.848
73427W        W33172  28.528  39.975  13.450
73428W        W33173   9.227   5.323   0.426
73429W        W33174  26.552  23.601   1.278
73430W        W33175  25.473  34.900  12.947
73431W        W33176  26.098  36.001   0.765
73432W        W33177  42.832  31.957  14.794
73433W        W33178  31.947  21.577  13.049
73434W        W33179  39.537  25.067   4.789
73435W        W33180  28.623   4.729   4.615
73436W        W33181   4.234  16.741   2.897
73437W        W33182  36.063   3.349  11.972
73438W        W33183   8.359   8.855  12.351
73439W        W33184  38.834  29.976   4.153
73440W        W33185  34.932  43.007   2.898
73441W        W33186  22.236  16.246  14.794
73442W        W33187  36.878   4.767  14.900
73443W        W33188  27.032  32.499  12.020
73444W        W33189  20.244  44.466  11.476
73445W        W33190   0.326   4.212  14.015
73446W        W33191  27.454  30.514   1.890
73447W        W33192  16.665  25.554   2.247
73448W        W33193  42.934  41.937   4.205
73449W        W33194  23.617  42.384   0.392
73450W        W33195  35.584  33.514  12.448
73451W        W33196   6.778  34.544  12.847
73452W        W33197  33.412   1.301  14.868
73453W        W33198   6.331   3.375  12.970
73454W        W33199  44.301  10.167   0.398
73455W        W33200  29.973  36.508   4.669
73456W        W33201  36.999  28.644  14.450
73457W        W33202   1.943  37.492   2.765
73458W        W33203   9.691  10.163   1.717
73459W        W33204  38.420  23.230  13.377
73460W        W33205   5.854  14.191  14.792
73461W        W33206  42.955  26.631  14.439
73462W        W33207  40.340  36.085   4.690
73463W        W33208  35.471  41.515  13.002
73464W        W33209  20.096   7.264   3.386
73465W        W33210  20.136  14.739   0.440
73466W        W33211  39.025  23.228  13.932
73467W        W33212   0.749  37.060  10.991
73468W        W33213  28.118  27.627   0.806
73469W        W33214   2.865  21.138  12.499
73470W        W33215  30.530  37.040  12.368
73471W        W33216  30.981  20.268  13.035
73472W        W33217  13.842  44.342   4.339
73473W        W33218   4.771  32.476   1.755
73474W        W33219  11.805  14.619  11.444
73475W        W33220  11.817   7.327  11.106
73476W        W33221  19.550  37.528  12.484
73477W        W33222  44.396  21.520  13.322
73478W        W33223  21.543  39.548   0.920
73479W        W33224  23.142  15.643  10.461
73480W        W33225  34.889  19.085  13.406
73481W        W33226  13.764  18.769  11.004
73482W        W33227  37.875  10.788  13.375
73483W        W33228  26.533  25.594  12.917
73484W        W33229  31.406   7.874   3.211
73485W        W33230  40.854  42.818   2.733
73486W        W33231  19.255  33.905  14.027
73487W        W33232  43.414   2.270   3.653
73488W        W33233  37.994   8.772  11.494
73489W        W33234  10.814  41.910   4.622
73490W        W33235   8.195  33.437   3.269
73491W        W33236  37.398  40.052   2.794
73492W        W33237  43.873   7.260  12.574
73493W        W33238  15.174  18.730   1.397
73494W        W33239  10.852  11.783   3.211
73495W        W33240  36.373  39.416  14.002
73496W        W33241  32.969  22.689  13.491
73497W        W33242   9.791   5.385   2.216
73498W        W33243  44.427   1.962  12.985
73499W        W33244  17.268  44.867   3.730
73500W        W33245  44.941  20.245  12.991
73501W        W33246  23.042   9.297  10.513
73502W        W33247   6.850  20.653  11.901
73503W        W33248  22.144  37.992   1.783
73504W        W33249  18.238  40.408   4.649
73505W        W33250  23.990   8.233   1.924
73506W        W33251   7.341  28.523  12.538
73507W        W33252  41.953  35.413  12.014
73508W        W33253  31.542   9.739  13.868
73509W        W33254  36.443  25.191  13.972
73510W        W33255   9.267   7.845   0.809
73511W        W33256   9.305  25.141   4.597
73512W        W33257   7.357  41.969   3.197
73513W        W33258  38.346  22.663  11.585
73514W        W33259  24.482  20.620   1.920
73515W        W33260   4.924  17.242   0.315
73516W        W33261  32.919  18.779  11.999
73517W        W33262  18.091   9.300   2.828
73518W        W33263   2.362  42.470   1.724
73519W        W33264  38.899  23.082  12.020
73520W        W33265  42.919  30.940   3.217
73521W        W33266  19.176   8.289   1.372
73522W        W33267  45.000  44.968   3.297
73523W        W33268  14.604  29.039  10.920
73524W        W33269  31.061  14.122   2.374
73525W        W33270   4.276  21.544   4.638
73526W        W33271  44.420  24.089  11.926
73527W        W33272  21.116  18.290  13.846
73528W        W33273  22.710  43.405   4.705
73529W        W33274   9.848  18.075   1.242
73530W        W33275   3.897  28.640   2.297
73531W        W33276  18.668   2.853  12.488
73532W        W33277  37.390  21.055   2.720
73533W        W33278  22.074   2.319  12.863
73534W        W33279  16.304  12.765  12.437
73535W        W33280  40.388  22.127  14.319
73536W        W33281  27.195  37.467  11.539
73537W        W33282  43.405  24.175   3.837
73538W        W33283  43.289  39.479   4.187
73539W        W33284  14.630  13.152   4.272
73540W        W33285  26.002  15.683   4.707
73541W        W33286  29.637   4.820   3.783
73542W        W33287   3.760  12.770   2.269
73543W        W33288  12.651  37.992  12.493
73544W        W33289  41.829  41.413   1.298
73545W        W33290  16.693   6.816  14.427
73546W        W33291  24.516   3.930   1.793
73547W        W33292  33.010  39.343  13.383
73548W        W33293  11.272   4.443   0.941
73549W        W33294   1.333   7.176  14.019
73550W        W33295  22.188  15.784  12.041
73551W        W33296  10.849  14.656   2.239
73552W        W33297  25.078   7.809  13.333
73553W        W33298  42.895   4.404   4.294
73554W        W33299  41.854   2.393  14.778
73555W        W33300  28.638   2.923   1.708
73556W        W33301  32.564   4.310  13.452
73557W        W33302  15.212   4.931  12.469
73558W        W33303  15.326  38.944  13.375
73559W        W33304  38.348  20.113  11.863
73560W        W33305  17.645  41.975  10.471
73561W        W33306  30.642  15.222  11.125
73562W        W33307   8.290   2.339  11.437
73563W        W33308   0.792   3.833  10.636
73564W        W33309  33.455  22.246  11.459
73565W        W33310  12.831  36.497   0.914
73566W        W33311  10.333  43.419   1.319
73567W        W33312  23.643  10.838  12.562
73568W        W33313   3.349  34.499   2.178
73569W        W33314  27.145  36.516   4.808
73570W        W33315   8.386   4.714   0.270
73571W        W33316  19.221  22.555   2.271
73572W        W33317   1.874  27.994   2.336
73573W        W33318  10.863  42.017   0.449
73574W        W33319  14.712   0.885   1.293
73575W        W33320   7.845  14.805   4.213
73576W        W33321  42.315   9.150   1.294
73577W        W33322  10.289  21.741   2.181
73578W        W33323   4.875  40.309  11.504
73579W        W33324   3.352   1.964  12.934
73580W        W33325  31.037  22.042  11.375
73581W        W33326  11.163  24.202   0.744
73582W        W33327  24.178  14.203   2.709
73583W        W33328  19.078  24.069   2.829
73584W        W33329  25.035  28.999  12.888
73585W        W33330  34.997  13.108  13.930
73586W        W33331  19.076  29.657  13.442
73587W        W33332  22.209   3.303   2.349
73588W        W33333  18.208   1.815  14.023
73589W        W33334  33.048   4.385  12.966
73590W        W33335  15.713   6.392  12.038
73591W        W33336  12.768   2.414  14.881
73592W        W33337   7.731   3.825  10.889
73593W        W33338  30.068  19.644  10.888
73594W        W33339  23.042  33.905  13.042
73595W        W33340   0.903  36.468   3.309
73596W        W33341   4.785  20.132   3.834
73597W        W33342  25.691   5.732  13.002
73598W        W33343   8.794  24.102  11.411
73599W        W33344  35.920  29.960  12.516
73600W        W33345  27.107   8.352  10.536
73601W        W33346  32.971  20.274   0.864
73602W        W33347  43.907  20.690  12.025
73603W        W33348  40.336  29.425   4.296
73604W        W33349  36.362   7.416   0.777
73605W        W33350  29.433  16.204   3.148
73606W        W33351  43.320   7.710   2.343
73607W        W33352  31.571  11.272   4.274
73608W        W33353  15.767  22.671  11.522
73609W        W33354  19.071  35.019  11.592
73610W        W33355  25.587  25.541   2.414
73611W        W33356  28.002   7.764  13.331
73612W        W33357  33.620  10.239  12.894
73613W        W33358   9.205  36.945  12.912
73614W        W33359  24.026  28.035   1.721
73615W        W33360   3.317  31.412   1.729
73616W        W33361   8.256  21.172  13.886
73617W        W33362  20.545  23.206  14.859
73618W        W33363  25.539  30.419   0.430
73619W        W33364  30.423  30.990   1.281
73620W        W33365  26.197  41.318  13.805
73621W        W33366   8.822  24.697  12.547
73622W        W33367   7.804  11.638  14.957
73623W        W33368  26.615  17.662   3.196
73624W        W33369  36.004  23.237  12.955
73625W        W33370  22.655  38.842  12.567
73626W        W33371  42.833  24.577  12.397
73627W        W33372   5.705   9.869  10.614
73628W        W33373  25.651  36.405  13.925
73629W        W33374   4.880  38.552  12.517
73630W        W33375  37.839  32.527   2.404
73631W        W33376   2.406  27.555   0.965
73632W        W33377   8.659   3.319  14.365
73633W        W33378  14.245  40.050   2.677
73634W        W33379  24.486  21.210  10.496
73635W        W33380  20.098   6.722  14.378
73636W        W33381  27.691   3.902   1.914
73637W        W33382  27.954  25.589  12.083
73638W        W33383  30.435  41.798   0.370
73639W        W33384  10.756  35.589   1.254
73640W        W33385   2.388  40.920  10.050
73641W        W33386   7.897  36.987   1.324
73642W        W33387  20.541  44.846   2.185
73643W        W33388   9.334  25.600   4.724
73644W        W33389  42.983   7.722  10.926
73645W        W33390  43.327  36.027   1.223
73646W        W33391  16.212  37.517   4.609
73647W        W33392  41.534  17.063   2.868
73648W        W33393  10.261  20.767  13.530
73649W        W33394  42.522  31.503   1.748
73650W        W33395  32.496   5.778  14.459
73651W        W33396  13.607  31.059   4.232
73652W        W33397   4.307  17.209  14.317
73653W        W33398  40.845  24.052  12.496
73654W        W33399  32.034   8.383  12.065
73655W        W33400  20.151  33.382   4.271
73656W        W33401  11.360  32.974  12.053
73657W        W33402  15.638  43.952  14.769
73658W        W33403   9.743  35.427  13.018
73659W        W33404   0.361  16.261  11.054
73660W        W33405  18.060  32.985  14.464
73661W        W33406   3.375  35.597  14.956
73662W        W33407  43.017  34.930   4.203
73663W        W33408  29.168  13.804   4.678
73664W        W33409  11.683   0.956  13.025
73665W        W33410  10.798  39.547  11.496
73666W        W33411  25.174  21.707  13.448
73667W        W33412  23.063  36.863   3.370
73668W        W33413  37.433  43.338   4.811
73669W        W33414  35.504  24.594   0.839
73670W        W33415  21.593  32.933  10.924
73671W        W33416  15.660  17.093   0.853
73672W        W33417   7.763   5.791  11.444
73673W        W33418  16.772  39.923   4.285
73674W        W33419   1.939  13.639   0.836
73675W        W33420  40.362  11.294  14.358
73676W        W33421  23.105   8.206   3.636
73677W        W33422  37.906  32.951  14.763
73678W        W33423   1.789  40.477  14.434
73679W        W33424  22.597   8.161  14.330
73680W        W33425  35.464  11.753  11.580
73681W        W33426  23.577  43.905   4.735
73682W        W33427  25.170  10.263  11.447
73683W        W33428  32.034  42.473  14.995
73684W        W33429  24.069  16.601   4.661
73685W        W33430  27.626  38.482  12.382
73686W        W33431  14.805   6.343  12.887
73687W        W33432   4.387   0.427   3.756
73688W        W33433  30.503   9.218  14.496
73689W        W33434   0.289   6.335   1.796
73690W        W33435   4.840  29.566   2.680
73691W        W33436  28.487  28.009   0.914
73692W        W33437  39.481  12.823   0.429
73693W        W33438  30.007  24.707  11.856
73694W        W33439  15.158  16.175   3.284
73695W        W33440   2.297  16.093   3.321
73696W        W33441  14.614  14.285   1.373
73697W        W33442   4.719  30.579   1.331
73698W        W33443  22.506  27.973   0.457
73699W        W33444  22.537  23.211  10.973
73700W        W33445  44.448  21.749   3.285
73701W        W33446  29.660  39.323  10.589
73702W        W33447  28.630   8.396  11.001
73703W        W33448  18.225   0.829  14.850
73704W        W33449  11.654  13.200  14.318
73705W        W33450  42.861  41.442  14.431
73706W        W33451  30.622  26.039  14.362
73707W        W33452  40.312   1.446   0.811
73708W        W33453  35.542  21.164  12.962
73709W        W33454  11.807  30.961  13.379
73710W        W33455  43.455  40.407   2.826
73711W        W33456  28.965  37.561   1.795
73712W        W33457  39.060  39.527  13.009
73713W        W33458  13.644  31.968   2.682
73714W        W33459  23.020  22.194  14.417
73715W        W33460  15.667  28.572   2.343
73716W        W33461   3.317  43.401  11.105
73717W        W33462  20.194  12.644  14.862
73718W        W33463  27.585  31.504   1.704
73719W        W33464  18.549  16.243  12.055
73720W        W33465  10.300  42.440   3.160
73721W        W33466   2.774  37.035   5.675
73722W        W33467  35.511   8.250  13.451
73723W        W33468  36.866  33.084   2.672
73724W        W33469  39.907  25.978   2.290
73725W        W33470  21.564  38.003   4.704
73726W        W33471  43.377  41.507  10.899
73727W        W33472  27.570  21.132   4.735
73728W        W33473   7.271   5.405   4.735
73729W        W33474  19.569  24.560  12.914
73730W        W33475   2.736  23.588   1.305
73731W        W33476  14.732  10.287  13.019
73732W        W33477  31.062  22.717   4.229
73733W        W33478  24.031  28.990  13.531
73734W        W33479   2.948  30.592   4.629
73735W        W33480  36.061   1.390  11.594
73736W        W33481  40.424   6.761  10.958
73737W        W33482  30.651  30.909   0.804
73738W        W33483  14.620  37.460   2.792
73739W        W33484  24.160   6.338  13.802
73740W        W33485   7.850  20.533   0.846
73741W        W33486  22.209  39.938  11.541
73742W        W33487  35.854  16.101  14.813
73743W        W33488   4.726  25.703  11.377
73744W        W33489  40.028  39.446  10.528
73745W        W33490  39.376  41.431   0.247
73746W        W33491  41.434  37.539  13.523
73747W        W33492   5.715  41.347  12.579
73748W        W33493  10.359  41.353  12.926
73749W        W33494  31.463  32.998  13.046
73750W        W33495  23.096  24.029  11.528
73751W        W33496  40.046  20.151  14.372
73752W        W33497  29.999   9.296  13.909
73753W        W33498  26.145  18.222  12.093
73754W        W33499   5.707  22.160   4.132
73755W        W33500  25.650  43.324  14.416
73756W        W33501  24.160   0.899  13.817
73757W        W33502   3.835   7.787  11.030
73758W        W33503  26.162   7.248   4.140
73759W        W33504   3.949   4.931   4.628
73760W        W33505  17.171  18.178   0.910
73761W        W33506  12.158  10.852   4.348
73762W        W33507   4.429   2.447   0.827
73763W        W33508  31.451   3.856  12.943
73764W        W33509   7.794  20.232  14.016
73765W        W33510   4.761  24.504   1.726
73766W        W33511   2.460  12.133  10.567
73767W        W33512  22.252  35.883   3.305
73768W        W33513  12.281  31.124   3.226
73769W        W33514  24.676   6.868   4.158
73770W        W33515   4.937   8.760  10.961
73771W        W33516   3.773  36.931   4.684
73772W        W33517  15.655  31.449   0.477
73773W        W33518  14.117  41.388   4.662
73774W        W33519  44.341  27.521   1.396
73775W        W33520  31.604  39.928  13.923
73776W        W33521  16.165  35.433  11.899
73777W        W33522  33.946  18.259   1.801
73778W        W33523  11.837  23.578   9.968
73779W        W33524  26.093   4.826  10.623
73780W        W33525  16.251  31.570  11.868
73781W        W33526   1.746   8.310  11.972
73782W        W33527  21.692   9.697  10.526
73783W        W33528   5.339  18.100  11.905
73784W        W33529  16.572  28.929   1.775
73785W        W33530   8.840  41.029   1.232
73786W        W33531  27.004  25.599  11.016
73787W        W33532  32.521  14.210  11.047
73788W        W33533  37.490   9.693  13.312
73789W        W33534  38.832  11.717   4.690
73790W        W33535  37.011  19.754   3.715
73791W        W33536  22.586  16.075   1.922
73792W        W33537  28.544  41.919   1.295
73793W        W33538  33.596  20.076  14.453
73794W        W33539  22.614  36.016  14.023
73795W        W33540  29.924  13.341   0.266
73796W        W33541  37.561  20.031   4.791
73797W        W33542  16.612   4.811  11.100
73798W        W33543  34.980  16.201   2.266
73799W        W33544  19.203  20.684   1.877
73800W        W33545  31.628   6.355   3.732
73801W        W33546  20.209   6.839   4.739
73802W        W33547  12.260   7.679  10.534
73803W        W33548  40.367   4.430  12.368
73804W        W33549  36.888   2.740   3.179
73805W        W33550  44.488  21.598  12.053
73806W        W33551   0.443  13.318   0.963
73807W        W33552  36.046  23.708   3.754
73808W        W33553  36.584  25.590  11.503
73809W        W33554  41.420   0.921  14.964
73810W        W33555   9.714   0.451   3.867
73811W        W33556   6.403   1.953   0.809
73812W        W33557  28.644  15.159  11.527
73813W        W33558  27.133  38.970   2.818
73814W        W33559  16.091  28.623   2.300
73815W        W33560  16.580  39.460   3.331
73816W        W33561  19.701  20.648   3.354
73817W        W33562  24.504  16.598   3.254
73818W        W33563  34.446   6.678  11.572
73819W        W33564  31.616  11.856   3.224
73820W        W33565   9.714   7.798   1.211
73821W        W33566  19.096  38.874  14.827
73822W        W33567  24.551   1.904   4.836
73823W        W33568   9.185  13.691  11.459
73824W        W33569  38.452   0.953  14.024
73825W        W33570  38.860  15.693  10.523
73826W        W33571   6.735  40.396   1.723
73827W        W33572  19.048  38.407  11.479
73828W        W33573  13.752  13.142   4.712
73829W        W33574  21.674   9.157  14.766
73830W        W33575  23.026   7.718   1.759
73831W        W33576  41.915   5.886  10.420
73832W        W33577  23.001   0.288   1.365
73833W        W33578  10.659  42.958  14.328
73834W        W33579   3.724  43.469  13.990
73835W        W33580  22.246  26.111   3.709
73836W        W33581  25.664  19.170   0.274
73837W        W33582  43.928  42.979  14.308
73838W        W33583   9.243  39.332  11.600
73839W        W33584  28.085   6.869   3.815
73840W        W33585  12.752   0.786  14.453
73841W        W33586  33.072  33.093   3.185
73842W        W33587  22.727  20.522   4.210
73843W        W33588  22.618  28.945   4.801
73844W        W33589  17.742  12.153  12.062
73845W        W33590  10.165  37.043  10.019
73846W        W33591  18.604  26.072  13.968
73847W        W33592  26.170  40.378   2.343
73848W        W33593  38.873  39.008   3.821
73849W        W33594   5.265   1.435   2.380
73850W        W33595  26.086  23.000  13.995
73851W        W33596   2.237  18.088  14.278
73852W        W33597   2.919  26.162   3.219
73853W        W33598  41.337  30.539   3.215
73854W        W33599  30.152  27.142  13.800
73855W        W33600  14.742  30.528  10.991
73856W        W33601  20.031  38.501   3.317
73857W        W33602   2.877  25.679  14.823
73858W        W33603  30.968   6.365  13.999
73859W        W33604   8.337  35.062   4.754
73860W        W33605  26.650   0.781   4.343
73861W        W33606   1.374   2.327  13.030
73862W        W33607  24.630  12.764   0.850
73863W        W33608  32.134  16.137   2.255
73864W        W33609   1.763   0.316  12.374
73865W        W33610   7.219  33.541   3.666
73866W        W33611  28.588  18.723  14.993
73867W        W33612  42.002  33.996   3.168
73868W        W33613  21.631  30.466  11.974
73869W        W33614   4.439  17.176   0.774
73870W        W33615  10.879  34.079  13.415
73871W        W33616  28.659  21.555  10.580
73872W        W33617  11.643  19.534  13.543
73873W        W33618  18.689   8.754   0.728
73874W        W33619  42.963   4.280  13.339
73875W        W33620   3.450  40.037   1.430
73876W        W33621  36.023  12.121  11.935
73877W        W33622  34.048  17.240  12.346
73878W        W33623  19.085  42.390  13.379
73879W        W33624  28.543  43.820   0.307
73880W        W33625  11.864   7.750  11.006
73881W        W33626  25.000  22.239  12.894
73882W        W33627   3.460  44.999   2.260
73883W        W33628  26.954  31.034  12.909
73884W        W33629  39.008  41.363   0.793
73885W        W33630  38.067  27.045  10.510
73886W        W33631  32.482   3.331  11.375
73887W        W33632   6.824  16.778  12.885
73888W        W33633  17.609   5.803  12.923
73889W        W33634  37.529  17.636  11.045
73890W        W33635  12.626   0.828   1.771
73891W        W33636  25.072  11.224   1.891
73892W        W33637  44.325  40.882  12.886
73893W        W33638  25.057  29.972  12.410
73894W        W33639  21.178   7.417   1.858
73895W        W33640  23.541  41.917   1.852
73896W        W33641  25.022   6.211   1.885
73897W        W33642   8.193   9.764   2.714
73898W        W33643   8.845  41.346   9.950
73899W        W33644  38.956  33.079  12.919
73900W        W33645  41.894  19.116  10.448
73901W        W33646  12.323  39.358  11.948
73902W        W33647  16.602  28.933   3.756
73903W        W33648  38.445  37.482   3.298
73904W        W33649  37.925   0.421   3.222
73905W        W33650  32.443  17.602  10.971
73906W        W33651  23.086  36.440  10.075
73907W        W33652  44.869  43.490   4.691
73908W        W33653   9.219  33.443  10.418
73909W        W33654  14.589  30.079   1.713
73910W        W33655  18.598  18.134   0.966
73911W        W33656  43.951  13.263  14.861
73912W        W33657  19.272  11.736  13.899
73913W        W33658  28.061  36.553   4.208
73914W        W33659  19.227  14.248   0.854
73915W        W33660  20.075  26.514   5.297
73916W        W33661   3.903  22.222  12.037
73917W        W33662  39.324  26.585   2.310
73918W        W33663   9.328  14.328   4.770
73919W        W33664  41.869  23.056   3.211
73920W        W33665  31.973  25.532   2.842
73921W        W33666  21.716   1.837   1.916
73922W        W33667  19.596   9.338  12.830
73923W        W33668  19.612  31.103   4.702
73924W        W33669   6.779   7.668  12.908
73925W        W33670   1.476   0.810   2.416
73926W        W33671  38.349  40.341   2.377
73927W        W33672  38.463  13.277   0.781
73928W        W33673  43.808  10.866  14.977
73929W        W33674  42.961  41.502  12.923
73930W        W33675   9.375  21.533   2.801
73931W        W33676  24.690  17.797  11.417
73932W        W33677  13.106  30.131  13.379
73933W        W33678  35.009  44.425  11.980
73934W        W33679  39.816  31.108  12.899
73935W        W33680   1.922  39.321   0.261
73936W        W33681  15.599  29.018   1.803
73937W        W33682  25.998   0.854  13.850
73938W        W33683  11.694  29.989   3.241
73939W        W33684  40.008   1.427   3.793
73940W        W33685   1.237  17.626  13.967
73941W        W33686  35.381  21.733  14.432
73942W        W33687  20.153   4.239   3.860
73943W        W33688  24.511  25.521  11.502
73944W        W33689  44.473  28.993  12.513
73945W        W33690   6.864   3.775  14.431
73946W        W33691  29.443  29.050  12.536
73947W        W33692   9.794  34.937  11.569
73948W        W33693  10.316  10.205  12.908
73949W        W33694  28.072  17.171   1.436
73950W        W33695   5.223   4.880  13.424
73951W        W33696  13.212   3.314   3.308
73952W        W33697  36.033   6.335  13.990
73953W        W33698  29.944  12.643   1.868
73954W        W33699  41.324  32.007  11.885
73955W        W33700  40.899  27.014  13.525
73956W        W33701  39.957  37.845  13.399
73957W        W33702  29.659  10.165   1.919
73958W        W33703   4.943  35.886   1.250
73959W        W33704   1.345   7.174   1.219
73960W        W33705  21.576  43.792   3.645
73961W        W33706  40.825  15.302  14.306
73962W        W33707  25.696   2.423   0.826
73963W        W33708  33.917  35.578  13.041
73964W        W33709  22.199   0.771   1.434
73965W        W33710   9.243  15.685   4.791
73966W        W33711  40.371  21.568  13.522
73967W        W33712  15.705   7.337  13.824
73968W        W33713  34.963  22.519  14.355
73969W        W33714  11.648  34.869  13.033
73970W        W33715   5.437  37.487   3.169
73971W        W33716  27.613   1.422   1.236
73972W        W33717   5.825  14.787   1.935
73973W        W33718  10.719   8.784  10.630
73974W        W33719   1.291  24.078  12.438
73975W        W33720  36.856  15.607  12.954
73976W        W33721   6.905  35.928  14.368
73977W        W33722  23.032  16.737  13.409
73978W        W33723  30.139   1.295  11.410
73979W        W33724  32.619  36.543   3.202
73980W        W33725  27.567  32.982   0.283
73981W        W33726  31.590  10.281  11.918
73982W        W33727  36.351  16.623  13.471
73983W        W33728  30.658  39.340   0.924
73984W        W33729   4.812  36.871  14.380
73985W        W33730   9.877  41.384  14.881
73986W        W33731  35.873  17.268  11.894
73987W        W33732  13.602  44.010  10.915
73988W        W33733  41.787  37.351  10.431
73989W        W33734  30.971   6.850   4.765
73990W        W33735  26.130  32.057   2.858
73991W        W33736  19.663  14.742   1.447
73992W        W33737  21.696  42.927  13.025
73993W        W33738  39.824  15.690   0.845
73994W        W33739  18.233  20.554   2.403
73995W        W33740  28.477  30.550   3.382
73996W        W33741  14.095  12.748   4.684
73997W        W33742   8.740  27.454  13.345
73998W        W33743   2.326  31.562  12.971
73999W        W33744   8.206  38.497   1.396
74000W        W33745  32.510  36.550   2.688
74001W        W33746  30.917  14.733  13.510
74002W        W33747  21.248   9.664  14.354
74003W        W33748  13.295   7.353   4.164
74004W        W33749  36.444  38.448  14.468
74005W        W33750  26.495   2.951  11.974
74006W        W33751   1.251  43.469   4.738
74007W        W33752  40.818  20.686   1.440
74008W        W33753  33.891  35.456  11.085
74009W        W33754  24.066  35.512   0.367
74010W        W33755  39.895  23.585   0.376
74011W        W33756   3.276  33.008   3.782
74012W        W33757  41.457  36.969   1.847
74013W        W33758  13.209  30.967  10.537
74014W        W33759  40.511  35.499   0.871
74015W        W33760  31.972  32.986  12.939
74016W        W33761  41.411  22.730  11.954
74017W        W33762  31.441  21.196   3.371
74018W        W33763  13.202   7.805   3.302
74019W        W33764  23.595  15.321  11.029
74020W        W33765  30.565  23.604   2.678
74021W        W33766  20.749  24.523   0.772
74022W        W33767  31.544   0.847   1.263
74023W        W33768  37.340  27.633  12.545
74024W        W33769  12.838  24.541  11.903
74025W        W33770  31.035  37.372  13.921
74026W        W33771  38.555  27.144  12.358
74027W        W33772  19.151  41.945   1.812
74028W        W33773   3.355  41.403  11.069
74029W        W33774  16.599  33.503   4.640
74030W        W33775  35.036   4.841   3.720
74031W        W33776  28.151   5.243   0.311
74032W        W33777  15.316   5.933  11.085
74033W        W33778  40.412  22.203  13.890
74034W        W33779  44.475  14.833   0.951
74035W        W33780   7.327  29.506  11.973
74036W        W33781  31.940  24.646  12.029
74037W        W33782  13.843  39.464   1.837
74038W        W33783  19.074  18.552   2.762
74039W        W33784  15.682   6.756   4.239
74040W        W33785  40.855  33.961  12.458
74041W        W33786  10.851  36.559  14.841
74042W        W33787  31.512  12.641  10.409
74043W        W33788   0.886  31.934  10.962
74044W        W33789  26.186  20.719  11.937
74045W        W33790  39.364  30.005   0.843
74046W        W33791  32.902   0.786   2.320
74047W        W33792  37.004  28.459   0.427
74048W        W33793  37.063  15.181   2.362
74049W        W33794  20.732  11.148   3.242
74050W        W33795  21.621  24.648  11.914
74051W        W33796  32.426  40.455   1.720
74052W        W33797  36.470   4.862   2.237
74053W        W33798  35.361  24.588  10.496
74054W        W33799  27.536   8.787   1.880
74055W        W33800  25.681  44.340   0.832
74056W        W33801  17.195  23.002   4.309
74057W        W33802  35.914  42.520  14.376
74058W        W33803  34.929  31.065  10.935
74059W        W33804  29.482  26.654   1.435
74060W        W33805  31.510  41.377   0.885
74061W        W33806   1.799   0.336  13.457
74062W        W33807  35.106  14.709  10.448
74063W        W33808  20.765  29.518   3.210
74064W        W33809  32.391  31.076  11.495
74065W        W33810   4.913  39.522  13.850
74066W        W33811  22.148   9.290   4.312
74067W        W33812  28.005  35.971  13.968
74068W        W33813  15.107  38.865   4.304
74069W        W33814   0.858  27.177  10.126
74070W        W33815  41.914  14.748   4.343
74071W        W33816  16.765  16.681   3.266
74072W        W33817  22.502  23.702  13.021
74073W        W33818   4.425  13.715  14.022
74074W        W33819   6.380  33.526   1.759
74075W        W33820  42.320  42.917  13.501
74076W        W33821  21.716  31.596  12.907
74077W        W33822  14.310  26.170   0.966
74078W        W33823  31.117   9.658   4.781
74079W        W33824  29.467  11.271  13.504
74080W        W33825  21.548  11.303   2.178
74081W        W33826  20.605  31.948  11.473
74082W        W33827  23.670  18.197  10.567
74083W        W33828  18.286  27.547  14.010
74084W        W33829   8.180  18.631   2.832
74085W        W33830  21.180  37.832   0.303
74086W        W33831  37.854   5.199   0.398
74087W        W33832  36.943  22.193  14.809
74088W        W33833   0.765   3.946   1.930
74089W        W33834  44.357  35.021  14.401
74090W        W33835  41.311   1.788   3.807
74091W        W33836  22.502  26.559   2.369
74092W        W33837   7.386  35.600  13.974
74093W        W33838   0.414  21.078  13.979
74094W        W33839  11.780  33.982  14.506
74095W        W33840  31.504   0.428   1.802
74096W        W33841  44.964  16.301  13.415
74097W        W33842   7.812  16.781  14.477
74098W        W33843  38.438  32.941  13.800
74099W        W33844   5.789   3.228  13.403
74100W        W33845   4.318  15.715   0.443
74101W        W33846   8.240  17.291   4.337
74102W        W33847  39.853  21.074  12.523
74103W        W33848  25.509   1.250  10.422
74104W        W33849  25.663  20.717  14.905
74105W        W33850   1.417  18.216   2.796
74106W        W33851  16.217   7.228  13.950
74107W        W33852  12.297  10.353   4.597
74108W        W33853   4.778  29.148  13.521
74109W        W33854   5.782  15.811   3.749
74110W        W33855  39.825  13.260  14.928
74111W        W33856  39.389   7.838   2.290
74112W        W33857  25.649  24.522   0.366
74113W        W33858  16.264  21.600   2.410
74114W        W33859  14.830  44.807   3.271
74115W        W33860  20.530  31.621  12.364
74116W        W33861  10.351  27.541   0.739
74117W        W33862  37.406  40.474   3.828
74118W        W33863  38.016  24.702  13.493
74119W        W33864  34.880  21.089  12.934
74120W        W33865  22.067   9.176  14.991
74121W        W33866  22.603   8.804  11.112
74122W        W33867  39.050  27.642  13.053
74123W        W33868  25.145  23.046  10.449
74124W        W33869  44.309  34.419   0.838
74125W        W33870  28.136  15.192  13.547
74126W        W33871  30.102  33.440   2.801
74127W        W33872  43.335   0.350   1.317
74128W        W33873   6.812  41.905  12.834
74129W        W33874  26.060  39.350   0.867
74130W        W33875   3.854  37.086   5.208
74131W        W33876  30.455  20.688  14.294
74132W        W33877  14.693  24.091  13.344
74133W        W33878  23.665   1.364  14.768
74134W        W33879  16.733  23.501   3.669
74135W        W33880  40.490  10.158   2.821
74136W        W33881  24.588  40.032   1.927
74137W        W33882   2.421  31.145   3.864
74138W        W33883  19.550  22.238   3.859
74139W        W33884  25.531  10.686  10.914
74140W        W33885   2.230  17.652  12.062
74141W        W33886   4.823  15.793  11.983
74142W        W33887  37.077  20.226   0.382
74143W        W33888  39.955  18.613  11.943
74144W        W33889  43.996  41.346   4.717
74145W        W33890   1.887  40.006   3.693
74146W        W33891  32.487  31.434   0.296
74147W        W33892  26.068  23.629  13.454
74148W        W33893  24.990  31.619  11.973
74149W        W33894   0.820   4.338   2.809
74150W        W33895  12.235  22.545  11.511
74151W        W33896  39.314  24.700  12.561
74152W        W33897  38.466  29.053  14.503
74153W        W33898  26.031  35.546  10.521
74154W        W33899  38.559  27.064  12.873
74155W        W33900  34.534  35.957   0.842
74156W        W33901  11.305   9.776   0.362
74157W        W33902  42.338   4.240  12.095
74158W        W33903  28.954   1.794   3.302
74159W        W33904   2.269  24.517   1.770
74160W        W33905  37.471  43.346   3.320
74161W        W33906  19.770  19.210   1.891
74162W        W33907  18.278   7.386   3.276
74163W        W33908  29.031  18.078  14.384
74164W        W33909  18.771  35.436   4.172
74165W        W33910  12.219  36.059  12.072
74166W        W33911   0.869  38.374   4.204
74167W        W33912   8.185  23.667   4.229
74168W        W33913  32.616  38.914   0.426
74169W        W33914   5.805  28.032  11.985
74170W        W33915  27.070  12.281   0.844
74171W        W33916  39.465  43.505   0.434
74172W        W33917  38.009  12.665   2.721
74173W        W33918  37.040  31.998   1.755
74174W        W33919  11.284  30.489  11.873
74175W        W33920  32.137  28.099   2.380
74176W        W33921  25.149  39.994  12.532
74177W        W33922  15.149  10.179   3.280
74178W        W33923   8.870  11.742   2.267
74179W        W33924  26.513  32.612   3.313
74180W        W33925   5.851  11.691   2.267
74181W        W33926  24.089   0.760  11.111
74182W        W33927  10.276  38.449   1.271
74183W        W33928  10.189  44.371   2.809
74184W        W33929   8.760  31.075   4.791
74185W        W33930  40.321  27.496  14.909
74186W        W33931  36.925  25.601  14.346
74187W        W33932  29.453  13.184  10.584
74188W        W33933   6.872   7.845   2.847
74189W        W33934  38.896  39.492  10.063
74190W        W33935  30.548  36.583   3.179
74191W        W33936  35.110  14.636  12.489
74192W        W33937   3.405  32.097   1.291
74193W        W33938  20.250  12.287   3.833
74194W        W33939   1.976  26.696   3.764
74195W        W33940  13.325   2.877   1.232
74196W        W33941   6.371  40.388  12.497
74197W        W33942  21.633   8.181  10.428
74198W        W33943   1.866  38.987   4.788
74199W        W33944  26.034  27.676  11.383
74200W        W33945   5.397  38.360  11.101
74201W        W33946  28.548  38.893  10.444
74202W        W33947  10.741  25.701  11.961
74203W        W33948  28.152  39.899   2.709
74204W        W33949  35.967  39.378   3.283
74205W        W33950   6.741  40.799   1.344
74206W        W33951  31.049  26.112   3.262
74207W        W33952   4.268  42.329  11.469
74208W        W33953  23.500   8.835  13.524
74209W        W33954  12.832  12.669  12.468
74210W        W33955  41.357  15.743  12.920
74211W        W33956  26.099   4.746   3.150
74212W        W33957  17.663  10.265  14.781
74213W        W33958   6.846  17.665   3.687
74214W        W33959  14.243  41.988  13.960
74215W        W33960  30.588  28.606  14.361
74216W        W33961   3.418  22.096  14.776
74217W        W33962   6.324  41.995  10.579
74218W        W33963  11.267  15.591   4.248
74219W        W33964  37.964  27.062  13.389
74220W        W33965  12.127  24.605   4.771
74221W        W33966  27.645  35.862   3.857
74222W        W33967  25.522  37.566   2.882
74223W        W33968  10.654  37.016   2.758
74224W        W33969  43.461  34.966   1.816
74225W        W33970   6.750  22.675   3.251
74226W        W33971   3.906  21.183  13.446
74227W        W33972  36.534   6.684  11.514
74228W        W33973   5.290  44.980   2.847
74229W        W33974  25.645  13.306  13.503
74230W        W33975  34.893   8.207   3.314
74231W        W33976  23.211   7.407  10.454
74232W        W33977  22.620  10.282   9.937
74233W        W33978  26.995  40.530   4.216
74234W        W33979  35.928  28.985  12.475
74235W        W33980   1.472  41.825  14.296
74236W        W33981  19.111  34.542   4.320
74237W        W33982  33.973  39.404   1.399
74238W        W33983  17.205  19.539  10.152
74239W        W33984  15.775   1.753  11.443
74240W        W33985  27.099   6.244   4.290
74241W        W33986   6.385  14.131  12.919
74242W        W33987   3.844  42.411   0.814
74243W        W33988   4.926   7.780   2.335
74244W        W33989  31.946   2.923   4.351
74245W        W33990   9.220   9.150   4.116
74246W        W33991  21.599  10.853   3.261
74247W        W33992  42.816  11.802  12.544
74248W        W33993   1.820  33.900  11.556
74249W        W33994   5.293  44.458   4.275
74250W        W33995  12.705   9.300  13.412
74251W        W33996  43.788   0.426   1.829
74252W        W33997  13.828  16.138   4.150
74253W        W33998   1.913   2.329   3.369
74254W        W33999  28.079  29.111   9.608
74255W        W34000   2.249  20.657  13.534
74256W        W34001  38.929  44.908  11.608
74257W        W34002  39.850  41.375  11.419
74258W        W34003  44.274   3.862  14.761
74259W        W34004  10.320  30.474   4.199
74260W        W34005   5.794  40.006   1.314
74261W        W34006   8.803  10.690   2.718
74262W        W34007  13.317  30.090  12.870
74263W        W34008  11.127   7.844   4.739
74264W        W34009   6.272  22.722  11.971
74265W        W34010   9.742   7.382   0.772
74266W        W34011  14.830  13.744   1.699
74267W        W34012  12.256  38.920   3.196
74268W        W34013   6.713  27.567  11.556
74269W        W34014  32.926  19.092   2.211
74270W        W34015  33.976   4.288   2.217
74271W        W34016  25.570   1.263   2.391
74272W        W34017  26.675  17.645  10.976
74273W        W34018  35.387  11.223  13.423
74274W        W34019  26.201   6.768  13.940
74275W        W34020   5.823  31.128  12.859
74276W        W34021  11.200   4.740  14.301
74277W        W34022   9.753  41.371   3.646
74278W        W34023  13.297  24.622   2.259
74279W        W34024  42.981   9.814   4.621
74280W        W34025  12.279  44.870  14.814
74281W        W34026  19.180  12.683  11.582
74282W        W34027  37.959  32.918  11.421
74283W        W34028  19.272   8.214   1.746
74284W        W34029  10.334  27.137  14.024
74285W        W34030  41.833  43.273  14.933
74286W        W34031  34.421   6.883  13.920
74287W        W34032  16.720  12.272   3.707
74288W        W34033  35.452  33.533   3.242
74289W        W34034  14.772  14.132   5.272
74290W        W34035   8.201  38.501  12.355
74291W        W34036  14.320   0.299   3.225
74292W        W34037  34.399  37.399   3.728
74293W        W34038  43.364  10.284   4.786
74294W        W34039  17.182  24.988   3.709
74295W        W34040  44.419  33.602  14.968
74296W        W34041  10.316  22.563   0.834
74297W        W34042   5.828  42.891  11.942
74298W        W34043  14.665  40.920   4.190
74299W        W34044  30.508   5.918   0.893
74300W        W34045  25.010   8.376  13.028
74301W        W34046   6.419  38.937   3.772
74302W        W34047  30.084  17.295   1.278
74303W        W34048   7.251  32.551   3.634
74304W        W34049  10.370  24.654  14.287
74305W        W34050  32.947  15.735  13.415
74306W        W34051  26.137  38.864  14.910
74307W        W34052  33.420  14.263  13.501
74308W        W34053  16.214  31.032   3.836
74309W        W34054  19.631  31.402  12.409
74310W        W34055  15.775  24.511  12.871
74311W        W34056  43.331  40.868   2.411
74312W        W34057   8.848   2.267  13.497
74313W        W34058  12.852   3.326   5.114
74314W        W34059   5.328  28.676   0.416
74315W        W34060  11.156   7.248  12.431
74316W        W34061  26.667  16.142   2.665
74317W        W34062   7.310  21.128   4.712
74318W        W34063  40.897   7.219  12.073
74319W        W34064  27.599  21.152   3.234
74320W        W34065  40.856  39.966  14.398
74321W        W34066  15.657   9.735  10.904
74322W        W34067   0.328  32.515   0.326
74323W        W34068  13.663   0.964   2.318
74324W        W34069  33.608  14.293   4.822
74325W        W34070  15.171  18.134   0.255
74326W        W34071  43.323  33.946  11.531
74327W        W34072  18.087   8.769  12.342
74328W        W34073   9.173  23.144   4.301
74329W        W34074  19.091  10.254  11.504
74330W        W34075  28.087   3.259   4.197
74331W        W34076  21.217  20.713   1.711
74332W        W34077  21.537  10.316  13.439
74333W        W34078   0.489  12.116  12.444
74334W        W34079  37.903  39.049  12.516
74335W        W34080   2.951  30.914   2.311
74336W        W34081  41.419   1.370  11.942
74337W        W34082  20.673  24.560   4.680
74338W        W34083  19.040   1.808   1.308
74339W        W34084  18.732   0.882  13.960
74340W        W34085  36.482  26.978   2.676
74341W        W34086   7.376  43.463  14.941
74342W        W34087  36.514   2.274  13.903
74343W        W34088  25.507  39.050  14.444
74344W        W34089  42.295  38.333  11.100
74345W        W34090  34.084   1.799  14.889
74346W        W34091  23.092  11.193   4.708
74347W        W34092  27.060  11.147   2.877
74348W        W34093  24.628  13.326   1.772
74349W        W34094   5.391  15.278   0.461
74350W        W34095   8.317  25.498   0.918
74351W        W34096   4.358  29.132  14.401
74352W        W34097  10.765  37.397  14.813
74353W        W34098  30.511  41.979  14.877
74354W        W34099  12.260  15.718   2.308
74355W        W34100  21.570   9.736   4.228
74356W        W34101  37.365  19.246   4.338
74357W        W34102  34.506  33.099  13.902
74358W        W34103  30.987  39.406  14.914
74359W        W34104  15.271  30.427  10.580
74360W        W34105  19.285  21.611  12.407
74361W        W34106   5.706  37.899   1.885
74362W        W34107  25.079  36.972  14.959
74363W        W34108  20.614  36.992  10.581
74364W        W34109   5.790  40.373  13.458
74365W        W34110  10.243  40.994   2.294
74366W        W34111  43.402   8.763   4.275
74367W        W34112   2.416   9.655  14.358
74368W        W34113  40.464  15.773   1.424
74369W        W34114  30.116   0.296   3.199
74370W        W34115  22.031   0.973  12.980
74371W        W34116  31.143  12.765  11.059
74372W        W34117  31.403  41.827   4.760
74373W        W34118   7.775  36.587   2.327
74374W        W34119  12.299  30.068  12.999
74375W        W34120  41.393  21.741   4.163
74376W        W34121  14.762  24.596  12.400
74377W        W34122  42.969   8.860  10.081
74378W        W34123  30.995  21.133   4.182
74379W        W34124  37.022  28.475   4.342
74380W        W34125  24.522  42.807   2.715
74381W        W34126  27.655  35.425   1.341
74382W        W34127   4.370  10.349  12.974
74383W        W34128   1.271  17.186   0.829
74384W        W34129  40.422   8.686   1.761
74385W        W34130  18.629   3.342  11.499
74386W        W34131  19.576   6.290  12.914
74387W        W34132  20.072  17.783  13.044
74388W        W34133  30.942   8.694   0.779
74389W        W34134  13.271  30.158   0.927
74390W        W34135  15.707  42.837   2.724
74391W        W34136  12.745  27.184   4.308
74392W        W34137  26.526  30.490  14.950
74393W        W34138  44.890  28.480  11.387
74394W        W34139  14.693   2.930  12.357
74395W        W34140  21.248  17.717   0.865
74396W        W34141  33.964  34.895  14.828
74397W        W34142  23.043   5.759  11.460
74398W        W34143  40.027  42.788   1.243
74399W        W34144  13.749   3.261   4.693
74400W        W34145  23.507  43.338  14.473
74401W        W34146   1.313  18.583   3.274
74402W        W34147  14.140  20.644   0.306
74403W        W34148  25.478  11.227   3.218
74404W        W34149  20.068  11.861  11.536
74405W        W34150   2.386  23.086  12.351
74406W        W34151  21.065  40.807   1.776
74407W        W34152   0.458  42.915   5.119
74408W        W34153  10.716  35.864   0.252
74409W        W34154  19.281  39.914   2.903
74410W        W34155  13.769  31.498  12.914
74411W        W34156  39.814   5.779   3.234
74412W        W34157  12.215  23.123  13.850
74413W        W34158  30.480   8.172  13.414
74414W        W34159  14.796  13.743   4.780
74415W        W34160  28.535   4.319  12.576
74416W        W34161  28.528   9.332  13.978
74417W        W34162  20.073  17.224  10.041
74418W        W34163  15.653  43.867  10.460
74419W        W34164  44.437  39.010   4.136
74420W        W34165  12.721  42.788  10.613
74421W        W34166  29.171  10.141  10.507
74422W        W34167   4.216  43.311  11.490
74423W        W34168  15.255  20.697   1.281
74424W        W34169  20.056  15.782   4.237
74425W        W34170  15.154  44.834  14.777
74426W        W34171  40.510   3.369   4.748
74427W        W34172  19.105  41.012  13.819
74428W        W34173  41.441   6.240  13.905
74429W        W34174  29.103  35.941  10.479
74430W        W34175  26.637  22.725   3.257
74431W        W34176  36.930  23.029   1.431
74432W        W34177   9.664  42.364   0.910
74433W        W34178  38.825  42.450   9.956
74434W        W34179  13.692   7.680   0.958
74435W        W34180   8.189  18.174  12.063
74436W        W34181  40.869  36.065   4.644
74437W        W34182  43.813  23.680  10.889
74438W        W34183  42.399  12.662   3.647
74439W        W34184  21.203  19.705   3.630
74440W        W34185  23.728  25.071  14.450
74441W        W34186  13.310  39.006  14.015
74442W        W34187  17.238   1.356   1.910
74443W        W34188   1.278  37.986   9.921
74444W        W34189   9.389  44.297  10.620
74445W        W34190  31.443  34.061   1.905
74446W        W34191   5.772  34.480   3.818
74447W        W34192  34.118  18.270   0.899
74448W        W34193   8.313   4.326   1.429
74449W        W34194  11.860   3.414   4.671
74450W        W34195  23.029  16.166   1.760
74451W        W34196  40.314  29.094   1.882
74452W        W34197   6.250   7.741   0.311
74453W        W34198  21.713  17.227   2.815
74454W        W34199  22.115  23.505   1.412
74455W        W34200  41.921  44.366  14.288
74456W        W34201  26.965   4.368  10.590
74457W        W34202  26.659  12.722  10.904
74458W        W34203  41.885  39.353  12.010
74459W        W34204   8.785   6.770  11.946
74460W        W34205   9.809  31.533  10.441
74461W        W34206   2.392   4.347  14.819
74462W        W34207  23.145  13.809   2.740
74463W        W34208  34.598  19.776   3.827
74464W        W34209  38.377  43.901  13.490
74465W        W34210   3.420  36.982   2.848
74466W        W34211  13.611  18.199  14.478
74467W        W34212   0.967  34.953   3.665
74468W        W34213  35.009  38.423  11.876
74469W        W34214  44.986  32.926   4.325
74470W        W34215  33.041   0.475  10.605
74471W        W34216   2.429   1.786   2.195
74472W        W34217  21.571  43.399  11.529
74473W        W34218  19.243  31.537  10.990
74474W        W34219  32.985  14.612   2.411
74475W        W34220  18.086  26.500   3.648
74476W        W34221  13.293  21.627  11.016
74477W        W34222  13.673   8.222  10.979
74478W        W34223  13.246  30.595   2.296
74479W        W34224  32.633  39.026  14.968
74480W        W34225  10.848   0.875   4.615
74481W        W34226  12.628  18.691  11.953
74482W        W34227  13.138   4.325   1.920
74483W        W34228   5.327   4.327  12.877
74484W        W34229   5.702   2.244   4.144
74485W        W34230  22.083  17.572  11.395
74486W        W34231  39.416  34.020  11.041
74487W        W34232  42.830  30.997  11.861
74488W        W34233  18.271  27.521   3.245
74489W        W34234  16.143  11.200   1.933
74490W        W34235  26.976   2.340  12.410
74491W        W34236  14.687  40.879  11.021
74492W        W34237  13.106   1.267  12.095
74493W        W34238  21.609  30.035   3.857
74494W        W34239  11.134  13.296   4.243
74495W        W34240  30.152   9.205   1.248
74496W        W34241  28.598  35.410   1.882
74497W        W34242  35.568  32.078  13.852
74498W        W34243  44.503   8.706  14.991
74499W        W34244  13.776  29.649  14.351
74500W        W34245  13.758  13.692   1.851
74501W        W34246  16.244  12.253  10.521
74502W        W34247  29.999  30.939   4.673
74503W        W34248   5.319  36.451  10.534
74504W        W34249  34.881  40.831   3.340
74505W        W34250   0.792  39.935  14.759
74506W        W34251   9.247  41.369   3.342
74507W        W34252   4.730  36.567   2.739
74508W        W34253   8.376  34.954  10.953
74509W        W34254  21.078  35.469   0.335
74510W        W34255  43.385  36.850  12.349
74511W        W34256  31.565  35.882   2.203
74512W        W34257  17.231  32.020   3.649
74513W        W34258  39.434  26.644   4.630
74514W        W34259  37.053  33.880   4.225
74515W        W34260  19.140   5.805  12.548
74516W        W34261  15.176  16.110  11.563
74517W        W34262  30.425  38.429   4.628
74518W        W34263   7.744  36.591   3.376
74519W        W34264   8.811  19.176   1.708
74520W        W34265  23.527  37.078   4.702
74521W        W34266  42.826  31.074   4.731
74522W        W34267  17.266  31.560  10.918
74523W        W34268   2.796  24.508   2.749
74524W        W34269  39.514  39.887   3.848
74525W        W34270  12.264  15.225   3.687
74526W        W34271  16.757  33.053  14.455
74527W        W34272  18.635  17.717  14.808
74528W        W34273  44.495  17.757  11.998
74529W        W34274  16.090  38.024   0.468
74530W        W34275  27.169  36.955   3.287
74531W        W34276  20.226  23.562   1.783
74532W        W34277   5.909  41.418  11.950
74533W        W34278  33.486  28.559  14.313
74534W        W34279  29.446   7.825  10.966
74535W        W34280  37.567  32.509  13.930
74536W        W34281  22.250  32.902   3.290
74537W        W34282  26.638  39.959   4.600
74538W        W34283  14.127  17.215   3.772
74539W        W34284   3.349  29.496  14.864
74540W        W34285  23.178  39.003   3.349
74541W        W34286  41.892   5.396  13.916
74542W        W34287  32.101  25.473  14.321
74543W        W34288   7.692   4.369  10.483
74544W        W34289  42.874  19.731   2.198
74545W        W34290  43.289  32.488   2.318
74546W        W34291   6.880  23.144   1.874
74547W        W34292   7.301  11.319   4.306
74548W        W34293  39.412  25.658  12.851
74549W        W34294   3.778  22.636   0.456
74550W        W34295  13.329   4.870  13.994
74551W        W34296  32.565  10.691   0.912
74552W        W34297  23.645   0.828  14.323
74553W        W34298   4.939  22.567   4.246
74554W        W34299  26.631  23.055   0.920
74555W        W34300  33.926  15.647  11.997
74556W        W34301  18.605  13.835   3.171
74557W        W34302  30.553  21.143   3.812
74558W        W34303  40.859  39.498   0.462
74559W        W34304   4.405  36.947   5.081
74560W        W34305  19.714  14.725   1.865
74561W        W34306  30.140   8.200   3.238
74562W        W34307  29.471  31.124   0.742
74563W        W34308  40.548   0.799  13.542
74564W        W34309   9.819   9.693   3.262
74565W        W34310  25.682   6.783  14.890
74566W        W34311   7.857  35.409   4.707
74567W        W34312  13.746   4.802   1.345
74568W        W34313   4.264  13.229   1.814
74569W        W34314  23.030  38.950  10.443
74570W        W34315   9.272   6.883  10.411
74571W        W34316   2.421   1.299   3.331
74572W        W34317  11.640  10.743   2.883
74573W        W34318   2.783   5.229   4.350
74574W        W34319  32.073  16.096   1.284
74575W        W34320  42.973  32.416  10.987
74576W        W34321  42.858  13.639  13.821
74577W        W34322  10.692  22.244   2.354
74578W        W34323   3.812  34.378   2.896
74579W        W34324  18.259  25.996  10.549
74580W        W34325  33.505  23.151  11.573
74581W        W34326  23.703  22.717   4.743
74582W        W34327   2.263  30.650   4.629
74583W        W34328  12.830  10.877   2.219
74584W        W34329   2.470  25.008   3.165
74585W        W34330  22.122  11.770  14.413
74586W        W34331  30.043  15.770  12.073
74587W        W34332   6.799  44.990   4.605
74588W        W34333  11.640  10.801   0.420
74589W        W34334  12.242  35.860  14.417
74590W        W34335  39.010  11.762   2.227
74591W        W34336  27.970  15.301  12.565
74592W        W34337   9.764   1.429   1.766
74593W        W34338  24.215  33.025   1.836
74594W        W34339  18.719  14.776  13.531
74595W        W34340  14.762  40.501   4.304
74596W        W34341  43.501  41.871   4.325
74597W        W34342  36.562  40.914   4.665
74598W        W34343  39.502  32.585   2.784
74599W        W34344  11.127   8.660  14.505
74600W        W34345  43.338   4.252  10.546
74601W        W34346  19.755  16.301  10.972
74602W        W34347  26.019  13.237   2.890
74603W        W34348  20.039  17.275  14.316
74604W        W34349   7.753  32.109  11.104
74605W        W34350  27.054  26.001   3.795
74606W        W34351   2.362   1.326  12.876
74607W        W34352  27.482   1.968   4.218
74608W        W34353  17.567  44.421   3.366
74609W        W34354  28.443   4.863   2.315
74610W        W34355  42.938  13.640  14.436
74611W        W34356   5.345  38.860  10.934
74612W        W34357  24.992  24.496  11.049
74613W        W34358  12.175  33.452  13.913
74614W        W34359  23.597  43.327   1.791
74615W        W34360  42.022  43.468   4.275
74616W        W34361  30.157  38.413  12.914
74617W        W34362  17.075  18.677  12.916
74618W        W34363  41.877  14.224   3.287
74619W        W34364   5.331   5.880   0.339
74620W        W34365  16.175  34.009   4.173
74621W        W34366   8.291  41.964  14.434
74622W        W34367  10.830  13.703   4.783
74623W        W34368  15.640  35.362   1.215
74624W        W34369  39.961  38.900  11.955
74625W        W34370  20.616  36.555   0.292
74626W        W34371  43.816  12.680   2.262
74627W        W34372  44.316  44.972  14.459
74628W        W34373   3.229  20.049   0.912
74629W        W34374  13.283  16.277   1.778
74630W        W34375  35.073  25.043   3.810
74631W        W34376  40.869  18.184  13.005
74632W        W34377  33.029   8.656  11.607
74633W        W34378   6.798  17.682   0.434
74634W        W34379  26.611  31.997   5.120
74635W        W34380  31.935   7.822   5.252
74636W        W34381  42.337   6.747  11.376
74637W        W34382   6.266  41.811   4.291
74638W        W34383   8.281   4.354   1.797
74639W        W34384  35.418  18.600  14.919
74640W        W34385  17.226  27.527  13.793
74641W        W34386   6.401  28.179   1.222
74642W        W34387   3.388  31.583  13.008
74643W        W34388  27.549  16.758  13.533
74644W        W34389  12.672  41.911  13.816
74645W        W34390  33.874   5.297  12.452
74646W        W34391   9.263  22.181  11.120
74647W        W34392  18.237  20.740  13.910
74648W        W34393  25.118  23.991  14.004
74649W        W34394  40.477  18.585   1.765
74650W        W34395  12.279  26.979  11.067
74651W        W34396  25.477  23.010  12.510
74652W        W34397   5.894   3.218  12.853
74653W        W34398   1.926  35.069  14.402
74654W        W34399  31.915  43.432  14.789
74655W        W34400  41.502  30.161  14.448
74656W        W34401  29.482  39.467  13.904
74657W        W34402  23.996  22.166   0.874
74658W        W34403  31.034  13.800  14.901
74659W        W34404   7.879  10.197   3.187
74660W        W34405  36.915  44.856   2.888
74661W        W34406  32.506   5.374   0.927
74662W        W34407  31.530  18.617   2.789
74663W        W34408  29.118  13.698   0.365
74664W        W34409  25.559  33.401   4.349
74665W        W34410  15.204   3.916  13.928
74666W        W34411  18.162  39.557   4.644
74667W        W34412  30.117  16.772   9.984
74668W        W34413  26.613   5.408  12.359
74669W        W34414  26.619   9.265   3.346
74670W        W34415  33.546  44.306   3.313
74671W        W34416  41.833  43.310   2.853
74672W        W34417  21.674  29.107   0.807
74673W        W34418  33.011  17.758  11.394
74674W        W34419  13.122  28.988   1.438
74675W        W34420   8.817  38.835   4.696
74676W        W34421   5.259   9.365  14.453
74677W        W34422   4.254   5.253  14.360
74678W        W34423   9.702   6.349  12.394
74679W        W34424  13.189  32.021  13.016
74680W        W34425  40.912  19.671  10.413
74681W        W34426   8.828  40.896  14.812
74682W        W34427   8.229   0.439  10.529
74683W        W34428  35.098  16.125  13.326
74684W        W34429   4.857  11.303  10.631
74685W        W34430  25.046   3.773   9.538
74686W        W34431  42.309  34.597   2.784
74687W        W34432  39.360  37.361   0.465
74688W        W34433  17.557   7.677   2.178
74689W        W34434  21.074  32.983   0.958
74690W        W34435  19.709  13.671  13.918
74691W        W34436  35.867  15.326  10.567
74692W        W34437   3.264  12.743  10.990
74693W        W34438  17.801   9.256   2.757
74694W        W34439   3.927  44.275  10.590
74695W        W34440  41.905  41.321   1.767
74696W        W34441  27.147  22.236  12.975
74697W        W34442  42.307  43.380   2.750
74698W        W34443  26.044  12.334   2.664
74699W        W34444   9.671  39.904   4.751
74700W        W34445  19.774  41.413   1.815
74701W        W34446  38.012  30.114   3.698
74702W        W34447  10.810  37.467   3.371
74703W        W34448  34.867  28.183   3.303
74704W        W34449  42.511   3.268  14.457
74705W        W34450  12.296  17.571   2.350
74706W        W34451  18.618  41.331  14.982
74707W        W34452   5.729  14.652  13.969
74708W        W34453  19.691  42.522  13.351
74709W        W34454  33.094  32.456   1.842
74710W        W34455  27.054  29.597   0.362
74711W        W34456  19.079  18.272   1.391
74712W        W34457  10.311  13.793   1.882
74713W        W34458  23.546  40.351   1.854
74714W        W34459  31.036   6.268   2.667
74715W        W34460  28.146  12.161  11.500
74716W        W34461  35.062  21.121  12.512
74717W        W34462  26.570  36.998   1.299
74718W        W34463   5.337  25.486   1.317
74719W        W34464  11.635   0.775  12.057
74720W        W34465  33.008  28.526   9.486
74721W        W34466   1.892  18.231   1.803
74722W        W34467   7.710  15.220   0.347
74723W        W34468  30.531  20.029  10.915
74724W        W34469  13.722  23.666   3.158
74725W        W34470   1.286  31.601  13.498
74726W        W34471  35.444   0.950   1.854
74727W        W34472  15.778   0.315  13.989
74728W        W34473  39.440  34.390   2.880
74729W        W34474  42.410  28.633  14.772
74730W        W34475   3.854  37.528   0.459
74731W        W34476   8.865  10.326  11.516
74732W        W34477   2.792  14.822   3.831
74733W        W34478  25.525  21.081   1.365
74734W        W34479  39.500  14.303   0.383
74735W        W34480   6.239  22.056  12.867
74736W        W34481  11.292  38.997  14.311
74737W        W34482  26.058   7.180   2.254
74738W        W34483  32.479   6.402   0.380
74739W        W34484  24.113  31.494  12.441
74740W        W34485  12.249  18.226   1.315
74741W        W34486  36.354  35.032  11.987
74742W        W34487  41.518  27.171  13.538
74743W        W34488  41.469   7.742   2.709
74744W        W34489  25.587   7.683   4.600
74745W        W34490  26.487   4.928  10.895
74746W        W34491  31.927  10.694  14.369
74747W        W34492  42.004  37.398  11.584
74748W        W34493  19.647  34.033  13.315
74749W        W34494  25.095  10.325   1.404
74750W        W34495  27.666  34.471   4.269
74751W        W34496   6.297  19.625  10.918
74752W        W34497   2.275  41.421   4.119
74753W        W34498  10.794  32.941   2.378
74754W        W34499  32.412  28.630   5.216
74755W        W34500   4.415  27.634  13.838
74756W        W34501  43.336  28.497   2.862
74757W        W34502  40.814  28.108   4.185
74758W        W34503   7.231   3.356  12.976
74759W        W34504  14.604   2.471   0.275
74760W        W34505  31.912  23.516  11.477
74761W        W34506   8.785  23.195  10.616
74762W        W34507  18.648  11.866  12.825
74763W        W34508   4.843  27.495   4.315
74764W        W34509  35.966  15.163   0.345
74765W        W34510  29.106   9.214   2.249
74766W        W34511  43.775  31.568   1.415
74767W        W34512   4.832   6.191   2.878
74768W        W34513   9.759  12.291   4.307
74769W        W34514  15.085  29.651   4.187
74770W        W34515  14.208   0.828  13.871
74771W        W34516   5.272   7.814  11.901
74772W        W34517  27.483  32.434   2.894
74773W        W34518  32.504  23.192  12.946
74774W        W34519  28.065  38.969  14.766
74775W        W34520  32.103  24.009  11.092
74776W        W34521  36.944   6.242  13.523
74777W        W34522  38.490   5.781   0.322
74778W        W34523  37.902   1.434   3.774
74779W        W34524   9.810  14.811   2.397
74780W        W34525   8.895   2.833   1.774
74781W        W34526  16.598  26.632   2.409
74782W        W34527   5.418   5.886  14.837
74783W        W34528   8.295  18.279  14.965
74784W        W34529  23.180  34.045   9.444
74785W        W34530   5.793   5.224  13.955
74786W        W34531  43.882  12.842  12.530
74787W        W34532   1.961   0.426  13.930
74788W        W34533  23.049  16.725  11.965
74789W        W34534  39.417   1.803   1.726
74790W        W34535  27.961   8.791  12.843
74791W        W34536   5.210  18.642   2.866
74792W        W34537  36.549  17.192   2.297
74793W        W34538  43.458  25.593   0.960
74794W        W34539   6.363   0.487   2.810
74795W        W34540  23.549  33.902  13.383
74796W        W34541  26.030  32.126  14.961
74797W        W34542  28.601   4.909   0.377
74798W        W34543  43.325  40.504  11.438
74799W        W34544  30.527  30.118   0.339
74800W        W34545  20.723  30.543   2.717
74801W        W34546  33.571  34.435  12.419
74802W        W34547  10.800  44.899  13.460
74803W        W34548  12.346  18.170   2.868
74804W        W34549  25.041  41.905  12.365
74805W        W34550   6.699   9.681   1.243
74806W        W34551  13.235  22.737  14.281
74807W        W34552  42.909  24.485  13.888
74808W        W34553  41.380  39.954   3.289
74809W        W34554  28.634  27.955   2.357
74810W        W34555   5.416  37.994  11.105
74811W        W34556   3.347   6.364   0.369
74812W        W34557   3.294  36.351  13.988
74813W        W34558  33.580  33.971  13.354
74814W        W34559  15.258  34.440  12.383
74815W        W34560  44.960  39.034   2.220
74816W        W34561  32.933  13.279   4.828
74817W        W34562  21.585  17.795   5.286
74818W        W34563  18.580  37.350  10.891
74819W        W34564   7.348  24.484  14.514
74820W        W34565  30.421  39.489  12.954
74821W        W34566  19.283  26.620  10.407
74822W        W34567  19.045  41.915   3.771
74823W        W34568  38.440  26.487   1.381
74824W        W34569   9.800  31.124   0.301
74825W        W34570  43.498  30.414  12.345
74826W        W34571   6.268  34.054   0.811
74827W        W34572   5.408   4.307   2.212
74828W        W34573   7.183  44.362  13.958
74829W        W34574  34.911  28.076  14.340
74830W        W34575  33.904  32.070   3.760
74831W        W34576  42.898  13.726   1.342
74832W        W34577   6.425   9.188   0.921
74833W        W34578  35.902  42.906  13.993
74834W        W34579  26.699   7.775  11.542
74835W        W34580  18.755  42.501   3.318
74836W        W34581  27.636  13.220   4.271
74837W        W34582  17.638   0.756  13.363
74838W        W34583  23.141  14.818   3.204
74839W        W34584  10.383  17.777  12.010
74840W        W34585  25.183  25.152  13.993
74841W        W34586  14.195  21.194  13.310
74842W        W34587  19.209  10.379  13.922
74843W        W34588  43.516   0.293  11.900
74844W        W34589  17.070  31.951   0.477
74845W        W34590  41.410  12.141  11.475
74846W        W34591  40.470   6.367   0.825
74847W        W34592  41.328  22.665   2.764
74848W        W34593   4.318  41.345  12.045
74849W        W34594   3.318  24.119  12.837
74850W        W34595   1.797  20.663   2.346
74851W        W34596  39.833  18.753   3.195
74852W        W34597  20.574  41.334  13.875
74853W        W34598   0.282  11.286  14.031
74854W        W34599   3.828  16.792   0.819
74855W        W34600  44.805  32.563  11.520
74856W        W34601  36.987  12.123   4.633
74857W        W34602   7.738  12.791   9.977
74858W        W34603  40.309  31.472  10.633
74859W        W34604   4.228  42.991  11.085
74860W        W34605  20.195  12.628  10.897
74861W        W34606  26.199  31.580  13.396
74862W        W34607  12.181  25.607   2.845
74863W        W34608   7.333  17.242  13.946
74864W        W34609  22.181  23.013  14.824
74865W        W34610   4.334  19.216   0.438
74866W        W34611   1.454  34.075   3.794
74867W        W34612  23.231  34.913  13.428
74868W        W34613  27.518  15.133  14.350
74869W        W34614  39.916  18.248  12.397
74870W        W34615  40.827  38.975   1.758
74871W        W34616   7.367  37.052  10.958
74872W        W34617  30.518  31.093  10.525
74873W        W34618   0.419  17.560   3.156
74874W        W34619   2.955  20.230   3.152
74875W        W34620  37.360  24.225  13.523
74876W        W34621  37.041  13.816   0.423
74877W        W34622  37.516  12.136  13.958
74878W        W34623  20.266   8.690   0.310
74879W        W34624  19.553  43.371  11.582
74880W        W34625  26.978  22.697  14.317
74881W        W34626   8.193  34.016  11.385
74882W        W34627  40.415  32.903  14.800
74883W        W34628  26.656  18.289  14.884
74884W        W34629  14.303  24.043   2.346
74885W        W34630  25.033  23.576   1.705
74886W        W34631   1.387  11.779  11.395
74887W        W34632  36.583  21.571  12.526
74888W        W34633  40.835  27.023  11.064
74889W        W34634  10.138  10.832  14.352
74890W        W34635  42.897  21.686  10.987
74891W        W34636  31.505   0.875  11.041
74892W        W34637   8.762   4.236  13.483
74893W        W34638  38.501  33.415  11.965
74894W        W34639  44.796  11.704   3.215
74895W        W34640  26.661  21.756  10.991
74896W        W34641  42.362   1.899  14.456
74897W        W34642  17.174  31.107  12.002
74898W        W34643   9.827  43.308   4.792
74899W        W34644   1.442  37.861   0.416
74900W        W34645  44.902   3.275  11.889
74901W        W34646  41.984  19.088  11.112
74902W        W34647  17.162  12.840   3.810
74903W        W34648  21.694  20.699  11.532
74904W        W34649  21.122  26.204   2.317
74905W        W34650  17.128  23.211   3.308
74906W        W34651   8.666  25.006  13.384
74907W        W34652  40.441  38.519  11.954
74908W        W34653  32.133   1.423  11.892
74909W        W34654  24.582   3.251   1.768
74910W        W34655  41.493  39.019   3.354
74911W        W34656  21.105  35.017  12.961
74912W        W34657  26.591  34.030  11.122
74913W        W34658  27.669  33.925   2.798
74914W        W34659  21.092  36.395   0.268
74915W        W34660  38.960  42.033  11.104
74916W        W34661  41.903  36.542  12.034
74917W        W34662  16.718  31.980   1.789
74918W        W34663  17.113  30.419   4.219
74919W        W34664  29.121  44.767  10.637
74920W        W34665  27.554  33.403  12.342
74921W        W34666   0.967   6.360  13.360
74922W        W34667  33.935   2.753  13.853
74923W        W34668   2.747  37.458   2.836
74924W        W34669  11.335  35.075   2.248
74925W        W34670  16.726  33.445  10.582
74926W        W34671  19.752  22.154  11.007
74927W        W34672  21.108  17.159   4.655
74928W        W34673  33.884  25.127   0.804
74929W        W34674  28.574  11.651   0.479
74930W        W34675  26.972  23.609   1.710
74931W        W34676  30.144  44.767   4.328
74932W        W34677  28.176  36.036  10.060
74933W        W34678  44.460   4.230  11.488
74934W        W34679  11.275   1.329  13.516
74935W        W34680  33.396  42.803  14.880
74936W        W34681  16.796  42.882  14.773
74937W        W34682  17.205  25.158   4.258
74938W        W34683  34.085  13.229  13.938
74939W        W34684  21.590  41.041   2.706
74940W        W34685   9.852  21.537  13.898
74941W        W34686  10.314  38.982  13.484
74942W        W34687  32.577   3.361   2.716
74943W        W34688  20.067  10.292  14.514
74944W        W34689  25.564  28.679  12.405
74945W        W34690  29.433  36.993   0.426
74946W        W34691  43.307  28.069   0.378
74947W        W34692   0.423  34.451   0.466
74948W        W34693  30.074  25.038  12.373
74949W        W34694  31.915   8.671   0.448
74950W        W34695   5.212  44.004   1.295
74951W        W34696  44.306  15.746   0.286
74952W        W34697   6.353  13.152   0.949
74953W        W34698  13.201  26.458   3.653
74954W        W34699  40.343  33.008  12.863
74955W        W34700  44.462  30.467   9.953
74956W        W34701  12.719  29.529  13.043
74957W        W34702  13.146  16.667   4.739
74958W        W34703  32.451  31.419  13.485
74959W        W34704  21.061  23.051  12.363
74960W        W34705   8.770  27.516   3.197
74961W        W34706  29.116   7.332  12.521
74962W        W34707  13.158  33.401  14.968
74963W        W34708  31.565  31.488  11.054
74964W        W34709  24.065  13.292   1.699
74965W        W34710   4.285  38.827   4.304
74966W        W34711   0.402   8.230   4.741
74967W        W34712  31.928  35.603  13.791
74968W        W34713  28.064  35.597  14.339
74969W        W34714  33.058  11.638   4.202
74970W        W34715  20.235  14.148   1.719
74971W        W34716  38.960  12.225  11.519
74972W        W34717  25.501  35.604  11.895
74973W        W34718   1.843  42.799   3.279
74974W        W34719   5.334   8.193  12.515
74975W        W34720  40.347  25.527   4.204
74976W        W34721  24.659   0.791  12.495
74977W        W34722  11.343  29.522   0.894
74978W        W34723   2.817  39.868  12.502
74979W        W34724   9.221  26.656  10.137
74980W        W34725   6.408  41.531   4.316
74981W        W34726  13.621  14.716   0.858
74982W        W34727  13.183  22.122  14.012
74983W        W34728  20.524   4.749   1.262
74984W        W34729  38.328  20.558  13.987
74985W        W34730  40.889  13.666   2.831
74986W        W34731  24.594  40.388   4.695
74987W        W34732   5.354  37.029   2.817
74988W        W34733  14.272   9.256   4.684
74989W        W34734  43.270  43.419  13.895
74990W        W34735  35.513  18.663  12.447
74991W        W34736  17.718  25.707  12.572
74992W        W34737  44.997  29.543  14.384
74993W        W34738  25.552  32.030  14.954
74994W        W34739   8.371  42.368  11.099
74995W        W34740  40.358  43.408  14.408
74996W        W34741  26.954  27.634  12.956
74997W        W34742  31.061  37.552  13.364
74998W        W34743  37.866   6.209   3.244
74999W        W34744  17.760   5.281   3.715
75000W        W34745  40.438   3.368   1.257
75001W        W34746  24.011  27.126   3.173
75002W        W34747  30.087  29.554  12.524
75003W        W34748   4.832  21.072  10.522
75004W        W34749  11.264  41.312  13.324
75005W        W34750  29.599   1.331   1.272
75006W        W34751  23.194   3.406  10.049
75007W        W34752  29.960  24.070   2.859
75008W        W34753  14.798  12.777  12.518
75009W        W34754  43.326  14.115  11.570
75010W        W34755  27.570  43.452  14.924
75011W        W34756  30.551   8.722   1.912
75012W        W34757  34.935  38.361  10.412
75013W        W34758   3.928   1.835   0.348
75014W        W34759  27.544   1.790   1.427
75015W        W34760   8.298  34.434   4.241
75016W        W34761   8.721   4.284   3.357
75017W        W34762  26.185  21.740  13.459
75018W        W34763  15.585  23.043  10.418
75019W        W34764  21.146  30.435   3.322
75020W        W34765   0.927  35.990   9.561
75021W        W34766   4.879   4.346  11.936
75022W        W34767  17.800  13.820   0.390
75023W        W34768  30.060   6.297   4.682
75024W        W34769  20.607  44.971  11.997
75025W        W34770  30.522  44.339  13.315
75026W        W34771  37.548  43.768  14.009
75027W        W34772  28.532  25.500   4.341
75028W        W34773  23.524  15.219  13.949
75029W        W34774  24.660  17.238   2.724
75030W        W34775  25.132   9.814  13.345
75031W        W34776  35.027  11.368   2.701
75032W        W34777  41.951  34.038  12.892
75033W        W34778  32.034   4.212   3.290
75034W        W34779  42.945  44.381  11.591
75035W        W34780  28.572  21.099   2.300
75036W        W34781  20.749  13.334  14.797
75037W        W34782  11.639  34.546  13.337
75038W        W34783  16.311   4.233  10.931
75039W        W34784  16.583   2.856  14.767
75040W        W34785   9.754  33.898  14.923
75041W        W34786   0.988  35.937  13.988
75042W        W34787  10.211  13.314   4.760
75043W        W34788  44.905  27.073  12.344
75044W        W34789  35.497  18.772  13.846
75045W        W34790  15.087  23.022   4.247
75046W        W34791  22.519   3.711  12.972
75047W        W34792   7.709  13.804   0.956
75048W        W34793  24.083   9.251  11.510
75049W        W34794  17.779  24.995  12.451
75050W        W34795  10.736   7.176  11.042
75051W        W34796  40.412  10.644  14.326
75052W        W34797  17.643  39.901   0.346
75053W        W34798   3.282   8.767  13.838
75054W        W34799   2.290  16.797   9.574
75055W        W34800   8.190  24.562  13.802
75056W        W34801  17.644  17.620   3.856
75057W        W34802  33.507  22.249  13.533
75058W        W34803   9.749  14.762  10.562
75059W        W34804  43.795  37.504   0.459
75060W        W34805  39.843  27.141  11.909
75061W        W34806   1.402   2.297  11.996
75062W        W34807   4.764  22.159   4.661
75063W        W34808   4.372  36.559  11.856
75064W        W34809  33.948  35.521   2.211
75065W        W34810   0.835   8.728  12.873
75066W        W34811  23.709  19.669   4.189
75067W        W34812   1.262   5.793  12.533
75068W        W34813  42.956  35.602   1.836
75069W        W34814  15.763  21.255  10.160
75070W        W34815   6.282  37.469   3.673
75071W        W34816  33.504  35.554  10.428
75072W        W34817  42.784   2.290   0.964
75073W        W34818  44.832  36.573  14.020
75074W        W34819   7.863  42.902   2.295
75075W        W34820  31.429   7.756   2.331
75076W        W34821   3.738  14.327   5.095
75077W        W34822  39.542  39.333   0.379
75078W        W34823  34.883  38.937  13.973
75079W        W34824  35.963  31.923  12.346
75080W        W34825  28.494  19.086  10.500
75081W        W34826  29.558  35.027   5.228
75082W        W34827  32.917  14.177   3.648
75083W        W34828  25.473  39.313  13.061
75084W        W34829   9.841  19.566   0.799
75085W        W34830  21.528  30.926  13.995
75086W        W34831  43.901  19.065   3.674
75087W        W34832  43.827   6.792   4.280
75088W        W34833  23.492  22.654  13.964
75089W        W34834  25.101   6.837   3.196
75090W        W34835  29.427  21.185  12.848
75091W        W34836   3.816  39.491   2.708
75092W        W34837  21.191  34.463  11.407
75093W        W34838  43.777  28.135  11.508
75094W        W34839  39.397  42.359  12.533
75095W        W34840   9.229  26.964   3.747
75096W        W34841   2.956  35.068  12.386
75097W        W34842  15.160  43.848  12.563
75098W        W34843  34.530  20.153  12.433
75099W        W34844  39.560  21.029  14.413
75100W        W34845  34.500  25.025  13.427
75101W        W34846  11.804  11.747  13.481
75102W        W34847   8.222  30.651   4.669
75103W        W34848  40.377   6.221   1.364
75104W        W34849  38.058  26.662  11.091
75105W        W34850   6.868  13.710  10.589
75106W        W34851   0.872   5.838  13.848
75107W        W34852   2.465  41.902   9.978
75108W        W34853  35.563   1.976  13.474
75109W        W34854  33.587  41.345  13.461
75110W        W34855  43.353  40.886  11.107
75111W        W34856  23.527   7.705  10.937
75112W        W34857   5.411  27.948   4.686
75113W        W34858  26.007   0.752   2.741
75114W        W34859  23.602   3.883  13.401
75115W        W34860  22.618  33.115  12.059
75116W        W34861  34.013  32.056   1.777
75117W        W34862  22.094  32.029  14.875
75118W        W34863  22.596  30.030  12.983
75119W        W34864  34.411   4.311   4.755
75120W        W34865  35.870  10.375   3.641
75121W        W34866   7.686   7.819  14.369
75122W        W34867  27.965  21.050   3.776
75123W        W34868  43.887   5.271  12.401
75124W        W34869   5.812   3.755   2.337
75125W        W34870   1.337  31.623  10.543
75126W        W34871   6.749  30.597  12.389
75127W        W34872  21.213  22.699   4.751
75128W        W34873  42.396  13.801  14.852
75129W        W34874  19.533  29.946  11.976
75130W        W34875  17.616  16.133   2.349
75131W        W34876  31.929   7.749   4.767
75132W        W34877  17.297  34.425   9.615
75133W        W34878  12.311   2.442  12.441
75134W        W34879  19.235  22.073  10.926
75135W        W34880  24.225  25.012  11.442
75136W        W34881   7.261  20.212   4.654
75137W        W34882  36.480  32.897   2.282
75138W        W34883   2.289   7.173   4.815
75139W        W34884  39.465  34.561  12.865
75140W        W34885   8.365  33.604   0.810
75141W        W34886   2.961  35.033  11.607
75142W        W34887  42.508   5.921   0.738
75143W        W34888  36.372   1.909   4.328
75144W        W34889  41.488  24.588  14.996
75145W        W34890   3.809   2.265  10.606
75146W        W34891   9.372  16.159  14.006
75147W        W34892   8.761  34.864  11.543
75148W        W34893   9.841  18.225  10.523
75149W        W34894  26.516  22.530   1.935
75150W        W34895  33.037  12.248  14.795
75151W        W34896  25.215  23.024  13.340
75152W        W34897  18.713  21.081   0.788
75153W        W34898   7.867   1.284  11.583
75154W        W34899   3.795   1.373  14.910
75155W        W34900  16.657  12.837   0.967
75156W        W34901  31.999  11.322  14.764
75157W        W34902  28.126  43.794  12.894
75158W        W34903  36.540  14.731   0.453
75159W        W34904  14.104   7.839  12.945
75160W        W34905  13.671  18.093   3.773
75161W        W34906   3.344  36.947  10.078
75162W        W34907  28.039  10.669   4.772
75163W        W34908  13.265  41.859   3.152
75164W        W34909  34.609  40.017   3.239
75165W        W34910   5.736  38.059   2.835
75166W        W34911  12.244  31.913  13.009
75167W        W34912  44.804  34.529   4.674
75168W        W34913   5.727  28.174   2.790
75169W        W34914  33.390  25.492   1.818
75170W        W34915  11.814   8.884   3.821
75171W        W34916  42.382  12.351   2.233
75172W        W34917  17.111  33.051  11.887
75173W        W34918  42.306  34.388   2.408
75174W        W34919  11.646  42.796   9.948
75175W        W34920  32.582  26.661  13.927
75176W        W34921  39.848   1.841   2.758
75177W        W34922  24.975  24.052  12.980
75178W        W34923  34.115  35.361  13.334
75179W        W34924   4.442  24.095  10.428
75180W        W34925  18.595  16.274   3.252
75181W        W34926  11.638  40.802  11.545
75182W        W34927  15.629  27.172   0.409
75183W        W34928  16.648  17.192   0.757
75184W        W34929  40.359   2.927  12.876
75185W        W34930   0.800  17.124   2.772
75186W        W34931   1.777  16.249  13.836
75187W        W34932  41.855   7.824  10.427
75188W        W34933  15.710   0.975   4.737
75189W        W34934  36.503  11.727  13.997
75190W        W34935  37.967  44.333   0.324
75191W        W34936  18.630  33.510   4.240
75192W        W34937   6.716   0.250  11.061
75193W        W34938  25.198  35.570  10.492
75194W        W34939  12.331  20.181  14.294
75195W        W34940   0.454  17.706   0.262
75196W        W34941  23.040  30.512  12.476
75197W        W34942   9.733  16.171   3.822
75198W        W34943  21.686  11.817   1.380
75199W        W34944  36.847  16.287  11.027
75200W        W34945  13.785   7.242   4.717
75201W        W34946  42.837  26.599  13.471
75202W        W34947  40.365  34.437  12.462
75203W        W34948  39.985  11.151   2.772
75204W        W34949  14.783  15.595   3.346
75205W        W34950   5.853   6.921   4.825
75206W        W34951  17.281  20.725   1.401
75207W        W34952  42.824  12.694   3.646
75208W        W34953  38.011  26.958  12.383
75209W        W34954   3.953   8.690  11.518
75210W        W34955   0.965  33.042  11.860
75211W        W34956  22.539  35.894  10.636
75212W        W34957  36.350  25.542   2.258
75213W        W34958  18.741  11.685   4.601
75214W        W34959  16.203   7.228   3.384
75215W        W34960  17.575  16.579  12.829
75216W        W34961  25.514  41.928   3.791
75217W        W34962  34.997  25.085   2.826
75218W        W34963  32.611  20.534  10.483
75219W        W34964  19.766  28.651   0.783
75220W        W34965  43.357  30.492  12.023
75221W        W34966  37.372  42.995  12.021
75222W        W34967  32.964  25.615   4.146
75223W        W34968   6.882  33.120  10.907
75224W        W34969   5.738  17.655   3.868
75225W        W34970  41.510  23.111  12.945
75226W        W34971   0.390  19.601  11.940
75227W        W34972  28.076  31.970  11.969
75228W        W34973  12.212   5.748  14.863
75229W        W34974  37.950   0.874   0.966
75230W        W34975  17.556  13.724   1.419
75231W        W34976  18.624  24.076  10.575
75232W        W34977  16.193   8.871   3.277
75233W        W34978  40.952   3.235   4.806
75234W        W34979  44.337   1.742   2.843
75235W        W34980  30.606   1.381  10.413
75236W        W34981  37.568  37.971   1.881
75237W        W34982  15.185  17.649  12.092
75238W        W34983  17.647   0.447   0.394
75239W        W34984  25.035   5.801   2.207
75240W        W34985  41.043   8.220   0.245
75241W        W34986  21.593  12.177   2.273
75242W        W34987  37.442  20.177   0.913
75243W        W34988  20.716   9.762   4.627
75244W        W34989  31.507  31.433  11.460
75245W        W34990  31.986  44.919   0.370
75246W        W34991  43.384  34.496  10.081
75247W        W34992  18.185   8.184   0.411
75248W        W34993  32.528  38.916  10.503
75249W        W34994  17.197   6.899  13.964
75250W        W34995   1.413   3.856  13.464
75251W        W34996  44.424  23.575  12.503
75252W        W34997  44.366  28.004   1.369
75253W        W34998  16.203  34.115  12.855
75254W        W34999  19.226  34.591  11.600
75255W        W35000   1.914  19.542  10.161
75256W        W35001  31.408  37.372   1.365
75257W        W35002  24.033  40.028  11.383
75258W        W35003   4.710   1.475   1.719
75259W        W35004  16.811  31.409   3.764
75260W        W35005  28.959  19.687   1.922
75261W        W35006  11.735   2.397   2.757
75262W        W35007  36.493  17.250   2.679
75263W        W35008   6.688  34.487  11.490
75264W        W35009  25.613   9.153   1.448
75265W        W35010   5.409   6.372  11.413
75266W        W35011  34.456   7.754   4.297
75267W        W35012  28.546  26.669   0.354
75268W        W35013  43.958  36.918   4.178
75269W        W35014   3.739  38.526   0.463
75270W        W35015   7.877   8.212   1.788
75271W        W35016  13.261  28.543   3.784
75272W        W35017  43.383  20.766  13.482
75273W        W35018   6.343  17.106  10.000
75274W        W35019   0.789  36.924   4.603
75275W        W35020  39.963  24.677  11.402
75276W        W35021  22.227   8.160   2.226
75277W        W35022   5.777  30.634   1.383
75278W        W35023  11.322  33.956   2.243
75279W        W35024  43.482   3.364   1.223
75280W        W35025   2.246  12.699  11.892
75281W        W35026  30.962   9.262   2.889
75282W        W35027  10.213  44.281   5.218
75283W        W35028  11.309  15.621   3.251
75284W        W35029   5.398  16.666  11.401
75285W        W35030  32.036  41.915  12.845
75286W        W35031  28.658  22.027  10.611
75287W        W35032   4.715   9.296  10.522
75288W        W35033  40.404   3.372  12.515
75289W        W35034  19.773  32.949  10.101
75290W        W35035  17.240  41.844   3.646
75291W        W35036  36.466   2.776   1.236
75292W        W35037  32.904  11.851   2.273
75293W        W35038  10.217   0.820   1.306
75294W        W35039  35.555   4.252  11.082
75295W        W35040  33.887  11.818   4.218
75296W        W35041  14.159  42.387  10.520
75297W        W35042  24.989   9.863  11.091
75298W        W35043   0.820  29.048  14.875
75299W        W35044  31.443  26.562  14.886
75300W        W35045   6.305  43.475  14.778
75301W        W35046  20.714  34.438  13.334
75302W        W35047  17.233  13.725   4.739
75303W        W35048   4.374  23.641   1.777
75304W        W35049  26.997  13.161  12.069
75305W        W35050  34.374  36.501  14.823
75306W        W35051  39.972  34.935  11.121
75307W        W35052   5.377  35.876   3.229
75308W        W35053  26.168  35.075  11.876
75309W        W35054  26.476   9.156  13.912
75310W        W35055  39.977  18.081  11.494
75311W        W35056  14.315  34.612   1.771
75312W        W35057  17.166  25.109   0.839
75313W        W35058  33.939  35.420  14.915
75314W        W35059  30.658   3.322  14.386
75315W        W35060  33.379  24.089  14.812
75316W        W35061  40.413   0.273   0.315
75317W        W35062  27.561  38.517  11.023
75318W        W35063  18.598  18.552   0.829
75319W        W35064  16.570   7.879  11.102
75320W        W35065  33.980  35.089  12.473
75321W        W35066  34.476  25.048   2.700
75322W        W35067  32.998  30.617   1.228
75323W        W35068  34.460  33.098   4.274
75324W        W35069  39.890  25.050   2.879
75325W        W35070  26.479   2.856  10.891
75326W        W35071  44.484  43.815  13.965
75327W        W35072  24.046  23.664  12.875
75328W        W35073  43.325   0.821  13.829
75329W        W35074  31.465  40.479  14.857
75330W        W35075  37.438  13.313  11.393
75331W        W35076   8.233  39.014   1.395
75332W        W35077  12.352   9.800  11.503
75333W        W35078  21.051  10.658  14.761
75334W        W35079   0.946  26.081   4.292
75335W        W35080  31.623  16.709  12.011
75336W        W35081   9.659  24.207  14.339
75337W        W35082  10.146  18.549  11.935
75338W        W35083  27.104  11.648  10.436
75339W        W35084   8.298  43.474  13.884
75340W        W35085  42.491  25.603   1.384
75341W        W35086  19.616  13.751  14.278
75342W        W35087  27.965  33.023  13.416
75343W        W35088  10.716   2.431   4.689
75344W        W35089  32.552  23.172   0.254
75345W        W35090   1.478  36.532  11.601
75346W        W35091   7.335  30.951   3.665
75347W        W35092   3.745  34.531  14.279
75348W        W35093  33.025  17.154   0.897
75349W        W35094  22.627  23.556   3.178
75350W        W35095  15.778  42.003   1.789
75351W        W35096  24.060  26.984   1.320
75352W        W35097  44.396   7.818  12.067
75353W        W35098  41.513   7.765   0.352
75354W        W35099   0.938   8.218  11.879
75355W        W35100  14.768  22.701  12.011
75356W        W35101  23.197  20.665  14.951
75357W        W35102   8.265  27.190   4.829
75358W        W35103   0.407  10.351  14.844
75359W        W35104  33.588  29.662  14.790
75360W        W35105  30.418  32.567   4.660
75361W        W35106  39.495   7.281   3.822
75362W        W35107  32.041   0.902   4.837
75363W        W35108  29.035  30.977   3.635
75364W        W35109   7.208  19.550  11.126
75365W        W35110   7.738   8.677  13.007
75366W        W35111  14.606  19.244   0.330
75367W        W35112   5.302   3.340  11.477
75368W        W35113  43.319  21.090  11.466
75369W        W35114   9.301  17.147   3.859
75370W        W35115   8.329  29.974  14.462
75371W        W35116  27.152  20.042  12.046
75372W        W35117   3.282  22.554   5.139
75373W        W35118  29.029  42.311  10.956
75374W        W35119  43.835  39.926  10.488
75375W        W35120  38.010  24.630  10.632
75376W        W35121  18.077  37.497  14.407
75377W        W35122  40.048  26.104   0.286
75378W        W35123  10.847   9.725  13.897
75379W        W35124  19.224  18.612   0.867
75380W        W35125  35.859  23.619  13.846
75381W        W35126   2.756   6.405   0.475
75382W        W35127  26.967   4.769  10.584
75383W        W35128  14.188  39.944   9.939
75384W        W35129  12.228  42.885  12.408
75385W        W35130  31.458   0.788   3.826
75386W        W35131  40.976  35.455  11.380
75387W        W35132  26.161  44.938  14.916
75388W        W35133  30.510  10.223   2.230
75389W        W35134   3.934  21.222   1.284
75390W        W35135  23.220  19.574   1.332
75391W        W35136  15.720   3.350  14.472
75392W        W35137  25.580  35.989   9.994
75393W        W35138  37.061  33.891  11.610
75394W        W35139  17.560  44.266   0.798
75395W        W35140  26.128  37.498  14.967
75396W        W35141  20.175  23.601   4.605
75397W        W35142  26.691  43.788   0.371
75398W        W35143  43.484  16.163  12.373
75399W        W35144  32.893  25.184  12.451
75400W        W35145  18.673  34.029   3.829
75401W        W35146   4.330  39.375   3.752
75402W        W35147  28.945  16.589  11.856
75403W        W35148  28.080  25.644   1.429
75404W        W35149   2.738   9.716   0.260
75405W        W35150   8.662  22.101  12.516
75406W        W35151  22.053  23.051   4.174
75407W        W35152  12.221  37.944   1.439
75408W        W35153   2.404  35.955   1.414
75409W        W35154  12.220   0.809   1.217
75410W        W35155  19.195   0.792   0.258
75411W        W35156  38.470  32.429   2.207
75412W        W35157  43.387  18.673   2.184
75413W        W35158  31.599   1.306   5.167
75414W        W35159  28.529  31.016  14.391
75415W        W35160  17.293   3.454   3.182
75416W        W35161  32.922   2.904  14.434
75417W        W35162  17.634  29.623  10.478
75418W        W35163  22.547  39.368  12.480
75419W        W35164  28.475  14.774   0.828
75420W        W35165   3.359  22.019  13.482
75421W        W35166  34.566  37.935  12.562
75422W        W35167   7.839  35.461  14.998
75423W        W35168  17.564  11.264   3.202
75424W        W35169  43.830  10.169  13.820
75425W        W35170  43.511  39.481  12.912
75426W        W35171  33.401  26.032  14.941
75427W        W35172  13.163  32.966  12.910
75428W        W35173  24.991  31.038   5.778
75429W        W35174  40.001  24.060   1.778
75430W        W35175  38.443  41.428   0.330
75431W        W35176  44.342  42.444  13.944
75432W        W35177  10.260   0.436  14.825
75433W        W35178  20.102  43.907  13.427
75434W        W35179  43.485   4.809   0.734
75435W        W35180  25.190   9.682  11.410
75436W        W35181  44.284  43.418  11.965
75437W        W35182  22.140   8.849   4.272
75438W        W35183  10.820  18.711  13.014
75439W        W35184  31.616  30.460   1.373
75440W        W35185  43.322  37.081   3.261
75441W        W35186   8.841   7.381   1.920
75442W        W35187  43.465  44.904  10.999
75443W        W35188  30.075  42.493  14.434
75444W        W35189  43.869  43.888  12.948
75445W        W35190   6.891   5.804  10.898
75446W        W35191  13.702  29.474   2.724
75447W        W35192  40.002  14.110   2.870
75448W        W35193  41.857  26.527   0.824
75449W        W35194  24.660  20.268  11.604
75450W        W35195  18.165  31.902   2.764
75451W        W35196  12.641   1.438  12.954
75452W        W35197  13.747  23.078  14.804
75453W        W35198  36.372  44.401   3.265
75454W        W35199   9.325  36.946   3.189
75455W        W35200  10.762  37.413  10.556
75456W        W35201  14.097  11.789   4.194
75457W        W35202  29.020  28.475   5.802
75458W        W35203   0.799  20.661  12.408
75459W        W35204   6.916  15.779  13.525
75460W        W35205   3.742  44.339   2.186
75461W        W35206  37.935  41.418  12.096
75462W        W35207  12.735   7.392   1.698
75463W        W35208  28.179   0.441  10.429
75464W        W35209   9.359  25.149   0.891
75465W        W35210  37.565  29.462   4.751
75466W        W35211   3.876  35.050  11.017
75467W        W35212   7.707  37.470   9.968
75468W        W35213  28.165  23.521  12.034
75469W        W35214  41.828  43.015  12.982
75470W        W35215  20.688  27.521  12.451
75471W        W35216  24.119  28.082   3.372
75472W        W35217  38.914  22.197  11.071
75473W        W35218  28.072   7.342  12.538
75474W        W35219  30.509  31.475   9.521
75475W        W35220  27.102   1.940   1.308
75476W        W35221   8.405  16.636  13.058
75477W        W35222  40.907  34.386   0.281
75478W        W35223  31.517  19.120  12.548
75479W        W35224  37.985  32.485  11.445
75480W        W35225  40.008   5.813   1.443
75481W        W35226   4.340  31.903  14.911
75482W        W35227  24.155  37.020   3.848
75483W        W35228  39.379   9.865   4.140
75484W        W35229   1.352  21.621  14.284
75485W        W35230  10.195  27.530  10.024
75486W        W35231   9.180  40.972   2.844
75487W        W35232  36.057   0.466  11.514
75488W        W35233  26.035  40.811   0.872
75489W        W35234  15.149   2.861  12.435
75490W        W35235  15.121  43.829   1.902
75491W        W35236  30.500   1.469   3.659
75492W        W35237  26.033   8.406  11.034
75493W        W35238  13.628  12.855  13.426
75494W        W35239  23.632   1.909   2.237
75495W        W35240  41.369  30.451  10.915
75496W        W35241  32.396  23.702   4.779
75497W        W35242  19.584  17.234   4.755
75498W        W35243  17.671  37.492  14.900
75499W        W35244  18.132  31.010  12.973
75500W        W35245  10.254  12.809  10.481
75501W        W35246  28.466  14.638  14.459
75502W        W35247  28.640   8.365   4.765
75503W        W35248  33.926  34.028   0.339
75504W        W35249  25.681   1.756  14.402
75505W        W35250   0.765  24.039  14.921
75506W        W35251  14.748  10.269  12.391
75507W        W35252   4.271   0.856   1.842
75508W        W35253  12.253  15.258  13.861
75509W        W35254  38.388   7.852   1.815
75510W        W35255  14.647  26.062   2.710
75511W        W35256   7.417  43.357   1.378
75512W        W35257   2.465  13.322   0.899
75513W        W35258  22.542  42.937  10.627
75514W        W35259   1.344  21.527   3.261
75515W        W35260  29.932   3.450   4.258
75516W        W35261  16.087   7.318   0.422
75517W        W35262   5.392   8.657   4.827
75518W        W35263  35.432  14.323  11.533
75519W        W35264  26.951  26.610   4.211
75520W        W35265  11.278  43.465  12.442
75521W        W35266  11.795   6.818  12.412
75522W        W35267  30.587   1.301  13.538
75523W        W35268   5.890  22.202   2.294
75524W        W35269  35.587   0.368  14.018
75525W        W35270  36.879  39.417  11.376
75526W        W35271  19.041  43.318   1.782
75527W        W35272  38.892  35.506  10.118
75528W        W35273  12.624  37.372  13.979
75529W        W35274  34.111  18.082   3.295
75530W        W35275  30.970  14.323  13.062
75531W        W35276  42.983  40.014  14.477
75532W        W35277  28.668   7.707   3.247
75533W        W35278  20.724  13.120   3.755
75534W        W35279   2.914  11.185   4.831
75535W        W35280   8.314  14.179  14.510
75536W        W35281  22.747   8.325   3.630
75537W        W35282  38.069   5.437   3.198
75538W        W35283  10.189  40.371   4.741
75539W        W35284  29.559  37.463   4.270
75540W        W35285   8.782  20.731   3.217
75541W        W35286  12.295  31.992   4.195
75542W        W35287  20.539  43.890  12.088
75543W        W35288   0.951  26.146  10.410
75544W        W35289   4.207  17.136   1.226
75545W        W35290  36.876  15.085  10.518
75546W        W35291  27.516  37.356   1.272
75547W        W35292  40.991  13.633  11.491
75548W        W35293   4.314  44.910   1.835
75549W        W35294  14.723  44.433  13.369
75550W        W35295  22.644  24.618   1.702
75551W        W35296   8.871  21.108  11.520
75552W        W35297   7.196  43.375  11.968
75553W        W35298   7.215   8.314  12.451
75554W        W35299  21.035   3.443   1.896
75555W        W35300  35.983  44.999   4.607
75556W        W35301  11.742  40.984   4.150
75557W        W35302  24.688  16.087   0.794
75558W        W35303  40.840   8.669  10.976
75559W        W35304  30.041  30.063   2.304
75560W        W35305  21.714  10.793  13.813
75561W        W35306  36.438  28.596  14.393
75562W        W35307  15.748  43.277   9.972
75563W        W35308  17.618  14.728   4.645
75564W        W35309  13.177   9.838  11.401
75565W        W35310  21.065  27.470   3.200
75566W        W35311   2.914   8.405   0.842
75567W        W35312   4.752  14.327   3.193
75568W        W35313  18.745  29.493   1.336
75569W        W35314  27.502   2.934   4.242
75570W        W35315  42.418  34.572  14.959
75571W        W35316   5.196  19.615   5.214
75572W        W35317   0.298   8.196   0.413
75573W        W35318  30.521   3.250  12.077
75574W        W35319   6.821  25.055  10.913
75575W        W35320  36.962   0.482   1.928
75576W        W35321  35.881   4.218  12.520
75577W        W35322   9.682   1.905   1.850
75578W        W35323  35.486  14.184  12.367
75579W        W35324  29.603  14.773  12.528
75580W        W35325   7.906  40.406   3.734
75581W        W35326  20.153  42.283  11.576
75582W        W35327   7.742  44.974   0.844
75583W        W35328  40.547  33.036   1.813
75584W        W35329  22.191  37.948   3.679
75585W        W35330  36.000  14.194  13.431
75586W        W35331   2.858  17.277   2.257
75587W        W35332  26.661   6.693  11.905
75588W        W35333  38.548   2.296  10.491
75589W        W35334  11.801  38.375   4.806
75590W        W35335   9.223   2.947  13.858
75591W        W35336  19.191  31.603  13.421
75592W        W35337  28.576   3.831  14.766
75593W        W35338   9.647   6.920   0.750
75594W        W35339  42.850  32.553  13.974
75595W        W35340  34.959  42.467  11.400
75596W        W35341  18.600   1.789  11.409
75597W        W35342  13.730  39.544  11.537
75598W        W35343  20.067   4.758  12.841
75599W        W35344  38.006  20.272   0.816
75600W        W35345  30.653  23.587  12.924
75601W        W35346  21.666  31.478   3.662
75602W        W35347   3.901  42.951  12.934
75603W        W35348  13.212  44.929  10.601
75604W        W35349  10.829  12.227  11.382
75605W        W35350  14.674  28.650  11.558
75606W        W35351   5.318  25.209   2.319
75607W        W35352  36.560  28.554   3.309
75608W        W35353  10.636  42.284   3.242
75609W        W35354  22.052  12.848  12.853
75610W        W35355  33.468  44.960  12.559
75611W        W35356  36.048  28.011  11.584
75612W        W35357  43.889  28.614   5.257
75613W        W35358  41.524  44.905   1.218
75614W        W35359  42.452  35.012  10.607
75615W        W35360  13.265  22.043   3.205
75616W        W35361  39.503   6.787  14.476
75617W        W35362  14.111  44.882  14.468
75618W        W35363  22.210  28.053  10.477
75619W        W35364   6.255  34.094   4.300
75620W        W35365  19.134  37.994  14.309
75621W        W35366  19.609   3.359  13.515
75622W        W35367  29.960  14.663   1.353
75623W        W35368  34.978   6.854  13.911
75624W        W35369  30.966  25.027  14.910
75625W        W35370  16.293  33.978   2.247
75626W        W35371  28.114   3.871  14.840
75627W        W35372  17.288   6.245   2.705
75628W        W35373  12.683  16.749   4.707
75629W        W35374  42.880  43.385   3.304
75630W        W35375  30.453  18.263  13.024
75631W        W35376  20.728  17.156  10.557
75632W        W35377  16.167  24.569  10.609
75633W        W35378  25.626  38.832  11.099
75634W        W35379  29.578   5.397   2.350
75635W        W35380  18.561  16.761   0.819
75636W        W35381   6.224  21.724  12.959
75637W        W35382   1.735  21.552  14.412
75638W        W35383   3.427  34.468  11.029
75639W        W35384  30.927   9.152  11.009
75640W        W35385  16.638   9.299   2.675
75641W        W35386  38.496   9.785   3.348
75642W        W35387   0.765  34.439  13.808
75643W        W35388  36.869  40.525   4.820
75644W        W35389  36.533   0.435   1.243
75645W        W35390  16.130   8.792   1.389
75646W        W35391  43.453  35.408  11.859
75647W        W35392   5.215   0.321  13.471
75648W        W35393  32.521  10.366   3.848
75649W        W35394  24.047  13.351   3.787
75650W        W35395  37.998   1.944   1.759
75651W        W35396  42.379  29.152   2.411
75652W        W35397  39.911  34.441  14.832
75653W        W35398  10.869  27.196  11.388
75654W        W35399  36.406  44.364  10.641
75655W        W35400  24.065  12.162   3.300
75656W        W35401   8.696  29.097   3.869
75657W        W35402  12.189   5.908   3.787
75658W        W35403  35.415  42.897  11.000
75659W        W35404   0.377   3.430  10.484
75660W        W35405  40.426  34.973   4.605
75661W        W35406  16.235  18.584   4.807
75662W        W35407  19.673  21.186  14.498
75663W        W35408   1.384   6.882   0.862
75664W        W35409  36.497   2.444  12.541
75665W        W35410   5.419   0.277   2.676
75666W        W35411  44.882  32.429  14.992
75667W        W35412   9.761   4.862   3.661
75668W        W35413  34.056  16.303  14.371
75669W        W35414   1.901   3.257  11.435
75670W        W35415  31.073  13.220  13.836
75671W        W35416  28.002  28.153   4.769
75672W        W35417  29.160   3.821   3.291
75673W        W35418  12.344  34.890   1.319
75674W        W35419  40.987   8.304   4.656
75675W        W35420  13.153  42.844  11.954
75676W        W35421   7.223  33.384  10.962
75677W        W35422  32.954  11.718   1.721
75678W        W35423  25.041  16.728   2.397
75679W        W35424  44.959  40.474   4.126
75680W        W35425  21.240  10.854  11.981
75681W        W35426  41.322  36.861  13.858
75682W        W35427  32.566  13.641  10.551
75683W        W35428  31.644  20.225   0.381
75684W        W35429  29.156  44.972   2.247
75685W        W35430  23.176  38.384  12.048
75686W        W35431  32.498  32.505  10.900
75687W        W35432  38.868  32.391  13.985
75688W        W35433  29.660  41.896   2.303
75689W        W35434  42.437   9.269   2.233
75690W        W35435   4.257  35.949  12.871
75691W        W35436  15.618  15.738   1.324
75692W        W35437  11.786  17.645   1.919
75693W        W35438   8.732  17.722   2.665
75694W        W35439  10.346  18.112  14.822
75695W        W35440  28.942   0.461  12.836
75696W        W35441   9.833   5.341  10.913
75697W        W35442  17.763  41.943   0.387
75698W        W35443   2.723  16.651  12.423
75699W        W35444  15.577   9.228  12.389
75700W        W35445  22.112  39.464   1.288
75701W        W35446  19.140  23.024   4.130
75702W        W35447   3.245   4.843   4.670
75703W        W35448  35.439  26.122  11.049
75704W        W35449  25.210   0.936  10.623
75705W        W35450  37.900  30.651  10.111
75706W        W35451  17.293  25.615  12.362
75707W        W35452  23.550   8.824   1.843
75708W        W35453  16.720  15.171   1.446
75709W        W35454  13.292  37.569  12.405
75710W        W35455  24.690  35.443   9.945
75711W        W35456  26.017  40.049   3.639
75712W        W35457  10.381  41.359   3.807
75713W        W35458  20.536  37.056   2.213
75714W        W35459  19.770  19.098  13.377
75715W        W35460  20.715  27.985   2.323
75716W        W35461  35.529  10.816  14.803
75717W        W35462  17.307  40.938  14.415
75718W        W35463  34.008  25.180  13.973
75719W        W35464  41.355  23.205  10.622
75720W        W35465  18.693  30.448  12.828
75721W        W35466  20.636  41.923  11.904
75722W        W35467  20.223  27.485   2.326
75723W        W35468   9.777   3.940  12.532
75724W        W35469  24.719  22.716  14.973
75725W        W35470  11.220  42.962   3.341
75726W        W35471  43.294  32.496   3.718
75727W        W35472  20.220   9.270   3.684
75728W        W35473  38.958  32.584  11.867
75729W        W35474  15.094  25.467   2.319
75730W        W35475  23.599  27.942   1.268
75731W        W35476  27.080  27.024  11.864
75732W        W35477  20.219   0.459  10.898
75733W        W35478  38.956   4.769  13.399
75734W        W35479  23.150  26.071   1.263
75735W        W35480  29.624  41.302   0.760
75736W        W35481   3.418  21.120   0.311
75737W        W35482  38.494   1.864  13.015
75738W        W35483   3.429  34.945  12.492
75739W        W35484   2.779   0.302   0.728
75740W        W35485   6.188  42.367  11.407
75741W        W35486  14.827   5.892   3.146
75742W        W35487  18.640  30.079   2.338
75743W        W35488   1.778  20.726   9.491
75744W        W35489   6.388  32.083  12.845
75745W        W35490  40.966  29.483   1.706
75746W        W35491  40.483  24.189   1.886
75747W        W35492  30.994   9.291   3.157
75748W        W35493  14.296   3.296   1.722
75749W        W35494  27.972  15.676  13.480
75750W        W35495  37.846  23.985  10.974
75751W        W35496   7.203  21.698  12.853
75752W        W35497  37.401  43.887  13.535
75753W        W35498   8.817   3.919   4.120
75754W        W35499  30.510   4.820  11.934
75755W        W35500   2.939  20.163   4.207
75756W        W35501  18.564   2.227  11.112
75757W        W35502  34.521   2.842  14.341
75758W        W35503  16.123  41.894  13.358
75759W        W35504  42.847  35.490  11.543
75760W        W35505  43.808  27.091  13.377
75761W        W35506  33.040  18.644  12.515
75762W        W35507  39.470  19.043   0.296
75763W        W35508  18.651  44.287   1.268
75764W        W35509   4.886  25.545   3.833
75765W        W35510  25.592  30.542  13.382
75766W        W35511   1.890  21.258   5.148
75767W        W35512  16.203  31.085  14.463
75768W        W35513  30.446  17.185   3.795
75769W        W35514  19.169  39.032   1.225
75770W        W35515  43.950  22.017   2.345
75771W        W35516  12.805  32.470  12.354
75772W        W35517  31.560   8.371   2.869
75773W        W35518  29.463   7.727   3.366
75774W        W35519  27.006  14.772  13.015
75775W        W35520   5.876  37.569   1.286
75776W        W35521  20.077  19.640  14.863
75777W        W35522  19.560  27.550   2.271
75778W        W35523  35.984  34.934  13.000
75779W        W35524  13.722  30.972   4.740
75780W        W35525  34.981  37.997   0.782
75781W        W35526  17.287   3.268   0.450
75782W        W35527  34.107  17.778  14.982
75783W        W35528  43.343  19.582  12.928
75784W        W35529  16.109   4.327   4.256
75785W        W35530  16.288  18.577  10.470
75786W        W35531  13.303  44.830  11.122
75787W        W35532   8.309  42.792   0.736
75788W        W35533  37.381  32.590   3.662
75789W        W35534   1.343  31.046   4.338
75790W        W35535  30.015  39.044  10.564
75791W        W35536   2.949   3.422  11.049
75792W        W35537  42.449  18.654   4.232
75793W        W35538  34.437  19.582  14.847
75794W        W35539  38.914  16.238   4.125
75795W        W35540  31.997  23.157   1.452
75796W        W35541  12.176   6.300   0.745
75797W        W35542   4.307  27.961   0.880
75798W        W35543  33.502  18.157   4.346
75799W        W35544  42.947   4.205   1.858
75800W        W35545  27.625  37.366  12.518
75801W        W35546  42.402   8.321   4.271
75802W        W35547  34.032   8.877   0.258
75803W        W35548   3.391  15.122   0.805
75804W        W35549  13.221   9.821  12.510
75805W        W35550   6.216  16.259  14.792
75806W        W35551   7.687  23.143   3.347
75807W        W35552  27.592  21.686  11.570
75808W        W35553  20.554  11.255  14.319
75809W        W35554  33.036  33.560  14.869
75810W        W35555  43.492  31.098  10.474
75811W        W35556   9.687  26.095  14.513
75812W        W35557  21.525  26.591  13.044
75813W        W35558  40.436  14.168  12.977
75814W        W35559   9.176  15.816  11.508
75815W        W35560  10.738  23.093   1.895
75816W        W35561  31.091  36.055  10.903
75817W        W35562  18.672  38.034  13.912
75818W        W35563  33.089  24.526  12.841
75819W        W35564  12.170  42.371  14.961
75820W        W35565  14.689   3.360  10.411
75821W        W35566  34.565  28.535  13.402
75822W        W35567   0.871  31.475   5.113
75823W        W35568   4.214  10.174  11.938
75824W        W35569  11.704  23.546   4.150
75825W        W35570  44.390  40.513  12.441
75826W        W35571  34.478  41.853   4.238
75827W        W35572  19.166  38.354   2.732
75828W        W35573  28.556  35.503   2.287
75829W        W35574  16.269  18.762   4.248
75830W        W35575  35.003   2.234   2.178
75831W        W35576  17.088  25.187  11.486
75832W        W35577  23.693  17.598   0.274
75833W        W35578  27.126  39.055   4.692
75834W        W35579  27.053   9.794  11.031
75835W        W35580   8.787   0.797  13.517
75836W        W35581  41.469  39.892   1.888
75837W        W35582   1.807   6.827   1.934
75838W        W35583   1.311  14.637   0.798
75839W        W35584   1.943   7.250   2.733
75840W        W35585  33.013  18.686  11.402
75841W        W35586  29.634  41.421  12.931
75842W        W35587  17.592   4.822   1.710
75843W        W35588  26.566   9.350  11.558
75844W        W35589  33.951  19.758   1.925
75845W        W35590   9.733  38.534   0.448
75846W        W35591   0.338  24.072   2.869
75847W        W35592  36.491   8.208  11.451
75848W        W35593  19.737  31.053   2.778
75849W        W35594  44.316  32.076  14.821
75850W        W35595  22.540  38.463   0.274
75851W        W35596   3.946   6.242   0.960
75852W        W35597  18.234  35.854   2.240
75853W        W35598  33.412   2.879   4.702
75854W        W35599  36.983  41.871  14.765
75855W        W35600   2.826   0.389  12.432
75856W        W35601  43.486  42.862   4.130
75857W        W35602   8.344   2.792  12.447
75858W        W35603  39.539  38.064   0.323
75859W        W35604  33.957  27.505  14.406
75860W        W35605  31.036  41.038  11.888
75861W        W35606   8.834  31.019   4.120
75862W        W35607  12.343  36.394  12.449
75863W        W35608  24.500  29.569   0.306
75864W        W35609  17.130  26.703   2.665
75865W        W35610  30.934   2.449  10.473
75866W        W35611  30.008  38.543  10.532
75867W        W35612  20.680  29.029  11.985
75868W        W35613  37.915  19.245   4.791
75869W        W35614  25.170  24.704   1.928
75870W        W35615  19.599   2.752   0.472
75871W        W35616  18.257  22.625  13.002
75872W        W35617  20.594  20.685   3.314
75873W        W35618  33.527   1.241  14.006
75874W        W35619   1.432  26.047   5.128
75875W        W35620   1.929  21.262   4.310
75876W        W35621  31.638  25.054  14.334
75877W        W35622  44.898  21.221   4.198
75878W        W35623   6.359  34.501   4.283
75879W        W35624  15.650  21.536   0.915
75880W        W35625  15.317  31.489  14.854
75881W        W35626  27.627   0.787  12.541
75882W        W35627  11.167  36.414   1.333
75883W        W35628  29.175  12.828  13.953
75884W        W35629  27.164  20.036  13.462
75885W        W35630   7.208  12.249  14.391
75886W        W35631  23.013  16.176   0.948
75887W        W35632  14.729  39.552  13.323
75888W        W35633   6.323  35.979   3.700
75889W        W35634  17.684  14.736   2.266
75890W        W35635   9.856  33.985  12.825
75891W        W35636   2.883   9.834  10.585
75892W        W35637  32.087  42.366  11.989
75893W        W35638  33.529   8.315  12.373
75894W        W35639  28.449  44.819  12.826
75895W        W35640  26.665  13.634   4.288
75896W        W35641  29.142   9.715  14.809
75897W        W35642  14.253  26.137  13.475
75898W        W35643  35.041  40.914  13.424
75899W        W35644   7.176  17.794  12.893
75900W        W35645  18.748  12.357   4.289
75901W        W35646  44.968  42.998   3.799
75902W        W35647  25.540  32.500  11.498
75903W        W35648  35.853   3.915   2.292
75904W        W35649  26.672  36.363   4.145
75905W        W35650   0.365  36.078   4.337
75906W        W35651  36.013  17.575  14.403
75907W        W35652   0.489  18.766  13.519
75908W        W35653  15.275   9.644   2.361
75909W        W35654  10.844  36.399   0.425
75910W        W35655  28.510  27.450  11.069
75911W        W35656  30.909   6.282   3.805
75912W        W35657  10.809  37.990   4.141
75913W        W35658  20.748  36.912  10.913
75914W        W35659  39.016  21.210   1.272
75915W        W35660  25.634  44.829   4.728
75916W        W35661  42.823  17.704  14.455
75917W        W35662   4.216   7.672   3.858
75918W        W35663   1.894  14.735  13.910
75919W        W35664  41.474  11.348  11.473
75920W        W35665  22.585  17.612   3.283
75921W        W35666  38.356  27.678   0.946
75922W        W35667  24.190  26.666  13.390
75923W        W35668  34.500  11.707  14.029
75924W        W35669   7.792   5.714  13.055
75925W        W35670  19.190   0.444  12.956
75926W        W35671   0.776  16.787  11.544
75927W        W35672  29.173   2.742  13.334
75928W        W35673  35.853  12.658  14.795
75929W        W35674  35.554  11.369   4.665
75930W        W35675  31.056  14.320  10.110
75931W        W35676  32.120   0.761  12.060
75932W        W35677  15.112  11.141  13.513
75933W        W35678   7.376  28.620  14.798
75934W        W35679  32.994   1.366  11.003
75935W        W35680  33.885  24.133  12.055
75936W        W35681   4.428   9.676  14.511
75937W        W35682  40.495  17.204  10.160
75938W        W35683  23.606  16.232   5.652
75939W        W35684  39.439  39.417  12.890
75940W        W35685   6.300  40.838  10.428
75941W        W35686   4.441   3.320  10.435
75942W        W35687  10.801  37.532  12.048
75943W        W35688  30.915  25.497   4.699
75944W        W35689  30.154  16.280  14.915
75945W        W35690  35.051  34.889   5.094
75946W        W35691  39.947  37.864   2.389
75947W        W35692  35.994  38.485   4.215
75948W        W35693  20.137  12.769   0.906
75949W        W35694  36.556  40.863   4.161
75950W        W35695  13.762  30.453  12.062
75951W        W35696   6.307  41.836  14.831
75952W        W35697  23.494   5.385  10.579
75953W        W35698  34.422  16.615   2.862
75954W        W35699  23.129   8.757   4.330
75955W        W35700  44.007  30.636  10.996
75956W        W35701  15.700  43.361  10.407
75957W        W35702  38.393  29.028  12.428
75958W        W35703  21.196  34.070  13.394
75959W        W35704  36.095  19.124  12.024
75960W        W35705  15.298  35.920  11.859
75961W        W35706  33.606   0.341  13.867
75962W        W35707  30.629  20.264   2.788
75963W        W35708   7.372  29.918  11.925
75964W        W35709  23.170   7.214   2.225
75965W        W35710  31.439  40.354  13.800
75966W        W35711  26.494  43.786  10.156
75967W        W35712   8.286   0.353   1.819
75968W        W35713   4.725   3.762  12.373
75969W        W35714  40.396  38.003   2.206
75970W        W35715  19.652   3.723  13.906
75971W        W35716  26.148  25.633   4.200
75972W        W35717  31.591  29.629  12.545
75973W        W35718  29.573  27.676  11.596
75974W        W35719  19.229  40.915   3.652
75975W        W35720  29.023   4.386   4.636
75976W        W35721  30.574  38.470  12.844
75977W        W35722  29.562  17.607  14.799
75978W        W35723  21.198  18.759   4.236
75979W        W35724   1.298  14.260  12.443
75980W        W35725  28.518   7.681   2.188
75981W        W35726  28.612  42.486   3.790
75982W        W35727   9.377   9.818   2.673
75983W        W35728  37.938  13.345   2.247
75984W        W35729   0.985  28.154   9.989
75985W        W35730  32.577   2.865  12.935
75986W        W35731  39.839  30.654   3.209
75987W        W35732  41.490  31.064   3.341
75988W        W35733  10.221  16.193   3.242
75989W        W35734  39.463  21.518   1.439
75990W        W35735  18.117  16.701   0.844
75991W        W35736  10.753  43.310   0.474
75992W        W35737  39.023  30.478  13.331
75993W        W35738  42.510  13.719  12.474
75994W        W35739   9.381  29.627  14.428
75995W        W35740  27.492  23.133   2.856
75996W        W35741  29.130  36.021  13.850
75997W        W35742  19.124   6.794   0.877
75998W        W35743  26.009   8.316   2.866
75999W        W35744  13.633  14.641  10.632
76000W        W35745  32.536   7.184   0.815
76001W        W35746   4.348  20.089  13.524
76002W        W35747  34.444   5.789   3.693
76003W        W35748   0.338  16.093   4.183
76004W        W35749  18.217  32.431  10.969
76005W        W35750  14.649  39.981   3.154
76006W        W35751   7.389  27.044   1.235
76007W        W35752  14.741  37.412   0.769
76008W        W35753  11.165  33.877   0.334
76009W        W35754  13.740   4.927   3.640
76010W        W35755  15.100  20.668   0.430
76011W        W35756  27.451  31.064  13.398
76012W        W35757   9.159  39.998   0.330
76013W        W35758  13.276  44.978  11.526
76014W        W35759  44.910  12.625  14.425
76015W        W35760   4.919  26.514  14.889
76016W        W35761  42.864   7.666   0.285
76017W        W35762  43.304  37.044  11.576
76018W        W35763  39.413  21.044  13.372
76019W        W35764  33.604  33.963   4.222
76020W        W35765  25.706   7.334  10.593
76021W        W35766  12.309  14.335   1.229
76022W        W35767  18.697   7.678  13.982
76023W        W35768  31.124  20.581  11.379
76024W        W35769  12.127   1.952  13.488
76025W        W35770  23.533  32.622   1.890
76026W        W35771  44.396  26.141   1.290
76027W        W35772  20.582  42.299   0.446
76028W        W35773   8.826  21.133   1.433
76029W        W35774  44.791  31.043  12.898
76030W        W35775  34.968   1.814  11.550
76031W        W35776  43.892  38.008  11.969
76032W        W35777   1.479  24.123  12.956
76033W        W35778   4.412  13.192   1.413
76034W        W35779   8.765  33.434  10.637
76035W        W35780   2.287  23.633   2.325
76036W        W35781  11.169   0.490  14.502
76037W        W35782  13.347   2.360   2.384
76038W        W35783  12.848  14.206  12.399
76039W        W35784  20.136  28.049   0.772
76040W        W35785  25.576   3.764   3.816
76041W        W35786   8.816  29.956   0.483
76042W        W35787  33.420  36.045   2.776
76043W        W35788  42.876  38.435   3.784
76044W        W35789  16.266   6.386   0.394
76045W        W35790  23.637  33.571  10.991
76046W        W35791   5.836  35.950  11.459
76047W        W35792   8.226   8.278  13.863
76048W        W35793   0.766  33.025  11.537
76049W        W35794  25.057  34.518  13.983
76050W        W35795  26.083  25.196  11.954
76051W        W35796   7.793  20.230  11.557
76052W        W35797  31.928   9.689  12.551
76053W        W35798  30.520  15.800   4.287
76054W        W35799  22.608  32.605   0.869
76055W        W35800  41.957  30.523  14.783
76056W        W35801  19.673   1.429   1.811
76057W        W35802  17.301  12.275   2.312
76058W        W35803  14.103   4.373   3.669
76059W        W35804   8.233   2.934   1.332
76060W        W35805   9.174  11.682  10.407
76061W        W35806  39.904  28.130   2.369
76062W        W35807   6.232   8.879  13.531
76063W        W35808   6.823  11.638  14.379
76064W        W35809   8.231   6.840   0.449
76065W        W35810  28.934  33.976  14.327
76066W        W35811   2.306  33.876   2.322
76067W        W35812  44.270  23.649  13.332
76068W        W35813   7.265   6.218   3.716
76069W        W35814  31.418  24.992  12.871
76070W        W35815   9.845  30.984  11.121
76071W        W35816   7.821  24.144   1.705
76072W        W35817  34.474  11.646   1.700
76073W        W35818  25.015   1.818  11.024
76074W        W35819  42.301  11.660   0.465
76075W        W35820  29.580  32.983  14.446
76076W        W35821  43.843   0.931   2.747
76077W        W35822   1.278  15.083  10.070
76078W        W35823  42.005   6.404  11.511
76079W        W35824  22.726  28.047   3.327
76080W        W35825   6.364   0.852  11.516
76081W        W35826  25.562  27.634   2.355
76082W        W35827   6.393   4.870   3.170
76083W        W35828  30.647   7.694   2.744
76084W        W35829  39.351  35.004  13.341
76085W        W35830   2.470  26.670  13.805
76086W        W35831   2.341  28.104   3.724
76087W        W35832  17.783  17.579   0.364
76088W        W35833  27.640  43.890  10.413
76089W        W35834  39.863  11.702  11.941
76090W        W35835  21.693  24.146  10.082
76091W        W35836  19.065  40.384  12.364
76092W        W35837  28.531  30.974  11.978
76093W        W35838  25.070  11.853   3.852
76094W        W35839  17.669  33.960   4.219
76095W        W35840  20.172  38.884  13.319
76096W        W35841  13.166  26.003   3.689
76097W        W35842  29.659  27.156   3.731
76098W        W35843  31.506  12.214   0.871
76099W        W35844   7.809  19.276   3.630
76100W        W35845  41.032  33.380  11.462
76101W        W35846  36.401  16.616  12.561
76102W        W35847   7.409   1.418   2.789
76103NA+    NA+35848  21.069   2.335  13.844
76104NA+    NA+35849  24.993  30.470   1.883
76105NA+    NA+35850  37.431  28.003  13.848
76106NA+    NA+35851  40.937  24.028  12.826
76107NA+    NA+35852  40.948  31.574  12.513
76108NA+    NA+35853  25.000  42.027   5.094
76109NA+    NA+35854  18.224  42.790   1.923
76110NA+    NA+35855  29.996  33.037  10.405
76111NA+    NA+35856  34.911  35.991   4.634
76112NA+    NA+35857  33.876  31.403   5.661
76113NA+    NA+35858  29.555  15.245   2.809
76114NA+    NA+35859  23.735  34.485   2.713
76115NA+    NA+35860  34.522  11.334   3.651
76116NA+    NA+35861   9.859  13.696  13.508
76117NA+    NA+35862  37.368  38.557  11.038
76118NA+    NA+35863   3.379  36.364   0.255
76119NA+    NA+35864  37.418  39.317   3.158
76120NA+    NA+35865   1.734   6.209   1.376
76121NA+    NA+35866  38.378  37.963  12.427
76122NA+    NA+35867  39.459   3.255  12.005
76123NA+    NA+35868  23.031  12.712  12.506
76124NA+    NA+35869  33.003  26.155   2.397
76125NA+    NA+35870  41.327  26.085  12.085
76126NA+    NA+35871  19.250   0.262  14.946
76127NA+    NA+35872   2.277  40.304   9.940
76128NA+    NA+35873  13.331  30.432  13.967
76129NA+    NA+35874  36.381  18.729  11.547
76130NA+    NA+35875  28.136  42.909   5.130
76131NA+    NA+35876   6.224  26.029   3.738
76132NA+    NA+35877   3.898   6.868  14.305
76133NA+    NA+35878   8.888   1.465  12.932
76134NA+    NA+35879  32.621   6.830  11.096
76135NA+    NA+35880  38.871  30.920  11.923
76136NA+    NA+35881   8.712  34.605   4.608
76137NA+    NA+35882  42.307  12.694  11.445
76138NA+    NA+35883   8.718  30.039  11.562
76139NA+    NA+35884  22.038   9.165   0.826
76140NA+    NA+35885  32.555  30.022   3.297
76141NA+    NA+35886   6.384  32.084   1.262
76142NA+    NA+35887  16.692  36.005   2.300
76143NA+    NA+35888  34.391  29.433   2.379
76144NA+    NA+35889  15.785  24.033   2.379
76145NA+    NA+35890  44.966  25.158   1.706
76146NA+    NA+35891  39.322   5.900   2.256
76147NA+    NA+35892  34.012  42.310  11.013
76148NA+    NA+35893  24.095  29.520   4.253
76149NA+    NA+35894   5.224  31.575   4.134
76150NA+    NA+35895   8.819  29.621   3.851
76151NA+    NA+35896  35.965   3.869  14.367
76152NA+    NA+35897   9.341  36.024  14.816
76153NA+    NA+35898  40.441  40.357  11.566
76154NA+    NA+35899  33.901  15.777   2.885
76155NA+    NA+35900  43.871  18.570   2.787
76156NA+    NA+35901  18.667  14.311  11.923
76157NA+    NA+35902   1.459   4.782  12.047
76158NA+    NA+35903  41.939  41.324   2.769
76159NA+    NA+35904  10.283  44.331   4.655
76160NA+    NA+35905  26.505  12.770  13.006
76161NA+    NA+35906  15.641  34.058   4.224
76162NA+    NA+35907   7.206   5.401  13.799
76163NA+    NA+35908   8.207  18.633  13.348
76164NA+    NA+35909  32.433  35.924  11.924
76165NA+    NA+35910  22.687  25.688   4.125
76166NA+    NA+35911  22.658  29.619  11.080
76167NA+    NA+35912  37.994  30.608   5.256
76168NA+    NA+35913  40.911  42.964   0.927
76169NA+    NA+35914  27.563  35.902  10.947
76170NA+    NA+35915   2.836  15.242  13.927
76171NA+    NA+35916   4.735  26.692  11.472
76172NA+    NA+35917  25.570  10.247   5.281
76173NA+    NA+35918  21.122  17.150  12.509
76174NA+    NA+35919  15.101   2.816   2.245
76175NA+    NA+35920  24.075  38.889  13.540
76176NA+    NA+35921  15.641  39.969   1.219
76177NA+    NA+35922  14.229  43.872   1.841
76178NA+    NA+35923   3.943  18.121   1.391
76179NA+    NA+35924   2.776  38.467   2.270
76180NA+    NA+35925  39.901  33.051  12.467
76181NA+    NA+35926  31.556  35.079   0.815
76182NA+    NA+35927  23.206  35.098  12.871
76183NA+    NA+35928  22.020   8.228   3.710
76184NA+    NA+35929   7.272   3.820  11.523
76185NA+    NA+35930  16.748   5.717  12.344
76186NA+    NA+35931  38.891  32.498   4.280
76187NA+    NA+35932   2.275   1.799   5.285
76188NA+    NA+35933  12.132   9.316  14.823
76189NA+    NA+35934  38.984  42.848   5.219
76190NA+    NA+35935  10.281  42.793   3.846
76191NA+    NA+35936  16.717   3.406  13.522
76192NA+    NA+35937   5.858  15.102  10.565
76193NA+    NA+35938  25.001  15.662  11.448
76194NA+    NA+35939  16.225   8.194   4.649
76195NA+    NA+35940  11.751   3.334   1.881
76196NA+    NA+35941  20.724  17.260  11.912
76197NA+    NA+35942   4.756  11.621  10.069
76198NA+    NA+35943  14.761   8.741   3.658
76199NA+    NA+35944  25.498  21.091   2.364
76200NA+    NA+35945  43.982  18.709  10.483
76201NA+    NA+35946  43.945  23.117   3.728
76202NA+    NA+35947  43.971  20.717  12.366
76203NA+    NA+35948  29.142  17.727  10.012
76204NA+    NA+35949  44.987   6.918   2.896
76205NA+    NA+35950  41.877  20.233   2.752
76206NA+    NA+35951  35.534   1.333   4.745
76207NA+    NA+35952   6.871  23.002   3.353
76208NA+    NA+35953  34.114  12.723  12.932
76209NA+    NA+35954   0.878  37.531   3.773
76210NA+    NA+35955  43.382  38.945  11.377
76211NA+    NA+35956  20.267   8.306   0.475
76212NA+    NA+35957   9.284  24.644  14.319
76213NA+    NA+35958  13.236   7.314   1.748
76214NA+    NA+35959  30.506  34.510   1.236
76215NA+    NA+35960  31.580  10.875   4.280
76216NA+    NA+35961  24.010  14.168   2.357
76217NA+    NA+35962   3.825  41.314   3.259
76218NA+    NA+35963  40.452  21.125  13.469
76219NA+    NA+35964  12.287   0.436   1.254
76220NA+    NA+35965  44.872  41.917   0.291
76221NA+    NA+35966  42.362  11.852  10.408
76222NA+    NA+35967  19.688   0.943   3.229
76223NA+    NA+35968  13.196  27.651  14.977
76224NA+    NA+35969   0.875   8.718   4.714
76225NA+    NA+35970  26.035  17.265  12.918
76226NA+    NA+35971  44.939   6.219  13.947
76227NA+    NA+35972  35.951   4.263   2.824
76228NA+    NA+35973  37.920   6.306   2.188
76229NA+    NA+35974  13.293  27.574  11.113
76230NA+    NA+35975  11.728   3.759   4.199
76231NA+    NA+35976  44.871  17.093   0.888
76232NA+    NA+35977  19.117  41.456  12.044
76233NA+    NA+35978   8.767  38.041   2.716
76234NA+    NA+35979  28.519  26.207  12.096
76235NA+    NA+35980  37.544  10.725  14.808
76236NA+    NA+35981  38.337  43.348   3.170
76237NA+    NA+35982   1.902  40.927   3.371
76238NA+    NA+35983   4.252   0.887   0.473
76239NA+    NA+35984  27.566   1.403   4.119
76240NA+    NA+35985  35.966  18.225  10.502
76241NA+    NA+35986  21.248  35.104  13.362
76242NA+    NA+35987  22.078  15.297  10.643
76243NA+    NA+35988  36.076  16.085  11.963
76244NA+    NA+35989  19.145  16.791   3.817
76245NA+    NA+35990  18.203  28.574  14.951
76246NA+    NA+35991  11.149  33.881  10.526
76247NA+    NA+35992  23.236  10.354   1.875
76248NA+    NA+35993  21.684  15.689   4.801
76249NA+    NA+35994   5.912  16.278   4.120
76250NA+    NA+35995  39.542  22.226   4.195
76251NA+    NA+35996  33.000  34.987  12.046
76252NA+    NA+35997  42.893  18.669  12.391
76253NA+    NA+35998  40.807  10.705   4.791
76254NA+    NA+35999  39.933  41.803  12.536
76255NA+    NA+36000   9.860  16.135  12.522
76256NA+    NA+36001  20.255  40.330   3.655
76257NA+    NA+36002  39.401  35.888   4.354
76258NA+    NA+36003  28.159  23.733   0.924
76259NA+    NA+36004  15.794  27.111  13.524
76260NA+    NA+36005  37.950  23.660   1.934
76261NA+    NA+36006  21.660  29.645  13.932
76262NA+    NA+36007  32.469   6.754   0.269
76263NA+    NA+36008  25.514   3.374   4.280
76264NA+    NA+36009  14.113  23.180  11.459
76265NA+    NA+36010  23.240  29.636  12.531
76266NA+    NA+36011   2.275  43.286   4.724
76267NA+    NA+36012  14.205   7.325  13.538
76268NA+    NA+36013  31.133  39.377   1.416
76269NA+    NA+36014  27.196  43.787  14.435
76270NA+    NA+36015  22.615  35.424   1.307
76271NA+    NA+36016  26.058  30.657  12.549
76272NA+    NA+36017  20.554  34.056  10.899
76273NA+    NA+36018  27.537   1.251   2.687
76274NA+    NA+36019  16.189  18.677  10.957
76275NA+    NA+36020  28.152  11.185  14.816
76276NA+    NA+36021   3.362  30.152  14.305
76277NA+    NA+36022  42.962   5.337  11.930
76278NA+    NA+36023  25.033  24.656  13.993
76279NA+    NA+36024  43.017  21.071  12.488
76280NA+    NA+36025  14.269   9.817  11.900
76281NA+    NA+36026  39.008  37.582  12.019
76282NA+    NA+36027  23.526  26.137   1.888
76283NA+    NA+36028  26.179  43.383   2.340
76284NA+    NA+36029  29.991  27.513   3.761
76285NA+    NA+36030  18.746   9.364  14.953
76286NA+    NA+36031  31.966  14.795   5.100
76287NA+    NA+36032  17.573  32.018   1.423
76288NA+    NA+36033  18.259  30.080   1.323
76289NA+    NA+36034  24.493   6.911  13.377
76290NA+    NA+36035  28.990   6.390   2.260
76291NA+    NA+36036  26.132  23.677  12.538
76292NA+    NA+36037  32.495  12.170  11.944
76293NA+    NA+36038  32.505  27.588  11.493
76294NA+    NA+36039   5.421  42.339   1.869
76295NA+    NA+36040  29.072   0.494   3.270
76296NA+    NA+36041  25.064  30.467  11.525
76297NA+    NA+36042  24.982   4.217   4.824
76298NA+    NA+36043   2.865  21.060   0.362
76299NA+    NA+36044   2.342  17.648   3.312
76300NA+    NA+36045  39.951  11.628   3.739
76301NA+    NA+36046  42.414  12.118  10.476
76302NA+    NA+36047  37.351   1.787   0.458
76303NA+    NA+36048   2.397  38.425   0.479
76304NA+    NA+36049  38.509  36.369   2.359
76305NA+    NA+36050   8.375  24.983  13.329
76306NA+    NA+36051  18.058  42.910   4.690
76307NA+    NA+36052   4.293   5.775   2.664
76308NA+    NA+36053  37.347  31.138   4.786
76309NA+    NA+36054  24.186  42.388   0.402
76310NA+    NA+36055  21.169  44.476   4.326
76311NA+    NA+36056  24.004  12.347  12.530
76312NA+    NA+36057  33.540  14.170   1.927
76313NA+    NA+36058  22.583   8.292   0.797
76314NA+    NA+36059  23.036  42.441  11.892
76315NA+    NA+36060  29.475  18.585   2.297
76316NA+    NA+36061  34.379   1.327   0.472
76317NA+    NA+36062  40.023  43.309  14.904
76318NA+    NA+36063  21.139   9.718   3.869
76319NA+    NA+36064  11.319  26.690  12.396
76320NA+    NA+36065  10.758  38.954  14.514
76321NA+    NA+36066   6.233   9.661   2.304
76322NA+    NA+36067  29.546  20.031   3.704
76323NA+    NA+36068   8.754  25.216  11.052
76324NA+    NA+36069  12.794  38.463  10.963
76325NA+    NA+36070   8.242  16.690   1.313
76326NA+    NA+36071   2.913   0.915  10.565
76327NA+    NA+36072  23.050  24.212  13.937
76328NA+    NA+36073  30.571  33.394   1.294
76329NA+    NA+36074  37.525  11.697  11.122
76330NA+    NA+36075  42.374  36.917   1.249
76331NA+    NA+36076  17.180  44.481  10.455
76332NA+    NA+36077  29.055  39.545   3.788
76333NA+    NA+36078  18.578  43.999   1.705
76334NA+    NA+36079  16.252   9.795  14.416
76335NA+    NA+36080  44.764  43.902   0.409
76336NA+    NA+36081  19.616  25.575   3.692
76337NA+    NA+36082  20.049   0.280   2.390
76338NA+    NA+36083  44.478  11.301   0.417
76339NA+    NA+36084  30.964  39.869   0.268
76340NA+    NA+36085  12.240  43.433  13.928
76341NA+    NA+36086   6.282   1.847   3.195
76342NA+    NA+36087  25.045   1.399   4.214
76343NA+    NA+36088  17.575  11.180  14.939
76344NA+    NA+36089  43.873  19.670   3.822
76345NA+    NA+36090   0.478   3.437  13.394
76346NA+    NA+36091  43.894   4.904   4.600
76347NA+    NA+36092  18.204  38.439  14.425
76348NA+    NA+36093  18.600  34.583   3.817
76349NA+    NA+36094  38.516   8.171  14.872
76350NA+    NA+36095  31.507  10.365  13.868
76351NA+    NA+36096  16.692   9.676  12.843
76352NA+    NA+36097  25.679  11.275   0.479
76353NA+    NA+36098  10.683   9.281  12.564
76354NA+    NA+36099   6.911  26.012   4.249
76355NA+    NA+36100  36.570  28.608  13.909
76356NA+    NA+36101  43.404  30.429   3.630
76357NA+    NA+36102  34.490  32.597  10.429
76358NA+    NA+36103  16.601  14.155  10.458
76359NA+    NA+36104  33.454  22.080  14.847
76360NA+    NA+36105  13.318  35.941  13.350
76361NA+    NA+36106  23.494  11.365   4.797
76362NA+    NA+36107  15.295  17.562   4.802
76363NA+    NA+36108  42.988   3.877   2.398
76364NA+    NA+36109  31.024  42.336  12.067
76365NA+    NA+36110  21.657   7.214   0.271
76366NA+    NA+36111   8.875  18.731   1.913
76367NA+    NA+36112  44.833  20.599  12.998
76368NA+    NA+36113   7.911   2.402  12.976
76369NA+    NA+36114  34.907  10.789  13.972
76370NA+    NA+36115  35.551  36.089   0.401
76371NA+    NA+36116  13.112  44.855   4.189
76372NA+    NA+36117  21.171  15.661  10.405
76373NA+    NA+36118  16.124  29.543  11.399
76374NA+    NA+36119  32.907  27.486   0.931
76375NA+    NA+36120  13.642  10.378   1.407
76376NA+    NA+36121  36.471   1.840  10.497
76377NA+    NA+36122  23.540  22.021   0.847
76378NA+    NA+36123  15.766   8.749   5.209
76379NA+    NA+36124  35.000  11.239  10.424
76380NA+    NA+36125  40.313  29.528  10.532
76381NA+    NA+36126   6.876  28.979   1.755
76382NA+    NA+36127  22.672  15.292  14.487
76383NA+    NA+36128   2.897  42.899  11.005
76384NA+    NA+36129  30.566  30.063   0.930
76385NA+    NA+36130  37.362  10.772   4.761
76386NA+    NA+36131  29.166  19.706  10.939
76387NA+    NA+36132   8.180  24.219   4.814
76388NA+    NA+36133  13.686  19.749  12.047
76389NA+    NA+36134  19.609   3.296  14.880
76390NA+    NA+36135   3.735   4.238   1.758
76391NA+    NA+36136   5.260  21.588  13.983
76392NA+    NA+36137  32.532   2.373  14.358
76393NA+    NA+36138  12.273  27.038   4.637
76394NA+    NA+36139  27.612   4.439   9.446
76395NA+    NA+36140  14.133  25.594   0.406
76396NA+    NA+36141  38.869  28.931  10.989
76397NA+    NA+36142  25.594  35.888  14.479
76398NA+    NA+36143  15.641  29.992  10.558
76399NA+    NA+36144  27.083  25.587   3.160
76400NA+    NA+36145  24.102  29.945  10.967
76401NA+    NA+36146   2.790  34.916  12.092
76402NA+    NA+36147  33.895  24.526   0.260
76403NA+    NA+36148  44.403  27.682  13.027
76404NA+    NA+36149   7.375   9.796  10.635
76405NA+    NA+36150  34.917  29.596   0.768
76406NA+    NA+36151   3.835  43.324   3.795
76407NA+    NA+36152  19.615  10.353  10.493
76408NA+    NA+36153  19.550  27.155   0.348
76409NA+    NA+36154   6.872  10.702   3.807
76410NA+    NA+36155  30.164  27.472  14.867
76411NA+    NA+36156  40.013  44.829   0.380
76412NA+    NA+36157   5.346   9.334  10.619
76413NA+    NA+36158  17.134  16.315  13.418
76414NA+    NA+36159  14.710  34.103  14.424
76415NA+    NA+36160   4.271  12.279  11.558
76416NA+    NA+36161  37.362  18.285   1.747
76417NA+    NA+36162  24.224  23.686  14.387
76418NA+    NA+36163  16.251  40.888   4.685
76419NA+    NA+36164  39.373  41.965   1.818
76420NA+    NA+36165  40.906  27.130   1.718
76421NA+    NA+36166  12.249  26.476   3.802
76422NA+    NA+36167   5.870  17.779  14.403
76423NA+    NA+36168  43.783  44.455  11.482
76424NA+    NA+36169  27.595   9.230  11.869
76425NA+    NA+36170  35.604  14.798  14.509
76426NA+    NA+36171   2.336  44.957   4.781
76427NA+    NA+36172  26.552  21.711   1.358
76428NA+    NA+36173  16.803  21.025  11.004
76429NA+    NA+36174  27.630  29.640   3.825
76430NA+    NA+36175  24.160   4.785   3.738
76431NA+    NA+36176  32.596  44.798  10.629
76432NA+    NA+36177  41.884  13.125   3.819
76433NA+    NA+36178  42.802  37.551   2.833
76434NA+    NA+36179  32.492  12.226  14.822
76435NA+    NA+36180  32.970  27.043  11.514
76436NA+    NA+36181  35.447  36.091   1.778
76437NA+    NA+36182  10.780   6.327   3.203
76438NA+    NA+36183  43.334   8.247   2.359
76439NA+    NA+36184  28.039   4.331   2.220
76440NA+    NA+36185  26.604  41.487  14.510
76441NA+    NA+36186  11.749  19.069  10.528
76442NA+    NA+36187  17.078  44.475  13.048
76443NA+    NA+36188   3.439  11.197   1.745
76444NA+    NA+36189  20.531  20.187  14.019
76445NA+    NA+36190  34.558  13.789   4.657
76446NA+    NA+36191   3.927  16.649   2.850
76447NA+    NA+36192   4.800  36.078   5.274
76448NA+    NA+36193  42.966  26.583  11.970
76449NA+    NA+36194  26.517  23.189  10.632
76450NA+    NA+36195   6.860  14.164  14.936
76451NA+    NA+36196  39.846  13.114   0.947
76452NA+    NA+36197  33.513  42.306  11.559
76453NA+    NA+36198  13.178  11.131  12.428
76454NA+    NA+36199  19.608  32.088  13.000
76455NA+    NA+36200  17.306  19.723  11.016
76456NA+    NA+36201  43.770  40.938   0.276
76457NA+    NA+36202  16.626  32.907  10.513
76458NA+    NA+36203  38.927   9.211   1.785
76459NA+    NA+36204  42.814  26.183   4.652
76460NA+    NA+36205  41.296  42.838  14.499
76461NA+    NA+36206  14.589  44.297   3.198
76462NA+    NA+36207  36.982  30.574  13.359
76463NA+    NA+36208  23.231  22.677   4.720
76464NA+    NA+36209   1.283  44.437  13.889
76465NA+    NA+36210  35.938  36.044  14.337
76466NA+    NA+36211  33.499  28.144  11.597
76467NA+    NA+36212  10.372  43.495   4.729
76468NA+    NA+36213  38.554  16.604  13.521
76469NA+    NA+36214  28.963   8.691   3.700
76470NA+    NA+36215   7.249   4.823   3.251
76471NA+    NA+36216  40.859  43.802  14.976
76472NA+    NA+36217  10.793   2.270   1.385
76473NA+    NA+36218   3.294   4.762   2.320
76474NA+    NA+36219  24.998  36.535   1.216
76475NA+    NA+36220  22.242  40.914  13.884
76476NA+    NA+36221  42.373  26.690   1.318
76477NA+    NA+36222  31.056  41.894  12.838
76478NA+    NA+36223  26.543  41.894   0.302
76479NA+    NA+36224  26.596  36.480  12.002
76480NA+    NA+36225  19.136  27.044  13.481
76481NA+    NA+36226  39.494  11.707   2.678
76482NA+    NA+36227  35.948  37.962  13.946
76483NA+    NA+36228  15.790   1.336   0.382
76484NA+    NA+36229   3.444  22.679  14.961
76485NA+    NA+36230   2.457  42.328  14.790
76486NA+    NA+36231  41.796  24.018  13.894
76487NA+    NA+36232  16.220  34.028  13.346
76488NA+    NA+36233  15.136  26.472  14.827
76489NA+    NA+36234  38.960  22.722  13.413
76490NA+    NA+36235  18.090  39.356   1.419
76491NA+    NA+36236  31.504  16.135   2.743
76492NA+    NA+36237  10.756   4.937  14.951
76493NA+    NA+36238   5.829  21.209  13.009
76494NA+    NA+36239  27.561   6.410   1.333
76495NA+    NA+36240  13.818   2.737  13.896
76496NA+    NA+36241   5.843  30.499   2.255
76497NA+    NA+36242  44.977  33.445  12.547
76498NA+    NA+36243  11.633  39.443   0.265
76499NA+    NA+36244  19.165  16.782   0.838
76500NA+    NA+36245  15.626   9.157  11.935
76501NA+    NA+36246  24.224  15.196  14.437
76502NA+    NA+36247  18.620  26.100  13.002
76503NA+    NA+36248  34.902  16.181  13.018
76504NA+    NA+36249  13.335  33.613   0.321
76505NA+    NA+36250  19.664  27.962  10.891
76506NA+    NA+36251  32.906  13.146  13.801
76507NA+    NA+36252   9.233  35.525   3.829
76508NA+    NA+36253   6.764  10.857   4.640
76509NA+    NA+36254  39.527   1.885   3.760
76510NA+    NA+36255  29.123  36.394  12.498
76511NA+    NA+36256  38.924   4.297  14.471
76512NA+    NA+36257  34.498   1.975  11.946
76513NA+    NA+36258   3.749   5.927   1.225
76514NA+    NA+36259  34.459  22.524   1.308
76515NA+    NA+36260  42.437   4.857  14.923
76516NA+    NA+36261  10.855  20.171   4.683
76517NA+    NA+36262  32.517  24.992   4.244
76518NA+    NA+36263  25.975  26.702   2.813
76519NA+    NA+36264   1.824  37.951  10.612
76520NA+    NA+36265  19.657  10.348   5.151
76521NA+    NA+36266  16.726  26.649   1.342
76522NA+    NA+36267  24.664  13.108  14.506
76523NA+    NA+36268  12.706   1.250  13.355
76524NA+    NA+36269  14.158   6.843   4.234
76525NA+    NA+36270  38.406  29.168   0.924
76526NA+    NA+36271  44.889  34.041  14.286
76527NA+    NA+36272  34.601  31.622  13.802
76528NA+    NA+36273  11.233  10.321   2.222
76529NA+    NA+36274  12.156  20.662  14.803
76530NA+    NA+36275  23.498  44.369  13.336
76531NA+    NA+36276  22.108  35.915  14.328
76532NA+    NA+36277   9.180  37.853  12.927
76533NA+    NA+36278  40.334   1.398  11.563
76534NA+    NA+36279  15.322   4.292   3.372
76535NA+    NA+36280  43.372  20.074  10.896
76536NA+    NA+36281   9.858  12.816   4.211
76537NA+    NA+36282  42.877  44.309   2.877
76538NA+    NA+36283  39.820  40.491   3.774
76539NA+    NA+36284  21.056  15.313   0.771
76540NA+    NA+36285  25.203   8.193  13.950
76541NA+    NA+36286  28.048  11.774  11.122
76542NA+    NA+36287  31.129  33.408   0.851
76543NA+    NA+36288  41.515  10.731  13.428
76544NA+    NA+36289  10.160  20.202   0.339
76545NA+    NA+36290  19.061  21.669   1.731
76546NA+    NA+36291  33.924  23.045  13.029
76547NA+    NA+36292   1.437   4.249  12.467
76548NA+    NA+36293  38.976  28.181   3.769
76549NA+    NA+36294  13.710   9.182   0.877
76550NA+    NA+36295  35.543   9.268  12.960
76551NA+    NA+36296   0.860  20.586   2.827
76552NA+    NA+36297   0.784  38.040  14.433
76553NA+    NA+36298  19.102  28.578  13.002
76554NA+    NA+36299   1.250  15.773   2.369
76555NA+    NA+36300  36.543   1.731   3.662
76556NA+    NA+36301  12.652  28.560  12.000
76557NA+    NA+36302  17.568  43.465  12.987
76558NA+    NA+36303  23.008  43.466  14.919
76559NA+    NA+36304  32.996  12.734  14.428
76560NA+    NA+36305  35.362   3.306  13.920
76561NA+    NA+36306  38.912  23.588  12.962
76562NA+    NA+36307  17.087  23.184   2.695
76563NA+    NA+36308  25.483  43.434  12.416
76564NA+    NA+36309  31.448  24.603   4.739
76565NA+    NA+36310  33.624  23.216  10.570
76566NA+    NA+36311  20.250  20.099   3.704
76567NA+    NA+36312  42.437  39.041  10.460
76568NA+    NA+36313  40.983  43.362  11.430
76569NA+    NA+36314   3.309  32.893  14.950
76570NA+    NA+36315  29.650  40.369  12.354
76571NA+    NA+36316   0.401  33.534   0.903
76572NA+    NA+36317  15.321  37.351   0.860
76573NA+    NA+36318  30.995  39.337   4.683
76574NA+    NA+36319  21.652  14.266  13.342
76575NA+    NA+36320   8.735  42.322   4.696
76576NA+    NA+36321  20.059  35.597   0.868
76577NA+    NA+36322  34.585  38.946   3.373
76578NA+    NA+36323   0.318  44.973   3.381
76579NA+    NA+36324   2.766  14.798   1.347
76580NA+    NA+36325  44.941  40.382   1.300
76581NA+    NA+36326  28.560  38.391   3.145
76582NA+    NA+36327  13.131  27.453   3.317
76583NA+    NA+36328  20.101  14.193   4.200
76584NA+    NA+36329  38.950  44.993   0.806
76585NA+    NA+36330  36.507  32.081   0.244
76586NA+    NA+36331  26.979  44.306  12.955
76587NA+    NA+36332  15.714  27.009   1.786
76588NA+    NA+36333   5.394  10.256  12.059
76589NA+    NA+36334  16.753  12.220  14.405
76590NA+    NA+36335  33.532   7.757  10.891
76591NA+    NA+36336  35.896  43.411  12.471
76592NA+    NA+36337  35.485  12.681  12.470
76593NA+    NA+36338  37.025  24.704   3.795
76594NA+    NA+36339  44.889  12.693   0.842
76595NA+    NA+36340   0.412  42.324   1.397
76596NA+    NA+36341  15.239  12.638   2.705
76597NA+    NA+36342  29.097   6.390   2.790
76598NA+    NA+36343  18.245  33.417  12.454
76599NA+    NA+36344  31.435   3.848  10.633
76600NA+    NA+36345   5.280  12.762  11.604
76601NA+    NA+36346  27.179   2.423  11.966
76602NA+    NA+36347  38.567  36.557   1.427
76603NA+    NA+36348  33.883  39.324   1.710
76604NA+    NA+36349  39.540  37.413   1.267
76605NA+    NA+36350   4.881   4.782  11.932
76606NA+    NA+36351  12.650   6.894  11.915
76607NA+    NA+36352  10.633   6.198  10.934
76608NA+    NA+36353  20.252   3.325  14.471
76609NA+    NA+36354  21.210  21.207  12.941
76610NA+    NA+36355  22.673  25.006  10.135
76611NA+    NA+36356  41.938  12.703   1.343
76612NA+    NA+36357  18.114  31.018   4.225
76613NA+    NA+36358  14.290  25.116  10.569
76614NA+    NA+36359  15.136  30.915  10.510
76615NA+    NA+36360  13.146   2.801   4.752
76616NA+    NA+36361  21.564  19.226  10.517
76617NA+    NA+36362  17.802   1.421  11.589
76618NA+    NA+36363  24.557  17.148   1.256
76619NA+    NA+36364   1.911  36.019   1.304
76620NA+    NA+36365  38.495  30.657  11.567
76621NA+    NA+36366  19.675  39.894   0.842
76622NA+    NA+36367  14.284  22.704   4.343
76623NA+    NA+36368   3.894   7.307   5.159
76624NA+    NA+36369  36.436  17.646  11.878
76625NA+    NA+36370  19.611  16.666  13.544
76626NA+    NA+36371  25.650  38.008   3.742
76627NA+    NA+36372  37.046  24.219  13.341
76628NA+    NA+36373  35.499   2.913   2.713
76629NA+    NA+36374  26.603  16.131  11.543
76630NA+    NA+36375  11.842  39.021   3.254
76631NA+    NA+36376   6.355  22.610  14.314
76632NA+    NA+36377   9.790  17.559   2.202
76633NA+    NA+36378  23.148  20.689  12.986
76634NA+    NA+36379  22.143  13.203   5.093
76635NA+    NA+36380   9.681  43.791   0.264
76636NA+    NA+36381  14.134  36.554  11.864
76637NA+    NA+36382  10.777   2.299  13.898
76638NA+    NA+36383   6.818  20.705   3.364
76639NA+    NA+36384  27.474  12.323   0.304
76640NA+    NA+36385  30.148  16.303   3.166
76641NA+    NA+36386  15.252  17.208  12.934
76642NA+    NA+36387  22.700  35.100   3.244
76643NA+    NA+36388  20.142  13.647  12.427
76644NA+    NA+36389  31.940  19.702  12.482
76645NA+    NA+36390  10.229  34.945   1.374
76646NA+    NA+36391   8.185  17.572   3.815
76647NA+    NA+36392  22.533  20.075   3.813
76648NA+    NA+36393  43.930  13.669  12.021
76649NA+    NA+36394  16.660  40.908   1.915
76650NA+    NA+36395  17.292  27.963   0.443
76651NA+    NA+36396   7.198  26.165  14.514
76652NA+    NA+36397  42.004   3.771  12.354
76653NA+    NA+36398  28.681   0.861  12.393
76654NA+    NA+36399  40.424   6.910  13.315
76655NA+    NA+36400   7.294  26.500   1.440
76656NA+    NA+36401  42.381  12.786   1.432
76657NA+    NA+36402  39.982  15.740   2.881
76658NA+    NA+36403   9.788  33.412   0.416
76659NA+    NA+36404  24.606   0.967  11.856
76660NA+    NA+36405  43.313  28.140   4.227
76661NA+    NA+36406  12.168  30.495   3.847
76662NA+    NA+36407  10.708   3.751  12.471
76663NA+    NA+36408  34.960  42.955  13.919
76664NA+    NA+36409   2.266   6.244   4.752
76665NA+    NA+36410  22.534  15.268   1.913
76666NA+    NA+36411  10.241  24.542   3.206
76667NA+    NA+36412   2.406  42.951   0.731
76668NA+    NA+36413  16.267  42.939  14.334
76669NA+    NA+36414   1.418  21.225  11.388
76670NA+    NA+36415   2.792   4.242  11.541
76671NA+    NA+36416  25.633  36.529  12.446
76672NA+    NA+36417   5.301  15.813  14.294
76673NA+    NA+36418   0.783  19.140  11.886
76674NA+    NA+36419  31.049   1.400  11.409
76675NA+    NA+36420   9.841  35.502  11.583
76676NA+    NA+36421   1.252  38.400  12.555
76677NA+    NA+36422   3.404   7.903  13.838
76678NA+    NA+36423  39.513   7.374   4.353
76679NA+    NA+36424  36.529   8.325   0.477
76680NA+    NA+36425  23.588  17.116   3.177
76681NA+    NA+36426  35.989  11.299   4.278
76682NA+    NA+36427   3.222  29.507   0.790
76683NA+    NA+36428  36.458  11.299   0.856
76684NA+    NA+36429   8.813  33.909  14.961
76685NA+    NA+36430  24.500   2.397   2.850
76686NA+    NA+36431  19.047   3.458  14.331
76687NA+    NA+36432  13.767  14.206  11.093
76688NA+    NA+36433  30.005  44.985  14.875
76689NA+    NA+36434  15.804  32.467   9.966
76690NA+    NA+36435   8.729   0.405   3.700
76691NA+    NA+36436  25.003  26.544   3.801
76692NA+    NA+36437  21.053  28.166   5.246
76693NA+    NA+36438   0.386  26.160  10.927
76694NA+    NA+36439  42.419   9.754   3.232
76695NA+    NA+36440  31.485  34.554  10.593
76696NA+    NA+36441  24.138  21.569  13.469
76697NA+    NA+36442  37.876  22.681   2.787
76698NA+    NA+36443   8.743   4.383  12.859
76699NA+    NA+36444  25.966   6.847  12.062
76700NA+    NA+36445  28.660  18.102   0.310
76701NA+    NA+36446  31.601  27.562  10.548
76702NA+    NA+36447   0.987   0.936  13.931
76703NA+    NA+36448  14.177  20.609   0.843
76704NA+    NA+36449  28.611  35.879   4.810
76705NA+    NA+36450  13.289   3.710  11.594
76706NA+    NA+36451  39.522   0.488   2.180
76707NA+    NA+36452  15.091  15.157  10.541
76708NA+    NA+36453  42.015  34.545  11.892
76709NA+    NA+36454   3.826   0.847  13.891
76710NA+    NA+36455  41.973  25.120   3.256
76711NA+    NA+36456  32.521  40.383  14.923
76712NA+    NA+36457   5.884  44.895   1.226
76713NA+    NA+36458  36.468  42.849   4.309
76714NA+    NA+36459  17.094  28.123  10.635
76715NA+    NA+36460  10.142  23.599   2.341
76716NA+    NA+36461  20.047  16.568  10.091
76717NA+    NA+36462  19.556  35.527   4.727
76718NA+    NA+36463  43.374  41.296   4.349
76719NA+    NA+36464  35.973  11.225  13.890
76720NA+    NA+36465  31.606  34.921  12.467
76721NA+    NA+36466  29.961  33.594  12.394
76722NA+    NA+36467  32.490  26.982   0.739
76723NA+    NA+36468  17.220   5.386  11.527
76724NA+    NA+36469  25.561  13.157  13.797
76725NA+    NA+36470  18.733  15.180  14.778
76726NA+    NA+36471   3.779  32.493  12.918
76727NA+    NA+36472   7.912   0.753   2.236
76728NA+    NA+36473   6.728  11.633   3.715
76729NA+    NA+36474  24.607  23.616   0.925
76730NA+    NA+36475  23.082   6.405  10.909
76731NA+    NA+36476  13.214  34.435  10.916
76732NA+    NA+36477  20.654   6.369   2.259
76733NA+    NA+36478   4.433  36.391  14.888
76734NA+    NA+36479  27.945   5.420   0.917
76735NA+    NA+36480  31.623  38.494  12.906
76736NA+    NA+36481  30.487  34.583   3.154
76737NA+    NA+36482  12.773  12.243  11.983
76738NA+    NA+36483  33.920  35.422  14.004
76739NA+    NA+36484  36.554  21.513   2.343
76740NA+    NA+36485  22.998  33.061  12.916
76741NA+    NA+36486   6.394  39.052   0.744
76742NA+    NA+36487  41.826  44.289   4.315
76743NA+    NA+36488  43.984  17.165   3.219
76744NA+    NA+36489  27.577   5.744   3.208
76745NA+    NA+36490  17.746  24.000   3.273
76746NA+    NA+36491  40.889  44.967   2.817
76747NA+    NA+36492   5.886   3.757  13.035
76748NA+    NA+36493   2.956   1.430   0.244
76749NA+    NA+36494  11.754   0.987   1.314
76750NA+    NA+36495  37.506  41.466  10.974
76751NA+    NA+36496  27.690  23.500   4.643
76752NA+    NA+36497  33.416  21.159   3.859
76753NA+    NA+36498   6.321  26.061  12.559
76754NA+    NA+36499  15.651   1.901  12.462
76755NA+    NA+36500  37.526  38.385  12.053
76756NA+    NA+36501  29.996  23.996  14.302
76757NA+    NA+36502  11.172  10.263  10.405
76758NA+    NA+36503  21.644   0.819  11.386
76759NA+    NA+36504   9.364  34.883   4.757
76760NA+    NA+36505   9.347  12.164   4.824
76761NA+    NA+36506  26.616  29.499  11.904
76762NA+    NA+36507   7.879  38.903   5.298
76763NA+    NA+36508  20.101  33.999   1.740
76764NA+    NA+36509   3.881  29.492   4.716
76765NA+    NA+36510  32.942  27.585  10.474
76766NA+    NA+36511   9.812   9.224  10.561
76767NA+    NA+36512  29.636  11.655  12.850
76768NA+    NA+36513  44.455   4.920  10.576
76769NA+    NA+36514  13.674  23.566   1.810
76770NA+    NA+36515  28.164   9.644  12.935
76771NA+    NA+36516  22.730  36.061   4.268
76772NA+    NA+36517  32.610  17.169  11.006
76773NA+    NA+36518   6.342  42.872   5.315
76774NA+    NA+36519  44.270  12.314   0.957
76775NA+    NA+36520  36.416   5.246  11.506
76776NA+    NA+36521   6.382  25.617  14.932
76777NA+    NA+36522  29.920  23.596   2.751
76778NA+    NA+36523  19.745  10.267  13.315
76779NA+    NA+36524   7.795  40.417   1.216
76780NA+    NA+36525  32.479  11.332  12.444
76781NA+    NA+36526  39.839  36.097   3.717
76782NA+    NA+36527   2.933  19.223  13.904
76783NA+    NA+36528  18.143  41.797  13.534
76784NA+    NA+36529   7.798  43.930   0.436
76785NA+    NA+36530   9.219  13.720  11.107
76786NA+    NA+36531  21.651   5.310  10.896
76787NA+    NA+36532  40.480   4.888   1.738
76788NA+    NA+36533   7.280  16.779   2.694
76789NA+    NA+36534   3.780   0.458  10.888
76790NA+    NA+36535  21.074  22.708  13.058
76791NA+    NA+36536  36.087  11.221   3.669
76792NA+    NA+36537   4.722   6.262  14.408
76793NA+    NA+36538  16.155  18.587   1.339
76794NA+    NA+36539  41.791   6.856  13.438
76795NA+    NA+36540  29.936   6.196  10.571
76796NA+    NA+36541  35.876   0.952  10.617
76797NA+    NA+36542   6.310  18.660   1.890
76798NA+    NA+36543  25.215  36.520   4.733
76799NA+    NA+36544  20.601   5.432   3.185
76800NA+    NA+36545  21.545  16.151  14.020
76801NA+    NA+36546  17.640  30.055  12.462
76802NA+    NA+36547  14.815  36.891  12.525
76803NA+    NA+36548  12.781   6.250   3.743
76804NA+    NA+36549  28.087   5.709   2.371
76805NA+    NA+36550  36.427  11.326  14.928
76806NA+    NA+36551  29.635   5.888  10.494
76807NA+    NA+36552   9.788  32.073   4.124
76808NA+    NA+36553  19.562   3.941   4.241
76809NA+    NA+36554   1.816  14.270   4.118
76810NA+    NA+36555  32.122  27.618  14.994
76811NA+    NA+36556  10.708   0.349   4.652
76812NA+    NA+36557  15.100  13.633  14.889
76813NA+    NA+36558   3.295  38.940  12.492
76814NA+    NA+36559  32.061  19.626  14.370
76815NA+    NA+36560  17.116  22.740  10.045
76816NA+    NA+36561  14.637   2.803   2.791
76817NA+    NA+36562  29.131  31.927  13.818
76818NA+    NA+36563  38.424  28.036   2.289
76819NA+    NA+36564  29.534  27.059   1.329
76820NA+    NA+36565   9.244  31.935  10.547
76821NA+    NA+36566   4.376  23.098  11.570
76822NA+    NA+36567  38.999   0.789   1.812
76823NA+    NA+36568  31.936  17.224  11.922
76824NA+    NA+36569   1.803  33.625   2.206
76825NA+    NA+36570   7.686  37.382   2.248
76826NA+    NA+36571  36.073  15.579   1.226
76827NA+    NA+36572   5.347  20.689   4.778
76828NA+    NA+36573  39.978  20.083  13.937
76829NA+    NA+36574  20.075  32.982  11.501
76830NA+    NA+36575  25.537  35.456   0.822
76831NA+    NA+36576  41.951  35.003   4.804
76832NA+    NA+36577  29.919   0.260   0.840
76833NA+    NA+36578  15.653  24.099  13.901
76834NA+    NA+36579  38.353  24.542  13.338
76835NA+    NA+36580  25.979  41.476   1.241
76836NA+    NA+36581  31.583   3.350   4.662
76837NA+    NA+36582   5.747  16.158  11.912
76838NA+    NA+36583  14.282  38.001  13.541
76839NA+    NA+36584  43.373  35.881  12.862
76840NA+    NA+36585  27.619  36.447  14.770
76841NA+    NA+36586  19.126   5.436   1.828
76842NA+    NA+36587   4.386   6.326   1.422
76843NA+    NA+36588  23.080  37.834   2.263
76844NA+    NA+36589  42.476  21.736  12.840
76845NA+    NA+36590   8.329  31.531  14.367
76846NA+    NA+36591   5.290  43.887   3.757
76847NA+    NA+36592  33.070  22.543  11.419
76848NA+    NA+36593   7.908  28.089  12.442
76849NA+    NA+36594  28.168  29.467   4.219
76850NA+    NA+36595  27.601  20.124   2.874
76851NA+    NA+36596  14.667  26.615   0.478
76852NA+    NA+36597  22.553  13.274   5.574
76853NA+    NA+36598  31.490  44.418  14.968
76854NA+    NA+36599  28.435  13.286  13.420
76855NA+    NA+36600  38.563  12.233  13.351
76856NA+    NA+36601  10.359  21.663   1.836
76857NA+    NA+36602  12.338   4.358  10.933
76858NA+    NA+36603  38.448  41.527  13.489
76859NA+    NA+36604  22.024  16.177   0.760
76860NA+    NA+36605  20.623  13.108  13.368
76861NA+    NA+36606  44.284  10.662   4.208
76862NA+    NA+36607  41.443   4.331   1.386
76863NA+    NA+36608   2.239   4.381  13.308
76864NA+    NA+36609  12.730  42.013   3.851
76865NA+    NA+36610  28.100   6.231  13.311
76866NA+    NA+36611  44.962   5.916  12.034
76867NA+    NA+36612  19.753   3.247  14.364
76868NA+    NA+36613  44.474   8.198   3.709
76869NA+    NA+36614  17.773   6.796  13.307
76870NA+    NA+36615   8.288  20.250  11.475
76871NA+    NA+36616   3.740   6.776  14.002
76872NA+    NA+36617   3.882  24.153  14.937
76873NA+    NA+36618  38.931   6.872  12.480
76874NA+    NA+36619   0.367  20.201  11.382
76875NA+    NA+36620  13.738   5.259  13.361
76876NA+    NA+36621   4.441   5.794  14.982
76877NA+    NA+36622  29.080  38.890  10.909
76878NA+    NA+36623  31.619  12.776   3.655
76879NA+    NA+36624  16.676   5.394  11.595
76880NA+    NA+36625  13.599   9.747  12.070
76881NA+    NA+36626  21.159  13.336   9.975
76882NA+    NA+36627  11.255  41.832  11.605
76883NA+    NA+36628  14.285   3.264  14.911
76884NA+    NA+36629  35.974  22.237  12.842
76885NA+    NA+36630   5.359  23.688  13.307
76886NA+    NA+36631   3.787   9.248   4.646
76887NA+    NA+36632  36.972   9.349  14.366
76888NA+    NA+36633  38.913  11.205   1.370
76889NA+    NA+36634  32.946  44.384   3.813
76890NA+    NA+36635  18.176  36.534  11.586
76891NA+    NA+36636  42.306  10.306   4.645
76892NA+    NA+36637  36.992  40.512   3.367
76893NA+    NA+36638  16.698  13.322   2.226
76894NA+    NA+36639  31.950   4.432  14.330
76895NA+    NA+36640  20.221   7.285  13.011
76896NA+    NA+36641  26.550  27.136  11.577
76897NA+    NA+36642   0.325  20.122  12.543
76898NA+    NA+36643  27.559  13.713  13.349
76899NA+    NA+36644  21.159  10.735  13.475
76900NA+    NA+36645  30.415  29.517   0.797
76901NA+    NA+36646  31.117  15.731   2.837
76902NA+    NA+36647  27.445   2.899   3.678
76903NA+    NA+36648  37.037  15.607  10.599
76904NA+    NA+36649  21.260  15.147  10.601
76905NA+    NA+36650  20.674  31.905  13.449
76906NA+    NA+36651  39.324   4.756   3.254
76907NA+    NA+36652  25.996  31.574   1.737
76908NA+    NA+36653  23.712   5.390  11.969
76909NA+    NA+36654   1.378  15.820  13.403
76910NA+    NA+36655  16.153  29.924  11.103
76911NA+    NA+36656  18.676   4.796   1.267
76912NA+    NA+36657  13.642   5.354   1.246
76913NA+    NA+36658   9.228  44.321   4.166
76914NA+    NA+36659  28.648   0.348  14.857
76915NA+    NA+36660  37.415   8.848  11.578
76916NA+    NA+36661  33.431  41.953   4.764
76917NA+    NA+36662   8.816  33.007   9.929
76918NA+    NA+36663   2.448  18.139  13.485
76919NA+    NA+36664   4.922  22.622   3.686
76920NA+    NA+36665  28.957  10.859   2.785
76921NA+    NA+36666   8.397  36.987  14.975
76922NA+    NA+36667   1.871   0.378  10.490
76923NA+    NA+36668  12.250  37.987   2.372
76924NA+    NA+36669   1.758   3.729  11.562
76925NA+    NA+36670  22.214  35.054   1.700
76926NA+    NA+36671  33.393  12.717   4.703
76927NA+    NA+36672  29.126  29.099  12.352
76928NA+    NA+36673  24.558  18.212  13.444
76929NA+    NA+36674  44.876  18.171   3.245
76930NA+    NA+36675  25.172  14.166  14.958
76931NA+    NA+36676  32.580  26.138   1.400
76932NA+    NA+36677  13.607   3.784  12.526
76933NA+    NA+36678   5.228  38.333   5.641
76934NA+    NA+36679  40.042  16.722   2.887
76935NA+    NA+36680  18.187   3.360   0.311
76936NA+    NA+36681  19.227  10.376  10.507
76937NA+    NA+36682  42.524  14.312  13.410
76938NA+    NA+36683   3.283  19.177  14.463
76939NA+    NA+36684  19.634   1.413   4.706
76940NA+    NA+36685  43.396   8.749   2.279
76941NA+    NA+36686   3.923  41.425  14.799
76942NA+    NA+36687  18.199  33.612   2.752
76943NA+    NA+36688  36.353  31.995   3.341
76944NA+    NA+36689  38.070  43.844   1.789
76945NA+    NA+36690  30.571  36.882   1.224
76946NA+    NA+36691   1.847  14.828   1.697
76947NA+    NA+36692  33.919  39.845   0.842
76948NA+    NA+36693  32.621  44.934   0.353
76949NA+    NA+36694  39.494  24.569  14.428
76950NA+    NA+36695   6.354  22.211   1.889
76951NA+    NA+36696  13.286  33.892   1.425
76952NA+    NA+36697   0.858  31.423   2.861
76953NA+    NA+36698  23.116  29.447   2.181
76954NA+    NA+36699  35.961  40.515  12.068
76955NA+    NA+36700  34.112  27.485   2.752
76956NA+    NA+36701  20.668  43.885  12.508
76957NA+    NA+36702  34.578  22.154  14.944
76958NA+    NA+36703  16.295   2.334  13.064
76959NA+    NA+36704  30.000  39.447   1.912
76960NA+    NA+36705   4.846  14.744  13.012
76961NA+    NA+36706   5.762  24.978   0.740
76962NA+    NA+36707  32.483  43.438   4.639
76963NA+    NA+36708  17.566  20.216  11.898
76964NA+    NA+36709   3.873  30.599  14.860
76965NA+    NA+36710   4.218  13.750  12.901
76966NA+    NA+36711  39.909  42.024   4.822
76967NA+    NA+36712  29.934   3.393  10.908
76968NA+    NA+36713  26.142  44.888  11.111
76969NA+    NA+36714  34.371  21.057  12.464
76970NA+    NA+36715   4.282   5.367   4.608
76971NA+    NA+36716  11.160   7.290   1.429
76972NA+    NA+36717  41.929  13.652  13.919
76973NA+    NA+36718  33.114  23.681   3.304
76974NA+    NA+36719  29.654  17.679  12.508
76975NA+    NA+36720   1.475   5.876  14.486
76976NA+    NA+36721  30.569   1.799  14.359
76977NA+    NA+36722  19.725  11.758   2.296
76978NA+    NA+36723  27.006  33.955  10.615
76979NA+    NA+36724  22.719  29.945   4.235
76980NA+    NA+36725  22.595  26.149  12.831
76981NA+    NA+36726  37.521  26.196  11.079
76982NA+    NA+36727  44.857  21.096  12.455
76983NA+    NA+36728  39.476   7.232  11.426
76984NA+    NA+36729  36.567  33.410   4.266
76985NA+    NA+36730  44.369  33.061  12.854
76986NA+    NA+36731  34.518  37.422   4.175
76987NA+    NA+36732  32.572   8.279   3.821
76988NA+    NA+36733  33.932  43.299  13.946
76989NA+    NA+36734   1.259   2.940  11.598
76990NA+    NA+36735  37.022   5.278   1.888
76991NA+    NA+36736   1.776   3.864   4.603
76992NA+    NA+36737  43.850  29.489  12.376
76993NA+    NA+36738  28.495   6.770  11.968
76994NA+    NA+36739   9.330  24.629   1.386
76995NA+    NA+36740  37.504  38.421   0.336
76996NA+    NA+36741  23.637   4.820  13.925
76997NA+    NA+36742  15.154   2.262  10.588
76998NA+    NA+36743  40.423  24.046   2.299
76999NA+    NA+36744  24.993  26.605  12.856
77000NA+    NA+36745  33.093  21.245   4.221
77001NA+    NA+36746  24.695  18.124   3.667
77002NA+    NA+36747  41.825  39.900   4.809
77003NA+    NA+36748  30.066  27.193  12.482
77004NA+    NA+36749   1.787  29.938  12.996
77005NA+    NA+36750   8.241   7.363   1.265
77006NA+    NA+36751  17.095  21.154   0.866
77007NA+    NA+36752  37.947  41.476   0.412
77008NA+    NA+36753  40.321  42.294  11.008
77009NA+    NA+36754  36.898  41.434   0.883
77010NA+    NA+36755  27.664  17.603   4.192
77011NA+    NA+36756  39.499  25.470   0.835
77012NA+    NA+36757  37.969  35.404  13.797
77013NA+    NA+36758   3.777  30.152  12.448
77014NA+    NA+36759  35.087  16.623  10.536
77015NA+    NA+36760   2.831  10.780   4.604
77016NA+    NA+36761  36.474   0.821   1.803
77017NA+    NA+36762  20.730   4.753  13.872
77018NA+    NA+36763  39.943  34.878  13.041
77019NA+    NA+36764  25.703   1.377   1.857
77020NA+    NA+36765  21.102  13.296   4.688
77021NA+    NA+36766  40.313  14.612   3.284
77022NA+    NA+36767  20.579  14.763  12.456
77023NA+    NA+36768  19.604   5.730   2.250
77024NA+    NA+36769  14.714   8.780   0.406
77025NA+    NA+36770  16.791  32.977   0.302
77026NA+    NA+36771  26.205  22.689  12.361
77027NA+    NA+36772  26.634  10.279   3.659
77028NA+    NA+36773  30.049   0.335  14.800
77029NA+    NA+36774   1.916  31.025  14.495
77030NA+    NA+36775  38.999   8.249   0.831
77031NA+    NA+36776  33.049  25.992  13.797
77032NA+    NA+36777  40.027  34.557  14.397
77033NA+    NA+36778  26.164  36.566  12.013
77034NA+    NA+36779  28.069  43.826  13.937
77035NA+    NA+36780   4.389  19.176  10.139
77036NA+    NA+36781   9.688  37.431   1.729
77037NA+    NA+36782   8.661  31.566  12.835
77038NA+    NA+36783  19.269  20.061   4.145
77039NA+    NA+36784  23.125  16.205  10.453
77040NA+    NA+36785  36.540  13.756   1.852
77041NA+    NA+36786  43.880   7.695   1.773
77042NA+    NA+36787  16.078  18.281   3.796
77043NA+    NA+36788  18.738  37.864   4.273
77044NA+    NA+36789   4.758  41.034   2.302
77045NA+    NA+36790  16.683  17.245   2.269
77046NA+    NA+36791  35.502  14.614   2.301
77047NA+    NA+36792  22.178  18.103   3.784
77048NA+    NA+36793  27.664   8.197   3.639
77049NA+    NA+36794  11.320  28.098  11.605
77050NA+    NA+36795  41.302  19.688  12.411
77051NA+    NA+36796   2.921  18.247  13.330
77052NA+    NA+36797   6.826  13.602   1.916
77053NA+    NA+36798   4.859  24.222  13.345
77054NA+    NA+36799  20.541  17.632  10.568
77055NA+    NA+36800   8.795  16.184  11.958
77056NA+    NA+36801   9.835   7.720   2.889
77057NA+    NA+36802  12.705  25.503   4.788
77058NA+    NA+36803  20.097  19.198   2.388
77059NA+    NA+36804  16.121  27.551  10.491
77060NA+    NA+36805  10.148   2.387   0.727
77061NA+    NA+36806  42.970  16.577  13.487
77062NA+    NA+36807   4.733  35.439   0.458
77063NA+    NA+36808   7.323  30.059   3.779
77064NA+    NA+36809  12.759   1.388  11.866
77065NA+    NA+36810  19.779  22.737   4.803
77066NA+    NA+36811  12.807  32.083  13.816
77067NA+    NA+36812  40.449   8.396   1.845
77068NA+    NA+36813   3.857  15.134   4.305
77069NA+    NA+36814  44.805  41.825   4.255
77070NA+    NA+36815  43.290  25.160  14.800
77071NA+    NA+36816  32.496  24.145  14.469
77072NA+    NA+36817  17.618   8.228   0.474
77073NA+    NA+36818  29.616  42.368   0.369
77074NA+    NA+36819  35.100  25.532   0.754
77075NA+    NA+36820  20.211  32.990   2.773
77076NA+    NA+36821  39.915  27.593   1.413
77077NA+    NA+36822  25.127  10.148  14.945
77078NA+    NA+36823  44.332  13.643   2.269
77079NA+    NA+36824  28.177   2.935   1.708
77080NA+    NA+36825  19.779  37.883  14.787
77081NA+    NA+36826  44.790  39.878  14.025
77082NA+    NA+36827  37.573  30.956   0.252
77083NA+    NA+36828  10.777  12.289   3.720
77084NA+    NA+36829  21.078  19.702  11.497
77085NA+    NA+36830  38.820  27.167  11.376
77086NA+    NA+36831  20.111  19.245   0.355
77087NA+    NA+36832  10.650  44.964  11.867
77088NA+    NA+36833  21.621  33.469   3.831
77089NA+    NA+36834   8.253   9.290  13.814
77090NA+    NA+36835  12.257  35.060   0.287
77091NA+    NA+36836  22.580  12.129   3.193
77092NA+    NA+36837  17.305  30.959  13.541
77093NA+    NA+36838  13.145  27.658  11.409
77094NA+    NA+36839   4.282  37.369   1.819
77095NA+    NA+36840  33.075   2.930  10.975
77096NA+    NA+36841   3.281  18.688  14.898
77097NA+    NA+36842  21.567  26.628  13.514
77098NA+    NA+36843  34.993  30.654  13.999
77099NA+    NA+36844   8.287   9.740   0.745
77100NA+    NA+36845  37.483  43.861   1.848
77101NA+    NA+36846  24.076  21.024   3.686
77102NA+    NA+36847  23.542  11.748   4.744
77103NA+    NA+36848  44.826  15.298  14.309
77104NA+    NA+36849  42.788  41.477   1.450
77105NA+    NA+36850  39.426   3.883   4.836
77106NA+    NA+36851  43.868  38.390   4.682
77107NA+    NA+36852  23.495  12.787   0.909
77108NA+    NA+36853  36.086  22.245  11.057
77109NA+    NA+36854   7.895   2.403   2.833
77110NA+    NA+36855  33.060  21.185  12.962
77111NA+    NA+36856  34.517   6.845  13.501
77112NA+    NA+36857  27.115  20.188   1.418
77113NA+    NA+36858   2.282  43.776   1.694
77114NA+    NA+36859  15.292  18.649   3.216
77115NA+    NA+36860  23.645  15.201  10.598
77116NA+    NA+36861   9.785  29.049   4.642
77117NA+    NA+36862  19.078  30.533   3.633
77118NA+    NA+36863  14.804  22.549   3.764
77119NA+    NA+36864   8.663  29.991  14.016
77120NA+    NA+36865  15.189  13.601  11.041
77121NA+    NA+36866  26.531   8.810   2.718
77122NA+    NA+36867   4.699  31.907   3.730
77123NA+    NA+36868  43.796  33.565   4.837
77124NA+    NA+36869  20.755  21.622  10.946
77125NA+    NA+36870  28.123  12.626  12.483
77126NA+    NA+36871  44.920  35.533   2.688
77127NA+    NA+36872  22.077  10.342  11.129
77128NA+    NA+36873   3.714  28.101   0.336
77129NA+    NA+36874   3.830   4.326   4.123
77130NA+    NA+36875  24.102  42.020  14.331
77131NA+    NA+36876   9.711  33.957  10.890
77132NA+    NA+36877  42.881   4.273   3.362
77133NA+    NA+36878  32.899  21.084  11.066
77134NA+    NA+36879  44.426  12.341   2.299
77135NA+    NA+36880  29.514  23.555  14.932
77136NA+    NA+36881  25.610  40.508  12.880
77137NA+    NA+36882  13.681   4.301  13.308
77138NA+    NA+36883  40.842  16.613  11.405
77139NA+    NA+36884  27.499  40.364  14.341
77140NA+    NA+36885  15.326   7.240  12.072
77141NA+    NA+36886  32.009  38.471  11.942
77142NA+    NA+36887  27.002  41.965  14.761
77143NA+    NA+36888  28.999  10.347  11.441
77144NA+    NA+36889  37.406  21.560  14.968
77145NA+    NA+36890  31.099  25.553   2.816
77146NA+    NA+36891  34.378   1.394  14.877
77147NA+    NA+36892  11.663  14.668  13.341
77148NA+    NA+36893  25.100  16.773   1.440
77149NA+    NA+36894  19.572   6.211  10.952
77150NA+    NA+36895  42.898  17.739   2.289
77151NA+    NA+36896  30.545  36.073   2.709
77152NA+    NA+36897   8.216   4.700  12.535
77153NA+    NA+36898  17.573  42.989   0.361
77154NA+    NA+36899  31.492  16.654  10.934
77155NA+    NA+36900  10.219  15.811  13.956
77156NA+    NA+36901  29.601  20.591   4.162
77157NA+    NA+36902  17.740  11.867  14.766
77158NA+    NA+36903   8.834  18.684   0.731
77159NA+    NA+36904   8.294  21.706  10.432
77160NA+    NA+36905  41.016  40.367   1.428
77161NA+    NA+36906  40.387  13.270   3.202
77162NA+    NA+36907   5.315  21.534   2.238
77163NA+    NA+36908  42.943   1.787  10.005
77164NA+    NA+36909  21.120  42.396   2.902
77165NA+    NA+36910   7.761  25.529   2.747
77166NA+    NA+36911  42.340  34.906  12.948
77167NA+    NA+36912  28.490  18.562   3.313
77168NA+    NA+36913  39.437  38.327   0.468
77169NA+    NA+36914  31.458  20.090   5.096
77170NA+    NA+36915  42.790  12.240  11.126
77171NA+    NA+36916   3.304  37.009   1.428
77172NA+    NA+36917  25.629  36.942   1.710
77173NA+    NA+36918  14.151  31.647   1.812
77174NA+    NA+36919  27.471  36.053  12.946
77175NA+    NA+36920   2.425  44.805  12.426
77176NA+    NA+36921  43.383  31.522  13.312
77177NA+    NA+36922  29.042   1.818   2.258
77178NA+    NA+36923  13.678   6.409   0.411
77179NA+    NA+36924   3.442   5.252   1.750
77180NA+    NA+36925  19.733  11.287  11.003
77181NA+    NA+36926  41.361  10.733   3.652
77182NA+    NA+36927  23.565  27.633  10.482
77183NA+    NA+36928  30.462  39.374  11.428
77184NA+    NA+36929   0.764  14.731  13.963
77185NA+    NA+36930   5.412  18.568   4.158
77186NA+    NA+36931  13.176  41.943   0.304
77187NA+    NA+36932  19.684  30.461   0.754
77188NA+    NA+36933  35.039   2.243  14.516
77189NA+    NA+36934  28.992  36.899  10.405
77190NA+    NA+36935  15.737  40.025   4.645
77191NA+    NA+36936  36.008  10.182   1.323
77192NA+    NA+36937  14.261  14.802   3.366
77193NA+    NA+36938  19.641  21.074  14.940
77194NA+    NA+36939  40.956  28.157   2.687
77195NA+    NA+36940   9.173  20.193  12.382
77196NA+    NA+36941  44.881   4.212  13.321
77197NA+    NA+36942  22.008  36.381   1.442
77198NA+    NA+36943  12.637  30.165  13.384
77199NA+    NA+36944  33.948  31.516   1.263
77200NA+    NA+36945   1.881  24.156   0.332
77201NA+    NA+36946   5.712  32.565   1.749
77202NA+    NA+36947  30.004  33.389   4.679
77203NA+    NA+36948  33.059  30.568  14.982
77204NA+    NA+36949  25.110  42.330   3.371
77205NA+    NA+36950  19.115  43.876   2.399
77206NA+    NA+36951  41.835  24.041  11.590
77207NA+    NA+36952  31.640  32.956   4.799
77208NA+    NA+36953  14.146  36.874   4.248
77209NA+    NA+36954  21.633   6.782   4.313
77210NA+    NA+36955  13.668   8.319  12.004
77211NA+    NA+36956  10.682  44.300   1.280
77212NA+    NA+36957  13.200  37.941   0.470
77213NA+    NA+36958  19.218  40.325   4.762
77214NA+    NA+36959  14.816  12.689  10.620
77215NA+    NA+36960  38.488  12.832  14.307
77216NA+    NA+36961  11.346  14.309  14.395
77217NA+    NA+36962   9.709  40.804  11.933
77218NA+    NA+36963  36.850  14.736  12.827
77219NA+    NA+36964  38.972  14.688  13.902
77220NA+    NA+36965  36.992  24.657  11.409
77221NA+    NA+36966  31.609  44.971  13.999
77222NA+    NA+36967  30.956  35.384  13.025
77223NA+    NA+36968  40.849   0.366   2.309
77224NA+    NA+36969  21.633  30.654  14.935
77225NA+    NA+36970  25.978  16.598  14.277
77226NA+    NA+36971  26.604  18.224   1.388
77227NA+    NA+36972  17.069   5.819  12.068
77228NA+    NA+36973  31.581   5.922   2.792
77229NA+    NA+36974  31.541  17.610  12.843
77230NA+    NA+36975  40.996   8.680   3.660
77231NA+    NA+36976  12.692  17.683   1.767
77232NA+    NA+36977   0.484   0.325   4.730
77233NA+    NA+36978  41.003  15.164  11.583
77234NA+    NA+36979   3.905  12.294  11.392
77235NA+    NA+36980  42.943  41.953  10.577
77236NA+    NA+36981  44.823   5.744  13.327
77237NA+    NA+36982  20.092  23.656  12.542
77238NA+    NA+36983   8.684   9.870  11.047
77239NA+    NA+36984  38.871  11.363   2.380
77240NA+    NA+36985  34.986  32.467   4.205
77241NA+    NA+36986  18.557  44.849  14.297
77242NA+    NA+36987  40.501   0.409   2.303
77243NA+    NA+36988  24.614  24.719   1.320
77244NA+    NA+36989  42.022  10.282  12.448
77245NA+    NA+36990  43.376   6.230   3.225
77246NA+    NA+36991  29.014  26.134   0.927
77247NA+    NA+36992   1.833  39.383  11.396
77248NA+    NA+36993  28.134  19.607  10.502
77249NA+    NA+36994   6.355   7.809   4.167
77250NA+    NA+36995  14.271  17.594   3.234
77251NA+    NA+36996  38.432  38.474  10.434
77252NA+    NA+36997  34.442  24.088  10.493
77253NA+    NA+36998   2.822   9.858  13.925
77254NA+    NA+36999  17.234  15.780  12.887
77255NA+    NA+37000  42.018  14.236   1.409
77256NA+    NA+37001   9.728   2.428  10.528
77257NA+    NA+37002  40.010   6.380  10.636
77258NA+    NA+37003  35.072   5.308  12.540
77259NA+    NA+37004  30.144  18.684  12.457
77260NA+    NA+37005  16.225  33.440  12.997
77261NA+    NA+37006  29.582  40.492  10.494
77262NA+    NA+37007  14.187  13.675  14.371
77263NA+    NA+37008   0.798  28.158   0.859
77264NA+    NA+37009  17.746  39.509   2.770
77265NA+    NA+37010  21.252  40.008  13.389
77266NA+    NA+37011  44.003  41.479  14.429
77267NA+    NA+37012  22.228   2.887  13.327
77268NA+    NA+37013  28.179  43.481   1.403
77269NA+    NA+37014  22.508  21.631  13.311
77270NA+    NA+37015   9.365  26.476  14.008
77271NA+    NA+37016  21.681  25.992  13.800
77272NA+    NA+37017  19.191  33.088   4.650
77273NA+    NA+37018  20.159  10.759   1.885
77274NA+    NA+37019  36.568  15.781   0.254
77275NA+    NA+37020  39.008  27.506  14.965
77276NA+    NA+37021   3.369  42.781  14.902
77277NA+    NA+37022  21.090  27.692  13.535
77278NA+    NA+37023  38.333   2.255  10.920
77279NA+    NA+37024  42.319  16.167   0.449
77280NA+    NA+37025  37.929  34.880  10.491
77281NA+    NA+37026  37.574  34.478  11.450
77282NA+    NA+37027  24.533   1.275  13.976
77283NA+    NA+37028  35.945  36.988   3.313
77284NA+    NA+37029   4.891  17.206  11.950
77285NA+    NA+37030   3.860   0.959   3.157
77286NA+    NA+37031   3.217  19.215   2.270
77287NA+    NA+37032  29.109  43.367   1.324
77288NA+    NA+37033  16.163   4.712  13.487
77289NA+    NA+37034  32.554  23.623  11.594
77290NA+    NA+37035  31.110  42.384  14.352
77291NA+    NA+37036   9.339  31.634  13.039
77292NA+    NA+37037  29.513  44.830   4.823
77293NA+    NA+37038  18.729  15.112  11.108
77294NA+    NA+37039  14.715   9.338  10.934
77295NA+    NA+37040   3.239  27.973   4.822
77296NA+    NA+37041   5.901  38.921   0.952
77297NA+    NA+37042  38.941  31.588  14.938
77298NA+    NA+37043   8.345  15.745  12.890
77299NA+    NA+37044  24.697  26.006   3.333
77300NA+    NA+37045  10.290  13.833  11.855
77301NA+    NA+37046   8.167  20.157   1.270
77302NA+    NA+37047  36.380  43.362   2.761
77303NA+    NA+37048   7.759  37.844   4.349
77304NA+    NA+37049  15.618  42.840   3.703
77305NA+    NA+37050  38.502  40.433   0.300
77306NA+    NA+37051  20.160  44.291  11.881
77307NA+    NA+37052  26.502  14.794  14.465
77308NA+    NA+37053  34.944   2.429   0.815
77309NA+    NA+37054  42.883  10.856  14.886
77310NA+    NA+37055  19.605  38.870   4.706
77311NA+    NA+37056  19.140  17.566   4.143
77312NA+    NA+37057  30.134  13.114  13.858
77313NA+    NA+37058  20.042  39.910   4.661
77314NA+    NA+37059   6.225   3.817   0.318
77315NA+    NA+37060  44.917   4.716   0.840
77316NA+    NA+37061  30.656  21.072  11.509
77317NA+    NA+37062  12.836  26.614  14.814
77318NA+    NA+37063   5.707  12.720   3.820
77319NA+    NA+37064  30.627  29.463   3.817
77320NA+    NA+37065  15.685  31.035  12.416
77321NA+    NA+37066  29.641  15.591  10.491
77322NA+    NA+37067  37.513  19.595   1.855
77323NA+    NA+37068  29.586  11.148   2.293
77324NA+    NA+37069  23.065  16.210   1.245
77325NA+    NA+37070   3.912   6.355  10.565
77326NA+    NA+37071  22.069   2.398   1.389
77327NA+    NA+37072  29.669  27.995   2.830
77328NA+    NA+37073  26.029  26.682   1.301
77329NA+    NA+37074  29.141  11.629  13.518
77330NA+    NA+37075   5.726  32.518  13.846
77331NA+    NA+37076  38.500   7.890   2.409
77332NA+    NA+37077  11.671  24.605  13.919
77333NA+    NA+37078  43.940  38.982  14.448
77334NA+    NA+37079  14.271   0.758  10.623
77335NA+    NA+37080  14.819   9.850  11.424
77336NA+    NA+37081  12.704  16.759  14.284
77337NA+    NA+37082   7.210  28.138  13.361
77338NA+    NA+37083  18.111  24.003   1.900
77339NA+    NA+37084  27.689  39.432  13.837
77340NA+    NA+37085  26.544  15.665  14.372
77341NA+    NA+37086   9.711   7.730  14.303
77342NA+    NA+37087  17.722  23.624  10.637
77343NA+    NA+37088  17.720  10.216  11.495
77344NA+    NA+37089  33.517  40.376  10.520
77345NA+    NA+37090   4.286  10.831   3.207
77346NA+    NA+37091  37.337  43.864  10.531
77347NA+    NA+37092   0.923  41.954   1.719
77348NA+    NA+37093  14.812  21.248   0.305
77349NA+    NA+37094   6.715  39.364  13.002
77350NA+    NA+37095   9.666  21.750  11.912
77351NA+    NA+37096  36.865  42.846  13.500
77352NA+    NA+37097  18.710  41.989   2.235
77353NA+    NA+37098  43.895  16.093   2.855
77354NA+    NA+37099  13.265  23.611   1.833
77355NA+    NA+37100  14.594   7.745  14.965
77356NA+    NA+37101  35.574  37.842   4.719
77357NA+    NA+37102  10.222   1.733   3.314
77358NA+    NA+37103  14.601  10.656  11.118
77359NA+    NA+37104  20.705  24.043  12.833
77360NA+    NA+37105  42.527  42.829  11.876
77361NA+    NA+37106  20.710  43.984   1.728
77362NA+    NA+37107   5.757  37.989  11.597
77363NA+    NA+37108  22.669   2.793  10.921
77364NA+    NA+37109   3.318  43.399   3.273
77365NA+    NA+37110  35.387   2.278  11.947
77366NA+    NA+37111  25.534  10.700  13.503
77367NA+    NA+37112  27.106  18.128   5.282
77368NA+    NA+37113  12.246  37.457   3.634
77369NA+    NA+37114  31.059  11.858   3.750
77370NA+    NA+37115  39.551  39.405  13.525
77371NA+    NA+37116  29.586  25.713   4.728
77372NA+    NA+37117   2.896  11.707   4.770
77373NA+    NA+37118  10.237  10.231  10.991
77374NA+    NA+37119  34.499  19.621  14.478
77375NA+    NA+37120  30.588   3.349  12.437
77376NA+    NA+37121  40.951  21.104  10.600
77377NA+    NA+37122  40.372  20.044  10.963
77378NA+    NA+37123  19.207  28.575  12.085
77379NA+    NA+37124  42.369  43.289   0.884
77380NA+    NA+37125  33.608  17.595  10.492
77381NA+    NA+37126  19.776  36.936   3.834
77382NA+    NA+37127  31.582  41.507  14.953
77383NA+    NA+37128  44.853   9.769   3.802
77384NA+    NA+37129   6.819  31.088   1.347
77385NA+    NA+37130   2.957  20.092   1.400
77386NA+    NA+37131  24.017  35.588   3.860
77387NA+    NA+37132  43.434  32.505  12.030
77388NA+    NA+37133  30.984  13.706   3.184
77389NA+    NA+37134   7.796  15.248   2.703
77390NA+    NA+37135  14.825  13.139  10.585
77391NA+    NA+37136   2.862  43.483   2.720
77392NA+    NA+37137  14.629   7.843  12.578
77393NA+    NA+37138  29.436  13.119  10.911
77394NA+    NA+37139  43.495  44.951   4.693
77395NA+    NA+37140  18.687  23.721  11.562
77396NA+    NA+37141  13.605  10.770  14.420
77397NA+    NA+37142  30.413  32.496   5.276
77398NA+    NA+37143  24.589  39.355  12.898
77399NA+    NA+37144  28.606  42.301  12.020
77400NA+    NA+37145  14.637   4.797  10.995
77401NA+    NA+37146   5.829  24.679   4.153
77402NA+    NA+37147  21.756  15.725   4.286
77403NA+    NA+37148   5.859   1.938   4.264
77404NA+    NA+37149  14.633  40.428  12.404
77405NA+    NA+37150  28.543  42.283  14.402
77406NA+    NA+37151  23.042  20.757   0.928
77407NA+    NA+37152  40.821  17.268  13.826
77408NA+    NA+37153  18.648  20.768   3.273
77409NA+    NA+37154  18.110  29.630  12.855
77410NA+    NA+37155  26.653  24.612   3.249
77411NA+    NA+37156   7.906  42.313   4.190
77412NA+    NA+37157  31.906  13.122   2.843
77413NA+    NA+37158  22.584   4.870  13.890
77414NA+    NA+37159  43.877  17.063   4.298
77415NA+    NA+37160  34.384   3.304   1.287
77416NA+    NA+37161   7.344  13.601   2.372
77417NA+    NA+37162   3.848   0.488   1.437
77418NA+    NA+37163  43.797  37.853   2.286
77419NA+    NA+37164  15.764  14.629  13.000
77420NA+    NA+37165  22.651  10.339   1.915
77421NA+    NA+37166  10.750  33.618  14.501
77422NA+    NA+37167   6.809   4.805  10.517
77423NA+    NA+37168  18.708   7.291  11.598
77424NA+    NA+37169  26.683  23.179  14.994
77425NA+    NA+37170  25.511  18.083   0.774
77426NA+    NA+37171   6.206  14.298   0.862
77427NA+    NA+37172   7.264  13.650  11.429
77428NA+    NA+37173  12.190   0.752   3.631
77429NA+    NA+37174  19.133  15.212  14.497
77430NA+    NA+37175   3.739  12.150   1.921
77431NA+    NA+37176  30.464  34.432  13.414
77432NA+    NA+37177  22.204  27.064   4.119
77433NA+    NA+37178  35.590  38.459  11.513
77434NA+    NA+37179   0.341  38.979  11.440
77435NA+    NA+37180  29.053  24.606   0.370
77436NA+    NA+37181  11.345  12.284  11.955
77437NA+    NA+37182  26.980   1.783  10.570
77438NA+    NA+37183  29.524  12.776   9.947
77439NA+    NA+37184  37.545  37.575  12.849
77440NA+    NA+37185  14.115  31.422   1.281
77441NA+    NA+37186   0.372  24.088   4.118
77442NA+    NA+37187  35.890  17.624   1.806
77443NA+    NA+37188   8.223   2.377  11.874
77444NA+    NA+37189  33.064   7.303   3.180
77445NA+    NA+37190   4.378  37.982  14.328
77446NA+    NA+37191  43.290  37.877   2.374
77447NA+    NA+37192   0.881  39.972   0.465
77448NA+    NA+37193  39.926  13.778   0.740
77449NA+    NA+37194  14.113  11.707  13.842
77450NA+    NA+37195   4.241   2.839  14.846
77451NA+    NA+37196  30.508  32.911  13.358
77452NA+    NA+37197  22.650  35.919   9.940
77453NA+    NA+37198  28.470  17.607   3.847
77454NA+    NA+37199  19.108  37.538   1.752
77455NA+    NA+37200  30.570   5.743   1.718
77456NA+    NA+37201  10.322  19.682   3.260
77457NA+    NA+37202  21.203  23.089  11.115
77458NA+    NA+37203  22.527  36.455  11.389
77459NA+    NA+37204  38.448  35.015   3.747
77460NA+    NA+37205   6.197   4.743   1.350
77461NA+    NA+37206  24.222  12.131   1.328
77462NA+    NA+37207  32.044  42.953   2.663
77463NA+    NA+37208  28.014  33.080  10.074
77464NA+    NA+37209  41.945  33.484  10.114
77465NA+    NA+37210  14.235  34.541   5.566
77466NA+    NA+37211  10.376  36.546   5.318
77467NA+    NA+37212  34.501   5.888  12.892
77468NA+    NA+37213  40.463  10.274  11.495
77469NA+    NA+37214  26.487  37.560  11.438
77470NA+    NA+37215  16.740  21.641  13.392
77471NA+    NA+37216  25.183  30.441  13.054
77472NA+    NA+37217   3.767  18.119   0.271
77473NA+    NA+37218  19.568  39.831   2.362
77474NA+    NA+37219  40.362  10.751  13.317
77475NA+    NA+37220  41.902  28.656   2.182
77476NA+    NA+37221  10.855  12.706   1.448
77477NA+    NA+37222  44.762  28.579  12.511
77478NA+    NA+37223  32.441  21.678  13.340
77479NA+    NA+37224  27.688  22.008   4.354
77480NA+    NA+37225  36.854  35.602  11.956
77481NA+    NA+37226  43.340  31.467  10.958
77482NA+    NA+37227   6.293  13.643   0.797
77483NA+    NA+37228  25.665  33.929  12.939
77484NA+    NA+37229  42.451   1.932   0.748
77485NA+    NA+37230  29.116  32.943   4.680
77486NA+    NA+37231  25.069  19.553  13.889
77487NA+    NA+37232   6.214  33.044  13.880
77488NA+    NA+37233  14.200  25.679   1.370
77489NA+    NA+37234  22.187  44.965  11.451
77490NA+    NA+37235  38.023  21.517   4.751
77491NA+    NA+37236  39.431  38.453   3.738
77492NA+    NA+37237  29.584  14.148  12.863
77493NA+    NA+37238  22.637  41.845   1.766
77494NA+    NA+37239   8.660  31.953   1.837
77495NA+    NA+37240  21.137   9.333   4.293
77496NA+    NA+37241  30.966  12.824  14.470
77497NA+    NA+37242  36.022  17.782   0.807
77498NA+    NA+37243  12.720  11.223  11.428
77499NA+    NA+37244  33.009  18.173   1.907
77500NA+    NA+37245  19.162  34.025  12.011
77501NA+    NA+37246   1.779  11.310  14.781
77502NA+    NA+37247  40.843  21.173  12.374
77503NA+    NA+37248  37.515  39.914   9.933
77504NA+    NA+37249   0.754  17.762  12.349
77505NA+    NA+37250  19.184   7.771   3.374
77506NA+    NA+37251  31.473  17.621  11.056
77507NA+    NA+37252  19.764  15.668   3.711
77508NA+    NA+37253  17.619   3.947   9.924
77509NA+    NA+37254  37.874  43.888   0.270
77510NA+    NA+37255  21.047  28.980  10.968
77511NA+    NA+37256  27.475  41.392   0.430
77512NA+    NA+37257  33.392   7.299   2.772
77513NA+    NA+37258  34.434  20.604  10.516
77514NA+    NA+37259   7.189  25.216  13.332
77515NA+    NA+37260  35.485  32.542   2.185
77516NA+    NA+37261  12.312   9.348   4.118
77517NA+    NA+37262  30.647  12.283   2.788
77518NA+    NA+37263  37.080  13.302  12.490
77519NA+    NA+37264  13.745  13.245   0.849
77520NA+    NA+37265  38.875  44.802  14.790
77521NA+    NA+37266  40.336  35.930   0.770
77522NA+    NA+37267  21.053   6.791   0.911
77523NA+    NA+37268   6.834   7.882   0.858
77524NA+    NA+37269  25.002   9.260  10.519
77525NA+    NA+37270  23.728  31.104   1.442
77526NA+    NA+37271  33.094  30.950   1.281
77527NA+    NA+37272   8.178   1.954  10.975
77528NA+    NA+37273  20.767  12.354   1.325
77529NA+    NA+37274  40.854   0.281   0.412
77530NA+    NA+37275  27.061  41.459   1.826
77531NA+    NA+37276  16.791   7.882   0.406
77532NA+    NA+37277  22.030   4.356  14.771
77533NA+    NA+37278  42.355  19.222  11.977
77534NA+    NA+37279  29.043  40.025  13.038
77535NA+    NA+37280   2.264   7.411  14.471
77536NA+    NA+37281   2.748  30.968  11.580
77537NA+    NA+37282  38.075   2.273   3.160
77538NA+    NA+37283   3.279   2.839  13.009
77539NA+    NA+37284  31.952   8.685  14.374
77540NA+    NA+37285  27.519  14.589  11.545
77541NA+    NA+37286   0.800   8.898  10.581
77542NA+    NA+37287  31.634  17.624   3.785
77543NA+    NA+37288  41.963  16.233   1.795
77544NA+    NA+37289  36.419  11.186   4.641
77545NA+    NA+37290  21.221  13.349   1.413
77546NA+    NA+37291   5.778  10.787  12.518
77547NA+    NA+37292  23.687   4.341  10.973
77548NA+    NA+37293  19.127  20.597  13.001
77549NA+    NA+37294  21.693  12.306   0.964
77550NA+    NA+37295  26.488  44.454   5.196
77551NA+    NA+37296   3.921  16.812  12.474
77552NA+    NA+37297  12.317  12.854   1.331
77553NA+    NA+37298  25.167  39.921   2.772
77554NA+    NA+37299  37.074  25.004  14.786
77555NA+    NA+37300  34.005  35.938   0.913
77556NA+    NA+37301  38.928  28.032  13.545
77557NA+    NA+37302  15.781  23.146   2.830
77558NA+    NA+37303   4.776  33.911  14.808
77559NA+    NA+37304  27.013  13.318  13.416
77560NA+    NA+37305  23.016   9.395   4.236
77561NA+    NA+37306  13.166  43.863  10.454
77562NA+    NA+37307  44.895  17.646  10.967
77563NA+    NA+37308   9.383  14.327  12.873
77564NA+    NA+37309  20.130  34.433  14.475
77565NA+    NA+37310   0.980  19.041  14.817
77566NA+    NA+37311   6.377   3.900  10.921
77567NA+    NA+37312  31.145  30.013   3.344
77568NA+    NA+37313  43.327  29.922   2.298
77569NA+    NA+37314  30.579  42.495  13.963
77570NA+    NA+37315  30.530  39.482  12.481
77571NA+    NA+37316   4.721  17.197   4.764
77572NA+    NA+37317   4.336  27.176  13.423
77573NA+    NA+37318   0.870  36.580   4.607
77574NA+    NA+37319   6.285  27.947   2.666
77575NA+    NA+37320  14.298   0.419   1.348
77576NA+    NA+37321   8.862  23.558   0.389
77577NA+    NA+37322  20.029  38.990   3.204
77578NA+    NA+37323   8.792  22.145  11.084
77579NA+    NA+37324  41.028  23.657  12.545
77580NA+    NA+37325   5.386  23.124   0.433
77581NA+    NA+37326  27.470  25.969   2.689
77582NA+    NA+37327   2.864  18.144   0.771
77583NA+    NA+37328   9.372  40.897  13.490
77584NA+    NA+37329  28.135  19.046  10.409
77585NA+    NA+37330   6.391   2.412  11.393
77586NA+    NA+37331  39.963  23.634   2.235
77587NA+    NA+37332   8.392  19.128  10.429
77588NA+    NA+37333   0.362  29.954   2.191
77589NA+    NA+37334  31.066  40.519   1.223
77590NA+    NA+37335  27.631  28.662   2.192
77591NA+    NA+37336  41.440  39.405  10.504
77592NA+    NA+37337  41.809  23.721  14.002
77593NA+    NA+37338  24.654  18.279   9.655
77594NA+    NA+37339   4.700  25.005   4.303
77595NA+    NA+37340  11.822  22.218   0.445
77596NA+    NA+37341  29.565  21.235   5.321
77597NA+    NA+37342  16.736   4.244   3.681
77598NA+    NA+37343  10.858  36.421   4.614
77599NA+    NA+37344  12.781   5.750  10.999
77600NA+    NA+37345  39.371   2.735  12.047
77601NA+    NA+37346  39.557  29.027  11.509
77602NA+    NA+37347  27.462  12.686   2.339
77603NA+    NA+37348   8.385   8.161  10.434
77604NA+    NA+37349   9.831  27.060  14.913
77605NA+    NA+37350  41.465  37.011  11.067
77606NA+    NA+37351  33.009  11.251   4.208
77607NA+    NA+37352  18.548  24.086  14.326
77608NA+    NA+37353  10.660   2.784   1.811
77609NA+    NA+37354  37.431  14.324  11.041
77610NA+    NA+37355  16.134  19.061   1.862
77611NA+    NA+37356   1.481  37.416  10.573
77612NA+    NA+37357  36.559  29.549  14.481
77613NA+    NA+37358  22.647  12.661   0.734
77614NA+    NA+37359  30.479  39.408   4.663
77615NA+    NA+37360  17.131  24.988   3.207
77616NA+    NA+37361  43.293  29.546   0.951
77617NA+    NA+37362  30.634  32.529   2.840
77618NA+    NA+37363   9.819  27.042   0.809
77619NA+    NA+37364  44.455  26.058   4.149
77620NA+    NA+37365   6.239  25.525  13.380
77621NA+    NA+37366  11.127  11.289   0.951
77622NA+    NA+37367  28.960  23.494  14.386
77623NA+    NA+37368  31.618   3.228  11.897
77624NA+    NA+37369  19.204   7.776  12.427
77625NA+    NA+37370  18.070   9.657   1.833
77626NA+    NA+37371  35.412   5.787  11.416
77627NA+    NA+37372  15.778   5.895   2.777
77628NA+    NA+37373  33.475  32.072  14.964
77629NA+    NA+37374  40.423  13.193   1.220
77630NA+    NA+37375  35.860  19.087   3.359
77631NA+    NA+37376  34.920  44.825   2.272
77632NA+    NA+37377  31.128  22.630  10.983
77633NA+    NA+37378   0.404  18.583   1.426
77634NA+    NA+37379   2.270  19.214   3.264
77635NA+    NA+37380  14.763   0.937  11.398
77636NA+    NA+37381  16.774  16.612  14.469
77637NA+    NA+37382   3.768   7.893  10.472
77638NA+    NA+37383   9.320  14.792  11.117
77639NA+    NA+37384  23.119   6.235   1.409
77640NA+    NA+37385   2.426  44.307   1.878
77641NA+    NA+37386  41.537   8.858  13.874
77642NA+    NA+37387   5.321   3.429  11.111
77643NA+    NA+37388  43.498  42.303   4.689
77644NA+    NA+37389   4.709  17.100  14.869
77645NA+    NA+37390  37.411  32.993   3.727
77646NA+    NA+37391   3.902  19.125  14.441
77647NA+    NA+37392  21.651   7.692  14.396
77648NA+    NA+37393  24.011  42.987  10.436
77649NA+    NA+37394  29.971  26.166   3.779
77650NA+    NA+37395  12.329   2.280   0.895
77651NA+    NA+37396  16.210   8.814  11.573
77652NA+    NA+37397  20.125  11.220   2.669
77653NA+    NA+37398  26.998  11.649  10.000
77654NA+    NA+37399  26.073  21.749   2.193
77655NA+    NA+37400  13.693  22.552   0.791
77656NA+    NA+37401  29.466   2.344  14.350
77657NA+    NA+37402  16.762  24.985   2.775
77658NA+    NA+37403   1.362  13.772  14.362
77659NA+    NA+37404  33.934   0.842  10.570
77660NA+    NA+37405  35.593  37.064  10.430
77661NA+    NA+37406  30.476  27.495   1.224
77662NA+    NA+37407  21.579  40.014   3.246
77663NA+    NA+37408  16.290  25.007  14.929
77664NA+    NA+37409  25.707  11.787  11.501
77665NA+    NA+37410  33.070  41.330   0.857
77666NA+    NA+37411   3.403   6.325  12.079
77667NA+    NA+37412   5.788   9.339   4.809
77668NA+    NA+37413  44.459  19.265  11.927
77669NA+    NA+37414  25.693  31.992   1.227
77670NA+    NA+37415  31.640  19.150  13.439
77671NA+    NA+37416  25.113  30.967   2.340
77672NA+    NA+37417   2.736   5.369  11.055
77673NA+    NA+37418   8.898  23.154  12.046
77674NA+    NA+37419  32.974  35.538  12.466
77675NA+    NA+37420  26.659   1.350  10.536
77676NA+    NA+37421  12.821  15.691  13.937
77677NA+    NA+37422  18.557   6.770   2.302
77678NA+    NA+37423  28.600   5.310   0.803
77679NA+    NA+37424  22.058  16.636  12.973
77680NA+    NA+37425  35.095  15.790   1.700
77681NA+    NA+37426   9.875  37.064   3.275
77682NA+    NA+37427  42.963  42.434  10.510
77683NA+    NA+37428  16.782  28.177  11.037
77684NA+    NA+37429   9.726  26.199   4.629
77685NA+    NA+37430  22.546  35.386  10.525
77686NA+    NA+37431  12.145  34.521   2.747
77687NA+    NA+37432  14.832  38.389  14.405
77688NA+    NA+37433  33.042  13.842   4.600
77689NA+    NA+37434  32.569  37.452  11.424
77690NA+    NA+37435  41.042  17.685  13.404
77691NA+    NA+37436  28.032  26.681  10.578
77692NA+    NA+37437  12.815  44.841  14.794
77693NA+    NA+37438  10.684  12.268   4.316
77694NA+    NA+37439  24.173  31.127   1.314
77695NA+    NA+37440  29.551  44.893  11.923
77696NA+    NA+37441  36.531  42.925   3.803
77697NA+    NA+37442  28.569  13.682  11.895
77698NA+    NA+37443  18.066  36.352  10.541
77699NA+    NA+37444  39.393   0.846   0.746
77700NA+    NA+37445  22.717   3.340  12.085
77701NA+    NA+37446  11.756  23.076  10.601
77702NA+    NA+37447   6.310  20.204  14.795
77703NA+    NA+37448  33.056  23.219  10.568
77704NA+    NA+37449  24.693   2.896  12.835
77705NA+    NA+37450  42.519  19.095  14.843
77706NA+    NA+37451  40.503  17.798   0.911
77707NA+    NA+37452  24.626  40.983   0.829
77708NA+    NA+37453  38.563  40.423  11.420
77709NA+    NA+37454  44.496  12.683  12.890
77710NA+    NA+37455   3.382  26.480   2.212
77711NA+    NA+37456  31.422  44.917  13.393
77712NA+    NA+37457  24.678   8.296   0.281
77713NA+    NA+37458  18.233  22.064   2.332
77714NA+    NA+37459  13.198  41.413   3.708
77715NA+    NA+37460  16.752  34.048  11.492
77716NA+    NA+37461  13.170  22.590  13.346
77717NA+    NA+37462  19.675  32.486  14.306
77718NA+    NA+37463   1.431  44.466   0.810
77719NA+    NA+37464   1.885  28.001  10.935
77720NA+    NA+37465   0.905  32.000  12.955
77721NA+    NA+37466  15.593  33.399  12.051
77722NA+    NA+37467  22.070  18.703   2.413
77723NA+    NA+37468   9.191  11.818   1.740
77724NA+    NA+37469  10.253  39.826  12.386
77725NA+    NA+37470   1.462   9.191   0.398
77726NA+    NA+37471  44.280  10.800  14.865
77727NA+    NA+37472  28.075  44.925  10.596
77728NA+    NA+37473  21.601  34.399  13.940
77729NA+    NA+37474  38.919  33.952   1.709
77730NA+    NA+37475   1.814  23.995   4.237
77731NA+    NA+37476  33.488  37.047  12.852
77732NA+    NA+37477   7.776  32.006   1.774
77733NA+    NA+37478  42.968   0.315  12.090
77734NA+    NA+37479  44.403  10.861   1.782
77735NA+    NA+37480  25.065  33.077   2.842
77736NA+    NA+37481  26.543  19.283  11.991
77737NA+    NA+37482  38.875  15.162  12.085
77738NA+    NA+37483  32.563  32.947   4.178
77739NA+    NA+37484  43.305  19.104  11.586
77740NA+    NA+37485   4.393   4.911  11.560
77741NA+    NA+37486  22.536  13.826  12.370
77742NA+    NA+37487  38.972   4.216  13.399
77743NA+    NA+37488  19.186  39.965   3.758
77744NA+    NA+37489  26.203  15.294   5.731
77745NA+    NA+37490  29.047  36.084  11.947
77746NA+    NA+37491  27.062  32.934  12.835
77747NA+    NA+37492  15.617  43.889  11.912
77748NA+    NA+37493  16.755  43.404  13.435
77749NA+    NA+37494  11.708   6.297  11.484
77750NA+    NA+37495   4.419  16.295  12.455
77751NA+    NA+37496  35.947   9.381   3.686
77752NA+    NA+37497  41.362  33.035  12.525
77753NA+    NA+37498  44.780   7.832   0.943
77754NA+    NA+37499  13.316  20.643  14.484
77755NA+    NA+37500  18.667  13.774   2.235
77756NA+    NA+37501  34.975  35.104  10.506
77757NA+    NA+37502  30.513  41.828   1.879
77758NA+    NA+37503  34.040  12.233   3.857
77759NA+    NA+37504   2.326  37.986   2.368
77760NA+    NA+37505  15.151  38.986  10.991
77761NA+    NA+37506  28.546  32.966  13.827
77762NA+    NA+37507  20.191  34.023   2.902
77763NA+    NA+37508  28.028  15.578  11.024
77764NA+    NA+37509   3.871  30.589   3.813
77765NA+    NA+37510   3.806  42.510  11.924
77766NA+    NA+37511  34.990  39.524   0.446
77767NA+    NA+37512  10.294  31.041  11.026
77768NA+    NA+37513  19.713  29.082  14.811
77769NA+    NA+37514  19.279   7.412   0.838
77770NA+    NA+37515  39.957  32.628  12.884
77771NA+    NA+37516  21.202  43.270   1.268
77772NA+    NA+37517  41.423   0.249  14.951
77773NA+    NA+37518   1.340  41.822   4.286
77774NA+    NA+37519   8.656  25.586  13.002
77775NA+    NA+37520  17.149   5.199   3.283
77776NA+    NA+37521  34.054   5.796  14.930
77777NA+    NA+37522   2.966  29.074  11.572
77778NA+    NA+37523  10.265  12.160  14.410
77779NA+    NA+37524  42.906  40.959  10.625
77780NA+    NA+37525  26.997  15.118  12.559
77781NA+    NA+37526  41.467  22.162   0.341
77782NA+    NA+37527   9.795  15.581  11.886
77783NA+    NA+37528  31.025  23.572   4.626
77784NA+    NA+37529   8.396  18.159  10.968
77785NA+    NA+37530  23.034  20.662  11.374
77786NA+    NA+37531  37.565  40.019   1.875
77787NA+    NA+37532   9.295  31.452  12.072
77788NA+    NA+37533   2.421   1.245   2.297
77789NA+    NA+37534  24.554  29.642   3.830
77790NA+    NA+37535  25.597   0.406   1.771
77791NA+    NA+37536  25.162   3.932   0.958
77792NA+    NA+37537   6.336  33.903   0.470
77793NA+    NA+37538  15.608  30.121  12.973
77794NA+    NA+37539  32.606  13.328  11.384
77795NA+    NA+37540  24.153   0.337  13.973
77796NA+    NA+37541  44.944  26.632   1.421
77797NA+    NA+37542  29.089  33.090   1.734
77798NA+    NA+37543  32.967  28.663  11.901
77799NA+    NA+37544   9.780  25.099  11.376
77800NA+    NA+37545  14.815  17.187  14.840
77801NA+    NA+37546  10.373  14.211  10.997
77802NA+    NA+37547  34.402  10.643   4.681
77803NA+    NA+37548  39.893  34.083   3.708
77804NA+    NA+37549  33.463  37.069   2.855
77805NA+    NA+37550   3.290  12.303  11.404
77806NA+    NA+37551   5.263   7.202   0.943
77807NA+    NA+37552  40.940  12.753   2.178
77808NA+    NA+37553  37.008  21.200   1.397
77809NA+    NA+37554   0.391   4.409   3.666
77810NA+    NA+37555   2.769  43.401  14.806
77811NA+    NA+37556  13.643  31.974  11.471
77812NA+    NA+37557  19.715  22.065   2.897
77813NA+    NA+37558  42.338  32.464   1.909
77814NA+    NA+37559  21.116   3.308  12.059
77815NA+    NA+37560   9.718  37.447  10.599
77816NA+    NA+37561  26.496   6.242  13.802
77817NA+    NA+37562  30.965   0.296  14.009
77818NA+    NA+37563  12.778  30.055   3.817
77819NA+    NA+37564  43.969  13.204  14.507
77820NA+    NA+37565  30.997  25.002  10.080
77821NA+    NA+37566   9.363  41.483   2.280
77822NA+    NA+37567  23.027  18.273  14.790
77823NA+    NA+37568  37.858   5.392  11.884
77824NA+    NA+37569  19.141  18.286   4.296
77825NA+    NA+37570  36.057  10.696   0.279
77826NA+    NA+37571  11.717  38.867   2.348
77827NA+    NA+37572  25.568  34.017  14.002
77828NA+    NA+37573   3.835  39.432  10.410
77829NA+    NA+37574   4.265  26.565   0.342
77830NA+    NA+37575  42.926  38.986  13.917
77831NA+    NA+37576  33.113  31.461   1.306
77832NA+    NA+37577  11.233  14.197   0.412
77833NA+    NA+37578  40.822  10.770  12.079
77834NA+    NA+37579  44.799  11.359   4.611
77835NA+    NA+37580  42.854   4.794  13.033
77836NA+    NA+37581   6.400  24.704   1.800
77837NA+    NA+37582  22.657  19.727   1.871
77838NA+    NA+37583  42.936  44.301  13.996
77839NA+    NA+37584   1.756  17.283  12.878
77840NA+    NA+37585  43.806  17.232  11.946
77841NA+    NA+37586  19.747  38.558  14.334
77842NA+    NA+37587  19.184   3.862   1.424
77843NA+    NA+37588  15.290  28.108  11.467
77844NA+    NA+37589  44.494   4.752   0.287
77845NA+    NA+37590  37.012  35.088   3.716
77846NA+    NA+37591   6.328  36.942   1.823
77847NA+    NA+37592  27.524  32.414   2.326
77848NA+    NA+37593  15.280  40.900  10.642
77849NA+    NA+37594   9.835  34.371   4.824
77850NA+    NA+37595  22.235  40.483  14.494
77851NA+    NA+37596   1.403  31.428  12.927
77852NA+    NA+37597   8.763  35.086   3.231
77853NA+    NA+37598  25.689  19.154  12.560
77854NA+    NA+37599  19.759  10.752   2.348
77855NA+    NA+37600   3.954   2.351   4.695
77856NA+    NA+37601  38.922  21.130   3.849
77857NA+    NA+37602  44.319  18.624  13.877
77858NA+    NA+37603  37.975  26.050   0.462
77859NA+    NA+37604  30.644   8.752  12.567
77860NA+    NA+37605  37.356  27.004   2.382
77861NA+    NA+37606   7.211   3.749   4.259
77862NA+    NA+37607  27.075  20.569   0.341
77863NA+    NA+37608  35.958  42.802  11.104
77864NA+    NA+37609  40.497  42.931  12.902
77865NA+    NA+37610  22.538  10.776  10.965
77866NA+    NA+37611  40.865  22.718  14.421
77867NA+    NA+37612  14.770   1.799   4.169
77868NA+    NA+37613  30.655  26.561  10.519
77869NA+    NA+37614   7.400  25.681   1.857
77870NA+    NA+37615  30.950  38.440   1.700
77871NA+    NA+37616   9.700  27.998  13.911
77872NA+    NA+37617  41.976  24.133   2.668
77873NA+    NA+37618  30.951  17.705  10.937
77874NA+    NA+37619  35.521  21.728  10.935
77875NA+    NA+37620   1.838  40.538   3.274
77876NA+    NA+37621  26.489  10.698   1.320
77877NA+    NA+37622  37.403   9.278   3.761
77878NA+    NA+37623   4.419  19.643   0.744
77879NA+    NA+37624  25.093   9.298   0.364
77880NA+    NA+37625  35.402  23.725  12.350
77881NA+    NA+37626   6.815  41.449   3.201
77882NA+    NA+37627  23.207   5.877   0.360
77883NA+    NA+37628  10.677  10.383  13.372
77884NA+    NA+37629  34.545  10.731  12.863
77885NA+    NA+37630  11.289  31.975   2.855
77886NA+    NA+37631   6.417  40.041  13.430
77887NA+    NA+37632   2.954  40.807   2.374
77888NA+    NA+37633   8.766  24.514  12.972
77889NA+    NA+37634   9.311   1.351  14.372
77890NA+    NA+37635  29.997   4.388   0.729
77891NA+    NA+37636   1.398   1.889   0.885
77892NA+    NA+37637  13.748  31.609  12.073
77893NA+    NA+37638  14.590  25.080   0.435
77894NA+    NA+37639  26.201  28.132   2.356
77895NA+    NA+37640  30.498  13.113   0.395
77896NA+    NA+37641  36.878  21.737  14.829
77897NA+    NA+37642  16.194  32.432  13.502
77898NA+    NA+37643  34.448   5.275  10.577
77899NA+    NA+37644   5.882  43.374  13.501
77900NA+    NA+37645   3.755   7.284  12.839
77901NA+    NA+37646  13.745  44.280  12.416
77902NA+    NA+37647  33.910  31.531  13.383
77903NA+    NA+37648  11.823  30.089  12.904
77904NA+    NA+37649  36.395   9.333   2.777
77905NA+    NA+37650   6.359  42.475  14.416
77906NA+    NA+37651  40.926  40.917  11.901
77907NA+    NA+37652  40.864  30.111  11.510
77908NA+    NA+37653   2.841  44.897  12.836
77909NA+    NA+37654   9.261   2.743  12.911
77910NA+    NA+37655  36.423  33.480  12.942
77911NA+    NA+37656  38.566  44.349  12.044
77912NA+    NA+37657  13.266  14.226  10.934
77913NA+    NA+37658   7.877   0.381  11.609
77914NA+    NA+37659  28.548  32.000  12.476
77915NA+    NA+37660  30.435  11.214  14.292
77916NA+    NA+37661  15.763  12.258   0.281
77917NA+    NA+37662  12.128  12.240   4.197
77918NA+    NA+37663  42.851   1.875   3.319
77919CL-    CL-37664  31.066  20.629  13.408
77920CL-    CL-37665  28.629  20.184   3.373
77921CL-    CL-37666  27.103  34.553  10.949
77922CL-    CL-37667   9.814  23.223  10.522
77923CL-    CL-37668  17.195  44.884   0.791
77924CL-    CL-37669  16.221  17.621   0.946
77925CL-    CL-37670  30.030  26.184  14.870
77926CL-    CL-37671  26.171  22.171   3.696
77927CL-    CL-37672  21.239   4.784   0.785
77928CL-    CL-37673  16.788  27.653  14.281
77929CL-    CL-37674  33.573  15.697   4.277
77930CL-    CL-37675  31.935  25.059  12.408
77931CL-    CL-37676   4.410   1.323   4.601
77932CL-    CL-37677   7.708   0.406  12.399
77933CL-    CL-37678  23.577  17.598   1.706
77934CL-    CL-37679  29.638  24.010  11.961
77935CL-    CL-37680  41.926  33.611   1.754
77936CL-    CL-37681  24.021  43.999   3.252
77937CL-    CL-37682   7.826  43.864  12.904
77938CL-    CL-37683  36.406  27.163   0.861
77939CL-    CL-37684  10.850  43.849  12.339
77940CL-    CL-37685  22.557  25.079   4.622
77941CL-    CL-37686   1.482  14.604  13.888
77942CL-    CL-37687   2.834  37.010   2.758
77943CL-    CL-37688  32.617  43.945   1.807
77944CL-    CL-37689  14.641  38.425   0.272
77945CL-    CL-37690  43.832   5.844  12.964
77946CL-    CL-37691  17.250  24.141  12.017
77947CL-    CL-37692  21.153  23.993   1.721
77948CL-    CL-37693  25.703   2.448  13.866
77949CL-    CL-37694  30.413  43.019  14.444
77950CL-    CL-37695  40.039   2.277  13.020
77951CL-    CL-37696  27.565  33.878   4.232
77952CL-    CL-37697  12.812  12.814  11.493
77953CL-    CL-37698  44.271  29.547  13.919
77954CL-    CL-37699   9.245  33.991   3.175
77955CL-    CL-37700  38.469   5.262   4.324
77956CL-    CL-37701   6.847  19.657   1.892
77957CL-    CL-37702   7.411  38.349  10.644
77958CL-    CL-37703  34.516  37.953  10.417
77959CL-    CL-37704   6.261  42.803  12.416
77960CL-    CL-37705  14.815  39.840  14.462
77961CL-    CL-37706  12.120   7.353   2.381
77962CL-    CL-37707   1.760  36.528   0.401
77963CL-    CL-37708   2.799  14.212   0.481
77964CL-    CL-37709  20.526  20.572  13.884
77965CL-    CL-37710  33.441  14.793   3.239
77966CL-    CL-37711  29.543   8.351   0.805
77967CL-    CL-37712  19.231  42.314   0.904
77968CL-    CL-37713  28.108   4.417   0.434
77969CL-    CL-37714   5.909  40.914  14.513
77970CL-    CL-37715  26.046  23.575   3.867
77971CL-    CL-37716   5.196   6.404  14.840
77972CL-    CL-37717  12.761   1.767   0.384
77973CL-    CL-37718  11.651  22.672  13.951
77974CL-    CL-37719  38.921   3.869  11.956
77975CL-    CL-37720  36.476  33.520  13.370
77976CL-    CL-37721  39.065  22.658  11.379
77977CL-    CL-37722  22.142  24.647   2.724
77978CL-    CL-37723   8.319  24.521   4.150
77979CL-    CL-37724  26.462   3.838   2.700
77980CL-    CL-37725  22.251  41.445   2.723
77981CL-    CL-37726  38.544  20.261  13.426
77982CL-    CL-37727  27.554   3.934   0.247
77983CL-    CL-37728  22.129   9.206   0.269
77984CL-    CL-37729   1.820  15.684   1.247
77985CL-    CL-37730   3.803  20.183  14.357
77986CL-    CL-37731   2.364  36.364   1.448
77987CL-    CL-37732  29.647   4.758  11.486
77988CL-    CL-37733  18.225   6.746   2.184
77989CL-    CL-37734  32.542   1.414   4.285
77990CL-    CL-37735   4.755  32.056  11.993
77991CL-    CL-37736  11.263   6.412  13.898
77992CL-    CL-37737  41.029  38.887   2.198
77993CL-    CL-37738  20.752   5.908  12.873
77994CL-    CL-37739  28.065  38.570  11.603
77995CL-    CL-37740  21.095  16.803   0.872
77996CL-    CL-37741   0.935  38.567  11.505
77997CL-    CL-37742   2.733  42.332   4.334
77998CL-    CL-37743   1.393   1.247   1.396
77999CL-    CL-37744   0.299  42.020  12.346
78000CL-    CL-37745  21.186  12.717  12.837
78001CL-    CL-37746  33.568  18.551  13.430
78002CL-    CL-37747  43.318   9.756  14.420
78003CL-    CL-37748   6.418  43.887  14.845
78004CL-    CL-37749  36.085  31.516  13.025
78005CL-    CL-37750  14.209   1.367   2.727
78006CL-    CL-37751   6.365  24.020   0.276
78007CL-    CL-37752  44.272  39.428  14.376
78008CL-    CL-37753  18.724  38.356   2.412
78009CL-    CL-37754  38.903   1.241   3.149
78010CL-    CL-37755  23.690   7.413  13.315
78011CL-    CL-37756  35.577  23.125  14.870
78012CL-    CL-37757  11.145   4.343  14.858
78013CL-    CL-37758  14.233  21.229  12.052
78014CL-    CL-37759  28.450  13.614  13.964
78015CL-    CL-37760   1.907  12.752  11.493
78016CL-    CL-37761  35.570  25.620   3.385
78017CL-    CL-37762  17.635  15.090  14.991
78018CL-    CL-37763  13.794  17.680  13.877
78019CL-    CL-37764   4.925  17.716  10.943
78020CL-    CL-37765   0.250  15.100  13.061
78021CL-    CL-37766   9.815   7.713  11.100
78022CL-    CL-37767  26.006   9.766  11.464
78023CL-    CL-37768  36.537  39.506   0.288
78024CL-    CL-37769  27.129   9.318  13.436
78025CL-    CL-37770   5.238  19.571   4.199
78026CL-    CL-37771  15.311  36.517  11.946
78027CL-    CL-37772  22.600  27.103  14.882
78028CL-    CL-37773  24.226  21.062   1.250
78029CL-    CL-37774  33.978   8.216  13.858
78030CL-    CL-37775  14.766  42.022  11.465
78031CL-    CL-37776  20.179  23.105   1.326
78032CL-    CL-37777   3.240  14.287  10.089
78033CL-    CL-37778  36.361  12.631  12.081
78034CL-    CL-37779  28.606  16.296   0.251
78035CL-    CL-37780  44.381   6.718  13.028
78036CL-    CL-37781  13.710   6.238   3.168
78037CL-    CL-37782  30.434  24.026  12.510
78038CL-    CL-37783  40.820  13.605   0.902
78039CL-    CL-37784  10.367  33.473  11.400
78040CL-    CL-37785  27.647   4.223  10.140
78041CL-    CL-37786   3.888  27.606  12.358
78042CL-    CL-37787  32.490  28.540   2.706
78043CL-    CL-37788   2.845  11.724   1.735
78044CL-    CL-37789  35.901  34.481  13.438
78045CL-    CL-37790  17.121  16.129   1.262
78046CL-    CL-37791   0.958  26.109   5.106
78047CL-    CL-37792   3.942  29.512  12.889
78048CL-    CL-37793  42.418  34.899   2.691
78049CL-    CL-37794  27.022  24.691  13.882
78050CL-    CL-37795  14.163  23.658   2.251
78051CL-    CL-37796  22.085   4.427   1.318
78052CL-    CL-37797  24.032  44.974   2.373
78053CL-    CL-37798   0.339  14.242   2.754
78054CL-    CL-37799  25.689  17.282  14.290
78055CL-    CL-37800  13.275  22.034  14.359
78056CL-    CL-37801  33.946  44.491   1.709
78057CL-    CL-37802  19.174  32.394   2.385
78058CL-    CL-37803  26.603  27.062  10.892
78059CL-    CL-37804  16.161  29.519   2.745
78060CL-    CL-37805  40.937  36.887  13.907
78061CL-    CL-37806  14.199   1.803   0.786
78062CL-    CL-37807  27.107   4.407   0.332
78063CL-    CL-37808  33.007  40.359   0.797
78064CL-    CL-37809   8.379   2.340   0.899
78065CL-    CL-37810   8.234  39.339  12.896
78066CL-    CL-37811  16.807   3.740  14.776
78067CL-    CL-37812  14.811  22.014  11.881
78068CL-    CL-37813  43.459   5.284   4.228
78069CL-    CL-37814  21.096   5.792   2.400
78070CL-    CL-37815   7.698  16.763   3.645
78071CL-    CL-37816  14.676   6.181  11.012
78072CL-    CL-37817  30.530  19.737  13.885
78073CL-    CL-37818  33.973  23.041   0.322
78074CL-    CL-37819   6.721  22.076   2.237
78075CL-    CL-37820  31.613  44.846  12.447
78076CL-    CL-37821  33.394  13.343  10.574
78077CL-    CL-37822  25.168   2.921   3.695
78078CL-    CL-37823  28.113  17.587  13.392
78079CL-    CL-37824  17.208  39.442  13.488
78080CL-    CL-37825  30.486  23.736   0.727
78081CL-    CL-37826  22.679  18.749  13.354
78082CL-    CL-37827  41.808  37.535  12.853
78083CL-    CL-37828  13.178  12.220   3.801
78084CL-    CL-37829   7.260  33.493   3.165
78085CL-    CL-37830  22.069  16.811   2.863
78086CL-    CL-37831   2.232  21.086   2.700
78087CL-    CL-37832  32.965  37.408  14.319
78088CL-    CL-37833  41.493  11.638   0.936
78089CL-    CL-37834  11.201  14.109   4.732
78090CL-    CL-37835  14.219   9.679  12.855
78091CL-    CL-37836  10.252   6.267   2.200
78092CL-    CL-37837   7.328   3.835  12.844
78093CL-    CL-37838  21.019  12.186   2.895
78094CL-    CL-37839   7.340  32.932  12.989
78095CL-    CL-37840  21.678  18.640  14.482
78096CL-    CL-37841  21.662  13.827  12.965
78097CL-    CL-37842  15.318   8.339   4.312
78098CL-    CL-37843   3.734   1.924  11.985
78099CL-    CL-37844  38.965  41.972  14.287
78100CL-    CL-37845  27.605  38.563  13.862
78101CL-    CL-37846  24.036   4.790   0.892
78102CL-    CL-37847  29.941  28.651  12.481
78103CL-    CL-37848  28.484  25.042  14.407
78104CL-    CL-37849  31.016  20.534   4.238
78105CL-    CL-37850  15.200   8.387   3.675
78106CL-    CL-37851  37.974  41.988   1.771
78107CL-    CL-37852  24.504  22.738  14.439
78108CL-    CL-37853  40.931   5.732  12.010
78109CL-    CL-37854  20.551  42.833  13.023
78110CL-    CL-37855  12.169  26.187  14.305
78111CL-    CL-37856   0.453  18.060  12.387
78112CL-    CL-37857  28.982  28.001   2.378
78113CL-    CL-37858   3.777  24.598   1.828
78114CL-    CL-37859   3.805  33.422   1.358
78115CL-    CL-37860   0.967  20.588   0.903
78116CL-    CL-37861  10.358  40.987  14.800
78117CL-    CL-37862  34.613   7.229   2.759
78118CL-    CL-37863  19.767  25.031   3.860
78119CL-    CL-37864  39.851  29.065  10.415
78120CL-    CL-37865  27.512   4.332  14.424
78121CL-    CL-37866  20.266  23.639  11.449
78122CL-    CL-37867  31.134  37.357  11.443
78123CL-    CL-37868  26.074  32.534   0.382
78124CL-    CL-37869   5.845  44.316  12.563
78125CL-    CL-37870  27.094  19.065   0.339
78126CL-    CL-37871  15.740  19.138   0.390
78127CL-    CL-37872   5.794  15.606  14.835
78128CL-    CL-37873  12.845  14.262   2.857
78129CL-    CL-37874  39.964  27.164   1.373
78130CL-    CL-37875  40.474  43.443   0.919
78131CL-    CL-37876  26.666   9.298  14.908
78132CL-    CL-37877  15.243  35.950   2.224
78133CL-    CL-37878  27.690   3.341  13.535
78134CL-    CL-37879  35.366  31.067  12.473
78135CL-    CL-37880   9.379  39.981   4.733
78136CL-    CL-37881  40.466  14.183  11.107
78137CL-    CL-37882  30.109  16.155  13.520
78138CL-    CL-37883  29.068  27.991  11.399
78139CL-    CL-37884  13.322  39.489  12.389
78140CL-    CL-37885  26.483   4.724  14.789
78141CL-    CL-37886  14.677  18.194   4.667
78142CL-    CL-37887  39.425  20.210   1.222
78143CL-    CL-37888  10.371  42.318  12.852
78144CL-    CL-37889  36.558  38.026   4.207
78145CL-    CL-37890  38.377   7.869  12.577
78146CL-    CL-37891  11.849  17.265  14.500
78147CL-    CL-37892   5.357   8.789  12.897
78148CL-    CL-37893  24.659  13.733  14.417
78149CL-    CL-37894  36.553   0.317   3.698
78150CL-    CL-37895   9.795  40.931   0.418
78151CL-    CL-37896  40.893   3.936  14.805
78152CL-    CL-37897   1.392  24.090  14.955
78153CL-    CL-37898   0.747  39.494  11.469
78154CL-    CL-37899  36.965  12.146   3.352
78155CL-    CL-37900   1.477  32.576   4.708
78156CL-    CL-37901  15.798  36.385   4.718
78157CL-    CL-37902  35.075  36.868  13.892
78158CL-    CL-37903   8.860   6.807   0.840
78159CL-    CL-37904  31.088  14.683   1.229
78160CL-    CL-37905   4.297  39.388   2.365
78161CL-    CL-37906  12.687  30.037   0.355
78162CL-    CL-37907  36.089   6.817  12.035
78163CL-    CL-37908  19.186  34.098  13.387
78164CL-    CL-37909  37.979  36.877  14.481
78165CL-    CL-37910  28.519   8.873  12.841
78166CL-    CL-37911   1.809  14.208  10.911
78167CL-    CL-37912   7.228  15.762  12.850
78168CL-    CL-37913  27.053  18.071   3.231
78169CL-    CL-37914  27.592  26.639  11.476
78170CL-    CL-37915   8.361  13.804   2.388
78171CL-    CL-37916  39.004   7.770  10.930
78172CL-    CL-37917  21.726  41.971  11.116
78173CL-    CL-37918  32.620  21.172   9.967
78174CL-    CL-37919  42.965  18.752  14.308
78175CL-    CL-37920  30.094   1.949   0.284
78176CL-    CL-37921  31.949  18.247   1.285
78177CL-    CL-37922  34.395  27.045   3.662
78178CL-    CL-37923  23.536  27.958   3.638
78179CL-    CL-37924  18.165  35.485  12.953
78180CL-    CL-37925  44.775  23.169  12.458
78181CL-    CL-37926  12.299  20.053   2.238
78182CL-    CL-37927  21.585   4.229  14.769
78183CL-    CL-37928  39.462  27.961  14.341
78184CL-    CL-37929  32.405  37.065   4.246
78185CL-    CL-37930  35.485  36.073  11.020
78186CL-    CL-37931   6.910  34.477   4.351
78187CL-    CL-37932   4.295  36.096  14.827
78188CL-    CL-37933  24.707   5.840   3.338
78189CL-    CL-37934  17.615   8.299   2.342
78190CL-    CL-37935  18.098  26.477  10.483
78191CL-    CL-37936  19.689  36.995  14.901
78192CL-    CL-37937  15.727  30.554  12.507
78193CL-    CL-37938  19.675  38.473  13.008
78194CL-    CL-37939  13.756   7.711  12.937
78195CL-    CL-37940   0.866  26.032   3.686
78196CL-    CL-37941  22.059  29.125  11.908
78197CL-    CL-37942  10.165  43.872  12.041
78198CL-    CL-37943   8.730  31.635  11.600
78199CL-    CL-37944   4.767  27.026  11.449
78200CL-    CL-37945  41.482  18.063  12.392
78201CL-    CL-37946  28.986  39.538  10.613
78202CL-    CL-37947  22.096   6.884  14.991
78203CL-    CL-37948  16.729  18.676   0.863
78204CL-    CL-37949  15.208  32.482  10.459
78205CL-    CL-37950  10.233  37.993  14.770
78206CL-    CL-37951  24.604  38.555   3.320
78207CL-    CL-37952  10.768  22.695   3.249
78208CL-    CL-37953  33.032  20.111   2.416
78209CL-    CL-37954  38.972  26.176  14.288
78210CL-    CL-37955  36.878  12.128  14.795
78211CL-    CL-37956  43.908   1.875  13.309
78212CL-    CL-37957   3.923  34.569  12.411
78213CL-    CL-37958  17.557  36.010   2.236
78214CL-    CL-37959  17.680  12.176  13.838
78215CL-    CL-37960  29.482  17.800   4.622
78216CL-    CL-37961  26.169  12.362   4.650
78217CL-    CL-37962  32.593  22.659   1.261
78218CL-    CL-37963  34.941  29.116  14.491
78219CL-    CL-37964  36.088  25.181  12.831
78220CL-    CL-37965  31.019  17.778   3.792
78221CL-    CL-37966  38.515   5.311  14.840
78222CL-    CL-37967   3.262  12.791  12.570
78223CL-    CL-37968   7.276  16.159   4.236
78224CL-    CL-37969  12.167  30.961   3.631
78225CL-    CL-37970   3.811   9.885   1.225
78226CL-    CL-37971   7.394  30.444   4.672
78227CL-    CL-37972   8.248  17.181  13.836
78228CL-    CL-37973   3.266   5.208  10.979
78229CL-    CL-37974  37.832  30.523   2.794
78230CL-    CL-37975  12.669  31.034   0.876
78231CL-    CL-37976  22.042  31.515  11.971
78232CL-    CL-37977   2.724   9.270   0.319
78233CL-    CL-37978  28.645   1.482  14.503
78234CL-    CL-37979   2.315  40.337   3.145
78235CL-    CL-37980  11.219  11.262  14.783
78236CL-    CL-37981  37.417  37.418  11.024
78237CL-    CL-37982  31.017  24.663  10.461
78238CL-    CL-37983   5.312  32.418   2.404
78239CL-    CL-37984   8.391  29.618  14.278
78240CL-    CL-37985  37.537  11.761   5.310
78241CL-    CL-37986  26.611  20.078   1.439
78242CL-    CL-37987  37.396   1.444   1.264
78243CL-    CL-37988  37.397  16.089   3.214
78244CL-    CL-37989   1.964  23.524   3.831
78245CL-    CL-37990  23.218   6.322  12.351
78246CL-    CL-37991   8.257   0.478  12.866
78247CL-    CL-37992  35.484  43.281   0.941
78248CL-    CL-37993  44.371   4.701  14.404
78249CL-    CL-37994  39.365  33.599  12.022
78250CL-    CL-37995  23.226   4.312   4.291
78251CL-    CL-37996  13.284  30.535  11.889
78252CL-    CL-37997  15.715  39.338   0.398
78253CL-    CL-37998  43.959  24.565  13.012
78254CL-    CL-37999  15.156  14.715   2.366
78255CL-    CL-38000  39.527  26.631  14.507
78256CL-    CL-38001   7.885   2.951  10.894
78257CL-    CL-38002  25.483  38.021  13.817
78258CL-    CL-38003   3.458  34.410  14.836
78259CL-    CL-38004  29.105  32.890   3.243
78260CL-    CL-38005  36.976  11.750   1.882
78261CL-    CL-38006  43.378  39.474  14.424
78262CL-    CL-38007  28.980  37.021   1.764
78263CL-    CL-38008  39.012  23.169   1.911
78264CL-    CL-38009  42.795   5.253  12.495
78265CL-    CL-38010  38.346   2.354  14.284
78266CL-    CL-38011  43.990  40.307   1.228
78267CL-    CL-38012  34.063  21.512   0.909
78268CL-    CL-38013  23.208  37.949  12.938
78269CL-    CL-38014  14.312   3.430  11.437
78270CL-    CL-38015  28.109   3.911  13.316
78271CL-    CL-38016  42.423  31.069  11.937
78272CL-    CL-38017   8.181  20.268   1.727
78273CL-    CL-38018  25.500  36.564   3.700
78274CL-    CL-38019  29.060  36.911   0.430
78275CL-    CL-38020  35.369  26.538   3.725
78276CL-    CL-38021  17.599   8.677  12.907
78277CL-    CL-38022  40.942  25.000   3.844
78278CL-    CL-38023  30.002  24.014  11.385
78279CL-    CL-38024  36.415  13.621   4.276
78280CL-    CL-38025   1.885  42.337  10.581
78281CL-    CL-38026  26.537  39.987  10.564
78282CL-    CL-38027  36.052  26.564  12.540
78283CL-    CL-38028  29.000  16.267   0.885
78284CL-    CL-38029  23.218   6.886   0.285
78285CL-    CL-38030   3.807  22.130  14.333
78286CL-    CL-38031  33.432  12.613  10.462
78287CL-    CL-38032  34.455  10.317   1.730
78288CL-    CL-38033   0.930   6.353  10.139
78289CL-    CL-38034  24.615  26.049  10.473
78290CL-    CL-38035  35.040   8.274  13.351
78291CL-    CL-38036  43.865  26.203  12.978
78292CL-    CL-38037   0.427   4.781   4.831
78293CL-    CL-38038  19.774  41.371  12.889
78294CL-    CL-38039  26.608  17.229  14.498
78295CL-    CL-38040  18.734   1.945   1.236
78296CL-    CL-38041  22.654  16.217  14.779
78297CL-    CL-38042  18.163  35.037  11.092
78298CL-    CL-38043   4.926   9.149   1.418
78299CL-    CL-38044   2.838   2.942   4.328
78300CL-    CL-38045  12.770  35.536  12.424
78301CL-    CL-38046  37.399  42.324   0.879
78302CL-    CL-38047  32.621  39.442   2.272
78303CL-    CL-38048  11.709  10.160   3.684
78304CL-    CL-38049  15.729   3.754  11.582
78305CL-    CL-38050   9.700   0.469  11.893
78306CL-    CL-38051  18.591   9.221   2.178
78307CL-    CL-38052  42.910   6.797  14.289
78308CL-    CL-38053  43.915  15.244   1.418
78309CL-    CL-38054   7.354  18.748   0.392
78310CL-    CL-38055  36.498   6.241  14.887
78311CL-    CL-38056  13.706  13.697  10.470
78312CL-    CL-38057  44.859  22.253   1.374
78313CL-    CL-38058   9.216  21.517   2.349
78314CL-    CL-38059   4.414  25.619  13.871
78315CL-    CL-38060  33.480  12.248  11.578
78316CL-    CL-38061   4.396  24.519  12.876
78317CL-    CL-38062  34.064   2.915  14.957
78318CL-    CL-38063  44.299   7.197   1.245
78319CL-    CL-38064   0.964  41.419  13.813
78320CL-    CL-38065   7.410  34.889  11.915
78321CL-    CL-38066   0.252  17.230  12.873
78322CL-    CL-38067  26.592   2.415  12.577
78323CL-    CL-38068  16.752  36.501   2.287
78324CL-    CL-38069   4.309  19.627   3.754
78325CL-    CL-38070  24.587  11.833   0.276
78326CL-    CL-38071  37.910   5.788   4.189
78327CL-    CL-38072  39.826   5.300  14.356
78328CL-    CL-38073   9.319  29.943  11.080
78329CL-    CL-38074  39.446  25.487   2.407
78330CL-    CL-38075  25.157   0.333  13.310
78331CL-    CL-38076  28.453  38.831  11.375
78332CL-    CL-38077  30.500  22.040   3.686
78333CL-    CL-38078   2.948  38.387   5.231
78334CL-    CL-38079  37.414  21.572   2.228
78335CL-    CL-38080  15.606   4.782   3.283
78336CL-    CL-38081  37.534  43.886  12.060
78337CL-    CL-38082   6.188  10.298   5.174
78338CL-    CL-38083   8.175  33.596  12.410
78339CL-    CL-38084  30.519  14.266  13.024
78340CL-    CL-38085  28.153  16.157  14.496
78341CL-    CL-38086   1.765   7.354  11.864
78342CL-    CL-38087   0.373  40.416  13.823
78343CL-    CL-38088  32.409  15.287  14.309
78344CL-    CL-38089   1.820  34.081   2.815
78345CL-    CL-38090  43.804  43.433   0.863
78346CL-    CL-38091  21.538  38.890  14.376
78347CL-    CL-38092   8.292   4.285   4.250
78348CL-    CL-38093  25.701  36.931  13.406
78349CL-    CL-38094  10.738  37.580   0.784
78350CL-    CL-38095  20.053  17.631   4.323
78351CL-    CL-38096  21.041   3.741  11.386
78352CL-    CL-38097  15.310  15.813  14.787
78353CL-    CL-38098  44.776  35.477  11.861
78354CL-    CL-38099  42.329  12.639  10.985
78355CL-    CL-38100   4.913  16.264   4.312
78356CL-    CL-38101  40.817   1.767  14.906
78357CL-    CL-38102   5.217  13.266  11.547
78358CL-    CL-38103   5.439  11.171   3.664
78359CL-    CL-38104  29.518  16.131  11.397
78360CL-    CL-38105  15.316  27.598  12.540
78361CL-    CL-38106  23.576   0.366   3.160
78362CL-    CL-38107  20.140  23.022   1.812
78363CL-    CL-38108  14.096  20.213  14.289
78364CL-    CL-38109  16.753  37.078  11.908
78365CL-    CL-38110  37.964  25.998  14.014
78366CL-    CL-38111  39.450  17.110  13.495
78367CL-    CL-38112  15.234   1.339  11.543
78368CL-    CL-38113   3.300  25.018   1.316
78369CL-    CL-38114  12.638  44.430   4.618
78370CL-    CL-38115  16.736   8.168   1.799
78371CL-    CL-38116  18.628  37.993  14.426
78372CL-    CL-38117  16.599  41.880   4.819
78373CL-    CL-38118  13.151  17.100   4.277
78374CL-    CL-38119  19.231  24.723   2.186
78375CL-    CL-38120  25.186  36.941   3.380
78376CL-    CL-38121   2.747  20.086  12.951
78377CL-    CL-38122  42.385  32.000  11.092
78378CL-    CL-38123  31.431   3.225  12.992
78379CL-    CL-38124   7.228  22.521  10.934
78380CL-    CL-38125   5.704  24.059   4.274
78381CL-    CL-38126  23.614  24.706   4.256
78382CL-    CL-38127  36.022  24.040  13.803
78383CL-    CL-38128  41.904  14.611  12.359
78384CL-    CL-38129  16.641  15.734  11.862
78385CL-    CL-38130  14.164   6.902  13.406
78386CL-    CL-38131  15.614  22.666   0.812
78387CL-    CL-38132  16.109  23.089  10.604
78388CL-    CL-38133   3.427  44.419   3.349
78389CL-    CL-38134   9.345  27.547   3.306
78390CL-    CL-38135   2.811  43.854  10.508
78391CL-    CL-38136   8.678   4.765  13.879
78392CL-    CL-38137  44.941   6.219   1.285
78393CL-    CL-38138  17.132  15.127  12.512
78394CL-    CL-38139  34.501  13.329  14.384
78395CL-    CL-38140  15.728  18.761   2.674
78396CL-    CL-38141  40.039  38.495   2.838
78397CL-    CL-38142  17.062  29.431   1.786
78398CL-    CL-38143   0.485  16.742  12.951
78399CL-    CL-38144  36.961  18.277  13.875
78400CL-    CL-38145  12.198  28.609   0.777
78401CL-    CL-38146  41.390  19.628   1.901
78402CL-    CL-38147  16.243   5.823   1.884
78403CL-    CL-38148  10.343  16.276   3.824
78404CL-    CL-38149   9.297  17.261   4.166
78405CL-    CL-38150   6.309  36.543   0.857
78406CL-    CL-38151  37.518   4.241   3.301
78407CL-    CL-38152   2.766  24.196   0.313
78408CL-    CL-38153  15.616  41.864  12.827
78409CL-    CL-38154   9.696  37.430  12.040
78410CL-    CL-38155  23.531  31.553  12.095
78411CL-    CL-38156  43.892  20.586  11.457
78412CL-    CL-38157   6.206   1.392   4.229
78413CL-    CL-38158  18.735   3.910   1.827
78414CL-    CL-38159  37.494  35.031   2.833
78415CL-    CL-38160   9.363  36.855   3.654
78416CL-    CL-38161  44.775  41.511   0.877
78417CL-    CL-38162  37.924  30.073  12.002
78418CL-    CL-38163  43.987  18.772  13.481
78419CL-    CL-38164  28.100  29.597  10.987
78420CL-    CL-38165  21.602  36.404   4.649
78421CL-    CL-38166   7.299   2.784   2.734
78422CL-    CL-38167  24.206  35.065  10.506
78423CL-    CL-38168  44.902  16.164   0.454
78424CL-    CL-38169  12.117  12.755  10.418
78425CL-    CL-38170  43.961  20.559  14.414
78426CL-    CL-38171  18.097  20.662   1.888
78427CL-    CL-38172  16.794  44.499   0.310
78428CL-    CL-38173   8.186  38.480   4.203
78429CL-    CL-38174  35.494  38.069  11.107
78430CL-    CL-38175  37.891  41.422  13.032
78431CL-    CL-38176   0.750   5.900  13.487
78432CL-    CL-38177  29.022  36.017  12.952
78433CL-    CL-38178   8.685   2.836   4.239
78434CL-    CL-38179  18.158   1.863  12.439
78435CL-    CL-38180  12.335  25.643   3.283
78436CL-    CL-38181  40.833  42.827  13.021
78437CL-    CL-38182  40.972  11.860   3.730
78438CL-    CL-38183  32.414  18.290  12.501
78439CL-    CL-38184  13.745  13.690  14.997
78440CL-    CL-38185  21.648  29.983  13.511
78441CL-    CL-38186  28.513  16.163   1.806
78442CL-    CL-38187  35.084  14.295  11.470
78443CL-    CL-38188  32.133   9.728  10.436
78444CL-    CL-38189  28.489  39.030   2.413
78445CL-    CL-38190  13.273  32.489  13.464
78446CL-    CL-38191  32.416  10.736   3.827
78447CL-    CL-38192   4.854  19.241  12.986
78448CL-    CL-38193  33.556  19.557   3.836
78449CL-    CL-38194  13.263  37.447  11.437
78450CL-    CL-38195  21.088  37.855   3.189
78451CL-    CL-38196  36.366  43.489   1.703
78452CL-    CL-38197  18.737  37.527  11.992
78453CL-    CL-38198  18.116  19.257  14.793
78454CL-    CL-38199  14.339  15.216   3.228
78455CL-    CL-38200  10.265  31.098   1.395
78456CL-    CL-38201  33.915  21.634  12.451
78457CL-    CL-38202  31.001   7.315  11.027
78458CL-    CL-38203  28.009  18.611   2.215
78459CL-    CL-38204  42.849  16.184   1.320
78460CL-    CL-38205  36.994  40.809  10.407
78461CL-    CL-38206   6.424  13.788  14.839
78462CL-    CL-38207  37.384   9.867  14.884
78463CL-    CL-38208  42.997  23.085   2.778
78464CL-    CL-38209  28.030  18.096   2.338
78465CL-    CL-38210  17.670  19.564  13.517
78466CL-    CL-38211  19.727  24.976  12.410
78467CL-    CL-38212  35.387  17.634  12.886
78468CL-    CL-38213  44.405  29.004   0.896
78469CL-    CL-38214  15.771  29.648   0.256
78470CL-    CL-38215  42.859  33.011  14.370
78471CL-    CL-38216   2.792  24.614   0.435
78472CL-    CL-38217  33.558  28.651   5.770
78473CL-    CL-38218  36.530   9.767  13.057
78474CL-    CL-38219  19.772  36.943  13.902
78475CL-    CL-38220   7.247  19.582   0.800
78476CL-    CL-38221  35.050  34.478  14.893
78477CL-    CL-38222  38.522   4.911   0.849
78478CL-    CL-38223  16.098  36.888   1.406
78479CL-    CL-38224  31.991  19.200  13.522
78480CL-    CL-38225   1.360  12.742  11.439
78481CL-    CL-38226  13.281  36.932  13.032
78482CL-    CL-38227  16.674  21.588   0.344
78483CL-    CL-38228  25.567   9.797   2.391
78484CL-    CL-38229  29.048  44.371   2.662
78485CL-    CL-38230   6.699  32.972   3.764
78486CL-    CL-38231  31.983  12.718  12.836
78487CL-    CL-38232  30.475   0.312   4.602
78488CL-    CL-38233  12.169  38.014   1.916
78489CL-    CL-38234  16.594  44.975   1.910
78490CL-    CL-38235  28.931   3.769   4.198
78491CL-    CL-38236  37.347  15.711  14.365
78492CL-    CL-38237  14.264  40.980  12.445
78493CL-    CL-38238  24.214  23.201   1.746
78494CL-    CL-38239  29.980   8.711  11.382
78495CL-    CL-38240   2.851  35.102  10.929
78496CL-    CL-38241  33.128  34.898   2.676
78497CL-    CL-38242  31.630  28.613   0.342
78498CL-    CL-38243   3.354  38.902  11.611
78499CL-    CL-38244  21.110  28.089  13.536
78500CL-    CL-38245   7.227  17.124  10.912
78501CL-    CL-38246  24.686  10.714   3.307
78502CL-    CL-38247  37.363  18.716  10.523
78503CL-    CL-38248  23.180  14.824   0.414
78504CL-    CL-38249  39.838  23.537   4.338
78505CL-    CL-38250  23.644  43.818   2.773
78506CL-    CL-38251  27.170  38.911   3.720
78507CL-    CL-38252   7.296  40.827   3.785
78508CL-    CL-38253  11.643  14.141   3.303
78509CL-    CL-38254  28.986  37.418  13.500
78510CL-    CL-38255  16.173   0.872  12.021
78511CL-    CL-38256  23.200  41.787  14.898
78512CL-    CL-38257  40.873  15.216  13.457
78513CL-    CL-38258  44.360   0.825  14.373
78514CL-    CL-38259   2.465  15.229   4.269
78515CL-    CL-38260  43.789  23.106  14.777
78516CL-    CL-38261  37.880  33.394   4.788
78517CL-    CL-38262  29.455  23.130   1.385
78518CL-    CL-38263   5.284  42.935   1.447
78519CL-    CL-38264   8.698   6.413   0.380
78520CL-    CL-38265  14.271  18.201  10.968
78521CL-    CL-38266   5.930  34.468  14.338
78522CL-    CL-38267  40.915  12.829  12.882
78523CL-    CL-38268  44.763   9.305  10.618
78524CL-    CL-38269   3.397  20.257  13.448
78525CL-    CL-38270   4.238  28.068  14.484
78526CL-    CL-38271  13.764   7.356   1.239
78527CL-    CL-38272   3.372  13.651  14.321
78528CL-    CL-38273  23.728  27.676  12.363
78529CL-    CL-38274   9.671   6.418   2.291
78530CL-    CL-38275  28.040   8.729   4.287
78531CL-    CL-38276   2.725  41.833  13.999
78532CL-    CL-38277  31.943  21.034   1.898
78533CL-    CL-38278  37.946   4.843   0.255
78534CL-    CL-38279  12.762  34.405  11.033
78535CL-    CL-38280  20.053   3.932  13.946
78536CL-    CL-38281  12.680  28.141  13.520
78537CL-    CL-38282  22.158   2.344  14.929
78538CL-    CL-38283   4.206  17.650   2.796
78539CL-    CL-38284  33.933  31.965   4.828
78540CL-    CL-38285  39.856  29.653   3.691
78541CL-    CL-38286  28.582   8.789  11.518
78542CL-    CL-38287  38.028  17.214  14.976
78543CL-    CL-38288   4.915  36.423  10.957
78544CL-    CL-38289  42.411  39.398   2.199
78545CL-    CL-38290  31.439  26.513  11.542
78546CL-    CL-38291  40.003  21.576   4.282
78547CL-    CL-38292  34.100  21.617  14.782
78548CL-    CL-38293  44.423   1.403   5.195
78549CL-    CL-38294  21.531   7.834   0.728
78550CL-    CL-38295  15.178   0.341  13.954
78551CL-    CL-38296  37.511  10.317   3.663
78552CL-    CL-38297  38.953  36.873  14.445
78553CL-    CL-38298   4.707   1.963   4.755
78554CL-    CL-38299  24.717  15.676   4.829
78555CL-    CL-38300   6.264  31.454   3.285
78556CL-    CL-38301  38.949  17.631   4.149
78557CL-    CL-38302  37.415  36.363   1.763
78558CL-    CL-38303  11.201   7.705   1.251
78559CL-    CL-38304   3.358  20.270  12.553
78560CL-    CL-38305   9.189  26.082  14.023
78561CL-    CL-38306  21.227   5.244  11.544
78562CL-    CL-38307  30.082  43.463   4.148
78563CL-    CL-38308  37.398  20.671  11.419
78564CL-    CL-38309  19.723  12.178  14.829
78565CL-    CL-38310  14.636  24.004   0.420
78566CL-    CL-38311  23.703  22.013   1.277
78567CL-    CL-38312  31.148  40.508   3.162
78568CL-    CL-38313  18.565  41.863   4.781
78569CL-    CL-38314  39.861   7.220   4.118
78570CL-    CL-38315  27.643  18.109   1.419
78571CL-    CL-38316  29.480   1.783  11.103
78572CL-    CL-38317  35.383   8.202  13.995
78573CL-    CL-38318  38.348  33.603  11.047
78574CL-    CL-38319   7.223  10.337  13.902
78575CL-    CL-38320  13.304   1.858   2.357
78576CL-    CL-38321  11.172  19.202  11.975
78577CL-    CL-38322  12.697  17.127   3.363
78578CL-    CL-38323   1.833  14.284   3.812
78579CL-    CL-38324  31.151  27.474   9.632
78580CL-    CL-38325  34.032  23.686  11.516
78581CL-    CL-38326  11.681   1.937  14.369
78582CL-    CL-38327  29.057  32.549   1.258
78583CL-    CL-38328  44.434   1.446   0.465
78584CL-    CL-38329  44.969  31.146   4.807
78585CL-    CL-38330   6.331   8.803   4.154
78586CL-    CL-38331  36.502  44.945   1.721
78587CL-    CL-38332  23.995  35.414  14.478
78588CL-    CL-38333  13.260  39.328   4.293
78589CL-    CL-38334   8.815  33.128  10.466
78590CL-    CL-38335   2.867  19.071   3.149
78591CL-    CL-38336  31.487  44.304   3.156
78592CL-    CL-38337   3.258  43.409  14.027
78593CL-    CL-38338  17.606  19.776  10.451
78594CL-    CL-38339   6.259  19.234   1.814
78595CL-    CL-38340  26.189  18.638  12.578
78596CL-    CL-38341   0.308   1.814   3.855
78597CL-    CL-38342   9.185  38.023  12.033
78598CL-    CL-38343  13.232  35.962   0.928
78599CL-    CL-38344  21.541  24.193   1.411
78600CL-    CL-38345  33.549  17.190   3.729
78601CL-    CL-38346  22.714  13.301  13.835
78602CL-    CL-38347  42.460  22.107   1.373
78603CL-    CL-38348  36.473  22.598  13.945
78604CL-    CL-38349  33.917  16.755   2.404
78605CL-    CL-38350  29.507  34.991   3.285
78606CL-    CL-38351  39.042  13.255  13.889
78607CL-    CL-38352  42.365  29.605  14.275
78608CL-    CL-38353  39.834   5.873   0.812
78609CL-    CL-38354  24.001  20.058  12.939
78610CL-    CL-38355  12.135  19.206   2.866
78611CL-    CL-38356  43.815   9.713   2.281
78612CL-    CL-38357  38.537  44.995  13.330
78613CL-    CL-38358  39.460  15.731  11.925
78614CL-    CL-38359  31.067  34.099   0.447
78615CL-    CL-38360  39.351  18.053   2.201
78616CL-    CL-38361  40.323   6.319  13.791
78617CL-    CL-38362  39.842  34.115   1.930
78618CL-    CL-38363  17.224  15.087  14.483
78619CL-    CL-38364  25.510  38.527   2.228
78620CL-    CL-38365  23.137  28.060   2.296
78621CL-    CL-38366  15.194  36.364   5.722
78622CL-    CL-38367  32.009   1.950  12.001
78623CL-    CL-38368   6.345   4.281   4.195
78624CL-    CL-38369  17.657  41.505  10.957
78625CL-    CL-38370  14.139  31.029   1.914
78626CL-    CL-38371  29.529   9.700  11.382
78627CL-    CL-38372  10.688  43.997   2.253
78628CL-    CL-38373  42.306  21.617  13.980
78629CL-    CL-38374  37.412  16.181  12.078
78630CL-    CL-38375  32.463   1.373  11.461
78631CL-    CL-38376  37.347  23.984   1.260
78632CL-    CL-38377  33.584  18.078   1.256
78633CL-    CL-38378  12.355  36.480  11.423
78634CL-    CL-38379  17.235  42.937  11.552
78635CL-    CL-38380   9.276   6.773  13.395
78636CL-    CL-38381  16.661   9.260  14.892
78637CL-    CL-38382  44.858   1.904   0.853
78638CL-    CL-38383  44.826  23.123  10.637
78639CL-    CL-38384  14.609   2.281  13.898
78640CL-    CL-38385  15.597  25.094  11.899
78641CL-    CL-38386   8.369  18.635  12.376
78642CL-    CL-38387   5.932  38.987   2.802
78643CL-    CL-38388   9.787  10.277  12.573
78644CL-    CL-38389  38.877  27.192  11.899
78645CL-    CL-38390   6.786  35.061  12.455
78646CL-    CL-38391  24.997  16.678   0.905
78647CL-    CL-38392  40.049  34.910  14.416
78648CL-    CL-38393  43.936   5.696   3.834
78649CL-    CL-38394   8.739  18.648   3.777
78650CL-    CL-38395  10.696  40.025  10.619
78651CL-    CL-38396  12.210  34.606   1.284
78652CL-    CL-38397  39.316   6.396  13.956
78653CL-    CL-38398   3.324  28.045  12.354
78654CL-    CL-38399  31.629  12.331  13.434
78655CL-    CL-38400  18.629  28.462  14.967
78656CL-    CL-38401   8.883   4.850   3.867
78657CL-    CL-38402  29.049  44.849  14.792
78658CL-    CL-38403  40.927  23.506   1.251
78659CL-    CL-38404  13.739  29.508   3.335
78660CL-    CL-38405  20.204  31.485  12.876
78661CL-    CL-38406   2.245  29.164  11.517
78662CL-    CL-38407   0.832   2.848  12.965
78663CL-    CL-38408  43.952  18.231  10.553
78664CL-    CL-38409  14.645  20.660   0.443
78665CL-    CL-38410   3.771  30.912   2.840
78666CL-    CL-38411  22.708  16.674  11.869
78667CL-    CL-38412  33.503  38.040   0.283
78668CL-    CL-38413  23.219   0.287  14.483
78669CL-    CL-38414   9.246  32.967  14.513
78670CL-    CL-38415  21.176  17.701  14.880
78671CL-    CL-38416  32.954  25.696  13.983
78672CL-    CL-38417   0.354   0.422   0.436
78673CL-    CL-38418  16.628  41.500  14.906
78674CL-    CL-38419   5.728   6.711  10.979
78675CL-    CL-38420  26.484  31.914  13.954
78676CL-    CL-38421  39.318  41.414  14.476
78677CL-    CL-38422  33.478  43.919  13.484
78678CL-    CL-38423  26.459  44.942  13.521
78679CL-    CL-38424  14.738  40.863   2.839
78680CL-    CL-38425   5.926   3.411  13.848
78681CL-    CL-38426  14.827  31.040   1.371
78682CL-    CL-38427  44.950  17.219  12.569
78683CL-    CL-38428   9.660  19.147   0.442
78684CL-    CL-38429  15.232  36.037   2.690
78685CL-    CL-38430  31.025  11.774   2.317
78686CL-    CL-38431  16.749  18.689   1.421
78687CL-    CL-38432  15.729  41.492   0.329
78688CL-    CL-38433  36.894  38.944  11.611
78689CL-    CL-38434  22.025   4.429  11.956
78690CL-    CL-38435  23.680   2.918  11.470
78691CL-    CL-38436  23.078  21.036  10.460
78692CL-    CL-38437  23.990  29.105  10.893
78693CL-    CL-38438  18.735  22.538  12.857
78694CL-    CL-38439  30.106  34.112  11.986
78695CL-    CL-38440  30.066  11.847  13.844
78696CL-    CL-38441  18.260  32.905   2.903
78697CL-    CL-38442  18.182  25.118   3.204
78698CL-    CL-38443  25.689   9.342  14.850
78699CL-    CL-38444   9.215  20.245  10.992
78700CL-    CL-38445  21.749  33.393  10.618
78701CL-    CL-38446  41.947  28.472  14.487
78702CL-    CL-38447  22.142  31.129   0.885
78703CL-    CL-38448  43.325  41.915  12.893
78704CL-    CL-38449  43.811  14.699   2.811
78705CL-    CL-38450  43.397  41.860  11.496
78706CL-    CL-38451  44.438   9.844  11.437
78707CL-    CL-38452   2.338  26.007  13.404
78708CL-    CL-38453  34.371   8.322  12.467
78709CL-    CL-38454   0.920  40.509  11.569
78710CL-    CL-38455   0.895  22.180   3.675
78711CL-    CL-38456  40.377  11.763  14.778
78712CL-    CL-38457  14.617  31.013   4.606
78713CL-    CL-38458  30.627  25.007  12.470
78714CL-    CL-38459  42.863  39.989  13.449
78715CL-    CL-38460  21.144  41.395  14.793
78716CL-    CL-38461  19.106   5.830   0.953
78717CL-    CL-38462  33.107  19.200  11.073
78718CL-    CL-38463   6.314  37.926  13.869
78719CL-    CL-38464  22.614   5.409   2.803
78720CL-    CL-38465  24.611  25.087  14.790
78721CL-    CL-38466   4.257   2.298   0.464
78722CL-    CL-38467  11.858  18.180  10.529
78723CL-    CL-38468  41.981   2.415   2.349
78724CL-    CL-38469  40.868  41.793  11.389
78725CL-    CL-38470  31.604  25.608   1.727
78726CL-    CL-38471  41.396  12.153  14.762
78727CL-    CL-38472  14.772  19.054  13.495
78728CL-    CL-38473  34.980   2.278  11.502
78729CL-    CL-38474  21.687  19.052   3.702
78730CL-    CL-38475  16.246  29.427  10.480
78731CL-    CL-38476   2.880  33.124   3.783
78732CL-    CL-38477  37.867  10.257  13.986
78733CL-    CL-38478  32.980   8.833   1.815
78734CL-    CL-38479  44.805  24.559  14.308
78735CL-    CL-38480  17.639  22.131  12.979
78736CL-    CL-38481   9.727   0.480  10.574
78737CL-    CL-38482  20.675  13.147  12.417
78738CL-    CL-38483  43.297   2.822   4.145
78739CL-    CL-38484  34.447  11.631   2.263
78740CL-    CL-38485  43.951  39.552  10.932
78741CL-    CL-38486  34.903   8.306   4.317
78742CL-    CL-38487   0.847  15.744  10.099
78743CL-    CL-38488  28.565  34.978  10.425
78744CL-    CL-38489   4.373  39.921   4.784
78745CL-    CL-38490  34.960  33.496   2.874
78746CL-    CL-38491  18.291  25.000   3.758
78747CL-    CL-38492  41.938  20.232  11.051
78748CL-    CL-38493  28.508  24.219   4.216
78749CL-    CL-38494  35.879   1.342   2.402
78750CL-    CL-38495  38.971  27.138  14.895
78751CL-    CL-38496   4.316  19.259  13.466
78752CL-    CL-38497  19.673   4.223   3.184
78753CL-    CL-38498  14.195   8.405  11.124
78754CL-    CL-38499  25.022  39.938  13.827
78755CL-    CL-38500  43.015  11.138   2.185
78756CL-    CL-38501  17.714   2.726  12.357
78757CL-    CL-38502  11.369   8.792   4.789
78758CL-    CL-38503   6.255  31.535   3.825
78759CL-    CL-38504   8.351  19.581   1.449
78760CL-    CL-38505  16.766  38.558  11.014
78761CL-    CL-38506  19.536  14.296   1.746
78762CL-    CL-38507   2.347  12.635   2.771
78763CL-    CL-38508   3.822  35.023  11.888
78764CL-    CL-38509  41.852   3.273   0.405
78765CL-    CL-38510   8.217  36.992  12.527
78766CL-    CL-38511  42.316  34.971  13.432
78767CL-    CL-38512  30.102  14.333  11.586
78768CL-    CL-38513  41.338  13.242   1.380
78769CL-    CL-38514  37.999  35.040   4.298
78770CL-    CL-38515  34.583   4.847   1.883
78771CL-    CL-38516  16.286  27.954  14.400
78772CL-    CL-38517  39.873  13.342  13.003
78773CL-    CL-38518   8.394  28.944  14.387
78774CL-    CL-38519  25.144  21.750  10.551
78775CL-    CL-38520  28.093  22.610  14.843
78776CL-    CL-38521  37.983  33.472  12.493
78777CL-    CL-38522   0.377  12.856  10.977
78778CL-    CL-38523  26.490  28.183   0.732
78779CL-    CL-38524   3.269  22.603  13.837
78780CL-    CL-38525  39.985  26.051   4.669
78781CL-    CL-38526  27.080  33.924   2.219
78782CL-    CL-38527   9.746  18.601   3.659
78783CL-    CL-38528  20.599  20.592  12.371
78784CL-    CL-38529  14.788   9.204   4.239
78785CL-    CL-38530  35.002   9.808  14.460
78786CL-    CL-38531  24.046  22.181  11.439
78787CL-    CL-38532  26.570  24.684   0.859
78788CL-    CL-38533  28.523   4.872   1.234
78789CL-    CL-38534  42.971  44.502   5.115
78790CL-    CL-38535  16.729  37.029  14.812
78791CL-    CL-38536  16.121   7.390   4.819
78792CL-    CL-38537   7.277   1.900  13.418
78793CL-    CL-38538   4.858  41.972   5.313
78794CL-    CL-38539  22.523  40.495  14.790
78795CL-    CL-38540  20.675  24.563  13.851
78796CL-    CL-38541  23.576  43.368  12.534
78797CL-    CL-38542   0.262  19.199  14.958
78798CL-    CL-38543   5.221   6.764  10.933
78799CL-    CL-38544  42.794   1.425  14.014
78800CL-    CL-38545  31.127  25.521  11.476
78801CL-    CL-38546  35.000  32.936   1.922
78802CL-    CL-38547   4.804  10.176  11.123
78803CL-    CL-38548  44.471  17.074   0.875
78804CL-    CL-38549  23.682   0.359   0.806
78805CL-    CL-38550  15.142  10.176  13.877
78806CL-    CL-38551  15.773   8.677  12.952
78807CL-    CL-38552  13.814  21.728  12.394
78808CL-    CL-38553  36.369  34.000  13.974
78809CL-    CL-38554  41.383   0.837  13.862
78810CL-    CL-38555  40.360  44.486  14.809
78811CL-    CL-38556  39.971   2.444   0.351
78812CL-    CL-38557  17.712  25.541  11.497
78813CL-    CL-38558  24.095  11.276  14.873
78814CL-    CL-38559  33.122  38.925   1.377
78815CL-    CL-38560  27.979  43.947   1.769
78816CL-    CL-38561  10.824   2.910  12.392
78817CL-    CL-38562  36.475  16.261   0.771
78818CL-    CL-38563  18.644  36.542   2.722
78819CL-    CL-38564  13.172  30.570   4.166
78820CL-    CL-38565  43.424  39.529   2.830
78821CL-    CL-38566  30.510  39.466  10.921
78822CL-    CL-38567  19.180  20.689   4.122
78823CL-    CL-38568  39.866  20.100  11.501
78824CL-    CL-38569  33.430  22.069   3.334
78825CL-    CL-38570  34.549  32.931  12.378
78826CL-    CL-38571  24.143  27.647   2.731
78827CL-    CL-38572   8.880  12.223   4.230
78828CL-    CL-38573   1.317  31.060   3.327
78829CL-    CL-38574  18.189  16.256   2.229
78830CL-    CL-38575  14.099   0.374   0.769
78831CL-    CL-38576  31.148  42.960  11.926
78832CL-    CL-38577  25.691  11.765  13.318
78833CL-    CL-38578  39.396   0.826   3.328
78834CL-    CL-38579   3.402  31.940  13.916
78835CL-    CL-38580  31.914  29.041   1.282
78836CL-    CL-38581  40.913  19.243  14.835
78837CL-    CL-38582  37.900  34.390  11.553
78838CL-    CL-38583  12.747  33.443   4.338
78839CL-    CL-38584   9.693   2.919   0.877
78840CL-    CL-38585  31.590  31.949  11.374
78841CL-    CL-38586  37.839  23.715  14.959
78842CL-    CL-38587   2.723   9.809  14.295
78843CL-    CL-38588  13.126  17.724  13.422
78844CL-    CL-38589  17.190  35.445   1.376
78845CL-    CL-38590  22.010   1.794   0.927
78846CL-    CL-38591   1.368  36.370  12.428
78847CL-    CL-38592  29.551  19.541  10.959
78848CL-    CL-38593  36.982  19.237   2.725
78849CL-    CL-38594   0.486  11.294  11.996
78850CL-    CL-38595  19.757  35.861   3.249
78851CL-    CL-38596  16.098  24.525   3.672
78852CL-    CL-38597   9.223  33.958   0.947
78853CL-    CL-38598   1.274   8.701  11.104
78854CL-    CL-38599  19.039  14.238  13.480
78855CL-    CL-38600  17.685  39.542   4.183
78856CL-    CL-38601  30.028  28.555  14.026
78857CL-    CL-38602  25.210  18.579   0.390
78858CL-    CL-38603  18.645  36.505   4.661
78859CL-    CL-38604  34.609  32.454   1.323
78860CL-    CL-38605  15.213  35.409  13.409
78861CL-    CL-38606  17.624  21.236  14.311
78862CL-    CL-38607  34.563  14.668   1.890
78863CL-    CL-38608  36.000  35.995   3.789
78864CL-    CL-38609  19.203  19.212   4.333
78865CL-    CL-38610  31.911   2.343  12.847
78866CL-    CL-38611   2.880  32.585  10.964
78867CL-    CL-38612  22.595  17.635   2.709
78868CL-    CL-38613  37.552  36.967  12.570
78869CL-    CL-38614   5.862  28.484  13.013
78870CL-    CL-38615  34.080  20.686   1.389
78871CL-    CL-38616   2.441  15.581   1.425
78872CL-    CL-38617  21.689  40.453  11.421
78873CL-    CL-38618  12.793  28.600  10.588
78874CL-    CL-38619  32.936  41.883   4.317
78875CL-    CL-38620  41.383  10.294  11.902
78876CL-    CL-38621  24.519  36.987  12.542
78877CL-    CL-38622  27.602   1.910  13.514
78878CL-    CL-38623  33.015  28.457  10.980
78879CL-    CL-38624   7.751  16.220   2.716
78880CL-    CL-38625   5.825  19.759  12.350
78881CL-    CL-38626   8.742  21.672  12.875
78882CL-    CL-38627  42.815   2.387  13.917
78883CL-    CL-38628  44.940  19.609  10.439
78884CL-    CL-38629  33.569  18.161   3.198
78885CL-    CL-38630   8.701  43.909  13.023
78886CL-    CL-38631   9.702  19.264   0.882
78887CL-    CL-38632  29.648  40.943  12.373
78888CL-    CL-38633  24.506  37.449  14.768
78889CL-    CL-38634   2.966  36.513  14.974
78890CL-    CL-38635  17.213  35.108   5.194
78891CL-    CL-38636  16.794  23.502  11.503
78892CL-    CL-38637   1.259  36.462   5.254
78893CL-    CL-38638  26.627  39.319   1.387
78894CL-    CL-38639  39.531  21.618   0.952
78895CL-    CL-38640   7.316  36.415  13.909
78896CL-    CL-38641  41.532  10.333   4.831
78897CL-    CL-38642  16.170   2.836   4.226
78898CL-    CL-38643  14.252  31.128   2.773
78899CL-    CL-38644   1.828  17.616   5.606
78900CL-    CL-38645  37.485  22.058  14.920
78901CL-    CL-38646  30.588  31.498  12.544
78902CL-    CL-38647  12.242  36.470  12.832
78903CL-    CL-38648  34.610  16.655  14.325
78904CL-    CL-38649  36.362  17.663  13.056
78905CL-    CL-38650  24.020   7.715  11.971
78906CL-    CL-38651  37.538  29.630   0.824
78907CL-    CL-38652  40.930  27.053   0.918
78908CL-    CL-38653  14.630  15.635   2.874
78909CL-    CL-38654  40.986  30.414   3.251
78910CL-    CL-38655  30.635  12.690  13.896
78911CL-    CL-38656  30.592  15.115  12.399
78912CL-    CL-38657  35.435  24.050  10.448
78913CL-    CL-38658  23.565  42.389   3.212
78914CL-    CL-38659  23.032  26.065  11.489
78915CL-    CL-38660  28.999  18.552   5.155
78916CL-    CL-38661  38.340  44.892   0.950
78917CL-    CL-38662  34.377  26.183   3.290
78918CL-    CL-38663   7.830  32.963   0.276
78919CL-    CL-38664  24.645  38.829   1.275
78920CL-    CL-38665  10.691   0.906   0.385
78921CL-    CL-38666  19.158  17.782   0.731
78922CL-    CL-38667  17.610  44.977  11.046
78923CL-    CL-38668   2.846   3.327  13.509
78924CL-    CL-38669   8.671   0.362  11.455
78925CL-    CL-38670  32.071  11.844  13.806
78926CL-    CL-38671  22.645   3.267  13.970
78927CL-    CL-38672  35.485  36.552  11.860
78928CL-    CL-38673   2.446  11.313  10.975
78929CL-    CL-38674   3.304  25.550   4.788
78930CL-    CL-38675  28.573  43.329   4.745
78931CL-    CL-38676  30.496  41.895   4.822
78932CL-    CL-38677   6.698  25.130  13.791
78933CL-    CL-38678  34.924  13.663  12.349
78934CL-    CL-38679   9.301   1.308   0.284
78935CL-    CL-38680   8.823  40.037  10.906
78936CL-    CL-38681   7.771  21.614  10.480
78937CL-    CL-38682  26.020  36.962  10.581
78938CL-    CL-38683   1.273  15.625   5.287
78939CL-    CL-38684  25.020   6.857   3.841
78940CL-    CL-38685   2.459   4.898   1.262
78941CL-    CL-38686  31.484  39.417   2.842
78942CL-    CL-38687  35.495   4.752   1.221
78943CL-    CL-38688  26.079  40.504   0.480
78944CL-    CL-38689  12.285  33.970   1.218
78945CL-    CL-38690  18.094   1.975  11.480
78946CL-    CL-38691  13.262  11.224   4.630
78947CL-    CL-38692   1.323  15.217  10.581
78948CL-    CL-38693   7.173   1.936   2.324
78949CL-    CL-38694   7.209  34.507   4.309
78950CL-    CL-38695  42.488  15.650   3.794
78951CL-    CL-38696  29.491  11.843  11.404
78952CL-    CL-38697  21.665  28.052   1.237
78953CL-    CL-38698  43.779  41.968   0.794
78954CL-    CL-38699  42.306  20.043  12.367
78955CL-    CL-38700  40.028  37.951   1.864
78956CL-    CL-38701  12.306  10.854  12.537
78957CL-    CL-38702   6.318  10.744  12.501
78958CL-    CL-38703   7.249  42.887  10.407
78959CL-    CL-38704  29.596  19.275   0.777
78960CL-    CL-38705  13.743   4.407  13.049
78961CL-    CL-38706  22.733   9.674  11.035
78962CL-    CL-38707  18.672   0.827  14.467
78963CL-    CL-38708   6.723   5.863   2.815
78964CL-    CL-38709  10.779  24.531  13.355
78965CL-    CL-38710   8.344  42.508  12.379
78966CL-    CL-38711  38.409   4.704  12.918
78967CL-    CL-38712  17.139  23.521   3.866
78968CL-    CL-38713  11.272  26.521  14.912
78969CL-    CL-38714  41.920   0.259  11.578
78970CL-    CL-38715  25.487  17.144  10.939
78971CL-    CL-38716   9.755   2.311  13.834
78972CL-    CL-38717  27.658  15.094   4.302
78973CL-    CL-38718  43.009  32.558   4.780
78974CL-    CL-38719  35.538  38.824   2.704
78975CL-    CL-38720  28.532  10.324  11.078
78976CL-    CL-38721  31.138  12.158  14.426
78977CL-    CL-38722  34.084  24.113   1.278
78978CL-    CL-38723  18.692  33.605  13.535
78979CL-    CL-38724  33.549  42.412  13.506
78980CL-    CL-38725  14.607  29.656  11.553
78981CL-    CL-38726  40.470  44.465  11.385
78982CL-    CL-38727  14.295  21.713  14.869
78983CL-    CL-38728  23.696  22.107  13.822
78984CL-    CL-38729  20.178  25.652  14.920
78985CL-    CL-38730  29.943  25.133   2.835
78986CL-    CL-38731  17.654   8.191   2.697
78987CL-    CL-38732  42.438   4.897   2.784
78988CL-    CL-38733  11.687  35.401   1.281
78989CL-    CL-38734  14.605  24.054   1.448
78990CL-    CL-38735   2.360  10.223   2.745
78991CL-    CL-38736  24.075   3.826   3.760
78992CL-    CL-38737  15.577   6.735  11.959
78993CL-    CL-38738   4.407   5.296  10.999
78994CL-    CL-38739  41.401  36.966   3.665
78995CL-    CL-38740  16.591  10.745  11.987
78996CL-    CL-38741  29.513  31.517   4.198
78997CL-    CL-38742  18.618  20.069  11.023
78998CL-    CL-38743  23.031  23.551   3.219
78999CL-    CL-38744  15.729  27.981  14.394
79000CL-    CL-38745  16.254   7.780  10.993
79001CL-    CL-38746  39.936  41.861  13.443
79002CL-    CL-38747   7.853  23.598  10.068
79003CL-    CL-38748  16.609  12.715   1.833
79004CL-    CL-38749  40.484  36.957   2.296
79005CL-    CL-38750  15.096   2.410  13.835
79006CL-    CL-38751   0.370  34.973   2.785
79007CL-    CL-38752  29.557  19.753   1.765
79008CL-    CL-38753   5.237  24.192   2.218
79009CL-    CL-38754  18.097  29.964  12.855
79010CL-    CL-38755  22.648  43.823   2.763
79011CL-    CL-38756   8.160  19.257  12.499
79012CL-    CL-38757  44.505  16.743   0.377
79013CL-    CL-38758  16.211  23.163  14.392
79014CL-    CL-38759  22.656  35.009   0.425
79015CL-    CL-38760  40.967   4.939   1.837
79016CL-    CL-38761  42.797  34.485   0.382
79017CL-    CL-38762  40.850  25.120  13.536
79018CL-    CL-38763  17.666   9.369  13.488
79019CL-    CL-38764  29.611  14.739   2.344
79020CL-    CL-38765   2.878  42.431   0.930
79021CL-    CL-38766  22.198   9.775   2.704
79022CL-    CL-38767   4.256   9.271   1.735
79023CL-    CL-38768  20.736  18.195   3.678
79024CL-    CL-38769   7.672   5.932  14.794
79025CL-    CL-38770  27.617  13.761  11.605
79026CL-    CL-38771  24.212  26.158  13.006
79027CL-    CL-38772  31.931  23.735  12.491
79028CL-    CL-38773  27.623  15.256  12.576
79029CL-    CL-38774  13.682  33.418   2.692
79030CL-    CL-38775  24.003   5.204   1.709
79031CL-    CL-38776   7.313  23.576  10.431
79032CL-    CL-38777  19.703  17.704  13.325
79033CL-    CL-38778   3.753  22.054  12.525
79034CL-    CL-38779  29.031  13.842  13.824
79035CL-    CL-38780  18.546   8.376  14.277
79036CL-    CL-38781   3.379  36.471   2.901
79037CL-    CL-38782   3.258  38.849   1.277
79038CL-    CL-38783  10.265  43.795  10.577
79039CL-    CL-38784  37.961  43.447   3.303
79040CL-    CL-38785  27.177  39.838  13.058
79041CL-    CL-38786  41.393  10.774  13.838
79042CL-    CL-38787   4.815  38.537  10.455
79043CL-    CL-38788  32.955  44.950  10.539
79044CL-    CL-38789  26.560  26.180   2.272
79045CL-    CL-38790  20.582  39.855  13.445
79046CL-    CL-38791  26.038  44.823  11.431
79047CL-    CL-38792  13.602   5.419  14.385
79048CL-    CL-38793  31.925  14.792  11.079
79049CL-    CL-38794  10.846  21.575  13.993
79050CL-    CL-38795   4.824  15.090  12.515
79051CL-    CL-38796  38.931   3.289  12.034
79052CL-    CL-38797   3.302  15.822   2.737
79053CL-    CL-38798  20.743  30.583  10.972
79054CL-    CL-38799  22.115   7.266  11.958
79055CL-    CL-38800  10.346  41.002   4.779
79056CL-    CL-38801   0.889   0.399  12.934
79057CL-    CL-38802  40.833   6.909   4.284
79058CL-    CL-38803   5.712  15.276   0.406
79059CL-    CL-38804  33.531   3.852  14.786
79060CL-    CL-38805  12.621  43.923  14.007
79061CL-    CL-38806  18.566  37.069   4.693
79062CL-    CL-38807  28.565  14.739  11.607
79063CL-    CL-38808  42.427  42.836  12.456
79064CL-    CL-38809  31.469   2.229   4.791
79065CL-    CL-38810  20.165   5.380  11.914
79066CL-    CL-38811   1.944   7.871   0.961
79067CL-    CL-38812  37.570  42.405   0.268
79068CL-    CL-38813  31.025  14.237   3.846
79069CL-    CL-38814   1.913  24.633  12.416
79070CL-    CL-38815  23.667   0.982   1.217
79071CL-    CL-38816  13.205  10.204  14.381
79072CL-    CL-38817  10.148   4.276  13.880
79073CL-    CL-38818  29.640  36.555  14.435
79074CL-    CL-38819  25.075  10.833  14.293
79075CL-    CL-38820   3.755  30.577   0.270
79076CL-    CL-38821  42.849  41.843  14.368
79077CL-    CL-38822  12.150  25.521  14.027
79078CL-    CL-38823  43.803  25.004   2.901
79079CL-    CL-38824   7.236  40.003  14.944
79080CL-    CL-38825   6.317   4.937  12.067
79081CL-    CL-38826  37.965  24.169  12.884
79082CL-    CL-38827  40.304  12.702   4.765
79083CL-    CL-38828  43.889   6.183   4.342
79084CL-    CL-38829  29.142  18.168   1.809
79085CL-    CL-38830   6.782   6.883   0.395
79086CL-    CL-38831   0.963   2.361  13.044
79087CL-    CL-38832  20.113  39.390  14.982
79088CL-    CL-38833  25.496   2.881  14.986
79089CL-    CL-38834   2.305  28.452   3.355
79090CL-    CL-38835  18.587  32.514  12.395
79091CL-    CL-38836  38.407  26.592  11.118
79092CL-    CL-38837  37.484  16.687  12.079
79093CL-    CL-38838  32.047  23.598  13.867
79094CL-    CL-38839   9.226   8.799  11.562
79095CL-    CL-38840   0.464  39.958   5.789
79096CL-    CL-38841  35.962  41.434   3.670
79097CL-    CL-38842  26.601  36.055   3.636
79098CL-    CL-38843  40.866  37.995  11.904
79099CL-    CL-38844  25.005  40.808   4.785
79100CL-    CL-38845   7.830  38.419   0.758
79101CL-    CL-38846   8.310  28.461   1.704
79102CL-    CL-38847  17.762  12.836  11.128
79103CL-    CL-38848   9.352  11.770  11.071
79104CL-    CL-38849  36.451  36.063  10.133
79105CL-    CL-38850  44.298   6.689   1.364
79106CL-    CL-38851  17.728  42.503  10.943
79107CL-    CL-38852  39.825   8.362   2.220
79108CL-    CL-38853   0.986  21.240  14.827
79109CL-    CL-38854  20.227  38.908  12.885
79110CL-    CL-38855  32.485  32.101   1.262
79111CL-    CL-38856  40.821  14.764   1.301
79112CL-    CL-38857  18.742  14.636   0.844
79113CL-    CL-38858  16.197  24.120   1.867
79114CL-    CL-38859   7.279   6.263   1.400
79115CL-    CL-38860   2.244  38.329   9.957
79116CL-    CL-38861  30.526   8.746   1.265
79117CL-    CL-38862  25.642  39.542   3.700
79118CL-    CL-38863  16.572   2.393  14.463
79119CL-    CL-38864   9.335  30.516  13.876
79120CL-    CL-38865  39.400  12.623  13.919
79121CL-    CL-38866  13.725  11.181  12.534
79122CL-    CL-38867  27.956  18.087   5.257
79123CL-    CL-38868  20.055  35.510  13.500
79124CL-    CL-38869  22.745  35.874  14.508
79125CL-    CL-38870   5.294  30.055  12.969
79126CL-    CL-38871   8.401  18.779  14.811
79127CL-    CL-38872  16.699  10.347  11.479
79128CL-    CL-38873  37.007   1.823   3.816
79129CL-    CL-38874   0.964  21.024   1.411
79130CL-    CL-38875  27.465  43.507  14.012
79131CL-    CL-38876  25.088  35.377  12.431
79132CL-    CL-38877  44.973  10.349   3.331
79133CL-    CL-38878  10.199  19.745  11.474
79134CL-    CL-38879  29.481  42.923  14.031
79135CL-    CL-38880   0.778   6.896  12.894
79136CL-    CL-38881  13.309  24.525   0.435
79137CL-    CL-38882   1.947  36.866   1.767
79138CL-    CL-38883   9.714  39.006   3.722
79139CL-    CL-38884  26.478  41.465  14.962
79140CL-    CL-38885   5.397  11.238  13.359
79141CL-    CL-38886  41.472  40.344   1.275
79142CL-    CL-38887  18.222  41.505   3.172
79143CL-    CL-38888  38.529  13.693  14.024
79144CL-    CL-38889  43.460  10.734   1.426
79145CL-    CL-38890  11.791   4.824  14.467
79146CL-    CL-38891  35.480  42.828  11.423
79147CL-    CL-38892   4.324  18.623   1.900
79148CL-    CL-38893  39.001  22.080  12.093
79149CL-    CL-38894   1.370  25.158  13.004
79150CL-    CL-38895   9.870   3.351  12.824
79151CL-    CL-38896   2.458  22.703   0.315
79152CL-    CL-38897   8.278  35.409   4.650
79153CL-    CL-38898  22.670  23.190  11.557
79154CL-    CL-38899  42.981  37.419  13.949
79155CL-    CL-38900  25.710   1.942   0.282
79156CL-    CL-38901  44.901   0.315   2.661
79157CL-    CL-38902  43.917  10.841   4.250
79158CL-    CL-38903  30.133  23.577  13.904
79159CL-    CL-38904  17.147  39.422  12.905
79160CL-    CL-38905  19.717  21.663  12.449
79161CL-    CL-38906  18.765  23.643   1.792
79162CL-    CL-38907  32.497   8.769   1.340
79163CL-    CL-38908  27.457  25.137   0.948
79164CL-    CL-38909  22.561   0.353   3.329
79165CL-    CL-38910  17.611  37.540   1.292
79166CL-    CL-38911  10.278   6.696   3.249
79167CL-    CL-38912  38.832   6.715   5.319
79168CL-    CL-38913   0.764  34.077   2.843
79169CL-    CL-38914  37.533   2.883   2.229
79170CL-    CL-38915  35.863  23.494   4.794
79171CL-    CL-38916  20.137  26.624   1.728
79172CL-    CL-38917  33.960  36.852   2.293
79173CL-    CL-38918  43.882  38.537  10.501
79174CL-    CL-38919  31.602  36.067  14.494
79175CL-    CL-38920  38.066  32.632  14.952
79176CL-    CL-38921  27.509  11.737  12.045
79177CL-    CL-38922   2.890  21.648   3.846
79178CL-    CL-38923  18.661  13.797  12.859
79179CL-    CL-38924   2.950  44.768  12.547
79180CL-    CL-38925  33.525  35.470  14.836
79181CL-    CL-38926   4.715  32.541  14.880
79182CL-    CL-38927  32.031   4.292   2.763
79183CL-    CL-38928  36.404  15.120   2.373
79184CL-    CL-38929  22.015  42.404   1.732
79185CL-    CL-38930  44.809   1.273   1.755
79186CL-    CL-38931  43.367  39.520  11.864
79187CL-    CL-38932  32.899  33.525  11.419
79188CL-    CL-38933  12.689   6.891  14.784
79189CL-    CL-38934  21.641   1.744  14.350
79190CL-    CL-38935   7.378   5.855  11.541
79191CL-    CL-38936   0.918   3.422   4.776
79192CL-    CL-38937   1.864  28.605   3.239
79193CL-    CL-38938  30.908  28.664   4.305
79194CL-    CL-38939  23.523  26.647   4.328
79195CL-    CL-38940  37.850  19.748  13.848
79196CL-    CL-38941  24.692  39.832  11.109
79197CL-    CL-38942   2.853   0.900   4.225
79198CL-    CL-38943  34.399  38.029  11.901
79199CL-    CL-38944  44.837   2.925   1.243
79200CL-    CL-38945  28.143  19.156   3.636
79201CL-    CL-38946  37.512  18.607  13.521
79202CL-    CL-38947   6.875  14.687   1.348
79203CL-    CL-38948  24.481  26.612  12.899
79204CL-    CL-38949  32.955  42.332  11.867
79205CL-    CL-38950  11.762   3.385   2.289
79206CL-    CL-38951  25.563  13.613   0.435
79207CL-    CL-38952  12.324  16.688  11.963
79208CL-    CL-38953  30.103  32.564  11.449
79209CL-    CL-38954  39.338  39.887   1.801
79210CL-    CL-38955  38.547  43.365   3.675
79211CL-    CL-38956  27.171   5.275   3.240
79212CL-    CL-38957   6.880  18.121   3.385
79213CL-    CL-38958  43.270  41.990  10.425
79214CL-    CL-38959  28.510  24.539   1.790
79215CL-    CL-38960   6.258  26.150   3.380
79216CL-    CL-38961   6.749  22.008   0.808
79217CL-    CL-38962  18.544   0.828  13.384
79218CL-    CL-38963  20.036   1.942  12.024
79219CL-    CL-38964   5.211  15.293  11.514
79220CL-    CL-38965  43.333  43.438   3.762
79221CL-    CL-38966  39.483  37.887  13.417
79222CL-    CL-38967  43.299  10.306   2.851
79223CL-    CL-38968  10.638  35.889   3.191
79224CL-    CL-38969  30.638  14.113  13.949
79225CL-    CL-38970   9.861  23.023   1.245
79226CL-    CL-38971  18.701  27.036   1.903
79227CL-    CL-38972  11.259  37.888  13.525
79228CL-    CL-38973  22.164  14.725   3.384
79229CL-    CL-38974  12.218   9.694   2.239
79230CL-    CL-38975  40.447  16.651   4.190
79231CL-    CL-38976  40.003  41.316   2.777
79232CL-    CL-38977  41.408  35.462   4.267
79233CL-    CL-38978  20.646  33.080   5.679
79234CL-    CL-38979   6.285  33.626  12.497
79235CL-    CL-38980  17.289  10.372  11.413
79236CL-    CL-38981  35.079  31.984  13.810
79237CL-    CL-38982  43.017  13.142   0.426
79238CL-    CL-38983   3.865  15.318   3.774
79239CL-    CL-38984  41.926  29.133   3.823
79240CL-    CL-38985  31.064   4.877  13.031
79241CL-    CL-38986  25.130  25.581   3.654
79242CL-    CL-38987   3.328  39.977   3.659
79243CL-    CL-38988  10.781  28.537  13.859
79244CL-    CL-38989  21.190  44.491   4.714
79245CL-    CL-38990  38.504  32.578  12.479
79246CL-    CL-38991  15.292  37.542   3.242
79247CL-    CL-38992  24.039  34.585  10.005
79248CL-    CL-38993   8.314  41.328  11.882
79249CL-    CL-38994   8.240  28.546   4.150
79250CL-    CL-38995  21.022  35.449   2.732
79251CL-    CL-38996  18.206  15.824  10.160
79252CL-    CL-38997  18.789  22.128  14.960
79253CL-    CL-38998  19.080   3.377   2.858
79254CL-    CL-38999  43.349  26.086  10.514
79255CL-    CL-39000  37.064   2.349  12.478
79256CL-    CL-39001   8.734   3.913   3.770
79257CL-    CL-39002  13.600  19.086  13.475
79258CL-    CL-39003  21.629  29.042   4.813
79259CL-    CL-39004  41.411  35.992   2.308
79260CL-    CL-39005  33.456  21.145  13.039
79261CL-    CL-39006  37.049  11.714  13.358
79262CL-    CL-39007  33.114  36.023   2.212
79263CL-    CL-39008  41.949  23.649   4.653
79264CL-    CL-39009  10.307  30.529  14.945
79265CL-    CL-39010   2.804  10.384  10.957
79266CL-    CL-39011  33.084  24.594   0.425
79267CL-    CL-39012  24.009  21.093   4.794
79268CL-    CL-39013   4.913  32.114   1.333
79269CL-    CL-39014   8.788  41.335   4.700
79270CL-    CL-39015  27.451  30.949  11.497
79271CL-    CL-39016  39.550  16.711   4.610
79272CL-    CL-39017  29.066  22.075   9.976
79273CL-    CL-39018  15.151   0.386   3.182
79274CL-    CL-39019  44.334  31.019  10.887
79275CL-    CL-39020   7.396  44.873   2.732
79276CL-    CL-39021  44.382  19.638   5.120
79277CL-    CL-39022  12.212  39.522   2.683
79278CL-    CL-39023   9.270  38.451   4.142
79279CL-    CL-39024  42.467   0.454  12.366
79280CL-    CL-39025  37.557  14.778   3.372
79281CL-    CL-39026  13.631  27.528   4.330
79282CL-    CL-39027  20.167  13.110  14.002
79283CL-    CL-39028  20.559  10.214  13.814
79284CL-    CL-39029  31.935  11.152  13.972
79285CL-    CL-39030  18.260  30.511   2.803
79286CL-    CL-39031   9.818  28.560   3.166
79287CL-    CL-39032   9.175  11.246  13.939
79288CL-    CL-39033  26.553  25.603  11.394
79289CL-    CL-39034  31.932  33.130   2.846
79290CL-    CL-39035   9.871  24.102  10.486
79291CL-    CL-39036  14.834   8.887   4.599
79292CL-    CL-39037  33.430  24.657   3.632
79293CL-    CL-39038  22.739   3.435   2.846
79294CL-    CL-39039   3.278  16.592   4.314
79295CL-    CL-39040  21.126  31.144  11.057
79296CL-    CL-39041  18.186   5.373  13.021
79297CL-    CL-39042  16.687  26.484  10.472
79298CL-    CL-39043   1.924  37.493  11.878
79299CL-    CL-39044  15.259  40.914  13.871
79300CL-    CL-39045  41.336  41.526  14.816
79301CL-    CL-39046  10.207   4.752  10.504
79302CL-    CL-39047  21.583  43.990   4.259
79303CL-    CL-39048   4.770   7.840  10.967
79304CL-    CL-39049  44.321   5.203   3.306
79305CL-    CL-39050  32.923  36.521   4.703
79306CL-    CL-39051  43.900  24.979   2.277
79307CL-    CL-39052  18.269  39.489  10.622
79308CL-    CL-39053  19.772  10.309   3.192
79309CL-    CL-39054  41.487  25.219  11.930
79310CL-    CL-39055  36.015  30.441   2.838
79311CL-    CL-39056  25.090  22.739  10.566
79312CL-    CL-39057   1.976  25.700   1.415
79313CL-    CL-39058  20.552  35.535  14.986
79314CL-    CL-39059  26.023   0.970  11.452
79315CL-    CL-39060  12.307   9.225   0.372
79316CL-    CL-39061   2.761  13.674  10.413
79317CL-    CL-39062  28.577  42.935  10.981
79318CL-    CL-39063   9.826  42.292  13.891
79319CL-    CL-39064   2.366   0.987  14.313
79320CL-    CL-39065   8.218  33.099   3.747
79321CL-    CL-39066  43.970  31.031   4.599
79322CL-    CL-39067  18.699  20.653   4.275
79323CL-    CL-39068  35.388  29.057   3.794
79324CL-    CL-39069  37.928  42.926   0.414
79325CL-    CL-39070  43.938  29.161   1.739
79326CL-    CL-39071  16.242   2.768   1.236
79327CL-    CL-39072  20.220   1.762  14.029
79328CL-    CL-39073   8.889  27.676  14.842
79329CL-    CL-39074  39.970  24.580  11.113
79330CL-    CL-39075   0.328  30.467  12.970
79331CL-    CL-39076  28.938  31.646   2.783
79332CL-    CL-39077  21.219   0.435   9.657
79333CL-    CL-39078   4.208  39.416  10.584
79334CL-    CL-39079  44.434  40.858  11.548
79335CL-    CL-39080  44.341   6.850   0.479
79336CL-    CL-39081  37.490  15.322   1.379
79337CL-    CL-39082  41.391   2.915  13.362
79338CL-    CL-39083  15.238  23.079  12.561
79339CL-    CL-39084   4.300  17.598   4.166
79340CL-    CL-39085  24.166  42.330   0.732
79341CL-    CL-39086  20.764  27.642   3.378
79342CL-    CL-39087  21.672  30.551  11.010
79343CL-    CL-39088  12.272  22.640   2.206
79344CL-    CL-39089  15.266  43.324   2.219
79345CL-    CL-39090  27.541  23.198  11.404
79346CL-    CL-39091   3.373  13.669  14.849
79347CL-    CL-39092  11.867  23.134   0.350
79348CL-    CL-39093   9.203  40.495   2.887
79349CL-    CL-39094   8.732  11.332  14.291
79350CL-    CL-39095  38.953  28.605  11.958
79351CL-    CL-39096   8.285  11.237  14.908
79352CL-    CL-39097  27.150  25.975  13.034
79353CL-    CL-39098   0.386   8.657  12.020
79354CL-    CL-39099  44.488   9.870  11.121
79355CL-    CL-39100  25.174  43.455   4.300
79356CL-    CL-39101  26.983   7.412  12.440
79357CL-    CL-39102  28.615  40.999  13.983
79358CL-    CL-39103  34.606  27.581  10.890
79359CL-    CL-39104  39.874  20.132   2.696
79360CL-    CL-39105   7.672   7.735  14.940
79361CL-    CL-39106   2.465  36.080  11.999
79362CL-    CL-39107  32.061  11.134   3.804
79363CL-    CL-39108  11.178  14.701   4.650
79364CL-    CL-39109  23.511  32.916  12.953
79365CL-    CL-39110  35.856   1.477  13.459
79366CL-    CL-39111   9.365  14.810  12.045
79367CL-    CL-39112   1.864  12.295  11.914
79368CL-    CL-39113  43.009   9.379   0.860
79369CL-    CL-39114  11.827  27.685   0.799
79370CL-    CL-39115  12.613  23.999  12.851
79371CL-    CL-39116  41.809  11.800  12.998
79372CL-    CL-39117  31.488  20.605  14.790
79373CL-    CL-39118  43.010  13.316   3.638
79374CL-    CL-39119  13.211   9.695  14.376
79375CL-    CL-39120  20.151  12.763   0.385
79376CL-    CL-39121  24.712  25.712   4.685
79377CL-    CL-39122  16.570  19.059   3.720
79378CL-    CL-39123  29.651   1.341  13.869
79379CL-    CL-39124   2.918  28.969   1.402
79380CL-    CL-39125  26.084  31.108   3.679
79381CL-    CL-39126  23.627   5.861  14.001
79382CL-    CL-39127  23.735  38.369   4.348
79383CL-    CL-39128  13.639   2.947  14.828
79384CL-    CL-39129  40.339  24.178   0.461
79385CL-    CL-39130  33.010  14.109   4.608
79386CL-    CL-39131  22.176  21.090   0.920
79387CL-    CL-39132  34.547  11.255   1.783
79388CL-    CL-39133  20.256  34.396   2.882
79389CL-    CL-39134   3.767  33.523  14.010
79390CL-    CL-39135  19.755  40.338   0.281
79391CL-    CL-39136   3.318  17.707  13.471
79392CL-    CL-39137  11.713  37.510   1.287
79393CL-    CL-39138   6.730  26.185  11.098
79394CL-    CL-39139  16.155  31.493   3.654
79395CL-    CL-39140  21.245  13.303  14.303
79396CL-    CL-39141  29.027   6.263  12.934
79397CL-    CL-39142  21.211  26.997   3.263
79398CL-    CL-39143  25.103   1.264   9.628
79399CL-    CL-39144  12.804  41.859   0.356
79400CL-    CL-39145   7.406   5.859   0.866
79401CL-    CL-39146  34.012  33.016   4.780
79402CL-    CL-39147  12.614  26.136  13.463
79403CL-    CL-39148   8.198  14.171  10.427
79404CL-    CL-39149  18.176  30.518  11.865
79405CL-    CL-39150  17.065   1.262  10.418
79406CL-    CL-39151   6.869  21.550  12.498
79407CL-    CL-39152  24.183  41.880   1.217
79408CL-    CL-39153   2.943   2.341   4.832
79409CL-    CL-39154  36.570  14.098  11.526
79410CL-    CL-39155  34.020  10.207   2.181
79411CL-    CL-39156  35.460  41.982   4.637
79412CL-    CL-39157  19.254  31.642   0.865
79413CL-    CL-39158  21.083  39.507   0.349
79414CL-    CL-39159   9.693  39.382   0.484
79415CL-    CL-39160  10.138  14.731   3.819
79416CL-    CL-39161  17.090  14.276   4.144
79417CL-    CL-39162   3.950   1.943   4.604
79418CL-    CL-39163  17.677  26.505   0.874
79419CL-    CL-39164   6.780  35.999   3.373
79420CL-    CL-39165  40.879   2.839   3.341
79421CL-    CL-39166  15.689  19.145   2.225
79422CL-    CL-39167   3.296  12.306  11.054
79423CL-    CL-39168  36.390  35.521   3.734
79424CL-    CL-39169  21.159  16.314  12.380
79425CL-    CL-39170   5.933  37.987  10.916
79426CL-    CL-39171  27.165   6.422  10.917
79427CL-    CL-39172   2.909  42.825   3.821
79428CL-    CL-39173  15.605  11.629   2.670
79429CL-    CL-39174  21.235  23.696  11.531
79430CL-    CL-39175  44.461  44.299  14.825
79431CL-    CL-39176  26.518  44.410   1.227
79432CL-    CL-39177  19.551  27.475  12.005
79433CL-    CL-39178  17.711  18.115   4.636
79434CL-    CL-39179  18.722  42.427   1.853
79435CL-    CL-39180  31.422  41.322  13.524
79436CL-    CL-39181  38.878  43.861   1.438
79437CL-    CL-39182  27.979  11.715  14.439
79438CL-    CL-39183  24.218  35.404   1.874
79439CL-    CL-39184  25.518  13.127   4.245
79440CL-    CL-39185   5.297   1.871   0.446
79441CL-    CL-39186  28.641  42.483  14.020
79442CL-    CL-39187  41.826  14.097  11.078
79443CL-    CL-39188  30.016  41.812  11.123
79444CL-    CL-39189  10.321   5.769   4.838
79445CL-    CL-39190  42.918   0.913   4.663
79446CL-    CL-39191  30.910   5.692   1.752
79447CL-    CL-39192  29.152   6.850   0.916
79448CL-    CL-39193  43.014   8.783  10.949
79449CL-    CL-39194  38.894  35.504   3.233
79450CL-    CL-39195  13.778   1.280  10.952
79451CL-    CL-39196  41.336  33.077  11.590
79452CL-    CL-39197   6.375   4.397  12.452
79453CL-    CL-39198  34.052  30.082  11.511
79454CL-    CL-39199  42.020   9.313   3.349
79455CL-    CL-39200  12.247  16.282   3.148
79456CL-    CL-39201  27.629  12.615  14.893
79457CL-    CL-39202  21.081  20.723   0.926
79458CL-    CL-39203  14.137   6.818  14.973
79459CL-    CL-39204  16.134  34.068  14.507
79460CL-    CL-39205  25.964  25.171  14.360
79461CL-    CL-39206  15.758  20.589  10.506
79462CL-    CL-39207  15.709  13.650  10.961
79463CL-    CL-39208   9.791  24.040   4.740
79464CL-    CL-39209  10.824  39.007   2.892
79465CL-    CL-39210  28.072  14.608   4.761
79466CL-    CL-39211  26.177   6.693  14.507
79467CL-    CL-39212  25.036  27.687   2.850
79468CL-    CL-39213   6.776   4.901   2.745
79469CL-    CL-39214  44.781  32.473  14.505
79470CL-    CL-39215  32.594   8.393  10.932
79471CL-    CL-39216  23.203   1.347   2.726
79472CL-    CL-39217  14.671  29.176   2.345
79473CL-    CL-39218  43.331  19.766  11.894
79474CL-    CL-39219   2.941   1.770   2.223
79475CL-    CL-39220  14.302  27.617   4.121
79476CL-    CL-39221  26.481  33.035   0.774
79477CL-    CL-39222  34.923  16.244   3.662
79478CL-    CL-39223  28.576  40.425  11.097
79479CL-    CL-39224  12.360  27.988  12.444
79480CL-    CL-39225  23.688   5.693  10.571
79481CL-    CL-39226   3.394   2.336   1.917
79482CL-    CL-39227   5.426  41.800  12.048
79483CL-    CL-39228  30.555   5.804  13.015
79484CL-    CL-39229  40.024  40.403   4.697
79485CL-    CL-39230  31.558   9.207   3.152
79486CL-    CL-39231  18.661  21.206   5.121
79487CL-    CL-39232  44.334  39.361  13.472
79488CL-    CL-39233  40.959   0.421   0.879
79489CL-    CL-39234   2.914   3.325  11.985
79490CL-    CL-39235  23.034  14.592  12.002
79491CL-    CL-39236   7.201  29.934  11.409
79492CL-    CL-39237  25.570  16.627   1.724
79493CL-    CL-39238   1.415   7.866  14.400
79494CL-    CL-39239  23.020   1.822  14.901
79495CL-    CL-39240   3.830  44.343  11.386
79496CL-    CL-39241  14.158  24.977  11.569
79497CL-    CL-39242   8.823  16.297   1.392
79498CL-    CL-39243  13.639  41.398  13.051
79499CL-    CL-39244  19.730  34.074  12.403
79500CL-    CL-39245  27.951   9.266  13.392
79501CL-    CL-39246  15.261  32.137  10.598
79502CL-    CL-39247  27.654  17.731  14.984
79503CL-    CL-39248  41.952  32.889  13.331
79504CL-    CL-39249   0.911   4.793  10.055
79505CL-    CL-39250  14.725  29.132  12.906
79506CL-    CL-39251  44.908  41.825  10.607
79507CL-    CL-39252   6.907   9.822   4.191
79508CL-    CL-39253  21.606  36.975  13.998
79509CL-    CL-39254   4.777  25.681  12.406
79510CL-    CL-39255  37.466   8.682   9.936
79511CL-    CL-39256  29.569   9.657   0.275
79512CL-    CL-39257  17.561  27.510   0.415
79513CL-    CL-39258  18.266  28.623  10.408
79514CL-    CL-39259  28.109  13.665  12.448
79515CL-    CL-39260   1.402   9.780  12.928
79516CL-    CL-39261   6.771  28.017   0.247
79517CL-    CL-39262   0.285  26.146  14.462
79518CL-    CL-39263   1.265  15.252   1.933
79519CL-    CL-39264  23.677  32.393  14.313
79520CL-    CL-39265  13.667  14.589  11.102
79521CL-    CL-39266   7.273  28.668   3.378
79522CL-    CL-39267   0.871  31.939   3.252
79523CL-    CL-39268  16.583   4.739   1.252
79524CL-    CL-39269   1.828   3.812   1.905
79525CL-    CL-39270  24.041  38.975  10.889
79526CL-    CL-39271  44.356   2.329   2.296
79527CL-    CL-39272  19.149   6.413   0.765
79528CL-    CL-39273  28.624  40.901   0.483
79529CL-    CL-39274  44.286  42.934   1.376
79530CL-    CL-39275   8.281   4.250  12.525
79531CL-    CL-39276  10.772  35.905  10.413
79532CL-    CL-39277   3.292   3.215   4.770
79533CL-    CL-39278  34.525  27.686   2.694
79534CL-    CL-39279  40.824  11.343  12.457
79535CL-    CL-39280  21.192  24.011  11.459
79536CL-    CL-39281  25.526  20.254  14.021
79537CL-    CL-39282  23.566  36.087   2.754
79538CL-    CL-39283  25.202  35.023   2.857
79539CL-    CL-39284  23.137  33.985   0.479
79540CL-    CL-39285  22.043  11.723  14.904
79541CL-    CL-39286  23.083   4.886  12.404
79542CL-    CL-39287  15.182  21.693   2.318
79543CL-    CL-39288  14.207  38.495   4.669
79544CL-    CL-39289  37.027  23.019   2.853
79545CL-    CL-39290   6.863  26.152   1.886
79546CL-    CL-39291  11.364  35.468   3.151
79547CL-    CL-39292  44.929  16.769  12.514
79548CL-    CL-39293  17.169  29.156  10.566
79549CL-    CL-39294  26.198   8.317   0.887
79550CL-    CL-39295  33.596  13.117   2.250
79551CL-    CL-39296  12.798  32.529  10.124
79552CL-    CL-39297  22.250   9.880   0.851
79553CL-    CL-39298  42.328   7.319   4.737
79554CL-    CL-39299  43.989  43.874   0.259
79555CL-    CL-39300  28.441  10.804   0.448
79556CL-    CL-39301  39.037  10.151   2.903
79557CL-    CL-39302  26.081  22.561  10.905
79558CL-    CL-39303  18.136   9.186   1.860
79559CL-    CL-39304  19.149  14.292  10.953
79560CL-    CL-39305   6.843  42.864   4.607
79561CL-    CL-39306   7.699  32.393  14.011
79562CL-    CL-39307   0.482  41.422  10.447
79563CL-    CL-39308  33.395   5.746   4.807
79564CL-    CL-39309  32.956   0.298  14.991
79565CL-    CL-39310  37.850  23.057   1.221
79566CL-    CL-39311   8.666  19.643   2.236
79567CL-    CL-39312  30.027   9.769   3.852
79568CL-    CL-39313  40.894  19.182   1.250
79569CL-    CL-39314  19.124  10.373   1.398
79570CL-    CL-39315   5.827  23.706  14.464
79571CL-    CL-39316  42.523  26.683   4.178
79572CL-    CL-39317  17.261  30.060  10.582
79573CL-    CL-39318  19.775  29.004   3.288
79574CL-    CL-39319   5.832  44.796   0.769
79575CL-    CL-39320  40.911  41.853  11.904
79576CL-    CL-39321   9.211  34.952  13.013
79577CL-    CL-39322  24.018   3.921  13.833
79578CL-    CL-39323  27.179   5.847   1.818
79579CL-    CL-39324  31.118  35.901   4.326
79580CL-    CL-39325  13.752  40.835  14.447
79581CL-    CL-39326  36.440  27.147  11.073
79582CL-    CL-39327  33.488  35.522  13.924
79583CL-    CL-39328  27.540   3.426   2.770
79584CL-    CL-39329  37.503  26.055   2.225
79585CL-    CL-39330   2.837  17.083   3.225
79586CL-    CL-39331   2.365  44.761  10.975
79587CL-    CL-39332   2.780   3.928  10.585
79588CL-    CL-39333   0.257  42.805   1.763
79589CL-    CL-39334  41.901  22.246  10.526
79590CL-    CL-39335   8.188   4.440   2.373
79591CL-    CL-39336  36.553  16.648   4.752
79592CL-    CL-39337   3.222  42.919  10.606
79593CL-    CL-39338  12.298  40.867   2.312
79594CL-    CL-39339   9.823  20.763  11.548
79595CL-    CL-39340  41.850  25.057  14.361
79596CL-    CL-39341  20.674  33.088   2.414
79597CL-    CL-39342  21.716  40.872   2.208
79598CL-    CL-39343  13.143  14.106   5.188
79599CL-    CL-39344  15.668   7.890   1.281
79600CL-    CL-39345  33.003  22.660  10.559
79601CL-    CL-39346  25.987  30.978  14.874
79602CL-    CL-39347  22.006  19.653  13.966
79603CL-    CL-39348   9.273   4.813   1.795
79604CL-    CL-39349   1.941  16.146   1.764
79605CL-    CL-39350  14.598  44.415  10.905
79606CL-    CL-39351  36.872   8.386   1.254
79607CL-    CL-39352  12.311  30.941  10.626
79608CL-    CL-39353  18.286  40.822   2.195
79609CL-    CL-39354  32.918  28.638  10.116
79610CL-    CL-39355  40.939  15.266  12.093
79611CL-    CL-39356  41.836   4.404   3.842
79612CL-    CL-39357  27.087  32.055   0.277
79613CL-    CL-39358  21.642  34.053   0.257
79614CL-    CL-39359   2.434   0.822   4.655
79615CL-    CL-39360   1.449  44.871   4.343
79616CL-    CL-39361   4.376  36.096   0.919
79617CL-    CL-39362  25.476   4.859   3.242
79618CL-    CL-39363  17.272  14.746   1.890
79619CL-    CL-39364   4.449   5.761  11.580
79620CL-    CL-39365   9.843   4.885  11.864
79621CL-    CL-39366  21.085  23.034  11.945
79622CL-    CL-39367   8.684  41.457  10.929
79623CL-    CL-39368  26.517  42.950  13.999
79624CL-    CL-39369  41.835  43.279   0.270
79625CL-    CL-39370  43.279  33.385  13.957
79626CL-    CL-39371   2.910  17.757  12.994
79627CL-    CL-39372  37.415  21.605   3.151
79628CL-    CL-39373  32.445  32.559  12.438
79629CL-    CL-39374  29.584  33.568   0.936
79630CL-    CL-39375  32.954  11.643  11.386
79631CL-    CL-39376  37.400  34.464   2.301
79632CL-    CL-39377  40.390  34.865  10.441
79633CL-    CL-39378   2.412  33.903  14.991
79634CL-    CL-39379  14.246   7.335  12.546
79635CL-    CL-39380  10.280  27.071   2.338
79636CL-    CL-39381  18.145   5.833  12.424
79637CL-    CL-39382  13.306  30.592   1.333
79638CL-    CL-39383  33.589  29.150  13.911
79639CL-    CL-39384  35.588  20.154   1.395
79640CL-    CL-39385  35.558  13.645  13.867
79641CL-    CL-39386  36.906  41.909  12.068
79642CL-    CL-39387   4.819  13.680   0.352
79643CL-    CL-39388  13.232  11.842   3.356
79644CL-    CL-39389  21.693  44.319  13.893
79645CL-    CL-39390  29.933  28.653  14.845
79646CL-    CL-39391   1.457  33.578   3.670
79647CL-    CL-39392  43.856  10.633  13.996
79648CL-    CL-39393  29.515  33.568  14.455
79649CL-    CL-39394  34.413  23.000   2.853
79650CL-    CL-39395  43.283  31.959  11.867
79651CL-    CL-39396  35.389   8.780   1.749
79652CL-    CL-39397  20.200  32.581   4.614
79653CL-    CL-39398   1.323  29.088   3.296
79654CL-    CL-39399  15.657  11.362  12.402
79655CL-    CL-39400  13.208  39.506  10.410
79656CL-    CL-39401  38.409  41.339   3.193
79657CL-    CL-39402  25.711  31.968  12.891
79658CL-    CL-39403  17.620  24.708  12.004
79659CL-    CL-39404  40.972   7.320  13.835
79660CL-    CL-39405   5.811  31.561   0.759
79661CL-    CL-39406  20.081  22.624  11.452
79662CL-    CL-39407  11.281  16.805  11.480
79663CL-    CL-39408  12.783  41.794   4.836
79664CL-    CL-39409  26.605   4.405   1.349
79665CL-    CL-39410   9.284  31.408  13.336
79666CL-    CL-39411  30.609  44.304   4.169
79667CL-    CL-39412  28.145  35.481   4.726
79668CL-    CL-39413  13.232  11.862  10.057
79669CL-    CL-39414  30.586  10.654  11.588
79670CL-    CL-39415   6.183  38.935  14.327
79671CL-    CL-39416   3.799   5.305   0.372
79672CL-    CL-39417  30.525   1.314   9.973
79673CL-    CL-39418  36.383  37.351   0.401
79674CL-    CL-39419  28.115   1.461  14.949
79675CL-    CL-39420  30.037  41.991  14.968
79676CL-    CL-39421   7.809  43.795   3.268
79677CL-    CL-39422  38.890   5.312   2.877
79678CL-    CL-39423  32.963   8.832   2.773
79679CL-    CL-39424  33.098  39.405   1.408
79680CL-    CL-39425  22.118  19.168   4.604
79681CL-    CL-39426  12.707  10.178  10.919
79682CL-    CL-39427  25.618   4.365   9.545
79683CL-    CL-39428  18.140  32.981  12.037
79684CL-    CL-39429  11.242  18.745  13.791
79685CL-    CL-39430  28.622  38.049  12.923
79686CL-    CL-39431   6.726  30.952  10.404
79687CL-    CL-39432  32.077   6.918   1.824
79688CL-    CL-39433  34.380  12.258   2.666
79689CL-    CL-39434   7.864  10.255   1.336
79690CL-    CL-39435   7.335  26.123  12.916
79691CL-    CL-39436   3.315  39.407   3.710
79692CL-    CL-39437  17.673  44.380  11.465
79693CL-    CL-39438   2.318  12.353  13.460
79694CL-    CL-39439   8.354  19.748  11.421
79695CL-    CL-39440  30.574  30.117  14.788
79696CL-    CL-39441   0.839  14.170   0.311
79697CL-    CL-39442  37.018  12.141  14.335
79698CL-    CL-39443  29.562  21.154  12.532
79699CL-    CL-39444  31.429  30.431   2.207
79700CL-    CL-39445  35.362  12.205   0.889
79701CL-    CL-39446  18.779  32.891  12.419
79702CL-    CL-39447  22.222   9.389   4.679
79703CL-    CL-39448  26.126  28.049  11.023
79704CL-    CL-39449  21.194  36.539   3.288
79705CL-    CL-39450  11.862  36.352  10.153
79706CL-    CL-39451  39.891   9.154   1.854
79707CL-    CL-39452   4.435  20.083  11.921
79708CL-    CL-39453  10.165  41.968  10.913
79709CL-    CL-39454   2.385   6.762  14.810
79710CL-    CL-39455  19.769  23.598   0.254
79711CL-    CL-39456  11.655  35.486   2.254
79712CL-    CL-39457   7.843  14.224  12.996
79713CL-    CL-39458   6.406  19.702  13.978
79714CL-    CL-39459  22.687  42.464   4.250
79715CL-    CL-39460  38.491   3.444  12.825
79716CL-    CL-39461  43.451  22.228   4.143
79717CL-    CL-39462   9.675  31.910  13.983
79718CL-    CL-39463  27.140  34.885  13.493
79719CL-    CL-39464   6.821  26.662  12.578
79720CL-    CL-39465   0.317  27.066   4.190
79721CL-    CL-39466  43.002  17.090   5.116
79722CL-    CL-39467  14.728  18.738  13.986
79723CL-    CL-39468  11.671  22.064  10.445
79724CL-    CL-39469   0.914  20.159   3.640
79725CL-    CL-39470  23.063   0.401   3.299
79726CL-    CL-39471  12.357  35.881   2.709
79727CL-    CL-39472  18.562  22.544   4.618
79728CL-    CL-39473  19.560  37.003  13.047
79729CL-    CL-39474   1.371  20.262   2.352
79730CL-    CL-39475  17.685  40.453  13.545
79731CL-    CL-39476   5.900  22.736   0.404
79732CL-    CL-39477  22.647  31.570   2.225
79733CL-    CL-39478   6.310  26.976  13.793
79734CL-    CL-39479   6.401  12.729  10.035
  45.00000  45.00000  15.00000   0.00000   0.00000   0.00000   0.00000   0.00000   0.00000

